FOO
138240
    1MOL0     O    1   6.340   6.913   5.759 -0.7741  0.3570 -0.2216
    1MOL0     C    2   6.376   6.793   5.766  0.0147  0.0297 -0.5459
    1MOL0     O    3   6.295   6.688   5.799  0.2703  0.2490 -0.4309
    1MOL0     C    4   6.169   6.712   5.832 -0.4436  0.8477 -0.6151
    1MOL0     C    5   6.120   6.692   5.966  0.5719  0.0353 -0.2604
    1MOL0     C    6   5.982   6.692   5.989 -0.3301 -0.7795 -0.3836
    1MOL0     C    7   5.896   6.736   5.889 -0.0319  0.4790 -0.3493
    1MOL0     O    8   5.768   6.758   5.929 -1.1251  0.2331 -0.1756
    1MOL0     C    9   5.677   6.811   5.844  1.0498  0.9042 -0.2812
    1MOL0     C   10   5.559   6.853   5.933  0.1139  0.2937  0.2343
    1MOL0     C   11   5.440   6.905   5.852  0.7157  0.1363 -0.3523
    1MOL0     C   12   5.315   6.933   5.937 -0.4680  0.3927  0.1730
    1MOL0     C   13   5.207   7.012   5.846  0.9285  0.4048 -0.5637
    1MOL0     C   14   5.099   7.083   5.929  0.3682  0.6403 -0.4391
    1MOL0     C   15   5.012   7.168   5.837  0.6067 -0.0146  0.2989
    1MOL0     C   16   4.906   7.255   5.910  0.1755 -0.0233  0.3447
    1MOL0     N   17   4.813   7.172   5.994  0.2924  0.4445  0.8043
    1MOL0     C   18   4.832   7.142   6.129  0.0968  0.6884  0.4942
    1MOL0     C   19   4.722   7.071   6.171  0.3591 -1.1341  0.2520
    1MOL0     C   20   4.685   7.025   6.310  0.1415 -0.1447 -0.1215
    1MOL0     C   21   4.627   7.134   6.406 -0.4661  0.1954  0.8286
    1MOL0     C   22   4.536   7.234   6.324  0.8757  0.5582 -0.5996
    1MOL0     C   23   4.457   7.327   6.415  0.6367 -0.0397 -0.7731
    1MOL0     O   24   4.341   7.379   6.349  0.9349  0.1902  0.4274
    1MOL0     C   25   4.215   7.362   6.401 -1.1324 -0.0224 -0.5332
    1MOL0     C   26   4.197   7.360   6.542 -0.9435 -0.4643  0.4975
    1MOL0     C   27   4.075   7.322   6.598 -0.2488 -0.2452 -0.1686
    1MOL0     C   28   4.072   7.309   6.747  0.5290  0.2307  0.1860
    1MOL0     C   29   3.955   7.323   6.515 -0.1963  0.4872 -0.0252
    1MOL0     C   30   3.812   7.322   6.562 -1.0823  0.2622  0.0012
    1MOL0     O   31   3.719   7.333   6.471  0.0545 -0.5697  0.2452
    1MOL0     C   32   3.587   7.334   6.516 -0.7231  0.9256  0.5015
    1MOL0     C   33   3.532   7.450   6.579  0.0186  0.5344 -0.9414
    1MOL0     C   34   3.393   7.449   6.600  0.2477 -0.3295  0.0891
    1MOL0     C   35   3.318   7.330   6.575 -0.3012  0.2653 -0.4212
    1MOL0     O   36   3.183   7.336   6.589  0.5556  0.8837  0.4812
    1MOL0     C   37   3.101   7.221   6.557  0.6232  0.2580 -0.7301
    1MOL0     C   38   2.950   7.252   6.594 -0.0819 -0.3732  0.1662
    1MOL0     C   39   2.873   7.128   6.580 -0.0905  0.1602 -0.1059
    1MOL0     C   40   2.730   7.148   6.539 -0.8716  0.7345 -0.0279
    1MOL0     C   41   2.653   7.020   6.498  0.5311 -0.7647 -0.2386
    1MOL0     C   42   2.511   7.077   6.463  0.9118  0.0953  0.4392
    1MOL0     C   43   2.430   6.958   6.413 -1.0568 -0.5229 -0.6750
    1MOL0     C   44   2.284   6.970   6.465 -0.9452 -0.3722  0.1060
    1MOL0    Cl   45   2.204   6.818   6.381 -0.6756 -0.2662 -0.0169
    1MOL0     C   46   3.386   7.209   6.530 -0.0478  0.0929 -0.1249
    1MOL0     C   47   3.519   7.218   6.499  0.6891  0.5313 -0.9537
    1MOL0     O   48   3.794   7.307   6.680 -0.6398  0.2100  0.7598
    1MOL0     C   49   3.970   7.350   6.381 -0.3104 -0.3767  0.7701
    1MOL0     C   50   4.098   7.366   6.320 -0.8953 -0.2650  0.1960
    1MOL0     N   51   4.645   7.065   6.051  0.3941 -0.6835 -0.6907
    1MOL0     N   52   4.701   7.115   5.952  0.1450 -0.9611  0.2810
    1MOL0     C   53   5.947   6.760   5.759 -0.0273  0.2552  0.0256
    1MOL0     C   54   6.081   6.745   5.736 -0.5917  0.6506  0.4809
    1MOL0     C   55   6.517   6.769   5.757  0.1770 -0.4313  0.1158
    1MOL0     C   56   6.577   6.654   5.818  0.3461 -0.3253  0.2978
    1MOL0     C   57   6.707   6.633   5.801 -0.1149 -0.0742 -0.4467
    1MOL0     C   58   6.784   6.722   5.735  0.2168  0.0892 -0.3721
    1MOL0     O   59   6.912   6.677   5.719 -0.2567 -0.4352  0.6164
    1MOL0     C   60   7.000   6.738   5.617 -0.6013  0.8355  0.0835
    1MOL0     C   61   6.957   6.704   5.474 -0.5040  0.3388  0.4657
    1MOL0     C   62   6.965   6.549   5.446 -0.7428  0.3610 -0.0714
    1MOL0     C   63   6.905   6.507   5.311  0.0262  0.0185  0.0387
    1MOL0     C   64   6.959   6.574   5.193 -0.0298 -0.0943  0.5230
    1MOL0     C   65   6.982   6.633   5.087  0.3866 -0.3283 -0.2823
    1MOL0     C   66   6.734   6.841   5.683  0.1846  0.5120 -0.0266
    1MOL0     C   67   6.600   6.858   5.697  0.0839  0.5114  0.5539
    1MOL0     H   68   6.183   6.666   6.051 -0.8388  1.0713  1.1627
    1MOL0     H   69   5.939   6.662   6.084 -0.7107  1.3188  0.1383
    1MOL0     H   70   5.712   6.903   5.796  1.1581  0.4999 -0.9901
    1MOL0     H   71   5.645   6.741   5.767 -2.4701  1.5007  0.4663
    1MOL0     H   72   5.528   6.775   6.002  1.0303 -0.4515 -0.1736
    1MOL0     H   73   5.587   6.943   5.989 -0.6945 -0.1166  1.3245
    1MOL0     H   74   5.479   6.992   5.799 -1.2466  1.3712  0.1078
    1MOL0     H   75   5.408   6.833   5.776  2.5000  0.4099 -1.4355
    1MOL0     H   76   5.268   6.838   5.965  2.7678 -1.6734 -0.8298
    1MOL0     H   77   5.348   6.980   6.030  4.2148 -2.2186  0.1266
    1MOL0     H   78   5.247   7.099   5.794  0.0571  1.2324  0.1257
    1MOL0     H   79   5.167   6.943   5.771  1.3044 -0.1134 -0.2932
    1MOL0     H   80   5.041   7.005   5.979  1.0679  1.1797  1.3193
    1MOL0     H   81   5.145   7.138   6.013 -1.2259  0.8020  0.3606
    1MOL0     H   82   5.072   7.234   5.774 -0.4599 -0.1938 -0.9331
    1MOL0     H   83   4.963   7.098   5.770  3.9708 -2.1945 -0.1698
    1MOL0     H   84   4.849   7.314   5.837  0.4762 -1.3330 -1.0167
    1MOL0     H   85   4.959   7.324   5.976 -0.5427 -2.0359  3.2248
    1MOL0     H   86   4.908   7.174   6.200 -0.2498 -1.8732  2.1985
    1MOL0     H   87   4.609   6.950   6.284 -0.3872  0.9095 -1.7207
    1MOL0     H   88   4.779   6.997   6.360  3.4877  2.9950 -4.0158
    1MOL0     H   89   4.710   7.181   6.459 -0.1162  0.6322 -0.0899
    1MOL0     H   90   4.567   7.082   6.481 -0.0610  0.4479  1.3288
    1MOL0     H   91   4.455   7.171   6.287 -0.6778  0.8688  2.0326
    1MOL0     H   92   4.590   7.289   6.247  1.4278  0.8559 -0.0101
    1MOL0     H   93   4.522   7.398   6.467 -0.2354 -1.1453  2.0044
    1MOL0     H   94   4.425   7.262   6.497  1.1365  2.5434  1.6642
    1MOL0     H   95   4.278   7.365   6.614 -3.1575 -0.3177  3.1713
    1MOL0     H   96   4.013   7.224   6.782  2.6686 -0.7982  1.5012
    1MOL0     H   97   4.169   7.284   6.791 -0.2305 -1.7546  0.8435
    1MOL0     H   98   4.040   7.403   6.795  1.3938  0.2899  0.6619
    1MOL0     H   99   3.599   7.533   6.601 -2.1416  1.5092  2.8448
    1MOL0     H  100   3.341   7.540   6.628  2.4970  0.7522  1.0138
    1MOL0     H  101   3.113   7.208   6.449 -1.4846  0.5628 -1.0571
    1MOL0     H  102   3.125   7.134   6.618 -1.8867 -1.1456 -1.6070
    1MOL0     H  103   2.955   7.285   6.698  1.8858  1.0527 -0.3229
    1MOL0     H  104   2.910   7.329   6.527  3.0806  1.5835  0.3172
    1MOL0     H  105   2.865   7.064   6.668  1.5404  0.2157  0.1058
    1MOL0     H  106   2.925   7.072   6.502  0.9672  0.5247  0.3194
    1MOL0     H  107   2.692   7.202   6.626  3.2981  1.6768  1.4666
    1MOL0     H  108   2.729   7.214   6.452 -0.1750  1.4918  0.5230
    1MOL0     H  109   2.642   6.950   6.581 -1.8061 -1.1768 -0.8201
    1MOL0     H  110   2.697   6.963   6.415 -1.1620 -2.0448 -0.3202
    1MOL0     H  111   2.457   7.131   6.543 -0.8169 -2.0891  0.8421
    1MOL0     H  112   2.515   7.154   6.385 -2.0044  2.2204  2.1720
    1MOL0     H  113   2.460   6.860   6.451 -2.5707 -1.1176 -0.9364
    1MOL0     H  114   2.427   6.969   6.304  2.5387  1.5320 -0.7311
    1MOL0     H  115   2.244   7.067   6.433 -0.3985  0.0302  0.5980
    1MOL0     H  116   2.267   6.967   6.573  0.5408 -1.8304  0.3363
    1MOL0     H  117   3.337   7.112   6.531  1.3388 -0.6284 -0.2793
    1MOL0     H  118   3.561   7.121   6.474  3.0230  1.5289 -1.1595
    1MOL0     H  119   3.883   7.371   6.320 -0.1799 -2.2218 -0.1087
    1MOL0     H  120   4.108   7.363   6.212  0.6610 -2.8784  0.3213
    1MOL0     H  121   5.884   6.793   5.677  0.2131 -0.5658 -0.4962
    1MOL0     H  122   6.119   6.760   5.635 -0.8596  1.9988  0.5554
    1MOL0     H  123   6.517   6.586   5.877 -1.2248  2.1310  1.6967
    1MOL0     H  124   6.763   6.549   5.841  3.4871  2.1888 -0.3049
    1MOL0     H  125   7.019   6.845   5.631  1.5424  0.2141  2.8059
    1MOL0     H  126   7.097   6.688   5.624 -1.1082 -0.3126 -0.6677
    1MOL0     H  127   7.034   6.748   5.409 -0.6255  1.1203  0.8403
    1MOL0     H  128   6.855   6.739   5.454  0.9473  3.3790 -2.8736
    1MOL0     H  129   6.914   6.500   5.530 -0.7340  2.2330  1.0953
    1MOL0     H  130   7.072   6.525   5.448 -1.1959 -1.7213  1.0179
    1MOL0     H  131   6.796   6.521   5.305  0.2142  1.0902 -1.4230
    1MOL0     H  132   6.920   6.400   5.295  0.6864 -0.3307  2.6156
    1MOL0     H  133   6.998   6.676   4.990  0.1777  2.0166  0.6600
    1MOL0     H  134   6.797   6.914   5.631 -1.1317  1.0445 -0.9199
    1MOL0     H  135   6.556   6.938   5.638 -0.8343 -2.7586 -3.7099
    2MOL0     O  136   3.710   5.583   5.940  0.0911 -0.4167 -0.7520
    2MOL0     C  137   3.750   5.685   6.000  0.4058 -0.2645 -0.0444
    2MOL0     O  138   3.660   5.771   6.081 -0.2349  0.3274 -0.3660
    2MOL0     C  139   3.533   5.744   6.096  0.7813  0.0682  0.2331
    2MOL0     C  140   3.446   5.697   6.001  0.8676 -0.4305 -0.0485
    2MOL0     C  141   3.318   5.644   6.033 -0.3929 -0.0155  0.0317
    2MOL0     C  142   3.259   5.684   6.160 -0.5457 -0.2163 -0.4633
    2MOL0     O  143   3.126   5.674   6.199  0.2460 -0.1160 -0.1164
    2MOL0     C  144   3.045   5.602   6.104 -0.2734 -0.2100 -0.5870
    2MOL0     C  145   2.901   5.597   6.163 -0.8642  0.2085  0.7731
    2MOL0     C  146   2.835   5.730   6.152  0.1209 -0.3893  0.3109
    2MOL0     C  147   2.694   5.732   6.197  0.9455  0.0565  0.9320
    2MOL0     C  148   2.600   5.657   6.097 -0.4146 -0.7084 -0.1592
    2MOL0     C  149   2.452   5.696   6.116 -0.2456 -0.1126 -0.7149
    2MOL0     C  150   2.359   5.586   6.056  0.1240 -0.3470  0.1977
    2MOL0     C  151   2.207   5.601   6.094  0.1272  0.0276  0.3529
    2MOL0     N  152   2.116   5.511   6.018 -0.1384 -0.3599 -0.2684
    2MOL0     C  153   2.054   5.397   6.064  0.0617  0.7231  0.0581
    2MOL0     C  154   1.972   5.363   5.958 -0.6032 -0.0730  0.5675
    2MOL0     C  155   1.879   5.246   5.960  0.4747  0.2083  0.8433
    2MOL0     C  156   1.739   5.294   5.983  0.0243  0.0457  0.5558
    2MOL0     C  157   1.680   5.399   5.882 -0.7803 -0.0578 -0.1795
    2MOL0     C  158   1.533   5.447   5.905 -0.6857  0.5935  0.2102
    2MOL0     O  159   1.437   5.342   5.898  0.7696 -0.0527  0.3401
    2MOL0     C  160   1.306   5.379   5.911  0.2737  0.4960  0.0519
    2MOL0     C  161   1.221   5.289   5.864  0.3174 -0.2859 -1.0181
    2MOL0     C  162   1.083   5.306   5.866  0.9606 -0.3216  0.1480
    2MOL0     C  163   1.011   5.195   5.792  0.0514  0.0764  1.4300
    2MOL0     C  164   1.020   5.426   5.925  0.1012  1.0704 -0.0849
    2MOL0     C  165   0.873   5.435   5.945 -0.2465  0.5950 -0.5046
    2MOL0     O  166   0.839   5.510   6.045  0.3688 -0.1161 -0.3164
    2MOL0     C  167   0.715   5.508   6.095 -0.3893 -0.2516  0.7777
    2MOL0     C  168   0.608   5.538   6.018  0.2534  0.0730 -0.2792
    2MOL0     C  169   0.477   5.553   6.059 -0.8143  0.0340  0.7178
    2MOL0     C  170   0.446   5.543   6.196 -0.8283 -0.1179  0.6373
    2MOL0     O  171   0.318   5.545   6.249 -0.7764 -0.6382 -0.0906
    2MOL0     C  172   0.211   5.562   6.162  0.0850 -0.6070 -0.0964
    2MOL0     C  173   0.090   5.545   6.259 -0.5894  0.1853  0.0982
    2MOL0     C  174  -0.041   5.583   6.187  0.9350  0.3859 -0.1530
    2MOL0     C  175  -0.162   5.536   6.265  0.3661 -0.3856 -0.4863
    2MOL0     C  176  -0.300   5.583   6.211 -0.4216 -0.1393 -0.4284
    2MOL0     C  177  -0.413   5.500   6.268 -0.4850 -0.8732  0.6350
    2MOL0     C  178  -0.548   5.561   6.214  0.5335  0.0587  0.9677
    2MOL0     C  179  -0.671   5.481   6.256  0.5217  0.0843 -0.3544
    2MOL0    Cl  180  -0.696   5.481   6.429 -0.2471 -0.0576 -0.2155
    2MOL0     C  181   0.555   5.509   6.280 -0.1357 -0.0071 -0.1086
    2MOL0     C  182   0.679   5.493   6.223 -0.1812  0.3935 -0.6249
    2MOL0     O  183   0.795   5.366   5.873 -0.1264 -0.3093  0.3530
    2MOL0     C  184   1.116   5.513   5.975  0.5341 -0.0862  0.0347
    2MOL0     C  185   1.253   5.500   5.966  0.5141  0.1605 -0.3885
    2MOL0     N  186   1.986   5.457   5.851 -0.3475 -0.0852 -0.8872
    2MOL0     N  187   2.073   5.548   5.890  0.5709  0.4287 -0.1308
    2MOL0     C  188   3.342   5.752   6.248  0.0170 -0.4289 -0.5429
    2MOL0     C  189   3.478   5.775   6.219  0.4067 -0.3843 -0.1628
    2MOL0     C  190   3.895   5.709   5.997  0.9028 -0.5035  0.0525
    2MOL0     C  191   3.981   5.647   5.903 -0.4141  0.4947 -0.1514
    2MOL0     C  192   4.121   5.665   5.907  0.0820 -1.2656 -1.0109
    2MOL0     C  193   4.178   5.752   6.008  0.8773  0.0412 -0.2661
    2MOL0     O  194   4.308   5.793   6.002  0.0217 -0.2176  0.3881
    2MOL0     C  195   4.405   5.696   6.005 -0.1060 -0.5969  0.9782
    2MOL0     C  196   4.531   5.750   6.075 -0.1491 -0.9396  0.5306
    2MOL0     C  197   4.576   5.893   6.014 -0.4859  0.7776  0.3405
    2MOL0     C  198   4.716   5.932   6.062  0.5907 -0.5304  0.5932
    2MOL0     C  199   4.819   5.834   6.027 -0.8542  0.6601  0.8074
    2MOL0     C  200   4.904   5.747   5.999 -0.2384 -0.2921  0.0970
    2MOL0     C  201   4.096   5.812   6.105 -0.6537  0.0645  0.8610
    2MOL0     C  202   3.956   5.799   6.096  0.9728  0.6252  0.2022
    2MOL0     H  203   3.484   5.681   5.901  0.5808  2.7620 -0.7817
    2MOL0     H  204   3.268   5.596   5.950  1.5055 -0.0001 -1.2018
    2MOL0     H  205   3.038   5.655   6.008  0.0675 -0.1615 -0.5852
    2MOL0     H  206   3.078   5.499   6.088 -1.9782 -0.8207 -0.4697
    2MOL0     H  207   2.841   5.522   6.110 -0.9235  0.7386  0.0850
    2MOL0     H  208   2.906   5.551   6.262  0.3507 -2.3002 -0.3566
    2MOL0     H  209   2.890   5.800   6.215  1.8812 -1.2987 -0.1701
    2MOL0     H  210   2.849   5.771   6.051  0.5297  0.0676  0.5521
    2MOL0     H  211   2.690   5.669   6.287  3.1709 -3.3434 -1.1551
    2MOL0     H  212   2.662   5.837   6.204 -1.5792 -0.2872 -2.8028
    2MOL0     H  213   2.640   5.671   5.997  1.1387 -1.0211  0.3895
    2MOL0     H  214   2.605   5.551   6.122 -0.4014 -0.7776 -0.4584
    2MOL0     H  215   2.432   5.694   6.223  0.9478 -2.4108 -0.4813
    2MOL0     H  216   2.439   5.799   6.081  1.7591  0.4221 -0.0570
    2MOL0     H  217   2.377   5.574   5.948 -0.1163 -2.1991  0.3215
    2MOL0     H  218   2.385   5.491   6.105 -1.1202  0.4243  2.4786
    2MOL0     H  219   2.182   5.705   6.072  1.0229  0.3841  0.9571
    2MOL0     H  220   2.192   5.581   6.200  0.0670  0.6189  0.4565
    2MOL0     H  221   2.045   5.345   6.158 -1.6834  1.9611  0.6396
    2MOL0     H  222   1.887   5.191   5.865  3.7321  0.7733  0.6539
    2MOL0     H  223   1.911   5.181   6.042  4.3197 -0.5448 -1.0113
    2MOL0     H  224   1.740   5.328   6.086  2.7450  0.0442  0.6085
    2MOL0     H  225   1.669   5.210   5.987  0.5447 -0.3722  1.1443
    2MOL0     H  226   1.688   5.353   5.783 -2.2569 -3.3074  1.0604
    2MOL0     H  227   1.744   5.486   5.901 -1.1997 -0.3266  2.8863
    2MOL0     H  228   1.515   5.527   5.832  0.2715  1.0673  0.4694
    2MOL0     H  229   1.540   5.487   6.006 -0.2978  0.1824  0.3470
    2MOL0     H  230   1.261   5.193   5.833  0.3712 -0.8806  0.7508
    2MOL0     H  231   0.936   5.234   5.723  3.4567 -0.1230 -2.7621
    2MOL0     H  232   1.073   5.138   5.723 -2.2585 -1.6499  0.6462
    2MOL0     H  233   0.967   5.119   5.858 -0.1064 -0.8384  0.3001
    2MOL0     H  234   0.628   5.559   5.913 -0.2427 -0.6374 -0.5285
    2MOL0     H  235   0.405   5.593   5.988 -1.7069 -1.7969  0.5353
    2MOL0     H  236   0.215   5.660   6.114  1.2196  0.2778  1.7073
    2MOL0     H  237   0.226   5.486   6.084  3.0680  0.2339 -0.4598
    2MOL0     H  238   0.077   5.443   6.295  2.3128 -0.5878 -0.7437
    2MOL0     H  239   0.101   5.613   6.344  0.6913 -0.8048  0.7644
    2MOL0     H  240  -0.050   5.547   6.084 -1.8383 -0.8994  0.4440
    2MOL0     H  241  -0.047   5.692   6.186  2.7612  0.5409  1.1299
    2MOL0     H  242  -0.166   5.427   6.271 -1.8758 -0.3436 -0.6361
    2MOL0     H  243  -0.151   5.571   6.369 -0.9152 -2.3691  0.3658
    2MOL0     H  244  -0.302   5.575   6.102  0.1247  3.7621 -0.8617
    2MOL0     H  245  -0.314   5.690   6.224 -1.9712 -0.1776 -1.4891
    2MOL0     H  246  -0.397   5.395   6.241 -0.0711 -0.3976 -1.1180
    2MOL0     H  247  -0.408   5.519   6.375  1.8924 -0.7181  0.5470
    2MOL0     H  248  -0.534   5.549   6.106  1.1005 -1.1607  1.1600
    2MOL0     H  249  -0.562   5.667   6.238  0.8501  0.5446 -0.8376
    2MOL0     H  250  -0.647   5.377   6.234  0.5434 -0.2193  1.0200
    2MOL0     H  251  -0.762   5.504   6.199  0.1428 -0.0843  0.1733
    2MOL0     H  252   0.534   5.500   6.386  1.1127 -0.3465  0.1173
    2MOL0     H  253   0.759   5.458   6.288 -0.7483  2.9453  1.6172
    2MOL0     H  254   1.084   5.612   6.004  2.0369  0.4760 -0.1184
    2MOL0     H  255   1.323   5.578   5.993 -0.2854  0.3952  1.1260
    2MOL0     H  256   3.306   5.773   6.349 -1.2804 -1.4032 -0.7824
    2MOL0     H  257   3.534   5.818   6.301 -3.0349  3.4847  0.5510
    2MOL0     H  258   3.952   5.577   5.825  1.5796 -2.1727  1.3323
    2MOL0     H  259   4.182   5.620   5.830  0.5393 -3.4453  0.5415
    2MOL0     H  260   4.365   5.610   6.058 -2.3312 -0.5366 -0.4884
    2MOL0     H  261   4.428   5.668   5.901  0.5417  4.4105 -0.5280
    2MOL0     H  262   4.612   5.677   6.076  1.0910  0.3556 -0.4428
    2MOL0     H  263   4.506   5.774   6.179  0.4646 -1.3023  0.7689
    2MOL0     H  264   4.505   5.968   6.049 -3.9941 -2.6554  1.3067
    2MOL0     H  265   4.573   5.887   5.905  1.7118 -3.3616  0.3077
    2MOL0     H  266   4.709   5.936   6.171 -1.5863 -0.8200  0.5020
    2MOL0     H  267   4.725   6.029   6.011 -3.6108  0.0057  0.5112
    2MOL0     H  268   4.970   5.663   5.996 -0.6467 -0.6263  0.3471
    2MOL0     H  269   4.140   5.869   6.187  0.2224  2.1625 -0.9689
    2MOL0     H  270   3.891   5.856   6.161 -3.5393 -0.9129 -2.4642
    3MOL0     O  271   3.395   8.253   0.433 -0.1635  0.0946 -0.4208
    3MOL0     C  272   3.394   8.275   0.548 -0.5695 -0.1306  0.0865
    3MOL0     O  273   3.321   8.373   0.602 -0.4700  0.4057  0.1377
    3MOL0     C  274   3.218   8.431   0.535  0.0378  0.0883  0.0453
    3MOL0     C  275   3.102   8.449   0.616  0.9224 -0.1707 -0.3794
    3MOL0     C  276   2.988   8.509   0.570  0.2092  0.6229  1.0514
    3MOL0     C  277   2.994   8.568   0.437 -0.1499  0.5693 -0.0971
    3MOL0     O  278   2.899   8.646   0.381 -0.4277 -0.2917  0.3536
    3MOL0     C  279   2.799   8.701   0.469 -0.2392 -0.0678  0.4306
    3MOL0     C  280   2.857   8.802   0.560  0.3871 -0.0327 -0.5524
    3MOL0     C  281   2.734   8.873   0.630 -0.5855 -0.0293  0.1597
    3MOL0     C  282   2.766   9.002   0.703 -0.0563 -0.3698 -0.6882
    3MOL0     C  283   2.636   9.073   0.758 -0.0324  0.0914 -0.5216
    3MOL0     C  284   2.678   9.208   0.821 -0.0640  0.6900  0.0737
    3MOL0     C  285   2.562   9.267   0.895 -1.2528 -0.4459  1.0329
    3MOL0     C  286   2.426   9.263   0.824 -0.0398 -0.3266 -0.2875
    3MOL0     N  287   2.348   9.371   0.890 -0.2234  0.0144  0.2248
    3MOL0     C  288   2.265   9.468   0.832 -0.2631  0.0613  0.2112
    3MOL0     C  289   2.199   9.521   0.937 -0.2318  0.3910 -0.9444
    3MOL0     C  290   2.124   9.654   0.948  0.0194 -0.2115 -0.6121
    3MOL0     C  291   2.023   9.700   0.856 -0.0321  0.4637 -0.7333
    3MOL0     C  292   1.906   9.600   0.850  0.5555 -0.2376 -0.5205
    3MOL0     C  293   1.768   9.674   0.843 -0.0311  0.5671 -0.3905
    3MOL0     O  294   1.674   9.587   0.793 -0.9438 -0.1834  0.1215
    3MOL0     C  295   1.545   9.624   0.794 -0.3210 -0.0970 -0.2909
    3MOL0     C  296   1.456   9.538   0.742  0.1329 -0.0147  0.2042
    3MOL0     C  297   1.317   9.567   0.719  0.2769 -0.2086 -1.6521
    3MOL0     C  298   1.228   9.455   0.653 -0.3489 -0.1652 -0.5100
    3MOL0     C  299   1.266   9.695   0.769 -0.4171  1.1403  0.2101
    3MOL0     C  300   1.131   9.740   0.749  0.1878 -0.1428  0.5747
    3MOL0     O  301   1.092   9.847   0.819  0.4826  0.0799  0.3685
    3MOL0     C  302   0.968   9.904   0.797 -0.9699 -0.6513  0.3815
    3MOL0     C  303   0.857   9.856   0.866 -0.6807  0.6488  0.9355
    3MOL0     C  304   0.739   9.911   0.857 -0.1140 -0.8684  0.2973
    3MOL0     C  305   0.719  10.025   0.775  0.0111 -0.9410  1.3305
    3MOL0     O  306   0.591  10.070   0.765 -0.1272 -0.2519  1.0547
    3MOL0     C  307   0.571  10.205   0.694 -0.7969 -0.0936  0.3373
    3MOL0     C  308   0.458  10.280   0.768  0.2115 -0.6906 -0.2357
    3MOL0     C  309   0.323  10.207   0.780  0.0190  0.8305  0.0463
    3MOL0     C  310   0.251  10.194   0.648  0.2794  0.0388  0.1772
    3MOL0     C  311   0.125  10.107   0.673  0.2328 -0.4975  0.0481
    3MOL0     C  312   0.025  10.184   0.766 -0.2332  0.0282  0.5893
    3MOL0     C  313  -0.110  10.108   0.764 -0.1541 -0.5788  0.3202
    3MOL0     C  314  -0.215  10.180   0.857 -0.6643  0.2288  0.3795
    3MOL0    Cl  315  -0.355  10.074   0.886  0.5359 -0.0375  0.0497
    3MOL0     C  316   0.830  10.073   0.706 -0.2707 -0.6242 -0.4458
    3MOL0     C  317   0.954  10.014   0.713  0.5756  0.2614  0.0317
    3MOL0     O  318   1.051   9.683   0.671 -0.1985 -0.4722  0.3814
    3MOL0     C  319   1.359   9.781   0.830 -0.4400  0.3658  0.0314
    3MOL0     C  320   1.494   9.748   0.841  0.5434  0.1039  0.3023
    3MOL0     N  321   2.228   9.448   1.048  0.5361  0.1743  0.6290
    3MOL0     N  322   2.313   9.360   1.022  0.8573 -0.8840 -0.6553
    3MOL0     C  323   3.103   8.542   0.360  0.1856  0.8149 -0.2708
    3MOL0     C  324   3.214   8.470   0.402  0.2280  0.6641 -0.9631
    3MOL0     C  325   3.463   8.173   0.638  0.0002  0.7687  0.2685
    3MOL0     C  326   3.540   8.066   0.585  0.3391  0.2989 -0.6475
    3MOL0     C  327   3.612   7.978   0.670 -0.4398 -0.0654  0.4496
    3MOL0     C  328   3.601   7.988   0.810 -0.3909  0.8469 -0.0205
    3MOL0     O  329   3.655   7.886   0.879 -0.1261  1.2138  0.2224
    3MOL0     C  330   3.790   7.906   0.919 -1.0717 -0.0518  0.4746
    3MOL0     C  331   3.870   7.778   0.923 -1.1180  0.0444  0.1454
    3MOL0     C  332   3.869   7.693   0.794 -0.2352 -0.0640  0.7020
    3MOL0     C  333   3.928   7.766   0.678  0.1558  0.3767  0.6122
    3MOL0     C  334   3.888   7.710   0.543  0.4637 -0.3840 -0.3531
    3MOL0     C  335   3.838   7.661   0.441  0.3601 -0.6703 -0.2467
    3MOL0     C  336   3.536   8.094   0.865  0.5632 -0.2174 -0.4711
    3MOL0     C  337   3.469   8.187   0.783 -0.4951 -0.2083 -0.4700
    3MOL0     H  338   3.101   8.408   0.717 -0.5782  0.2672 -0.1909
    3MOL0     H  339   2.902   8.531   0.633 -0.3719 -0.5748  0.7160
    3MOL0     H  340   2.722   8.748   0.406 -0.6375 -1.3817 -0.0894
    3MOL0     H  341   2.755   8.614   0.517  1.9665 -1.1152  0.6691
    3MOL0     H  342   2.912   8.759   0.644 -1.2469  1.0370  1.1574
    3MOL0     H  343   2.931   8.868   0.515  0.9960  0.7280  1.4869
    3MOL0     H  344   2.670   8.901   0.546  1.1416  2.5859 -0.4150
    3MOL0     H  345   2.692   8.804   0.705  1.9315 -1.9080 -0.0235
    3MOL0     H  346   2.846   8.989   0.776  0.5247  1.8380 -0.8683
    3MOL0     H  347   2.803   9.066   0.623 -1.5772  0.7911 -0.5232
    3MOL0     H  348   2.566   9.095   0.677 -0.6557  2.7371  0.6212
    3MOL0     H  349   2.577   9.009   0.825  0.3900  1.2887  1.0420
    3MOL0     H  350   2.764   9.204   0.888  0.3518  1.5382 -0.3915
    3MOL0     H  351   2.714   9.272   0.740 -0.4321  1.1621  0.2764
    3MOL0     H  352   2.553   9.211   0.988 -0.4967 -1.4233  0.5450
    3MOL0     H  353   2.583   9.374   0.908 -0.7361 -0.1722 -1.4362
    3MOL0     H  354   2.366   9.171   0.825 -1.5282  0.6066  0.7760
    3MOL0     H  355   2.431   9.289   0.718  0.2680  0.5476 -0.0653
    3MOL0     H  356   2.262   9.496   0.727  0.1111 -3.3826 -0.8350
    3MOL0     H  357   2.088   9.662   1.050  2.8118  1.8827  0.3614
    3MOL0     H  358   2.197   9.733   0.970  1.0932 -1.9916  2.7871
    3MOL0     H  359   2.055   9.707   0.752 -1.2113 -0.0422 -1.1511
    3MOL0     H  360   1.985   9.790   0.906 -1.9923 -1.8957  2.4259
    3MOL0     H  361   1.895   9.545   0.944  1.9236 -0.3064 -0.3809
    3MOL0     H  362   1.911   9.531   0.765 -3.5985 -3.5740  1.5711
    3MOL0     H  363   1.773   9.757   0.771 -0.0624  0.0039 -1.0536
    3MOL0     H  364   1.740   9.721   0.938  1.9375  1.5131 -0.2285
    3MOL0     H  365   1.504   9.449   0.703  0.8910 -0.4236  1.9361
    3MOL0     H  366   1.294   9.393   0.591 -0.3674  0.2425 -0.9456
    3MOL0     H  367   1.171   9.393   0.722  0.7790 -1.9826 -1.1409
    3MOL0     H  368   1.154   9.492   0.581  1.5662  0.9101 -2.0391
    3MOL0     H  369   0.869   9.769   0.930  2.4590 -0.9932 -1.5654
    3MOL0     H  370   0.649   9.869   0.901 -2.0050 -0.0367 -2.4753
    3MOL0     H  371   0.657  10.272   0.686  0.4385 -1.6270  0.2307
    3MOL0     H  372   0.547  10.189   0.589  3.3997 -0.8183 -0.6918
    3MOL0     H  373   0.500  10.298   0.867 -2.4482  1.4093  0.6094
    3MOL0     H  374   0.437  10.374   0.715  3.9058  0.3609 -0.1605
    3MOL0     H  375   0.255  10.268   0.840 -1.6475 -0.4547 -0.4471
    3MOL0     H  376   0.328  10.121   0.846  1.1264  1.3166  0.6299
    3MOL0     H  377   0.237  10.298   0.616  0.4552  0.8632  2.6070
    3MOL0     H  378   0.312  10.147   0.570 -2.3681 -0.3992 -1.7577
    3MOL0     H  379   0.145  10.007   0.712 -0.0410 -1.0700 -1.2148
    3MOL0     H  380   0.068  10.085   0.582  0.0439 -1.0078  0.2867
    3MOL0     H  381   0.061  10.183   0.870  0.7980 -0.7208  0.2464
    3MOL0     H  382   0.007  10.282   0.722 -0.8300 -1.1136 -1.9051
    3MOL0     H  383  -0.102  10.005   0.799 -1.2151 -0.4007  1.1075
    3MOL0     H  384  -0.153  10.110   0.663 -2.3119  1.0365  1.1967
    3MOL0     H  385  -0.249  10.272   0.809  0.5241  1.2416  1.4075
    3MOL0     H  386  -0.161  10.195   0.951 -0.6076 -3.5875  1.1205
    3MOL0     H  387   0.827  10.160   0.640 -1.5103 -0.5823 -0.3488
    3MOL0     H  388   1.032  10.065   0.658  0.8659 -0.6470 -0.4326
    3MOL0     H  389   1.326   9.879   0.863  0.6313  0.4216  0.9978
    3MOL0     H  390   1.555   9.830   0.877 -2.6816  2.3193  1.1444
    3MOL0     H  391   3.104   8.578   0.258 -3.2126  0.2352 -0.6127
    3MOL0     H  392   3.304   8.458   0.342  2.4804  1.6097  1.9960
    3MOL0     H  393   3.556   8.059   0.478 -1.6972 -0.8012 -0.9269
    3MOL0     H  394   3.662   7.899   0.614 -1.3491  0.6070 -1.3621
    3MOL0     H  395   3.835   7.987   0.861 -1.7893  0.1728  0.2139
    3MOL0     H  396   3.790   7.940   1.023  1.7041  0.4304  0.3858
    3MOL0     H  397   3.823   7.719   1.001 -1.1460 -1.2980 -0.8579
    3MOL0     H  398   3.976   7.785   0.950 -0.9493 -2.3782  0.2712
    3MOL0     H  399   3.769   7.655   0.772 -0.0136 -1.7681  2.3166
    3MOL0     H  400   3.925   7.600   0.806  0.2094  0.0840 -0.1580
    3MOL0     H  401   4.037   7.765   0.693  0.2607 -0.4822 -0.0866
    3MOL0     H  402   3.882   7.865   0.674 -1.1621 -0.1986  0.9886
    3MOL0     H  403   3.791   7.629   0.351 -0.7710  0.6731 -0.1708
    3MOL0     H  404   3.539   8.120   0.971  2.1203 -0.1886 -0.4972
    3MOL0     H  405   3.428   8.276   0.830  1.2655  2.0028 -2.8331
    4MOL0     O  406   5.299  11.151   9.595 -0.2184 -0.3715 -0.8902
    4MOL0     C  407   5.351  11.090   9.694 -0.3254 -0.7248  0.4490
    4MOL0     O  408   5.345  11.133   9.825 -0.5507  0.9771  0.1377
    4MOL0     C  409   5.240  11.210   9.861 -0.5893 -0.1120  0.0119
    4MOL0     C  410   5.271  11.335   9.918  1.2266  0.1706 -0.6110
    4MOL0     C  411   5.165  11.430   9.932 -0.4319 -0.5916  0.7791
    4MOL0     C  412   5.031  11.404   9.887 -0.0920  0.7347 -0.2796
    4MOL0     O  413   4.927  11.491   9.898  0.1444 -0.2202  0.3017
    4MOL0     C  414   4.949  11.618   9.965  0.1478 -0.4303  0.5231
    4MOL0     C  415   4.818  11.698   9.976 -0.0246  0.0514  0.0276
    4MOL0     C  416   4.730  11.622  10.082  0.5168  0.1786  0.3237
    4MOL0     C  417   4.580  11.663  10.097 -0.0025  0.3746  0.0012
    4MOL0     C  418   4.517  11.573  10.204  0.2835  0.7023  0.6402
    4MOL0     C  419   4.379  11.620  10.252  0.0143 -0.6122 -0.0527
    4MOL0     C  420   4.321  11.530  10.366 -0.1389  0.2139 -0.8082
    4MOL0     C  421   4.214  11.592  10.444 -0.2082 -0.3177  0.0490
    4MOL0     N  422   4.093  11.618  10.356 -0.1141  0.2319 -0.1949
    4MOL0     C  423   4.060  11.721  10.274 -0.6647 -0.4083 -0.5556
    4MOL0     C  424   3.939  11.701  10.227  0.0191  0.4399 -0.2395
    4MOL0     C  425   3.868  11.784  10.118 -0.1038 -0.5765 -0.6477
    4MOL0     C  426   3.853  11.927  10.177 -0.3621  0.1492 -0.1652
    4MOL0     C  427   3.804  11.928  10.325 -0.3430 -0.1844 -0.2272
    4MOL0     C  428   3.664  11.864  10.347 -0.1293 -0.4072  0.7457
    4MOL0     O  429   3.580  11.940  10.440  0.1048 -0.5571  0.5425
    4MOL0     C  430   3.452  11.886  10.454 -0.8699 -0.4202  0.0822
    4MOL0     C  431   3.395  11.894  10.580  0.4303  0.3812 -0.3203
    4MOL0     C  432   3.254  11.877  10.605  0.6100 -0.2579  0.4565
    4MOL0     C  433   3.212  11.894  10.746  0.6907  1.0361  0.0318
    4MOL0     C  434   3.173  11.835  10.498  0.8181  0.0597 -0.3161
    4MOL0     C  435   3.030  11.818  10.514 -0.0537 -0.6164 -0.2523
    4MOL0     O  436   2.957  11.908  10.453 -0.3733 -0.3052  0.0607
    4MOL0     C  437   2.829  11.877  10.424 -0.2717 -0.0549 -0.0142
    4MOL0     C  438   2.722  11.894  10.513  0.0316  0.1539 -0.4770
    4MOL0     C  439   2.591  11.878  10.465  0.4905  0.5096 -0.0375
    4MOL0     C  440   2.563  11.815  10.338 -0.7778  0.2761  0.0992
    4MOL0     O  441   2.438  11.764  10.296 -0.0861 -0.6800  0.3719
    4MOL0     C  442   2.323  11.840  10.324  0.1740  0.2241  0.6441
    4MOL0     C  443   2.203  11.770  10.266  0.2902 -0.0818 -0.6030
    4MOL0     C  444   2.085  11.861  10.311 -0.0137  0.5602 -0.3571
    4MOL0     C  445   1.951  11.816  10.254 -0.0327  0.0654  0.5715
    4MOL0     C  446   1.851  11.926  10.301 -0.1461  0.9239  0.3306
    4MOL0     C  447   1.700  11.898  10.284  0.9584  0.1438 -0.1954
    4MOL0     C  448   1.664  11.870  10.136 -0.8527  0.3501  0.5631
    4MOL0     C  449   1.522  11.834  10.110  0.4677  0.0842 -0.4222
    4MOL0    Cl  450   1.481  11.673  10.173 -0.1908  0.1135  0.4930
    4MOL0     C  451   2.669  11.787  10.257 -0.5829  0.2303  0.5689
    4MOL0     C  452   2.807  11.822  10.298  0.0370 -0.5110  0.2284
    4MOL0     O  453   2.991  11.717  10.569 -0.2100 -0.0447  1.5877
    4MOL0     C  454   3.240  11.822  10.374  0.1234  0.2142  0.1243
    4MOL0     C  455   3.373  11.853  10.346 -0.3423  0.3088 -0.3905
    4MOL0     N  456   3.889  11.588  10.282  0.3723  0.4025  0.3662
    4MOL0     N  457   3.978  11.542  10.360  0.0335 -0.1481  0.9269
    4MOL0     C  458   5.011  11.280   9.827 -0.3458 -0.5655 -0.7344
    4MOL0     C  459   5.115  11.185   9.814 -0.3276  0.1753 -0.2858
    4MOL0     C  460   5.417  10.962   9.670 -0.1064 -0.5774 -0.3654
    4MOL0     C  461   5.403  10.892   9.545 -0.1737  0.9775 -0.4648
    4MOL0     C  462   5.491  10.789   9.515 -0.9834 -0.1784 -0.9355
    4MOL0     C  463   5.582  10.739   9.617  0.7032  0.2025 -0.2553
    4MOL0     O  464   5.656  10.630   9.600  0.3122  0.6165 -0.2956
    4MOL0     C  465   5.756  10.637   9.496  0.3271 -0.0998  0.9422
    4MOL0     C  466   5.744  10.531   9.383 -0.9183  0.2222  0.2322
    4MOL0     C  467   5.725  10.382   9.434  0.2643 -0.4546 -0.0225
    4MOL0     C  468   5.670  10.286   9.323 -0.4840 -0.2579  0.1840
    4MOL0     C  469   5.744  10.285   9.201  0.2324  0.1538  0.0261
    4MOL0     C  470   5.824  10.300   9.109  0.5395  0.5900  0.9984
    4MOL0     C  471   5.580  10.797   9.741 -0.3211 -0.1325 -0.5576
    4MOL0     C  472   5.506  10.913   9.763 -0.1818 -0.2288 -0.5735
    4MOL0     H  473   5.369  11.361   9.957  0.3314  0.7727  1.3600
    4MOL0     H  474   5.196  11.530   9.958 -2.0077  0.5622 -1.4505
    4MOL0     H  475   4.992  11.612  10.066 -0.7504  1.5781  1.0756
    4MOL0     H  476   5.015  11.667   9.893  0.7820 -3.5160 -1.2033
    4MOL0     H  477   4.840  11.799  10.011 -0.5898  0.0279  0.4553
    4MOL0     H  478   4.780  11.713   9.874  3.0291 -1.3611 -1.4472
    4MOL0     H  479   4.743  11.514  10.067  1.0550  0.3472 -0.4875
    4MOL0     H  480   4.775  11.639  10.180  2.0516 -2.0333  0.0785
    4MOL0     H  481   4.587  11.767  10.131  0.4993  1.0187 -1.9911
    4MOL0     H  482   4.524  11.642  10.006 -0.6797 -1.0096  0.7150
    4MOL0     H  483   4.512  11.468  10.174 -2.0565  0.5838  1.2505
    4MOL0     H  484   4.583  11.578  10.291 -0.5418  1.1898  1.2509
    4MOL0     H  485   4.393  11.719  10.297 -1.8289 -0.5163  0.3637
    4MOL0     H  486   4.308  11.616  10.170 -2.0709 -1.3739  1.6964
    4MOL0     H  487   4.268  11.443  10.327  1.4535 -0.3585 -1.7892
    4MOL0     H  488   4.402  11.495  10.431 -1.5224 -0.5804  0.5322
    4MOL0     H  489   4.241  11.693  10.475  0.3191  0.1758 -1.8911
    4MOL0     H  490   4.185  11.540  10.536  0.0576  1.6467  1.3135
    4MOL0     H  491   4.129  11.798  10.243 -1.3052  0.4120  0.0208
    4MOL0     H  492   3.928  11.776  10.027  0.4356  2.1621 -0.6294
    4MOL0     H  493   3.770  11.739  10.100 -0.5933 -0.5805  1.7045
    4MOL0     H  494   3.783  11.974  10.108 -1.3270 -3.2886 -1.7532
    4MOL0     H  495   3.947  11.983  10.171  2.6814 -4.1874  1.7502
    4MOL0     H  496   3.802  12.035  10.348 -1.8438  0.0650 -1.3663
    4MOL0     H  497   3.880  11.896  10.397  1.1923 -1.4437 -2.2966
    4MOL0     H  498   3.696  11.771  10.394 -0.6117 -0.2822  1.3257
    4MOL0     H  499   3.616  11.853  10.249 -1.6194 -0.5542  1.4772
    4MOL0     H  500   3.462  11.921  10.661  0.0589 -1.0543  0.5097
    4MOL0     H  501   3.121  11.954  10.737 -0.4203 -0.8424 -2.8021
    4MOL0     H  502   3.193  11.804  10.805  1.7351  0.7825  0.0049
    4MOL0     H  503   3.283  11.955  10.802 -0.9015  2.5785  0.4460
    4MOL0     H  504   2.747  11.915  10.616  2.8642  1.8303 -1.3989
    4MOL0     H  505   2.510  11.897  10.534 -0.2526  2.1908 -1.3059
    4MOL0     H  506   2.308  11.852  10.431  0.8985 -2.5553  1.1122
    4MOL0     H  507   2.325  11.937  10.273 -0.9103  0.0613  0.2589
    4MOL0     H  508   2.210  11.764  10.157  2.0721 -1.8174 -0.4578
    4MOL0     H  509   2.189  11.667  10.301 -2.4889  0.7133  0.9597
    4MOL0     H  510   2.103  11.958  10.264 -1.9356  2.0432  1.7986
    4MOL0     H  511   2.079  11.869  10.419 -2.4228  1.9353 -0.5159
    4MOL0     H  512   1.961  11.816  10.145  0.2146 -2.2545  0.5374
    4MOL0     H  513   1.917  11.716  10.281 -2.3845  1.1735  2.0769
    4MOL0     H  514   1.872  12.016  10.242 -0.3650  0.0079 -1.1929
    4MOL0     H  515   1.867  11.949  10.407  0.3897 -0.1180  0.4843
    4MOL0     H  516   1.678  11.807  10.341 -2.3507  0.8575 -0.1418
    4MOL0     H  517   1.643  11.986  10.318 -1.4414 -1.1386 -0.6443
    4MOL0     H  518   1.728  11.790  10.097 -1.6756  0.8411 -1.9497
    4MOL0     H  519   1.690  11.960  10.081  0.0320 -0.0748  0.2599
    4MOL0     H  520   1.502  11.847  10.003  0.9137  1.0071 -0.4060
    4MOL0     H  521   1.462  11.910  10.160  1.6311  1.9948 -1.7998
    4MOL0     H  522   2.651  11.727  10.168 -2.0591  2.0858 -0.4507
    4MOL0     H  523   2.900  11.810  10.242  0.7506 -0.2472  1.3344
    4MOL0     H  524   3.165  11.800  10.299 -1.8016  0.2594  1.9164
    4MOL0     H  525   3.402  11.841  10.242  3.3932  3.3883  0.0748
    4MOL0     H  526   4.914  11.241   9.796  0.2929  0.4477 -4.4034
    4MOL0     H  527   5.101  11.086   9.772  2.1260 -0.3318 -0.0273
    4MOL0     H  528   5.336  10.930   9.469 -2.7978 -4.4882 -1.4066
    4MOL0     H  529   5.487  10.734   9.421  1.8074 -0.0444 -1.2261
    4MOL0     H  530   5.759  10.731   9.441  2.6130 -1.1699 -0.9584
    4MOL0     H  531   5.851  10.619   9.548  0.5918 -1.8428 -0.0786
    4MOL0     H  532   5.831  10.544   9.318  0.6924  0.6800  2.3691
    4MOL0     H  533   5.657  10.546   9.318 -0.4393 -0.2886 -0.5590
    4MOL0     H  534   5.660  10.386   9.522  2.5735  1.0246  1.7266
    4MOL0     H  535   5.822  10.346   9.469 -1.2027 -2.6917  2.0340
    4MOL0     H  536   5.567  10.320   9.312 -0.8547  0.5064  4.2085
    4MOL0     H  537   5.659  10.186   9.366 -1.6187  1.0036  3.1166
    4MOL0     H  538   5.901  10.325   9.039 -0.1318 -0.5784 -0.2112
    4MOL0     H  539   5.641  10.751   9.818 -0.8654 -0.4659 -0.3126
    4MOL0     H  540   5.526  10.957   9.860 -1.1646 -0.4251 -0.2735
    5MOL0     O  541  10.401   6.685   5.735 -0.6605  0.0955 -0.1845
    5MOL0     C  542  10.379   6.773   5.815  1.2123 -0.3821  0.2299
    5MOL0     O  543  10.257   6.842   5.820  0.2369 -0.0070  0.6913
    5MOL0     C  544  10.146   6.781   5.767 -0.4775  0.3019 -0.3471
    5MOL0     C  545  10.131   6.761   5.630  0.1660 -0.4726  0.9518
    5MOL0     C  546  10.005   6.708   5.575 -0.9725 -0.9388 -0.9144
    5MOL0     C  547   9.903   6.687   5.659  0.5131  0.1158 -1.0026
    5MOL0     O  548   9.781   6.646   5.608 -1.1377 -0.2683 -0.0346
    5MOL0     C  549   9.730   6.526   5.655  0.5243 -0.0261 -0.0662
    5MOL0     C  550   9.609   6.488   5.568 -1.1060  1.3510 -0.7488
    5MOL0     C  551   9.489   6.577   5.602  0.1579 -0.2456 -1.4734
    5MOL0     C  552   9.360   6.513   5.561  0.4215  0.2855  1.0178
    5MOL0     C  553   9.243   6.610   5.586  0.2515  1.1504  0.4193
    5MOL0     C  554   9.111   6.545   5.541  0.8288 -0.9575 -0.0767
    5MOL0     C  555   8.988   6.623   5.591 -0.3991  1.2696 -0.4715
    5MOL0     C  556   8.963   6.753   5.529 -0.3509  0.2888  0.8768
    5MOL0     N  557   8.854   6.813   5.607 -1.1651  0.8259 -0.8659
    5MOL0     C  558   8.859   6.844   5.745  0.2761 -0.1890  0.0606
    5MOL0     C  559   8.737   6.882   5.784  0.3365 -0.1873  0.5482
    5MOL0     C  560   8.708   6.905   5.927  0.4843 -0.1859  0.9639
    5MOL0     C  561   8.568   6.964   5.957 -0.5439  0.2365 -0.1304
    5MOL0     C  562   8.456   6.861   5.946  0.1881 -0.8174  0.6486
    5MOL0     C  563   8.326   6.937   5.922  0.0060 -0.3878  0.2500
    5MOL0     O  564   8.285   7.027   6.030  0.0227  0.3946  0.2764
    5MOL0     C  565   8.160   7.082   6.018 -0.2286 -0.3718 -0.1018
    5MOL0     C  566   8.078   7.073   5.915 -0.0921 -0.2421  0.1166
    5MOL0     C  567   7.953   7.133   5.898  0.0789  0.4887 -0.1842
    5MOL0     C  568   7.889   7.119   5.765  0.2029 -0.1390  0.0911
    5MOL0     C  569   7.895   7.202   6.018 -0.0325 -0.0758 -0.1182
    5MOL0     C  570   7.763   7.262   6.025 -0.1319 -0.4769  0.1974
    5MOL0     O  571   7.665   7.227   5.931  0.2432 -0.3787 -0.2828
    5MOL0     C  572   7.552   7.302   5.941  0.5359  0.0928  0.6472
    5MOL0     C  573   7.532   7.390   5.836 -0.1017  0.5934 -0.8512
    5MOL0     C  574   7.414   7.475   5.828 -0.3592 -0.7998 -0.1380
    5MOL0     C  575   7.313   7.475   5.933  0.2485 -0.5436 -1.1059
    5MOL0     O  576   7.192   7.542   5.929 -0.8486  0.0727 -0.4054
    5MOL0     C  577   7.202   7.678   5.872  0.6706  0.1957 -0.5282
    5MOL0     C  578   7.081   7.761   5.899 -0.4004 -0.2255  0.3074
    5MOL0     C  579   7.115   7.905   5.864 -0.0816 -0.1567 -0.0858
    5MOL0     C  580   6.990   7.991   5.894 -0.2641 -0.3341  0.0031
    5MOL0     C  581   7.021   8.120   5.825 -0.2549  0.1706 -0.0176
    5MOL0     C  582   6.927   8.241   5.853 -0.0768  0.5283  0.6072
    5MOL0     C  583   6.982   8.377   5.797  0.0428 -0.1493 -0.0934
    5MOL0     C  584   6.886   8.493   5.829  1.0528  0.2438  0.1981
    5MOL0    Cl  585   6.970   8.645   5.787  0.3259  0.0545 -0.0465
    5MOL0     C  586   7.336   7.382   6.037  0.8815 -0.7828  0.2162
    5MOL0     C  587   7.449   7.298   6.032  0.8739 -0.0658 -0.0010
    5MOL0     O  588   7.741   7.343   6.115 -0.0799  0.3686 -0.3845
    5MOL0     C  589   7.988   7.217   6.124 -0.1927 -0.4841 -0.0661
    5MOL0     C  590   8.108   7.147   6.130  0.1298 -0.5875  0.0015
    5MOL0     N  591   8.656   6.853   5.672 -0.9229 -0.1321 -0.0149
    5MOL0     N  592   8.723   6.802   5.579 -0.3208 -0.9644  0.0783
    5MOL0     C  593   9.919   6.715   5.798 -0.7206  0.9199  0.4690
    5MOL0     C  594  10.042   6.757   5.855 -0.1577 -0.0985 -1.1624
    5MOL0     C  595  10.482   6.825   5.899 -0.5786 -0.6389 -0.3244
    5MOL0     C  596  10.614   6.804   5.853 -0.0423 -0.5893  0.0692
    5MOL0     C  597  10.723   6.850   5.937 -0.3879 -0.0783  0.6820
    5MOL0     C  598  10.698   6.923   6.051 -0.0412 -0.4041 -0.3616
    5MOL0     O  599  10.787   6.979   6.131  0.2752 -0.7225 -0.6568
    5MOL0     C  600  10.910   7.013   6.082 -0.6239  0.2291 -0.2853
    5MOL0     C  601  10.969   7.126   6.171  0.5477 -0.3182  0.0044
    5MOL0     C  602  11.122   7.136   6.139  0.2487 -0.7564 -0.2869
    5MOL0     C  603  11.192   7.249   6.220 -0.1250  0.2584 -0.2864
    5MOL0     C  604  11.237   7.221   6.355 -0.0117 -0.1605  0.6184
    5MOL0     C  605  11.283   7.191   6.462 -0.0978  0.1826 -0.9122
    5MOL0     C  606  10.563   6.946   6.084  0.9886 -0.2955  0.7010
    5MOL0     C  607  10.452   6.901   6.010 -0.8126 -0.6351 -0.5696
    5MOL0     H  608  10.208   6.774   5.556 -2.9209  0.9693 -2.2962
    5MOL0     H  609  10.003   6.697   5.467  3.0914 -0.3599 -1.2123
    5MOL0     H  610   9.806   6.450   5.631  0.0732 -0.3201 -0.5722
    5MOL0     H  611   9.705   6.522   5.762  0.2744  0.0523 -0.1222
    5MOL0     H  612   9.631   6.494   5.461 -5.5033 -1.2508 -2.0720
    5MOL0     H  613   9.571   6.388   5.591  1.7288 -0.3198 -2.7326
    5MOL0     H  614   9.480   6.602   5.708 -0.8616  1.0052 -1.8208
    5MOL0     H  615   9.513   6.670   5.550  1.5059 -0.8789 -2.0133
    5MOL0     H  616   9.356   6.485   5.455 -0.1263 -2.2711  1.6512
    5MOL0     H  617   9.347   6.414   5.606  5.0292 -0.1503  1.8504
    5MOL0     H  618   9.238   6.624   5.694 -1.3719  0.6386  0.4354
    5MOL0     H  619   9.258   6.708   5.539 -1.3171  2.3375  2.2473
    5MOL0     H  620   9.124   6.538   5.433  2.2238  1.4454 -0.1298
    5MOL0     H  621   9.108   6.443   5.580 -3.4095 -1.3331 -0.9508
    5MOL0     H  622   8.906   6.558   5.561 -0.2229  0.3325  0.9627
    5MOL0     H  623   8.990   6.630   5.700  0.9887 -1.4865 -0.2386
    5MOL0     H  624   8.942   6.745   5.422 -0.6541  1.7585  0.7986
    5MOL0     H  625   9.060   6.803   5.521 -0.0221 -0.5930 -3.2848
    5MOL0     H  626   8.954   6.832   5.796  1.0826 -1.8391 -1.7079
    5MOL0     H  627   8.734   6.810   5.974  0.1312 -0.9268 -0.2896
    5MOL0     H  628   8.780   6.978   5.964  0.4324 -0.1798  1.0525
    5MOL0     H  629   8.560   7.050   5.890  0.2453 -0.1704 -0.7679
    5MOL0     H  630   8.552   7.001   6.059  1.2944  0.6587  0.0497
    5MOL0     H  631   8.437   6.796   6.032  3.4011  0.4854  2.4861
    5MOL0     H  632   8.476   6.803   5.855 -1.5951 -1.0962  0.3791
    5MOL0     H  633   8.250   6.862   5.899 -0.4371  0.6361 -1.8368
    5MOL0     H  634   8.348   6.998   5.834 -1.2299  2.0850  1.5231
    5MOL0     H  635   8.124   7.030   5.826  0.7897  0.2485  0.3200
    5MOL0     H  636   7.794   7.072   5.792  1.2192 -1.9595  0.6624
    5MOL0     H  637   7.868   7.216   5.718 -0.6734  1.1257  2.8851
    5MOL0     H  638   7.943   7.055   5.695 -2.0167 -1.5066 -0.4986
    5MOL0     H  639   7.605   7.389   5.756  1.3494 -0.3598  0.4328
    5MOL0     H  640   7.398   7.542   5.745  0.0915  0.7489  0.9746
    5MOL0     H  641   7.292   7.730   5.905  0.7616  0.3065 -0.9489
    5MOL0     H  642   7.204   7.664   5.764 -0.3335  0.2070 -0.5595
    5MOL0     H  643   6.997   7.711   5.851 -0.6276 -0.8288  1.2913
    5MOL0     H  644   7.063   7.749   6.007  0.8313 -0.0572  0.5519
    5MOL0     H  645   7.146   7.925   5.761 -0.6509  2.4689  0.1912
    5MOL0     H  646   7.198   7.944   5.924 -0.9716  2.0104 -0.1814
    5MOL0     H  647   6.897   7.955   5.848 -1.4827  1.6070  0.8164
    5MOL0     H  648   6.975   8.001   6.002 -0.2650 -1.8719  0.1597
    5MOL0     H  649   7.030   8.115   5.717  3.6417 -0.8592  0.2067
    5MOL0     H  650   7.115   8.152   5.872 -1.8233  1.2684  2.6236
    5MOL0     H  651   6.830   8.206   5.819  1.2718 -1.8281 -1.0766
    5MOL0     H  652   6.923   8.257   5.961 -3.5537 -0.1966  0.6687
    5MOL0     H  653   7.001   8.370   5.690 -2.2924 -0.5212 -0.5440
    5MOL0     H  654   7.080   8.404   5.837  0.6325  2.2197 -2.8002
    5MOL0     H  655   6.860   8.496   5.936 -0.3714 -0.9894 -0.0793
    5MOL0     H  656   6.799   8.476   5.765  1.3053 -0.1148 -0.0531
    5MOL0     H  657   7.272   7.383   6.124  0.8942 -0.6620  0.2251
    5MOL0     H  658   7.465   7.237   6.120 -0.2076  0.1154  0.3333
    5MOL0     H  659   7.958   7.278   6.209  2.3159 -1.1759  1.4318
    5MOL0     H  660   8.174   7.156   6.216  3.1518 -1.7936 -2.0034
    5MOL0     H  661   9.834   6.706   5.865 -2.2931 -2.4904 -1.6700
    5MOL0     H  662  10.038   6.763   5.963  0.5719  0.3795 -1.1467
    5MOL0     H  663  10.628   6.744   5.764 -1.1603 -0.4437 -0.2146
    5MOL0     H  664  10.828   6.848   5.909 -0.4950  1.8507 -0.0277
    5MOL0     H  665  10.961   6.918   6.100 -0.4315  0.4336  0.2549
    5MOL0     H  666  10.922   7.029   5.974  3.2181  1.2413  0.1536
    5MOL0     H  667  10.949   7.125   6.278 -0.0581  1.5008 -0.0449
    5MOL0     H  668  10.905   7.205   6.130 -0.0124 -0.5615  0.3997
    5MOL0     H  669  11.144   7.153   6.033  2.5694  0.0427  0.2553
    5MOL0     H  670  11.166   7.043   6.178  1.5132 -0.0731 -0.0194
    5MOL0     H  671  11.120   7.331   6.232 -1.0669 -0.4313 -1.0185
    5MOL0     H  672  11.285   7.281   6.172  0.8272 -1.4030  0.3530
    5MOL0     H  673  11.318   7.163   6.559 -1.3727  1.3598 -0.0720
    5MOL0     H  674  10.530   6.993   6.175 -2.2129  0.0668 -0.5299
    5MOL0     H  675  10.355   6.921   6.054 -0.2541 -3.0433  1.9676
    6MOL0     O  676   5.453   1.242   2.979  0.4998 -0.0366  1.1111
    6MOL0     C  677   5.558   1.272   3.034  0.3657  0.2959 -0.2158
    6MOL0     O  678   5.573   1.346   3.149  0.6102 -0.4163 -0.1243
    6MOL0     C  679   5.471   1.429   3.187  0.0370 -0.3384  0.2219
    6MOL0     C  680   5.400   1.419   3.309 -0.5561 -0.1687 -0.5987
    6MOL0     C  681   5.296   1.502   3.346 -0.4280 -0.3707  0.5757
    6MOL0     C  682   5.255   1.607   3.262 -0.5665  0.5153 -0.6223
    6MOL0     O  683   5.163   1.713   3.289 -0.6686  0.8110 -0.0332
    6MOL0     C  684   5.090   1.690   3.406 -0.0037  0.5911 -0.8246
    6MOL0     C  685   4.981   1.790   3.417  0.6853 -0.0374  0.3946
    6MOL0     C  686   4.874   1.752   3.525 -0.1780  0.3821  0.2750
    6MOL0     C  687   4.736   1.806   3.484  0.1737  1.2135 -0.3140
    6MOL0     C  688   4.634   1.776   3.587  0.3977  0.1513  0.5782
    6MOL0     C  689   4.559   1.635   3.594  0.2365 -0.0654 -0.4855
    6MOL0     C  690   4.469   1.604   3.715 -0.3698 -0.1272 -0.4323
    6MOL0     C  691   4.355   1.503   3.688 -0.4187  0.0622 -0.2885
    6MOL0     N  692   4.231   1.568   3.642 -0.7424 -0.6519  0.0973
    6MOL0     C  693   4.131   1.595   3.730 -0.1018  0.6709  0.5601
    6MOL0     C  694   4.023   1.590   3.653  0.3687 -0.2094  0.5754
    6MOL0     C  695   3.884   1.593   3.705 -0.0062  0.5355 -0.0709
    6MOL0     C  696   3.784   1.681   3.622  0.0990  0.4300  0.6087
    6MOL0     C  697   3.728   1.614   3.500  0.4984  0.7126  0.2336
    6MOL0     C  698   3.629   1.504   3.542 -0.1255 -0.1243  0.6748
    6MOL0     O  699   3.512   1.579   3.597 -0.0999 -0.0375  0.3733
    6MOL0     C  700   3.390   1.509   3.613 -0.0981  1.1393 -0.3109
    6MOL0     C  701   3.371   1.365   3.590 -0.2996 -0.3153  0.3042
    6MOL0     C  702   3.250   1.305   3.624 -0.1405  0.1518  0.6841
    6MOL0     C  703   3.240   1.154   3.607  0.7381 -0.0040  0.2826
    6MOL0     C  704   3.150   1.389   3.657  0.0414 -0.4437 -0.3560
    6MOL0     C  705   3.006   1.355   3.684 -0.7138 -0.7416 -0.6463
    6MOL0     O  706   2.912   1.456   3.695 -0.8566 -0.3299 -0.4575
    6MOL0     C  707   2.781   1.425   3.706 -0.1518 -0.0111  0.2952
    6MOL0     C  708   2.713   1.368   3.590  0.5656 -0.0370 -0.2210
    6MOL0     C  709   2.576   1.344   3.605  0.3333  0.1430 -0.3343
    6MOL0     C  710   2.497   1.403   3.707  0.0640  0.3619 -0.1299
    6MOL0     O  711   2.357   1.390   3.702 -0.7026 -0.0399  0.4985
    6MOL0     C  712   2.279   1.427   3.815  0.4965 -0.2567  0.5296
    6MOL0     C  713   2.135   1.376   3.792 -0.0657 -0.2318 -0.7566
    6MOL0     C  714   2.071   1.456   3.684  0.6991 -0.2574  1.4550
    6MOL0     C  715   1.992   1.579   3.732 -0.1969  0.4115 -0.1382
    6MOL0     C  716   1.957   1.684   3.625 -0.0055  0.1881 -0.5210
    6MOL0     C  717   1.873   1.633   3.503 -0.0213 -0.7112 -0.1291
    6MOL0     C  718   1.751   1.552   3.546  0.1827  0.7507 -0.1702
    6MOL0     C  719   1.642   1.564   3.442 -0.5996  0.9793  0.1046
    6MOL0    Cl  720   1.580   1.738   3.420 -0.4177 -0.4071 -0.0709
    6MOL0     C  721   2.567   1.465   3.813  0.6434  0.3337  0.0083
    6MOL0     C  722   2.706   1.474   3.818  0.3764  0.0525  0.0436
    6MOL0     O  723   2.973   1.234   3.693  0.6402  0.4087 -0.6659
    6MOL0     C  724   3.162   1.529   3.660 -0.5215 -0.2628  0.7686
    6MOL0     C  725   3.287   1.589   3.634  0.4334 -0.2039 -0.0808
    6MOL0     N  726   4.051   1.571   3.517  0.3755 -0.6544 -0.2561
    6MOL0     N  727   4.175   1.551   3.511 -0.8265 -0.3552 -0.5228
    6MOL0     C  728   5.324   1.624   3.144  0.1527 -0.1174  0.3132
    6MOL0     C  729   5.436   1.541   3.102  0.7966  0.1839  0.0914
    6MOL0     C  730   5.689   1.202   2.997  0.0076  0.0236  0.8280
    6MOL0     C  731   5.698   1.075   2.938  0.1882 -0.1390 -0.9335
    6MOL0     C  732   5.817   1.020   2.898 -0.0848 -0.5737  0.4127
    6MOL0     C  733   5.936   1.079   2.938 -0.3363  0.6262  0.1859
    6MOL0     O  734   6.059   1.023   2.912 -0.1794 -0.1635  0.1559
    6MOL0     C  735   6.078   0.902   2.835  0.7305 -0.6011  0.4012
    6MOL0     C  736   6.230   0.884   2.817 -0.6986 -0.3061 -0.1513
    6MOL0     C  737   6.297   0.995   2.733  0.1401  0.6398 -0.3711
    6MOL0     C  738   6.436   0.966   2.709 -0.4766  0.1244  0.3939
    6MOL0     C  739   6.527   1.076   2.668  0.8238  0.6413 -0.5402
    6MOL0     C  740   6.593   1.177   2.643 -0.0813 -0.0567  0.7758
    6MOL0     C  741   5.927   1.210   2.996  0.5654 -0.2480  0.3294
    6MOL0     C  742   5.803   1.273   3.013 -0.5749  0.9295  0.1127
    6MOL0     H  743   5.433   1.344   3.381 -1.6748  1.7234  2.0745
    6MOL0     H  744   5.238   1.486   3.437  1.8236  0.1969  2.1907
    6MOL0     H  745   5.050   1.588   3.405  2.8069 -0.6496  0.8878
    6MOL0     H  746   5.150   1.696   3.498 -0.1871  0.4766 -0.6971
    6MOL0     H  747   5.020   1.884   3.457 -0.7040  0.1522  1.3552
    6MOL0     H  748   4.931   1.787   3.320 -0.9491 -0.2616  1.2241
    6MOL0     H  749   4.871   1.644   3.541 -0.7129  0.5953  1.7417
    6MOL0     H  750   4.901   1.792   3.623 -0.2126  3.2640 -0.8100
    6MOL0     H  751   4.736   1.913   3.465 -0.5266  1.4327  0.8316
    6MOL0     H  752   4.715   1.763   3.386  1.4962  3.1465 -1.5094
    6MOL0     H  753   4.679   1.788   3.686  0.4123 -2.7512  0.9957
    6MOL0     H  754   4.549   1.845   3.581  0.1634  0.1049  2.6770
    6MOL0     H  755   4.496   1.635   3.504  0.4948 -0.6410 -0.6707
    6MOL0     H  756   4.636   1.559   3.578 -0.3755 -0.8409  0.1644
    6MOL0     H  757   4.535   1.560   3.790 -2.9251 -1.7735  1.0117
    6MOL0     H  758   4.428   1.693   3.763  0.5752 -0.3304  0.8071
    6MOL0     H  759   4.329   1.458   3.784 -0.3883  2.1898  0.7694
    6MOL0     H  760   4.383   1.426   3.615  2.7776 -0.3741  1.2034
    6MOL0     H  761   4.144   1.602   3.837 -1.6690  1.7459  0.7099
    6MOL0     H  762   3.838   1.494   3.711  1.9406 -0.3731  0.7874
    6MOL0     H  763   3.889   1.621   3.810 -0.8011 -1.8919  0.6770
    6MOL0     H  764   3.836   1.769   3.581  0.2270 -1.1933 -3.1752
    6MOL0     H  765   3.708   1.722   3.689 -0.0253 -0.5717  1.0954
    6MOL0     H  766   3.809   1.563   3.447  0.0657 -0.6442  0.8176
    6MOL0     H  767   3.679   1.686   3.435 -4.2457 -1.9873  0.3121
    6MOL0     H  768   3.667   1.445   3.626 -1.3184  0.6043  1.7731
    6MOL0     H  769   3.592   1.446   3.457 -1.3339  0.5796  0.6830
    6MOL0     H  770   3.456   1.300   3.575 -0.5605 -0.2912 -1.5141
    6MOL0     H  771   3.151   1.136   3.546  0.7959  0.4238  0.0638
    6MOL0     H  772   3.329   1.119   3.554  0.0315  0.5231 -1.3331
    6MOL0     H  773   3.231   1.115   3.708  2.5241  1.6987  1.1697
    6MOL0     H  774   2.778   1.345   3.506  0.6391  0.3245 -0.2633
    6MOL0     H  775   2.523   1.290   3.527  0.2682  0.3402 -0.4289
    6MOL0     H  776   2.318   1.394   3.912 -0.8258  2.8877  2.3009
    6MOL0     H  777   2.292   1.535   3.829  0.9065 -0.1215 -0.8119
    6MOL0     H  778   2.126   1.267   3.781  0.5564 -0.4894  0.9035
    6MOL0     H  779   2.080   1.397   3.884 -0.5309  1.4169 -1.3845
    6MOL0     H  780   2.005   1.395   3.620  2.4692  1.2142 -2.0261
    6MOL0     H  781   2.146   1.493   3.613  0.7851  2.7214  2.9803
    6MOL0     H  782   1.910   1.542   3.795  2.2348 -2.6408  1.5337
    6MOL0     H  783   2.060   1.630   3.801 -0.2446 -0.4065  0.5303
    6MOL0     H  784   2.052   1.715   3.582  1.8198 -2.4232  1.3261
    6MOL0     H  785   1.909   1.766   3.678  1.9526  2.3758 -1.9570
    6MOL0     H  786   1.858   1.726   3.449  1.9703  1.7926  3.1821
    6MOL0     H  787   1.937   1.567   3.444  1.2440 -0.4397  0.8810
    6MOL0     H  788   1.719   1.597   3.641  0.6906 -1.2981  1.0412
    6MOL0     H  789   1.775   1.446   3.543  1.4799  1.0372 -2.9843
    6MOL0     H  790   1.553   1.506   3.471  0.2616  0.3151  1.5603
    6MOL0     H  791   1.667   1.524   3.344  0.8887  1.6824  0.1630
    6MOL0     H  792   2.514   1.509   3.897  1.1923 -0.1104  0.5984
    6MOL0     H  793   2.743   1.521   3.909  0.1396 -2.3758  1.4767
    6MOL0     H  794   3.100   1.613   3.689  0.5563  0.5028  0.9130
    6MOL0     H  795   3.289   1.697   3.630  1.7440 -0.2056  0.1531
    6MOL0     H  796   5.290   1.698   3.073 -1.6595 -1.6096 -0.4636
    6MOL0     H  797   5.477   1.545   3.002 -1.1986  1.6303 -0.7334
    6MOL0     H  798   5.611   1.026   2.896 -0.0012 -1.2497  0.6680
    6MOL0     H  799   5.819   0.924   2.847 -2.0009  0.1366 -1.1343
    6MOL0     H  800   6.038   0.812   2.883  1.4791  0.9731  4.4020
    6MOL0     H  801   6.029   0.910   2.737 -1.0076  0.2472  1.2962
    6MOL0     H  802   6.234   0.794   2.754 -1.0949 -0.4628  0.0484
    6MOL0     H  803   6.270   0.860   2.916 -3.2181 -1.7517  0.5982
    6MOL0     H  804   6.289   1.087   2.792 -0.8869 -1.1038  2.4421
    6MOL0     H  805   6.238   1.001   2.641  0.7738  0.9461 -0.7616
    6MOL0     H  806   6.438   0.880   2.641  1.5668  0.4247  0.0100
    6MOL0     H  807   6.486   0.919   2.795  1.2193  0.3681 -0.4114
    6MOL0     H  808   6.649   1.265   2.617 -0.6085 -0.2506 -1.2320
    6MOL0     H  809   6.015   1.263   3.032 -0.6787  1.1066  1.5096
    6MOL0     H  810   5.798   1.374   3.054 -0.2622 -0.1581  3.0741
    7MOL0     O  811   7.504  10.323   3.981  0.2127  0.7284 -0.4116
    7MOL0     C  812   7.550  10.204   3.986 -0.4761 -0.2459  1.0095
    7MOL0     O  813   7.483  10.093   3.943  0.1465 -0.4887  0.1423
    7MOL0     C  814   7.350  10.088   3.904  0.1542 -0.0806  1.4700
    7MOL0     C  815   7.312  10.005   3.800 -0.4570  0.3138 -0.3521
    7MOL0     C  816   7.177   9.985   3.768  0.2523 -0.3051  0.7592
    7MOL0     C  817   7.070  10.052   3.839 -0.4427 -0.8098  0.4884
    7MOL0     O  818   6.944  10.021   3.799 -0.5765 -0.0172 -0.2085
    7MOL0     C  819   6.862  10.135   3.821  0.5115  0.5130 -0.2130
    7MOL0     C  820   6.744  10.117   3.720 -0.8929 -0.3997  0.8310
    7MOL0     C  821   6.635  10.223   3.718  0.8212  0.4162  0.6092
    7MOL0     C  822   6.553  10.229   3.846  0.0626  0.2422  0.3188
    7MOL0     C  823   6.458  10.358   3.832 -0.1094  0.4530 -0.1380
    7MOL0     C  824   6.346  10.363   3.718 -0.4727 -0.1248  0.6184
    7MOL0     C  825   6.258  10.233   3.711  0.0846 -0.3429 -0.0600
    7MOL0     C  826   6.173  10.209   3.838  0.7555 -0.1907 -0.3194
    7MOL0     N  827   6.053  10.300   3.843 -0.6961  0.5069  0.1988
    7MOL0     C  828   5.931  10.267   3.801  0.6689 -0.8395 -0.0458
    7MOL0     C  829   5.856  10.372   3.846  0.0450  0.0951  0.6578
    7MOL0     C  830   5.704  10.394   3.811 -0.3471  0.1906  0.2234
    7MOL0     C  831   5.690  10.525   3.735  0.1765 -0.4189  0.0028
    7MOL0     C  832   5.549  10.537   3.669 -0.0022  0.2633 -0.0519
    7MOL0     C  833   5.431  10.552   3.770  0.3279  0.1295  0.2150
    7MOL0     O  834   5.320  10.604   3.701 -0.2551  0.1696  0.0155
    7MOL0     C  835   5.211  10.644   3.781  0.2719  0.1676 -0.6456
    7MOL0     C  836   5.207  10.661   3.919  0.9250  0.8396  0.1227
    7MOL0     C  837   5.089  10.713   3.984 -0.0536  0.1257 -0.0669
    7MOL0     C  838   5.081  10.717   4.135 -0.1853 -0.1929 -0.5412
    7MOL0     C  839   4.976  10.770   3.914  0.7229  0.3343 -0.3783
    7MOL0     C  840   4.853  10.824   3.971  1.2069  0.3098 -0.0819
    7MOL0     O  841   4.810  10.926   3.896  0.2471 -0.1431  0.0997
    7MOL0     C  842   4.702  11.013   3.916 -0.7329 -0.4888  0.3819
    7MOL0     C  843   4.706  11.140   3.843  0.1135  0.7123  0.1074
    7MOL0     C  844   4.597  11.225   3.852  0.4406 -0.7809 -0.2413
    7MOL0     C  845   4.484  11.198   3.927  0.9105 -0.4567 -0.9514
    7MOL0     O  846   4.377  11.283   3.932  0.1320  0.6644  0.6611
    7MOL0     C  847   4.249  11.214   3.945  0.3915  0.8070 -0.6141
    7MOL0     C  848   4.136  11.310   3.910  0.5838  0.0045  0.4391
    7MOL0     C  849   4.112  11.412   4.017 -0.0018 -0.2957  0.2848
    7MOL0     C  850   4.001  11.516   3.998 -0.3331 -0.2501  0.1467
    7MOL0     C  851   3.957  11.591   4.124  0.1169 -0.4084  0.1380
    7MOL0     C  852   3.898  11.730   4.093  0.1506  0.1011  0.8739
    7MOL0     C  853   3.834  11.789   4.222  0.2256  0.5644 -0.0393
    7MOL0     C  854   3.926  11.831   4.335 -0.3594  0.3618 -0.0390
    7MOL0    Cl  855   4.049  11.930   4.267 -0.0986 -0.6888  0.3014
    7MOL0     C  856   4.492  11.079   4.001  0.6686 -0.7882 -0.4643
    7MOL0     C  857   4.600  10.992   4.006  0.0215  0.3684 -0.5473
    7MOL0     O  858   4.802  10.772   4.069  0.0077 -0.5086  0.1178
    7MOL0     C  859   4.986  10.757   3.770 -0.4685  1.1150  0.0899
    7MOL0     C  860   5.096  10.680   3.710 -0.1322  0.4279  0.4268
    7MOL0     N  861   5.937  10.459   3.917 -0.2572  0.0903  0.2696
    7MOL0     N  862   6.056  10.418   3.911  0.0953 -0.0745 -0.9527
    7MOL0     C  863   7.111  10.127   3.945  0.1139 -0.3310  0.0316
    7MOL0     C  864   7.246  10.147   3.973  0.5455 -0.6428 -0.6962
    7MOL0     C  865   7.694  10.186   4.018 -0.0489  0.2449  0.2266
    7MOL0     C  866   7.772  10.074   3.969  0.2366 -0.7978 -0.5199
    7MOL0     C  867   7.916  10.072   3.990  0.2875 -0.1041 -0.5135
    7MOL0     C  868   7.993  10.171   4.062 -0.3831  1.3524  1.0670
    7MOL0     O  869   8.133  10.171   4.070 -0.0964 -0.1353  0.1922
    7MOL0     C  870   8.207  10.053   4.066 -0.2066  1.3535  0.0992
    7MOL0     C  871   8.349  10.086   4.112 -0.8663 -0.0344 -0.3608
    7MOL0     C  872   8.437   9.959   4.165 -0.0032 -0.3740 -0.6575
    7MOL0     C  873   8.424   9.838   4.071  0.6105  0.1230 -0.3245
    7MOL0     C  874   8.537   9.747   4.102 -0.0128 -0.5780  0.0594
    7MOL0     C  875   8.614   9.659   4.132 -0.4870 -0.3221  0.4115
    7MOL0     C  876   7.913  10.281   4.102 -0.1766 -0.4974 -0.0656
    7MOL0     C  877   7.774  10.285   4.094 -0.2469 -0.2153  0.7658
    7MOL0     H  878   7.390   9.951   3.748 -0.8070 -1.8417  1.2321
    7MOL0     H  879   7.155   9.906   3.697  1.3280  0.3248 -0.3015
    7MOL0     H  880   6.829  10.134   3.925 -0.9782 -1.0218 -0.6434
    7MOL0     H  881   6.921  10.224   3.797  0.7130  0.1890 -0.9500
    7MOL0     H  882   6.773  10.104   3.616  0.6010 -1.7316  1.3693
    7MOL0     H  883   6.697  10.021   3.746 -1.2164 -0.3386  0.4887
    7MOL0     H  884   6.686  10.318   3.698  1.1533  0.7846  2.9040
    7MOL0     H  885   6.558  10.208   3.642 -1.5300 -2.2288  3.2158
    7MOL0     H  886   6.489  10.145   3.874 -0.0312  0.0200 -0.5306
    7MOL0     H  887   6.622  10.251   3.928  0.7041  0.2885 -0.2241
    7MOL0     H  888   6.397  10.375   3.922 -0.9280  1.7237 -0.9079
    7MOL0     H  889   6.526  10.441   3.813  1.8314 -1.2308 -0.8663
    7MOL0     H  890   6.287  10.453   3.741  1.5290  2.1599 -2.4650
    7MOL0     H  891   6.394  10.378   3.621 -0.2752  2.1929  1.0006
    7MOL0     H  892   6.201  10.247   3.618 -0.4020  0.0770  0.2984
    7MOL0     H  893   6.329  10.150   3.708 -1.3395 -1.6589  1.1909
    7MOL0     H  894   6.231  10.244   3.924  2.5116 -0.3653 -1.3846
    7MOL0     H  895   6.133  10.107   3.837 -3.3563  1.2205  0.8610
    7MOL0     H  896   5.900  10.183   3.740 -0.1699 -0.0576 -0.7191
    7MOL0     H  897   5.668  10.311   3.750  0.5444 -1.3082  1.6768
    7MOL0     H  898   5.655  10.400   3.909  1.1949  0.2571  1.0083
    7MOL0     H  899   5.771  10.539   3.662  1.5084 -2.5302  0.9946
    7MOL0     H  900   5.695  10.612   3.801 -0.0906 -0.1088 -0.3788
    7MOL0     H  901   5.530  10.445   3.613  0.1845  0.3488 -0.2567
    7MOL0     H  902   5.534  10.621   3.600 -0.2257  1.0765  0.9512
    7MOL0     H  903   5.452  10.621   3.852  1.3741 -0.4088  0.4157
    7MOL0     H  904   5.410  10.454   3.815  2.1698 -0.9732 -1.1831
    7MOL0     H  905   5.286  10.622   3.983  0.6616  0.6330  0.3213
    7MOL0     H  906   5.012  10.645   4.181  0.2657 -0.0104  0.4525
    7MOL0     H  907   5.176  10.697   4.184 -0.1444  2.0849  0.4178
    7MOL0     H  908   5.055  10.818   4.166  1.5026  0.3977 -0.9675
    7MOL0     H  909   4.786  11.148   3.770 -1.8953 -2.2261 -2.6977
    7MOL0     H  910   4.603  11.323   3.804  2.1231 -1.1079 -0.7694
    7MOL0     H  911   4.262  11.125   3.882 -1.7739 -0.0260  0.0234
    7MOL0     H  912   4.224  11.183   4.047  0.0801 -1.4499 -1.3194
    7MOL0     H  913   4.162  11.338   3.807  0.4546 -1.4313 -0.0136
    7MOL0     H  914   4.038  11.263   3.895  1.5326 -1.1675 -3.4239
    7MOL0     H  915   4.206  11.468   4.024  0.0760 -0.4711  0.6875
    7MOL0     H  916   4.106  11.377   4.121  1.8206  0.3723  0.6650
    7MOL0     H  917   4.042  11.588   3.926 -1.2757  0.6569  0.4932
    7MOL0     H  918   3.911  11.469   3.957 -0.0106 -0.4762 -0.3167
    7MOL0     H  919   4.044  11.615   4.187 -0.4145 -1.0285  1.1318
    7MOL0     H  920   3.889  11.533   4.187  0.3659  0.9556  1.7557
    7MOL0     H  921   3.978  11.792   4.053 -0.6116 -0.8588 -2.4810
    7MOL0     H  922   3.825  11.713   4.014  0.6428 -2.3015  0.8493
    7MOL0     H  923   3.758  11.723   4.266 -0.8226  2.7869  1.6955
    7MOL0     H  924   3.779  11.882   4.204 -2.4778 -0.9613 -0.2155
    7MOL0     H  925   3.982  11.746   4.376 -0.8566  0.3228  0.5737
    7MOL0     H  926   3.864  11.876   4.413 -1.5227 -3.1704  1.2357
    7MOL0     H  927   4.401  11.059   4.057 -0.0843  0.3168 -1.2205
    7MOL0     H  928   4.601  10.909   4.077 -2.5688 -0.9326 -1.8981
    7MOL0     H  929   4.910  10.801   3.706  0.0249  1.4635 -0.2583
    7MOL0     H  930   5.090  10.662   3.604 -1.3711  2.1160  0.1608
    7MOL0     H  931   7.041  10.178   4.011 -0.8975 -1.0626 -0.4592
    7MOL0     H  932   7.274  10.219   4.049  0.4641 -0.3990 -0.8946
    7MOL0     H  933   7.714  10.000   3.915  2.5975 -1.8742 -1.7881
    7MOL0     H  934   7.969   9.992   3.938  0.7779  0.0081 -0.1858
    7MOL0     H  935   8.165   9.983   4.139  1.8506  0.1432  0.2212
    7MOL0     H  936   8.208  10.010   3.965  2.2912  0.7858  0.2831
    7MOL0     H  937   8.350  10.160   4.193 -0.9756 -0.5742  0.1389
    7MOL0     H  938   8.397  10.138   4.028  3.6597  0.6263  2.2852
    7MOL0     H  939   8.399   9.952   4.268 -1.5601  1.6713 -1.0293
    7MOL0     H  940   8.542   9.989   4.173 -0.4270  1.4203 -1.3424
    7MOL0     H  941   8.435   9.863   3.965 -1.2560 -1.2639 -0.8815
    7MOL0     H  942   8.331   9.782   4.077  2.2123 -2.9753 -2.2321
    7MOL0     H  943   8.693   9.590   4.150  0.9271  1.6043  1.9724
    7MOL0     H  944   7.952  10.351   4.174 -0.5873 -1.7337  1.4197
    7MOL0     H  945   7.727  10.373   4.137 -0.1386  0.8133 -1.1304
    8MOL0     O  946   6.781   1.091   9.057  0.2494 -0.1977  0.3795
    8MOL0     C  947   6.859   1.178   9.014  0.1241 -0.5070 -0.9344
    8MOL0     O  948   6.844   1.308   9.020  0.3818  0.3302 -0.0943
    8MOL0     C  949   6.719   1.354   9.057 -0.0391  0.0616 -0.2708
    8MOL0     C  950   6.608   1.359   8.975 -0.1033  0.0582 -0.2252
    8MOL0     C  951   6.482   1.411   9.023 -0.5500 -0.0608  0.4752
    8MOL0     C  952   6.477   1.458   9.159 -0.4172  0.5058  0.3464
    8MOL0     O  953   6.354   1.484   9.215 -0.1934 -0.0736  1.3113
    8MOL0     C  954   6.341   1.572   9.328  0.0233 -0.3926  0.2131
    8MOL0     C  955   6.198   1.629   9.344  0.7648  0.2892 -0.5028
    8MOL0     C  956   6.102   1.514   9.360  0.5456  0.0905  0.0366
    8MOL0     C  957   5.955   1.568   9.368  0.8659  0.3821  0.2476
    8MOL0     C  958   5.858   1.457   9.337  0.0688  0.4217 -0.0515
    8MOL0     C  959   5.710   1.505   9.346  0.4513 -0.9313 -0.3588
    8MOL0     C  960   5.622   1.381   9.328  0.2894  0.9184 -0.2829
    8MOL0     C  961   5.585   1.355   9.176 -0.7329 -0.5620 -0.4498
    8MOL0     N  962   5.471   1.269   9.155 -0.6977  0.4981 -0.0374
    8MOL0     C  963   5.458   1.138   9.187  0.1167 -0.2126  0.2523
    8MOL0     C  964   5.337   1.108   9.142 -0.0834  0.0763  0.3579
    8MOL0     C  965   5.276   0.971   9.141  0.3358  0.5966  0.1391
    8MOL0     C  966   5.129   0.958   9.197 -0.1093 -0.4595 -0.0217
    8MOL0     C  967   5.128   0.984   9.354 -0.0318 -0.9317  0.0795
    8MOL0     C  968   4.990   0.970   9.417 -0.0015  0.0654  0.7896
    8MOL0     O  969   5.011   0.839   9.488  0.1762  0.9618  0.1004
    8MOL0     C  970   4.907   0.767   9.545  0.5286 -0.5096  0.8451
    8MOL0     C  971   4.791   0.839   9.582  0.2325  0.3046 -0.6178
    8MOL0     C  972   4.687   0.778   9.662  0.0850 -0.3402 -0.9323
    8MOL0     C  973   4.563   0.856   9.687 -0.3094  0.6834  0.3529
    8MOL0     C  974   4.700   0.642   9.693 -0.6334 -0.2120  0.2380
    8MOL0     C  975   4.595   0.576   9.768  0.0733 -0.9362  0.9007
    8MOL0     O  976   4.540   0.468   9.703  0.5265 -0.1234  0.0333
    8MOL0     C  977   4.429   0.402   9.753 -0.4181 -0.2251  0.8068
    8MOL0     C  978   4.405   0.261   9.725 -0.4034 -1.0256 -0.5473
    8MOL0     C  979   4.288   0.197   9.784 -0.1284 -0.1196  0.8987
    8MOL0     C  980   4.195   0.270   9.858  0.4049  0.4115  0.4749
    8MOL0     O  981   4.085   0.218   9.929 -0.6497 -0.8842  0.2644
    8MOL0     C  982   4.069   0.078   9.930 -0.0952 -0.2495 -0.0407
    8MOL0     C  983   3.961   0.025  10.037  1.3230 -0.7286 -0.4348
    8MOL0     C  984   3.828   0.078   9.994 -0.2938  0.4329 -0.0838
    8MOL0     C  985   3.713   0.030  10.064 -0.1074  0.2169 -0.7978
    8MOL0     C  986   3.588   0.100  10.013  0.0535 -0.0067  0.3101
    8MOL0     C  987   3.466   0.038  10.071  0.2087 -0.3942  0.0005
    8MOL0     C  988   3.326   0.103  10.029  0.0144 -0.2133 -0.8876
    8MOL0     C  989   3.277   0.091   9.883 -0.1042 -1.3630 -0.5999
    8MOL0    Cl  990   3.247  -0.079   9.845 -0.0090  0.0892 -0.2557
    8MOL0     C  991   4.218   0.398   9.890 -0.5721 -0.1037  0.4961
    8MOL0     C  992   4.330   0.464   9.827  0.0995  0.0156  0.0789
    8MOL0     O  993   4.581   0.602   9.886  0.5279 -0.0117 -0.2087
    8MOL0     C  994   4.814   0.570   9.657  0.0710 -0.0071  0.2171
    8MOL0     C  995   4.916   0.633   9.585 -0.7841  0.7031 -0.3938
    8MOL0     N  996   5.271   1.215   9.096 -0.5088 -0.9009  0.5940
    8MOL0     N  997   5.350   1.310   9.102 -0.2249 -0.0694 -0.2880
    8MOL0     C  998   6.592   1.443   9.238 -0.6530  0.0644 -0.4178
    8MOL0     C  999   6.701   1.390   9.192  0.0953  0.5850 -0.2278
    8MOL0     C 1000   6.976   1.136   8.944 -0.4543  0.6035  0.1589
    8MOL0     C 1001   7.046   1.019   8.960  0.4752 -0.0875 -0.6825
    8MOL0     C 1002   7.173   1.000   8.906  0.0058 -0.0866  0.7391
    8MOL0     C 1003   7.225   1.090   8.811 -0.0850  0.4015  0.3112
    8MOL0     O 1004   7.340   1.076   8.737  0.4040  0.6339 -0.4774
    8MOL0     C 1005   7.398   0.943   8.728  0.4830  0.0269  0.6083
    8MOL0     C 1006   7.318   0.850   8.625  0.4472 -0.4166  0.5004
    8MOL0     C 1007   7.397   0.790   8.514  1.4787  0.3445 -0.1100
    8MOL0     C 1008   7.421   0.889   8.405  0.2273 -0.0165  1.4366
    8MOL0     C 1009   7.498   0.820   8.299 -0.4800 -0.7470  0.3180
    8MOL0     C 1010   7.542   0.773   8.194 -0.4687  0.9688 -0.2833
    8MOL0     C 1011   7.162   1.206   8.784  0.7815  0.6048  0.3838
    8MOL0     C 1012   7.042   1.229   8.855  0.5929 -0.3180  0.3340
    8MOL0     H 1013   6.623   1.328   8.872 -0.3364  2.0139 -0.8819
    8MOL0     H 1014   6.385   1.411   8.974 -1.2624  1.6416  1.7731
    8MOL0     H 1015   6.357   1.511   9.417 -0.9470 -1.2625 -0.1948
    8MOL0     H 1016   6.410   1.657   9.332  0.5910 -0.8028 -0.7633
    8MOL0     H 1017   6.194   1.695   9.432 -0.2517 -0.1399 -0.2142
    8MOL0     H 1018   6.174   1.678   9.249 -0.1803 -4.7804 -3.2446
    8MOL0     H 1019   6.107   1.463   9.263 -0.1390  2.1685 -1.1750
    8MOL0     H 1020   6.113   1.442   9.441 -1.4908 -2.2100 -1.5596
    8MOL0     H 1021   5.938   1.610   9.467  3.4386 -0.5910  1.1685
    8MOL0     H 1022   5.933   1.639   9.287  1.5482 -0.7346 -0.9681
    8MOL0     H 1023   5.867   1.402   9.243 -1.1499  0.1604 -0.0323
    8MOL0     H 1024   5.881   1.389   9.419  2.5653 -2.9935 -3.2227
    8MOL0     H 1025   5.685   1.547   9.444  1.8290  3.2082 -1.5850
    8MOL0     H 1026   5.681   1.569   9.262 -1.0010  0.8664  1.4168
    8MOL0     H 1027   5.681   1.298   9.369 -0.7248 -1.3974 -3.1555
    8MOL0     H 1028   5.525   1.386   9.379 -0.7519 -0.7357 -1.9461
    8MOL0     H 1029   5.673   1.319   9.123 -1.1189 -2.8120  0.3246
    8MOL0     H 1030   5.562   1.448   9.123  1.0921  0.5403  0.5985
    8MOL0     H 1031   5.534   1.072   9.228  1.2364 -0.5970 -2.2225
    8MOL0     H 1032   5.253   0.940   9.039 -1.9542 -1.1913  1.1090
    8MOL0     H 1033   5.337   0.898   9.196 -1.8030 -1.1606  0.3093
    8MOL0     H 1034   5.103   0.853   9.189 -2.1185 -0.1572  1.7940
    8MOL0     H 1035   5.062   1.024   9.141  2.2403  3.0796  0.9985
    8MOL0     H 1036   5.160   1.086   9.375  1.3035 -1.4540  0.6762
    8MOL0     H 1037   5.201   0.917   9.400 -1.5183 -1.8731  1.1652
    8MOL0     H 1038   4.905   0.966   9.348 -0.0471  0.1483  0.8406
    8MOL0     H 1039   4.987   1.052   9.490  0.8283 -0.3673  1.3191
    8MOL0     H 1040   4.783   0.944   9.558  0.4693  0.1752 -1.2946
    8MOL0     H 1041   4.555   0.949   9.631 -1.1414 -0.8677 -2.3161
    8MOL0     H 1042   4.489   0.784   9.649  1.2638 -0.5766 -0.4761
    8MOL0     H 1043   4.542   0.858   9.794  2.5985  0.0220  1.0057
    8MOL0     H 1044   4.469   0.209   9.653  0.3751 -1.5122  0.4595
    8MOL0     H 1045   4.280   0.092   9.757 -1.4691  0.3237 -0.6626
    8MOL0     H 1046   4.045   0.039   9.830  1.1241  0.9464 -0.8333
    8MOL0     H 1047   4.156   0.023   9.966 -0.2413  0.1421  0.9442
    8MOL0     H 1048   3.958  -0.085  10.036 -2.1024 -0.7728 -1.9379
    8MOL0     H 1049   3.987   0.055  10.138  1.7371 -1.8558 -0.1883
    8MOL0     H 1050   3.810   0.045   9.892 -1.3597 -0.0958  0.2621
    8MOL0     H 1051   3.840   0.187   9.995  1.5430  0.2523  0.8848
    8MOL0     H 1052   3.707  -0.079  10.061 -0.1018  0.1564  0.5461
    8MOL0     H 1053   3.728   0.061  10.168 -0.7729  3.2574 -1.4883
    8MOL0     H 1054   3.581   0.091   9.904  1.1587  1.4473  0.0880
    8MOL0     H 1055   3.583   0.206  10.040  0.2971  0.0075  0.2997
    8MOL0     H 1056   3.454  -0.070  10.057 -2.8892 -0.4575  1.9820
    8MOL0     H 1057   3.472   0.052  10.180 -1.3559  2.3564 -0.1491
    8MOL0     H 1058   3.327   0.209  10.057  0.7840  0.0485 -1.8571
    8MOL0     H 1059   3.252   0.055  10.094 -2.1415  1.5349 -1.9142
    8MOL0     H 1060   3.351   0.139   9.819  0.0340 -1.0227 -0.1891
    8MOL0     H 1061   3.181   0.144   9.880 -1.1929 -3.1568  0.5620
    8MOL0     H 1062   4.155   0.460   9.952  0.2072  0.5150  0.6914
    8MOL0     H 1063   4.335   0.570   9.850  0.2005  0.3911 -1.5740
    8MOL0     H 1064   4.827   0.465   9.681 -0.7078  0.1656  1.4784
    8MOL0     H 1065   5.010   0.582   9.564 -1.6123 -0.5038 -1.2708
    8MOL0     H 1066   6.584   1.479   9.340  1.6333  0.3617 -0.2873
    8MOL0     H 1067   6.788   1.392   9.257 -1.3441  0.4411  1.8148
    8MOL0     H 1068   6.997   0.939   9.016  0.7264 -0.2282 -0.6599
    8MOL0     H 1069   7.229   0.912   8.938 -1.3318 -0.7448  1.3398
    8MOL0     H 1070   7.503   0.956   8.697  0.0913 -0.6896 -1.0802
    8MOL0     H 1071   7.391   0.900   8.828 -2.1333 -1.0379  0.0515
    8MOL0     H 1072   7.224   0.900   8.599 -1.1369 -1.5463  3.5589
    8MOL0     H 1073   7.288   0.762   8.682 -0.1620  0.3589  1.4035
    8MOL0     H 1074   7.322   0.722   8.473  1.3913  2.2879 -3.5760
    8MOL0     H 1075   7.491   0.751   8.555  2.6353  2.2242 -0.8318
    8MOL0     H 1076   7.478   0.973   8.446  1.6956 -0.7206  0.9217
    8MOL0     H 1077   7.329   0.922   8.357  1.3397  1.3705  0.1682
    8MOL0     H 1078   7.568   0.735   8.097 -0.9045  1.0950 -0.4541
    8MOL0     H 1079   7.203   1.275   8.712  4.1612 -1.3209  0.2176
    8MOL0     H 1080   7.003   1.329   8.844 -1.6180 -1.1930 -0.2726
    9MOL0     O 1081   0.781   7.027   7.530 -0.1816 -0.1367  0.3458
    9MOL0     C 1082   0.816   6.990   7.416  0.7591 -1.0403  0.4486
    9MOL0     O 1083   0.734   6.999   7.306 -0.5646  0.0192 -0.0341
    9MOL0     C 1084   0.601   7.003   7.316 -0.4725 -0.0059  0.6559
    9MOL0     C 1085   0.526   7.070   7.207 -0.3377  0.1102 -0.3706
    9MOL0     C 1086   0.387   7.074   7.199  0.6377 -0.2657  0.1838
    9MOL0     C 1087   0.311   7.013   7.304 -0.3495 -0.7561  0.1998
    9MOL0     O 1088   0.180   6.999   7.292  0.0460  0.4776  0.0855
    9MOL0     C 1089   0.105   7.061   7.395  0.1846 -0.5305  0.2067
    9MOL0     C 1090  -0.037   7.080   7.353  0.5033 -1.1799 -0.1993
    9MOL0     C 1091  -0.067   7.218   7.285 -0.0684 -0.4392 -0.3066
    9MOL0     C 1092   0.032   7.243   7.177 -0.2709  0.4456  0.1677
    9MOL0     C 1093  -0.019   7.342   7.069  0.6132 -0.9325 -0.7062
    9MOL0     C 1094  -0.135   7.280   6.987  0.2340  0.3313  0.4215
    9MOL0     C 1095  -0.086   7.205   6.867 -1.1437 -0.4377 -0.0025
    9MOL0     C 1096  -0.186   7.091   6.833  0.7227 -0.1340  0.0600
    9MOL0     N 1097  -0.325   7.132   6.827  0.0340 -0.7590 -0.2762
    9MOL0     C 1098  -0.411   7.121   6.928  0.4419 -1.0645 -1.0606
    9MOL0     C 1099  -0.524   7.168   6.880  0.4910 -0.5307  0.0084
    9MOL0     C 1100  -0.655   7.202   6.949  0.0569  0.0222  1.5323
    9MOL0     C 1101  -0.779   7.170   6.860  0.3578 -0.3027 -0.4876
    9MOL0     C 1102  -0.902   7.198   6.942  0.6332 -0.5846 -0.0721
    9MOL0     C 1103  -1.030   7.197   6.857 -0.0380 -0.0274  0.4243
    9MOL0     O 1104  -1.138   7.148   6.941 -0.1297  0.0312  0.0445
    9MOL0     C 1105  -1.257   7.117   6.872 -0.3031  0.4915 -0.0794
    9MOL0     C 1106  -1.295   7.164   6.741  1.1279 -0.1407 -0.5785
    9MOL0     C 1107  -1.416   7.133   6.676  0.1651 -0.4107 -0.3379
    9MOL0     C 1108  -1.435   7.171   6.532 -0.3125 -0.3507 -0.1494
    9MOL0     C 1109  -1.501   7.041   6.739  0.8292 -0.8487  0.1033
    9MOL0     C 1110  -1.630   7.007   6.685  0.5835 -0.4680 -0.2481
    9MOL0     O 1111  -1.685   6.892   6.714 -1.0825  0.6603  0.0206
    9MOL0     C 1112  -1.816   6.856   6.689  0.0247 -0.1590 -0.8430
    9MOL0     C 1113  -1.849   6.726   6.649 -0.4420 -0.6053  0.5536
    9MOL0     C 1114  -1.976   6.700   6.601  0.1805  0.7676 -0.0658
    9MOL0     C 1115  -2.079   6.797   6.607  0.1273  1.1056 -1.0611
    9MOL0     O 1116  -2.204   6.765   6.584  0.4110  0.3793 -0.3186
    9MOL0     C 1117  -2.228   6.650   6.501  0.7849  0.4946  0.1413
    9MOL0     C 1118  -2.372   6.678   6.444 -0.4104 -0.1806  0.5070
    9MOL0     C 1119  -2.471   6.675   6.556 -0.5058  0.1707  0.2767
    9MOL0     C 1120  -2.608   6.662   6.490  0.2364  0.4380 -0.2484
    9MOL0     C 1121  -2.716   6.664   6.598 -0.6328  0.1284 -0.4958
    9MOL0     C 1122  -2.857   6.620   6.553  0.4670 -0.5946 -0.7896
    9MOL0     C 1123  -2.911   6.709   6.446  0.0263  0.5394  0.4933
    9MOL0     C 1124  -3.063   6.687   6.417  0.7359  0.1591 -0.0886
    9MOL0    Cl 1125  -3.101   6.511   6.392 -0.2312 -0.3743  0.0506
    9MOL0     C 1126  -2.049   6.924   6.664  0.4686 -0.4022 -0.6606
    9MOL0     C 1127  -1.923   6.955   6.706  0.4681  0.2769 -0.2596
    9MOL0     O 1128  -1.694   7.099   6.626 -0.1969  0.2204  0.4258
    9MOL0     C 1129  -1.467   6.992   6.868  0.3941 -0.1778  0.0255
    9MOL0     C 1130  -1.345   7.037   6.931  0.2334  1.5048  0.2650
    9MOL0     N 1131  -0.509   7.195   6.741 -0.7508 -0.9904 -1.0963
    9MOL0     N 1132  -0.386   7.186   6.710 -0.4327  0.0155 -0.5228
    9MOL0     C 1133   0.376   6.958   7.419 -0.3002 -0.0383 -0.2107
    9MOL0     C 1134   0.523   6.957   7.424  0.3586 -0.7897 -0.8201
    9MOL0     C 1135   0.948   6.939   7.386 -0.4945 -0.7820  0.2771
    9MOL0     C 1136   1.009   6.950   7.258 -0.0562 -0.2597 -0.4894
    9MOL0     C 1137   1.141   6.895   7.227 -0.1871  0.3739 -0.6019
    9MOL0     C 1138   1.219   6.854   7.332  0.5216  0.2663 -0.4679
    9MOL0     O 1139   1.331   6.796   7.287 -0.5926  0.3799 -0.0763
    9MOL0     C 1140   1.382   6.684   7.361 -0.7227  0.8468  0.8534
    9MOL0     C 1141   1.431   6.580   7.260 -0.1173  0.5005 -0.1624
    9MOL0     C 1142   1.554   6.632   7.181 -0.5126 -0.7588 -0.4497
    9MOL0     C 1143   1.603   6.523   7.078 -0.2738 -0.5252 -0.1351
    9MOL0     C 1144   1.724   6.575   7.020  0.4604  0.5632  0.0426
    9MOL0     C 1145   1.827   6.609   6.955  0.1112 -0.2515 -0.9573
    9MOL0     C 1146   1.167   6.842   7.459  0.1828  0.3276  0.6111
    9MOL0     C 1147   1.033   6.888   7.488  0.1700  0.0942 -0.1376
    9MOL0     H 1148   0.595   7.102   7.129 -0.5566  0.1665 -0.5418
    9MOL0     H 1149   0.332   7.115   7.115  0.2835 -3.5823 -1.3716
    9MOL0     H 1150   0.094   6.993   7.479 -0.6018  0.8334  1.2535
    9MOL0     H 1151   0.147   7.154   7.435 -1.8553  0.9400 -0.8862
    9MOL0     H 1152  -0.053   7.000   7.280  1.4122 -0.0673 -1.6629
    9MOL0     H 1153  -0.109   7.063   7.434  0.0973 -0.2652 -0.3561
    9MOL0     H 1154  -0.169   7.227   7.247 -0.7090 -0.8849  1.2298
    9MOL0     H 1155  -0.056   7.285   7.370 -4.7546 -1.6372  1.5574
    9MOL0     H 1156   0.122   7.284   7.224  0.3264  0.2781 -0.7910
    9MOL0     H 1157   0.061   7.150   7.127 -2.4487 -0.1034 -0.1880
    9MOL0     H 1158  -0.049   7.428   7.130  1.0589 -2.6304  2.0865
    9MOL0     H 1159   0.056   7.376   6.998  0.3571 -1.7589 -1.3894
    9MOL0     H 1160  -0.184   7.206   7.051 -1.6570  1.3962  0.2573
    9MOL0     H 1161  -0.201   7.366   6.974 -1.4373 -0.8339  0.9146
    9MOL0     H 1162  -0.074   7.282   6.790  1.1377 -0.6146  0.0867
    9MOL0     H 1163   0.016   7.166   6.876 -1.0542 -0.5265 -1.2011
    9MOL0     H 1164  -0.183   7.001   6.896  0.6567 -0.5434 -0.5150
    9MOL0     H 1165  -0.153   7.052   6.737  1.9162 -1.8239  1.0995
    9MOL0     H 1166  -0.385   7.098   7.031 -1.6890 -0.6167 -0.3842
    9MOL0     H 1167  -0.656   7.137   7.037 -1.0658 -2.5413 -0.2677
    9MOL0     H 1168  -0.656   7.308   6.979 -2.0674  0.2577  0.8603
    9MOL0     H 1169  -0.774   7.064   6.835  2.2388 -0.5309  0.6145
    9MOL0     H 1170  -0.779   7.226   6.766 -1.4349 -0.9274 -0.9026
    9MOL0     H 1171  -0.895   7.297   6.988 -1.3481  0.5949 -2.1003
    9MOL0     H 1172  -0.918   7.131   7.027 -2.0153  1.3145  1.0697
    9MOL0     H 1173  -1.011   7.131   6.772  5.1913  0.3123  0.9746
    9MOL0     H 1174  -1.056   7.301   6.834  2.3535  0.9150  1.6527
    9MOL0     H 1175  -1.230   7.231   6.687 -0.1779 -1.0628 -3.4785
    9MOL0     H 1176  -1.348   7.207   6.477 -0.4338  2.5716  1.3644
    9MOL0     H 1177  -1.487   7.090   6.481 -1.0745 -1.3296  2.0787
    9MOL0     H 1178  -1.497   7.262   6.527 -0.2059 -0.0529  2.6255
    9MOL0     H 1179  -1.780   6.642   6.650  1.7116  1.0700 -0.5915
    9MOL0     H 1180  -1.995   6.599   6.568 -1.7879  1.3291 -0.8347
    9MOL0     H 1181  -2.157   6.643   6.418  0.1638 -0.7859 -0.3122
    9MOL0     H 1182  -2.228   6.559   6.562  0.7095 -1.2031 -2.2552
    9MOL0     H 1183  -2.374   6.769   6.384  2.5805  1.2751  2.3992
    9MOL0     H 1184  -2.383   6.599   6.368  1.0179  2.2981 -2.5271
    9MOL0     H 1185  -2.467   6.771   6.607  1.6375  0.7756 -0.9288
    9MOL0     H 1186  -2.450   6.599   6.633 -1.8567  0.4273  0.9358
    9MOL0     H 1187  -2.619   6.751   6.427 -0.3968  0.7317  0.2616
    9MOL0     H 1188  -2.602   6.572   6.427 -0.4250  0.9143 -1.0251
    9MOL0     H 1189  -2.707   6.763   6.643  0.8266 -0.0354 -0.3932
    9MOL0     H 1190  -2.680   6.605   6.682 -0.4278 -2.9373 -2.5583
    9MOL0     H 1191  -2.864   6.514   6.526  1.7184 -0.7424 -0.5958
    9MOL0     H 1192  -2.924   6.630   6.639  1.3939  2.2820 -0.2777
    9MOL0     H 1193  -2.853   6.688   6.356 -1.0425  2.5129 -0.7361
    9MOL0     H 1194  -2.892   6.815   6.466  0.0906  0.7039 -0.4076
    9MOL0     H 1195  -3.078   6.744   6.325  0.5144  0.9657  0.4366
    9MOL0     H 1196  -3.119   6.724   6.503  0.4123 -1.2058  0.3084
    9MOL0     H 1197  -2.129   6.997   6.657  0.1497 -0.5104  1.2213
    9MOL0     H 1198  -1.904   7.053   6.749  0.7220 -1.0946  3.0651
    9MOL0     H 1199  -1.552   6.951   6.923 -0.6779  4.0017  1.8427
    9MOL0     H 1200  -1.342   6.996   7.031  0.9205 -2.4335 -1.1834
    9MOL0     H 1201   0.322   6.908   7.498  0.3631 -0.7590 -0.1989
    9MOL0     H 1202   0.570   6.909   7.510 -1.3143  1.4585  1.4901
    9MOL0     H 1203   0.961   6.996   7.172  0.2139 -2.4281 -1.8780
    9MOL0     H 1204   1.180   6.903   7.127 -1.0013 -1.0746 -1.0839
    9MOL0     H 1205   1.478   6.714   7.403  0.6414 -0.5551 -1.0525
    9MOL0     H 1206   1.308   6.636   7.425 -2.4909  0.1006 -1.5806
    9MOL0     H 1207   1.348   6.557   7.193 -1.5266  0.5535  1.4887
    9MOL0     H 1208   1.467   6.491   7.312  1.6750  2.7815  2.8421
    9MOL0     H 1209   1.635   6.648   7.253 -1.6734  0.9547  0.5604
    9MOL0     H 1210   1.545   6.733   7.141 -0.3189 -0.4235  0.3432
    9MOL0     H 1211   1.529   6.512   6.998  0.6625  0.3723 -1.1512
    9MOL0     H 1212   1.616   6.422   7.118  2.2471 -1.4220 -2.8591
    9MOL0     H 1213   1.915   6.643   6.906  1.3178 -0.5583  0.8901
    9MOL0     H 1214   1.222   6.804   7.544  0.9111  0.5098  0.2245
    9MOL0     H 1215   1.007   6.871   7.592 -2.4686  0.2253 -0.7027
   10MOL0     O 1216   4.846  10.222   0.638  0.5850 -0.5178 -0.1219
   10MOL0     C 1217   4.835  10.271   0.748 -0.2777 -0.0672 -0.0528
   10MOL0     O 1218   4.716  10.284   0.821 -1.0484  0.6479 -0.4224
   10MOL0     C 1219   4.598  10.230   0.764 -0.5148  0.9467  0.2959
   10MOL0     C 1220   4.589  10.147   0.647  1.2161  0.0451  1.0455
   10MOL0     C 1221   4.457  10.118   0.601 -0.7445 -0.2027  0.2481
   10MOL0     C 1222   4.334  10.150   0.666  0.5087 -0.4427 -0.6268
   10MOL0     O 1223   4.210  10.115   0.611 -0.1958 -0.1939 -0.2970
   10MOL0     C 1224   4.155  10.001   0.672 -1.0140  0.4927 -0.4781
   10MOL0     C 1225   4.019   9.997   0.612  0.6856 -0.7124 -0.6854
   10MOL0     C 1226   3.969   9.857   0.570 -0.0386 -0.2434 -0.0907
   10MOL0     C 1227   3.966   9.747   0.676  0.3651 -0.0607  0.3597
   10MOL0     C 1228   3.875   9.633   0.633  0.3335  0.0760  0.5870
   10MOL0     C 1229   3.937   9.545   0.519  0.1594 -0.1331 -0.8866
   10MOL0     C 1230   4.083   9.493   0.550 -0.4108 -0.3020 -0.4923
   10MOL0     C 1231   4.070   9.415   0.686 -0.7235  0.8796  0.5465
   10MOL0     N 1232   4.199   9.343   0.708  1.4036 -0.5861  0.2188
   10MOL0     C 1233   4.317   9.405   0.733 -0.9382  0.1931  0.0484
   10MOL0     C 1234   4.407   9.301   0.743  0.5640 -0.1677  0.2977
   10MOL0     C 1235   4.553   9.309   0.743  0.6489 -0.5042  0.4614
   10MOL0     C 1236   4.597   9.348   0.876  0.4621 -0.1625 -0.4745
   10MOL0     C 1237   4.752   9.323   0.895  0.8745 -0.7741  0.1356
   10MOL0     C 1238   4.847   9.385   0.793 -0.1635  0.4818 -0.0674
   10MOL0     O 1239   4.987   9.337   0.819 -0.6424 -0.4569 -0.3300
   10MOL0     C 1240   5.070   9.406   0.905  0.4331  0.2971 -0.4937
   10MOL0     C 1241   5.040   9.521   0.974 -0.0882 -1.1185  0.7912
   10MOL0     C 1242   5.126   9.584   1.060  0.3132 -0.6744  0.2525
   10MOL0     C 1243   5.086   9.717   1.123 -1.3089 -0.6160 -0.7420
   10MOL0     C 1244   5.258   9.527   1.080  1.3611 -0.3156 -0.3397
   10MOL0     C 1245   5.361   9.586   1.166 -0.6522  0.2856  0.5084
   10MOL0     O 1246   5.475   9.515   1.163  0.1760 -0.2121 -0.6372
   10MOL0     C 1247   5.584   9.529   1.248  0.3121  0.0686  0.4674
   10MOL0     C 1248   5.710   9.496   1.198 -0.4420 -0.6950  0.6776
   10MOL0     C 1249   5.832   9.518   1.270  0.3055 -0.4520  0.5956
   10MOL0     C 1250   5.828   9.588   1.390  0.7847  0.5174 -0.5629
   10MOL0     O 1251   5.942   9.615   1.451 -0.3077 -0.2280 -0.0229
   10MOL0     C 1252   5.961   9.736   1.524 -0.2149  0.4688  0.3471
   10MOL0     C 1253   6.110   9.760   1.558  0.3861  0.2226 -0.4570
   10MOL0     C 1254   6.189   9.787   1.425 -1.0408  0.0726 -0.4417
   10MOL0     C 1255   6.340   9.817   1.458  0.1263  0.0099 -0.3265
   10MOL0     C 1256   6.412   9.872   1.333  0.0191  0.8652  0.1231
   10MOL0     C 1257   6.431   9.781   1.214  0.4412 -0.1561  0.9375
   10MOL0     C 1258   6.498   9.652   1.250  0.1243 -0.7460  0.2810
   10MOL0     C 1259   6.540   9.566   1.131 -0.0241  1.4013  0.3605
   10MOL0    Cl 1260   6.619   9.661   0.995 -0.6885  0.0943  0.1642
   10MOL0     C 1261   5.698   9.617   1.446  0.2510 -1.0953 -0.5143
   10MOL0     C 1262   5.578   9.592   1.375 -0.9097  0.7752 -0.0359
   10MOL0     O 1263   5.344   9.687   1.235 -0.5929 -0.4544 -0.7707
   10MOL0     C 1264   5.285   9.409   1.010 -0.0263  0.2157  0.3257
   10MOL0     C 1265   5.197   9.349   0.922 -0.2717 -0.1154  0.0624
   10MOL0     N 1266   4.343   9.183   0.725  0.5220  0.2745  0.2291
   10MOL0     N 1267   4.218   9.209   0.698  0.2024 -0.3065  0.0642
   10MOL0     C 1268   4.350  10.220   0.786 -0.1141  0.3227  0.1597
   10MOL0     C 1269   4.477  10.267   0.826 -0.7077  0.9315  0.2010
   10MOL0     C 1270   4.958  10.319   0.814 -0.8002 -0.3795 -0.4489
   10MOL0     C 1271   4.949  10.400   0.933 -0.4615  0.5291  0.0163
   10MOL0     C 1272   5.062  10.462   0.975 -0.2230 -0.6822  0.0834
   10MOL0     C 1273   5.188  10.426   0.933  0.6371 -0.4181 -0.0307
   10MOL0     O 1274   5.297  10.498   0.980 -0.0531  0.0851  0.1604
   10MOL0     C 1275   5.321  10.458   1.112  0.0576 -0.4450 -0.5121
   10MOL0     C 1276   5.462  10.470   1.148 -0.7487 -0.0788 -0.4440
   10MOL0     C 1277   5.557  10.358   1.105 -0.1209  0.7227 -0.5659
   10MOL0     C 1278   5.704  10.403   1.121  0.4352  0.4372 -0.3415
   10MOL0     C 1279   5.734  10.378   1.259  0.5723 -0.0178  0.0133
   10MOL0     C 1280   5.752  10.360   1.378 -0.9448  0.1800  0.2920
   10MOL0     C 1281   5.201  10.352   0.817  0.1509 -0.4295 -0.6648
   10MOL0     C 1282   5.083  10.295   0.758 -0.1081 -0.0353 -0.5802
   10MOL0     H 1283   4.669  10.107   0.585  0.2309  1.3339 -1.1927
   10MOL0     H 1284   4.450  10.053   0.514 -0.2585  1.2646 -0.9229
   10MOL0     H 1285   4.204   9.906   0.650 -3.0009 -0.7414  0.2348
   10MOL0     H 1286   4.158  10.013   0.781  0.8529 -0.5305 -0.3743
   10MOL0     H 1287   3.952  10.053   0.678  1.4114 -2.2233  1.4609
   10MOL0     H 1288   4.029  10.052   0.518  1.8438 -3.2284 -2.1501
   10MOL0     H 1289   3.877   9.866   0.511  0.9236  0.2117 -1.5716
   10MOL0     H 1290   4.041   9.828   0.493 -0.4295 -0.5656 -0.3401
   10MOL0     H 1291   4.065   9.713   0.708 -0.7805  0.0717  4.6224
   10MOL0     H 1292   3.923   9.789   0.768  1.9657 -2.8149  2.5382
   10MOL0     H 1293   3.859   9.566   0.718  2.5033 -1.9767 -0.4796
   10MOL0     H 1294   3.778   9.667   0.596  0.7125 -1.0430 -1.6247
   10MOL0     H 1295   3.865   9.464   0.505  0.8716 -0.3801 -3.8596
   10MOL0     H 1296   3.946   9.609   0.430  1.7256 -0.8959 -1.3207
   10MOL0     H 1297   4.108   9.424   0.469 -1.2860 -0.6946 -0.4362
   10MOL0     H 1298   4.160   9.570   0.551  0.8947 -1.5589 -0.4565
   10MOL0     H 1299   3.997   9.334   0.678  0.1519  0.1067  0.2049
   10MOL0     H 1300   4.057   9.480   0.773 -1.2090  0.8327  0.5127
   10MOL0     H 1301   4.349   9.507   0.750  1.4025 -0.8213  2.5282
   10MOL0     H 1302   4.594   9.210   0.723 -0.7252 -1.1913  0.9041
   10MOL0     H 1303   4.600   9.381   0.675  1.3114 -1.1483  0.2266
   10MOL0     H 1304   4.550   9.299   0.962  1.5427 -2.8783 -1.3537
   10MOL0     H 1305   4.577   9.455   0.891  1.8752  0.0257  0.2193
   10MOL0     H 1306   4.755   9.214   0.898 -0.4353 -0.8395 -0.0940
   10MOL0     H 1307   4.790   9.361   0.990  2.8002  3.7084 -2.1041
   10MOL0     H 1308   4.852   9.494   0.806 -0.9158  0.7447 -1.7464
   10MOL0     H 1309   4.821   9.361   0.690  0.2618 -1.1246  0.1851
   10MOL0     H 1310   4.947   9.577   0.975  0.7548  0.3519 -0.1670
   10MOL0     H 1311   5.142   9.802   1.082  0.4536 -1.1344  0.4553
   10MOL0     H 1312   4.978   9.730   1.109 -1.2601  0.7624  0.0251
   10MOL0     H 1313   5.114   9.704   1.228  1.9357  0.0704 -1.4181
   10MOL0     H 1314   5.713   9.451   1.099 -1.3549  0.8742 -0.0905
   10MOL0     H 1315   5.931   9.503   1.227 -1.3763 -0.3618 -3.8818
   10MOL0     H 1316   5.930   9.824   1.465  0.0446 -0.7164 -1.6541
   10MOL0     H 1317   5.908   9.726   1.619  1.2641  0.9456  1.2469
   10MOL0     H 1318   6.119   9.844   1.628 -1.1864 -0.9701  1.2929
   10MOL0     H 1319   6.133   9.668   1.613 -2.6411 -1.8865 -2.4039
   10MOL0     H 1320   6.158   9.881   1.379 -0.3633  0.9211  0.7651
   10MOL0     H 1321   6.173   9.702   1.358 -2.3347  2.2109 -3.0181
   10MOL0     H 1322   6.344   9.896   1.533 -2.6627 -0.0118 -0.0786
   10MOL0     H 1323   6.397   9.729   1.492  0.5091  0.9020  1.4390
   10MOL0     H 1324   6.514   9.890   1.367  0.0209 -1.1319  1.3661
   10MOL0     H 1325   6.374   9.970   1.304  1.5613  1.8971  1.4439
   10MOL0     H 1326   6.328   9.761   1.182  0.7461 -0.7088  0.2772
   10MOL0     H 1327   6.477   9.837   1.132 -2.5251  4.2256  1.9025
   10MOL0     H 1328   6.438   9.598   1.324  2.1230 -1.4933  1.4284
   10MOL0     H 1329   6.585   9.678   1.310  0.1326 -0.1429  0.0088
   10MOL0     H 1330   6.449   9.517   1.097  0.8850  0.2748 -0.5442
   10MOL0     H 1331   6.607   9.492   1.177 -0.1977  1.1469  0.1985
   10MOL0     H 1332   5.698   9.678   1.536  1.5769 -1.5421 -0.2025
   10MOL0     H 1333   5.480   9.622   1.409 -2.1923 -1.2293 -1.7397
   10MOL0     H 1334   5.379   9.355   1.023  0.0417  0.1192 -0.5106
   10MOL0     H 1335   5.223   9.261   0.864 -0.5624  0.8087 -1.5621
   10MOL0     H 1336   4.253  10.232   0.834 -0.2454 -1.3160  0.3494
   10MOL0     H 1337   4.481  10.327   0.916 -0.4097 -1.3365  1.8010
   10MOL0     H 1338   4.855  10.422   0.981 -0.3443  0.1962  0.4099
   10MOL0     H 1339   5.060  10.545   1.045  1.1192  0.0439 -0.6936
   10MOL0     H 1340   5.263  10.524   1.177  0.8374  2.5580 -2.6283
   10MOL0     H 1341   5.283  10.356   1.122 -1.1738  0.1172  0.8480
   10MOL0     H 1342   5.461  10.468   1.257 -3.6008  2.3309 -0.3262
   10MOL0     H 1343   5.503  10.566   1.116 -0.2652 -0.2062 -0.2205
   10MOL0     H 1344   5.536  10.341   0.999  2.0612 -2.4174 -0.6418
   10MOL0     H 1345   5.529  10.268   1.160 -0.6212  1.1492 -0.1155
   10MOL0     H 1346   5.722  10.505   1.086  1.0685  0.2743 -0.5212
   10MOL0     H 1347   5.772  10.344   1.057 -1.3118  1.0069 -2.8905
   10MOL0     H 1348   5.769  10.326   1.479 -2.5363  2.4774  1.4275
   10MOL0     H 1349   5.293  10.345   0.759  1.6932  1.7744  1.3260
   10MOL0     H 1350   5.087  10.232   0.669 -1.7730  0.2276 -0.8608
   11MOL0     O 1351   1.147   3.458   2.050  0.2005 -0.0061 -0.6343
   11MOL0     C 1352   1.183   3.572   2.087 -0.2675  0.3168  0.2644
   11MOL0     O 1353   1.088   3.667   2.113  0.2140 -0.5580  0.0081
   11MOL0     C 1354   0.951   3.636   2.111 -0.4947  0.4600  0.0848
   11MOL0     C 1355   0.892   3.522   2.171  0.2633 -0.3280 -0.2226
   11MOL0     C 1356   0.756   3.492   2.159  0.2124  0.1862  0.1174
   11MOL0     C 1357   0.674   3.596   2.118 -0.3613 -0.8883 -0.4738
   11MOL0     O 1358   0.540   3.594   2.093  0.8902  0.1005 -0.2264
   11MOL0     C 1359   0.463   3.482   2.141 -0.5564 -0.4887  0.4364
   11MOL0     C 1360   0.321   3.489   2.081  0.6204  0.1033  0.3135
   11MOL0     C 1361   0.247   3.380   2.162  0.9206 -0.0927 -0.4748
   11MOL0     C 1362   0.120   3.353   2.083  0.4166 -0.8005  0.8505
   11MOL0     C 1363  -0.001   3.451   2.102  1.1325 -0.0693  0.8239
   11MOL0     C 1364  -0.110   3.422   1.999 -0.4006  1.1740 -0.1708
   11MOL0     C 1365  -0.203   3.540   2.013  0.5287 -1.0491  0.5587
   11MOL0     C 1366  -0.333   3.539   1.932 -0.4868  0.0643  0.3731
   11MOL0     N 1367  -0.404   3.410   1.942  0.6292 -0.1352  0.0676
   11MOL0     C 1368  -0.525   3.395   2.008  0.0943  0.5566  0.3514
   11MOL0     C 1369  -0.549   3.262   1.981 -0.2397  0.3267  0.0061
   11MOL0     C 1370  -0.672   3.183   2.007  0.6303 -0.1241  0.2804
   11MOL0     C 1371  -0.792   3.255   1.940  0.3446 -0.1436 -0.0611
   11MOL0     C 1372  -0.930   3.220   2.005  0.9583 -0.0867  0.3370
   11MOL0     C 1373  -0.975   3.077   1.960 -0.6578  0.5986  0.2588
   11MOL0     O 1374  -1.007   3.077   1.816 -0.8064  0.2089 -0.1621
   11MOL0     C 1375  -1.124   3.130   1.782 -0.4215  0.2876  0.8090
   11MOL0     C 1376  -1.141   3.123   1.641 -0.3589  0.1385 -0.4774
   11MOL0     C 1377  -1.260   3.169   1.575  0.2788 -0.6663  0.9114
   11MOL0     C 1378  -1.256   3.154   1.430 -0.5058 -0.0344  0.0959
   11MOL0     C 1379  -1.374   3.213   1.648  0.0399 -0.2091 -0.3233
   11MOL0     C 1380  -1.508   3.247   1.589  0.0895  0.5961 -0.4516
   11MOL0     O 1381  -1.611   3.261   1.681 -0.6264 -0.0205 -0.4867
   11MOL0     C 1382  -1.739   3.271   1.647  0.3351  0.3268 -0.1910
   11MOL0     C 1383  -1.833   3.187   1.700  0.5749 -0.7586  0.3284
   11MOL0     C 1384  -1.972   3.211   1.665 -0.5371  0.0445 -0.5905
   11MOL0     C 1385  -1.997   3.311   1.576 -0.0570  0.7028  0.6008
   11MOL0     O 1386  -2.124   3.319   1.527  0.1371  0.0906  0.0692
   11MOL0     C 1387  -2.137   3.316   1.387  0.0846  0.7352 -0.4232
   11MOL0     C 1388  -2.281   3.316   1.332 -0.1955  0.0270  0.1789
   11MOL0     C 1389  -2.365   3.433   1.393 -0.1203 -0.5299 -0.8949
   11MOL0     C 1390  -2.304   3.569   1.363  0.5381 -0.4551 -0.0389
   11MOL0     C 1391  -2.397   3.696   1.394 -0.7028 -0.4786 -0.9136
   11MOL0     C 1392  -2.535   3.716   1.317  0.1534 -0.2197 -1.4921
   11MOL0     C 1393  -2.597   3.854   1.341 -0.0269 -0.1355 -0.3267
   11MOL0     C 1394  -2.727   3.864   1.259  0.3691  0.4398  0.4488
   11MOL0    Cl 1395  -2.703   3.849   1.081  0.0171  0.4306  0.3383
   11MOL0     C 1396  -1.896   3.397   1.518  0.3765  0.2984  0.3354
   11MOL0     C 1397  -1.765   3.379   1.563 -0.2788  1.6288  0.5769
   11MOL0     O 1398  -1.518   3.270   1.472  0.3862  0.9704 -0.3566
   11MOL0     C 1399  -1.353   3.223   1.784 -0.1425  0.1909  0.1418
   11MOL0     C 1400  -1.227   3.192   1.851  0.9525  0.6023 -1.2482
   11MOL0     N 1401  -0.456   3.215   1.894 -0.8146 -0.7145 -0.6264
   11MOL0     N 1402  -0.374   3.306   1.865 -0.2866  0.1500  0.7190
   11MOL0     C 1403   0.729   3.714   2.070 -0.0198  0.2378 -0.5973
   11MOL0     C 1404   0.868   3.728   2.059 -0.9180 -0.1012 -0.1596
   11MOL0     C 1405   1.324   3.607   2.106 -1.2747  0.5381  0.0922
   11MOL0     C 1406   1.417   3.501   2.118  0.2219  0.0326 -0.0137
   11MOL0     C 1407   1.545   3.525   2.171 -0.1181  0.5040 -0.3015
   11MOL0     C 1408   1.590   3.657   2.199  0.5412 -0.6581 -0.4275
   11MOL0     O 1409   1.709   3.691   2.258  0.2248 -0.0843 -0.3276
   11MOL0     C 1410   1.823   3.609   2.243 -0.0206  1.0927 -0.3225
   11MOL0     C 1411   1.933   3.694   2.179  0.2503  0.4646  0.4243
   11MOL0     C 1412   1.910   3.716   2.024  0.7191 -0.1849  0.1013
   11MOL0     C 1413   2.040   3.734   1.948 -0.0390  0.0418  0.2947
   11MOL0     C 1414   2.015   3.755   1.804  0.0242 -0.2320 -0.4287
   11MOL0     C 1415   1.971   3.759   1.695  0.9147  0.2890  0.8072
   11MOL0     C 1416   1.500   3.760   2.168  0.0486  0.0772  0.6933
   11MOL0     C 1417   1.367   3.740   2.126 -0.4053 -0.8111  0.0864
   11MOL0     H 1418   0.954   3.453   2.228 -0.4994 -2.0069 -1.3279
   11MOL0     H 1419   0.709   3.413   2.216  2.1393 -1.5925 -0.6510
   11MOL0     H 1420   0.513   3.396   2.096  0.8636 -0.1764  1.3334
   11MOL0     H 1421   0.461   3.477   2.250  1.8967  0.4462  0.5894
   11MOL0     H 1422   0.280   3.590   2.090  2.1391  0.5143  4.9099
   11MOL0     H 1423   0.339   3.464   1.976  0.5377 -2.7535  0.9028
   11MOL0     H 1424   0.296   3.284   2.178  1.6229  0.3789  0.2529
   11MOL0     H 1425   0.226   3.416   2.264 -1.2044 -0.7986 -0.6039
   11MOL0     H 1426   0.142   3.341   1.977 -0.1306 -0.6706  0.7176
   11MOL0     H 1427   0.080   3.259   2.123 -1.7661  0.7185  2.5323
   11MOL0     H 1428  -0.048   3.447   2.200 -0.8667  0.5831 -0.0568
   11MOL0     H 1429   0.042   3.550   2.084 -0.6149  0.8141  1.3040
   11MOL0     H 1430  -0.069   3.397   1.900 -0.5799 -0.3033  0.1071
   11MOL0     H 1431  -0.147   3.329   2.042  0.3604  1.3720  0.9397
   11MOL0     H 1432  -0.240   3.562   2.114  0.4800  0.1008  0.3047
   11MOL0     H 1433  -0.155   3.633   1.980  0.6177 -1.5521 -0.7790
   11MOL0     H 1434  -0.302   3.568   1.831 -0.9252  2.6921  0.9100
   11MOL0     H 1435  -0.405   3.619   1.949 -0.0545  0.4863  0.2617
   11MOL0     H 1436  -0.587   3.449   2.078 -2.7871 -2.0361 -0.0262
   11MOL0     H 1437  -0.664   3.084   1.962  0.2112  1.2258 -3.1005
   11MOL0     H 1438  -0.691   3.164   2.113  2.0144 -0.2061  0.5235
   11MOL0     H 1439  -0.783   3.252   1.831 -0.9008  5.7607 -0.6265
   11MOL0     H 1440  -0.787   3.363   1.956  0.6009 -0.1112 -0.3514
   11MOL0     H 1441  -0.999   3.297   1.969  0.7462  1.1198  3.0874
   11MOL0     H 1442  -0.916   3.227   2.113 -2.1942 -2.5405  1.0558
   11MOL0     H 1443  -1.058   3.042   2.022  0.0736 -2.1804 -0.2304
   11MOL0     H 1444  -0.899   3.002   1.982 -0.1989  0.6989 -0.8873
   11MOL0     H 1445  -1.052   3.102   1.582 -1.6604  1.9684 -3.3126
   11MOL0     H 1446  -1.340   3.091   1.399 -0.0392  0.6275 -2.7871
   11MOL0     H 1447  -1.272   3.250   1.380  0.7754 -0.4259 -1.1312
   11MOL0     H 1448  -1.167   3.100   1.399 -0.6918 -0.0107 -0.4841
   11MOL0     H 1449  -1.828   3.105   1.771 -1.4268 -0.0476  1.3797
   11MOL0     H 1450  -2.049   3.154   1.716  1.1716  1.7725  4.5143
   11MOL0     H 1451  -2.091   3.406   1.346  1.4565  0.3535  0.2256
   11MOL0     H 1452  -2.081   3.230   1.349 -0.3802 -0.2171  0.9764
   11MOL0     H 1453  -2.265   3.336   1.226  1.0802 -0.8987  0.1709
   11MOL0     H 1454  -2.321   3.216   1.350 -0.1951 -0.4212 -2.0306
   11MOL0     H 1455  -2.371   3.416   1.501  0.8218  2.0094 -0.3697
   11MOL0     H 1456  -2.467   3.419   1.358 -0.9868 -0.8936  1.5723
   11MOL0     H 1457  -2.205   3.572   1.411  1.7492 -1.0815 -2.3670
   11MOL0     H 1458  -2.297   3.575   1.254 -2.2867 -2.2357 -0.3891
   11MOL0     H 1459  -2.336   3.781   1.362  1.2679 -1.6339 -0.3764
   11MOL0     H 1460  -2.414   3.704   1.502  0.3907 -0.6668 -0.7221
   11MOL0     H 1461  -2.512   3.713   1.210  0.3897  3.8634 -1.7105
   11MOL0     H 1462  -2.610   3.638   1.338  0.5064 -0.3573 -0.6800
   11MOL0     H 1463  -2.531   3.938   1.313 -1.1321  1.0343  0.4533
   11MOL0     H 1464  -2.632   3.864   1.445  2.1404 -0.0744  0.4513
   11MOL0     H 1465  -2.771   3.961   1.287  1.8602  0.6225  2.3738
   11MOL0     H 1466  -2.799   3.793   1.300 -0.6676  0.2955 -1.5395
   11MOL0     H 1467  -1.926   3.471   1.445 -1.6139 -1.2848 -0.5598
   11MOL0     H 1468  -1.686   3.441   1.522  2.0528 -0.4124  1.7427
   11MOL0     H 1469  -1.428   3.268   1.847  0.1700  1.5037 -0.3959
   11MOL0     H 1470  -1.219   3.212   1.957  1.1937 -0.5217 -1.0419
   11MOL0     H 1471   0.664   3.790   2.027 -2.2435 -1.9986 -1.3966
   11MOL0     H 1472   0.904   3.807   1.994 -1.4126 -0.0686 -0.4051
   11MOL0     H 1473   1.379   3.400   2.105  0.8169 -0.1671 -0.2348
   11MOL0     H 1474   1.607   3.446   2.212 -0.8259 -0.7539 -1.5953
   11MOL0     H 1475   1.844   3.563   2.340 -0.3385 -0.9257 -1.1675
   11MOL0     H 1476   1.805   3.527   2.173 -0.5328 -0.1723  1.2423
   11MOL0     H 1477   2.029   3.643   2.185 -0.3583 -1.4075 -3.3717
   11MOL0     H 1478   1.935   3.795   2.223 -0.5039  1.3245 -1.3890
   11MOL0     H 1479   1.844   3.800   2.004  0.4669 -0.2004  0.8453
   11MOL0     H 1480   1.852   3.637   1.976 -0.6836  0.7018  0.2956
   11MOL0     H 1481   2.103   3.647   1.966 -0.3501 -0.4561 -0.9344
   11MOL0     H 1482   2.091   3.825   1.980  0.1171  1.0559 -2.4905
   11MOL0     H 1483   1.948   3.761   1.591 -1.5081  4.1164  1.2229
   11MOL0     H 1484   1.527   3.863   2.183  1.2288 -0.1237  0.0203
   11MOL0     H 1485   1.299   3.824   2.119 -0.0433 -0.4965  0.2864
   12MOL0     O 1486   3.756  10.811  11.207  0.3527 -0.4911 -0.0419
   12MOL0     C 1487   3.855  10.742  11.182 -0.3929  0.0321 -0.5096
   12MOL0     O 1488   3.855  10.607  11.169  1.2759  0.3112 -0.2449
   12MOL0     C 1489   3.749  10.526  11.183  0.0670  0.0797  0.1013
   12MOL0     C 1490   3.664  10.542  11.295  0.1490 -0.3521  0.4520
   12MOL0     C 1491   3.554  10.462  11.309  0.3746  0.3824 -0.5631
   12MOL0     C 1492   3.530  10.354  11.220  0.3257 -0.6490 -1.0670
   12MOL0     O 1493   3.436  10.258  11.252  0.2841  0.0555  0.8347
   12MOL0     C 1494   3.387  10.159  11.160 -0.1126 -0.0377  0.4806
   12MOL0     C 1495   3.272  10.080  11.230  0.2620 -0.5858  0.1703
   12MOL0     C 1496   3.146  10.155  11.205 -0.0861  0.4366 -0.4272
   12MOL0     C 1497   3.029  10.065  11.222  0.2074 -0.0232  0.4910
   12MOL0     C 1498   2.899  10.135  11.197 -0.1126 -0.6713 -0.2134
   12MOL0     C 1499   2.769  10.057  11.242  0.2231  0.5438 -0.3357
   12MOL0     C 1500   2.653  10.104  11.144  0.6961  0.3144  0.4313
   12MOL0     C 1501   2.596   9.971  11.090  0.0722 -0.4162  0.2141
   12MOL0     N 1502   2.529   9.895  11.196 -0.2639 -0.6197 -0.6848
   12MOL0     C 1503   2.422   9.950  11.255 -0.2208 -0.4431 -0.2762
   12MOL0     C 1504   2.389   9.864  11.352 -0.6203  0.1663 -0.4437
   12MOL0     C 1505   2.280   9.872  11.456  0.0553  0.5572  0.2094
   12MOL0     C 1506   2.144   9.861  11.390  0.4112 -0.1436  0.2951
   12MOL0     C 1507   2.036   9.907  11.492  0.7658  0.5390  0.4474
   12MOL0     C 1508   1.897   9.945  11.423  0.4968  0.3923 -0.0655
   12MOL0     O 1509   1.826   9.822  11.413 -0.5396  0.2268  0.7264
   12MOL0     C 1510   1.710   9.820  11.350  0.7193 -0.7539  0.2247
   12MOL0     C 1511   1.682   9.730  11.248 -0.1718  0.0521  0.4036
   12MOL0     C 1512   1.564   9.730  11.173 -0.1816  0.2590 -0.0759
   12MOL0     C 1513   1.547   9.624  11.068 -0.3312 -0.4175 -0.1150
   12MOL0     C 1514   1.470   9.830  11.200 -0.5298  0.4617  0.2693
   12MOL0     C 1515   1.353   9.849  11.108  0.2217 -0.0021 -0.5176
   12MOL0     O 1516   1.302   9.752  11.029 -0.4463 -0.1417  0.4121
   12MOL0     C 1517   1.176   9.750  10.976 -0.2966 -0.3211 -0.4880
   12MOL0     C 1518   1.066   9.831  11.013 -0.2537 -0.6160  0.1884
   12MOL0     C 1519   0.944   9.826  10.939  0.2822  0.1123 -0.2499
   12MOL0     C 1520   0.929   9.729  10.837  0.0688 -0.2063  1.3096
   12MOL0     O 1521   0.802   9.714  10.769  0.7416  0.5228  0.1643
   12MOL0     C 1522   0.712   9.826  10.781  0.5765  0.8502  0.3902
   12MOL0     C 1523   0.570   9.774  10.737  0.3535 -0.5059  0.3139
   12MOL0     C 1524   0.494   9.882  10.656  0.1214  0.3677  0.0254
   12MOL0     C 1525   0.343   9.842  10.632 -0.5636  0.5360  0.8488
   12MOL0     C 1526   0.321   9.730  10.523  0.2329 -0.2822 -0.3820
   12MOL0     C 1527   0.253   9.798  10.404 -0.6046  0.0971  0.4934
   12MOL0     C 1528   0.275   9.705  10.275  0.1523 -0.3550  1.3108
   12MOL0     C 1529   0.382   9.754  10.172 -0.1456 -1.1113  0.2639
   12MOL0    Cl 1530   0.357   9.921  10.131  0.2730 -0.2344  0.5962
   12MOL0     C 1531   1.036   9.650  10.794  0.1115  1.0936 -0.3706
   12MOL0     C 1532   1.152   9.646  10.876  0.3966 -0.8849  1.2583
   12MOL0     O 1533   1.295   9.955  11.132 -0.4333  0.7097  0.1846
   12MOL0     C 1534   1.498   9.916  11.313 -0.1412  0.2820 -0.2787
   12MOL0     C 1535   1.613   9.910  11.387  0.5265  0.3678  0.4545
   12MOL0     N 1536   2.482   9.762  11.349  0.3254  0.1440  0.5432
   12MOL0     N 1537   2.562   9.780  11.253  0.4374  0.2354  0.2699
   12MOL0     C 1538   3.617  10.341  11.109 -0.6765 -0.1840 -0.9443
   12MOL0     C 1539   3.728  10.427  11.092 -0.0772  0.2337  0.2975
   12MOL0     C 1540   3.984  10.811  11.152 -1.0009 -0.6286 -0.5394
   12MOL0     C 1541   4.093  10.736  11.100 -1.0131  0.0108  0.6490
   12MOL0     C 1542   4.213  10.799  11.064  0.5394  0.4881 -0.0607
   12MOL0     C 1543   4.228  10.938  11.076  0.4859 -0.5244 -0.2713
   12MOL0     O 1544   4.334  11.007  11.030  0.3198 -0.2663  0.0270
   12MOL0     C 1545   4.461  10.946  11.085 -0.0161  0.0385  0.0614
   12MOL0     C 1546   4.577  11.044  11.081 -0.0975  0.4944  0.3694
   12MOL0     C 1547   4.550  11.167  11.172  0.6141 -0.0091 -0.2274
   12MOL0     C 1548   4.670  11.248  11.207  0.2428  0.2360  0.9602
   12MOL0     C 1549   4.639  11.373  11.278  0.3566 -0.0184  0.0445
   12MOL0     C 1550   4.610  11.464  11.353 -0.2447  0.1605 -0.0452
   12MOL0     C 1551   4.120  11.012  11.118 -0.8560 -1.1159 -0.2132
   12MOL0     C 1552   4.005  10.951  11.163 -0.0318 -0.7471 -0.6945
   12MOL0     H 1553   3.683  10.611  11.378 -0.6017  0.3216  0.0743
   12MOL0     H 1554   3.498  10.487  11.399 -0.8641 -0.8944 -0.9502
   12MOL0     H 1555   3.353  10.195  11.063 -1.9237 -0.0206  1.0841
   12MOL0     H 1556   3.475  10.095  11.149 -0.0806  0.0194  0.4106
   12MOL0     H 1557   3.276   9.977  11.192  0.4313  0.2941 -2.3968
   12MOL0     H 1558   3.287  10.077  11.339 -0.8375  1.9486  0.4536
   12MOL0     H 1559   3.147  10.238  11.278  0.0225  0.3385 -0.3163
   12MOL0     H 1560   3.138  10.195  11.104 -1.2753  2.2329  0.3028
   12MOL0     H 1561   3.035   9.978  11.157 -0.4205 -0.2061  0.6717
   12MOL0     H 1562   3.035  10.033  11.327 -0.1814 -0.4184  0.3930
   12MOL0     H 1563   2.902  10.228  11.255 -0.4635 -1.5332  1.2374
   12MOL0     H 1564   2.905  10.164  11.092  1.5143  3.8183  0.8666
   12MOL0     H 1565   2.795   9.951  11.238 -0.5505  0.3836 -2.3079
   12MOL0     H 1566   2.747  10.080  11.346  0.4294 -2.7921  0.5612
   12MOL0     H 1567   2.576  10.169  11.188  0.3182  1.1387 -1.3307
   12MOL0     H 1568   2.694  10.157  11.057  1.5116 -3.2706 -1.5923
   12MOL0     H 1569   2.680   9.912  11.052  0.6064 -0.3294  1.2147
   12MOL0     H 1570   2.528   9.987  11.006  0.3816 -0.0336  0.0387
   12MOL0     H 1571   2.376  10.047  11.239  0.6251  0.1796  0.9474
   12MOL0     H 1572   2.296   9.781  11.515  1.2128  1.3829  1.2469
   12MOL0     H 1573   2.300   9.953  11.527 -2.4506  0.3469  1.2472
   12MOL0     H 1574   2.124   9.761  11.351  2.5171 -0.0988 -1.0394
   12MOL0     H 1575   2.143   9.925  11.302  0.7392 -1.3281 -0.5948
   12MOL0     H 1576   2.074  10.000  11.535 -0.6118  1.2581  0.1467
   12MOL0     H 1577   2.026   9.827  11.566  0.0232 -1.6952 -1.9166
   12MOL0     H 1578   1.911  10.001  11.330  1.7108  0.9586  0.4358
   12MOL0     H 1579   1.838  10.005  11.494 -0.2457  0.4719 -0.7373
   12MOL0     H 1580   1.764   9.668  11.216 -0.0076  0.7278 -0.5433
   12MOL0     H 1581   1.642   9.570  11.058  0.6873  1.5515 -1.9468
   12MOL0     H 1582   1.462   9.559  11.091  0.0216 -0.6323  0.6343
   12MOL0     H 1583   1.534   9.672  10.971  0.1949 -1.6000 -0.8027
   12MOL0     H 1584   1.068   9.897  11.099 -1.6662 -2.8420  2.0338
   12MOL0     H 1585   0.865   9.894  10.972  0.7705  0.9893 -0.8567
   12MOL0     H 1586   0.697   9.873  10.878 -3.8509 -1.8084  1.2741
   12MOL0     H 1587   0.763   9.892  10.710  3.4798 -2.1721 -0.5767
   12MOL0     H 1588   0.592   9.679  10.688  1.7172  0.0231 -0.1288
   12MOL0     H 1589   0.515   9.741  10.826 -1.0357 -0.6571 -0.5655
   12MOL0     H 1590   0.550   9.902  10.564  4.2652  3.4874  2.8195
   12MOL0     H 1591   0.491   9.978  10.709 -0.5171  1.8071 -2.4395
   12MOL0     H 1592   0.304   9.812  10.730  0.1498  1.1621  1.3433
   12MOL0     H 1593   0.291   9.927  10.588  0.8568  1.0261  0.0365
   12MOL0     H 1594   0.264   9.645  10.562 -0.7380  1.0680  1.3258
   12MOL0     H 1595   0.420   9.688  10.505  0.9151  0.6803  0.9356
   12MOL0     H 1596   0.151   9.819  10.435 -0.7796  1.1852 -0.7095
   12MOL0     H 1597   0.294   9.898  10.385 -1.2133  0.4460  1.0134
   12MOL0     H 1598   0.179   9.699  10.224  0.8075  0.9109 -0.1567
   12MOL0     H 1599   0.316   9.612  10.316 -4.2588 -1.4531  3.8256
   12MOL0     H 1600   0.409   9.692  10.086 -1.3584 -0.1458 -0.8433
   12MOL0     H 1601   0.475   9.765  10.229 -0.8926  0.3606  1.2472
   12MOL0     H 1602   1.024   9.593  10.703  0.7344  0.2572  0.0589
   12MOL0     H 1603   1.234   9.580  10.848  0.7159  0.3837 -0.9960
   12MOL0     H 1604   1.426   9.986  11.355 -0.2851 -0.4735  0.7534
   12MOL0     H 1605   1.635   9.959  11.481 -0.9720 -1.1269  1.6543
   12MOL0     H 1606   3.613  10.249  11.053  1.1132 -1.1477  0.4130
   12MOL0     H 1607   3.796  10.416  11.008 -2.0907 -1.9933 -1.2104
   12MOL0     H 1608   4.092  10.627  11.102 -0.2264  0.0065  1.1000
   12MOL0     H 1609   4.295  10.742  11.022 -2.3244 -2.2404 -2.5212
   12MOL0     H 1610   4.445  10.912  11.187 -0.3098 -0.5855 -0.1841
   12MOL0     H 1611   4.479  10.855  11.026 -2.4749  0.6704 -1.8325
   12MOL0     H 1612   4.585  11.079  10.977 -0.5505 -0.0103  0.1533
   12MOL0     H 1613   4.671  10.997  11.110 -0.0885  1.5293  2.1311
   12MOL0     H 1614   4.507  11.132  11.266  2.5501 -1.1205  0.2961
   12MOL0     H 1615   4.487  11.229  11.107  0.4208  1.0244  0.9148
   12MOL0     H 1616   4.724  11.265  11.114  1.1383  0.0165  1.4276
   12MOL0     H 1617   4.729  11.190  11.279  2.0720 -0.3262 -0.9129
   12MOL0     H 1618   4.576  11.543  11.416 -1.4668  0.1326 -0.6479
   12MOL0     H 1619   4.127  11.120  11.123  2.7969 -1.2642  0.8098
   12MOL0     H 1620   3.929  11.012  11.210  3.3580  2.5443  1.0217
   13MOL0     O 1621  10.621   2.199   3.512 -0.2582 -0.1423 -0.0800
   13MOL0     C 1622  10.686   2.208   3.410  0.4222  0.3313  0.2996
   13MOL0     O 1623  10.639   2.213   3.285  0.1307 -0.0457  0.2200
   13MOL0     C 1624  10.505   2.223   3.260 -0.1638 -0.1787 -0.5107
   13MOL0     C 1625  10.428   2.117   3.206  0.4263  0.4867 -0.6217
   13MOL0     C 1626  10.297   2.122   3.178  0.0120 -0.9116 -0.1771
   13MOL0     C 1627  10.234   2.243   3.197  0.9595 -0.0683 -0.5636
   13MOL0     O 1628  10.099   2.272   3.175 -0.4381 -0.1317  0.1959
   13MOL0     C 1629  10.011   2.165   3.134  0.4124 -0.1158  0.5051
   13MOL0     C 1630   9.867   2.212   3.163  0.1173  0.2351  1.3525
   13MOL0     C 1631   9.813   2.296   3.053 -0.0698 -0.1626 -0.1474
   13MOL0     C 1632   9.658   2.327   3.059 -1.2539 -0.0311  0.1597
   13MOL0     C 1633   9.589   2.381   2.929 -0.8293 -0.1426 -0.2765
   13MOL0     C 1634   9.560   2.529   2.949 -0.3986 -0.2172 -0.1596
   13MOL0     C 1635   9.492   2.596   2.827  0.5282  0.2942  0.8863
   13MOL0     C 1636   9.343   2.554   2.816 -0.6694 -0.2247 -0.1412
   13MOL0     N 1637   9.290   2.621   2.697  0.4313  0.4560  0.1207
   13MOL0     C 1638   9.347   2.625   2.572  0.5742  0.3489  0.3494
   13MOL0     C 1639   9.253   2.696   2.498  0.2583 -0.6849  0.0645
   13MOL0     C 1640   9.257   2.729   2.355 -1.7583 -0.4806 -0.7339
   13MOL0     C 1641   9.125   2.763   2.291 -0.5744 -0.5117 -0.1835
   13MOL0     C 1642   9.044   2.651   2.247 -0.0167  0.3103 -0.0355
   13MOL0     C 1643   8.896   2.681   2.284 -0.0963  0.7866  0.5447
   13MOL0     O 1644   8.810   2.585   2.215  0.0505 -0.7953 -0.5394
   13MOL0     C 1645   8.668   2.601   2.223  0.4019  1.1656  0.4519
   13MOL0     C 1646   8.601   2.495   2.172  0.2486 -0.2686 -0.7531
   13MOL0     C 1647   8.455   2.482   2.193 -0.2203  0.1087  0.5435
   13MOL0     C 1648   8.392   2.352   2.155  0.7485 -0.0996 -0.5342
   13MOL0     C 1649   8.388   2.597   2.258  0.3272 -0.2398  0.7415
   13MOL0     C 1650   8.248   2.591   2.299 -0.2499  1.2338  0.9132
   13MOL0     O 1651   8.200   2.667   2.399 -0.6031 -0.2597 -0.1008
   13MOL0     C 1652   8.063   2.683   2.411  0.3187  0.2787  0.3732
   13MOL0     C 1653   7.984   2.745   2.318  0.1884  0.1880  0.2771
   13MOL0     C 1654   7.844   2.741   2.329  0.7100  0.7566  1.1048
   13MOL0     C 1655   7.776   2.686   2.437  0.6754  0.1647 -0.6440
   13MOL0     O 1656   7.634   2.676   2.434 -0.0430  0.2881 -0.0153
   13MOL0     C 1657   7.571   2.633   2.553 -0.6889  0.6004 -0.9660
   13MOL0     C 1658   7.428   2.679   2.562  0.2397  1.0290  0.5624
   13MOL0     C 1659   7.421   2.832   2.559 -0.5422  0.0673  0.2013
   13MOL0     C 1660   7.351   2.888   2.432  0.3373 -0.6863  0.5182
   13MOL0     C 1661   7.323   3.040   2.439  0.5211  0.7978  0.3264
   13MOL0     C 1662   7.271   3.091   2.300 -0.0903  0.0173  0.4157
   13MOL0     C 1663   7.128   3.039   2.258  0.2419  0.0852  0.6376
   13MOL0     C 1664   7.009   3.126   2.303  0.1626  0.3942  0.1345
   13MOL0    Cl 1665   6.848   3.084   2.228 -0.0786 -0.0826  0.1969
   13MOL0     C 1666   7.868   2.628   2.529  0.0067  0.9942 -0.5553
   13MOL0     C 1667   8.004   2.614   2.510  0.2979 -0.5827 -0.4024
   13MOL0     O 1668   8.173   2.524   2.228  0.2155 -0.3010 -0.6356
   13MOL0     C 1669   8.459   2.712   2.299  0.1676 -0.1338  0.0333
   13MOL0     C 1670   8.594   2.711   2.280 -0.0659  0.5468 -0.0810
   13MOL0     N 1671   9.161   2.751   2.583 -0.1727 -0.6506 -0.1678
   13MOL0     N 1672   9.186   2.709   2.702 -0.4807  0.1534  0.9841
   13MOL0     C 1673  10.302   2.347   3.251  0.1200  0.0767  0.2489
   13MOL0     C 1674  10.440   2.343   3.280 -0.4832 -0.5550 -0.4412
   13MOL0     C 1675  10.830   2.191   3.417 -0.2744 -0.2740  0.1319
   13MOL0     C 1676  10.915   2.220   3.308  0.0481  0.2719 -0.1883
   13MOL0     C 1677  11.051   2.201   3.307  0.1700  0.7081 -0.2690
   13MOL0     C 1678  11.118   2.153   3.421 -0.2189 -0.6787 -0.4760
   13MOL0     O 1679  11.249   2.120   3.414  0.1930  0.0461  0.2421
   13MOL0     C 1680  11.347   2.213   3.356  0.2190 -0.0322  0.5249
   13MOL0     C 1681  11.391   2.304   3.461  0.1364  0.2599  0.7472
   13MOL0     C 1682  11.447   2.237   3.590 -0.2250 -0.2968 -0.4247
   13MOL0     C 1683  11.517   2.341   3.677  0.0118 -0.0601  0.2654
   13MOL0     C 1684  11.440   2.472   3.678 -0.4660 -0.3167  0.7215
   13MOL0     C 1685  11.373   2.575   3.665  0.2689 -0.3432 -0.2857
   13MOL0     C 1686  11.044   2.140   3.544 -0.5750 -0.0272 -0.0144
   13MOL0     C 1687  10.902   2.151   3.534  0.9103 -0.5164  0.2813
   13MOL0     H 1688  10.481   2.030   3.167  0.7734  0.1674  0.5147
   13MOL0     H 1689  10.247   2.045   3.120 -1.4309  0.3808 -0.7130
   13MOL0     H 1690  10.028   2.123   3.034  1.0464  1.4828 -0.0862
   13MOL0     H 1691  10.027   2.088   3.211  0.5404 -0.2419  0.3544
   13MOL0     H 1692   9.799   2.127   3.180 -0.7267 -0.8002 -4.9382
   13MOL0     H 1693   9.857   2.261   3.260 -0.2523  0.0479  1.4118
   13MOL0     H 1694   9.863   2.394   3.056  0.9966 -0.6967  2.5261
   13MOL0     H 1695   9.834   2.252   2.955  2.7638  1.3780 -0.3624
   13MOL0     H 1696   9.601   2.237   3.081 -2.1817  0.9645  1.9953
   13MOL0     H 1697   9.640   2.387   3.148  1.7604 -1.4449  1.8760
   13MOL0     H 1698   9.663   2.369   2.849  2.9517  2.9048  2.3286
   13MOL0     H 1699   9.490   2.338   2.916 -1.7980  2.1446 -0.8878
   13MOL0     H 1700   9.494   2.547   3.033  0.6016 -0.3208  0.6722
   13MOL0     H 1701   9.657   2.578   2.965 -0.6647  1.1575 -2.3037
   13MOL0     H 1702   9.497   2.705   2.817 -0.7501  0.1258 -4.4377
   13MOL0     H 1703   9.545   2.553   2.742  2.6322  3.8167  0.2300
   13MOL0     H 1704   9.294   2.593   2.906 -1.5481  1.4240 -1.2718
   13MOL0     H 1705   9.327   2.447   2.797 -0.6108 -0.2286 -0.1675
   13MOL0     H 1706   9.433   2.569   2.537  1.9950  3.0908 -0.9133
   13MOL0     H 1707   9.329   2.809   2.337 -1.0619 -1.6527 -3.7422
   13MOL0     H 1708   9.293   2.640   2.304 -1.8593 -0.9156 -0.0650
   13MOL0     H 1709   9.137   2.814   2.195 -1.0068 -2.7069 -1.4858
   13MOL0     H 1710   9.064   2.827   2.356  0.6633 -0.0988  0.6080
   13MOL0     H 1711   9.072   2.563   2.306  1.9312  1.3564  0.6941
   13MOL0     H 1712   9.055   2.628   2.141  0.8803 -3.2966  0.6993
   13MOL0     H 1713   8.876   2.785   2.256  1.0787  0.5284 -1.4685
   13MOL0     H 1714   8.876   2.664   2.390 -1.3260 -1.6688  0.0178
   13MOL0     H 1715   8.666   2.421   2.125 -0.1700 -0.2243 -1.4211
   13MOL0     H 1716   8.317   2.368   2.078 -1.9480 -0.7480  1.7897
   13MOL0     H 1717   8.465   2.283   2.111  0.5230 -1.4931  1.1786
   13MOL0     H 1718   8.352   2.290   2.236 -1.8885  0.2041 -1.5127
   13MOL0     H 1719   8.033   2.784   2.229  4.4798  1.2755  2.7809
   13MOL0     H 1720   7.785   2.782   2.247  0.3434 -2.2081 -0.2767
   13MOL0     H 1721   7.571   2.524   2.562 -1.4968  0.6204 -0.6364
   13MOL0     H 1722   7.611   2.677   2.645  0.2040  2.3010 -2.1311
   13MOL0     H 1723   7.369   2.640   2.478  0.8797  0.6665  0.2711
   13MOL0     H 1724   7.383   2.637   2.652 -0.3582 -0.3866 -0.3649
   13MOL0     H 1725   7.520   2.880   2.558 -0.5557  0.1240 -1.7652
   13MOL0     H 1726   7.373   2.864   2.651  2.5440  1.1175  1.6035
   13MOL0     H 1727   7.416   2.869   2.345 -1.0941  1.9625 -1.2565
   13MOL0     H 1728   7.253   2.842   2.420 -0.6952  0.7679  2.6969
   13MOL0     H 1729   7.412   3.101   2.456 -0.4796  2.3815  0.0896
   13MOL0     H 1730   7.250   3.065   2.516 -1.6241 -0.9012 -1.0560
   13MOL0     H 1731   7.282   3.199   2.285 -0.8071  0.1438  0.7509
   13MOL0     H 1732   7.338   3.047   2.225  2.2356  1.7296  1.3553
   13MOL0     H 1733   7.112   2.938   2.297  0.7038 -0.6769 -1.0810
   13MOL0     H 1734   7.128   3.033   2.149  0.2165 -0.4361  0.6613
   13MOL0     H 1735   7.026   3.234   2.294 -0.6238  0.6471  1.3472
   13MOL0     H 1736   7.006   3.103   2.410 -1.2327 -0.0149  0.0278
   13MOL0     H 1737   7.835   2.579   2.620  2.9621  3.3526  2.0204
   13MOL0     H 1738   8.080   2.562   2.567 -0.2493 -1.3665 -0.3776
   13MOL0     H 1739   8.413   2.800   2.342  1.2378 -0.2338  1.4450
   13MOL0     H 1740   8.649   2.793   2.325 -0.5101  0.0894  1.3694
   13MOL0     H 1741  10.258   2.446   3.256  1.2865  0.5615  2.7441
   13MOL0     H 1742  10.495   2.428   3.318  0.9403 -1.0024 -1.3979
   13MOL0     H 1743  10.867   2.260   3.219 -1.0049  2.2070  1.1963
   13MOL0     H 1744  11.103   2.229   3.216  0.3823 -2.5452 -1.2874
   13MOL0     H 1745  11.433   2.153   3.326 -0.3709 -1.0598  0.8311
   13MOL0     H 1746  11.317   2.274   3.270 -1.4417 -1.1290  0.2673
   13MOL0     H 1747  11.301   2.357   3.494  0.2684  2.1841 -1.6685
   13MOL0     H 1748  11.466   2.375   3.426 -1.3391  1.1971 -0.7176
   13MOL0     H 1749  11.503   2.149   3.557 -0.0571 -0.2834 -0.1744
   13MOL0     H 1750  11.363   2.196   3.647 -0.0281  2.8155  2.4421
   13MOL0     H 1751  11.613   2.368   3.632  0.0144 -0.5653 -0.0392
   13MOL0     H 1752  11.522   2.310   3.781 -1.3842 -0.3485  0.2614
   13MOL0     H 1753  11.333   2.672   3.642  1.1415 -0.1990 -1.2871
   13MOL0     H 1754  11.078   2.102   3.640  1.0707  0.4048 -0.3977
   13MOL0     H 1755  10.838   2.137   3.620  1.4077 -2.1331  0.4167
   14MOL0     O 1756   5.784   5.432   5.762 -0.7496  0.4682  0.4030
   14MOL0     C 1757   5.849   5.459   5.665  0.0019 -0.5424  0.5115
   14MOL0     O 1758   5.802   5.520   5.552 -0.1976  0.0757 -0.5709
   14MOL0     C 1759   5.672   5.564   5.543  0.4505 -0.4069 -0.3649
   14MOL0     C 1760   5.565   5.467   5.542  0.2464  0.3305  0.0764
   14MOL0     C 1761   5.433   5.517   5.537 -1.4177  0.5722  0.0237
   14MOL0     C 1762   5.405   5.652   5.560  0.0328 -0.1993 -0.3795
   14MOL0     O 1763   5.284   5.711   5.558 -0.5608  0.0063  0.8119
   14MOL0     C 1764   5.172   5.627   5.575 -0.2539  0.0770 -0.0206
   14MOL0     C 1765   5.052   5.721   5.587 -0.1146 -0.2750 -0.3173
   14MOL0     C 1766   4.925   5.642   5.613  0.4943 -0.7201 -0.3324
   14MOL0     C 1767   4.800   5.726   5.609 -0.0386 -0.0671  0.1384
   14MOL0     C 1768   4.668   5.652   5.618  0.6940  0.5207  0.8356
   14MOL0     C 1769   4.619   5.564   5.502  0.1180 -0.3350  0.3450
   14MOL0     C 1770   4.485   5.486   5.522  0.3279 -1.2774  0.5244
   14MOL0     C 1771   4.365   5.574   5.495  0.0689  0.1822 -0.4507
   14MOL0     N 1772   4.238   5.509   5.525  0.1124 -0.6013  0.0591
   14MOL0     C 1773   4.227   5.378   5.547  0.2046 -0.3135  0.2747
   14MOL0     C 1774   4.098   5.360   5.594  0.0659 -0.5541 -0.6782
   14MOL0     C 1775   4.043   5.228   5.623  0.0489  0.4679  0.4602
   14MOL0     C 1776   4.081   5.174   5.766  0.1101  1.0389  0.6818
   14MOL0     C 1777   4.025   5.277   5.868 -0.2089 -0.5213 -0.5917
   14MOL0     C 1778   3.871   5.291   5.862 -0.5258  0.3996 -0.1645
   14MOL0     O 1779   3.797   5.168   5.863  0.2378  0.7424 -0.6680
   14MOL0     C 1780   3.661   5.179   5.877 -0.1391  0.2601 -0.3558
   14MOL0     C 1781   3.599   5.057   5.917 -0.5190 -0.6091 -0.5957
   14MOL0     C 1782   3.460   5.048   5.940  0.3164 -0.9289  0.0939
   14MOL0     C 1783   3.415   4.916   5.988 -0.1725  1.1446  0.6896
   14MOL0     C 1784   3.378   5.166   5.915 -0.4380 -0.4465 -0.4741
   14MOL0     C 1785   3.232   5.158   5.926  0.1480  1.0075  0.3648
   14MOL0     O 1786   3.182   5.085   6.022 -0.1772 -0.7009 -0.6578
   14MOL0     C 1787   3.044   5.069   6.037 -0.0950  0.7365 -0.0521
   14MOL0     C 1788   2.976   5.150   6.132 -1.0984  0.0602 -0.5355
   14MOL0     C 1789   2.838   5.133   6.154 -0.5545 -0.8082 -0.2469
   14MOL0     C 1790   2.771   5.030   6.095  0.4826  0.0382  0.5806
   14MOL0     O 1791   2.649   5.004   6.149  0.8381 -0.0719  0.0073
   14MOL0     C 1792   2.555   4.936   6.068  0.2043 -0.2830  0.3536
   14MOL0     C 1793   2.421   4.940   6.130 -0.4377  0.3459 -0.1483
   14MOL0     C 1794   2.331   4.848   6.047  0.8235 -0.2741 -0.5643
   14MOL0     C 1795   2.180   4.885   6.066  0.6319  0.2491 -1.2238
   14MOL0     C 1796   2.086   4.819   5.967 -0.8025 -0.3257 -0.6103
   14MOL0     C 1797   1.937   4.827   6.015 -0.5606  0.4955 -0.9435
   14MOL0     C 1798   1.851   4.767   5.904 -0.6911 -0.0437 -0.2272
   14MOL0     C 1799   1.711   4.784   5.937  0.9396  0.1472  0.2741
   14MOL0    Cl 1800   1.650   4.941   5.876 -0.2541  0.1714 -0.4297
   14MOL0     C 1801   2.832   4.955   5.994 -0.2846  0.3921 -0.7002
   14MOL0     C 1802   2.975   4.962   5.972 -0.0160 -0.2075  0.2046
   14MOL0     O 1803   3.162   5.226   5.850  0.0244 -0.3132 -0.0578
   14MOL0     C 1804   3.441   5.280   5.855 -0.9477 -0.0594 -0.1419
   14MOL0     C 1805   3.574   5.288   5.843  0.9388  0.2480 -0.2789
   14MOL0     N 1806   4.038   5.484   5.593  0.5256  0.2956  0.0805
   14MOL0     N 1807   4.125   5.576   5.548  0.2658 -0.3169 -0.2344
   14MOL0     C 1808   5.514   5.739   5.579  0.6390  0.1922  0.9786
   14MOL0     C 1809   5.648   5.702   5.561  0.5645 -0.2621  0.6187
   14MOL0     C 1810   5.978   5.411   5.651 -1.3297  0.0608 -0.3667
   14MOL0     C 1811   6.056   5.397   5.764 -0.3592  0.1172  0.2864
   14MOL0     C 1812   6.181   5.355   5.762 -0.4781  0.0503 -0.3324
   14MOL0     C 1813   6.237   5.312   5.641 -0.0488 -0.5790 -0.1947
   14MOL0     O 1814   6.371   5.271   5.659  0.3821  0.7408 -0.4585
   14MOL0     C 1815   6.462   5.295   5.551  0.0751 -0.1224  0.5863
   14MOL0     C 1816   6.601   5.243   5.594  0.0652  0.3991 -0.9446
   14MOL0     C 1817   6.604   5.097   5.636 -0.6084  0.5453 -0.7390
   14MOL0     C 1818   6.738   5.053   5.696 -0.1216  0.1743 -0.0866
   14MOL0     C 1819   6.850   5.095   5.613 -0.4661 -0.3317 -0.2173
   14MOL0     C 1820   6.945   5.137   5.553  0.7541 -0.5550 -0.5298
   14MOL0     C 1821   6.163   5.315   5.521 -0.3186  0.1264  0.0388
   14MOL0     C 1822   6.028   5.360   5.528  0.1048  0.0804  0.5401
   14MOL0     H 1823   5.590   5.361   5.539 -2.4977 -0.3924  0.1099
   14MOL0     H 1824   5.351   5.448   5.519  1.6360 -2.9753 -1.7932
   14MOL0     H 1825   5.160   5.560   5.490  0.5339 -2.4643  1.7585
   14MOL0     H 1826   5.186   5.557   5.658  0.3582 -2.1976 -1.9213
   14MOL0     H 1827   5.070   5.797   5.664 -0.7367  1.8970 -2.2175
   14MOL0     H 1828   5.048   5.775   5.493  0.2400 -0.3492 -0.3757
   14MOL0     H 1829   4.904   5.562   5.542 -1.0525 -0.6464 -0.0069
   14MOL0     H 1830   4.929   5.603   5.715 -1.2220 -0.5890 -0.1846
   14MOL0     H 1831   4.796   5.796   5.693 -1.0663  0.6631 -0.4972
   14MOL0     H 1832   4.804   5.778   5.513  1.0812  1.4145  0.9364
   14MOL0     H 1833   4.668   5.583   5.704 -5.0952 -2.4473 -1.0441
   14MOL0     H 1834   4.593   5.730   5.634 -0.8458 -0.5292 -0.8375
   14MOL0     H 1835   4.616   5.627   5.412 -1.1769 -2.7706 -1.4185
   14MOL0     H 1836   4.692   5.490   5.471  0.1115  0.6207 -2.2331
   14MOL0     H 1837   4.489   5.400   5.454 -0.0407 -0.3222 -0.7444
   14MOL0     H 1838   4.478   5.460   5.628 -1.9704  2.2024  1.3985
   14MOL0     H 1839   4.377   5.608   5.392  0.0077  2.2186  0.1744
   14MOL0     H 1840   4.371   5.666   5.554  2.6048  0.2798 -0.7523
   14MOL0     H 1841   4.296   5.295   5.536  0.6918  0.0162  0.7974
   14MOL0     H 1842   3.935   5.238   5.607  0.4250  0.4269 -2.4967
   14MOL0     H 1843   4.083   5.159   5.549  3.8886  1.8533  1.0018
   14MOL0     H 1844   4.188   5.152   5.775  0.6257  2.5467 -1.1817
   14MOL0     H 1845   4.030   5.078   5.776  2.8649 -0.9526 -2.4355
   14MOL0     H 1846   4.074   5.374   5.869 -0.8294 -0.2097  0.3827
   14MOL0     H 1847   4.055   5.241   5.967 -2.9204 -0.1523  0.4599
   14MOL0     H 1848   3.851   5.361   5.781 -1.0056  1.6185  0.9623
   14MOL0     H 1849   3.832   5.352   5.944 -4.3552  0.9921 -2.2033
   14MOL0     H 1850   3.661   4.970   5.934  0.4380 -0.1738 -1.7384
   14MOL0     H 1851   3.498   4.844   5.981  0.0922  1.5544 -0.7151
   14MOL0     H 1852   3.369   4.909   6.087 -1.0356 -3.7158  0.1683
   14MOL0     H 1853   3.354   4.886   5.902  2.7293 -0.0563 -1.1089
   14MOL0     H 1854   3.040   5.227   6.173 -0.5062 -1.2247  1.0177
   14MOL0     H 1855   2.778   5.187   6.227  0.3106  1.7937 -1.3441
   14MOL0     H 1856   2.562   4.980   5.968  2.1286 -0.4306  0.3870
   14MOL0     H 1857   2.592   4.833   6.062  0.2441 -0.1886 -3.5769
   14MOL0     H 1858   2.426   4.902   6.232 -0.6353  3.0546  0.9590
   14MOL0     H 1859   2.382   5.042   6.139 -2.9953 -0.4827 -0.7845
   14MOL0     H 1860   2.357   4.747   6.079  2.3599  0.5572  0.9494
   14MOL0     H 1861   2.351   4.845   5.939  0.6062 -2.7305 -0.5881
   14MOL0     H 1862   2.149   4.864   6.169  1.3580  0.2981 -0.9860
   14MOL0     H 1863   2.156   4.991   6.061 -0.0143  0.0810 -1.9311
   14MOL0     H 1864   2.104   4.711   5.971 -0.6437 -0.3245 -1.1893
   14MOL0     H 1865   2.096   4.860   5.866  0.9637 -1.1647 -0.7933
   14MOL0     H 1866   1.924   4.771   6.109  0.6043 -0.1928 -1.1696
   14MOL0     H 1867   1.912   4.931   6.035 -0.3370  0.2930  0.5118
   14MOL0     H 1868   1.875   4.661   5.893 -0.0981  0.3420 -3.3745
   14MOL0     H 1869   1.861   4.809   5.804 -2.7732 -1.8446 -1.2792
   14MOL0     H 1870   1.697   4.770   6.044 -1.3476  2.9299  0.4645
   14MOL0     H 1871   1.656   4.711   5.877 -0.0279  0.2612  0.9964
   14MOL0     H 1872   2.774   4.871   5.957 -0.5321 -1.0586  2.6364
   14MOL0     H 1873   3.027   4.883   5.919 -0.3964  0.9408 -1.9971
   14MOL0     H 1874   3.378   5.367   5.838  1.8277  2.3767  1.2166
   14MOL0     H 1875   3.624   5.371   5.794  1.4701 -0.7524 -1.4878
   14MOL0     H 1876   5.505   5.846   5.596 -1.6363  0.8529 -3.1075
   14MOL0     H 1877   5.734   5.768   5.574  0.3065  0.2168 -0.0814
   14MOL0     H 1878   6.013   5.419   5.861  0.3088  0.2551  0.5621
   14MOL0     H 1879   6.235   5.340   5.855  1.8530  3.1111 -0.9858
   14MOL0     H 1880   6.432   5.236   5.464 -2.9626  0.3655  1.1859
   14MOL0     H 1881   6.465   5.397   5.514 -0.5222 -0.8295 -1.5723
   14MOL0     H 1882   6.621   5.301   5.684 -0.0154  3.2041 -2.6114
   14MOL0     H 1883   6.670   5.270   5.514  2.6278 -0.1685  0.9651
   14MOL0     H 1884   6.583   5.034   5.549 -0.4032 -0.9520  0.2584
   14MOL0     H 1885   6.521   5.060   5.697  0.2759  1.1500  0.8873
   14MOL0     H 1886   6.746   4.944   5.687  0.7081  0.0711  1.5420
   14MOL0     H 1887   6.754   5.088   5.799  0.1083 -1.3531  0.4283
   14MOL0     H 1888   7.033   5.178   5.508 -0.8306  0.7925 -2.6139
   14MOL0     H 1889   6.211   5.285   5.428 -0.0510  1.0753 -0.1322
   14MOL0     H 1890   5.959   5.365   5.445 -0.3615  1.6096  0.9951
   15MOL0     O 1891   6.784   3.737   2.468 -0.0017 -0.0237 -0.7654
   15MOL0     C 1892   6.737   3.840   2.414  0.2125  0.4643  0.8878
   15MOL0     O 1893   6.608   3.844   2.371 -0.1752  0.7504 -0.3014
   15MOL0     C 1894   6.516   3.751   2.416 -0.0769 -1.2346 -0.0176
   15MOL0     C 1895   6.515   3.680   2.539  0.3621  0.6847 -0.3321
   15MOL0     C 1896   6.404   3.591   2.564 -0.2786 -0.0991 -0.0170
   15MOL0     C 1897   6.298   3.575   2.479  0.3513 -0.5535  1.3902
   15MOL0     O 1898   6.199   3.483   2.508  0.4113  0.5831 -0.1572
   15MOL0     C 1899   6.066   3.525   2.480  0.4660  0.6871 -0.5744
   15MOL0     C 1900   6.012   3.649   2.560  0.1343  0.5420  0.9288
   15MOL0     C 1901   5.866   3.634   2.602  0.4983  0.0233  0.6959
   15MOL0     C 1902   5.837   3.539   2.723 -0.4749 -0.3055  0.7426
   15MOL0     C 1903   5.697   3.553   2.779 -0.1878  0.3405  0.4689
   15MOL0     C 1904   5.658   3.687   2.850  0.3020  0.3186 -0.1574
   15MOL0     C 1905   5.529   3.678   2.943 -0.5689 -0.1389  0.5093
   15MOL0     C 1906   5.409   3.689   2.843  0.0298 -0.0682 -0.2419
   15MOL0     N 1907   5.287   3.617   2.880 -0.5110 -0.2668  0.0387
   15MOL0     C 1908   5.159   3.667   2.875 -0.2621  0.6541 -0.7350
   15MOL0     C 1909   5.090   3.568   2.940  0.6268 -0.4817 -0.9921
   15MOL0     C 1910   4.934   3.578   2.945 -0.8555 -0.0062 -0.7440
   15MOL0     C 1911   4.883   3.584   3.084 -0.2771  0.0686  0.7069
   15MOL0     C 1912   4.743   3.637   3.092  0.6918 -0.0993 -0.3894
   15MOL0     C 1913   4.643   3.535   3.038 -0.5682  0.0611  0.0529
   15MOL0     O 1914   4.517   3.591   3.069  0.0058 -0.2254  0.2888
   15MOL0     C 1915   4.462   3.579   3.194 -0.1151  0.5476  0.3339
   15MOL0     C 1916   4.505   3.494   3.297 -0.4000 -0.4827 -1.0660
   15MOL0     C 1917   4.428   3.484   3.416 -0.2331  0.1243 -0.7455
   15MOL0     C 1918   4.485   3.400   3.526  0.6006  0.2585  0.7617
   15MOL0     C 1919   4.313   3.563   3.434 -0.1877  0.2635  0.2444
   15MOL0     C 1920   4.219   3.548   3.548  0.4025 -0.0805  0.3049
   15MOL0     O 1921   4.252   3.462   3.652  0.7053 -0.1024 -0.3442
   15MOL0     C 1922   4.158   3.411   3.741  0.0636 -0.0324 -0.3613
   15MOL0     C 1923   4.023   3.392   3.711  0.2761  1.0603  0.2576
   15MOL0     C 1924   3.929   3.356   3.817 -0.1049 -0.6318 -0.0141
   15MOL0     C 1925   3.987   3.334   3.947 -0.1690 -0.3718  0.6921
   15MOL0     O 1926   3.922   3.293   4.064 -0.0556 -0.1704  0.6776
   15MOL0     C 1927   3.789   3.336   4.081 -0.1991  0.2945 -0.0638
   15MOL0     C 1928   3.737   3.305   4.219  1.1117 -0.1122  0.5167
   15MOL0     C 1929   3.589   3.337   4.247 -0.1732 -0.2081 -0.7381
   15MOL0     C 1930   3.494   3.222   4.223 -0.5839  0.1176 -0.2396
   15MOL0     C 1931   3.340   3.256   4.248  0.0103 -0.1438 -0.0481
   15MOL0     C 1932   3.241   3.144   4.221  0.0496 -0.4081 -0.6541
   15MOL0     C 1933   3.107   3.190   4.270  0.1125  0.3976  0.3173
   15MOL0     C 1934   3.020   3.065   4.296  0.0686  0.1871  0.5201
   15MOL0    Cl 1935   3.004   2.970   4.137 -0.0115 -0.1644 -0.2654
   15MOL0     C 1936   4.127   3.342   3.960 -0.0607  0.0556  0.1230
   15MOL0     C 1937   4.210   3.381   3.866  0.2142 -0.6917  0.1815
   15MOL0     O 1938   4.110   3.608   3.536 -0.2291  0.5031 -0.4366
   15MOL0     C 1939   4.265   3.634   3.326 -0.4876 -0.1319  0.5300
   15MOL0     C 1940   4.341   3.645   3.207  0.0433 -0.0791 -0.2886
   15MOL0     N 1941   5.175   3.458   2.963  0.3661 -0.5848  0.0687
   15MOL0     N 1942   5.297   3.496   2.941  0.1402 -0.1361  0.0372
   15MOL0     C 1943   6.297   3.652   2.360  0.4852  0.9692  0.2190
   15MOL0     C 1944   6.410   3.728   2.327  0.9051  0.0026 -0.4199
   15MOL0     C 1945   6.817   3.968   2.399 -0.3538 -0.4455 -0.3869
   15MOL0     C 1946   6.948   3.962   2.459 -0.4335  1.3503  0.9593
   15MOL0     C 1947   7.034   4.071   2.461 -0.0480  0.1807  0.9214
   15MOL0     C 1948   6.990   4.188   2.392 -0.3926  0.0630 -0.3179
   15MOL0     O 1949   7.054   4.314   2.387 -0.7101  0.3548 -0.3946
   15MOL0     C 1950   7.194   4.312   2.418 -0.1580  0.2148  0.7155
   15MOL0     C 1951   7.260   4.444   2.401 -0.0035  0.0586  0.1408
   15MOL0     C 1952   7.203   4.556   2.499  0.4264  0.3231 -0.1133
   15MOL0     C 1953   7.268   4.699   2.487 -0.0943 -0.5142  0.1819
   15MOL0     C 1954   7.411   4.681   2.478  0.6356 -1.0764 -0.5792
   15MOL0     C 1955   7.532   4.668   2.486 -0.5413  0.0501 -0.0498
   15MOL0     C 1956   6.856   4.196   2.349 -0.5386  0.5822  1.2049
   15MOL0     C 1957   6.768   4.086   2.349  0.0816  0.0367 -0.8994
   15MOL0     H 1958   6.599   3.697   2.605 -1.7265  2.9468  1.9577
   15MOL0     H 1959   6.395   3.532   2.654  1.2099 -0.3624 -0.0242
   15MOL0     H 1960   6.058   3.547   2.373 -0.3584  0.4297 -0.5712
   15MOL0     H 1961   5.993   3.450   2.511  0.4179  0.5324 -1.0530
   15MOL0     H 1962   6.075   3.665   2.648  0.9576  3.8794 -0.1390
   15MOL0     H 1963   6.025   3.742   2.505  0.7810 -0.2498 -0.3180
   15MOL0     H 1964   5.836   3.734   2.635 -1.8478 -0.4492  0.1658
   15MOL0     H 1965   5.796   3.618   2.520  0.2214  1.6432  0.5870
   15MOL0     H 1966   5.846   3.434   2.692 -1.2878 -0.9243  2.4744
   15MOL0     H 1967   5.908   3.562   2.803  0.5627  0.3991 -0.3450
   15MOL0     H 1968   5.631   3.525   2.697  1.9600 -0.0727 -1.2301
   15MOL0     H 1969   5.688   3.482   2.862 -0.6212 -0.3102 -0.1265
   15MOL0     H 1970   5.735   3.717   2.922 -1.8717  2.2910  1.4958
   15MOL0     H 1971   5.647   3.773   2.782 -1.3327  1.1139  1.0463
   15MOL0     H 1972   5.528   3.590   3.007 -2.5390  0.0894  0.8823
   15MOL0     H 1973   5.531   3.760   3.016  0.1923  0.3597 -0.0595
   15MOL0     H 1974   5.431   3.658   2.741  2.0894  3.3524 -0.9829
   15MOL0     H 1975   5.397   3.797   2.850 -2.1381 -0.3538  2.3083
   15MOL0     H 1976   5.135   3.753   2.814  0.2024 -1.4288 -4.1387
   15MOL0     H 1977   4.895   3.663   2.889 -0.7737  1.8916  1.8529
   15MOL0     H 1978   4.888   3.487   2.908  1.3025 -1.2694 -0.5099
   15MOL0     H 1979   4.952   3.653   3.132 -0.2492  0.4485  0.1346
   15MOL0     H 1980   4.899   3.493   3.142  1.5944  1.7121  2.9517
   15MOL0     H 1981   4.731   3.737   3.048  1.2320 -0.8487 -2.3827
   15MOL0     H 1982   4.731   3.652   3.199  0.4808  0.4066 -0.4790
   15MOL0     H 1983   4.652   3.431   3.072 -3.1269 -0.7301 -1.4225
   15MOL0     H 1984   4.644   3.541   2.929  3.7558  2.5666  0.0179
   15MOL0     H 1985   4.603   3.450   3.282 -0.1411  0.0674 -1.0065
   15MOL0     H 1986   4.420   3.317   3.556 -4.7866  3.6162 -0.1897
   15MOL0     H 1987   4.580   3.353   3.500 -0.2550 -0.9702 -0.2376
   15MOL0     H 1988   4.502   3.455   3.619  0.1442 -1.0061  1.6264
   15MOL0     H 1989   3.988   3.416   3.611 -0.1555 -0.3009  0.0525
   15MOL0     H 1990   3.823   3.355   3.791 -0.2249 -0.9500  0.4655
   15MOL0     H 1991   3.784   3.444   4.067  0.6649  0.3800  0.2373
   15MOL0     H 1992   3.731   3.297   3.997 -1.4756  0.8820  0.5194
   15MOL0     H 1993   3.753   3.198   4.229 -1.9820 -0.8659 -1.3163
   15MOL0     H 1994   3.801   3.357   4.291  2.7306 -1.0609 -0.1991
   15MOL0     H 1995   3.562   3.414   4.174  0.1642  2.2552  1.5913
   15MOL0     H 1996   3.591   3.378   4.348  0.2611 -2.2497  0.1480
   15MOL0     H 1997   3.502   3.198   4.117  2.1183  3.0614 -0.8558
   15MOL0     H 1998   3.523   3.138   4.288 -1.9748 -0.3446 -0.1639
   15MOL0     H 1999   3.325   3.343   4.183  1.8743  0.9740  0.9176
   15MOL0     H 2000   3.333   3.281   4.354 -2.0658  0.6415 -0.3173
   15MOL0     H 2001   3.241   3.131   4.113  0.9227 -0.8616 -0.6109
   15MOL0     H 2002   3.273   3.050   4.268  1.8556 -0.7243 -2.4034
   15MOL0     H 2003   3.068   3.262   4.197  0.9213  1.0960  0.5681
   15MOL0     H 2004   3.125   3.236   4.367  1.9282 -0.1042  0.2468
   15MOL0     H 2005   2.920   3.091   4.333 -1.1174 -1.3574 -1.4306
   15MOL0     H 2006   3.076   3.017   4.377  2.0649  2.4224  0.5892
   15MOL0     H 2007   4.153   3.316   4.062 -1.6603 -2.1376  0.0258
   15MOL0     H 2008   4.315   3.384   3.894  1.0237  1.3636 -2.5996
   15MOL0     H 2009   4.174   3.694   3.327  0.3568  1.4002 -2.4419
   15MOL0     H 2010   4.319   3.704   3.119  0.1522 -0.3391 -0.4907
   15MOL0     H 2011   6.220   3.644   2.283 -0.0406 -1.7664  0.9362
   15MOL0     H 2012   6.417   3.795   2.242  0.7255  1.9786  1.0318
   15MOL0     H 2013   6.973   3.876   2.520 -1.7508 -0.2363 -0.6393
   15MOL0     H 2014   7.125   4.065   2.520 -1.3833  4.3895  3.8862
   15MOL0     H 2015   7.202   4.277   2.521  1.1894 -0.3277  0.4472
   15MOL0     H 2016   7.241   4.232   2.360  1.4501  2.6416 -1.5805
   15MOL0     H 2017   7.246   4.484   2.300 -0.3128 -0.7033 -0.1238
   15MOL0     H 2018   7.368   4.432   2.411  0.0777  0.4563 -0.2420
   15MOL0     H 2019   7.225   4.519   2.599  0.1509  1.1452  0.2570
   15MOL0     H 2020   7.095   4.572   2.495 -0.0466 -0.7733  3.8691
   15MOL0     H 2021   7.239   4.767   2.567  0.8557  1.9036 -1.3823
   15MOL0     H 2022   7.241   4.745   2.391 -0.7347  0.1996  0.6976
   15MOL0     H 2023   7.639   4.661   2.493 -0.3996 -0.1227 -1.8773
   15MOL0     H 2024   6.802   4.284   2.316 -0.2981  0.8964  1.6375
   15MOL0     H 2025   6.665   4.081   2.315 -1.4165  1.4622  2.8472
   16MOL0     O 2026   9.182   0.902   2.672 -0.4124  0.0051 -0.2220
   16MOL0     C 2027   9.167   0.803   2.739 -0.2865  0.6006 -0.2585
   16MOL0     O 2028   9.234   0.769   2.858  0.3885  0.3579  0.1315
   16MOL0     C 2029   9.354   0.830   2.867 -0.3280  1.0645  0.3891
   16MOL0     C 2030   9.473   0.757   2.836  1.0257  0.3227 -0.5967
   16MOL0     C 2031   9.593   0.819   2.864  0.0157  0.7575  0.2235
   16MOL0     C 2032   9.596   0.945   2.930  0.3001  0.7438  0.2123
   16MOL0     O 2033   9.717   0.981   2.979 -0.7511  0.4111 -0.2671
   16MOL0     C 2034   9.774   1.107   2.948 -0.0182 -0.6208  0.1892
   16MOL0     C 2035   9.889   1.089   2.843  0.0231 -0.9036  0.1461
   16MOL0     C 2036   9.991   1.204   2.835 -0.0916  0.3888 -0.7136
   16MOL0     C 2037   9.939   1.316   2.751 -0.4931 -0.2385 -0.0899
   16MOL0     C 2038  10.052   1.414   2.711  0.4364 -0.2648 -0.1306
   16MOL0     C 2039   9.992   1.505   2.601 -0.2216  1.0247 -0.9878
   16MOL0     C 2040  10.103   1.587   2.531  0.0392 -0.3014  0.7561
   16MOL0     C 2041  10.054   1.646   2.403  0.5201 -0.1752  0.8248
   16MOL0     N 2042   9.906   1.669   2.390 -0.1270  0.1018  0.4662
   16MOL0     C 2043   9.846   1.792   2.427 -0.5043  0.1649  0.1140
   16MOL0     C 2044   9.716   1.777   2.392 -0.4829  0.1789  0.3569
   16MOL0     C 2045   9.606   1.881   2.414  0.0825 -0.6549 -0.0541
   16MOL0     C 2046   9.550   1.916   2.283  0.6344 -1.4781  0.0740
   16MOL0     C 2047   9.413   1.849   2.234  0.0111 -0.1682 -0.3387
   16MOL0     C 2048   9.292   1.890   2.311  0.3366 -0.0684 -0.1407
   16MOL0     O 2049   9.172   1.856   2.243 -0.3561  0.0589  0.0675
   16MOL0     C 2050   9.059   1.922   2.283  0.2943 -0.3243  0.6730
   16MOL0     C 2051   9.014   2.036   2.211 -0.2009  1.4130 -0.5058
   16MOL0     C 2052   8.890   2.097   2.232  0.0424  0.1529  1.5421
   16MOL0     C 2053   8.863   2.222   2.152 -0.0003  0.4137  0.9069
   16MOL0     C 2054   8.799   2.041   2.329 -0.0892  0.4174 -0.3952
   16MOL0     C 2055   8.664   2.085   2.355  0.3160  0.4132 -0.3128
   16MOL0     O 2056   8.609   2.045   2.473 -0.4482  0.2835  0.7824
   16MOL0     C 2057   8.476   2.081   2.485  0.3145  0.0815 -0.2673
   16MOL0     C 2058   8.383   1.972   2.507 -1.3621 -1.2019  0.7338
   16MOL0     C 2059   8.251   2.003   2.521 -0.5274  0.5737  0.8305
   16MOL0     C 2060   8.207   2.133   2.511 -0.6287 -0.1024  0.0010
   16MOL0     O 2061   8.070   2.144   2.520  1.0424 -1.2476  0.6606
   16MOL0     C 2062   8.009   2.252   2.450 -0.7106  0.3017  0.3775
   16MOL0     C 2063   7.865   2.221   2.425  0.9041 -0.1402 -0.7161
   16MOL0     C 2064   7.805   2.239   2.284 -0.6544  0.0621  0.2627
   16MOL0     C 2065   7.817   2.384   2.245  0.0023  0.3717 -0.1536
   16MOL0     C 2066   7.760   2.398   2.101  0.5122  0.0823  0.3461
   16MOL0     C 2067   7.783   2.537   2.044  0.0663  0.4356 -0.0803
   16MOL0     C 2068   7.652   2.623   2.058 -0.6956  0.1316  0.1015
   16MOL0     C 2069   7.671   2.764   2.002  0.3723  0.0969 -0.4289
   16MOL0    Cl 2070   7.503   2.822   1.977 -0.0637  0.5864  0.1954
   16MOL0     C 2071   8.291   2.241   2.489  0.1399 -0.8039 -0.1571
   16MOL0     C 2072   8.424   2.214   2.473 -0.3653  0.1167  0.0394
   16MOL0     O 2073   8.613   2.164   2.275  0.2376 -0.0871 -0.0421
   16MOL0     C 2074   8.848   1.933   2.405  0.2666  0.2239  0.6248
   16MOL0     C 2075   8.974   1.877   2.381 -1.1639 -0.0765 -0.1248
   16MOL0     N 2076   9.701   1.646   2.348 -0.0592 -0.0531 -0.4731
   16MOL0     N 2077   9.811   1.579   2.342 -0.5624  0.7158  0.6556
   16MOL0     C 2078   9.481   1.015   2.967  0.4291  0.4837 -0.2817
   16MOL0     C 2079   9.356   0.958   2.927 -0.5271  0.3662  0.0714
   16MOL0     C 2080   9.071   0.703   2.690  0.4506  0.0536  0.1970
   16MOL0     C 2081   8.976   0.632   2.766 -0.1828 -0.3176 -0.0224
   16MOL0     C 2082   8.881   0.535   2.722 -0.6834 -0.1697  0.0519
   16MOL0     C 2083   8.874   0.517   2.578 -0.0644 -0.3607  0.6356
   16MOL0     O 2084   8.778   0.437   2.508 -0.2167 -0.0444 -0.1167
   16MOL0     C 2085   8.645   0.482   2.521  0.5227  0.7875 -0.0859
   16MOL0     C 2086   8.613   0.597   2.435  0.4054 -0.0790 -0.0607
   16MOL0     C 2087   8.469   0.638   2.451  0.5500 -0.3574 -0.0770
   16MOL0     C 2088   8.449   0.775   2.387  0.8599 -0.7452  0.1369
   16MOL0     C 2089   8.307   0.804   2.410  0.4447 -0.1469 -0.1382
   16MOL0     C 2090   8.190   0.838   2.405  0.5552 -0.3480 -0.4108
   16MOL0     C 2091   8.974   0.588   2.493 -0.5117 -0.2377  0.4508
   16MOL0     C 2092   9.065   0.677   2.556  0.4762  0.2235  0.5426
   16MOL0     H 2093   9.471   0.666   2.777  3.3781  0.2536 -0.6927
   16MOL0     H 2094   9.691   0.780   2.840  0.7875  0.0025  4.0105
   16MOL0     H 2095   9.705   1.177   2.900 -0.2668 -1.2668 -0.4068
   16MOL0     H 2096   9.809   1.142   3.046 -1.5745 -0.7523  0.8210
   16MOL0     H 2097   9.946   0.998   2.863  2.0669  0.3143  0.1733
   16MOL0     H 2098   9.844   1.089   2.743  0.5263  2.0851 -0.1952
   16MOL0     H 2099  10.025   1.235   2.934 -1.9933 -1.2166  0.5217
   16MOL0     H 2100  10.080   1.162   2.788  1.2189  0.6027  1.4599
   16MOL0     H 2101   9.894   1.273   2.661  0.1497 -2.1303  0.4397
   16MOL0     H 2102   9.856   1.365   2.804  0.3944  0.1503  0.9660
   16MOL0     H 2103  10.077   1.465   2.804 -1.8202  0.2235  0.2471
   16MOL0     H 2104  10.145   1.370   2.673  2.1890  3.3941 -0.5206
   16MOL0     H 2105   9.947   1.444   2.522  2.7245 -0.6494 -1.5266
   16MOL0     H 2106   9.925   1.575   2.652 -0.4405  0.5875 -0.6654
   16MOL0     H 2107  10.124   1.661   2.608 -1.3119  0.5108  0.3752
   16MOL0     H 2108  10.189   1.523   2.508  0.5483  0.8763 -0.7478
   16MOL0     H 2109  10.082   1.568   2.331  2.9706 -0.0641  1.5803
   16MOL0     H 2110  10.112   1.737   2.384  1.5999 -1.6572 -5.3890
   16MOL0     H 2111   9.899   1.881   2.458 -1.1171  0.8406 -0.7209
   16MOL0     H 2112   9.521   1.842   2.472 -1.6697 -0.9601 -2.6355
   16MOL0     H 2113   9.657   1.965   2.460 -2.1670  0.3238  0.8287
   16MOL0     H 2114   9.628   1.902   2.207 -1.0932 -2.7573 -1.5373
   16MOL0     H 2115   9.528   2.023   2.288 -2.0722 -1.9373 -0.5385
   16MOL0     H 2116   9.419   1.740   2.234 -0.2522 -0.2062  1.2520
   16MOL0     H 2117   9.407   1.866   2.126 -1.8727  0.9953 -0.1058
   16MOL0     H 2118   9.310   1.998   2.319 -2.0891  0.8460 -4.1775
   16MOL0     H 2119   9.296   1.850   2.413  2.5476  2.9313  1.1258
   16MOL0     H 2120   9.068   2.072   2.123 -1.1461  1.0826 -1.2331
   16MOL0     H 2121   8.831   2.305   2.215  2.4091  2.5813 -0.5184
   16MOL0     H 2122   8.957   2.258   2.109 -0.3798 -0.1460 -0.4291
   16MOL0     H 2123   8.793   2.186   2.077 -2.3594  0.9830  2.7163
   16MOL0     H 2124   8.418   1.869   2.504 -2.2575 -1.4946 -0.9632
   16MOL0     H 2125   8.180   1.923   2.544  0.7684 -0.4680  1.3611
   16MOL0     H 2126   8.016   2.343   2.510 -2.9136  0.8278 -0.0397
   16MOL0     H 2127   8.065   2.277   2.359 -0.0055  0.1151  0.7569
   16MOL0     H 2128   7.844   2.122   2.467  3.1945 -0.5127 -0.3233
   16MOL0     H 2129   7.804   2.293   2.480  0.4180 -1.0454 -0.0505
   16MOL0     H 2130   7.700   2.213   2.297 -0.7316 -2.0633 -3.4739
   16MOL0     H 2131   7.855   2.171   2.215  0.3714  1.8451 -0.8334
   16MOL0     H 2132   7.773   2.443   2.326 -2.4099  1.0730 -1.8774
   16MOL0     H 2133   7.922   2.414   2.240 -0.6123  2.4003 -2.1521
   16MOL0     H 2134   7.657   2.364   2.088  0.0899  1.8583 -1.5032
   16MOL0     H 2135   7.815   2.328   2.037 -0.3488 -0.0399 -0.2757
   16MOL0     H 2136   7.871   2.586   2.087  1.5689 -3.9033  2.3749
   16MOL0     H 2137   7.801   2.524   1.937 -0.2005  2.0085 -0.3342
   16MOL0     H 2138   7.622   2.633   2.163 -2.0829  0.3070 -0.2837
   16MOL0     H 2139   7.570   2.570   2.009 -1.9737  0.4812  1.7631
   16MOL0     H 2140   7.719   2.770   1.904 -1.1533  1.0784 -1.1627
   16MOL0     H 2141   7.728   2.831   2.066 -0.6337  2.4085 -1.8246
   16MOL0     H 2142   8.261   2.345   2.489 -1.0752 -1.1016 -2.2127
   16MOL0     H 2143   8.501   2.289   2.462  1.3223 -1.8765 -4.9400
   16MOL0     H 2144   8.786   1.889   2.483  0.9675 -1.4530  0.2761
   16MOL0     H 2145   9.021   1.793   2.432  1.2889  0.6677 -1.0226
   16MOL0     H 2146   9.487   1.107   3.024  2.5353  1.3057 -1.6977
   16MOL0     H 2147   9.260   1.003   2.950  0.0618  2.5320 -1.4535
   16MOL0     H 2148   8.981   0.653   2.872  4.0422  0.7782 -0.2281
   16MOL0     H 2149   8.805   0.492   2.786 -1.1561 -1.4861 -1.3365
   16MOL0     H 2150   8.573   0.402   2.499 -0.9747  1.2603  2.6287
   16MOL0     H 2151   8.618   0.501   2.626  0.2318 -1.2932  0.2503
   16MOL0     H 2152   8.633   0.569   2.331  2.2964  2.9316 -0.6149
   16MOL0     H 2153   8.681   0.678   2.464  0.1065  0.4364 -0.7727
   16MOL0     H 2154   8.432   0.652   2.553 -3.0911  0.6388 -1.3753
   16MOL0     H 2155   8.411   0.568   2.391 -1.9627  0.5404  1.1489
   16MOL0     H 2156   8.465   0.778   2.279  1.3874  0.5983  0.2313
   16MOL0     H 2157   8.496   0.863   2.432 -1.8901  1.1910 -0.5399
   16MOL0     H 2158   8.087   0.866   2.405  0.8887  0.9982  0.6117
   16MOL0     H 2159   8.964   0.581   2.386  0.2633  0.9900  0.2680
   16MOL0     H 2160   9.145   0.732   2.508  0.9402  1.3074  2.4858
   17MOL0     O 2161   0.456  10.828   7.238  0.2546  0.2116  0.1011
   17MOL0     C 2162   0.451  10.736   7.319 -0.0496 -0.5818 -0.0590
   17MOL0     O 2163   0.341  10.666   7.342  0.6412 -0.5987  0.2230
   17MOL0     C 2164   0.257  10.651   7.227  0.3794 -0.1430  0.5563
   17MOL0     C 2165   0.299  10.566   7.124  0.7796  0.5625  0.2456
   17MOL0     C 2166   0.203  10.536   7.029  0.8192  0.8588 -0.4682
   17MOL0     C 2167   0.070  10.577   7.040 -0.4166  0.6716  0.0514
   17MOL0     O 2168  -0.043  10.544   6.957 -0.1881  0.0356 -0.2017
   17MOL0     C 2169  -0.037  10.478   6.827  0.4918  0.4790 -0.4813
   17MOL0     C 2170  -0.171  10.479   6.753  0.2621 -0.8209  1.1696
   17MOL0     C 2171  -0.288  10.442   6.849  0.0204 -0.0002  1.1178
   17MOL0     C 2172  -0.418  10.452   6.772 -1.4722  0.2687  0.3868
   17MOL0     C 2173  -0.525  10.367   6.830 -0.7921 -0.1284  1.1096
   17MOL0     C 2174  -0.505  10.218   6.848  0.8672 -0.2273 -0.6937
   17MOL0     C 2175  -0.631  10.154   6.907 -0.7841  0.7483 -0.0053
   17MOL0     C 2176  -0.602  10.005   6.919  0.0594  1.2984 -0.4859
   17MOL0     N 2177  -0.717   9.924   6.965 -0.5036  0.0356 -0.1266
   17MOL0     C 2178  -0.795   9.935   7.073  0.2404  0.0459 -0.3341
   17MOL0     C 2179  -0.906   9.865   7.047 -0.3149 -0.0457  0.0063
   17MOL0     C 2180  -1.029   9.861   7.130  0.8169 -0.2560  0.8287
   17MOL0     C 2181  -1.153   9.933   7.063 -0.1822  0.6384 -0.2799
   17MOL0     C 2182  -1.287   9.875   7.121  0.3691  0.1309  0.1036
   17MOL0     C 2183  -1.303   9.879   7.281 -0.6388 -0.2567  0.4962
   17MOL0     O 2184  -1.342  10.015   7.326  0.5302 -0.0479  0.0407
   17MOL0     C 2185  -1.472  10.041   7.338  0.3567 -0.3492  0.1977
   17MOL0     C 2186  -1.528  10.012   7.462 -0.3057 -0.1175 -0.2007
   17MOL0     C 2187  -1.666  10.037   7.492 -0.6134  1.0840  0.0882
   17MOL0     C 2188  -1.699  10.026   7.634  0.7762 -0.1754 -0.3047
   17MOL0     C 2189  -1.751  10.076   7.383 -0.9023  0.3101 -0.9687
   17MOL0     C 2190  -1.892  10.108   7.396  0.1627  0.3679  0.2216
   17MOL0     O 2191  -1.963  10.138   7.281 -1.3433  0.0178 -0.3571
   17MOL0     C 2192  -2.098  10.152   7.286  0.1416  0.8108 -0.2057
   17MOL0     C 2193  -2.181  10.038   7.299 -0.0693  0.2382 -0.3628
   17MOL0     C 2194  -2.320  10.044   7.319 -0.1930 -0.3968  0.5802
   17MOL0     C 2195  -2.385  10.168   7.334  0.5932  0.0874  0.2714
   17MOL0     O 2196  -2.522  10.168   7.347 -0.1857  0.3166  0.7000
   17MOL0     C 2197  -2.583  10.219   7.231 -0.1638  0.8653  0.3104
   17MOL0     C 2198  -2.731  10.206   7.238 -0.0879  0.0946 -0.4598
   17MOL0     C 2199  -2.774  10.098   7.328  0.0069  0.0093 -0.4733
   17MOL0     C 2200  -2.917  10.050   7.296 -0.6133  0.0134  0.3423
   17MOL0     C 2201  -2.998   9.953   7.394 -0.3146  0.5324  0.2450
   17MOL0     C 2202  -3.001   9.987   7.540 -0.5576  0.0647  0.2007
   17MOL0     C 2203  -3.124   9.933   7.622 -0.2899  0.5603  0.3458
   17MOL0     C 2204  -3.139   9.776   7.605 -0.1542 -0.3982  0.9721
   17MOL0    Cl 2205  -2.995   9.701   7.678 -0.0154 -0.2360  0.0040
   17MOL0     C 2206  -2.304  10.278   7.333 -0.1149 -0.4636 -0.2206
   17MOL0     C 2207  -2.166  10.270   7.299  0.8719 -0.2113 -0.1151
   17MOL0     O 2208  -1.945  10.079   7.501  0.6291 -0.0522 -0.1012
   17MOL0     C 2209  -1.687  10.099   7.258 -0.0547  0.3819  0.1399
   17MOL0     C 2210  -1.547  10.102   7.235  0.5743  0.6306 -0.0195
   17MOL0     N 2211  -0.890   9.798   6.929  0.1716 -0.1141  0.5589
   17MOL0     N 2212  -0.770   9.836   6.875  0.2589  1.3077  0.0525
   17MOL0     C 2213   0.031  10.653   7.147  0.2886  0.3035  1.1132
   17MOL0     C 2214   0.126  10.680   7.242 -0.7227  0.1940 -0.2653
   17MOL0     C 2215   0.570  10.699   7.386  0.2294  0.7458 -0.1151
   17MOL0     C 2216   0.690  10.718   7.323 -0.4591  0.4896 -0.0510
   17MOL0     C 2217   0.806  10.692   7.400 -0.7053 -0.6904  0.5803
   17MOL0     C 2218   0.810  10.631   7.526 -1.1111  0.1448  0.2591
   17MOL0     O 2219   0.912  10.605   7.611 -0.3483 -0.2217  0.3835
   17MOL0     C 2220   1.036  10.647   7.552  0.1861  0.0134  0.5026
   17MOL0     C 2221   1.150  10.587   7.638  0.1621 -0.2390  0.5222
   17MOL0     C 2222   1.296  10.632   7.602 -0.0165  0.1682 -0.6966
   17MOL0     C 2223   1.389  10.541   7.690  0.0411 -0.2568  0.3179
   17MOL0     C 2224   1.534  10.571   7.678  0.1606  0.3958  0.4651
   17MOL0     C 2225   1.643  10.588   7.656  0.0525  0.2482 -0.4662
   17MOL0     C 2226   0.688  10.594   7.574  0.1333 -0.1650 -0.3929
   17MOL0     C 2227   0.564  10.648   7.516 -0.3944 -0.6921 -0.5745
   17MOL0     H 2228   0.394  10.514   7.123  0.0781 -0.8622  2.0596
   17MOL0     H 2229   0.222  10.475   6.942 -1.7085  0.8155 -1.0692
   17MOL0     H 2230   0.043  10.512   6.762  2.2786 -0.7798  0.9512
   17MOL0     H 2231  -0.026  10.370   6.844 -4.7532  0.0829  2.7251
   17MOL0     H 2232  -0.186  10.582   6.718 -0.6012 -1.5416 -0.7294
   17MOL0     H 2233  -0.158  10.416   6.664  0.2410  1.3795 -0.4931
   17MOL0     H 2234  -0.262  10.340   6.877  2.3451  0.2486  0.0904
   17MOL0     H 2235  -0.290  10.509   6.935  0.3865  2.1291 -0.4425
   17MOL0     H 2236  -0.451  10.556   6.767  1.1431  1.1891  0.6806
   17MOL0     H 2237  -0.409  10.434   6.665 -2.8907  1.5649  0.0203
   17MOL0     H 2238  -0.554  10.415   6.924  0.3322  0.7795  1.0137
   17MOL0     H 2239  -0.603  10.372   6.753  0.4610 -0.7541 -0.2506
   17MOL0     H 2240  -0.483  10.169   6.753 -0.5501  1.7176 -2.0977
   17MOL0     H 2241  -0.421  10.200   6.916  0.3277 -2.2520 -0.5080
   17MOL0     H 2242  -0.663  10.196   7.003 -2.9024  0.1711 -0.4105
   17MOL0     H 2243  -0.713  10.170   6.836 -0.2543  2.9805 -0.1810
   17MOL0     H 2244  -0.517   9.993   6.987  1.5468 -0.8784 -2.5463
   17MOL0     H 2245  -0.567   9.960   6.825 -2.9420 -0.2795 -1.0004
   17MOL0     H 2246  -0.776   9.988   7.165 -1.2203  2.3913 -1.2902
   17MOL0     H 2247  -1.058   9.758   7.151 -1.3659  0.1844  0.2304
   17MOL0     H 2248  -1.009   9.918   7.222 -0.9493 -1.4073  1.9960
   17MOL0     H 2249  -1.146   9.900   6.959 -1.1654 -0.4176 -0.0274
   17MOL0     H 2250  -1.146  10.042   7.074 -1.4374  0.8159 -0.9506
   17MOL0     H 2251  -1.316   9.774   7.089 -0.4470  0.6215 -0.7725
   17MOL0     H 2252  -1.367   9.933   7.074 -1.4072 -1.4775  0.9824
   17MOL0     H 2253  -1.205   9.856   7.325  0.0917 -0.9370 -1.3773
   17MOL0     H 2254  -1.379   9.809   7.316 -2.6579  1.4562 -0.2658
   17MOL0     H 2255  -1.471   9.973   7.546 -1.0628 -0.3493  0.2115
   17MOL0     H 2256  -1.748   9.936   7.672 -0.7541  1.0285  0.7165
   17MOL0     H 2257  -1.612  10.035   7.701 -0.2269  2.1017  0.7834
   17MOL0     H 2258  -1.763  10.112   7.655  2.3577  0.6249  1.5839
   17MOL0     H 2259  -2.129   9.943   7.295 -0.4203  0.0892 -2.1317
   17MOL0     H 2260  -2.371   9.948   7.310 -0.9794 -0.1595  2.1432
   17MOL0     H 2261  -2.558  10.325   7.231 -1.4369  1.1991 -0.9062
   17MOL0     H 2262  -2.549  10.165   7.142 -2.9993  0.9487 -0.9532
   17MOL0     H 2263  -2.779  10.302   7.259 -0.5131 -0.5110  1.5983
   17MOL0     H 2264  -2.758  10.173   7.137  0.9684  0.2208 -0.7957
   17MOL0     H 2265  -2.765  10.121   7.435 -3.3371  0.4688 -0.1721
   17MOL0     H 2266  -2.708  10.015   7.304  1.1757  0.3051  1.5336
   17MOL0     H 2267  -2.969  10.146   7.299 -0.1206  0.3556 -1.3862
   17MOL0     H 2268  -2.926  10.006   7.196  2.9377 -1.2410  0.4206
   17MOL0     H 2269  -2.945   9.858   7.387 -1.3290 -0.0392  0.1005
   17MOL0     H 2270  -3.099   9.951   7.352 -0.4545 -0.0520  0.6139
   17MOL0     H 2271  -2.909   9.953   7.589 -0.6756  0.5010  0.7382
   17MOL0     H 2272  -3.000  10.096   7.555  0.9158  0.1049 -0.0568
   17MOL0     H 2273  -3.213   9.987   7.585 -0.7014  0.0620  0.5988
   17MOL0     H 2274  -3.109   9.953   7.728 -0.1481  3.4740 -0.1436
   17MOL0     H 2275  -3.143   9.741   7.501  0.7836 -1.9103  1.4240
   17MOL0     H 2276  -3.236   9.755   7.650 -1.8978  0.6576 -1.9574
   17MOL0     H 2277  -2.352  10.374   7.351  2.8521  2.0291 -3.8922
   17MOL0     H 2278  -2.105  10.359   7.310  0.1063  0.4825 -1.3371
   17MOL0     H 2279  -1.741  10.129   7.169 -2.1078  0.5927  1.3804
   17MOL0     H 2280  -1.509  10.130   7.137 -2.3143 -1.7923 -2.0074
   17MOL0     H 2281  -0.071  10.689   7.150  0.2124  0.3776 -0.9694
   17MOL0     H 2282   0.101  10.738   7.330 -2.3144 -1.0266  0.1411
   17MOL0     H 2283   0.696  10.762   7.224 -3.0425  3.2011  0.8547
   17MOL0     H 2284   0.895  10.734   7.353 -2.3266  2.4139  0.0623
   17MOL0     H 2285   1.035  10.621   7.445 -0.3739  2.2239 -0.0801
   17MOL0     H 2286   1.044  10.756   7.555 -2.1509  0.3310 -1.5487
   17MOL0     H 2287   1.135  10.479   7.646 -4.1828  0.2859  2.0431
   17MOL0     H 2288   1.132  10.627   7.738  1.9558  0.7970  0.4740
   17MOL0     H 2289   1.300  10.737   7.631 -4.3596  0.3859 -0.3700
   17MOL0     H 2290   1.321  10.615   7.496  0.6958  0.8804 -0.6518
   17MOL0     H 2291   1.374  10.434   7.673  0.8809 -0.1605 -1.2911
   17MOL0     H 2292   1.359  10.546   7.795  0.0466 -0.9630  0.3568
   17MOL0     H 2293   1.742  10.626   7.640 -0.4113  2.2629  0.9386
   17MOL0     H 2294   0.698  10.540   7.668  2.0738  0.7355 -0.0230
   17MOL0     H 2295   0.471  10.626   7.567 -0.5693 -0.6179 -0.8640
   18MOL0     O 2296   3.821  10.694   6.199 -0.5141 -0.0777  0.5572
   18MOL0     C 2297   3.862  10.620   6.290  0.3605  0.2063  0.8289
   18MOL0     O 2298   3.791  10.506   6.326 -0.2792 -0.1880  0.3289
   18MOL0     C 2299   3.663  10.495   6.284 -0.2786  0.0334 -0.6278
   18MOL0     C 2300   3.567  10.590   6.302 -0.4485 -0.0030 -0.0260
   18MOL0     C 2301   3.431  10.562   6.290 -0.3684 -1.1513 -0.1783
   18MOL0     C 2302   3.400  10.435   6.241 -0.6901 -0.1023 -0.1798
   18MOL0     O 2303   3.275  10.389   6.232  0.4613 -0.3298  0.2495
   18MOL0     C 2304   3.163  10.479   6.196  1.3130 -0.4134 -0.4178
   18MOL0     C 2305   3.026  10.403   6.223 -0.4941 -0.1791  0.1363
   18MOL0     C 2306   3.045  10.262   6.177  0.1876 -0.4731  0.6846
   18MOL0     C 2307   2.917  10.198   6.137  0.5944  0.2259 -0.9914
   18MOL0     C 2308   2.947  10.056   6.083 -0.1637  0.5297 -0.4260
   18MOL0     C 2309   2.823   9.973   6.047 -0.1127  0.7259  0.0082
   18MOL0     C 2310   2.846   9.875   5.929  0.0328 -0.2419  0.5728
   18MOL0     C 2311   2.756   9.752   5.937 -0.4804 -0.5828  0.1910
   18MOL0     N 2312   2.619   9.784   5.964 -0.3863  0.3958  0.3430
   18MOL0     C 2313   2.544   9.845   5.867  0.1999  0.6675 -0.8208
   18MOL0     C 2314   2.428   9.871   5.936  0.2003  0.0285 -0.1051
   18MOL0     C 2315   2.321   9.951   5.878  0.3370  0.4447  0.7773
   18MOL0     C 2316   2.250   9.860   5.776 -0.3189 -0.3263  0.1849
   18MOL0     C 2317   2.117   9.931   5.729  0.0823  0.7399 -0.8709
   18MOL0     C 2318   1.982   9.883   5.791  0.2305 -0.8373  0.0100
   18MOL0     O 2319   1.863   9.927   5.726  0.0615 -0.2090 -0.0357
   18MOL0     C 2320   1.741   9.866   5.749  0.2722  0.1116 -0.0788
   18MOL0     C 2321   1.724   9.753   5.826 -0.8140 -0.3551 -0.8427
   18MOL0     C 2322   1.599   9.694   5.840 -0.6739 -0.3558 -0.3582
   18MOL0     C 2323   1.605   9.572   5.926  0.2348  0.0062 -0.3063
   18MOL0     C 2324   1.489   9.735   5.768 -0.1329  0.5244  0.2962
   18MOL0     C 2325   1.355   9.676   5.783  0.4697 -0.4577  0.7528
   18MOL0     O 2326   1.261   9.734   5.698  0.1472 -0.1856  0.7102
   18MOL0     C 2327   1.146   9.666   5.680  0.1760 -0.5617 -0.1882
   18MOL0     C 2328   1.135   9.588   5.562 -0.2890 -0.1762  0.1563
   18MOL0     C 2329   1.015   9.528   5.525  0.5692 -0.2633 -0.0231
   18MOL0     C 2330   0.903   9.530   5.612  0.3140 -0.3427 -0.3756
   18MOL0     O 2331   0.789   9.465   5.574 -0.1707  0.5229  0.2248
   18MOL0     C 2332   0.681   9.449   5.667 -0.4571 -0.3989 -0.1645
   18MOL0     C 2333   0.569   9.373   5.599 -0.6425  0.5456  0.2435
   18MOL0     C 2334   0.444   9.373   5.680  0.6659  1.1428 -0.0119
   18MOL0     C 2335   0.324   9.286   5.618  0.9004  0.1113 -0.4295
   18MOL0     C 2336   0.209   9.295   5.721 -0.2952 -0.1857 -0.2069
   18MOL0     C 2337   0.120   9.423   5.706 -0.1782 -0.2958 -0.7543
   18MOL0     C 2338   0.051   9.474   5.832 -0.7930 -0.8397  0.6191
   18MOL0     C 2339  -0.071   9.384   5.856 -0.3242 -0.9984  0.0408
   18MOL0    Cl 2340  -0.149   9.427   6.009  0.3170  0.2491 -0.0539
   18MOL0     C 2341   0.922   9.609   5.732  0.2063 -0.7079  0.0580
   18MOL0     C 2342   1.039   9.685   5.762  0.9269  0.0948  0.2179
   18MOL0     O 2343   1.327   9.616   5.886  0.6215 -0.3313  0.4167
   18MOL0     C 2344   1.516   9.842   5.674  0.0854 -0.8343  0.1809
   18MOL0     C 2345   1.628   9.916   5.677  0.1665 -0.5090  0.1854
   18MOL0     N 2346   2.432   9.806   6.061  0.1805  0.3660  0.9647
   18MOL0     N 2347   2.550   9.750   6.071 -0.0200 -0.3222 -0.0632
   18MOL0     C 2348   3.497  10.337   6.212  0.1311 -0.5052 -0.4520
   18MOL0     C 2349   3.628  10.368   6.236  0.7863 -0.0612  0.7677
   18MOL0     C 2350   3.984  10.654   6.359 -0.0398 -0.5207  0.6087
   18MOL0     C 2351   4.046  10.777   6.340 -0.2854 -0.0749 -0.3509
   18MOL0     C 2352   4.165  10.813   6.408  0.2137  0.4115  0.0307
   18MOL0     C 2353   4.216  10.727   6.511  0.8806  0.9337  0.7451
   18MOL0     O 2354   4.331  10.744   6.587 -0.5580 -0.0698  0.9855
   18MOL0     C 2355   4.410  10.870   6.582  0.6313 -0.2569 -0.1869
   18MOL0     C 2356   4.517  10.866   6.697  0.3068  0.5890 -0.0528
   18MOL0     C 2357   4.622  10.756   6.659 -0.6133  0.5886  0.1727
   18MOL0     C 2358   4.741  10.761   6.753  0.1617 -0.5313 -0.8017
   18MOL0     C 2359   4.824  10.876   6.721  0.5770  0.2267 -0.7149
   18MOL0     C 2360   4.895  10.971   6.704 -0.1301  0.0065 -0.6867
   18MOL0     C 2361   4.151  10.605   6.521  0.1544  0.3449  0.8023
   18MOL0     C 2362   4.034  10.574   6.455 -0.0749 -0.0283  0.1403
   18MOL0     H 2363   3.598  10.685   6.345  1.1564 -0.8952  0.8965
   18MOL0     H 2364   3.347  10.630   6.292 -1.7689 -2.6547 -2.4637
   18MOL0     H 2365   3.157  10.572   6.252 -0.5703 -0.1426 -0.9898
   18MOL0     H 2366   3.179  10.510   6.092 -0.4006  1.4869 -0.1586
   18MOL0     H 2367   3.002  10.403   6.329  0.1418  2.3369  0.3561
   18MOL0     H 2368   2.946  10.446   6.162  0.3855  2.1815  0.5344
   18MOL0     H 2369   3.108  10.256   6.088  0.0191 -4.0940  0.6434
   18MOL0     H 2370   3.102  10.199   6.247  4.3671  0.8497 -1.2183
   18MOL0     H 2371   2.851  10.181   6.223 -1.3504 -1.7509 -2.7402
   18MOL0     H 2372   2.868  10.260   6.062  1.9008  4.7113  1.4969
   18MOL0     H 2373   2.997  10.062   5.986  0.6930  1.4015  0.0466
   18MOL0     H 2374   3.010  10.001   6.153 -0.1259  2.5043  1.1783
   18MOL0     H 2375   2.784   9.921   6.135 -1.2449 -2.4837 -2.2149
   18MOL0     H 2376   2.750  10.044   6.008  1.4479  3.0380  1.1069
   18MOL0     H 2377   2.834   9.928   5.834  0.6720 -1.1457 -0.0176
   18MOL0     H 2378   2.948   9.842   5.946 -0.3772 -0.1018  4.0088
   18MOL0     H 2379   2.798   9.692   6.017 -0.1351 -2.1353 -1.1072
   18MOL0     H 2380   2.771   9.700   5.842  0.9990  1.2629 -0.6533
   18MOL0     H 2381   2.570   9.862   5.763 -0.4198 -0.0671 -1.1037
   18MOL0     H 2382   2.250   9.986   5.953 -2.8197  0.9807 -2.2276
   18MOL0     H 2383   2.364  10.044   5.839 -0.6952  1.0127  0.9553
   18MOL0     H 2384   2.225   9.766   5.826  0.1632 -0.1916  0.6859
   18MOL0     H 2385   2.316   9.846   5.689 -2.1200  0.9079 -1.4687
   18MOL0     H 2386   2.115   9.914   5.621  1.0227  0.9162 -0.9204
   18MOL0     H 2387   2.107  10.039   5.735  0.6423  0.8463 -1.7297
   18MOL0     H 2388   1.984   9.907   5.898 -1.4966 -0.9272  0.0963
   18MOL0     H 2389   1.984   9.774   5.786  1.9845 -1.0721  3.3682
   18MOL0     H 2390   1.796   9.711   5.895  0.3334  0.5655 -1.4297
   18MOL0     H 2391   1.704   9.531   5.949 -1.4479 -5.2653 -1.0996
   18MOL0     H 2392   1.568   9.608   6.022 -0.2281 -3.3776  0.9271
   18MOL0     H 2393   1.541   9.491   5.891 -2.5394  1.7843  0.3857
   18MOL0     H 2394   1.225   9.584   5.502 -0.9144 -0.7373 -0.7661
   18MOL0     H 2395   1.016   9.471   5.433  2.5319 -0.7640  0.2549
   18MOL0     H 2396   0.719   9.394   5.755  1.8979  0.5644 -0.4983
   18MOL0     H 2397   0.647   9.550   5.692  1.3308  0.4321 -0.8710
   18MOL0     H 2398   0.556   9.414   5.499  0.7962 -2.1905 -1.1643
   18MOL0     H 2399   0.596   9.268   5.589  0.2047  0.7955 -0.1795
   18MOL0     H 2400   0.418   9.476   5.709 -2.2763 -0.2760  3.2156
   18MOL0     H 2401   0.474   9.336   5.779  2.6903  1.0571 -0.6178
   18MOL0     H 2402   0.301   9.338   5.525 -0.4372  2.7846  1.2737
   18MOL0     H 2403   0.344   9.180   5.601  1.3881 -0.2174  1.8898
   18MOL0     H 2404   0.242   9.290   5.825  2.3597  2.3228 -0.8129
   18MOL0     H 2405   0.145   9.208   5.703 -0.2864  0.1135 -1.9367
   18MOL0     H 2406   0.184   9.499   5.661  0.5314 -0.3541  0.1108
   18MOL0     H 2407   0.043   9.411   5.630  0.5365  0.4830 -1.6237
   18MOL0     H 2408   0.013   9.576   5.817  0.2079 -0.4289  0.8002
   18MOL0     H 2409   0.126   9.462   5.910  3.0388 -0.9405 -2.7309
   18MOL0     H 2410  -0.052   9.277   5.858 -1.3232 -1.1772  1.9688
   18MOL0     H 2411  -0.142   9.396   5.774  0.5141 -2.8027 -1.0063
   18MOL0     H 2412   0.842   9.615   5.805 -0.8349  3.3429 -1.1792
   18MOL0     H 2413   1.044   9.749   5.850  2.6111 -1.6070  1.4229
   18MOL0     H 2414   1.442   9.877   5.603 -0.7715  1.0149  1.8702
   18MOL0     H 2415   1.657   9.997   5.610  2.3424 -2.0912 -0.9195
   18MOL0     H 2416   3.458  10.240   6.180 -3.4384 -0.5970  3.2240
   18MOL0     H 2417   3.712  10.306   6.208  1.0502 -0.2493  1.9057
   18MOL0     H 2418   4.008  10.847   6.266 -2.9945  0.1695  1.1432
   18MOL0     H 2419   4.218  10.907   6.393 -0.9174  0.7764 -2.1318
   18MOL0     H 2420   4.457  10.881   6.484  0.0551 -0.3735 -0.4755
   18MOL0     H 2421   4.345  10.955   6.604 -0.9152 -1.3731 -0.2834
   18MOL0     H 2422   4.468  10.830   6.788 -1.2752 -1.7349 -1.7070
   18MOL0     H 2423   4.574  10.959   6.703  2.5899 -0.5898 -1.7403
   18MOL0     H 2424   4.654  10.781   6.558  1.5299 -2.5973 -0.0815
   18MOL0     H 2425   4.574  10.658   6.656 -1.1377  0.8638 -1.3174
   18MOL0     H 2426   4.806  10.674   6.740  3.6103  1.4111  1.6217
   18MOL0     H 2427   4.706  10.767   6.856  0.5075  0.4332 -0.7265
   18MOL0     H 2428   4.957  11.054   6.676 -0.7862  0.5821 -0.4629
   18MOL0     H 2429   4.191  10.525   6.583  2.5289  1.9918  1.5085
   18MOL0     H 2430   3.989  10.476   6.474  1.9822 -1.5206 -2.2003
   19MOL0     O 2431   2.899   6.822   1.713 -0.0653 -0.2209 -0.2190
   19MOL0     C 2432   2.929   6.743   1.624  0.0621 -0.3750  0.7166
   19MOL0     O 2433   2.847   6.654   1.571  0.2670 -0.4958 -0.1284
   19MOL0     C 2434   2.725   6.644   1.616  0.2867  1.0021 -0.9552
   19MOL0     C 2435   2.624   6.703   1.543  0.3627  0.1510  0.2008
   19MOL0     C 2436   2.497   6.710   1.602 -0.0231 -1.3569 -0.0167
   19MOL0     C 2437   2.464   6.632   1.721  0.3177 -0.1735 -0.3779
   19MOL0     O 2438   2.345   6.643   1.792  0.1722 -0.5833  0.0338
   19MOL0     C 2439   2.239   6.703   1.721  0.1749 -0.7192  0.4399
   19MOL0     C 2440   2.109   6.647   1.776 -0.1820  0.4907 -0.2196
   19MOL0     C 2441   1.989   6.699   1.696  0.0935 -0.3501  0.3721
   19MOL0     C 2442   1.848   6.640   1.741  0.4539  0.4182  0.3324
   19MOL0     C 2443   1.734   6.738   1.690 -0.1398 -0.7848  0.7795
   19MOL0     C 2444   1.609   6.661   1.642  0.1092 -0.4500  0.2300
   19MOL0     C 2445   1.506   6.765   1.628  0.4132 -0.4324 -0.1471
   19MOL0     C 2446   1.372   6.708   1.563  0.3409  0.8703 -0.1718
   19MOL0     N 2447   1.287   6.664   1.672  0.5536  0.1304  0.2573
   19MOL0     C 2448   1.225   6.741   1.765  1.3377  0.2636 -0.0117
   19MOL0     C 2449   1.156   6.651   1.849  0.0656 -0.9388  0.3964
   19MOL0     C 2450   1.059   6.682   1.955 -0.2995  0.8093  0.8583
   19MOL0     C 2451   0.938   6.739   1.897 -0.1569 -0.0760  0.4215
   19MOL0     C 2452   0.847   6.787   1.998 -0.3874  0.3745  0.3520
   19MOL0     C 2453   0.768   6.673   2.074 -0.2766  0.5196  0.5269
   19MOL0     O 2454   0.723   6.566   1.986  0.1654 -0.3982 -0.0384
   19MOL0     C 2455   0.606   6.578   1.913 -0.2860 -0.1779  1.0916
   19MOL0     C 2456   0.584   6.468   1.825 -0.8428  0.8482 -0.4495
   19MOL0     C 2457   0.487   6.473   1.728 -0.1377  0.0664  0.8145
   19MOL0     C 2458   0.492   6.368   1.621  0.1315  0.6211  0.1620
   19MOL0     C 2459   0.385   6.572   1.739  0.5219  0.0471  0.0047
   19MOL0     C 2460   0.273   6.579   1.642  0.3049 -0.0604  0.0122
   19MOL0     O 2461   0.211   6.699   1.625 -0.1754 -0.4205  0.3050
   19MOL0     C 2462   0.099   6.713   1.544 -0.7760  0.4491  0.3101
   19MOL0     C 2463   0.093   6.814   1.436 -0.7542 -0.1436 -0.2352
   19MOL0     C 2464  -0.026   6.835   1.365  0.3744  0.4079 -0.4112
   19MOL0     C 2465  -0.142   6.759   1.398  0.0062  0.2281 -0.3933
   19MOL0     O 2466  -0.271   6.776   1.345  0.1850  0.2363 -0.6841
   19MOL0     C 2467  -0.284   6.881   1.247  0.0519 -0.7220 -1.0189
   19MOL0     C 2468  -0.429   6.893   1.207  0.2474  0.6557  0.3409
   19MOL0     C 2469  -0.530   6.895   1.317 -0.1845  0.5508 -0.0345
   19MOL0     C 2470  -0.670   6.866   1.261  0.6165 -0.2367 -0.2417
   19MOL0     C 2471  -0.773   6.898   1.368  0.3916  0.2689 -0.7318
   19MOL0     C 2472  -0.918   6.879   1.319  0.1014  0.1501  0.1209
   19MOL0     C 2473  -1.008   6.841   1.436  0.0421 -0.1263  0.2357
   19MOL0     C 2474  -1.068   6.951   1.522  0.2082 -0.1997 -0.1516
   19MOL0    Cl 2475  -0.963   7.018   1.655 -0.3855  0.0686 -0.5072
   19MOL0     C 2476  -0.136   6.664   1.503  1.0437  0.3907 -0.3716
   19MOL0     C 2477  -0.017   6.636   1.563  0.2105  0.5347 -0.1642
   19MOL0     O 2478   0.237   6.477   1.583 -0.3858  0.0616 -0.5375
   19MOL0     C 2479   0.387   6.666   1.844 -0.2317  0.5550  0.0536
   19MOL0     C 2480   0.510   6.677   1.911  0.6065 -0.3668  0.5542
   19MOL0     N 2481   1.186   6.527   1.797  0.1603  0.4870  0.6481
   19MOL0     N 2482   1.262   6.536   1.698  0.0073 -0.0045  0.5949
   19MOL0     C 2483   2.572   6.558   1.781  0.3624  0.4206  0.2403
   19MOL0     C 2484   2.699   6.565   1.733  0.0959  0.5624 -0.2856
   19MOL0     C 2485   3.077   6.747   1.582  0.0304 -0.4172  0.6197
   19MOL0     C 2486   3.150   6.861   1.603  0.1011  0.1180 -0.5147
   19MOL0     C 2487   3.280   6.874   1.556  0.5383  0.0331  0.2929
   19MOL0     C 2488   3.349   6.767   1.500  0.7940  0.5246 -0.0285
   19MOL0     O 2489   3.486   6.786   1.474  0.0278  0.4486 -0.4068
   19MOL0     C 2490   3.569   6.669   1.473  0.5553  0.0370 -0.2800
   19MOL0     C 2491   3.698   6.681   1.536 -0.4049 -0.1966 -0.5533
   19MOL0     C 2492   3.798   6.573   1.520  0.5238 -0.0742 -0.7155
   19MOL0     C 2493   3.925   6.605   1.593 -0.4698 -0.1034  0.1778
   19MOL0     C 2494   4.028   6.503   1.567  0.1285  0.0570 -0.5763
   19MOL0     C 2495   4.116   6.422   1.557 -0.1468 -0.0221 -0.6806
   19MOL0     C 2496   3.270   6.655   1.478 -0.3656  0.8213  0.8231
   19MOL0     C 2497   3.131   6.644   1.510  1.4590 -0.8721 -0.2909
   19MOL0     H 2498   2.644   6.756   1.451 -0.1427  1.9101  1.0562
   19MOL0     H 2499   2.422   6.751   1.536 -0.1266 -1.4558  0.0384
   19MOL0     H 2500   2.250   6.811   1.712  0.2495 -0.8184 -0.8989
   19MOL0     H 2501   2.232   6.673   1.616  0.3111  0.2736  0.1424
   19MOL0     H 2502   2.104   6.539   1.767 -1.4512  0.6259 -1.5340
   19MOL0     H 2503   2.101   6.664   1.884  1.0531  0.9698 -0.1882
   19MOL0     H 2504   1.991   6.808   1.707 -1.1196 -0.1452 -1.0423
   19MOL0     H 2505   1.995   6.675   1.589 -1.0205 -2.1388  0.6764
   19MOL0     H 2506   1.845   6.538   1.702 -2.2140 -0.0538  1.5371
   19MOL0     H 2507   1.834   6.634   1.849  1.5184 -4.1100  0.4186
   19MOL0     H 2508   1.713   6.812   1.768  2.4420 -0.0365  0.8591
   19MOL0     H 2509   1.773   6.790   1.602  1.3906 -3.9853 -0.5919
   19MOL0     H 2510   1.628   6.619   1.543 -3.3516 -2.5195  0.2570
   19MOL0     H 2511   1.581   6.586   1.716  0.5874  0.4860  1.3808
   19MOL0     H 2512   1.490   6.802   1.730  0.7449 -1.3614  0.2519
   19MOL0     H 2513   1.542   6.848   1.566 -2.9587  1.1487 -0.2594
   19MOL0     H 2514   1.385   6.617   1.503 -0.2751  0.6122  0.0821
   19MOL0     H 2515   1.314   6.783   1.508  0.7607  1.3631  0.0464
   19MOL0     H 2516   1.219   6.848   1.776  1.6001  0.2591  0.1926
   19MOL0     H 2517   1.034   6.594   2.013  0.9339  0.7286  1.2932
   19MOL0     H 2518   1.103   6.751   2.027  2.6794  0.4607 -0.4775
   19MOL0     H 2519   0.895   6.667   1.826  0.3622 -1.4043  1.4057
   19MOL0     H 2520   0.961   6.839   1.858  0.5919 -0.5390 -0.3633
   19MOL0     H 2521   0.777   6.848   1.939  0.0807 -1.8441 -2.7478
   19MOL0     H 2522   0.903   6.843   2.073 -0.0770  1.5946 -0.7474
   19MOL0     H 2523   0.684   6.721   2.125 -0.3189 -0.6183  1.5518
   19MOL0     H 2524   0.838   6.623   2.141  0.0272  0.1907 -0.0299
   19MOL0     H 2525   0.661   6.392   1.821 -1.4331  0.1184  1.1418
   19MOL0     H 2526   0.417   6.292   1.644 -0.7462  1.9541  1.9878
   19MOL0     H 2527   0.463   6.403   1.521 -0.8992 -0.3770  0.0873
   19MOL0     H 2528   0.590   6.321   1.621 -0.7461 -1.3020 -0.0819
   19MOL0     H 2529   0.185   6.867   1.415 -1.4046  0.0151 -3.2465
   19MOL0     H 2530  -0.041   6.901   1.280 -2.3382 -2.2642 -2.2453
   19MOL0     H 2531  -0.251   6.976   1.289 -1.0023 -0.9096  0.3142
   19MOL0     H 2532  -0.219   6.871   1.159  0.1954 -0.3169 -0.9582
   19MOL0     H 2533  -0.446   6.989   1.156  1.5215  1.4654  1.3822
   19MOL0     H 2534  -0.454   6.805   1.147 -0.1315  0.3641  0.9198
   19MOL0     H 2535  -0.522   6.983   1.381  2.8488 -1.9234  3.4905
   19MOL0     H 2536  -0.508   6.812   1.385  2.0770  1.7043  0.7237
   19MOL0     H 2537  -0.689   6.921   1.168 -3.7653  0.4386  0.8333
   19MOL0     H 2538  -0.655   6.759   1.240 -1.0936 -0.4656 -0.4202
   19MOL0     H 2539  -0.765   7.002   1.401  0.6906 -0.5533  2.0238
   19MOL0     H 2540  -0.745   6.831   1.449 -2.9309  1.6375  1.7996
   19MOL0     H 2541  -0.953   6.974   1.279 -3.3557 -0.1480  2.0175
   19MOL0     H 2542  -0.931   6.802   1.242  0.3859  1.3296 -1.1258
   19MOL0     H 2543  -0.962   6.769   1.504  2.8616  2.1643  0.9719
   19MOL0     H 2544  -1.103   6.798   1.401 -0.9620  0.2816  2.2794
   19MOL0     H 2545  -1.163   6.917   1.562 -0.0486  0.2013 -0.4148
   19MOL0     H 2546  -1.096   7.032   1.453 -1.5431  0.9610  1.8159
   19MOL0     H 2547  -0.233   6.620   1.525 -0.9775  3.6502 -2.0432
   19MOL0     H 2548  -0.004   6.563   1.642  1.0675 -1.1117 -1.7420
   19MOL0     H 2549   0.307   6.737   1.858 -0.3672  0.3437  0.3596
   19MOL0     H 2550   0.525   6.768   1.968  1.1420  1.1062 -1.7905
   19MOL0     H 2551   2.558   6.499   1.871  2.2698 -1.8454 -0.8460
   19MOL0     H 2552   2.778   6.520   1.792 -0.0131 -0.2545 -0.7488
   19MOL0     H 2553   3.108   6.941   1.663  2.5585  0.6760  0.5521
   19MOL0     H 2554   3.342   6.959   1.582 -1.4302  1.7232 -0.2187
   19MOL0     H 2555   3.523   6.591   1.534  1.3964  0.4958  0.9914
   19MOL0     H 2556   3.578   6.628   1.372 -0.8040  1.6377 -1.0985
   19MOL0     H 2557   3.681   6.699   1.643 -0.2109  0.9834 -0.7009
   19MOL0     H 2558   3.742   6.771   1.493  2.7613 -1.2544  0.1856
   19MOL0     H 2559   3.807   6.555   1.412  1.3722 -0.5438 -0.5756
   19MOL0     H 2560   3.765   6.476   1.558  0.9166  0.3386  0.7197
   19MOL0     H 2561   3.903   6.634   1.697 -1.2566  2.8283 -0.7068
   19MOL0     H 2562   3.979   6.688   1.547  3.4687 -0.2363  3.9251
   19MOL0     H 2563   4.175   6.332   1.551 -3.1067 -2.2796  0.9510
   19MOL0     H 2564   3.309   6.562   1.437 -0.1041  2.3486 -2.6889
   19MOL0     H 2565   3.079   6.550   1.493  1.4259 -0.5819 -2.0490
   20MOL0     O 2566   3.521   3.822   6.952  0.2690  0.0101 -0.1833
   20MOL0     C 2567   3.554   3.926   6.897  0.4256  0.3759 -0.2732
   20MOL0     O 2568   3.481   4.043   6.898 -0.0355 -0.1838  0.2289
   20MOL0     C 2569   3.354   4.044   6.951 -0.3660  0.0197 -0.8834
   20MOL0     C 2570   3.255   3.948   6.934  0.4833 -0.0346  0.9330
   20MOL0     C 2571   3.134   3.955   7.001 -0.1203  0.0888  0.7214
   20MOL0     C 2572   3.103   4.067   7.081 -0.0674 -0.1401  0.5224
   20MOL0     O 2573   2.983   4.088   7.142 -0.5985 -0.2309 -0.2025
   20MOL0     C 2574   2.873   3.995   7.126 -0.7902 -0.5039 -0.4312
   20MOL0     C 2575   2.811   4.026   6.992 -0.0925  0.0914 -1.3344
   20MOL0     C 2576   2.760   4.164   6.963 -0.3349 -0.9189 -0.5503
   20MOL0     C 2577   2.631   4.191   7.039 -0.0151  0.1874  1.0835
   20MOL0     C 2578   2.586   4.334   6.999 -0.2034  0.2467 -0.3378
   20MOL0     C 2579   2.438   4.353   7.055 -0.6437 -0.0187  0.7682
   20MOL0     C 2580   2.398   4.497   7.024 -0.0044 -0.0903 -0.3050
   20MOL0     C 2581   2.302   4.549   7.132 -0.7551  0.1518 -0.3943
   20MOL0     N 2582   2.167   4.496   7.114 -0.3875  0.8229 -0.2667
   20MOL0     C 2583   2.115   4.373   7.147 -0.0230  0.0108  0.6068
   20MOL0     C 2584   1.983   4.375   7.108 -0.3650 -0.1000 -0.7921
   20MOL0     C 2585   1.891   4.259   7.106  0.2485 -0.3855 -0.7894
   20MOL0     C 2586   1.787   4.273   6.992 -0.4988  0.6380 -0.6017
   20MOL0     C 2587   1.650   4.324   7.036  0.9672 -0.7586  0.3978
   20MOL0     C 2588   1.569   4.345   6.899  0.3911  0.3786 -1.2198
   20MOL0     O 2589   1.517   4.213   6.868  0.8833 -0.1631  0.6460
   20MOL0     C 2590   1.427   4.198   6.763  0.1123  0.5694  0.0616
   20MOL0     C 2591   1.400   4.057   6.727  0.2198 -0.0085  0.0903
   20MOL0     C 2592   1.311   4.030   6.622 -0.6142  0.6954  1.1932
   20MOL0     C 2593   1.306   3.882   6.586 -0.3848  0.6677 -0.3901
   20MOL0     C 2594   1.234   4.138   6.567 -0.2200  0.0511  0.2239
   20MOL0     C 2595   1.132   4.120   6.468 -0.0160  0.0753 -0.2830
   20MOL0     O 2596   1.074   3.996   6.455  0.3132 -0.5670 -0.0966
   20MOL0     C 2597   0.951   3.981   6.409  0.8560 -0.2135  0.7597
   20MOL0     C 2598   0.847   4.078   6.420  0.4080  0.2876 -0.9245
   20MOL0     C 2599   0.718   4.048   6.379  0.4683  0.3932  0.7069
   20MOL0     C 2600   0.684   3.929   6.312 -0.2893 -0.0519  0.8225
   20MOL0     O 2601   0.557   3.893   6.265  0.0537 -0.1159  0.6868
   20MOL0     C 2602   0.539   3.925   6.128 -0.9088  0.2092 -0.3353
   20MOL0     C 2603   0.402   3.907   6.076  0.6321  0.0061  0.2951
   20MOL0     C 2604   0.348   3.760   6.070  0.3836  0.0062  0.0508
   20MOL0     C 2605   0.201   3.744   6.033 -0.5929 -0.7569 -0.4846
   20MOL0     C 2606   0.141   3.851   5.939  0.0555  0.7155  0.0708
   20MOL0     C 2607  -0.002   3.825   5.903 -0.5696 -0.1550  0.3382
   20MOL0     C 2608  -0.111   3.879   5.994  1.0658  0.3214 -0.3442
   20MOL0     C 2609  -0.246   3.892   5.921 -0.5672 -0.0622 -0.0124
   20MOL0    Cl 2610  -0.367   3.930   6.051  0.0078 -0.1041  0.3921
   20MOL0     C 2611   0.792   3.844   6.275 -0.3648  0.3293  0.0110
   20MOL0     C 2612   0.928   3.872   6.324 -0.0978 -0.0058 -0.7859
   20MOL0     O 2613   1.097   4.216   6.399 -1.2885  0.1864 -0.5435
   20MOL0     C 2614   1.252   4.266   6.617  0.1643 -0.1965 -0.1903
   20MOL0     C 2615   1.352   4.299   6.711  0.3012  0.1129 -0.4964
   20MOL0     N 2616   1.957   4.496   7.061 -0.3027 -0.2424  0.3644
   20MOL0     N 2617   2.066   4.566   7.054  0.0664 -0.4341 -1.0098
   20MOL0     C 2618   3.205   4.177   7.088 -0.7015  0.5878  0.2499
   20MOL0     C 2619   3.322   4.165   7.014 -0.4538  0.2635  0.3753
   20MOL0     C 2620   3.679   3.927   6.826  0.0592  0.0210  1.2169
   20MOL0     C 2621   3.719   4.047   6.760  0.8352  0.8656  0.5532
   20MOL0     C 2622   3.851   4.053   6.706  0.1746 -0.3522 -1.2910
   20MOL0     C 2623   3.939   3.945   6.710  0.1767  0.2030 -0.2889
   20MOL0     O 2624   4.065   3.954   6.653 -0.4027 -0.0201  0.0904
   20MOL0     C 2625   4.169   3.868   6.709 -0.2316 -0.3733  0.1251
   20MOL0     C 2626   4.304   3.945   6.710  0.8770 -0.2584  0.0425
   20MOL0     C 2627   4.336   3.980   6.564 -0.0038  1.2371 -0.2304
   20MOL0     C 2628   4.459   4.064   6.554 -0.9085 -0.1547  0.0968
   20MOL0     C 2629   4.460   4.134   6.425 -1.2003 -0.6080 -0.4102
   20MOL0     C 2630   4.455   4.179   6.314 -0.9129  0.3668 -1.0090
   20MOL0     C 2631   3.897   3.830   6.775  0.7725 -0.4941 -0.7815
   20MOL0     C 2632   3.765   3.818   6.838 -0.6673  0.8976  0.0059
   20MOL0     H 2633   3.285   3.854   6.889  0.3264 -1.1585  3.0526
   20MOL0     H 2634   3.074   3.867   6.980  0.4622 -0.0148 -0.6349
   20MOL0     H 2635   2.913   3.894   7.140  2.3768  0.8441  1.0838
   20MOL0     H 2636   2.797   4.019   7.201 -0.1770 -1.1143  0.4124
   20MOL0     H 2637   2.884   4.006   6.914 -0.6477 -1.4006 -1.5108
   20MOL0     H 2638   2.721   3.964   6.986 -0.9433  0.8905  1.5709
   20MOL0     H 2639   2.830   4.245   6.985 -2.0842  0.7031 -0.6366
   20MOL0     H 2640   2.738   4.183   6.857  1.6487  1.1851 -0.6790
   20MOL0     H 2641   2.555   4.123   7.000 -0.3359  0.0805  1.8743
   20MOL0     H 2642   2.649   4.169   7.145 -0.2299  3.7613  1.9846
   20MOL0     H 2643   2.661   4.393   7.053 -0.0480  0.5358 -0.8671
   20MOL0     H 2644   2.591   4.364   6.894 -0.2265  2.9828  0.3606
   20MOL0     H 2645   2.374   4.280   7.004  0.1601  0.9977 -1.8803
   20MOL0     H 2646   2.426   4.325   7.160 -3.7433  1.3986  0.9139
   20MOL0     H 2647   2.483   4.564   7.039  1.1486 -1.7358  0.8515
   20MOL0     H 2648   2.357   4.505   6.922 -1.7286 -0.7293  0.2980
   20MOL0     H 2649   2.308   4.658   7.123  2.2067  0.0336 -0.9751
   20MOL0     H 2650   2.341   4.516   7.229  1.6298  0.5646 -1.1372
   20MOL0     H 2651   2.163   4.293   7.202  0.1022 -0.3406 -0.0084
   20MOL0     H 2652   1.950   4.169   7.083  1.6830  0.5759 -0.9937
   20MOL0     H 2653   1.852   4.243   7.207  1.3516 -1.0973 -0.4545
   20MOL0     H 2654   1.764   4.176   6.947  0.2567  0.5492 -0.7974
   20MOL0     H 2655   1.815   4.343   6.913 -3.8822  1.9165 -0.8697
   20MOL0     H 2656   1.663   4.423   7.081  0.6161 -0.6560  0.2761
   20MOL0     H 2657   1.592   4.256   7.099 -1.0771  0.2693 -0.2583
   20MOL0     H 2658   1.634   4.391   6.824  2.4869 -1.0645 -0.3991
   20MOL0     H 2659   1.485   4.413   6.912 -1.6013 -1.7793 -2.1354
   20MOL0     H 2660   1.469   3.982   6.764 -0.1231 -0.9363 -1.0908
   20MOL0     H 2661   1.285   3.867   6.479 -1.0907  0.2273 -0.1964
   20MOL0     H 2662   1.400   3.834   6.614 -0.7636  0.8415  1.2766
   20MOL0     H 2663   1.224   3.841   6.646 -2.9145  0.9350 -3.3792
   20MOL0     H 2664   0.862   4.170   6.477  3.0732 -1.4107  1.3654
   20MOL0     H 2665   0.631   4.108   6.407  0.6557  0.4558  1.1617
   20MOL0     H 2666   0.568   4.030   6.119  0.1479  0.1912  1.9891
   20MOL0     H 2667   0.606   3.864   6.068 -0.6314 -0.0327  0.2097
   20MOL0     H 2668   0.330   3.958   6.141 -1.1148 -1.2199 -0.5758
   20MOL0     H 2669   0.407   3.950   5.976 -1.1288 -2.4580 -0.9731
   20MOL0     H 2670   0.343   3.730   6.175  0.3497 -0.5809 -0.1152
   20MOL0     H 2671   0.415   3.692   6.017  0.9710 -0.7268  1.6708
   20MOL0     H 2672   0.182   3.641   6.004 -0.4151 -0.6293 -1.0743
   20MOL0     H 2673   0.145   3.769   6.124  1.2204 -0.1356  0.5040
   20MOL0     H 2674   0.204   3.849   5.849  0.8801  1.6670  0.6122
   20MOL0     H 2675   0.145   3.954   5.974  0.9981  1.6985 -2.6362
   20MOL0     H 2676  -0.018   3.874   5.806  3.7135 -2.5440 -1.8859
   20MOL0     H 2677  -0.014   3.718   5.879  2.0509 -0.4442 -0.0198
   20MOL0     H 2678  -0.081   3.981   6.019  2.3162 -0.2835  0.7355
   20MOL0     H 2679  -0.118   3.823   6.088 -3.2703 -0.4080 -0.8870
   20MOL0     H 2680  -0.265   3.798   5.870  2.3498 -0.1977 -0.9900
   20MOL0     H 2681  -0.254   3.974   5.848 -0.5972 -0.7061 -0.7396
   20MOL0     H 2682   0.789   3.745   6.232  1.2813 -0.2617  1.1871
   20MOL0     H 2683   1.012   3.805   6.317  3.3060  3.6071  1.4696
   20MOL0     H 2684   1.195   4.354   6.587  0.0907 -0.9862 -2.6272
   20MOL0     H 2685   1.352   4.399   6.753 -3.0528  0.4338 -0.9856
   20MOL0     H 2686   3.191   4.272   7.139  0.0316  0.4897  0.6539
   20MOL0     H 2687   3.387   4.252   7.020  0.1302 -0.2120  1.3585
   20MOL0     H 2688   3.648   4.129   6.748  0.6194  0.7027  0.7105
   20MOL0     H 2689   3.889   4.141   6.656  1.7983  0.3030  0.9072
   20MOL0     H 2690   4.153   3.842   6.814  0.1862 -0.0880  0.2632
   20MOL0     H 2691   4.180   3.772   6.657  0.2281  0.4016 -1.2621
   20MOL0     H 2692   4.384   3.884   6.752 -0.5190 -1.0511  1.7161
   20MOL0     H 2693   4.291   4.039   6.766  2.2339 -0.4041  0.6276
   20MOL0     H 2694   4.255   4.045   6.531 -0.2086  0.1605 -1.9586
   20MOL0     H 2695   4.336   3.889   6.504 -0.9960  1.5899 -0.7919
   20MOL0     H 2696   4.550   4.009   6.578  0.9245  0.5583 -4.2174
   20MOL0     H 2697   4.456   4.147   6.626  2.9225  1.4766 -1.3293
   20MOL0     H 2698   4.464   4.208   6.212 -2.2507  1.8292 -0.7425
   20MOL0     H 2699   3.965   3.746   6.785  2.3325  0.9226  1.1190
   20MOL0     H 2700   3.730   3.727   6.886 -0.1787 -0.6452 -2.4322
   21MOL0     O 2701   0.121   2.912   6.770  0.8575 -0.2525  0.0822
   21MOL0     C 2702   0.147   2.796   6.772 -0.4386  0.7463 -0.1287
   21MOL0     O 2703   0.260   2.736   6.821  0.1038  0.1162  0.5802
   21MOL0     C 2704   0.373   2.795   6.882  0.6393 -0.0926 -0.1992
   21MOL0     C 2705   0.463   2.719   6.951 -0.2202 -0.1268  0.3076
   21MOL0     C 2706   0.579   2.775   7.005  0.0615 -0.5045  0.0070
   21MOL0     C 2707   0.606   2.917   6.992  1.0900  1.0201  0.3921
   21MOL0     O 2708   0.717   2.991   7.038  0.2273 -0.0805  0.7107
   21MOL0     C 2709   0.845   2.922   7.040  0.0339 -0.4367 -0.0090
   21MOL0     C 2710   0.915   2.903   6.903 -0.8602 -0.2953 -0.3236
   21MOL0     C 2711   1.051   2.830   6.927  0.0953 -0.6039 -0.1618
   21MOL0     C 2712   1.121   2.811   6.790  0.2173 -0.7000 -0.8273
   21MOL0     C 2713   1.240   2.710   6.792  1.0192 -0.1697  0.5164
   21MOL0     C 2714   1.316   2.713   6.663 -0.7309  0.7588 -0.2231
   21MOL0     C 2715   1.423   2.601   6.669  0.0293 -1.0530  0.4692
   21MOL0     C 2716   1.539   2.630   6.764  0.0684  0.2834  0.0905
   21MOL0     N 2717   1.591   2.762   6.749 -0.3541  0.7126  0.7545
   21MOL0     C 2718   1.619   2.822   6.633  0.0383 -0.1837 -0.1210
   21MOL0     C 2719   1.669   2.946   6.677  0.1994 -1.1178 -0.6813
   21MOL0     C 2720   1.712   3.058   6.586 -0.1744 -0.8380 -0.7011
   21MOL0     C 2721   1.826   3.007   6.486 -0.4312 -0.1403 -0.1155
   21MOL0     C 2722   1.924   3.125   6.465  0.1640  0.4899 -0.2526
   21MOL0     C 2723   2.030   3.109   6.355  0.2084  0.1019 -0.3295
   21MOL0     O 2724   2.136   3.023   6.398  0.5971 -0.3080 -0.5219
   21MOL0     C 2725   2.242   2.995   6.318  0.0743 -0.1123  0.4874
   21MOL0     C 2726   2.344   2.911   6.356  0.8153  0.1754 -0.5632
   21MOL0     C 2727   2.453   2.875   6.275  0.2197 -0.0973  0.5455
   21MOL0     C 2728   2.540   2.773   6.345 -0.0977 -0.4937  0.8217
   21MOL0     C 2729   2.468   2.932   6.146  0.3214 -0.5831 -0.0882
   21MOL0     C 2730   2.581   2.902   6.042  0.4258  0.0459 -0.2133
   21MOL0     O 2731   2.578   2.978   5.924 -0.2600 -0.2052  0.9296
   21MOL0     C 2732   2.671   2.947   5.825 -0.1089  0.0276  0.1938
   21MOL0     C 2733   2.641   2.912   5.690 -0.6847 -0.3238 -0.0851
   21MOL0     C 2734   2.740   2.898   5.593 -0.4268 -0.1733  0.7039
   21MOL0     C 2735   2.879   2.917   5.628 -0.3404 -0.6107  0.1621
   21MOL0     O 2736   2.981   2.893   5.545 -1.2565  0.3816 -0.2812
   21MOL0     C 2737   2.950   2.861   5.411  0.6401  0.5735  0.1633
   21MOL0     C 2738   3.076   2.830   5.330  0.0981  0.0033 -0.5445
   21MOL0     C 2739   3.154   2.966   5.296  0.1674 -0.7016  0.1896
   21MOL0     C 2740   3.089   3.067   5.199 -0.0952 -0.3690  0.6579
   21MOL0     C 2741   3.172   3.188   5.168 -0.4581  0.2514 -0.9211
   21MOL0     C 2742   3.121   3.252   5.044 -0.2481 -0.1745  0.7487
   21MOL0     C 2743   3.209   3.377   5.015  0.5442 -0.2043 -0.9755
   21MOL0     C 2744   3.137   3.473   4.918  0.0860 -0.0963  0.1759
   21MOL0    Cl 2745   3.089   3.381   4.771  0.2086 -0.1728  0.4309
   21MOL0     C 2746   2.904   2.947   5.765  0.6726 -0.3249 -0.0594
   21MOL0     C 2747   2.800   2.968   5.854  0.5457  0.0967  0.7325
   21MOL0     O 2748   2.652   2.807   6.066  0.1426 -0.3360  0.1120
   21MOL0     C 2749   2.370   3.022   6.110  0.4271  0.7986 -0.1524
   21MOL0     C 2750   2.251   3.052   6.190  0.2527  0.9552  0.3259
   21MOL0     N 2751   1.679   2.941   6.819 -0.3028 -0.0834  0.2178
   21MOL0     N 2752   1.616   2.838   6.860  0.2236  0.6455 -0.1975
   21MOL0     C 2753   0.512   2.997   6.942  0.2893 -0.6368 -0.0476
   21MOL0     C 2754   0.401   2.936   6.886 -0.3687 -1.0832  1.0076
   21MOL0     C 2755   0.027   2.717   6.721  0.1946 -0.4001  0.1214
   21MOL0     C 2756   0.037   2.578   6.721 -0.3535 -0.6188  1.6650
   21MOL0     C 2757  -0.074   2.504   6.679 -0.7944 -0.1170 -0.1514
   21MOL0     C 2758  -0.195   2.557   6.651 -0.6916 -0.7807  0.2686
   21MOL0     O 2759  -0.307   2.477   6.633  0.1628  0.2857  0.1653
   21MOL0     C 2760  -0.305   2.336   6.603 -0.4163  0.3485  0.4786
   21MOL0     C 2761  -0.436   2.264   6.620 -0.5013 -0.2766  0.9586
   21MOL0     C 2762  -0.549   2.290   6.533  0.2399 -0.6731 -0.2278
   21MOL0     C 2763  -0.585   2.439   6.519  0.1003 -0.1388  0.2560
   21MOL0     C 2764  -0.705   2.466   6.437  0.8089  0.0741  0.5561
   21MOL0     C 2765  -0.811   2.473   6.378  0.1374  0.0766 -0.6585
   21MOL0     C 2766  -0.204   2.698   6.663  1.3533  0.1945 -0.3065
   21MOL0     C 2767  -0.093   2.780   6.702  0.1779 -0.1554  0.0670
   21MOL0     H 2768   0.452   2.611   6.955  0.2807 -0.2061 -0.2693
   21MOL0     H 2769   0.656   2.713   7.051  0.1805 -1.7182 -1.7114
   21MOL0     H 2770   0.907   2.986   7.103 -1.7147 -0.0574  1.4141
   21MOL0     H 2771   0.839   2.831   7.100 -0.8042 -0.9703 -0.8628
   21MOL0     H 2772   0.852   2.841   6.838 -1.0641  1.0547 -1.4542
   21MOL0     H 2773   0.934   2.996   6.850  1.2623 -1.3427 -1.4952
   21MOL0     H 2774   1.113   2.879   7.003 -1.1980  0.1559  0.4278
   21MOL0     H 2775   1.027   2.730   6.965 -2.5749  0.0663  0.0873
   21MOL0     H 2776   1.048   2.769   6.720 -0.2400 -0.8873 -0.2440
   21MOL0     H 2777   1.157   2.907   6.750 -1.5303 -0.1582 -1.1795
   21MOL0     H 2778   1.302   2.755   6.870 -0.2460  1.6996  0.5187
   21MOL0     H 2779   1.213   2.610   6.827 -1.4607 -0.1105 -0.9873
   21MOL0     H 2780   1.252   2.703   6.575  1.3674 -2.8630 -1.5532
   21MOL0     H 2781   1.362   2.811   6.655 -0.9073  0.7929 -0.9268
   21MOL0     H 2782   1.381   2.503   6.692 -2.2862 -0.4315 -0.7979
   21MOL0     H 2783   1.455   2.592   6.564  0.1654 -2.3458  0.6030
   21MOL0     H 2784   1.620   2.559   6.747  0.4191  0.4867  0.8733
   21MOL0     H 2785   1.493   2.618   6.863 -0.9981 -1.6560 -0.5873
   21MOL0     H 2786   1.613   2.791   6.530  0.3920 -1.7057  0.2901
   21MOL0     H 2787   1.639   3.097   6.515  1.2382 -1.0974 -2.3623
   21MOL0     H 2788   1.763   3.129   6.653  0.3368 -1.5136 -0.3625
   21MOL0     H 2789   1.782   2.971   6.392  2.4297 -0.3139 -1.4953
   21MOL0     H 2790   1.885   2.933   6.542  1.1201  2.2650  1.5881
   21MOL0     H 2791   1.972   3.159   6.557  0.5598 -0.0019 -0.2776
   21MOL0     H 2792   1.856   3.204   6.431  2.5575  2.8355  0.0220
   21MOL0     H 2793   2.065   3.204   6.315 -2.8726  0.8637 -1.4947
   21MOL0     H 2794   1.976   3.057   6.276  1.1804  0.1170 -1.0120
   21MOL0     H 2795   2.322   2.865   6.452 -0.7134 -1.7632 -1.7735
   21MOL0     H 2796   2.480   2.713   6.414 -1.9848 -1.8091 -1.7845
   21MOL0     H 2797   2.587   2.702   6.276  0.8230  2.1699 -1.4410
   21MOL0     H 2798   2.617   2.812   6.414 -0.2774  0.2503  0.6103
   21MOL0     H 2799   2.537   2.913   5.660 -2.3626  3.3249  4.6673
   21MOL0     H 2800   2.706   2.888   5.491 -0.8492  0.9910  0.7167
   21MOL0     H 2801   2.894   2.767   5.412  2.0459 -0.3306 -1.3731
   21MOL0     H 2802   2.897   2.948   5.371 -0.2152  0.5960  1.2810
   21MOL0     H 2803   3.137   2.764   5.393 -1.4323 -0.2642  0.7197
   21MOL0     H 2804   3.064   2.772   5.239  3.4654  0.0969 -1.1813
   21MOL0     H 2805   3.247   2.926   5.254  0.9933  1.0789  0.2618
   21MOL0     H 2806   3.176   3.019   5.389 -2.7938 -0.0152  0.6058
   21MOL0     H 2807   3.063   3.016   5.106 -0.3676 -1.7500  1.4567
   21MOL0     H 2808   2.999   3.106   5.248  1.1611  3.4911  0.1892
   21MOL0     H 2809   3.277   3.156   5.162 -0.2139 -0.1247  2.7312
   21MOL0     H 2810   3.172   3.251   5.258  1.2219  0.2831 -0.9095
   21MOL0     H 2811   3.126   3.171   4.971  1.8490 -1.0003  1.7133
   21MOL0     H 2812   3.021   3.293   5.061  1.1841  3.5771  1.0880
   21MOL0     H 2813   3.303   3.347   4.967  0.9584 -2.9054  1.2773
   21MOL0     H 2814   3.232   3.421   5.113 -0.3040  0.1845 -0.9425
   21MOL0     H 2815   3.202   3.556   4.888 -2.8621  2.4161  0.1693
   21MOL0     H 2816   3.054   3.524   4.969  2.3364  3.8895  0.2675
   21MOL0     H 2817   3.008   2.941   5.794  1.2740 -0.7640 -2.1011
   21MOL0     H 2818   2.833   2.997   5.953  1.5879  0.5696  0.2594
   21MOL0     H 2819   2.368   3.063   6.010  0.0040  0.0686 -0.4468
   21MOL0     H 2820   2.176   3.116   6.145  1.3434 -0.0552 -3.2178
   21MOL0     H 2821   0.537   3.102   6.947  0.1317 -0.6571  2.5601
   21MOL0     H 2822   0.329   3.003   6.840  1.9368  0.8728  0.0106
   21MOL0     H 2823   0.131   2.531   6.748  1.1568 -0.2154 -2.3448
   21MOL0     H 2824  -0.068   2.395   6.682  0.0333 -0.0926  2.8241
   21MOL0     H 2825  -0.266   2.321   6.502 -1.4136  0.1899  0.1065
   21MOL0     H 2826  -0.238   2.280   6.670 -1.1300 -0.5466  0.4665
   21MOL0     H 2827  -0.467   2.287   6.722 -3.3201  0.4367  0.0137
   21MOL0     H 2828  -0.419   2.156   6.612 -2.4407 -0.5627  0.3659
   21MOL0     H 2829  -0.635   2.243   6.581  1.7599  0.1062  3.5910
   21MOL0     H 2830  -0.531   2.239   6.438  0.5911 -0.2825 -0.3779
   21MOL0     H 2831  -0.498   2.493   6.484  0.6399 -0.5203  0.9764
   21MOL0     H 2832  -0.611   2.470   6.621 -1.8954 -1.9966  0.3939
   21MOL0     H 2833  -0.907   2.486   6.332 -0.1873  0.3044  0.0767
   21MOL0     H 2834  -0.299   2.746   6.641  1.9312  0.6328 -2.0577
   21MOL0     H 2835  -0.109   2.886   6.719 -0.8061 -0.5585  1.8392
   22MOL0     O 2836   8.538   4.870   3.568  0.0727  0.1815 -0.0747
   22MOL0     C 2837   8.511   4.764   3.636 -0.1875 -1.4925  0.8777
   22MOL0     O 2838   8.391   4.712   3.658 -0.8292 -0.2689 -0.3217
   22MOL0     C 2839   8.287   4.754   3.587  0.6511 -1.1902 -0.1414
   22MOL0     C 2840   8.231   4.885   3.588 -0.0631 -0.6293  0.6910
   22MOL0     C 2841   8.111   4.910   3.519 -0.3205 -0.2750  0.1751
   22MOL0     C 2842   8.054   4.810   3.439 -0.7519 -0.6669  0.5100
   22MOL0     O 2843   7.941   4.845   3.383 -0.5329  0.2731 -0.3676
   22MOL0     C 2844   7.896   4.758   3.277 -0.2682  0.1236 -0.1621
   22MOL0     C 2845   7.770   4.817   3.215 -0.5759 -0.2111  0.5925
   22MOL0     C 2846   7.639   4.765   3.274  0.1920 -0.0678 -0.6394
   22MOL0     C 2847   7.513   4.845   3.249 -0.0906 -0.0570  0.3586
   22MOL0     C 2848   7.402   4.810   3.351 -1.1655 -0.9690  0.6364
   22MOL0     C 2849   7.279   4.896   3.326 -0.0162 -0.3300  1.1737
   22MOL0     C 2850   7.172   4.870   3.439  0.1212  0.4722  0.4892
   22MOL0     C 2851   7.184   4.986   3.548 -0.5002 -0.6979  0.6956
   22MOL0     N 2852   7.096   5.103   3.521  0.9903  0.6301 -0.2785
   22MOL0     C 2853   6.999   5.117   3.415 -0.0899  0.3474 -0.1893
   22MOL0     C 2854   6.963   5.252   3.423 -0.2797  0.8020  0.1341
   22MOL0     C 2855   6.877   5.329   3.322  0.4118 -0.7268  0.3898
   22MOL0     C 2856   6.735   5.349   3.388 -0.6896 -0.6355 -0.5601
   22MOL0     C 2857   6.681   5.480   3.330 -0.6786 -0.8189 -0.0789
   22MOL0     C 2858   6.561   5.524   3.404  0.2364  0.4508  0.9040
   22MOL0     O 2859   6.481   5.623   3.338 -0.0177  0.0538 -0.0893
   22MOL0     C 2860   6.350   5.639   3.374 -1.6653  0.1884 -0.2421
   22MOL0     C 2861   6.276   5.727   3.306 -0.4068 -0.4365 -0.0754
   22MOL0     C 2862   6.141   5.738   3.321  0.6498  0.6958 -0.3457
   22MOL0     C 2863   6.089   5.841   3.223 -0.9561 -0.7027 -0.3518
   22MOL0     C 2864   6.073   5.653   3.408 -0.1989 -0.0199  0.0596
   22MOL0     C 2865   5.918   5.647   3.422  0.3047 -0.0644  0.2370
   22MOL0     O 2866   5.851   5.757   3.372  0.3579  0.2674 -0.2354
   22MOL0     C 2867   5.714   5.759   3.342 -1.0346  0.0193 -0.0699
   22MOL0     C 2868   5.617   5.701   3.414 -0.3432 -0.1020  0.0165
   22MOL0     C 2869   5.483   5.712   3.375  0.2571  0.1915  0.0251
   22MOL0     C 2870   5.439   5.772   3.261  1.0137  0.0708  0.0908
   22MOL0     O 2871   5.304   5.777   3.226  0.8076 -0.0732 -0.6957
   22MOL0     C 2872   5.217   5.812   3.337 -0.0442  0.2195  0.5843
   22MOL0     C 2873   5.074   5.810   3.278 -0.0790  0.3463  0.4604
   22MOL0     C 2874   4.975   5.846   3.389  0.1873 -0.3911  0.6157
   22MOL0     C 2875   4.843   5.900   3.326  0.3561 -0.5405  0.2772
   22MOL0     C 2876   4.753   5.959   3.434 -0.2284  0.1792  0.8868
   22MOL0     C 2877   4.678   5.854   3.506 -0.4241 -0.6110  0.4601
   22MOL0     C 2878   4.599   5.914   3.620  0.7065  1.0863 -0.6022
   22MOL0     C 2879   4.496   5.835   3.707 -0.1922  0.6891 -0.0560
   22MOL0    Cl 2880   4.359   5.759   3.605 -0.0696 -0.2106 -0.3657
   22MOL0     C 2881   5.539   5.850   3.194  1.0110  0.2594  0.2891
   22MOL0     C 2882   5.672   5.844   3.237 -0.1370  0.0404 -0.4655
   22MOL0     O 2883   5.865   5.546   3.472  0.3304  0.1670  0.0312
   22MOL0     C 2884   6.151   5.564   3.484 -0.1952  0.3095  0.0370
   22MOL0     C 2885   6.289   5.560   3.466  0.8106  0.0806  0.1318
   22MOL0     N 2886   7.020   5.301   3.539 -0.6434 -0.0236  0.3996
   22MOL0     N 2887   7.093   5.211   3.591 -0.1909  0.1169 -0.3630
   22MOL0     C 2888   8.122   4.684   3.420  0.4775 -0.5822  0.0802
   22MOL0     C 2889   8.240   4.666   3.489  0.0781  0.7053  0.0296
   22MOL0     C 2890   8.610   4.703   3.730 -1.0509 -0.4088 -0.0813
   22MOL0     C 2891   8.590   4.576   3.792 -0.0947  0.6533 -0.3254
   22MOL0     C 2892   8.693   4.508   3.866  0.6187  0.8494 -0.5394
   22MOL0     C 2893   8.828   4.565   3.878  1.7042 -0.2301 -0.2483
   22MOL0     O 2894   8.938   4.510   3.931 -0.3774 -0.6754 -0.0459
   22MOL0     C 2895   8.944   4.374   3.972  0.1772 -1.0004  0.6757
   22MOL0     C 2896   9.081   4.308   3.943  0.0416  0.7373 -0.5361
   22MOL0     C 2897   9.194   4.417   3.927 -0.4004 -0.8225  0.4054
   22MOL0     C 2898   9.326   4.347   3.951 -0.6130  0.5259 -0.1234
   22MOL0     C 2899   9.448   4.426   3.938 -0.4059  0.1936 -0.1343
   22MOL0     C 2900   9.555   4.489   3.939 -0.2394 -0.0344 -0.0708
   22MOL0     C 2901   8.839   4.698   3.830  0.3970  1.4421  0.1632
   22MOL0     C 2902   8.736   4.758   3.750  0.6407  0.1704 -0.4739
   22MOL0     H 2903   8.275   4.953   3.661 -2.9373 -0.5445  2.4937
   22MOL0     H 2904   8.058   5.004   3.530 -1.6502 -1.1626  1.7537
   22MOL0     H 2905   7.977   4.761   3.204  0.5391 -0.9823  0.6531
   22MOL0     H 2906   7.875   4.652   3.296  3.8634 -0.8599 -0.1179
   22MOL0     H 2907   7.763   4.926   3.224 -0.0359 -0.1008 -0.1783
   22MOL0     H 2908   7.776   4.791   3.109 -1.6553 -1.9595  0.9197
   22MOL0     H 2909   7.625   4.662   3.239  1.5927  0.2962 -2.4607
   22MOL0     H 2910   7.644   4.758   3.383  1.9249 -2.2865 -0.7876
   22MOL0     H 2911   7.539   4.949   3.270 -1.3132 -0.0489  1.9726
   22MOL0     H 2912   7.482   4.833   3.145  2.3808  2.4166 -0.8193
   22MOL0     H 2913   7.387   4.702   3.341 -2.6329 -0.5816 -2.9250
   22MOL0     H 2914   7.435   4.828   3.454 -3.6821  0.2623  1.2877
   22MOL0     H 2915   7.294   5.004   3.317  1.8006 -0.6823 -0.9944
   22MOL0     H 2916   7.241   4.871   3.226 -1.7744  1.7451  1.2397
   22MOL0     H 2917   7.067   4.862   3.412 -1.5675 -1.2949  6.1967
   22MOL0     H 2918   7.197   4.771   3.477 -2.1823 -1.1306 -1.8582
   22MOL0     H 2919   7.287   5.025   3.548 -1.6464  2.9173 -2.1745
   22MOL0     H 2920   7.162   4.935   3.642 -0.7953 -2.1825 -0.1416
   22MOL0     H 2921   6.960   5.051   3.338  0.6000 -2.8726  1.9797
   22MOL0     H 2922   6.916   5.431   3.310 -0.3190 -0.4233  0.5317
   22MOL0     H 2923   6.867   5.268   3.232 -0.4859 -2.6271  1.7225
   22MOL0     H 2924   6.747   5.360   3.496 -0.1456  0.2832 -0.7069
   22MOL0     H 2925   6.667   5.267   3.363  0.9728 -1.8841 -1.1057
   22MOL0     H 2926   6.655   5.465   3.225 -4.5535  3.7770 -0.1151
   22MOL0     H 2927   6.754   5.562   3.332 -0.9522 -0.5803  0.1798
   22MOL0     H 2928   6.569   5.532   3.513 -0.5046 -1.2027  1.1160
   22MOL0     H 2929   6.508   5.429   3.396  2.0340 -0.4103 -2.9059
   22MOL0     H 2930   6.344   5.784   3.243  1.2211  0.2764  2.1942
   22MOL0     H 2931   6.047   5.918   3.289 -1.1086 -1.4097  0.3892
   22MOL0     H 2932   6.167   5.883   3.158  1.5411 -1.5084  1.8920
   22MOL0     H 2933   6.015   5.799   3.155 -1.1853 -1.1877  0.1879
   22MOL0     H 2934   5.639   5.639   3.500  1.3428  0.5640  0.0904
   22MOL0     H 2935   5.413   5.660   3.440 -0.5454  0.3340 -0.6944
   22MOL0     H 2936   5.227   5.729   3.407  1.7654 -0.5983 -0.5732
   22MOL0     H 2937   5.239   5.911   3.380  0.8059 -0.4258  1.6811
   22MOL0     H 2938   5.069   5.883   3.196 -2.4420 -0.1577  0.0708
   22MOL0     H 2939   5.037   5.711   3.248  0.4598  0.2204  0.2073
   22MOL0     H 2940   5.013   5.936   3.438  1.2053  1.2629 -2.9033
   22MOL0     H 2941   4.956   5.760   3.455  2.8105 -0.7749  0.9649
   22MOL0     H 2942   4.855   5.982   3.255 -0.2547 -2.5036 -2.2249
   22MOL0     H 2943   4.794   5.818   3.273 -4.0375  1.0612  1.4518
   22MOL0     H 2944   4.684   6.028   3.385  0.5484  0.3461  0.0033
   22MOL0     H 2945   4.822   6.014   3.498  2.8783 -0.9345 -1.2930
   22MOL0     H 2946   4.611   5.814   3.430 -3.0245  4.1659 -0.1916
   22MOL0     H 2947   4.748   5.779   3.542 -0.5553 -0.3180  1.3449
   22MOL0     H 2948   4.550   6.002   3.579  0.7693  1.6009  0.3981
   22MOL0     H 2949   4.678   5.947   3.689 -0.6395  1.7396  0.6754
   22MOL0     H 2950   4.461   5.901   3.787  1.9738  1.5329  0.2642
   22MOL0     H 2951   4.542   5.747   3.753 -0.0228  0.2556 -1.0262
   22MOL0     H 2952   5.505   5.914   3.113  0.8798 -2.1084 -1.6103
   22MOL0     H 2953   5.743   5.912   3.190 -0.9800  1.8958  0.7972
   22MOL0     H 2954   6.103   5.501   3.558  1.7342 -1.1870  0.1009
   22MOL0     H 2955   6.349   5.487   3.520  1.7906 -0.7164 -1.9517
   22MOL0     H 2956   8.082   4.599   3.367 -0.5388 -1.4660  2.1548
   22MOL0     H 2957   8.281   4.565   3.486 -0.1440  0.6155 -0.0047
   22MOL0     H 2958   8.497   4.522   3.780 -0.3549  0.8640  0.6712
   22MOL0     H 2959   8.675   4.405   3.893 -0.4657  1.3774  0.8128
   22MOL0     H 2960   8.935   4.378   4.081  0.6555  2.1188  0.6948
   22MOL0     H 2961   8.861   4.314   3.934  1.8013 -1.9973 -1.5465
   22MOL0     H 2962   9.082   4.244   3.855 -0.0209  1.5670 -1.1548
   22MOL0     H 2963   9.109   4.252   4.033 -1.3253  0.8950  0.0039
   22MOL0     H 2964   9.179   4.508   3.986  3.4137  0.4347 -0.2826
   22MOL0     H 2965   9.182   4.457   3.826  1.6229 -3.1788 -0.8792
   22MOL0     H 2966   9.320   4.264   3.881 -1.7439  1.4209 -1.1388
   22MOL0     H 2967   9.328   4.296   4.048  1.1295  0.1801 -0.3113
   22MOL0     H 2968   9.644   4.547   3.951 -0.1347 -0.3004  0.4640
   22MOL0     H 2969   8.934   4.750   3.828  1.6772 -0.7912 -0.8613
   22MOL0     H 2970   8.759   4.857   3.714 -0.8025  1.0335  0.8356
   23MOL0     O 2971   2.032   9.050   4.693  0.2209 -0.4482 -0.5965
   23MOL0     C 2972   2.052   9.051   4.810 -0.0834  0.6727  0.0315
   23MOL0     O 2973   1.965   9.102   4.902  0.4508 -0.3646 -0.0646
   23MOL0     C 2974   1.834   9.133   4.862  0.3142  0.0230 -0.1523
   23MOL0     C 2975   1.752   9.049   4.790 -0.5203  0.0371  0.0499
   23MOL0     C 2976   1.623   9.088   4.752 -0.2922  0.1686 -0.1572
   23MOL0     C 2977   1.566   9.205   4.803 -0.4622  0.2723 -0.8628
   23MOL0     O 2978   1.444   9.252   4.747 -0.0026 -0.8115  0.6339
   23MOL0     C 2979   1.360   9.330   4.831 -0.6401  0.6851  0.0662
   23MOL0     C 2980   1.216   9.349   4.778 -1.0761  0.5035 -0.0033
   23MOL0     C 2981   1.134   9.225   4.796  1.0761 -0.0814 -0.4858
   23MOL0     C 2982   1.132   9.136   4.677  0.4035 -0.3465 -0.0870
   23MOL0     C 2983   0.996   9.083   4.654 -0.5909  0.6193  0.5609
   23MOL0     C 2984   0.980   8.960   4.558 -0.1115  1.2596  0.0774
   23MOL0     C 2985   0.831   8.930   4.527  0.0952 -0.0900  1.0486
   23MOL0     C 2986   0.814   8.799   4.452 -0.9512 -0.8546 -0.0323
   23MOL0     N 2987   0.671   8.778   4.408  0.1975  0.0904  0.4192
   23MOL0     C 2988   0.607   8.659   4.398  0.3614  0.5074 -0.2105
   23MOL0     C 2989   0.481   8.683   4.356  0.0309 -0.0417 -0.1215
   23MOL0     C 2990   0.362   8.588   4.325  0.1576  0.0213  0.1274
   23MOL0     C 2991   0.274   8.561   4.444  0.0378  0.2107  1.1883
   23MOL0     C 2992   0.147   8.470   4.408 -0.8543 -0.3852 -0.4525
   23MOL0     C 2993   0.006   8.536   4.436  0.2909 -0.6130  0.5065
   23MOL0     O 2994  -0.091   8.435   4.415  0.2140 -0.1976 -0.2937
   23MOL0     C 2995  -0.217   8.474   4.384 -0.0433  0.0208 -1.3591
   23MOL0     C 2996  -0.269   8.602   4.416  0.5780 -0.0924  0.8306
   23MOL0     C 2997  -0.407   8.640   4.389 -0.6231  0.1699 -0.0574
   23MOL0     C 2998  -0.446   8.777   4.430  0.3436  0.9602  0.0468
   23MOL0     C 2999  -0.498   8.533   4.341  0.1150  0.1029  0.3719
   23MOL0     C 3000  -0.640   8.560   4.304  1.0597  0.1600 -0.0665
   23MOL0     O 3001  -0.700   8.674   4.346 -0.2797  0.5115 -0.1673
   23MOL0     C 3002  -0.838   8.685   4.347  0.2606  0.0831 -0.0362
   23MOL0     C 3003  -0.892   8.718   4.472  0.3548  0.4243  0.9190
   23MOL0     C 3004  -1.030   8.733   4.490  0.3482  0.5354 -0.1589
   23MOL0     C 3005  -1.115   8.702   4.378  0.4244  0.8337 -0.4924
   23MOL0     O 3006  -1.244   8.678   4.391  0.2431  0.0051  0.2022
   23MOL0     C 3007  -1.323   8.760   4.465 -0.1479  0.2380 -0.6026
   23MOL0     C 3008  -1.475   8.732   4.426 -1.3499 -0.3849 -0.0769
   23MOL0     C 3009  -1.570   8.824   4.493 -0.0211 -0.2844 -0.7487
   23MOL0     C 3010  -1.709   8.821   4.430  0.3344  0.0357 -0.6720
   23MOL0     C 3011  -1.806   8.931   4.483  0.2652  0.2238  0.2375
   23MOL0     C 3012  -1.938   8.914   4.409  0.6121 -0.0678 -0.1346
   23MOL0     C 3013  -2.039   9.030   4.441  0.2341  0.5545 -0.0882
   23MOL0     C 3014  -2.160   9.024   4.349  0.3033  0.8808 -0.0776
   23MOL0    Cl 3015  -2.268   9.169   4.384 -0.3487  0.0155  0.1244
   23MOL0     C 3016  -1.063   8.678   4.261  1.1966  0.9576  0.9973
   23MOL0     C 3017  -0.934   8.657   4.238 -0.8154 -0.7069  0.2934
   23MOL0     O 3018  -0.700   8.471   4.244 -0.0267 -0.5941 -0.6858
   23MOL0     C 3019  -0.445   8.400   4.329 -0.3477 -0.1033 -0.0760
   23MOL0     C 3020  -0.312   8.367   4.359 -0.7232 -0.2074 -0.0131
   23MOL0     N 3021   0.473   8.819   4.339  0.0789 -0.2422 -0.0744
   23MOL0     N 3022   0.582   8.876   4.365  0.8117 -0.6147 -0.9741
   23MOL0     C 3023   1.634   9.281   4.899 -0.2109 -0.1631 -1.0369
   23MOL0     C 3024   1.769   9.242   4.927 -0.0719  0.1420 -0.0642
   23MOL0     C 3025   2.165   8.967   4.856 -1.5482 -0.6541  0.1011
   23MOL0     C 3026   2.275   8.940   4.774 -0.1707 -0.1145  0.1749
   23MOL0     C 3027   2.385   8.864   4.812 -0.9945 -0.0511 -0.3543
   23MOL0     C 3028   2.406   8.827   4.946  0.2001 -0.0408 -0.4969
   23MOL0     O 3029   2.509   8.757   4.996  0.3286 -0.1720 -0.3498
   23MOL0     C 3030   2.631   8.763   4.916  0.4543 -0.4190 -0.4609
   23MOL0     C 3031   2.691   8.907   4.920 -0.1103  0.2818  0.0987
   23MOL0     C 3032   2.825   8.920   4.848  1.2329  0.2835 -0.0090
   23MOL0     C 3033   2.893   9.062   4.858  0.7582  0.5872 -0.1617
   23MOL0     C 3034   2.943   9.079   4.992 -0.0452  0.0053 -0.2660
   23MOL0     C 3035   3.003   9.079   5.100 -0.2889  0.4213  0.3510
   23MOL0     C 3036   2.303   8.863   5.040 -0.5456 -0.2970  0.1950
   23MOL0     C 3037   2.187   8.932   4.993 -0.0827 -0.5759 -0.1718
   23MOL0     H 3038   1.790   8.954   4.753  0.0966  1.2081 -2.5258
   23MOL0     H 3039   1.577   9.028   4.674 -2.6542 -0.0616  1.2922
   23MOL0     H 3040   1.362   9.277   4.926  0.5666 -1.1819 -0.9481
   23MOL0     H 3041   1.402   9.431   4.839  1.6317 -0.1072 -0.9701
   23MOL0     H 3042   1.172   9.435   4.830  0.3852  1.0943  0.3107
   23MOL0     H 3043   1.228   9.362   4.670 -1.2650 -1.0932 -0.2410
   23MOL0     H 3044   1.139   9.169   4.890 -3.0263  1.0848  0.6650
   23MOL0     H 3045   1.033   9.263   4.815  0.0354 -1.8178 -2.1168
   23MOL0     H 3046   1.172   9.182   4.585 -1.6703 -0.0824 -0.9134
   23MOL0     H 3047   1.182   9.040   4.694 -0.9197 -0.7195  2.0184
   23MOL0     H 3048   0.958   9.061   4.754  3.4761  0.4379  2.2218
   23MOL0     H 3049   0.930   9.164   4.620 -0.8380  0.2100  0.0318
   23MOL0     H 3050   1.030   8.973   4.462 -2.2706 -1.8550 -1.6551
   23MOL0     H 3051   1.016   8.873   4.613 -2.3385 -1.8070 -2.9030
   23MOL0     H 3052   0.777   8.939   4.621  0.1906 -0.6262  1.1578
   23MOL0     H 3053   0.807   9.008   4.454  2.5574 -1.0664 -0.9701
   23MOL0     H 3054   0.836   8.724   4.529 -1.3655 -1.9456 -0.9429
   23MOL0     H 3055   0.884   8.794   4.368  1.0233  0.9000  1.4120
   23MOL0     H 3056   0.648   8.561   4.420  0.0717  0.0809 -1.4800
   23MOL0     H 3057   0.308   8.648   4.252 -0.6029  1.7864  2.0428
   23MOL0     H 3058   0.396   8.493   4.282 -1.4787 -1.7841  2.5166
   23MOL0     H 3059   0.240   8.659   4.478  0.2937  0.2023  1.4740
   23MOL0     H 3060   0.327   8.509   4.525 -1.9855 -2.7623  0.7495
   23MOL0     H 3061   0.140   8.379   4.468 -2.8138 -0.4789 -0.7833
   23MOL0     H 3062   0.153   8.438   4.304  1.6777  2.1172 -1.2087
   23MOL0     H 3063  -0.008   8.620   4.367 -2.7547 -2.2854 -1.0825
   23MOL0     H 3064   0.001   8.576   4.537  1.5338 -1.8765  1.1013
   23MOL0     H 3065  -0.204   8.673   4.465  0.3587  2.4503 -2.2704
   23MOL0     H 3066  -0.532   8.768   4.497  0.9984 -0.8207  0.7049
   23MOL0     H 3067  -0.369   8.837   4.479 -0.2801  3.3410 -1.6941
   23MOL0     H 3068  -0.467   8.835   4.340  1.6459 -0.2038 -1.0643
   23MOL0     H 3069  -0.826   8.731   4.557 -0.0999 -3.0231  1.9637
   23MOL0     H 3070  -1.058   8.768   4.589  1.2051  0.2116  0.2054
   23MOL0     H 3071  -1.312   8.736   4.571  1.2877  0.5624 -0.6622
   23MOL0     H 3072  -1.287   8.860   4.442  3.1751 -1.0520 -1.5055
   23MOL0     H 3073  -1.485   8.748   4.318  0.7481 -3.3299 -0.8302
   23MOL0     H 3074  -1.498   8.627   4.444  3.3276 -1.6868 -0.3331
   23MOL0     H 3075  -1.548   8.929   4.472  1.5200 -0.9823 -2.9856
   23MOL0     H 3076  -1.572   8.815   4.602  1.5108  2.6316 -0.3952
   23MOL0     H 3077  -1.699   8.835   4.322 -0.0114 -0.7848 -0.8176
   23MOL0     H 3078  -1.756   8.722   4.441 -0.1024  0.2849 -0.2245
   23MOL0     H 3079  -1.764   9.028   4.456 -1.1296 -0.0386 -3.4489
   23MOL0     H 3080  -1.825   8.911   4.589 -2.0745 -2.4060 -0.5574
   23MOL0     H 3081  -1.911   8.917   4.303  0.0943  1.5048 -0.2478
   23MOL0     H 3082  -1.992   8.821   4.427 -0.1219  0.5298  0.8694
   23MOL0     H 3083  -1.994   9.130   4.431 -3.7221  2.3436 -2.2135
   23MOL0     H 3084  -2.070   9.017   4.545 -0.7484  2.0688 -0.1614
   23MOL0     H 3085  -2.218   8.933   4.365  0.6112  0.3873 -1.5708
   23MOL0     H 3086  -2.134   9.011   4.243 -1.4508 -1.8890 -0.2691
   23MOL0     H 3087  -1.132   8.678   4.177 -1.6189  3.6594  3.0803
   23MOL0     H 3088  -0.895   8.636   4.139 -0.4611 -0.7517  0.4417
   23MOL0     H 3089  -0.501   8.310   4.309  0.5736 -0.8807  0.7252
   23MOL0     H 3090  -0.266   8.269   4.355  2.0083  0.9466  1.0407
   23MOL0     H 3091   1.591   9.375   4.932  1.0800  0.1975 -0.3041
   23MOL0     H 3092   1.829   9.312   4.983  1.8348 -1.8570  0.5422
   23MOL0     H 3093   2.271   8.972   4.671  0.1009 -1.5269 -0.2977
   23MOL0     H 3094   2.469   8.846   4.746 -0.2261  1.7552  0.0585
   23MOL0     H 3095   2.712   8.697   4.947  3.1264  2.6789 -0.2665
   23MOL0     H 3096   2.618   8.730   4.812 -0.0690  0.1723 -0.5892
   23MOL0     H 3097   2.699   8.931   5.026 -0.4789  0.5288  0.0752
   23MOL0     H 3098   2.631   8.982   4.868  1.6865  0.5576 -1.6750
   23MOL0     H 3099   2.808   8.891   4.744 -2.3247  0.9711  0.2310
   23MOL0     H 3100   2.890   8.847   4.897  2.1342 -0.8508 -2.7119
   23MOL0     H 3101   2.824   9.144   4.838 -2.4765 -1.5415  1.4245
   23MOL0     H 3102   2.974   9.071   4.785 -0.0143  1.7281 -0.9138
   23MOL0     H 3103   3.055   9.086   5.194  0.0319 -0.3407  0.2332
   23MOL0     H 3104   2.314   8.831   5.143  2.8383 -1.9608 -0.5518
   23MOL0     H 3105   2.112   8.957   5.067  0.2847  2.6850 -0.7562
   24MOL0     O 3106   9.104  11.073   9.212 -0.5373  0.0489 -0.8073
   24MOL0     C 3107   9.117  10.951   9.229  0.8566  0.4803  0.9950
   24MOL0     O 3108   9.020  10.866   9.269  0.2993  0.0835 -0.1419
   24MOL0     C 3109   8.885  10.905   9.291  0.2422  0.4801  0.7508
   24MOL0     C 3110   8.826  11.028   9.321 -0.8414 -0.5296 -0.5253
   24MOL0     C 3111   8.689  11.049   9.328  0.3062 -0.7662  0.1468
   24MOL0     C 3112   8.607  10.936   9.335 -0.3054 -0.9125 -0.3993
   24MOL0     O 3113   8.473  10.960   9.360  0.1259 -1.2840 -0.0139
   24MOL0     C 3114   8.374  10.852   9.343 -0.4739 -1.1178 -0.6448
   24MOL0     C 3115   8.247  10.898   9.408  0.7541 -0.4487  0.3094
   24MOL0     C 3116   8.196  11.011   9.318 -0.5555 -0.5517 -0.0088
   24MOL0     C 3117   8.061  11.050   9.369  0.0420  0.6538  0.5520
   24MOL0     C 3118   8.018  11.179   9.297 -0.5813 -0.0826 -0.5255
   24MOL0     C 3119   7.889  11.237   9.354  0.2428  0.2997  0.7377
   24MOL0     C 3120   7.871  11.385   9.319  0.0826 -0.3798  0.5498
   24MOL0     C 3121   7.780  11.456   9.416  0.0388  0.1862  0.2390
   24MOL0     N 3122   7.789  11.600   9.392 -0.1839 -0.8038  0.2784
   24MOL0     C 3123   7.897  11.686   9.397 -0.4826  0.0295 -0.1294
   24MOL0     C 3124   7.840  11.804   9.366 -0.5049 -0.4317 -0.2703
   24MOL0     C 3125   7.916  11.932   9.349 -0.8662  0.5125 -0.8735
   24MOL0     C 3126   7.968  11.969   9.481 -0.5466 -0.2976  0.1040
   24MOL0     C 3127   8.095  12.058   9.467 -0.2505  0.1728 -0.3685
   24MOL0     C 3128   8.076  12.203   9.418  0.2585  0.4087 -0.1764
   24MOL0     O 3129   8.013  12.289   9.516 -0.0099  0.1203  0.0820
   24MOL0     C 3130   8.029  12.418   9.499  0.0537 -0.5566  0.2872
   24MOL0     C 3131   8.099  12.482   9.396 -0.4009 -0.3831 -0.3613
   24MOL0     C 3132   8.109  12.622   9.376  1.1077  0.6571  0.1706
   24MOL0     C 3133   8.205  12.654   9.260  0.5317 -1.0632 -0.5050
   24MOL0     C 3134   8.027  12.705   9.457  0.2308 -0.0653 -0.3704
   24MOL0     C 3135   8.033  12.854   9.435  0.0202 -0.0389 -0.5410
   24MOL0     O 3136   7.992  12.933   9.547 -0.2499  0.0938  0.0365
   24MOL0     C 3137   7.966  13.070   9.533  0.2824  1.0909  1.0084
   24MOL0     C 3138   8.045  13.162   9.454 -0.1834  0.2560 -0.0298
   24MOL0     C 3139   8.001  13.298   9.445  0.3361  1.2368 -0.0450
   24MOL0     C 3140   7.891  13.347   9.515 -0.1360 -1.2517 -0.1913
   24MOL0     O 3141   7.843  13.475   9.494 -0.3323 -0.9560  0.2963
   24MOL0     C 3142   7.909  13.567   9.400 -0.6094  0.6674  0.0695
   24MOL0     C 3143   8.030  13.641   9.469 -0.1623 -0.3873  0.4241
   24MOL0     C 3144   7.972  13.762   9.546  0.0523 -0.8741  0.7828
   24MOL0     C 3145   8.085  13.831   9.621 -0.2704 -0.0952  0.4722
   24MOL0     C 3146   8.058  13.970   9.685 -0.3260 -0.6241  0.1372
   24MOL0     C 3147   8.170  14.026   9.779  0.7661 -0.4515 -1.2875
   24MOL0     C 3148   8.123  14.164   9.834 -0.1108 -0.3377 -0.5059
   24MOL0     C 3149   8.205  14.205   9.964  0.0255  0.8260 -0.3770
   24MOL0    Cl 3150   8.371  14.245   9.921  0.4820  0.1879 -0.0401
   24MOL0     C 3151   7.834  13.258   9.604 -0.4550 -0.4035  0.3407
   24MOL0     C 3152   7.871  13.124   9.620  1.4625 -0.4050  0.1206
   24MOL0     O 3153   8.067  12.901   9.334 -0.6154  1.0118  0.4872
   24MOL0     C 3154   7.950  12.645   9.554 -0.0876 -0.3771  0.2653
   24MOL0     C 3155   7.947  12.504   9.576  0.5379  0.0649 -0.4556
   24MOL0     N 3156   7.704  11.791   9.335  0.8059 -0.3917  0.7226
   24MOL0     N 3157   7.675  11.673   9.368 -1.4530 -0.2275  0.0612
   24MOL0     C 3158   8.666  10.814   9.300  0.0530 -0.1109 -0.3219
   24MOL0     C 3159   8.800  10.799   9.276  0.5979 -0.1928  1.1016
   24MOL0     C 3160   9.248  10.887   9.200  0.6256 -0.2314  0.4249
   24MOL0     C 3161   9.270  10.757   9.234 -0.1386 -0.2081 -0.6255
   24MOL0     C 3162   9.389  10.693   9.220 -0.6061 -0.4598  0.7830
   24MOL0     C 3163   9.502  10.762   9.165  0.1508  0.0548  0.2295
   24MOL0     O 3164   9.627  10.704   9.149 -0.1110  0.1152  0.3429
   24MOL0     C 3165   9.645  10.564   9.184  0.2600  0.1599 -0.0753
   24MOL0     C 3166   9.787  10.510   9.150 -0.9029 -0.0846  0.3749
   24MOL0     C 3167   9.882  10.557   9.257  0.3821  0.1400  0.1375
   24MOL0     C 3168  10.021  10.507   9.233  0.3276  0.3032  0.2393
   24MOL0     C 3169  10.032  10.360   9.210 -0.2980  0.4265  0.3481
   24MOL0     C 3170  10.050  10.244   9.187 -0.5622  0.1368 -0.0348
   24MOL0     C 3171   9.482  10.897   9.122 -0.7467  0.4302 -0.4701
   24MOL0     C 3172   9.356  10.957   9.153  0.7832  0.3711  0.9112
   24MOL0     H 3173   8.886  11.116   9.339  3.3428 -3.0809 -0.7331
   24MOL0     H 3174   8.644  11.148   9.333  0.8198 -0.5927  2.7940
   24MOL0     H 3175   8.366  10.832   9.236 -1.2395 -2.8242 -0.3013
   24MOL0     H 3176   8.410  10.760   9.390 -0.5746 -0.7527  0.1721
   24MOL0     H 3177   8.170  10.820   9.413  0.2686 -0.0917 -1.1421
   24MOL0     H 3178   8.270  10.930   9.510  1.4852  0.8868 -0.2497
   24MOL0     H 3179   8.259  11.095   9.349  0.9869 -2.7651  3.4925
   24MOL0     H 3180   8.188  10.990   9.211  2.7582 -4.1786  0.2164
   24MOL0     H 3181   7.990  10.969   9.350  2.1764 -0.8519 -1.6277
   24MOL0     H 3182   8.060  11.072   9.476 -0.5697  0.9341  0.4942
   24MOL0     H 3183   8.094  11.253   9.326 -0.2357 -0.4083 -0.5889
   24MOL0     H 3184   8.008  11.165   9.189  1.3831  2.0618 -1.0542
   24MOL0     H 3185   7.805  11.170   9.331  0.5963 -0.3874  1.3885
   24MOL0     H 3186   7.903  11.225   9.462  0.1805  2.6517  1.0447
   24MOL0     H 3187   7.964  11.443   9.311 -0.5382  0.6449  0.4889
   24MOL0     H 3188   7.830  11.401   9.219 -5.0032 -1.0332  2.2314
   24MOL0     H 3189   7.821  11.428   9.513  0.8070 -3.2771 -0.9416
   24MOL0     H 3190   7.680  11.412   9.415  1.9130 -4.8319  2.2526
   24MOL0     H 3191   8.004  11.675   9.413 -0.8565 -2.1170  1.4015
   24MOL0     H 3192   7.991  11.919   9.271 -1.5756  2.4814 -1.9448
   24MOL0     H 3193   7.861  12.020   9.316 -1.7670  0.0658 -0.6082
   24MOL0     H 3194   7.996  11.888   9.549 -2.7054 -0.2679  1.1159
   24MOL0     H 3195   7.896  12.023   9.543  0.1161  1.3476 -0.4933
   24MOL0     H 3196   8.178  12.010   9.413  0.8729  1.1027  0.4768
   24MOL0     H 3197   8.142  12.065   9.566 -2.0623 -0.4050  0.5686
   24MOL0     H 3198   8.023  12.201   9.322  0.7897  0.4420 -0.4721
   24MOL0     H 3199   8.178  12.239   9.401  1.4001 -1.5564  1.9672
   24MOL0     H 3200   8.151  12.424   9.321  0.4749 -1.7115  1.1966
   24MOL0     H 3201   8.303  12.680   9.303  1.0856 -0.4200 -2.0992
   24MOL0     H 3202   8.228  12.569   9.195 -0.6842 -2.0934  0.3572
   24MOL0     H 3203   8.175  12.736   9.194  0.2980  0.3265  1.2467
   24MOL0     H 3204   8.135  13.131   9.402  2.0286  2.6604  2.0974
   24MOL0     H 3205   8.061  13.361   9.380 -0.6800  2.9858  0.6352
   24MOL0     H 3206   7.952  13.513   9.315  2.6699  0.7079  1.5133
   24MOL0     H 3207   7.831  13.636   9.368 -0.6751  0.6382  0.1642
   24MOL0     H 3208   8.092  13.576   9.531 -2.5587 -0.0750  3.3910
   24MOL0     H 3209   8.086  13.692   9.390 -0.7421  0.9580  0.8414
   24MOL0     H 3210   7.902  13.726   9.621  0.3879 -0.8540  1.1082
   24MOL0     H 3211   7.913  13.821   9.476  0.4199 -2.7189 -1.2011
   24MOL0     H 3212   8.103  13.763   9.705  0.0067  1.5794  1.8127
   24MOL0     H 3213   8.173  13.844   9.558 -1.6576  0.6476 -1.4052
   24MOL0     H 3214   7.968  13.967   9.747  0.4903  1.3315  1.5371
   24MOL0     H 3215   8.042  14.049   9.611  0.1938  1.0757  1.7577
   24MOL0     H 3216   8.188  13.948   9.854 -2.8096 -1.0029 -0.8037
   24MOL0     H 3217   8.265  14.035   9.726  0.5915  2.5252 -1.2982
   24MOL0     H 3218   8.016  14.165   9.852 -0.1062 -1.4473 -0.3803
   24MOL0     H 3219   8.150  14.233   9.753  2.9966 -2.8275 -1.8388
   24MOL0     H 3220   8.198  14.131  10.045  0.1548  1.4961  0.2601
   24MOL0     H 3221   8.155  14.293  10.007 -0.2328  0.6188 -0.2473
   24MOL0     H 3222   7.753  13.306   9.658  1.1040  2.1534  0.5479
   24MOL0     H 3223   7.819  13.051   9.681  0.8507 -2.6751 -2.8798
   24MOL0     H 3224   7.877  12.702   9.610  0.0608 -0.1187  0.1997
   24MOL0     H 3225   7.880  12.458   9.648 -2.1832 -1.1448 -3.4831
   24MOL0     H 3226   8.606  10.723   9.296  1.5254 -1.0784 -1.4389
   24MOL0     H 3227   8.833  10.699   9.250  0.5330 -0.2990  1.4241
   24MOL0     H 3228   9.185  10.699   9.269 -1.3260 -1.3083 -4.6950
   24MOL0     H 3229   9.401  10.591   9.257  0.8108  0.0456  1.8111
   24MOL0     H 3230   9.612  10.533   9.283 -1.4208 -0.4913 -0.8174
   24MOL0     H 3231   9.587  10.507   9.111  0.6237  0.4157 -0.5786
   24MOL0     H 3232   9.814  10.546   9.050  1.0202 -0.0566  0.8769
   24MOL0     H 3233   9.794  10.402   9.135  3.0626 -0.2537  2.2691
   24MOL0     H 3234   9.846  10.515   9.351  0.1946 -3.9606 -1.5407
   24MOL0     H 3235   9.872  10.666   9.252 -0.4949  0.0216 -1.1643
   24MOL0     H 3236  10.092  10.536   9.312  1.8624 -1.8734 -0.2448
   24MOL0     H 3237  10.060  10.566   9.149  0.0222  2.8496  1.7894
   24MOL0     H 3238  10.076  10.140   9.178  0.8788  0.4098  0.7019
   24MOL0     H 3239   9.560  10.954   9.074  2.2557 -3.6484 -1.0177
   24MOL0     H 3240   9.337  11.063   9.134 -0.5044  0.1014  0.5596
   25MOL0     O 3241   2.904  10.982   5.483 -0.8109  0.3142  0.2888
   25MOL0     C 3242   2.938  11.029   5.589  0.7703  0.8954  0.4730
   25MOL0     O 3243   2.870  11.013   5.707 -0.3910 -0.0073  0.5876
   25MOL0     C 3244   2.737  10.982   5.719  1.3094  0.3202  0.3167
   25MOL0     C 3245   2.649  10.978   5.609 -0.8372 -0.1555  0.4376
   25MOL0     C 3246   2.517  10.938   5.614 -0.9400  1.1601  0.1102
   25MOL0     C 3247   2.460  10.920   5.739  0.1249 -0.1876 -0.2693
   25MOL0     O 3248   2.334  10.875   5.746  0.1466 -0.6717  0.3248
   25MOL0     C 3249   2.220  10.955   5.806  0.0365  0.6365 -0.1597
   25MOL0     C 3250   2.099  10.881   5.748 -0.1733 -0.1261  0.1335
   25MOL0     C 3251   1.960  10.947   5.792  0.2262  0.8790 -0.7450
   25MOL0     C 3252   1.836  10.882   5.721 -0.4504 -0.7075  0.3684
   25MOL0     C 3253   1.705  10.931   5.776  0.4018  0.5421 -0.4754
   25MOL0     C 3254   1.578  10.890   5.705  0.0432 -0.8732 -0.1199
   25MOL0     C 3255   1.574  10.742   5.718 -0.0539 -0.1650  0.3976
   25MOL0     C 3256   1.428  10.686   5.700  0.7256  0.0981  0.4029
   25MOL0     N 3257   1.421  10.542   5.685  0.8081 -1.4010  1.3301
   25MOL0     C 3258   1.407  10.445   5.782 -0.2948 -0.0002  0.2463
   25MOL0     C 3259   1.372  10.334   5.717  0.5673  0.2954 -0.0459
   25MOL0     C 3260   1.339  10.203   5.779  0.4768 -0.0722 -0.4685
   25MOL0     C 3261   1.189  10.163   5.755 -0.2000 -0.0880  0.7780
   25MOL0     C 3262   1.118  10.065   5.846 -0.3015  0.0964 -0.1061
   25MOL0     C 3263   0.963  10.066   5.823 -0.5744 -0.4161 -0.4996
   25MOL0     O 3264   0.907   9.944   5.885  0.7839 -0.1277  0.6413
   25MOL0     C 3265   0.774   9.934   5.888  0.7190 -0.0401  0.8142
   25MOL0     C 3266   0.719   9.843   5.973  0.2562 -0.6935 -0.2633
   25MOL0     C 3267   0.584   9.803   5.970  0.4992  0.5379 -0.7667
   25MOL0     C 3268   0.529   9.697   6.071  0.0378 -0.5796 -0.1214
   25MOL0     C 3269   0.506   9.856   5.870  1.0251 -0.0171 -0.6643
   25MOL0     C 3270   0.367   9.817   5.852 -0.2306 -0.5637  1.0116
   25MOL0     O 3271   0.287   9.801   5.962 -0.0819  0.5418  0.3833
   25MOL0     C 3272   0.155   9.808   5.957  0.3352  0.1080  0.2452
   25MOL0     C 3273   0.096   9.771   6.078 -0.8532 -0.3209 -0.2639
   25MOL0     C 3274  -0.040   9.766   6.085  0.7900 -0.5554  0.4379
   25MOL0     C 3275  -0.119   9.820   5.980 -0.1134 -0.1511  0.5688
   25MOL0     O 3276  -0.262   9.831   5.980  0.8304  0.0477 -0.2619
   25MOL0     C 3277  -0.328   9.775   6.098  0.1287  0.7969  0.7349
   25MOL0     C 3278  -0.478   9.788   6.081  0.4236 -0.0935 -0.4686
   25MOL0     C 3279  -0.552   9.718   6.193  0.1352  0.4132 -0.4805
   25MOL0     C 3280  -0.588   9.578   6.161  0.3083 -0.1031 -0.6188
   25MOL0     C 3281  -0.679   9.526   6.281 -0.1231  0.2715 -0.6130
   25MOL0     C 3282  -0.733   9.389   6.248  0.7439 -0.2148 -0.4303
   25MOL0     C 3283  -0.636   9.263   6.246  0.0129  0.0869  0.4572
   25MOL0     C 3284  -0.569   9.244   6.381  0.2723 -0.1197  1.4167
   25MOL0    Cl 3285  -0.495   9.080   6.373 -0.0170 -0.1844 -0.2638
   25MOL0     C 3286  -0.055   9.873   5.866  0.0503  0.3518 -0.0968
   25MOL0     C 3287   0.083   9.864   5.852 -0.0910  0.9232  0.0431
   25MOL0     O 3288   0.336   9.800   5.730 -0.0343 -0.1723 -0.6104
   25MOL0     C 3289   0.561   9.950   5.782 -0.2494  0.0984  0.7113
   25MOL0     C 3290   0.699   9.986   5.785  1.1462 -1.0059  0.4680
   25MOL0     N 3291   1.349  10.369   5.590 -0.3023 -0.8922  0.0364
   25MOL0     N 3292   1.384  10.487   5.565  0.3381  0.4747 -0.0652
   25MOL0     C 3293   2.532  10.936   5.858 -0.5117  0.6398  0.1941
   25MOL0     C 3294   2.671  10.971   5.841  0.4847  0.2459  0.3660
   25MOL0     C 3295   3.070  11.095   5.596  0.2072  0.0764  0.2167
   25MOL0     C 3296   3.103  11.163   5.708  0.7466  1.3657 -0.0230
   25MOL0     C 3297   3.235  11.213   5.734 -0.2447 -0.2740  0.0247
   25MOL0     C 3298   3.340  11.206   5.637  0.3191 -0.4141  0.7777
   25MOL0     O 3299   3.459  11.251   5.667  0.3101  0.1266  0.2601
   25MOL0     C 3300   3.549  11.297   5.569  0.6173  0.8310  0.4102
   25MOL0     C 3301   3.645  11.410   5.623 -0.3369  0.1211  0.1866
   25MOL0     C 3302   3.579  11.551   5.616  0.1205  0.0705  0.3223
   25MOL0     C 3303   3.663  11.670   5.671  0.5521  0.0347 -0.4724
   25MOL0     C 3304   3.808  11.671   5.631  0.0550 -0.2855  0.1033
   25MOL0     C 3305   3.927  11.683   5.596 -0.2927 -0.0652  0.0738
   25MOL0     C 3306   3.302  11.134   5.522 -0.7256 -0.0827 -0.2739
   25MOL0     C 3307   3.177  11.074   5.499  0.3068 -0.4513 -0.4516
   25MOL0     H 3308   2.685  10.996   5.509  1.4235 -2.7667  0.6588
   25MOL0     H 3309   2.468  10.905   5.523  0.3925  0.8303 -0.5111
   25MOL0     H 3310   2.229  10.949   5.914  1.9191 -0.5539 -0.3268
   25MOL0     H 3311   2.221  11.057   5.766 -1.5353  1.8612  2.6527
   25MOL0     H 3312   2.102  10.877   5.638  1.9260  0.6915  0.1219
   25MOL0     H 3313   2.103  10.783   5.797 -2.4264 -1.7334 -2.5735
   25MOL0     H 3314   1.939  10.937   5.899 -0.9383 -0.0228 -1.0293
   25MOL0     H 3315   1.955  11.055   5.774  0.6825  0.8705 -0.9370
   25MOL0     H 3316   1.834  10.912   5.615  2.5784 -1.5136 -0.0217
   25MOL0     H 3317   1.851  10.774   5.719 -0.6373 -0.7436  0.9072
   25MOL0     H 3318   1.699  10.906   5.882  0.9098 -3.4890 -1.2348
   25MOL0     H 3319   1.710  11.040   5.769 -0.6638  0.7856  1.7543
   25MOL0     H 3320   1.495  10.935   5.760  1.4432  1.2382  0.4024
   25MOL0     H 3321   1.570  10.926   5.602  0.4556  1.3926  0.5786
   25MOL0     H 3322   1.640  10.702   5.640  0.2717 -1.8562  1.4786
   25MOL0     H 3323   1.621  10.684   5.798  0.1736 -0.5136  0.0190
   25MOL0     H 3324   1.388  10.735   5.610 -1.2062  0.6514  1.4997
   25MOL0     H 3325   1.374  10.714   5.791 -2.7358 -4.4874  0.1083
   25MOL0     H 3326   1.411  10.458   5.889  0.7745 -0.5964  0.2974
   25MOL0     H 3327   1.399  10.123   5.734 -0.4038 -2.1429  1.8284
   25MOL0     H 3328   1.362  10.208   5.886 -2.7279  3.0961  0.2601
   25MOL0     H 3329   1.180  10.113   5.658 -2.3702  1.6119  0.0002
   25MOL0     H 3330   1.134  10.258   5.751  2.0467  1.2600 -0.1509
   25MOL0     H 3331   1.144  10.086   5.950  0.0450 -3.4218  0.6454
   25MOL0     H 3332   1.152   9.963   5.829 -0.3379 -0.3365  2.1495
   25MOL0     H 3333   0.956  10.049   5.715  1.8033 -0.5393 -0.6832
   25MOL0     H 3334   0.924  10.164   5.853  2.7628  1.8618 -2.8046
   25MOL0     H 3335   0.785   9.801   6.048  1.6545  1.7438 -0.0032
   25MOL0     H 3336   0.609   9.679   6.143 -0.2344 -0.5591  0.1887
   25MOL0     H 3337   0.435   9.726   6.119 -1.8057 -4.6398 -0.8669
   25MOL0     H 3338   0.517   9.599   6.025 -3.3713 -0.2052 -0.3250
   25MOL0     H 3339   0.156   9.735   6.161 -2.6313  0.1549  1.3140
   25MOL0     H 3340  -0.082   9.736   6.181  0.6676  0.0099  0.5648
   25MOL0     H 3341  -0.309   9.668   6.103 -3.2155 -0.0727 -1.4602
   25MOL0     H 3342  -0.289   9.825   6.187  2.4973 -1.1174  0.8565
   25MOL0     H 3343  -0.501   9.894   6.089 -0.8316 -0.2342 -1.7684
   25MOL0     H 3344  -0.518   9.760   5.983 -1.3748 -0.7421  0.3998
   25MOL0     H 3345  -0.638   9.779   6.220 -1.3210 -1.8167  0.2095
   25MOL0     H 3346  -0.488   9.723   6.281 -0.4220 -2.0920  0.1556
   25MOL0     H 3347  -0.643   9.577   6.066 -1.4302 -1.5925  0.3217
   25MOL0     H 3348  -0.499   9.515   6.163 -0.7650 -1.6662 -0.0180
   25MOL0     H 3349  -0.765   9.593   6.288 -1.3412 -1.3448  1.0079
   25MOL0     H 3350  -0.618   9.530   6.372  1.4562  1.7675 -1.6665
   25MOL0     H 3351  -0.819   9.369   6.312  1.2428  1.0403  0.6692
   25MOL0     H 3352  -0.762   9.391   6.142  1.7099 -0.3685 -0.7146
   25MOL0     H 3353  -0.564   9.264   6.164  0.9469 -0.0845  1.2481
   25MOL0     H 3354  -0.705   9.181   6.224 -3.1631  2.3055  1.4772
   25MOL0     H 3355  -0.643   9.240   6.462 -0.0897 -0.2548  1.0796
   25MOL0     H 3356  -0.498   9.322   6.409 -1.0851  0.8739  2.2621
   25MOL0     H 3357  -0.107   9.917   5.782  3.1888  0.0953 -2.3421
   25MOL0     H 3358   0.125   9.904   5.760  0.0463  1.8003  0.4827
   25MOL0     H 3359   0.501   9.989   5.701  0.5275  0.0660  0.1013
   25MOL0     H 3360   0.736  10.045   5.702 -0.6175 -0.3272  0.1122
   25MOL0     H 3361   2.485  10.928   5.956  1.8519  0.7278  1.4143
   25MOL0     H 3362   2.730  10.969   5.933 -0.1711 -0.8814  0.7797
   25MOL0     H 3363   3.026  11.185   5.782  0.2051 -2.3644  0.7338
   25MOL0     H 3364   3.254  11.253   5.833 -0.3422 -0.7090  0.2230
   25MOL0     H 3365   3.599  11.207   5.531  3.8225  3.9646 -3.7971
   25MOL0     H 3366   3.498  11.330   5.478 -1.3298 -0.9817  0.7757
   25MOL0     H 3367   3.730  11.412   5.555 -0.7764  1.7494 -0.3511
   25MOL0     H 3368   3.668  11.391   5.729 -1.6933  1.9065  0.8436
   25MOL0     H 3369   3.490  11.538   5.678 -0.5078  1.6646 -0.1967
   25MOL0     H 3370   3.548  11.569   5.513  1.4080 -0.9956 -0.2824
   25MOL0     H 3371   3.668  11.683   5.780  2.7042 -0.2473 -0.5049
   25MOL0     H 3372   3.624  11.762   5.626 -2.2688 -1.0521 -0.4256
   25MOL0     H 3373   4.028  11.696   5.562 -0.4051  2.5469  0.4969
   25MOL0     H 3374   3.386  11.111   5.458  0.4398 -0.1316  1.2292
   25MOL0     H 3375   3.154  11.011   5.414 -4.8573 -1.3492  1.2528
   26MOL0     O 3376   6.284   7.973   8.669 -0.1489  0.7161  0.4084
   26MOL0     C 3377   6.365   7.880   8.676 -0.3243  0.0685  0.3761
   26MOL0     O 3378   6.367   7.791   8.782 -0.1438  0.0079  0.2790
   26MOL0     C 3379   6.311   7.815   8.893  0.6450  0.5190 -0.7345
   26MOL0     C 3380   6.183   7.776   8.922  0.5777  0.3399  0.9713
   26MOL0     C 3381   6.142   7.769   9.054  1.2876 -0.3154  0.1665
   26MOL0     C 3382   6.227   7.809   9.156 -0.9018 -0.4743 -0.3223
   26MOL0     O 3383   6.177   7.799   9.278  0.6244 -0.7545 -0.0985
   26MOL0     C 3384   6.237   7.865   9.389  0.2304  0.3355 -0.2755
   26MOL0     C 3385   6.139   7.849   9.515  0.2357  0.0059  0.3199
   26MOL0     C 3386   6.010   7.928   9.508  0.0747  0.3201  0.5479
   26MOL0     C 3387   5.940   7.918   9.640  0.0802  0.2680 -0.4271
   26MOL0     C 3388   5.811   7.990   9.626 -0.0118 -0.2047  0.7606
   26MOL0     C 3389   5.747   8.004   9.755  0.3987  0.5042  0.3734
   26MOL0     C 3390   5.611   8.067   9.738 -0.6277 -0.6454 -0.3861
   26MOL0     C 3391   5.610   8.219   9.739 -0.4697  0.1136 -0.7097
   26MOL0     N 3392   5.468   8.263   9.747  0.1328 -0.2000 -0.1417
   26MOL0     C 3393   5.375   8.218   9.834  0.4614  0.8306 -0.5866
   26MOL0     C 3394   5.255   8.273   9.797  0.6537 -0.5003  0.1246
   26MOL0     C 3395   5.118   8.265   9.859 -0.3559  0.2228 -0.4925
   26MOL0     C 3396   5.033   8.390   9.843 -0.0952  0.4439  0.6047
   26MOL0     C 3397   4.895   8.378   9.909 -0.3331  0.6828 -0.8580
   26MOL0     C 3398   4.781   8.460   9.855  0.3171  0.3985  0.6278
   26MOL0     O 3399   4.659   8.434   9.926  0.1633  0.0830 -0.1189
   26MOL0     C 3400   4.543   8.503   9.898 -0.0642 -0.3416  0.0922
   26MOL0     C 3401   4.531   8.598   9.790  0.3838 -0.0765  0.3515
   26MOL0     C 3402   4.404   8.650   9.754  0.0343 -0.2702 -1.1379
   26MOL0     C 3403   4.412   8.735   9.623 -0.2648  1.1275  0.0140
   26MOL0     C 3404   4.289   8.617   9.822  1.3447  0.0438 -0.9885
   26MOL0     C 3405   4.155   8.663   9.788  0.4257  0.1322  0.1905
   26MOL0     O 3406   4.055   8.585   9.829  0.0085  0.1336 -0.3612
   26MOL0     C 3407   3.927   8.587   9.777 -0.0465 -0.3015 -0.3388
   26MOL0     C 3408   3.905   8.632   9.645 -0.3987 -0.2325 -0.3891
   26MOL0     C 3409   3.774   8.638   9.602  0.4625 -0.4804  0.0826
   26MOL0     C 3410   3.665   8.603   9.684  0.0126 -0.1989  0.2558
   26MOL0     O 3411   3.530   8.611   9.638 -0.0621  0.0993  0.0336
   26MOL0     C 3412   3.474   8.734   9.693 -0.3053  0.7238  0.1986
   26MOL0     C 3413   3.356   8.770   9.612  0.4428  0.3206  0.5835
   26MOL0     C 3414   3.238   8.667   9.617  0.2332 -0.4720 -0.1063
   26MOL0     C 3415   3.120   8.722   9.529  0.1678 -0.4322  0.2112
   26MOL0     C 3416   3.005   8.617   9.510  0.1841 -1.0068 -0.4896
   26MOL0     C 3417   2.892   8.692   9.443 -0.9218  0.3505  0.7672
   26MOL0     C 3418   2.769   8.604   9.469  0.5332  0.2119 -0.3598
   26MOL0     C 3419   2.649   8.684   9.419 -0.3367 -0.3678  0.1925
   26MOL0    Cl 3420   2.480   8.601   9.410 -0.3514  0.1254 -0.1313
   26MOL0     C 3421   3.689   8.561   9.816 -0.6815  0.1027 -0.0282
   26MOL0     C 3422   3.824   8.554   9.861  0.4281 -0.2269  0.1800
   26MOL0     O 3423   4.138   8.772   9.733 -0.2037 -0.0962 -0.3178
   26MOL0     C 3424   4.303   8.522   9.928 -0.5673 -0.0812  0.1897
   26MOL0     C 3425   4.433   8.472   9.964  0.7707 -0.0350 -0.4576
   26MOL0     N 3426   5.280   8.344   9.685 -0.8316 -0.6024 -0.0285
   26MOL0     N 3427   5.402   8.335   9.648  0.3831  0.7898 -0.6852
   26MOL0     C 3428   6.353   7.856   9.127 -0.2958 -0.2134  1.1966
   26MOL0     C 3429   6.399   7.847   8.999 -0.0159 -0.2325  0.7621
   26MOL0     C 3430   6.471   7.868   8.576 -0.4032 -0.3421  0.1561
   26MOL0     C 3431   6.569   7.768   8.592  0.3978 -0.4534  0.3418
   26MOL0     C 3432   6.681   7.768   8.506 -0.3076 -0.0684 -0.0429
   26MOL0     C 3433   6.685   7.864   8.405 -0.8566 -0.7517 -0.5696
   26MOL0     O 3434   6.763   7.861   8.296 -0.2497  0.0172 -0.6629
   26MOL0     C 3435   6.874   7.775   8.298 -0.1622  1.1873 -0.0572
   26MOL0     C 3436   6.982   7.807   8.411  0.1682 -0.9674 -0.4658
   26MOL0     C 3437   7.094   7.720   8.399  0.2763 -0.3881 -0.5000
   26MOL0     C 3438   7.185   7.740   8.519  0.6725 -0.3590  1.2348
   26MOL0     C 3439   7.308   7.665   8.509  0.9632  0.1167 -0.6757
   26MOL0     C 3440   7.419   7.607   8.501 -0.3222 -0.5825 -0.6914
   26MOL0     C 3441   6.590   7.964   8.398 -0.9090  0.4481 -0.2686
   26MOL0     C 3442   6.477   7.964   8.479 -0.3422  0.1910 -0.5727
   26MOL0     H 3443   6.120   7.744   8.839  0.7444 -0.5863  1.1896
   26MOL0     H 3444   6.038   7.752   9.082  1.1877 -0.6028 -0.3668
   26MOL0     H 3445   6.332   7.818   9.415  0.6281  0.0956 -2.0640
   26MOL0     H 3446   6.250   7.971   9.365  1.0866 -0.2462 -2.5508
   26MOL0     H 3447   6.110   7.744   9.521 -0.7704  0.1619 -1.1859
   26MOL0     H 3448   6.182   7.873   9.613  1.5219 -5.8604  1.5816
   26MOL0     H 3449   6.030   8.032   9.480 -1.3938  0.8743  1.4240
   26MOL0     H 3450   5.945   7.888   9.430 -0.6668  2.7050 -0.1376
   26MOL0     H 3451   5.922   7.814   9.670  1.8098 -0.1296 -0.6487
   26MOL0     H 3452   6.004   7.950   9.723 -1.3149 -0.4959  1.0134
   26MOL0     H 3453   5.830   8.093   9.594  0.9810 -0.6464 -0.1081
   26MOL0     H 3454   5.759   7.940   9.544  2.0628 -1.3240  0.0562
   26MOL0     H 3455   5.742   7.906   9.803  2.9691 -0.7374 -1.5888
   26MOL0     H 3456   5.806   8.068   9.822  0.9495  0.4440 -0.0392
   26MOL0     H 3457   5.563   8.036   9.645  0.5524 -2.6403 -0.3779
   26MOL0     H 3458   5.548   8.024   9.816  0.5090 -2.9289 -0.6510
   26MOL0     H 3459   5.665   8.257   9.652  3.0224 -0.4820  1.0513
   26MOL0     H 3460   5.660   8.267   9.824 -1.0009 -0.5790  0.0034
   26MOL0     H 3461   5.394   8.151   9.918 -0.1098 -1.6636 -2.3260
   26MOL0     H 3462   5.049   8.195   9.810 -2.8173 -0.8704  4.0061
   26MOL0     H 3463   5.121   8.239   9.965 -0.2699  0.1776 -0.5063
   26MOL0     H 3464   5.003   8.411   9.740 -0.4976  3.5672  1.2729
   26MOL0     H 3465   5.085   8.476   9.886  0.6320  0.4990 -0.3571
   26MOL0     H 3466   4.906   8.396  10.017 -2.5140  0.7279 -0.5974
   26MOL0     H 3467   4.860   8.274   9.902  0.2484  0.5007 -1.1593
   26MOL0     H 3468   4.774   8.435   9.749  1.1426 -2.8972  1.2386
   26MOL0     H 3469   4.806   8.566   9.865 -0.0788  0.4569  1.0225
   26MOL0     H 3470   4.618   8.621   9.729  0.1643  1.3973  0.5538
   26MOL0     H 3471   4.409   8.840   9.652  1.3515  0.8067  1.4734
   26MOL0     H 3472   4.515   8.741   9.585 -0.3657  0.3958 -0.4071
   26MOL0     H 3473   4.345   8.704   9.542  0.2141  2.3640 -0.8985
   26MOL0     H 3474   3.988   8.658   9.581 -0.9768 -0.7715 -1.3858
   26MOL0     H 3475   3.754   8.674   9.501  2.5534 -1.1303 -0.6216
   26MOL0     H 3476   3.437   8.722   9.795  0.5942 -6.0811  0.1582
   26MOL0     H 3477   3.544   8.817   9.678 -0.0449  0.1318 -2.2775
   26MOL0     H 3478   3.318   8.867   9.647  1.2234  0.4860  0.9972
   26MOL0     H 3479   3.389   8.798   9.512 -0.8806  0.7329  0.2399
   26MOL0     H 3480   3.200   8.650   9.718  0.1246 -0.1949 -0.0989
   26MOL0     H 3481   3.275   8.570   9.581 -1.8364 -1.3919  0.0981
   26MOL0     H 3482   3.082   8.808   9.586  0.7657 -2.0903  3.3262
   26MOL0     H 3483   3.163   8.757   9.434 -0.0653 -0.3871  0.1201
   26MOL0     H 3484   2.969   8.565   9.600 -1.1444 -2.7598 -1.9578
   26MOL0     H 3485   3.046   8.539   9.446 -0.8000 -1.7066 -0.3042
   26MOL0     H 3486   2.886   8.789   9.494  0.9477  0.5019  0.7608
   26MOL0     H 3487   2.921   8.715   9.340  1.2926 -0.6047  1.1210
   26MOL0     H 3488   2.754   8.573   9.573 -0.5523  0.1668 -0.5181
   26MOL0     H 3489   2.775   8.510   9.415 -0.4078  0.4033 -0.8110
   26MOL0     H 3490   2.669   8.716   9.317 -1.4483 -1.8832 -0.5330
   26MOL0     H 3491   2.637   8.775   9.479  2.5258  1.1011 -1.2831
   26MOL0     H 3492   3.602   8.546   9.878 -1.5969  1.6254 -0.8566
   26MOL0     H 3493   3.838   8.512   9.960 -1.3748 -0.9214  0.1799
   26MOL0     H 3494   4.220   8.469   9.974 -1.1103  1.3488  0.9235
   26MOL0     H 3495   4.443   8.389  10.034  1.3890  0.6537  0.2989
   26MOL0     H 3496   6.412   7.900   9.207 -0.7363  0.0964  1.3558
   26MOL0     H 3497   6.503   7.870   8.981 -0.5152  0.7717 -1.1085
   26MOL0     H 3498   6.573   7.692   8.668 -1.6828  0.7198  1.7166
   26MOL0     H 3499   6.753   7.687   8.507 -0.1608  0.0593 -0.0848
   26MOL0     H 3500   6.853   7.668   8.306  1.2230  0.1478 -5.7462
   26MOL0     H 3501   6.921   7.780   8.200  1.7704  0.0876  0.7537
   26MOL0     H 3502   6.938   7.799   8.511  0.0626 -0.5218 -0.4771
   26MOL0     H 3503   7.002   7.914   8.399 -0.0211 -1.1120 -2.4327
   26MOL0     H 3504   7.162   7.749   8.319 -1.8092 -1.2432 -2.6814
   26MOL0     H 3505   7.072   7.613   8.399  3.0381 -1.0712  1.0699
   26MOL0     H 3506   7.141   7.706   8.613  1.6653 -3.5566  0.6390
   26MOL0     H 3507   7.201   7.843   8.551 -0.1620 -0.8516  3.3844
   26MOL0     H 3508   7.513   7.557   8.489  0.0766 -0.0654  0.1744
   26MOL0     H 3509   6.580   8.037   8.319 -0.5844  0.0628 -0.6702
   26MOL0     H 3510   6.400   8.040   8.472 -0.7076 -0.0041  0.8646
   27MOL0     O 3511   3.767  10.820   8.226  0.2232  0.2834  0.4257
   27MOL0     C 3512   3.749  10.940   8.250 -0.9178 -0.0752  1.0609
   27MOL0     O 3513   3.849  11.037   8.281 -1.3151  0.2121 -0.2615
   27MOL0     C 3514   3.979  11.007   8.302 -0.3496 -0.2536 -0.1029
   27MOL0     C 3515   4.052  10.917   8.220 -0.5942 -0.1648  0.6964
   27MOL0     C 3516   4.186  10.891   8.238 -0.0340 -0.4687 -1.1188
   27MOL0     C 3517   4.252  10.945   8.342  0.6229  0.1268 -0.0136
   27MOL0     O 3518   4.384  10.915   8.352 -0.6438  0.6676 -0.1060
   27MOL0     C 3519   4.471  10.980   8.454 -0.8388  0.2880  0.1851
   27MOL0     C 3520   4.490  10.912   8.589  0.2787 -0.1094 -0.4197
   27MOL0     C 3521   4.617  10.971   8.657 -0.2989  0.6644 -0.8431
   27MOL0     C 3522   4.672  10.883   8.774  0.1283 -0.5113 -0.1744
   27MOL0     C 3523   4.805  10.956   8.827  0.0846  0.1417 -0.2949
   27MOL0     C 3524   4.855  10.904   8.962  0.2569 -0.2398 -0.0180
   27MOL0     C 3525   4.866  10.751   8.961 -0.5288 -0.3053 -0.0589
   27MOL0     C 3526   4.906  10.700   9.100  0.2452 -0.5198  0.0811
   27MOL0     N 3527   5.043  10.737   9.126  0.6391 -0.0611 -0.2620
   27MOL0     C 3528   5.156  10.687   9.067  0.2785  0.4854 -0.2226
   27MOL0     C 3529   5.261  10.748   9.117  0.9898 -0.3678 -0.4885
   27MOL0     C 3530   5.407  10.742   9.076  0.0414  0.7229  0.4041
   27MOL0     C 3531   5.468  10.876   9.032  0.1156 -0.1693 -0.4118
   27MOL0     C 3532   5.400  10.926   8.903 -0.6423  0.1397 -1.2615
   27MOL0     C 3533   5.445  10.842   8.785  0.1248  0.2295  0.0178
   27MOL0     O 3534   5.356  10.735   8.762 -0.5853 -0.6756 -0.0941
   27MOL0     C 3535   5.255  10.744   8.672 -0.0833  0.6166 -0.2994
   27MOL0     C 3536   5.215  10.617   8.617 -0.1039 -0.6537  0.3050
   27MOL0     C 3537   5.102  10.624   8.532 -1.0172 -0.3742  1.4238
   27MOL0     C 3538   5.060  10.493   8.474  0.1383  0.3901  0.2341
   27MOL0     C 3539   5.037  10.747   8.499 -0.6047  0.3142 -0.1021
   27MOL0     C 3540   4.923  10.763   8.400 -0.2454  0.1284 -0.2185
   27MOL0     O 3541   4.857  10.647   8.357  0.4912 -0.0842 -0.0216
   27MOL0     C 3542   4.772  10.636   8.246  0.5344 -0.8963 -0.1150
   27MOL0     C 3543   4.785  10.536   8.146  0.1162 -0.1182 -0.0697
   27MOL0     C 3544   4.675  10.506   8.061  0.7600 -0.8100 -1.0199
   27MOL0     C 3545   4.557  10.583   8.069  0.1724 -0.8032 -0.3932
   27MOL0     O 3546   4.441  10.574   7.997 -0.1856  0.4505 -0.0674
   27MOL0     C 3547   4.460  10.543   7.855  0.0526 -0.1211  0.0230
   27MOL0     C 3548   4.322  10.541   7.801  0.0928 -0.1560 -1.2831
   27MOL0     C 3549   4.303  10.532   7.649  0.6237  0.0141  0.6937
   27MOL0     C 3550   4.153  10.566   7.621 -0.5983  0.0838 -0.0157
   27MOL0     C 3551   4.120  10.551   7.467 -0.0130 -0.1920  0.0534
   27MOL0     C 3552   3.983  10.595   7.429 -0.2792 -0.6506  0.5029
   27MOL0     C 3553   3.982  10.629   7.276 -0.3655 -0.1772 -0.1966
   27MOL0     C 3554   3.841  10.663   7.220 -0.6636  0.1091 -0.3181
   27MOL0    Cl 3555   3.717  10.537   7.256  0.3489 -0.4658 -0.8623
   27MOL0     C 3556   4.550  10.692   8.157  0.5240  0.3763 -0.6076
   27MOL0     C 3557   4.657  10.714   8.247  0.1236 -0.1721  1.2956
   27MOL0     O 3558   4.897  10.866   8.347  0.0054  0.2643 -0.1482
   27MOL0     C 3559   5.094  10.866   8.550 -0.0879  0.1028 -0.2600
   27MOL0     C 3560   5.206  10.863   8.628 -0.3452  0.2697 -0.2812
   27MOL0     N 3561   5.210  10.832   9.212 -0.0748 -0.4462  0.4953
   27MOL0     N 3562   5.081  10.831   9.219  0.5337  0.0977 -0.3452
   27MOL0     C 3563   4.180  11.019   8.432  0.5479 -0.1276 -0.2896
   27MOL0     C 3564   4.046  11.062   8.405  0.0216 -0.4463 -0.3665
   27MOL0     C 3565   3.614  10.988   8.246  0.2875  0.2031 -0.7425
   27MOL0     C 3566   3.583  11.118   8.253 -0.1550 -1.1610  0.2177
   27MOL0     C 3567   3.445  11.167   8.244  0.8178  0.6747 -0.0792
   27MOL0     C 3568   3.349  11.075   8.232 -0.9381 -0.7651  0.2484
   27MOL0     O 3569   3.224  11.122   8.197  0.4161  0.4915 -0.4519
   27MOL0     C 3570   3.120  11.103   8.301  0.0318  0.3329 -0.3319
   27MOL0     C 3571   2.983  11.079   8.233 -0.3455 -0.4643  0.1896
   27MOL0     C 3572   2.879  11.051   8.340  0.8173  0.6063 -0.1003
   27MOL0     C 3573   2.741  11.040   8.283  0.7237  0.2747  0.5916
   27MOL0     C 3574   2.734  10.922   8.187  0.9616  0.3575 -0.5005
   27MOL0     C 3575   2.735  10.829   8.100  0.6836 -0.0092 -0.0734
   27MOL0     C 3576   3.387  10.938   8.216  0.5042 -0.3793 -0.7106
   27MOL0     C 3577   3.517  10.899   8.216 -0.4767 -0.1631 -0.2586
   27MOL0     H 3578   3.994  10.859   8.149  0.1614  1.1028 -1.0236
   27MOL0     H 3579   4.240  10.829   8.167  0.6757  0.5625 -1.4957
   27MOL0     H 3580   4.568  10.991   8.404 -0.4455 -0.3674  0.7700
   27MOL0     H 3581   4.431  11.080   8.470  0.3146  0.4104  2.9358
   27MOL0     H 3582   4.400  10.938   8.645  0.1952 -1.9832  0.3796
   27MOL0     H 3583   4.495  10.804   8.572 -1.5261  0.0003 -1.9211
   27MOL0     H 3584   4.690  10.969   8.575  1.1189  1.4355  0.3423
   27MOL0     H 3585   4.590  11.070   8.694 -4.4402 -1.3086  2.2009
   27MOL0     H 3586   4.608  10.870   8.862  1.1097 -0.8863  0.5097
   27MOL0     H 3587   4.685  10.780   8.740 -1.6966 -1.3924  1.5484
   27MOL0     H 3588   4.888  10.937   8.758  1.0165  1.3868  0.4302
   27MOL0     H 3589   4.795  11.065   8.834  1.7536  0.2505  1.0968
   27MOL0     H 3590   4.953  10.950   8.979 -0.9810  3.4037 -1.7073
   27MOL0     H 3591   4.780  10.930   9.037  0.2294  2.5450 -0.8756
   27MOL0     H 3592   4.768  10.705   8.945  0.9739 -4.5405  1.5203
   27MOL0     H 3593   4.931  10.718   8.880  0.7209 -0.2313  0.8783
   27MOL0     H 3594   4.906  10.591   9.112  2.2467 -0.8505 -2.1055
   27MOL0     H 3595   4.847  10.743   9.182  2.2994 -1.4275  2.1726
   27MOL0     H 3596   5.168  10.608   8.994 -0.5503 -0.0080  0.1570
   27MOL0     H 3597   5.447  10.715   9.174 -0.2227  0.6463  0.4934
   27MOL0     H 3598   5.429  10.664   9.003  2.1897  2.6275 -1.1274
   27MOL0     H 3599   5.577  10.875   9.023  0.2707 -3.1542  0.7117
   27MOL0     H 3600   5.451  10.948   9.112  1.1252  0.3089 -0.6094
   27MOL0     H 3601   5.434  11.028   8.886 -2.5088  1.6904  2.9819
   27MOL0     H 3602   5.292  10.939   8.915 -0.4270  3.2614 -1.9231
   27MOL0     H 3603   5.547  10.806   8.800  1.1572  1.9629 -2.2281
   27MOL0     H 3604   5.460  10.903   8.695  0.6525 -0.4371 -0.3532
   27MOL0     H 3605   5.265  10.525   8.646  1.7617  0.7329  1.7867
   27MOL0     H 3606   5.140  10.419   8.487  1.8889  1.6489 -2.4034
   27MOL0     H 3607   4.977  10.459   8.536  2.2960 -2.6307  1.7087
   27MOL0     H 3608   5.040  10.485   8.367  1.1036 -0.1810  0.0853
   27MOL0     H 3609   4.863  10.461   8.138  0.0080 -0.4570  1.5876
   27MOL0     H 3610   4.682  10.420   7.995  0.2898 -0.5837 -1.3706
   27MOL0     H 3611   4.527  10.619   7.812 -0.4597  0.4217  0.1653
   27MOL0     H 3612   4.513  10.448   7.845 -0.7053 -0.4768 -0.6320
   27MOL0     H 3613   4.270  10.458   7.849 -0.2708 -1.7215 -4.1072
   27MOL0     H 3614   4.283  10.638   7.834  2.4100  0.2220  0.6085
   27MOL0     H 3615   4.313  10.427   7.623  0.3817  0.3340 -0.8023
   27MOL0     H 3616   4.369  10.594   7.588 -1.6868  1.0847 -0.9143
   27MOL0     H 3617   4.092  10.495   7.678 -1.2844 -0.1347 -0.9988
   27MOL0     H 3618   4.137  10.672   7.641  0.0686  1.8911 -6.7765
   27MOL0     H 3619   4.148  10.453   7.429 -1.3387 -0.3463 -0.5720
   27MOL0     H 3620   4.190  10.615   7.411 -0.1464 -1.3295 -1.4538
   27MOL0     H 3621   3.916  10.514   7.457 -2.2343  1.3312  1.8659
   27MOL0     H 3622   3.954  10.687   7.480 -2.1551 -0.8717 -0.0919
   27MOL0     H 3623   4.031  10.545   7.227 -1.5985  0.6492 -3.0217
   27MOL0     H 3624   4.045  10.718   7.263  1.5874 -1.5394 -0.5401
   27MOL0     H 3625   3.849  10.671   7.111  0.8073  1.9296 -0.1262
   27MOL0     H 3626   3.803  10.759   7.254 -0.4975  1.0521 -2.5974
   27MOL0     H 3627   4.460  10.752   8.161  0.8508  0.8300  2.0682
   27MOL0     H 3628   4.627  10.789   8.320 -4.1213  1.6761 -1.8932
   27MOL0     H 3629   5.047  10.959   8.517 -2.1958 -1.2731 -1.3796
   27MOL0     H 3630   5.263  10.948   8.666  2.1006 -0.1983 -2.5834
   27MOL0     H 3631   4.231  11.062   8.518 -0.1760  0.9487 -0.3788
   27MOL0     H 3632   3.982  11.121   8.471 -1.8359  0.7657 -3.0880
   27MOL0     H 3633   3.667  11.185   8.269 -1.3054 -0.1341  2.4217
   27MOL0     H 3634   3.428  11.274   8.243 -0.0092  0.5600  0.2856
   27MOL0     H 3635   3.151  11.018   8.364 -1.0403  0.6270  0.6238
   27MOL0     H 3636   3.108  11.187   8.370 -2.9197 -1.6423  1.8200
   27MOL0     H 3637   3.001  10.990   8.172  4.3300 -0.9488  1.8574
   27MOL0     H 3638   2.955  11.165   8.173  0.5554 -0.6830 -0.5676
   27MOL0     H 3639   2.885  11.128   8.417  2.0330  1.6713 -1.2026
   27MOL0     H 3640   2.910  10.957   8.387 -0.5504  1.6222  3.0839
   27MOL0     H 3641   2.708  11.130   8.231  1.1204 -0.1100 -0.3486
   27MOL0     H 3642   2.671  11.007   8.360  0.1464  3.0619  1.3485
   27MOL0     H 3643   2.722  10.759   8.020  0.8208 -1.1860  0.8961
   27MOL0     H 3644   3.305  10.872   8.190 -2.2069  1.6487  1.9672
   27MOL0     H 3645   3.533  10.791   8.210  0.3909 -0.2203  2.0016
   28MOL0     O 3646   2.035   0.103   0.813  0.4433 -0.2767 -0.1168
   28MOL0     C 3647   1.994   0.030   0.902 -0.5429  0.3371 -0.3278
   28MOL0     O 3648   1.868  -0.015   0.921  0.7617  0.0181  0.0762
   28MOL0     C 3649   1.773   0.064   0.863  0.8481 -0.1126 -0.1255
   28MOL0     C 3650   1.749   0.199   0.881 -1.1902  0.2644 -0.3842
   28MOL0     C 3651   1.625   0.258   0.854 -0.1092 -0.0014 -0.1044
   28MOL0     C 3652   1.529   0.182   0.790 -0.7920  0.2013 -0.9000
   28MOL0     O 3653   1.405   0.226   0.753  0.1562  0.2377 -0.3522
   28MOL0     C 3654   1.346   0.329   0.833 -0.7644 -0.6112 -0.2233
   28MOL0     C 3655   1.198   0.338   0.841 -0.5579  0.1326  0.4729
   28MOL0     C 3656   1.154   0.363   0.695 -0.2775 -0.0311 -0.3161
   28MOL0     C 3657   1.014   0.408   0.688  0.1541  0.6087  0.4864
   28MOL0     C 3658   0.974   0.459   0.551 -0.3502 -0.7231 -0.3892
   28MOL0     C 3659   0.851   0.545   0.556 -0.1077  0.0536 -0.0862
   28MOL0     C 3660   0.866   0.677   0.645  0.0313  0.3304  0.2043
   28MOL0     C 3661   0.763   0.790   0.606 -0.4288  1.0027  0.0212
   28MOL0     N 3662   0.622   0.734   0.623 -0.0462  1.1024  0.3603
   28MOL0     C 3663   0.519   0.796   0.676 -0.5739  0.2890 -0.0992
   28MOL0     C 3664   0.407   0.748   0.621  0.2938 -0.0262 -0.9012
   28MOL0     C 3665   0.268   0.780   0.664 -0.7288  0.2472 -0.8620
   28MOL0     C 3666   0.234   0.663   0.759  0.3519 -0.1958 -0.0926
   28MOL0     C 3667   0.079   0.646   0.777 -0.0196 -0.5716 -0.2051
   28MOL0     C 3668   0.039   0.526   0.866 -0.2595 -0.1564  0.4310
   28MOL0     O 3669  -0.007   0.401   0.804  0.5237 -0.4262  0.1530
   28MOL0     C 3670  -0.142   0.392   0.770  0.0868 -0.0224 -0.4220
   28MOL0     C 3671  -0.199   0.261   0.770  0.1084 -0.7967  0.0135
   28MOL0     C 3672  -0.330   0.258   0.722  0.5570  0.2292  0.3456
   28MOL0     C 3673  -0.398   0.122   0.734  0.7068  0.2151 -0.0498
   28MOL0     C 3674  -0.401   0.371   0.674 -0.2975  0.0593  0.3574
   28MOL0     C 3675  -0.531   0.358   0.616 -0.0137 -0.8655  0.0239
   28MOL0     O 3676  -0.609   0.463   0.641  0.4023 -0.0768  0.2272
   28MOL0     C 3677  -0.739   0.471   0.593  0.0275 -0.0043 -0.2601
   28MOL0     C 3678  -0.771   0.600   0.560  0.0527 -0.3035  1.0731
   28MOL0     C 3679  -0.901   0.628   0.513  0.6268 -0.5544  0.4121
   28MOL0     C 3680  -0.994   0.524   0.497  0.4197  0.2926 -0.0457
   28MOL0     O 3681  -1.135   0.534   0.474 -0.3996 -0.3052  0.1003
   28MOL0     C 3682  -1.192   0.642   0.407 -0.5737  0.4937  0.4208
   28MOL0     C 3683  -1.344   0.642   0.435  0.0393 -0.7849 -0.2493
   28MOL0     C 3684  -1.411   0.763   0.368  0.3166  0.2749  0.0815
   28MOL0     C 3685  -1.566   0.752   0.371  0.1986  0.5223 -0.4225
   28MOL0     C 3686  -1.635   0.862   0.297  0.9075  0.1098 -0.4072
   28MOL0     C 3687  -1.788   0.852   0.324  0.0258 -1.2682  0.1811
   28MOL0     C 3688  -1.874   0.950   0.251 -0.1973 -0.7255  0.3893
   28MOL0     C 3689  -2.023   0.931   0.276 -0.7860  0.0881  0.7033
   28MOL0    Cl 3690  -2.084   0.798   0.176  0.5311 -0.3276  0.3932
   28MOL0     C 3691  -0.947   0.389   0.526  0.7246 -0.0894 -0.1455
   28MOL0     C 3692  -0.823   0.369   0.585  0.6941 -0.2034  0.1267
   28MOL0     O 3693  -0.554   0.265   0.540 -0.7907  0.1732 -0.2514
   28MOL0     C 3694  -0.339   0.500   0.687  0.6760  0.9615  0.1730
   28MOL0     C 3695  -0.217   0.504   0.729 -1.1431 -0.2828  0.4060
   28MOL0     N 3696   0.441   0.667   0.520  0.9090 -0.7588 -0.2457
   28MOL0     N 3697   0.571   0.655   0.524  0.7973 -0.0259  0.3871
   28MOL0     C 3698   1.552   0.044   0.765 -1.4396  0.6249  1.0013
   28MOL0     C 3699   1.674  -0.012   0.804  0.1773 -0.1806 -0.1431
   28MOL0     C 3700   2.100  -0.017   0.993  1.2761 -0.7315 -0.3215
   28MOL0     C 3701   2.068  -0.075   1.114 -0.3969 -0.9892 -0.2287
   28MOL0     C 3702   2.160  -0.106   1.210  1.0265 -0.0627  0.2692
   28MOL0     C 3703   2.295  -0.089   1.189  0.3827 -0.0008  0.0609
   28MOL0     O 3704   2.380  -0.092   1.302 -0.1520  0.0455  0.4200
   28MOL0     C 3705   2.515  -0.081   1.279 -0.4949  1.3094 -0.3052
   28MOL0     C 3706   2.590  -0.086   1.414  0.6516 -0.0791  0.2978
   28MOL0     C 3707   2.579  -0.235   1.461 -0.2234 -0.0712 -0.3727
   28MOL0     C 3708   2.635  -0.253   1.608  0.6736  0.6594  0.5335
   28MOL0     C 3709   2.777  -0.249   1.610 -0.3838 -0.5357  0.8017
   28MOL0     C 3710   2.898  -0.248   1.614  0.2942  0.6753  0.2420
   28MOL0     C 3711   2.331  -0.023   1.069  0.0489  0.3985 -0.5779
   28MOL0     C 3712   2.235   0.006   0.970 -0.2309  0.3275  0.1654
   28MOL0     H 3713   1.827   0.249   0.937 -2.0722  1.5960 -0.2859
   28MOL0     H 3714   1.606   0.365   0.861  1.1791  0.1334  1.9318
   28MOL0     H 3715   1.378   0.310   0.935  0.0834  1.1443 -0.1134
   28MOL0     H 3716   1.384   0.425   0.796 -1.2880  0.6231  2.2479
   28MOL0     H 3717   1.168   0.248   0.895 -4.1490  2.1529  2.2326
   28MOL0     H 3718   1.161   0.410   0.915 -2.3168 -0.0511 -0.1764
   28MOL0     H 3719   1.228   0.434   0.657 -0.7356  0.9631  0.5883
   28MOL0     H 3720   1.161   0.264   0.649 -1.6289 -0.8302  1.0863
   28MOL0     H 3721   0.948   0.328   0.722 -0.9209  0.2637 -2.1814
   28MOL0     H 3722   1.001   0.486   0.763 -1.7365  0.9960 -0.2017
   28MOL0     H 3723   1.053   0.518   0.503  0.2322 -1.2583 -0.1068
   28MOL0     H 3724   0.963   0.378   0.478  1.8275 -2.1109  0.7274
   28MOL0     H 3725   0.827   0.571   0.452  1.9388 -2.4545 -1.2961
   28MOL0     H 3726   0.768   0.484   0.593  0.2750 -1.7654 -2.0278
   28MOL0     H 3727   0.850   0.658   0.751  0.0129 -0.3637  0.0816
   28MOL0     H 3728   0.968   0.715   0.635  0.0715  0.2221  0.1956
   28MOL0     H 3729   0.770   0.827   0.503  1.8673  0.6618  0.0208
   28MOL0     H 3730   0.778   0.875   0.673 -0.3015  0.3952  0.7808
   28MOL0     H 3731   0.532   0.856   0.765 -1.2503 -0.6244  0.6410
   28MOL0     H 3732   0.254   0.879   0.708  0.7463  0.1063 -0.0025
   28MOL0     H 3733   0.196   0.763   0.584  0.8869 -0.3530 -2.2656
   28MOL0     H 3734   0.271   0.707   0.852 -4.7220  2.2994  1.0997
   28MOL0     H 3735   0.288   0.569   0.744  2.2227  1.3927 -4.8595
   28MOL0     H 3736   0.037   0.628   0.677 -0.4398 -2.4595  0.2793
   28MOL0     H 3737   0.039   0.740   0.816  0.2097  0.4268 -2.1998
   28MOL0     H 3738  -0.026   0.564   0.945  2.1453  1.7044  1.6228
   28MOL0     H 3739   0.137   0.497   0.905  0.7888 -1.9320 -3.0523
   28MOL0     H 3740  -0.156   0.166   0.799 -2.4944 -1.4381  2.0991
   28MOL0     H 3741  -0.365   0.052   0.812 -2.2858 -0.2998  0.8717
   28MOL0     H 3742  -0.505   0.134   0.754  0.2878  0.0141 -1.9854
   28MOL0     H 3743  -0.388   0.066   0.640 -1.1173  0.7316 -0.5915
   28MOL0     H 3744  -0.692   0.674   0.564 -0.9266  0.7209  2.1286
   28MOL0     H 3745  -0.928   0.731   0.491  4.4801  0.3688 -0.7903
   28MOL0     H 3746  -1.148   0.730   0.454 -1.7475  0.8211  0.9537
   28MOL0     H 3747  -1.169   0.640   0.300 -1.2181 -1.1392  0.2762
   28MOL0     H 3748  -1.372   0.542   0.400  3.8104 -2.0858  0.0201
   28MOL0     H 3749  -1.372   0.634   0.541 -0.9195 -2.0011 -0.5712
   28MOL0     H 3750  -1.365   0.762   0.269 -0.7415  0.3344 -0.4228
   28MOL0     H 3751  -1.385   0.858   0.415  0.9179  0.3217 -0.3339
   28MOL0     H 3752  -1.589   0.651   0.336  1.5549 -0.2591  0.8167
   28MOL0     H 3753  -1.595   0.747   0.476  1.2425 -2.3501 -0.1725
   28MOL0     H 3754  -1.623   0.856   0.189 -0.8418 -0.1286 -0.6185
   28MOL0     H 3755  -1.603   0.960   0.332 -0.0459  0.4060 -0.3444
   28MOL0     H 3756  -1.829   0.753   0.303  1.4756 -1.2384 -3.4872
   28MOL0     H 3757  -1.807   0.873   0.430  0.1443 -1.5379  0.2583
   28MOL0     H 3758  -1.849   0.953   0.144  0.1796 -1.9468  0.4300
   28MOL0     H 3759  -1.848   1.050   0.285  1.2392 -0.9598  0.0605
   28MOL0     H 3760  -2.073   1.027   0.262  1.3339  0.9457 -1.9192
   28MOL0     H 3761  -2.036   0.906   0.382  0.6154  1.1670  1.1777
   28MOL0     H 3762  -1.020   0.308   0.521 -2.1491  2.3471 -1.0353
   28MOL0     H 3763  -0.797   0.271   0.625  2.9818 -0.6719 -2.1510
   28MOL0     H 3764  -0.394   0.590   0.658  2.8987  2.0660 -0.8987
   28MOL0     H 3765  -0.177   0.605   0.729 -2.8523  0.4288  0.1949
   28MOL0     H 3766   1.484  -0.006   0.697  1.4721 -0.6777 -1.1730
   28MOL0     H 3767   1.687  -0.119   0.790 -2.4813 -0.4546 -1.0968
   28MOL0     H 3768   1.967  -0.099   1.144 -1.4634  2.7674 -0.3043
   28MOL0     H 3769   2.121  -0.146   1.303 -0.1270  0.9881  0.2639
   28MOL0     H 3770   2.547  -0.164   1.215 -2.1531 -0.3458  0.9468
   28MOL0     H 3771   2.542   0.011   1.225  0.1631  1.3093  0.0105
   28MOL0     H 3772   2.550  -0.027   1.497 -0.0194  0.4106 -0.3551
   28MOL0     H 3773   2.696  -0.062   1.402  0.4899  1.8784  2.0898
   28MOL0     H 3774   2.633  -0.312   1.404  0.1105 -1.4047  1.6705
   28MOL0     H 3775   2.475  -0.267   1.457 -0.1968 -0.0599 -1.6024
   28MOL0     H 3776   2.605  -0.351   1.647  1.8270  0.0005 -0.1417
   28MOL0     H 3777   2.603  -0.176   1.678 -0.8606 -0.1909  0.8173
   28MOL0     H 3778   3.004  -0.229   1.620  0.4412  0.2032 -0.6485
   28MOL0     H 3779   2.431   0.017   1.053 -1.2019  3.7218 -0.9091
   28MOL0     H 3780   2.262   0.048   0.873 -0.7280 -1.7502 -0.9411
   29MOL0     O 3781   7.427   5.043   7.843  1.2495  0.1920 -0.1906
   29MOL0     C 3782   7.510   4.965   7.795  0.2370  0.4178  0.3720
   29MOL0     O 3783   7.481   4.855   7.725  0.3766 -0.1614  0.0774
   29MOL0     C 3784   7.358   4.846   7.669  0.0189  0.5730 -0.1632
   29MOL0     C 3785   7.266   4.770   7.738  0.1981  0.6841  0.6941
   29MOL0     C 3786   7.139   4.747   7.684 -0.3708  1.2295 -0.4320
   29MOL0     C 3787   7.108   4.792   7.556  0.3355 -0.0322  0.7154
   29MOL0     O 3788   6.999   4.754   7.480  0.3759 -0.1541 -0.6064
   29MOL0     C 3789   6.889   4.686   7.545 -0.3852 -0.8181 -0.2029
   29MOL0     C 3790   6.771   4.669   7.453  0.0806 -0.2707 -0.1187
   29MOL0     C 3791   6.661   4.580   7.505  0.4065  0.4456  0.0594
   29MOL0     C 3792   6.584   4.521   7.389  0.1515  0.2731  0.6972
   29MOL0     C 3793   6.454   4.443   7.412 -0.8070 -0.4088 -0.6687
   29MOL0     C 3794   6.369   4.415   7.284  0.0238  0.1727 -0.0695
   29MOL0     C 3795   6.250   4.336   7.321  0.7046  0.3462  1.3944
   29MOL0     C 3796   6.164   4.319   7.187  0.1356 -0.2480  0.0087
   29MOL0     N 3797   6.081   4.197   7.193  0.5446 -0.1803 -0.1526
   29MOL0     C 3798   5.976   4.177   7.283 -0.1083 -0.5288  0.1370
   29MOL0     C 3799   5.932   4.051   7.256  0.5867 -0.9428 -0.1580
   29MOL0     C 3800   5.839   3.971   7.340 -0.2252  0.2964 -0.0517
   29MOL0     C 3801   5.694   3.960   7.280 -0.2099 -0.2806 -0.1201
   29MOL0     C 3802   5.604   3.843   7.341 -0.5627 -0.0753  0.3592
   29MOL0     C 3803   5.470   3.856   7.274  0.5289 -0.2299  1.1878
   29MOL0     O 3804   5.371   3.762   7.321 -0.5251  0.0183  0.0302
   29MOL0     C 3805   5.285   3.827   7.409  0.4057  0.2936  0.4709
   29MOL0     C 3806   5.321   3.837   7.541 -0.5465  0.3006  0.3271
   29MOL0     C 3807   5.236   3.894   7.637 -0.3116 -0.8925 -0.1463
   29MOL0     C 3808   5.290   3.918   7.776 -0.5728  0.1733 -0.2877
   29MOL0     C 3809   5.106   3.948   7.599  0.0800  0.1076  0.6179
   29MOL0     C 3810   5.000   4.015   7.693 -0.7958 -0.1145  0.4243
   29MOL0     O 3811   4.883   4.035   7.639  0.2916  0.0111  0.0274
   29MOL0     C 3812   4.778   4.070   7.722  0.0949 -0.0802  0.1765
   29MOL0     C 3813   4.722   4.195   7.727 -0.0691 -0.0241  0.4529
   29MOL0     C 3814   4.624   4.221   7.817  0.0394 -0.0210  0.4058
   29MOL0     C 3815   4.568   4.116   7.889  0.4755  0.1603 -0.2580
   29MOL0     O 3816   4.457   4.144   7.963  0.7415  0.0046  0.2138
   29MOL0     C 3817   4.473   4.222   8.083  0.1406 -0.0278 -0.4579
   29MOL0     C 3818   4.386   4.163   8.194  0.0067  0.5987 -0.0401
   29MOL0     C 3819   4.237   4.164   8.152 -0.7672 -0.3571 -0.0490
   29MOL0     C 3820   4.140   4.132   8.267 -0.3310  1.0020 -0.9285
   29MOL0     C 3821   4.008   4.062   8.214 -0.6319  0.2628 -0.2466
   29MOL0     C 3822   3.917   4.017   8.326 -0.0221  0.0147  0.4333
   29MOL0     C 3823   3.776   3.998   8.265  0.0640 -0.1514  0.6636
   29MOL0     C 3824   3.671   3.954   8.366 -0.8370  0.2783  0.4416
   29MOL0    Cl 3825   3.651   4.084   8.478 -0.1317  0.2198 -0.2854
   29MOL0     C 3826   4.613   3.986   7.868  0.3182  0.4404  0.2393
   29MOL0     C 3827   4.720   3.960   7.784  0.5902 -0.8466 -0.0571
   29MOL0     O 3828   5.029   4.039   7.811  0.1981  0.1364  0.3210
   29MOL0     C 3829   5.069   3.927   7.466 -0.5244  0.7400  0.3468
   29MOL0     C 3830   5.161   3.875   7.366 -0.2035 -0.6955 -1.3240
   29MOL0     N 3831   6.004   4.002   7.154  0.5373 -0.1919  0.0905
   29MOL0     N 3832   6.082   4.088   7.112  0.0831 -0.1124  0.5871
   29MOL0     C 3833   7.204   4.867   7.488  1.2213  0.2744 -0.4653
   29MOL0     C 3834   7.331   4.891   7.549  0.6676 -0.6268  0.5253
   29MOL0     C 3835   7.655   4.989   7.813  0.2041 -0.0900  0.6013
   29MOL0     C 3836   7.739   4.925   7.730  0.4404 -0.1109 -0.0558
   29MOL0     C 3837   7.876   4.935   7.755  0.0970  0.0057  0.0452
   29MOL0     C 3838   7.935   5.028   7.842  0.4873 -0.2417 -0.4321
   29MOL0     O 3839   8.070   5.041   7.861 -0.6747  0.2149  0.0536
   29MOL0     C 3840   8.154   4.979   7.760 -0.4571 -0.2100 -0.9539
   29MOL0     C 3841   8.299   5.025   7.774  0.7229  0.7835 -0.4413
   29MOL0     C 3842   8.388   4.959   7.671 -0.3886 -0.4678  0.2149
   29MOL0     C 3843   8.528   4.992   7.720  0.0200  0.0285  0.7739
   29MOL0     C 3844   8.637   4.916   7.647  0.6685  0.4177 -0.7112
   29MOL0     C 3845   8.734   4.843   7.617  0.2995 -0.2327  0.5139
   29MOL0     C 3846   7.838   5.113   7.910 -0.1762 -0.1328 -0.0927
   29MOL0     C 3847   7.700   5.090   7.899  0.1795 -0.2169  0.4342
   29MOL0     H 3848   7.291   4.726   7.834  0.6711 -2.7687 -0.8732
   29MOL0     H 3849   7.064   4.698   7.745  0.3964  0.5754  0.0025
   29MOL0     H 3850   6.918   4.584   7.571  0.2358 -0.1133  1.9996
   29MOL0     H 3851   6.860   4.743   7.633 -0.8401 -0.6679 -0.4461
   29MOL0     H 3852   6.731   4.765   7.418  1.4859 -0.0251 -1.1177
   29MOL0     H 3853   6.806   4.624   7.360  2.8323  0.9045  0.2755
   29MOL0     H 3854   6.712   4.501   7.560 -0.2915  0.1613  0.3044
   29MOL0     H 3855   6.608   4.652   7.568  2.5679  0.9151  1.4778
   29MOL0     H 3856   6.571   4.598   7.312 -1.3105 -0.4420  0.2059
   29MOL0     H 3857   6.657   4.455   7.342  0.7591  2.4497 -1.6241
   29MOL0     H 3858   6.464   4.353   7.473 -1.4985  0.2881  0.5166
   29MOL0     H 3859   6.395   4.503   7.483  0.3588 -0.8906  0.7690
   29MOL0     H 3860   6.339   4.515   7.250  3.3647  1.4159  0.1541
   29MOL0     H 3861   6.433   4.363   7.212 -0.7675 -0.4627 -0.3152
   29MOL0     H 3862   6.278   4.241   7.367  1.0537 -0.1829  0.1191
   29MOL0     H 3863   6.192   4.382   7.402 -0.1095 -0.8788  1.5373
   29MOL0     H 3864   6.235   4.304   7.105  0.9513 -0.5396  0.7558
   29MOL0     H 3865   6.096   4.404   7.174 -2.6609 -2.6252 -2.1535
   29MOL0     H 3866   5.933   4.242   7.359  0.4859  0.1113 -0.0637
   29MOL0     H 3867   5.883   3.871   7.345 -1.4488 -0.3757 -1.6713
   29MOL0     H 3868   5.835   4.009   7.442 -0.9911  2.6143 -0.8697
   29MOL0     H 3869   5.697   3.954   7.171 -0.4782  2.5790 -0.3521
   29MOL0     H 3870   5.651   4.056   7.309  1.7153  0.5810  0.0026
   29MOL0     H 3871   5.602   3.857   7.450  1.5811 -1.9556  0.7385
   29MOL0     H 3872   5.641   3.743   7.318 -2.2459 -0.8309  0.7773
   29MOL0     H 3873   5.493   3.822   7.172  2.6096 -0.6555  1.7510
   29MOL0     H 3874   5.425   3.956   7.272 -0.5755 -0.7156  0.0965
   29MOL0     H 3875   5.418   3.800   7.573 -1.6147 -3.0308  0.0557
   29MOL0     H 3876   5.246   3.858   7.856 -0.3769 -1.1658 -1.1505
   29MOL0     H 3877   5.399   3.910   7.780 -0.4877  0.7466 -1.1565
   29MOL0     H 3878   5.271   4.022   7.801 -0.1423 -0.1341  1.4625
   29MOL0     H 3879   4.764   4.276   7.669  2.9760 -0.9994  1.0980
   29MOL0     H 3880   4.582   4.321   7.824  0.9976  0.2619  3.1039
   29MOL0     H 3881   4.577   4.219   8.116 -0.4084  3.3639  2.0904
   29MOL0     H 3882   4.441   4.324   8.062 -0.9196  0.1569  1.7384
   29MOL0     H 3883   4.420   4.062   8.220  0.4606  0.7785  0.0754
   29MOL0     H 3884   4.411   4.222   8.283 -1.7485 -0.2269  1.0526
   29MOL0     H 3885   4.227   4.090   8.072 -2.0263  0.5359 -0.7443
   29MOL0     H 3886   4.206   4.256   8.101  0.7606  2.5884  3.8106
   29MOL0     H 3887   4.186   4.057   8.332  1.2179  2.2428 -0.5137
   29MOL0     H 3888   4.129   4.223   8.327 -0.3277  1.3230 -1.4156
   29MOL0     H 3889   4.036   3.980   8.148  5.0187  1.4192  0.2150
   29MOL0     H 3890   3.947   4.138   8.162 -0.1071  0.9992  0.1942
   29MOL0     H 3891   3.945   3.917   8.360 -2.3079 -2.1587 -3.3431
   29MOL0     H 3892   3.918   4.097   8.401 -1.1548 -1.0844  1.6547
   29MOL0     H 3893   3.769   3.917   8.192  0.3250  1.6214 -1.4377
   29MOL0     H 3894   3.739   4.090   8.218 -2.7634 -0.5029  2.0021
   29MOL0     H 3895   3.710   3.871   8.425  2.1198 -0.8469 -2.7653
   29MOL0     H 3896   3.585   3.912   8.312 -0.3956  1.1037 -0.9494
   29MOL0     H 3897   4.552   3.905   7.908 -1.7312  1.0978 -1.4331
   29MOL0     H 3898   4.744   3.854   7.789 -2.3207 -1.5585  0.8772
   29MOL0     H 3899   4.975   3.958   7.421 -1.7942 -1.5963  1.2297
   29MOL0     H 3900   5.134   3.853   7.263 -0.6903 -3.0408 -0.7509
   29MOL0     H 3901   7.179   4.904   7.390  0.2568 -0.6875 -0.5982
   29MOL0     H 3902   7.413   4.946   7.502 -0.0435  0.4675  0.5286
   29MOL0     H 3903   7.700   4.857   7.654 -1.8449  0.5588  0.4229
   29MOL0     H 3904   7.936   4.855   7.712  0.7633 -1.0858  2.7445
   29MOL0     H 3905   8.154   4.872   7.780 -2.3649 -0.1694 -0.5351
   29MOL0     H 3906   8.127   5.008   7.658 -0.3215  0.5071 -0.7904
   29MOL0     H 3907   8.326   4.994   7.876  0.9202  1.4285 -0.2954
   29MOL0     H 3908   8.315   5.133   7.766  3.4521  0.3469 -2.1036
   29MOL0     H 3909   8.363   5.001   7.573 -0.5936  1.5093  1.0860
   29MOL0     H 3910   8.383   4.851   7.652 -0.4367 -0.4432  0.0831
   29MOL0     H 3911   8.539   4.973   7.827 -1.0985 -0.4316  0.8117
   29MOL0     H 3912   8.541   5.101   7.712  0.9419  0.1058  2.7232
   29MOL0     H 3913   8.810   4.777   7.581  0.0801 -0.1364 -0.1401
   29MOL0     H 3914   7.881   5.193   7.969  3.2593 -1.6761 -0.2751
   29MOL0     H 3915   7.637   5.152   7.962  0.5010  2.9100 -2.0429
   30MOL0     O 3916   0.508   0.625   8.916  0.7066 -0.3032  0.5518
   30MOL0     C 3917   0.526   0.740   8.952  0.7619 -0.2077  0.0322
   30MOL0     O 3918   0.430   0.824   8.986 -0.0623 -0.3821 -0.1907
   30MOL0     C 3919   0.298   0.796   8.998  0.0816  0.1711 -0.5714
   30MOL0     C 3920   0.225   0.724   8.899  0.2909 -0.0792 -0.2314
   30MOL0     C 3921   0.089   0.699   8.903  0.0024 -0.5874 -0.7507
   30MOL0     C 3922   0.023   0.732   9.023  0.1490  0.5207  0.4066
   30MOL0     O 3923  -0.109   0.706   9.056  0.6900  0.0886 -0.0893
   30MOL0     C 3924  -0.193   0.652   8.956  0.5390  0.9358 -0.2329
   30MOL0     C 3925  -0.334   0.624   9.010  0.4311 -0.0635 -0.3845
   30MOL0     C 3926  -0.442   0.576   8.908  0.0671 -0.5266  0.0788
   30MOL0     C 3927  -0.569   0.539   8.989 -0.1212 -0.5727  0.5432
   30MOL0     C 3928  -0.693   0.534   8.895 -1.2139 -0.4523 -0.8193
   30MOL0     C 3929  -0.815   0.486   8.973 -0.1927  0.5166  0.2799
   30MOL0     C 3930  -0.940   0.506   8.885  0.1774 -0.2578 -0.2066
   30MOL0     C 3931  -1.018   0.378   8.880 -0.8422 -0.0815 -0.0103
   30MOL0     N 3932  -1.123   0.371   8.773  0.7720 -0.2430  0.4183
   30MOL0     C 3933  -1.240   0.439   8.758  0.6067  0.0926  0.6223
   30MOL0     C 3934  -1.300   0.398   8.646  0.1992 -0.4328  0.4871
   30MOL0     C 3935  -1.429   0.436   8.576  0.4922  0.2615 -0.0979
   30MOL0     C 3936  -1.545   0.387   8.660  0.9687 -0.0264 -0.5187
   30MOL0     C 3937  -1.664   0.483   8.633  0.0292  0.0864  0.0260
   30MOL0     C 3938  -1.716   0.506   8.488  0.7626 -0.1747 -0.4746
   30MOL0     O 3939  -1.837   0.582   8.500  0.6335  0.6984  0.6335
   30MOL0     C 3940  -1.906   0.613   8.377 -0.5335  0.3559 -0.7507
   30MOL0     C 3941  -1.864   0.573   8.252 -0.2927  0.0640 -0.9309
   30MOL0     C 3942  -1.937   0.582   8.144  1.0965 -0.1303 -0.6922
   30MOL0     C 3943  -1.868   0.544   8.018  0.6290  0.0859 -0.0345
   30MOL0     C 3944  -2.067   0.631   8.159  0.2039  0.4010  0.1241
   30MOL0     C 3945  -2.175   0.634   8.051 -0.0772  0.8754  0.4528
   30MOL0     O 3946  -2.305   0.669   8.082  0.0981 -0.2558 -0.5274
   30MOL0     C 3947  -2.390   0.700   7.983  0.3847 -0.0474  0.3238
   30MOL0     C 3948  -2.528   0.678   8.010  0.0310  0.0685  0.2457
   30MOL0     C 3949  -2.630   0.709   7.919 -0.2995 -0.1292  0.1651
   30MOL0     C 3950  -2.596   0.769   7.809 -0.0860 -0.5485  0.1016
   30MOL0     O 3951  -2.686   0.811   7.719  0.1689  0.3083 -0.4816
   30MOL0     C 3952  -2.821   0.843   7.763 -0.2943  1.2294 -0.3508
   30MOL0     C 3953  -2.876   0.930   7.657 -0.3987  0.1336 -0.0853
   30MOL0     C 3954  -3.010   0.989   7.698 -0.4407 -0.3766 -0.5783
   30MOL0     C 3955  -3.124   0.882   7.717  0.4414 -0.0156 -0.6289
   30MOL0     C 3956  -3.251   0.953   7.763  0.7366  0.1769  0.2023
   30MOL0     C 3957  -3.351   0.852   7.807  0.1052  0.0697 -0.5823
   30MOL0     C 3958  -3.493   0.897   7.768  1.0742 -0.1723 -0.1856
   30MOL0     C 3959  -3.587   0.820   7.858  0.3739  0.3491  0.2218
   30MOL0    Cl 3960  -3.739   0.894   7.852  0.0979  0.4418 -0.1637
   30MOL0     C 3961  -2.465   0.796   7.773 -0.1853  0.4741  0.0578
   30MOL0     C 3962  -2.356   0.760   7.856  0.8067  0.3097 -0.3018
   30MOL0     O 3963  -2.139   0.609   7.934  0.2048  0.1728 -0.0153
   30MOL0     C 3964  -2.114   0.669   8.283 -0.4048 -0.5056  0.6107
   30MOL0     C 3965  -2.037   0.659   8.392  0.3667  0.1403 -0.5313
   30MOL0     N 3966  -1.213   0.297   8.601 -0.6671 -0.3368 -0.6964
   30MOL0     N 3967  -1.111   0.286   8.677  0.5288 -0.4811 -0.1607
   30MOL0     C 3968   0.093   0.811   9.120  0.1264 -0.2871 -0.1964
   30MOL0     C 3969   0.226   0.838   9.109 -0.5548 -0.2366  1.0677
   30MOL0     C 3970   0.665   0.784   8.932  0.2134  0.1981 -0.3271
   30MOL0     C 3971   0.753   0.702   8.862 -0.0975  0.0786  0.1670
   30MOL0     C 3972   0.889   0.753   8.841  0.0823 -0.2656 -0.4481
   30MOL0     C 3973   0.922   0.882   8.883 -0.2047  0.3213 -0.5580
   30MOL0     O 3974   1.043   0.951   8.865 -0.0791  0.2633  0.0977
   30MOL0     C 3975   1.141   0.904   8.773  0.5846  0.8291  0.0876
   30MOL0     C 3976   1.243   0.798   8.831  0.0239 -0.1881 -0.2004
   30MOL0     C 3977   1.350   0.873   8.904 -0.3948  0.2295 -1.1771
   30MOL0     C 3978   1.427   0.783   9.008  0.7889  0.3398 -0.0550
   30MOL0     C 3979   1.561   0.835   9.028  0.5388 -0.0063  0.4926
   30MOL0     C 3980   1.664   0.888   9.043 -0.8135 -0.3340  0.1579
   30MOL0     C 3981   0.833   0.948   8.966 -0.4543 -0.5347 -0.6231
   30MOL0     C 3982   0.704   0.899   8.995 -0.2680  0.5705  0.6462
   30MOL0     H 3983   0.284   0.686   8.816 -0.2190 -2.0130  0.2456
   30MOL0     H 3984   0.050   0.640   8.821  0.9029 -0.8762 -0.9892
   30MOL0     H 3985  -0.208   0.725   8.876 -1.0594  1.5698  0.6209
   30MOL0     H 3986  -0.154   0.561   8.908 -2.0046  0.4108 -1.4749
   30MOL0     H 3987  -0.328   0.547   9.088 -0.7921 -0.8666 -1.0500
   30MOL0     H 3988  -0.363   0.720   9.055 -0.2683 -0.2117 -0.5059
   30MOL0     H 3989  -0.463   0.653   8.833 -1.0544 -0.8815  0.0010
   30MOL0     H 3990  -0.413   0.488   8.851 -0.7374 -0.7831  0.0474
   30MOL0     H 3991  -0.552   0.442   9.036  1.2747 -0.4571  0.3320
   30MOL0     H 3992  -0.586   0.618   9.063 -2.2134  0.1729 -0.6390
   30MOL0     H 3993  -0.707   0.635   8.857  2.0215  0.4543  0.0829
   30MOL0     H 3994  -0.669   0.464   8.815 -1.8553 -3.1324  1.1927
   30MOL0     H 3995  -0.800   0.382   9.003  1.8810  1.0379  1.1730
   30MOL0     H 3996  -0.821   0.549   9.062  1.7479  2.0483 -0.5729
   30MOL0     H 3997  -1.015   0.580   8.915 -0.4726 -1.2298  0.6737
   30MOL0     H 3998  -0.913   0.522   8.780  0.8475  1.1726  0.1699
   30MOL0     H 3999  -1.056   0.358   8.980 -1.6929 -3.2605 -0.8449
   30MOL0     H 4000  -0.945   0.304   8.845 -1.2707 -0.0637 -0.9600
   30MOL0     H 4001  -1.268   0.523   8.821 -2.5013 -0.4002  0.0511
   30MOL0     H 4002  -1.432   0.542   8.550 -2.8147  0.0502 -1.0758
   30MOL0     H 4003  -1.449   0.388   8.480  0.0735 -1.4869  0.8223
   30MOL0     H 4004  -1.516   0.401   8.765  1.3105  0.4753 -0.6789
   30MOL0     H 4005  -1.580   0.286   8.637  1.5578  0.4148 -3.7986
   30MOL0     H 4006  -1.647   0.581   8.679 -1.2613  0.5129 -0.3811
   30MOL0     H 4007  -1.738   0.431   8.694  0.4158 -3.2999 -2.1391
   30MOL0     H 4008  -1.747   0.406   8.454 -0.9781 -1.0534  3.1997
   30MOL0     H 4009  -1.634   0.562   8.441  0.3665  1.5982  0.8298
   30MOL0     H 4010  -1.762   0.538   8.252 -0.6900 -1.6311  2.6241
   30MOL0     H 4011  -1.767   0.509   8.044  0.4502  0.6939  1.6187
   30MOL0     H 4012  -1.917   0.467   7.958  1.1855  2.2848 -3.5558
   30MOL0     H 4013  -1.861   0.630   7.952  1.3374 -1.6414 -2.3521
   30MOL0     H 4014  -2.549   0.631   8.105  0.1245  0.6226  0.5460
   30MOL0     H 4015  -2.733   0.682   7.941  0.4364 -1.3013  2.4997
   30MOL0     H 4016  -2.873   0.747   7.773  1.7354 -0.2405 -2.6581
   30MOL0     H 4017  -2.832   0.891   7.861 -5.1559 -0.5685  0.2654
   30MOL0     H 4018  -2.804   1.012   7.643 -1.2438  1.2656  1.8050
   30MOL0     H 4019  -2.887   0.875   7.563 -3.0143 -0.5325  0.5277
   30MOL0     H 4020  -3.047   1.064   7.628 -2.2017 -0.1951  0.4923
   30MOL0     H 4021  -2.980   1.047   7.786 -2.1600 -0.3300  0.0188
   30MOL0     H 4022  -3.153   0.831   7.625 -4.6411 -1.7853  1.6009
   30MOL0     H 4023  -3.093   0.809   7.793 -3.9545 -1.3685  0.1642
   30MOL0     H 4024  -3.293   1.013   7.682 -0.9778  2.1094  2.3733
   30MOL0     H 4025  -3.228   1.016   7.850 -1.1829 -2.4942  2.8921
   30MOL0     H 4026  -3.319   0.751   7.779  0.9797 -0.0311  0.7035
   30MOL0     H 4027  -3.336   0.840   7.914 -0.2246 -1.4045 -0.6704
   30MOL0     H 4028  -3.510   0.885   7.660  1.6165  0.2295 -0.3210
   30MOL0     H 4029  -3.510   1.004   7.780  1.6905  0.1982 -2.2081
   30MOL0     H 4030  -3.559   0.829   7.963 -1.1385 -1.7886  0.8733
   30MOL0     H 4031  -3.589   0.715   7.825  4.7052  0.8352 -2.3209
   30MOL0     H 4032  -2.436   0.846   7.681 -1.5490 -0.1266 -0.7353
   30MOL0     H 4033  -2.258   0.776   7.813  0.9555 -3.6000 -1.8866
   30MOL0     H 4034  -2.216   0.708   8.290 -0.8818 -1.3680 -1.0957
   30MOL0     H 4035  -2.071   0.679   8.493 -1.1036 -1.4489 -0.6687
   30MOL0     H 4036   0.036   0.846   9.205  0.3465 -1.0465  0.2767
   30MOL0     H 4037   0.274   0.895   9.188  0.4332 -1.1250  1.1303
   30MOL0     H 4038   0.729   0.614   8.803 -0.2786  1.8971 -2.6733
   30MOL0     H 4039   0.950   0.695   8.773 -0.3727 -0.7158 -0.4835
   30MOL0     H 4040   1.096   0.857   8.684 -3.3963 -2.2174  3.2912
   30MOL0     H 4041   1.191   0.996   8.741  2.8030 -0.9172 -1.8403
   30MOL0     H 4042   1.292   0.742   8.750  0.2575  0.6963 -0.6895
   30MOL0     H 4043   1.194   0.724   8.894  1.3410 -0.7859  0.1484
   30MOL0     H 4044   1.307   0.949   8.970  0.5044  0.1318 -0.4533
   30MOL0     H 4045   1.420   0.930   8.842 -0.2526  1.6085  0.1675
   30MOL0     H 4046   1.436   0.679   8.977  2.9176  0.8964 -1.5240
   30MOL0     H 4047   1.379   0.768   9.106 -0.0673 -5.0779 -1.0265
   30MOL0     H 4048   1.761   0.934   9.039 -0.3485 -1.2039  1.0967
   30MOL0     H 4049   0.870   1.035   9.019  0.4192 -1.2428 -0.0450
   30MOL0     H 4050   0.638   0.954   9.061 -1.2376  1.8722 -1.3199
   31MOL0     O 4051   1.127   6.569   0.911 -0.2541  0.8749 -0.1198
   31MOL0     C 4052   1.104   6.544   1.030 -0.6702  0.8865  0.3237
   31MOL0     O 4053   0.982   6.548   1.088  0.0198 -0.1863  0.3398
   31MOL0     C 4054   0.880   6.623   1.026 -0.6622 -0.4788 -0.3417
   31MOL0     C 4055   0.803   6.566   0.921 -0.6009  0.9822 -0.6957
   31MOL0     C 4056   0.701   6.640   0.857  0.1363  0.6431  0.5133
   31MOL0     C 4057   0.680   6.775   0.894 -0.2518 -0.4749 -0.0205
   31MOL0     O 4058   0.587   6.861   0.834  0.0718 -0.7402  0.2356
   31MOL0     C 4059   0.465   6.797   0.782  0.3689 -1.1356  0.6469
   31MOL0     C 4060   0.356   6.896   0.774 -0.8498 -0.2498 -0.0450
   31MOL0     C 4061   0.238   6.825   0.697 -0.4449 -0.4116  0.0628
   31MOL0     C 4062   0.151   6.916   0.619 -0.1320  0.3639  0.3137
   31MOL0     C 4063   0.034   6.842   0.557 -0.0591 -0.6189 -0.2591
   31MOL0     C 4064  -0.048   6.943   0.473  0.2410 -0.4049 -0.0044
   31MOL0     C 4065  -0.176   6.880   0.410  0.5184  0.3869  0.9945
   31MOL0     C 4066  -0.266   6.992   0.357 -0.7863  0.1426 -0.0310
   31MOL0     N 4067  -0.397   6.945   0.307  0.1972  0.5216  0.0889
   31MOL0     C 4068  -0.419   6.869   0.196 -0.2157 -0.6142  0.8974
   31MOL0     C 4069  -0.548   6.851   0.188 -0.5823 -0.9137  0.4571
   31MOL0     C 4070  -0.611   6.755   0.099  1.0330  0.8218  0.5002
   31MOL0     C 4071  -0.583   6.606   0.138  0.2012 -0.3748 -0.8473
   31MOL0     C 4072  -0.618   6.503   0.045  0.2368 -0.4059 -0.0765
   31MOL0     C 4073  -0.772   6.485   0.038  0.5806  0.0139  0.2642
   31MOL0     O 4074  -0.794   6.389  -0.068  0.4356  0.6887 -0.1891
   31MOL0     C 4075  -0.919   6.326  -0.083 -0.2582  0.5778 -0.3020
   31MOL0     C 4076  -0.935   6.239  -0.189  0.0553 -0.2483 -0.5414
   31MOL0     C 4077  -1.045   6.160  -0.211  0.1088  0.5078 -0.3438
   31MOL0     C 4078  -1.046   6.050  -0.317 -0.9469 -0.5859 -0.2680
   31MOL0     C 4079  -1.156   6.179  -0.126  0.3895  0.1981  0.5231
   31MOL0     C 4080  -1.278   6.096  -0.136 -0.6019 -0.7533  0.1505
   31MOL0     O 4081  -1.332   6.057  -0.254  0.4476  0.0034 -0.0855
   31MOL0     C 4082  -1.465   6.022  -0.246  0.2958 -0.9293 -0.4548
   31MOL0     C 4083  -1.503   5.888  -0.249 -0.5896 -0.5135  0.4804
   31MOL0     C 4084  -1.640   5.855  -0.245  0.4158  0.1584 -0.6412
   31MOL0     C 4085  -1.737   5.958  -0.236  1.2319 -0.0604  0.9817
   31MOL0     O 4086  -1.871   5.943  -0.229  0.3469 -0.1065 -0.1718
   31MOL0     C 4087  -1.928   5.814  -0.196  0.0258  0.8761  0.2252
   31MOL0     C 4088  -2.070   5.832  -0.141 -0.4740 -0.2210  0.0903
   31MOL0     C 4089  -2.181   5.903  -0.231  0.6028 -0.8144 -0.1564
   31MOL0     C 4090  -2.322   5.835  -0.216 -0.1590  0.5383 -0.8859
   31MOL0     C 4091  -2.437   5.904  -0.292  0.6302  0.1773  0.0093
   31MOL0     C 4092  -2.575   5.820  -0.275  0.6887  0.2156  1.1781
   31MOL0     C 4093  -2.675   5.848  -0.389 -0.1670 -0.4828 -0.6211
   31MOL0     C 4094  -2.791   5.738  -0.390 -0.4224  0.2191  0.3010
   31MOL0    Cl 4095  -2.879   5.726  -0.233 -0.9109 -0.2247 -0.1575
   31MOL0     C 4096  -1.696   6.094  -0.228  0.5866  0.8141  0.3321
   31MOL0     C 4097  -1.563   6.121  -0.220 -0.2191  0.3374 -0.2676
   31MOL0     O 4098  -1.320   6.054  -0.029  0.5800 -0.2411  0.5168
   31MOL0     C 4099  -1.150   6.272  -0.023 -0.1661 -0.1276 -0.3636
   31MOL0     C 4100  -1.027   6.344   0.004  0.9558  0.3552 -0.3887
   31MOL0     N 4101  -0.606   6.912   0.297  0.5460 -0.1051 -0.9073
   31MOL0     N 4102  -0.509   6.963   0.374 -0.9579  0.0742  0.4807
   31MOL0     C 4103   0.756   6.833   0.995  0.0384  0.1320  0.7403
   31MOL0     C 4104   0.859   6.761   1.056 -0.3751  0.9343 -0.5701
   31MOL0     C 4105   1.216   6.490   1.112 -0.2484  0.2146  0.2110
   31MOL0     C 4106   1.339   6.444   1.050 -0.1662 -0.3612 -0.4465
   31MOL0     C 4107   1.453   6.392   1.115  0.5135 -0.8368  0.1875
   31MOL0     C 4108   1.439   6.382   1.258  0.4485 -0.0915 -0.5649
   31MOL0     O 4109   1.547   6.333   1.326  0.4704  0.2547  0.0621
   31MOL0     C 4110   1.542   6.341   1.474 -0.4753 -0.3685 -0.7971
   31MOL0     C 4111   1.656   6.282   1.548  0.4993  0.9964  0.4201
   31MOL0     C 4112   1.798   6.319   1.516 -1.0109 -0.7820 -1.2165
   31MOL0     C 4113   1.906   6.240   1.586 -0.8039  0.5389  0.1523
   31MOL0     C 4114   2.045   6.303   1.569  0.4823  0.0941  0.4407
   31MOL0     C 4115   2.151   6.361   1.540 -0.6331  0.3081 -0.6344
   31MOL0     C 4116   1.323   6.426   1.322  0.3092  0.8845 -0.5820
   31MOL0     C 4117   1.212   6.477   1.248  0.0455  0.6808 -0.3594
   31MOL0     H 4118   0.840   6.467   0.897  1.1620  1.7793 -1.4460
   31MOL0     H 4119   0.645   6.601   0.773 -0.5557 -2.0524  2.1009
   31MOL0     H 4120   0.493   6.757   0.684  1.6321 -0.7961  0.8523
   31MOL0     H 4121   0.440   6.716   0.851  0.3583 -0.3204  1.6158
   31MOL0     H 4122   0.311   6.916   0.871 -1.7336  0.2269 -0.5300
   31MOL0     H 4123   0.390   6.994   0.737  1.0411 -0.9274 -0.1801
   31MOL0     H 4124   0.283   6.754   0.627 -1.1286 -1.4452  0.6452
   31MOL0     H 4125   0.175   6.775   0.770 -0.1742  2.6155  2.5970
   31MOL0     H 4126   0.123   7.010   0.666 -0.2338  1.4902 -1.8471
   31MOL0     H 4127   0.217   6.942   0.535  2.1777  0.6565  2.1115
   31MOL0     H 4128   0.076   6.764   0.493 -1.6339  1.6168 -4.4593
   31MOL0     H 4129  -0.030   6.808   0.639  2.0009  1.7428  2.5443
   31MOL0     H 4130  -0.096   7.008   0.546 -0.2692 -0.8228  0.0403
   31MOL0     H 4131   0.008   6.985   0.389 -0.7404 -2.2325 -1.6795
   31MOL0     H 4132  -0.148   6.818   0.325 -1.7851  1.3883 -0.5941
   31MOL0     H 4133  -0.227   6.815   0.482 -1.6583  0.8658 -0.0284
   31MOL0     H 4134  -0.213   7.036   0.272 -1.2124 -0.6047 -0.6904
   31MOL0     H 4135  -0.277   7.068   0.435  0.6568  3.2911 -2.6521
   31MOL0     H 4136  -0.345   6.817   0.136  0.9241 -0.1965  1.9065
   31MOL0     H 4137  -0.719   6.773   0.099  1.0647  1.0077  0.8659
   31MOL0     H 4138  -0.569   6.774  -0.000  2.3481 -2.6615  0.2498
   31MOL0     H 4139  -0.643   6.596   0.229  2.5198 -0.5180  0.7908
   31MOL0     H 4140  -0.476   6.597   0.163 -0.3232 -2.0285  1.0984
   31MOL0     H 4141  -0.569   6.411   0.076 -1.1249 -2.0455 -2.4432
   31MOL0     H 4142  -0.582   6.535  -0.054 -0.2631 -0.1257 -0.1730
   31MOL0     H 4143  -0.828   6.576   0.013  1.9323  0.8893  0.3260
   31MOL0     H 4144  -0.808   6.449   0.135  0.5132 -0.8911 -0.0898
   31MOL0     H 4145  -0.846   6.232  -0.250  1.3107  1.4991  0.9754
   31MOL0     H 4146  -1.073   5.954  -0.274 -1.9895 -0.1883 -0.0080
   31MOL0     H 4147  -1.108   6.080  -0.402 -2.3569 -1.5398  0.3817
   31MOL0     H 4148  -0.946   6.040  -0.361 -1.9617 -0.1399 -2.8189
   31MOL0     H 4149  -1.421   5.824  -0.279  1.5497  1.6363  1.4612
   31MOL0     H 4150  -1.677   5.753  -0.250 -1.5000  0.6054  2.1043
   31MOL0     H 4151  -1.940   5.755  -0.287 -0.5069  1.8344 -0.3356
   31MOL0     H 4152  -1.872   5.753  -0.124  0.3747 -0.6472 -1.2567
   31MOL0     H 4153  -2.101   5.730  -0.114  0.3395 -0.8629 -1.2833
   31MOL0     H 4154  -2.054   5.892  -0.051  1.7754  2.5468 -1.9923
   31MOL0     H 4155  -2.156   5.913  -0.337  1.8332 -0.3578  0.1591
   31MOL0     H 4156  -2.176   6.005  -0.191  3.7859 -0.4741 -1.1263
   31MOL0     H 4157  -2.316   5.735  -0.261  0.3218  1.2473 -2.4590
   31MOL0     H 4158  -2.353   5.826  -0.112 -3.8748  0.7942 -1.8314
   31MOL0     H 4159  -2.411   5.906  -0.398  0.7103 -1.4728 -0.0255
   31MOL0     H 4160  -2.456   6.005  -0.254 -3.5765 -0.0574 -0.9211
   31MOL0     H 4161  -2.552   5.713  -0.271  3.0641  0.6661  1.4168
   31MOL0     H 4162  -2.627   5.828  -0.179  0.8999 -3.0284  1.6952
   31MOL0     H 4163  -2.620   5.841  -0.483  1.9923  2.2625  0.3094
   31MOL0     H 4164  -2.712   5.951  -0.382  0.4758 -0.3637  2.9678
   31MOL0     H 4165  -2.749   5.639  -0.412  2.4027  0.7441  2.7629
   31MOL0     H 4166  -2.852   5.757  -0.479 -1.5232 -0.2330  0.9354
   31MOL0     H 4167  -1.777   6.166  -0.229 -0.1067  0.0497  0.5642
   31MOL0     H 4168  -1.529   6.223  -0.206 -0.4771  0.2210  1.3773
   31MOL0     H 4169  -1.231   6.278   0.049 -1.4556 -0.7399 -1.7230
   31MOL0     H 4170  -1.028   6.409   0.091 -1.7214 -1.1145  0.8177
   31MOL0     H 4171   0.746   6.941   1.003 -0.2193  0.3409 -1.6175
   31MOL0     H 4172   0.932   6.814   1.117  0.6048  1.0456 -1.8019
   31MOL0     H 4173   1.349   6.463   0.943  2.1637 -0.8025 -0.3501
   31MOL0     H 4174   1.537   6.363   1.054  1.1953 -1.6111  1.4482
   31MOL0     H 4175   1.519   6.443   1.505 -3.5616 -1.4551  0.8592
   31MOL0     H 4176   1.456   6.279   1.501 -0.2290  0.3362  1.8730
   31MOL0     H 4177   1.643   6.174   1.546 -0.6544  1.0297  2.9442
   31MOL0     H 4178   1.638   6.314   1.651 -1.2090  0.2482  0.3887
   31MOL0     H 4179   1.793   6.425   1.539 -2.4147 -0.6238 -2.1393
   31MOL0     H 4180   1.811   6.307   1.408  0.3872 -1.6717 -0.9872
   31MOL0     H 4181   1.903   6.139   1.543 -0.8703  0.6868 -0.1911
   31MOL0     H 4182   1.895   6.228   1.694  0.1742  0.0677  0.2175
   31MOL0     H 4183   2.251   6.390   1.517 -0.2440 -2.7077 -3.5472
   31MOL0     H 4184   1.309   6.421   1.429 -0.3063  3.0379 -0.5164
   31MOL0     H 4185   1.129   6.514   1.307  1.1739  2.7336  0.0807
   32MOL0     O 4186   6.128   5.458   9.992 -0.1324 -0.2404  0.1427
   32MOL0     C 4187   6.183   5.399  10.083 -0.0938  1.0534  0.0739
   32MOL0     O 4188   6.122   5.322  10.178 -0.2414  0.3216 -0.3189
   32MOL0     C 4189   5.986   5.320  10.199  0.2854  0.4304  0.0840
   32MOL0     C 4190   5.913   5.442  10.176  0.4646  0.0123 -0.4638
   32MOL0     C 4191   5.774   5.450  10.202 -0.0450  0.3439  0.0653
   32MOL0     C 4192   5.716   5.341  10.275  1.2323 -0.2821  0.6764
   32MOL0     O 4193   5.584   5.344  10.322 -0.0573 -0.4869 -0.6626
   32MOL0     C 4194   5.558   5.433  10.429 -0.3692  0.2788 -0.2350
   32MOL0     C 4195   5.447   5.532  10.403  0.0872  0.0866  0.5398
   32MOL0     C 4196   5.472   5.605  10.273  0.5910 -0.1221  0.1001
   32MOL0     C 4197   5.337   5.671  10.219 -0.2591  0.8799  0.4590
   32MOL0     C 4198   5.321   5.632  10.070  0.5502  0.8943 -0.2522
   32MOL0     C 4199   5.246   5.492  10.058 -0.4355  0.7294  0.1284
   32MOL0     C 4200   5.272   5.428   9.922  0.2833 -0.3831  0.6180
   32MOL0     C 4201   5.206   5.514   9.809  0.2535  0.3857 -0.0108
   32MOL0     N 4202   5.209   5.460   9.670 -0.6847 -0.0659  0.2565
   32MOL0     C 4203   5.100   5.403   9.612  0.4499  0.4808  0.4885
   32MOL0     C 4204   5.135   5.398   9.476 -0.1125 -0.0346  0.3658
   32MOL0     C 4205   5.050   5.343   9.360 -0.1450 -0.6478  0.7229
   32MOL0     C 4206   4.931   5.428   9.353  0.5611  0.4368  0.2696
   32MOL0     C 4207   4.839   5.413   9.237  0.5754 -0.6166 -0.3806
   32MOL0     C 4208   4.712   5.496   9.261 -0.5644 -0.0240  0.3491
   32MOL0     O 4209   4.613   5.478   9.161 -0.5492  0.2193 -0.1183
   32MOL0     C 4210   4.482   5.511   9.202 -0.5139  0.3786  0.3732
   32MOL0     C 4211   4.453   5.632   9.270 -0.3978  0.4476 -0.9425
   32MOL0     C 4212   4.324   5.651   9.327  0.5859 -1.0957 -0.2970
   32MOL0     C 4213   4.297   5.783   9.413 -0.6051 -1.1470  0.1425
   32MOL0     C 4214   4.218   5.556   9.296  0.5989 -0.1671  0.1910
   32MOL0     C 4215   4.073   5.576   9.325  0.4623 -0.4314 -0.8546
   32MOL0     O 4216   4.046   5.671   9.423  0.3090 -0.3791  0.4430
   32MOL0     C 4217   3.913   5.702   9.461 -0.1980 -0.6420  0.4196
   32MOL0     C 4218   3.803   5.711   9.368  0.6467  0.3304  0.3710
   32MOL0     C 4219   3.676   5.755   9.414  0.6467  1.1251 -0.5867
   32MOL0     C 4220   3.656   5.783   9.553 -0.3312  0.5722  0.2684
   32MOL0     O 4221   3.526   5.809   9.587 -0.1310 -0.1108  0.5628
   32MOL0     C 4222   3.490   5.807   9.727 -0.4940  0.1985 -0.2250
   32MOL0     C 4223   3.339   5.765   9.743  0.0277  0.3150  0.5481
   32MOL0     C 4224   3.250   5.838   9.642  0.1348 -0.1514  0.2022
   32MOL0     C 4225   3.265   5.987   9.643  0.6846  0.4682 -0.6446
   32MOL0     C 4226   3.159   6.066   9.561 -0.3391  0.0373 -1.1414
   32MOL0     C 4227   3.121   6.014   9.425  0.0097 -0.5059  0.2518
   32MOL0     C 4228   3.241   5.993   9.328 -0.6178  0.3878  0.1339
   32MOL0     C 4229   3.203   5.898   9.213 -0.0147  0.3502  0.3483
   32MOL0    Cl 4230   3.347   5.821   9.150 -0.1620 -0.0227  0.7489
   32MOL0     C 4231   3.760   5.768   9.637 -0.7526  0.1476  0.2048
   32MOL0     C 4232   3.893   5.743   9.590 -0.2304 -0.8377 -0.2791
   32MOL0     O 4233   3.992   5.503   9.265  1.0725  0.1883 -0.9569
   32MOL0     C 4234   4.253   5.449   9.215 -0.0160  0.3325 -0.0762
   32MOL0     C 4235   4.384   5.423   9.174 -0.3006 -0.4466  0.0896
   32MOL0     N 4236   5.264   5.458   9.464  0.3612 -0.8963 -0.4152
   32MOL0     N 4237   5.302   5.494   9.579 -0.2626  0.7136  0.0357
   32MOL0     C 4238   5.788   5.221  10.288  0.1582  0.4546 -0.3334
   32MOL0     C 4239   5.917   5.204  10.252 -0.5179 -0.5102 -0.4932
   32MOL0     C 4240   6.328   5.412  10.105 -0.1976 -0.3480  0.2527
   32MOL0     C 4241   6.391   5.345  10.214 -0.1617 -0.4300  0.4957
   32MOL0     C 4242   6.530   5.355  10.228 -0.2681  0.4010  0.4090
   32MOL0     C 4243   6.604   5.427  10.132 -0.0164 -0.3726  0.6853
   32MOL0     O 4244   6.737   5.438  10.143 -0.0476  0.2117  0.6016
   32MOL0     C 4245   6.823   5.510  10.046 -0.6879 -0.5332 -1.1342
   32MOL0     C 4246   6.962   5.489  10.088 -0.5437 -0.5265  0.0353
   32MOL0     C 4247   6.998   5.345  10.076 -0.8041  1.1391  0.1392
   32MOL0     C 4248   7.147   5.320  10.120 -0.3007 -0.5166 -0.3471
   32MOL0     C 4249   7.255   5.359  10.021  0.0417  0.2262 -0.0721
   32MOL0     C 4250   7.330   5.398   9.933 -0.2336  0.5556  0.0854
   32MOL0     C 4251   6.542   5.507  10.036 -0.1968  0.5982  0.1210
   32MOL0     C 4252   6.404   5.486  10.015  0.4351  0.0770 -0.4400
   32MOL0     H 4253   5.956   5.527  10.125  1.2699  0.1156  0.3566
   32MOL0     H 4254   5.727   5.545  10.180  0.3084  0.3078 -0.8615
   32MOL0     H 4255   5.521   5.368  10.509 -1.8615 -1.6616 -2.3447
   32MOL0     H 4256   5.655   5.471  10.462  0.8751 -1.5014 -1.5622
   32MOL0     H 4257   5.359   5.468  10.397 -0.5914  0.7380  2.5539
   32MOL0     H 4258   5.436   5.607  10.483 -1.5755 -0.1815  0.6050
   32MOL0     H 4259   5.539   5.689  10.293 -0.0839  0.5964 -0.5943
   32MOL0     H 4260   5.518   5.544  10.194  3.4979  1.0239  0.7789
   32MOL0     H 4261   5.256   5.649  10.289 -1.6065  1.8349 -0.7314
   32MOL0     H 4262   5.344   5.780  10.220 -0.6961  0.9780 -1.6575
   32MOL0     H 4263   5.256   5.705  10.020  0.6165  0.5195 -0.9005
   32MOL0     H 4264   5.413   5.635  10.012  0.2741  0.0443 -0.7515
   32MOL0     H 4265   5.273   5.420  10.136  0.4342  0.9197  0.0131
   32MOL0     H 4266   5.139   5.505  10.080 -0.3436 -1.2564  2.0759
   32MOL0     H 4267   5.381   5.417   9.916  0.8611  3.7480  0.5796
   32MOL0     H 4268   5.229   5.328   9.916 -1.2868  0.3298 -1.0479
   32MOL0     H 4269   5.260   5.609   9.806  1.6018 -0.3803 -1.8624
   32MOL0     H 4270   5.101   5.525   9.837  0.0242 -0.3225 -0.5728
   32MOL0     H 4271   5.002   5.381   9.652 -1.4106 -0.5858 -4.0668
   32MOL0     H 4272   5.107   5.356   9.268 -0.2139  1.8342  0.9522
   32MOL0     H 4273   5.023   5.239   9.379 -0.3389 -0.5199  1.1566
   32MOL0     H 4274   4.967   5.531   9.346  0.0829  0.6288  0.6195
   32MOL0     H 4275   4.872   5.417   9.444  0.4375 -0.9196  0.0516
   32MOL0     H 4276   4.819   5.307   9.220 -0.2511 -0.8654  1.8588
   32MOL0     H 4277   4.888   5.440   9.142 -0.1294 -1.2017 -0.9187
   32MOL0     H 4278   4.743   5.601   9.259  1.0907 -0.4890  0.0112
   32MOL0     H 4279   4.672   5.484   9.362 -1.6103 -1.0838 -0.1660
   32MOL0     H 4280   4.524   5.713   9.280 -2.2725  2.2518 -1.6647
   32MOL0     H 4281   4.205   5.835   9.386 -1.2468 -2.0254  0.5744
   32MOL0     H 4282   4.293   5.745   9.515 -0.0816  1.8521  1.3590
   32MOL0     H 4283   4.388   5.842   9.407 -1.2271  0.0718  2.0211
   32MOL0     H 4284   3.815   5.686   9.264 -2.4092 -0.7567  0.1577
   32MOL0     H 4285   3.587   5.758   9.352 -1.7939  2.2861  2.6930
   32MOL0     H 4286   3.552   5.733   9.778  1.1182 -1.3434 -4.0542
   32MOL0     H 4287   3.505   5.905   9.774  0.8469 -0.1273  0.0729
   32MOL0     H 4288   3.336   5.658   9.722  2.0104  0.3549 -0.1528
   32MOL0     H 4289   3.315   5.793   9.846 -1.9478  3.7093 -0.6749
   32MOL0     H 4290   3.147   5.821   9.673 -1.0686  1.1207 -2.7210
   32MOL0     H 4291   3.259   5.799   9.540  0.8342  1.8655 -0.5671
   32MOL0     H 4292   3.258   6.026   9.744  0.5835 -0.1747 -0.4000
   32MOL0     H 4293   3.366   6.011   9.606  1.0459  2.9626  1.6830
   32MOL0     H 4294   3.188   6.171   9.554  1.1857 -0.2323  0.5141
   32MOL0     H 4295   3.061   6.067   9.610 -0.1559 -0.6207 -0.7535
   32MOL0     H 4296   3.072   5.917   9.437  0.4250 -0.6375  0.9648
   32MOL0     H 4297   3.047   6.079   9.378  0.3493  1.6423  2.4747
   32MOL0     H 4298   3.318   5.940   9.384 -1.6002  0.2893  1.4466
   32MOL0     H 4299   3.288   6.085   9.292  1.4182  0.0799  1.8240
   32MOL0     H 4300   3.168   5.964   9.134 -2.2748  0.1491  1.1121
   32MOL0     H 4301   3.116   5.836   9.237  1.3275 -2.1365 -0.7984
   32MOL0     H 4302   3.743   5.777   9.744 -0.5621 -2.0075  0.4613
   32MOL0     H 4303   3.972   5.736   9.664  2.2279 -0.7749 -2.7477
   32MOL0     H 4304   4.172   5.383   9.186  0.5473  0.1723 -1.3342
   32MOL0     H 4305   4.416   5.335   9.118 -3.6885 -1.4953 -0.4508
   32MOL0     H 4306   5.738   5.137  10.334 -1.8056  0.6534 -1.9569
   32MOL0     H 4307   5.982   5.118  10.266  2.3724  1.5177 -0.5449
   32MOL0     H 4308   6.327   5.292  10.284 -0.1488 -0.9121  0.1473
   32MOL0     H 4309   6.567   5.293  10.309  0.0396 -1.0366 -0.7917
   32MOL0     H 4310   6.806   5.461   9.950  0.5077  1.8629 -2.6579
   32MOL0     H 4311   6.805   5.617  10.033 -1.0063 -0.3669  0.5069
   32MOL0     H 4312   6.976   5.515  10.193 -1.5940  2.6481 -0.5102
   32MOL0     H 4313   7.036   5.543  10.028  0.0684 -1.3203  0.0556
   32MOL0     H 4314   6.978   5.313   9.973 -1.2390 -1.5922  0.9837
   32MOL0     H 4315   6.939   5.286  10.147 -0.4254  1.0680  0.3969
   32MOL0     H 4316   7.152   5.217  10.154  0.6053 -0.6064 -0.7153
   32MOL0     H 4317   7.160   5.383  10.209 -1.6673  2.1565 -1.8800
   32MOL0     H 4318   7.402   5.428   9.860  1.6080 -3.0610  0.2049
   32MOL0     H 4319   6.601   5.563   9.964 -0.4847  0.3826 -0.2881
   32MOL0     H 4320   6.352   5.533   9.932 -0.2547  1.3896  0.7081
   33MOL0     O 4321   5.352   9.347  10.514  0.2721  0.3851 -0.2041
   33MOL0     C 4322   5.373   9.310  10.400 -0.1284  0.3107  0.4620
   33MOL0     O 4323   5.286   9.247  10.317 -0.1355 -0.1837 -0.3476
   33MOL0     C 4324   5.154   9.233  10.357  0.7476 -0.1459 -0.7639
   33MOL0     C 4325   5.109   9.109  10.385  0.0373  0.0678  0.6829
   33MOL0     C 4326   4.977   9.085  10.421  1.4812 -0.5762  0.3880
   33MOL0     C 4327   4.892   9.193  10.433  0.7129 -0.2123 -0.5331
   33MOL0     O 4328   4.771   9.147  10.468  0.3306 -0.0869  0.3291
   33MOL0     C 4329   4.658   9.230  10.473 -0.5404 -0.2653  0.3097
   33MOL0     C 4330   4.586   9.224  10.336  0.5510 -0.0729 -0.2648
   33MOL0     C 4331   4.481   9.328  10.324  0.3886  0.4919 -0.0165
   33MOL0     C 4332   4.383   9.286  10.216 -0.1029  0.3344  0.4896
   33MOL0     C 4333   4.267   9.386  10.200  0.1664 -0.2400 -0.2663
   33MOL0     C 4334   4.192   9.349  10.060 -0.2612  0.5254  0.5420
   33MOL0     C 4335   4.055   9.415  10.062 -0.4217  0.3919  0.3136
   33MOL0     C 4336   3.995   9.434   9.921  0.3306 -0.9232 -0.0984
   33MOL0     N 4337   4.076   9.502   9.821 -0.3730 -0.5314 -1.0092
   33MOL0     C 4338   4.184   9.446   9.751 -0.3565  0.2237 -0.3516
   33MOL0     C 4339   4.224   9.551   9.676 -0.6545  0.5023 -0.4024
   33MOL0     C 4340   4.340   9.548   9.567 -0.3238  0.4640 -0.2304
   33MOL0     C 4341   4.475   9.526   9.625 -0.8609  0.0167  0.8123
   33MOL0     C 4342   4.573   9.488   9.516 -0.5780 -0.3345  0.2708
   33MOL0     C 4343   4.721   9.465   9.562  0.7851 -0.4672 -0.9646
   33MOL0     O 4344   4.791   9.591   9.574 -0.3856  0.0662  0.1675
   33MOL0     C 4345   4.930   9.600   9.559  0.2365  0.2649  0.3002
   33MOL0     C 4346   4.989   9.723   9.529  0.1732  0.4206 -0.1712
   33MOL0     C 4347   5.129   9.738   9.508 -0.5818 -0.8771 -0.5846
   33MOL0     C 4348   5.181   9.879   9.472  1.0697 -0.4870  0.0593
   33MOL0     C 4349   5.210   9.622   9.521  0.5779 -0.6082  0.5764
   33MOL0     C 4350   5.360   9.630   9.508 -1.0747 -0.4820  0.1907
   33MOL0     O 4351   5.429   9.745   9.501  0.1562 -0.6269  0.3304
   33MOL0     C 4352   5.558   9.757   9.461 -0.4378 -0.0413 -0.3532
   33MOL0     C 4353   5.580   9.852   9.364 -0.5893 -0.6943 -0.5323
   33MOL0     C 4354   5.712   9.883   9.319 -0.3401 -0.2472 -0.4467
   33MOL0     C 4355   5.819   9.829   9.387 -0.0605 -0.0293 -0.0315
   33MOL0     O 4356   5.943   9.860   9.356 -0.2379  1.1399 -0.0653
   33MOL0     C 4357   5.985   9.931   9.235  0.2380  0.1034 -0.1723
   33MOL0     C 4358   6.139   9.928   9.203  0.5118 -0.3877  0.3333
   33MOL0     C 4359   6.198   9.821   9.102  0.2037  0.4341  0.1780
   33MOL0     C 4360   6.348   9.779   9.119  0.1837  0.3718 -0.0051
   33MOL0     C 4361   6.385   9.683   9.005 -0.7322 -0.0712 -0.9461
   33MOL0     C 4362   6.531   9.636   9.036 -0.0698 -0.6044  0.8156
   33MOL0     C 4363   6.564   9.495   8.982 -0.6466  0.1058  0.2248
   33MOL0     C 4364   6.702   9.440   9.015  0.4922 -0.5235  0.3784
   33MOL0    Cl 4365   6.695   9.272   8.962 -0.1619  0.3659  0.7382
   33MOL0     C 4366   5.797   9.720   9.476 -0.1771  0.0708  0.1034
   33MOL0     C 4367   5.667   9.686   9.516 -0.4802  0.0501  0.1421
   33MOL0     O 4368   5.412   9.520   9.494 -0.0337  0.4337  0.1665
   33MOL0     C 4369   5.148   9.505   9.538 -0.3549  0.3447  0.6067
   33MOL0     C 4370   5.012   9.484   9.564  0.2059  0.2716  1.0076
   33MOL0     N 4371   4.157   9.665   9.709 -0.5786  0.8677 -0.5130
   33MOL0     N 4372   4.072   9.638   9.806  0.4845  0.8696  0.2484
   33MOL0     C 4373   4.939   9.319  10.406  0.6423 -0.3229  0.3416
   33MOL0     C 4374   5.073   9.347  10.366 -0.4158 -0.6613  0.4277
   33MOL0     C 4375   5.509   9.319  10.358  0.0895 -0.5081  0.1363
   33MOL0     C 4376   5.532   9.307  10.217 -0.1064 -0.0407 -0.6619
   33MOL0     C 4377   5.658   9.304  10.177  0.1519  0.2156  0.7120
   33MOL0     C 4378   5.769   9.336  10.257 -0.1418 -0.2967  0.6506
   33MOL0     O 4379   5.893   9.333  10.192 -0.3387 -0.0699 -0.0035
   33MOL0     C 4380   6.011   9.406  10.248  0.1865  0.2969 -0.0421
   33MOL0     C 4381   6.021   9.553  10.198 -0.2198  0.2818 -0.5599
   33MOL0     C 4382   6.130   9.635  10.272 -0.2389  1.3531  0.0894
   33MOL0     C 4383   6.130   9.783  10.225  0.1132 -0.3027  0.3347
   33MOL0     C 4384   6.008   9.852  10.268  0.2045  0.3751 -1.0556
   33MOL0     C 4385   5.900   9.912  10.291  0.1282  0.6410 -0.1791
   33MOL0     C 4386   5.741   9.371  10.393 -1.3199 -0.0917  0.1923
   33MOL0     C 4387   5.614   9.358  10.446 -0.1672  0.3204  0.4512
   33MOL0     H 4388   5.179   9.031  10.358  0.3085 -0.7603  3.5241
   33MOL0     H 4389   4.943   8.984  10.444  0.1462 -0.2431 -0.1010
   33MOL0     H 4390   4.580   9.202  10.544 -0.1525  1.0349  1.2789
   33MOL0     H 4391   4.690   9.330  10.505 -2.1802  0.7235 -1.0025
   33MOL0     H 4392   4.652   9.254  10.254 -0.4587  0.3268 -0.9543
   33MOL0     H 4393   4.542   9.125  10.322  0.0006 -0.0640  1.2708
   33MOL0     H 4394   4.433   9.339  10.422  0.1306 -1.8737  0.1900
   33MOL0     H 4395   4.533   9.421  10.301  0.0637  0.7017  0.1036
   33MOL0     H 4396   4.436   9.269  10.122 -0.2783  2.5129 -0.0437
   33MOL0     H 4397   4.351   9.185  10.245  0.5643  0.4187  1.5868
   33MOL0     H 4398   4.204   9.377  10.289  1.8139  1.7587  1.1888
   33MOL0     H 4399   4.312   9.486  10.196 -0.6831  0.2510  1.5104
   33MOL0     H 4400   4.263   9.384   9.984  0.1844  1.0556  1.1889
   33MOL0     H 4401   4.171   9.241  10.061 -1.4267  0.7143 -0.7973
   33MOL0     H 4402   3.978   9.369  10.125 -2.5492 -0.3865 -2.6289
   33MOL0     H 4403   4.060   9.517  10.101 -2.1243  0.6123  0.0398
   33MOL0     H 4404   3.902   9.491   9.922  0.8582  0.1084 -2.2712
   33MOL0     H 4405   3.975   9.331   9.892 -1.1032 -1.4030  2.3810
   33MOL0     H 4406   4.213   9.343   9.739  0.2505  0.3974 -0.4040
   33MOL0     H 4407   4.308   9.477   9.491 -3.8000  0.5829  0.9317
   33MOL0     H 4408   4.350   9.647   9.522  2.1074 -0.0232 -0.9302
   33MOL0     H 4409   4.474   9.462   9.714 -0.5406 -2.7445 -1.0516
   33MOL0     H 4410   4.501   9.627   9.660 -2.0276  0.2799  0.9673
   33MOL0     H 4411   4.567   9.562   9.437  2.1817 -0.8666 -0.5603
   33MOL0     H 4412   4.547   9.387   9.482  0.9804 -1.1426  1.3288
   33MOL0     H 4413   4.765   9.408   9.480 -0.0161 -0.2712 -1.5414
   33MOL0     H 4414   4.723   9.405   9.654  0.3389  0.0084 -0.6327
   33MOL0     H 4415   4.920   9.807   9.521  2.4982  2.4554 -0.2894
   33MOL0     H 4416   5.093   9.943   9.488  1.6835  0.4093 -0.0851
   33MOL0     H 4417   5.261   9.916   9.538  0.3068 -0.9218  1.2641
   33MOL0     H 4418   5.213   9.881   9.368  1.6298 -0.4428  0.2256
   33MOL0     H 4419   5.495   9.904   9.320  0.5516  0.4213 -1.5354
   33MOL0     H 4420   5.735   9.962   9.249  0.8183 -1.1465 -1.1028
   33MOL0     H 4421   5.936   9.871   9.158  0.4020 -0.2659  0.0081
   33MOL0     H 4422   5.957  10.037   9.237 -1.5768 -0.3689  0.4980
   33MOL0     H 4423   6.165  10.026   9.163  0.8081  1.0000  3.5971
   33MOL0     H 4424   6.200   9.921   9.294  1.2088 -0.9468 -0.1598
   33MOL0     H 4425   6.198   9.864   9.002 -2.4147 -2.4830 -1.2412
   33MOL0     H 4426   6.138   9.730   9.101 -0.4693  0.7437  3.1365
   33MOL0     H 4427   6.409   9.870   9.124 -0.1892  0.6646 -0.6448
   33MOL0     H 4428   6.359   9.728   9.215 -1.0732 -3.1861 -1.5838
   33MOL0     H 4429   6.374   9.712   8.900  2.7468 -1.6074 -1.8920
   33MOL0     H 4430   6.316   9.601   9.025 -0.1601  0.0966  2.3407
   33MOL0     H 4431   6.600   9.711   8.995 -0.5652  0.7044  2.2358
   33MOL0     H 4432   6.559   9.634   9.142  2.8422  1.4461  0.1908
   33MOL0     H 4433   6.548   9.494   8.873  0.0561 -0.0781  0.1126
   33MOL0     H 4434   6.495   9.427   9.032  1.3884  0.3873  3.7548
   33MOL0     H 4435   6.720   9.439   9.123  1.0955 -0.8419  0.2810
   33MOL0     H 4436   6.784   9.499   8.972  1.5049 -1.2465  1.2785
   33MOL0     H 4437   5.877   9.664   9.523  0.8081 -0.6431 -2.2734
   33MOL0     H 4438   5.644   9.613   9.593 -0.7656  1.9653  1.9842
   33MOL0     H 4439   5.204   9.413   9.527 -0.8411 -0.0126  1.0571
   33MOL0     H 4440   4.968   9.385   9.564  0.4213 -0.1399 -4.7768
   33MOL0     H 4441   4.863   9.396  10.415 -0.2356 -1.1764  0.4066
   33MOL0     H 4442   5.118   9.445  10.353 -1.2569  0.2909  3.5969
   33MOL0     H 4443   5.446   9.296  10.152 -0.6087 -3.2494  0.4014
   33MOL0     H 4444   5.678   9.285  10.072 -3.2373  3.1467 -0.6664
   33MOL0     H 4445   5.998   9.407  10.357 -2.4188  0.5761 -0.2761
   33MOL0     H 4446   6.104   9.352  10.232 -0.2648 -0.4607 -0.1629
   33MOL0     H 4447   5.923   9.597  10.221  1.5379  5.1331 -1.1661
   33MOL0     H 4448   6.032   9.555  10.089 -2.7891 -0.6698 -0.9096
   33MOL0     H 4449   6.228   9.590  10.252 -0.3778  0.9934  0.2093
   33MOL0     H 4450   6.115   9.635  10.381  0.2366  0.1562  0.1633
   33MOL0     H 4451   6.123   9.782  10.115 -0.2213  1.9920  0.2853
   33MOL0     H 4452   6.214   9.842  10.260  0.0884 -1.2772  2.1655
   33MOL0     H 4453   5.808   9.962  10.310 -0.5246 -0.4262 -0.4607
   33MOL0     H 4454   5.825   9.396  10.458  1.1805  4.4059 -4.1103
   33MOL0     H 4455   5.600   9.390  10.549 -1.0862 -1.5666  0.9657
   34MOL0     O 4456   8.971   2.917   8.946  0.3064  0.0142 -0.0155
   34MOL0     C 4457   8.979   2.915   8.829  0.7151 -0.9288  0.7074
   34MOL0     O 4458   8.883   2.967   8.743 -0.7710 -0.1796  0.1552
   34MOL0     C 4459   8.769   3.007   8.797 -0.0633 -1.0112  0.4658
   34MOL0     C 4460   8.737   3.143   8.808 -0.6463 -0.4390  0.3153
   34MOL0     C 4461   8.611   3.180   8.855 -0.3445 -0.1032  0.3303
   34MOL0     C 4462   8.513   3.082   8.877  0.1201  0.1219 -0.0027
   34MOL0     O 4463   8.393   3.132   8.921  0.7119  0.7304  0.1987
   34MOL0     C 4464   8.337   3.227   8.823  0.0492  0.5225 -0.1977
   34MOL0     C 4465   8.190   3.249   8.866  0.3250  0.4570 -0.1473
   34MOL0     C 4466   8.140   3.383   8.806  0.8033 -0.1336  0.0266
   34MOL0     C 4467   7.994   3.403   8.829 -0.2578 -0.6611  0.3213
   34MOL0     C 4468   7.950   3.539   8.778 -0.2450  0.5952 -0.1753
   34MOL0     C 4469   7.797   3.567   8.781 -0.0760  0.1403  0.1059
   34MOL0     C 4470   7.760   3.705   8.717  0.8866  1.1912 -0.0729
   34MOL0     C 4471   7.616   3.742   8.764  0.5800  0.2857  0.1993
   34MOL0     N 4472   7.511   3.650   8.702 -0.7413 -0.1377 -0.5090
   34MOL0     C 4473   7.412   3.579   8.767  0.8692 -0.0742 -0.1170
   34MOL0     C 4474   7.368   3.484   8.675 -0.3213  0.7227 -0.0546
   34MOL0     C 4475   7.275   3.367   8.696  1.2955 -0.3064  0.2132
   34MOL0     C 4476   7.139   3.418   8.733  0.1872  0.4095  0.4630
   34MOL0     C 4477   7.041   3.306   8.771 -0.0010 -0.1497  0.1717
   34MOL0     C 4478   7.087   3.232   8.897  0.4127 -0.0729 -0.0415
   34MOL0     O 4479   7.172   3.128   8.862 -0.7618  0.0589 -0.5015
   34MOL0     C 4480   7.239   3.068   8.958  1.2538  0.3746 -0.2623
   34MOL0     C 4481   7.173   2.961   9.022  0.5511  0.2469  0.2474
   34MOL0     C 4482   7.228   2.884   9.129 -0.1423  0.1915  1.2040
   34MOL0     C 4483   7.123   2.782   9.185 -0.5979 -0.0314 -0.4755
   34MOL0     C 4484   7.362   2.922   9.170 -0.8836 -0.6580  0.7150
   34MOL0     C 4485   7.424   2.874   9.298  0.8321 -0.9605  0.8491
   34MOL0     O 4486   7.525   2.956   9.351  0.7612 -0.1628  0.2552
   34MOL0     C 4487   7.565   2.925   9.474 -0.7199 -0.3273 -0.5910
   34MOL0     C 4488   7.561   3.032   9.579 -0.1395  0.1881  0.7123
   34MOL0     C 4489   7.600   3.008   9.704  0.8617  0.0579 -0.2119
   34MOL0     C 4490   7.636   2.882   9.752 -0.1309 -0.7695 -0.4311
   34MOL0     O 4491   7.644   2.856   9.883 -0.3136 -0.4248 -0.2560
   34MOL0     C 4492   7.522   2.858   9.961  0.6155 -0.1208  0.2407
   34MOL0     C 4493   7.545   2.920  10.091 -0.5731 -0.5788 -0.2601
   34MOL0     C 4494   7.398   2.939  10.148  0.3588 -1.0025  0.3501
   34MOL0     C 4495   7.429   3.005  10.290  0.8634  0.1693 -0.3873
   34MOL0     C 4496   7.307   2.998  10.387  0.3723  0.6872  0.5107
   34MOL0     C 4497   7.189   3.063  10.318 -0.2723 -0.9143  0.0506
   34MOL0     C 4498   7.084   3.101  10.416 -0.0160 -0.4332 -0.5278
   34MOL0     C 4499   6.961   3.179  10.358  0.3681  0.0032 -0.4397
   34MOL0    Cl 4500   7.013   3.350  10.364  0.1919 -0.0362 -0.6296
   34MOL0     C 4501   7.641   2.780   9.661  0.3804  0.1445  0.2581
   34MOL0     C 4502   7.615   2.804   9.523 -0.4236 -0.9041 -0.0640
   34MOL0     O 4503   7.368   2.779   9.356 -0.2646 -0.3942 -0.4745
   34MOL0     C 4504   7.425   3.035   9.106  0.4770 -0.3304 -0.5959
   34MOL0     C 4505   7.361   3.104   9.002 -0.1219  0.9317  0.2677
   34MOL0     N 4506   7.432   3.505   8.555  0.3448  0.2411 -0.1565
   34MOL0     N 4507   7.524   3.597   8.572  0.6439 -0.0879 -0.1868
   34MOL0     C 4508   8.550   2.945   8.869  0.7814  0.4667 -0.0559
   34MOL0     C 4509   8.676   2.913   8.824 -0.6107  0.0775 -0.6101
   34MOL0     C 4510   9.094   2.857   8.768  0.0457  0.6440  0.0433
   34MOL0     C 4511   9.187   2.787   8.847 -0.0802  0.3836 -0.9392
   34MOL0     C 4512   9.309   2.735   8.794 -0.3783 -0.0064 -0.1827
   34MOL0     C 4513   9.343   2.757   8.656 -0.2407  0.7123 -0.8527
   34MOL0     O 4514   9.469   2.725   8.609 -0.2415 -0.1433  0.0067
   34MOL0     C 4515   9.558   2.837   8.572  0.2169 -0.3317  0.1285
   34MOL0     C 4516   9.684   2.775   8.508  0.1583  0.3646 -0.4585
   34MOL0     C 4517   9.812   2.861   8.500 -0.7757 -0.0211 -0.3158
   34MOL0     C 4518   9.931   2.781   8.439 -0.1705 -0.7945  0.5245
   34MOL0     C 4519  10.059   2.851   8.453  0.1395 -1.1464 -0.0196
   34MOL0     C 4520  10.168   2.903   8.454 -0.2278  1.2840  0.0347
   34MOL0     C 4521   9.247   2.828   8.577  0.6715  0.4451  0.6503
   34MOL0     C 4522   9.126   2.870   8.630  0.3055  0.3589  0.2664
   34MOL0     H 4523   8.805   3.216   8.765 -0.2932 -1.9536 -1.8380
   34MOL0     H 4524   8.586   3.284   8.868  0.1696 -0.1244  1.5730
   34MOL0     H 4525   8.373   3.330   8.830 -0.2345  0.6685 -0.8322
   34MOL0     H 4526   8.337   3.184   8.722  2.5883 -1.4641  0.5537
   34MOL0     H 4527   8.122   3.170   8.832  0.3153  1.3164 -2.2726
   34MOL0     H 4528   8.185   3.248   8.975  2.0867 -0.5009 -0.0358
   34MOL0     H 4529   8.197   3.466   8.849 -2.6102  2.1760  0.5018
   34MOL0     H 4530   8.158   3.379   8.699  1.6206  0.4815  0.1348
   34MOL0     H 4531   7.937   3.321   8.787  1.4397 -0.9150 -1.6397
   34MOL0     H 4532   7.972   3.400   8.936 -0.3864 -3.9842  0.3073
   34MOL0     H 4533   8.004   3.618   8.830  0.5541  0.9084 -1.4215
   34MOL0     H 4534   7.981   3.550   8.673 -0.4574  1.2079 -0.1811
   34MOL0     H 4535   7.740   3.487   8.731 -1.1350  1.1783 -0.3906
   34MOL0     H 4536   7.758   3.575   8.883 -0.3193 -2.2583  0.2692
   34MOL0     H 4537   7.829   3.781   8.755  2.0162  0.9474 -1.5477
   34MOL0     H 4538   7.770   3.696   8.608 -2.1317 -2.0915 -0.2435
   34MOL0     H 4539   7.600   3.843   8.726 -0.3174 -0.4681 -1.5207
   34MOL0     H 4540   7.608   3.738   8.873 -0.0822 -1.5288  0.1280
   34MOL0     H 4541   7.396   3.584   8.875 -1.3679 -2.5574 -0.2283
   34MOL0     H 4542   7.258   3.304   8.609 -3.0381  0.6764  0.1481
   34MOL0     H 4543   7.321   3.313   8.780  0.2360  0.0530  1.0417
   34MOL0     H 4544   7.103   3.475   8.647 -0.7804 -1.2162 -0.2638
   34MOL0     H 4545   7.155   3.492   8.811 -1.2151  0.1474  1.0366
   34MOL0     H 4546   7.010   3.240   8.690 -0.6551 -1.5788  1.5122
   34MOL0     H 4547   6.954   3.359   8.810  0.9893 -0.0412  2.4154
   34MOL0     H 4548   7.008   3.180   8.951  0.5154 -1.4588 -1.1541
   34MOL0     H 4549   7.137   3.303   8.963 -1.8081  1.4799  0.0690
   34MOL0     H 4550   7.081   2.923   8.980 -0.0943  3.4705 -1.4790
   34MOL0     H 4551   7.036   2.775   9.119 -1.2881 -2.2411  0.5725
   34MOL0     H 4552   7.169   2.683   9.188 -0.7256 -0.1181 -1.1742
   34MOL0     H 4553   7.090   2.825   9.280  0.4295 -0.2945  0.0192
   34MOL0     H 4554   7.545   3.137   9.556  2.0761  0.4061 -0.0647
   34MOL0     H 4555   7.587   3.089   9.775 -2.3713  1.7223 -2.4215
   34MOL0     H 4556   7.440   2.908   9.906  2.0287  0.9475 -0.9826
   34MOL0     H 4557   7.496   2.753   9.972 -1.4504  0.4719  1.6467
   34MOL0     H 4558   7.602   2.855  10.158  0.5320  0.6130 -0.0023
   34MOL0     H 4559   7.600   3.015  10.092 -0.9044 -0.3569  1.6764
   34MOL0     H 4560   7.343   2.846  10.131 -2.0677  0.4305 -0.0105
   34MOL0     H 4561   7.339   3.017  10.099  1.4686  0.1741  0.8345
   34MOL0     H 4562   7.515   2.964  10.344  0.9600  1.4695  0.4964
   34MOL0     H 4563   7.454   3.108  10.264 -1.0388  0.4133 -1.4808
   34MOL0     H 4564   7.328   3.046  10.483 -2.5027 -2.5008  2.9590
   34MOL0     H 4565   7.288   2.892  10.400  0.8128 -0.1515 -3.9498
   34MOL0     H 4566   7.221   3.157  10.271  0.8717 -1.2085  0.2128
   34MOL0     H 4567   7.148   3.002  10.237  0.2840 -0.5830 -0.4906
   34MOL0     H 4568   7.124   3.162  10.497 -0.8303  1.3985 -1.4328
   34MOL0     H 4569   7.057   3.007  10.464  1.3910 -0.9469 -0.7025
   34MOL0     H 4570   6.883   3.161  10.432 -0.4601  1.0236 -1.0497
   34MOL0     H 4571   6.933   3.152  10.256 -2.1070  0.8589 -0.0489
   34MOL0     H 4572   7.667   2.684   9.704 -0.3386 -0.0697  0.2283
   34MOL0     H 4573   7.634   2.722   9.454  1.2060 -2.0187  1.5977
   34MOL0     H 4574   7.524   3.072   9.130  1.4802 -2.3147 -1.4206
   34MOL0     H 4575   7.405   3.191   8.954 -1.4725  2.3236  1.4142
   34MOL0     H 4576   8.480   2.865   8.889  3.3557 -1.7282  0.6913
   34MOL0     H 4577   8.699   2.808   8.836  0.1214  0.1928 -0.9436
   34MOL0     H 4578   9.178   2.787   8.956 -0.0283 -0.2565 -0.9273
   34MOL0     H 4579   9.388   2.688   8.851  1.0559  2.7387  0.2815
   34MOL0     H 4580   9.509   2.916   8.515 -1.2373 -1.1466  0.2069
   34MOL0     H 4581   9.599   2.871   8.668 -1.7924  0.5617  0.7232
   34MOL0     H 4582   9.668   2.722   8.414 -3.6998  0.2465  0.0960
   34MOL0     H 4583   9.716   2.693   8.573  1.1463  0.0588 -1.3154
   34MOL0     H 4584   9.827   2.900   8.601 -0.9051  0.6959 -0.5682
   34MOL0     H 4585   9.787   2.947   8.437  1.0501  1.3332  0.6997
   34MOL0     H 4586   9.905   2.784   8.333 -2.1443 -0.7259  0.9664
   34MOL0     H 4587   9.941   2.679   8.477 -0.5615 -0.7356  0.7959
   34MOL0     H 4588  10.267   2.943   8.464 -0.5291  1.9784  0.3422
   34MOL0     H 4589   9.273   2.841   8.473  0.2130  3.8403  0.8514
   34MOL0     H 4590   9.062   2.924   8.562  0.3784  0.2677  0.1241
   35MOL0     O 4591   1.265  10.599   7.027  0.5419 -0.1346  0.1059
   35MOL0     C 4592   1.293  10.483   6.995  0.2283 -0.6223  1.1770
   35MOL0     O 4593   1.211  10.394   6.920 -0.7094 -0.3050 -0.4464
   35MOL0     C 4594   1.079  10.414   6.888  1.2026 -0.4322  0.5068
   35MOL0     C 4595   0.986  10.454   6.986 -0.3121  0.7209 -0.4341
   35MOL0     C 4596   0.854  10.493   6.945  0.3228 -0.2715 -0.6496
   35MOL0     C 4597   0.825  10.475   6.809  0.4261 -0.2905 -0.4378
   35MOL0     O 4598   0.695  10.502   6.775 -0.0542 -0.2106  0.2153
   35MOL0     C 4599   0.680  10.629   6.709 -0.4676  0.3785  0.6541
   35MOL0     C 4600   0.690  10.754   6.807 -0.0412  0.3613 -0.1153
   35MOL0     C 4601   0.568  10.769   6.890  0.3129 -0.3104  0.0738
   35MOL0     C 4602   0.465  10.857   6.813 -0.0841  1.1992  0.9739
   35MOL0     C 4603   0.329  10.850   6.886 -0.4277  0.2111  0.4229
   35MOL0     C 4604   0.224  10.951   6.842 -0.6180 -0.6204  0.6719
   35MOL0     C 4605   0.085  10.911   6.884 -0.0065  0.2057  0.1079
   35MOL0     C 4606  -0.021  11.020   6.835 -0.7392 -0.4185  0.3018
   35MOL0     N 4607  -0.160  10.972   6.842 -0.1982 -0.6078 -0.4134
   35MOL0     C 4608  -0.234  10.950   6.953  0.1873  0.8648  0.3295
   35MOL0     C 4609  -0.357  10.921   6.919  0.4450 -0.1012 -0.1574
   35MOL0     C 4610  -0.481  10.911   7.005  0.1582  0.0856  0.4957
   35MOL0     C 4611  -0.573  10.812   6.936  0.0397  1.0279 -0.2680
   35MOL0     C 4612  -0.684  10.764   7.033  0.4419 -0.1517  0.0316
   35MOL0     C 4613  -0.791  10.873   7.043 -0.8541  0.5444 -0.7091
   35MOL0     O 4614  -0.896  10.816   7.113 -0.6642  0.1057 -0.0292
   35MOL0     C 4615  -1.012  10.879   7.136 -0.0067  0.1759 -0.1302
   35MOL0     C 4616  -1.111  10.801   7.204  0.2677 -0.3515 -1.0798
   35MOL0     C 4617  -1.236  10.859   7.234  0.8323  0.8552 -0.4937
   35MOL0     C 4618  -1.350  10.773   7.292  0.0527  0.2917 -0.2833
   35MOL0     C 4619  -1.263  10.993   7.192 -0.3493  0.8742  0.5770
   35MOL0     C 4620  -1.382  11.068   7.220  0.2645 -0.8961  0.2467
   35MOL0     O 4621  -1.431  11.143   7.123 -0.0945  0.1042  0.2758
   35MOL0     C 4622  -1.548  11.221   7.131  0.6211 -0.1463  0.1340
   35MOL0     C 4623  -1.548  11.330   7.214  0.0824 -0.1754 -0.9793
   35MOL0     C 4624  -1.648  11.423   7.203  0.2172 -0.2674 -0.3840
   35MOL0     C 4625  -1.766  11.413   7.121 -0.4779  0.0631  0.6289
   35MOL0     O 4626  -1.868  11.509   7.105 -0.0399 -0.4773  0.1052
   35MOL0     C 4627  -1.968  11.513   7.199  0.3620 -0.4471  0.1550
   35MOL0     C 4628  -2.105  11.515   7.132 -0.7766  1.3429  0.1083
   35MOL0     C 4629  -2.138  11.377   7.061 -0.2637 -0.5631  0.8942
   35MOL0     C 4630  -2.287  11.358   7.033  0.2399 -0.6662 -0.5316
   35MOL0     C 4631  -2.376  11.349   7.157  0.3082 -0.8655 -0.7731
   35MOL0     C 4632  -2.518  11.312   7.124  0.8296 -0.3635  0.6489
   35MOL0     C 4633  -2.623  11.341   7.237 -0.3135  0.0162  0.6610
   35MOL0     C 4634  -2.771  11.339   7.202 -0.8318  0.7571 -0.1521
   35MOL0    Cl 4635  -2.818  11.173   7.149  0.2874  0.2667 -0.0936
   35MOL0     C 4636  -1.761  11.299   7.038 -0.0874  0.5059 -0.1543
   35MOL0     C 4637  -1.645  11.213   7.033  0.8726  0.5167 -1.7646
   35MOL0     O 4638  -1.433  11.058   7.330  0.5379  0.5449  0.1859
   35MOL0     C 4639  -1.169  11.064   7.115  0.9687  0.7638  1.5129
   35MOL0     C 4640  -1.046  11.007   7.090  0.1919 -0.5654  0.1300
   35MOL0     N 4641  -0.368  10.929   6.781  0.8161 -0.0917  0.5567
   35MOL0     N 4642  -0.249  10.973   6.736  0.2545 -0.3546 -0.3039
   35MOL0     C 4643   0.915  10.424   6.718  0.8773 -0.1665  0.0312
   35MOL0     C 4644   1.045  10.403   6.756  0.5398  0.0332  0.2450
   35MOL0     C 4645   1.416  10.429   7.052 -0.6649 -0.4830 -0.8831
   35MOL0     C 4646   1.463  10.298   7.047 -0.1515 -0.5212 -0.2924
   35MOL0     C 4647   1.570  10.245   7.115 -0.3200 -0.4398 -0.3971
   35MOL0     C 4648   1.655  10.324   7.194  0.4327 -0.4418  0.4701
   35MOL0     O 4649   1.758  10.266   7.264  0.5975 -0.2039 -0.4687
   35MOL0     C 4650   1.794  10.320   7.390 -0.2714  0.1006 -0.7611
   35MOL0     C 4651   1.715  10.259   7.509  0.5129  0.8682  1.1002
   35MOL0     C 4652   1.679  10.105   7.516 -1.2222 -0.2190 -0.3776
   35MOL0     C 4653   1.792  10.021   7.447 -0.2344  1.0339  1.2813
   35MOL0     C 4654   1.920  10.036   7.520 -0.5623 -0.3061 -0.2622
   35MOL0     C 4655   2.030  10.057   7.577  0.8889 -0.0695 -1.2145
   35MOL0     C 4656   1.618  10.464   7.204  0.5024  0.3429 -1.0444
   35MOL0     C 4657   1.492  10.507   7.147  0.0622  0.3743 -0.1435
   35MOL0     H 4658   1.017  10.483   7.086  1.4114  4.4179 -1.8570
   35MOL0     H 4659   0.789  10.540   7.017  1.1449 -1.1941  0.7488
   35MOL0     H 4660   0.750  10.641   6.626  0.4466 -3.2880  0.7377
   35MOL0     H 4661   0.584  10.638   6.658  0.2596  0.1861 -0.8073
   35MOL0     H 4662   0.776  10.736   6.873 -1.4164 -2.7866  1.0172
   35MOL0     H 4663   0.711  10.845   6.750  1.2358  0.8399  1.0532
   35MOL0     H 4664   0.524  10.670   6.908 -0.7824  0.1506  0.0407
   35MOL0     H 4665   0.583  10.815   6.988 -2.9414  0.0567  0.5266
   35MOL0     H 4666   0.511  10.956   6.813  6.9163 -1.4472 -1.1448
   35MOL0     H 4667   0.452  10.822   6.711 -0.7527  2.5405  0.5873
   35MOL0     H 4668   0.293  10.746   6.880 -1.7275  0.5705  1.5182
   35MOL0     H 4669   0.344  10.872   6.992  0.3565  0.7871  0.1960
   35MOL0     H 4670   0.242  11.051   6.881 -0.5113 -0.7993  1.0844
   35MOL0     H 4671   0.231  10.969   6.734  0.5059  1.7914  1.0877
   35MOL0     H 4672   0.062  10.810   6.848 -0.2759  1.3851 -3.4125
   35MOL0     H 4673   0.087  10.912   6.994 -0.8530 -1.0911  0.1539
   35MOL0     H 4674   0.004  11.049   6.732  1.2705  2.9902  1.5804
   35MOL0     H 4675  -0.010  11.109   6.897 -0.8865 -0.5303  0.4884
   35MOL0     H 4676  -0.189  10.949   7.051  1.4797 -0.3542 -0.2423
   35MOL0     H 4677  -0.443  10.862   7.095  1.7939 -0.1184 -0.2667
   35MOL0     H 4678  -0.527  11.008   7.025 -1.7359 -0.9882  1.5988
   35MOL0     H 4679  -0.524  10.722   6.898  1.6431  1.4345  0.7271
   35MOL0     H 4680  -0.617  10.853   6.844 -1.0381 -2.5722 -1.5143
   35MOL0     H 4681  -0.648  10.737   7.132  0.2938  0.0655  0.1443
   35MOL0     H 4682  -0.738  10.682   6.986  2.0823  0.3588 -3.0152
   35MOL0     H 4683  -0.831  10.909   6.947  1.1093 -3.5091 -3.3238
   35MOL0     H 4684  -0.765  10.949   7.117  1.6738 -3.9340  3.5566
   35MOL0     H 4685  -1.084  10.709   7.255  0.0563  0.0969 -0.1335
   35MOL0     H 4686  -1.439  10.786   7.229  0.5093 -0.1868 -1.0427
   35MOL0     H 4687  -1.343  10.664   7.286 -1.2231  0.2672 -2.4961
   35MOL0     H 4688  -1.370  10.808   7.393  2.0063  2.2093 -0.4869
   35MOL0     H 4689  -1.465  11.349   7.281 -1.0509  0.8376  0.1775
   35MOL0     H 4690  -1.626  11.506   7.270 -3.5111 -0.3005  1.1423
   35MOL0     H 4691  -1.959  11.428   7.268  1.1169  0.1000  0.7478
   35MOL0     H 4692  -1.969  11.603   7.261 -0.1157 -1.0405  1.0492
   35MOL0     H 4693  -2.181  11.536   7.207  1.0293  0.5817  2.2763
   35MOL0     H 4694  -2.116  11.599   7.062 -1.0310  1.2144 -0.0037
   35MOL0     H 4695  -2.108  11.290   7.120 -2.1090 -0.7832  1.5766
   35MOL0     H 4696  -2.089  11.368   6.963 -0.3036  1.5905  0.6434
   35MOL0     H 4697  -2.321  11.431   6.959  1.1202 -0.6651 -0.9529
   35MOL0     H 4698  -2.317  11.263   6.989  0.0750 -0.7507 -0.2357
   35MOL0     H 4699  -2.369  11.442   7.213  3.8647 -1.8251  0.6638
   35MOL0     H 4700  -2.335  11.270   7.221 -1.2733 -1.6394 -0.6574
   35MOL0     H 4701  -2.542  11.369   7.034  1.9170  0.6647  0.9836
   35MOL0     H 4702  -2.537  11.207   7.097  2.8947 -0.8252  0.8306
   35MOL0     H 4703  -2.600  11.442   7.273  0.9707 -0.4902  1.3065
   35MOL0     H 4704  -2.600  11.279   7.324 -0.6994 -1.5512 -0.3100
   35MOL0     H 4705  -2.805  11.404   7.121 -1.1417 -1.9076 -2.3014
   35MOL0     H 4706  -2.835  11.356   7.289  0.0460  2.4592  0.2028
   35MOL0     H 4707  -1.849  11.277   6.978 -0.4888  1.0755  0.2184
   35MOL0     H 4708  -1.641  11.124   6.971 -1.3102 -0.4317 -0.6751
   35MOL0     H 4709  -1.183  11.161   7.068 -0.6604  0.0965  0.5368
   35MOL0     H 4710  -0.963  11.063   7.047  1.0044 -0.1573  2.0909
   35MOL0     H 4711   0.887  10.413   6.613  0.9136 -1.1317  0.1228
   35MOL0     H 4712   1.113  10.356   6.686 -0.5026  1.5870 -1.8964
   35MOL0     H 4713   1.396  10.229   6.996 -2.0224 -1.1260  2.7449
   35MOL0     H 4714   1.573  10.136   7.118 -0.8612 -0.4738 -0.9172
   35MOL0     H 4715   1.900  10.304   7.411 -0.8294  0.9584  3.8060
   35MOL0     H 4716   1.785  10.429   7.392  0.6440  0.1866 -0.8847
   35MOL0     H 4717   1.622  10.317   7.515 -1.5220 -2.1245  0.6731
   35MOL0     H 4718   1.760  10.292   7.603 -1.3188 -0.7735  2.6249
   35MOL0     H 4719   1.582  10.088   7.468  0.5542 -1.2246 -3.9767
   35MOL0     H 4720   1.669  10.067   7.618 -0.2407  0.6158  0.0351
   35MOL0     H 4721   1.799  10.055   7.344 -1.1665  1.8190  1.4619
   35MOL0     H 4722   1.767   9.915   7.458 -2.3264  1.5281  1.8187
   35MOL0     H 4723   2.126  10.074   7.620 -0.1633 -0.5654  1.5192
   35MOL0     H 4724   1.674  10.541   7.257  2.6160 -0.7182 -1.6338
   35MOL0     H 4725   1.466  10.612   7.157 -0.7565  0.2943 -1.2573
   36MOL0     O 4726   2.148   8.568   9.872 -0.7645 -0.5364  0.0739
   36MOL0     C 4727   2.170   8.475   9.944  0.7249  0.5016 -0.1853
   36MOL0     O 4728   2.078   8.406  10.020  0.0813 -0.6780 -0.5421
   36MOL0     C 4729   1.946   8.450  10.001 -0.2283  0.4559 -0.4827
   36MOL0     C 4730   1.903   8.572  10.060  0.3350 -0.2319  0.1279
   36MOL0     C 4731   1.765   8.613  10.052  0.0738  0.0105  0.5074
   36MOL0     C 4732   1.669   8.523   9.988 -0.5300 -0.6628 -0.4632
   36MOL0     O 4733   1.543   8.566  10.000  0.7735  0.5009  0.4998
   36MOL0     C 4734   1.443   8.457   9.984 -0.5597 -0.5277 -1.0969
   36MOL0     C 4735   1.305   8.518   9.994 -0.9278 -0.4554 -0.3630
   36MOL0     C 4736   1.189   8.411   9.998 -0.5071 -0.2773 -0.1148
   36MOL0     C 4737   1.065   8.492  10.034  0.7120 -0.1953  0.3072
   36MOL0     C 4738   0.931   8.414  10.041  0.0773  0.3409 -1.1229
   36MOL0     C 4739   0.805   8.498  10.069  1.0232 -0.2572 -1.0084
   36MOL0     C 4740   0.669   8.433  10.098  0.2748  0.1786  0.5070
   36MOL0     C 4741   0.571   8.556  10.123 -0.0324 -0.9625  0.1884
   36MOL0     N 4742   0.469   8.510  10.216 -0.1220 -0.0905 -0.0774
   36MOL0     C 4743   0.431   8.592  10.318  0.6177  0.7192  0.6550
   36MOL0     C 4744   0.323   8.537  10.364 -0.1475 -0.0964 -0.0442
   36MOL0     C 4745   0.251   8.595  10.478  0.0296  0.3515 -0.7479
   36MOL0     C 4746   0.122   8.666  10.422 -0.7012 -0.1418  0.6553
   36MOL0     C 4747   0.037   8.733  10.532  0.0884  0.7731 -0.4150
   36MOL0     C 4748  -0.022   8.631  10.634 -0.6453  0.1160  0.9097
   36MOL0     O 4749  -0.144   8.685  10.700  0.3423 -0.1628  0.0795
   36MOL0     C 4750  -0.217   8.597  10.772  0.0647  0.5809 -0.3521
   36MOL0     C 4751  -0.349   8.626  10.800 -0.6178 -0.0732 -1.0160
   36MOL0     C 4752  -0.451   8.541  10.856  0.2259  0.0327  0.6687
   36MOL0     C 4753  -0.592   8.587  10.864 -0.3517  0.4602 -0.0491
   36MOL0     C 4754  -0.405   8.413  10.890  0.0162 -0.0343 -0.5745
   36MOL0     C 4755  -0.486   8.300  10.936 -1.2718 -0.3475 -0.5732
   36MOL0     O 4756  -0.611   8.329  10.974 -0.0872 -0.1233 -0.5888
   36MOL0     C 4757  -0.713   8.240  10.950  0.1208  0.5289  0.6350
   36MOL0     C 4758  -0.842   8.258  11.008 -0.5818 -0.2764  0.5577
   36MOL0     C 4759  -0.960   8.171  10.982 -0.6459 -0.1655  0.1179
   36MOL0     C 4760  -0.943   8.069  10.891 -0.2639  0.4539 -0.1925
   36MOL0     O 4761  -1.052   7.995  10.858  1.2539  0.1814  0.1717
   36MOL0     C 4762  -1.044   7.890  10.760 -0.2412 -0.6909 -0.0362
   36MOL0     C 4763  -1.172   7.807  10.779  0.0031  1.2461  0.5058
   36MOL0     C 4764  -1.294   7.881  10.722  0.2016 -0.0389 -0.3122
   36MOL0     C 4765  -1.428   7.820  10.772 -0.0665  0.5145 -0.8420
   36MOL0     C 4766  -1.539   7.882  10.692  0.2423  0.7461 -0.5204
   36MOL0     C 4767  -1.674   7.827  10.741  0.0520  0.3137  0.7565
   36MOL0     C 4768  -1.793   7.910  10.680 -0.3944  1.1638  0.2573
   36MOL0     C 4769  -1.824   7.868  10.540 -0.9512  1.3468  0.7308
   36MOL0    Cl 4770  -1.904   7.708  10.554  0.2405 -0.0076  0.1972
   36MOL0     C 4771  -0.816   8.045  10.837  0.3171  0.3724  0.4550
   36MOL0     C 4772  -0.710   8.127  10.865 -0.4653 -0.5423  0.4770
   36MOL0     O 4773  -0.428   8.189  10.937 -0.2411 -0.8186 -0.6413
   36MOL0     C 4774  -0.262   8.385  10.877 -0.6719 -0.5287 -0.0888
   36MOL0     C 4775  -0.176   8.463  10.807 -0.0493 -0.8837  0.7669
   36MOL0     N 4776   0.295   8.415  10.298  0.4770  0.6427 -0.4207
   36MOL0     N 4777   0.387   8.404  10.210 -0.7896 -0.6854 -0.6715
   36MOL0     C 4778   1.722   8.399   9.947 -1.1419  0.7954  1.0948
   36MOL0     C 4779   1.855   8.359   9.945 -0.1208  0.0670 -0.2622
   36MOL0     C 4780   2.307   8.417   9.949 -0.5358  0.6498 -0.9397
   36MOL0     C 4781   2.330   8.318  10.043  0.2552 -0.2024 -0.5319
   36MOL0     C 4782   2.462   8.269  10.057 -0.8201  0.0358 -0.1679
   36MOL0     C 4783   2.566   8.306   9.969 -0.1686 -0.2840  0.8468
   36MOL0     O 4784   2.684   8.249  10.001 -0.1698 -0.3273 -0.4099
   36MOL0     C 4785   2.813   8.297   9.949  0.4014 -0.5101 -0.0916
   36MOL0     C 4786   2.848   8.414  10.035 -0.4982 -0.1811  0.4533
   36MOL0     C 4787   2.983   8.465  10.002  0.7966  0.4237 -0.2010
   36MOL0     C 4788   2.995   8.615  10.028 -0.0301 -0.2152  0.4057
   36MOL0     C 4789   3.136   8.663  10.041 -0.0386  0.8521  0.7592
   36MOL0     C 4790   3.249   8.708  10.051  0.5866  0.0071 -0.2812
   36MOL0     C 4791   2.542   8.407   9.872  0.4926 -0.0986 -0.3499
   36MOL0     C 4792   2.410   8.463   9.873 -0.3567  0.8864  0.0928
   36MOL0     H 4793   1.978   8.640  10.099 -0.2024  0.5880 -0.2507
   36MOL0     H 4794   1.742   8.716  10.077  1.0349  0.5468 -0.6959
   36MOL0     H 4795   1.464   8.403   9.891 -0.1607 -3.1489  0.4052
   36MOL0     H 4796   1.462   8.384  10.064 -0.1595 -0.8617 -1.4951
   36MOL0     H 4797   1.302   8.590  10.076  1.1575 -0.1314 -0.5114
   36MOL0     H 4798   1.300   8.581   9.905  0.1505 -1.8792 -1.4855
   36MOL0     H 4799   1.178   8.369   9.898 -1.1273 -1.6348  0.5037
   36MOL0     H 4800   1.197   8.327  10.067  0.4251  0.6678  0.9610
   36MOL0     H 4801   1.075   8.536  10.133  2.0956  0.2179  0.0054
   36MOL0     H 4802   1.052   8.573   9.961  1.2580 -1.3369 -1.1077
   36MOL0     H 4803   0.914   8.360   9.948 -1.5573  0.8597 -1.1606
   36MOL0     H 4804   0.953   8.340  10.119  1.7324  0.3910 -1.4989
   36MOL0     H 4805   0.834   8.561  10.153  2.3767 -1.1931 -0.7389
   36MOL0     H 4806   0.795   8.564   9.982 -0.9897 -0.2552 -0.8076
   36MOL0     H 4807   0.648   8.367  10.013  1.9839  0.0021  0.1884
   36MOL0     H 4808   0.668   8.368  10.186 -1.4017 -0.9762 -0.3150
   36MOL0     H 4809   0.524   8.580  10.027  1.0300  1.5188  0.2155
   36MOL0     H 4810   0.627   8.644  10.157 -0.8717  0.1306 -1.1605
   36MOL0     H 4811   0.482   8.678  10.360 -0.5689  1.8136 -0.0464
   36MOL0     H 4812   0.227   8.519  10.553 -1.7945  0.3284 -1.3115
   36MOL0     H 4813   0.310   8.669  10.533  0.9089 -0.4048 -0.6558
   36MOL0     H 4814   0.055   8.598  10.369 -0.8564  1.0874 -0.7829
   36MOL0     H 4815   0.153   8.737  10.346 -1.1961 -1.7874 -1.1698
   36MOL0     H 4816  -0.054   8.780  10.492 -0.4008  1.8565  1.8123
   36MOL0     H 4817   0.103   8.810  10.574  2.2669 -0.0119 -2.2273
   36MOL0     H 4818   0.048   8.627  10.718 -2.2436 -0.4738  2.2646
   36MOL0     H 4819  -0.037   8.536  10.583  1.4211  1.2084 -1.9751
   36MOL0     H 4820  -0.386   8.725  10.773 -0.9218 -0.1414 -0.8533
   36MOL0     H 4821  -0.599   8.666  10.788  0.2273  0.1416 -0.4390
   36MOL0     H 4822  -0.656   8.504  10.832 -0.2450  1.0763 -2.0394
   36MOL0     H 4823  -0.606   8.626  10.965  2.1225  1.3935 -0.0018
   36MOL0     H 4824  -0.850   8.347  11.070 -2.9682 -1.3714  1.9808
   36MOL0     H 4825  -1.054   8.205  11.026  1.6628  4.2475  2.3285
   36MOL0     H 4826  -1.034   7.943  10.665  2.6827  0.8924  1.0286
   36MOL0     H 4827  -0.958   7.824  10.777 -0.0046 -0.4468 -0.2887
   36MOL0     H 4828  -1.148   7.713  10.729 -0.8619 -0.3031  2.8292
   36MOL0     H 4829  -1.188   7.775  10.883  0.9360 -3.5942 -0.5671
   36MOL0     H 4830  -1.287   7.876  10.613  3.5264  1.3492 -0.2943
   36MOL0     H 4831  -1.292   7.984  10.759  0.7309 -0.6439  1.4387
   36MOL0     H 4832  -1.422   7.714  10.749  1.5175  0.4467 -0.2181
   36MOL0     H 4833  -1.439   7.838  10.880 -2.8492 -0.9998 -0.7586
   36MOL0     H 4834  -1.525   7.847  10.589 -1.8820  1.7564 -1.2158
   36MOL0     H 4835  -1.539   7.991  10.699  1.6118  0.6544  1.8576
   36MOL0     H 4836  -1.688   7.725  10.702  0.0462  1.2301 -1.8541
   36MOL0     H 4837  -1.682   7.830  10.850  0.6896 -0.3071  0.8334
   36MOL0     H 4838  -1.789   8.016  10.707  1.6497  1.3542 -0.6180
   36MOL0     H 4839  -1.872   7.885  10.752  0.1362  1.5424  0.9795
   36MOL0     H 4840  -1.731   7.834  10.495 -3.3721 -0.0095 -3.9379
   36MOL0     H 4841  -1.886   7.931  10.476 -2.1382 -1.9878 -1.6955
   36MOL0     H 4842  -0.814   7.956  10.775  0.4466 -0.6328  1.8804
   36MOL0     H 4843  -0.616   8.092  10.823 -1.7469 -5.0718  0.9081
   36MOL0     H 4844  -0.231   8.283  10.899 -2.9357 -1.7637 -2.0586
   36MOL0     H 4845  -0.080   8.419  10.782 -0.1874 -0.0673 -1.4514
   36MOL0     H 4846   1.648   8.331   9.907 -1.6204  1.9372 -0.0517
   36MOL0     H 4847   1.898   8.266   9.908  0.2109 -0.4984  1.4504
   36MOL0     H 4848   2.248   8.288  10.107  0.2332  0.4194 -0.2618
   36MOL0     H 4849   2.489   8.201  10.138  0.8933  0.1305 -0.6163
   36MOL0     H 4850   2.882   8.213   9.962  0.9976  0.0192  0.1897
   36MOL0     H 4851   2.804   8.318   9.842 -3.0752  0.6451  0.3199
   36MOL0     H 4852   2.831   8.375  10.136  2.5125 -3.2380 -0.0225
   36MOL0     H 4853   2.783   8.496  10.004  1.4809  2.1103  1.9688
   36MOL0     H 4854   3.010   8.448   9.898  1.6468  0.2859  0.0358
   36MOL0     H 4855   3.054   8.412  10.067 -3.4570 -3.5976  1.6763
   36MOL0     H 4856   2.945   8.645  10.121  2.7166 -1.0948  2.3222
   36MOL0     H 4857   2.959   8.671   9.941 -1.4280 -2.2444 -0.3734
   36MOL0     H 4858   3.352   8.733  10.070  0.3687 -0.4793  1.7963
   36MOL0     H 4859   2.628   8.426   9.810  1.9464 -0.7500  1.3774
   36MOL0     H 4860   2.390   8.546   9.807 -0.7955 -0.3635 -1.4034
   37MOL0     O 4861   6.752   9.961   7.813 -0.0254  0.0137 -0.2641
   37MOL0     C 4862   6.782   9.852   7.765 -0.0642 -0.1928 -0.1005
   37MOL0     O 4863   6.693   9.747   7.733 -0.0679 -0.3272 -0.3153
   37MOL0     C 4864   6.570   9.739   7.792 -0.1321 -0.0175  0.3892
   37MOL0     C 4865   6.488   9.639   7.738  0.3799 -0.2034 -0.6552
   37MOL0     C 4866   6.368   9.596   7.796 -0.2433 -0.3019  0.0202
   37MOL0     C 4867   6.317   9.674   7.908 -0.0327  0.3711  0.7669
   37MOL0     O 4868   6.187   9.656   7.963 -0.6296  0.4078  0.5707
   37MOL0     C 4869   6.154   9.695   8.097 -0.0242 -0.6321 -0.2018
   37MOL0     C 4870   6.034   9.602   8.133 -0.3432 -0.4579  0.7176
   37MOL0     C 4871   5.949   9.658   8.242  0.4923 -0.2165  0.6253
   37MOL0     C 4872   5.841   9.551   8.280 -0.3547 -0.0176 -0.0631
   37MOL0     C 4873   5.729   9.602   8.366 -0.3410  0.0994 -0.0500
   37MOL0     C 4874   5.641   9.482   8.416 -0.0244  0.2116 -0.1361
   37MOL0     C 4875   5.528   9.520   8.508  0.2309  0.0018  0.1692
   37MOL0     C 4876   5.569   9.548   8.654 -0.0455 -1.5385 -0.4270
   37MOL0     N 4877   5.610   9.425   8.723  0.3546  0.2896  0.2091
   37MOL0     C 4878   5.537   9.334   8.798  0.0990  0.4105  0.7427
   37MOL0     C 4879   5.620   9.236   8.838 -0.2158 -0.0999  0.0229
   37MOL0     C 4880   5.589   9.109   8.910  0.2854  0.0901  0.3203
   37MOL0     C 4881   5.456   9.049   8.883 -0.1787 -0.3299 -0.3851
   37MOL0     C 4882   5.427   8.936   8.990  0.5113 -0.3862 -0.0562
   37MOL0     C 4883   5.303   8.866   8.951 -0.0265  0.6943 -0.0208
   37MOL0     O 4884   5.201   8.963   8.956 -0.1507 -0.2387  0.6679
   37MOL0     C 4885   5.070   8.917   8.937 -0.0730 -0.1118  0.5396
   37MOL0     C 4886   5.044   8.815   8.845 -0.1592  0.2197 -0.0244
   37MOL0     C 4887   4.917   8.761   8.838  0.6219 -1.3210 -0.6305
   37MOL0     C 4888   4.893   8.656   8.736  0.7040  0.2593  0.6040
   37MOL0     C 4889   4.808   8.800   8.925 -0.9752 -0.5085  0.4682
   37MOL0     C 4890   4.675   8.748   8.919  0.1161 -0.5519  1.0842
   37MOL0     O 4891   4.565   8.839   8.914  0.3661 -0.1787 -0.5106
   37MOL0     C 4892   4.445   8.791   8.951 -0.8746  0.4498 -0.9344
   37MOL0     C 4893   4.410   8.704   9.052 -0.1623 -0.0873 -0.3741
   37MOL0     C 4894   4.270   8.678   9.078 -0.0025  0.2086 -0.7074
   37MOL0     C 4895   4.169   8.726   8.983  0.2491  0.2718 -0.6324
   37MOL0     O 4896   4.035   8.695   8.999  0.2665  0.4240  0.1701
   37MOL0     C 4897   3.988   8.681   9.133  0.1732 -0.1185 -0.6097
   37MOL0     C 4898   3.837   8.717   9.129 -0.2237  0.3147 -0.5675
   37MOL0     C 4899   3.742   8.626   9.041  0.5227 -0.2295 -0.4340
   37MOL0     C 4900   3.602   8.693   9.028  0.6081  0.0825  0.8401
   37MOL0     C 4901   3.518   8.603   8.931 -0.4676  0.5910  0.0895
   37MOL0     C 4902   3.387   8.664   8.895 -0.2877 -0.0969 -0.0600
   37MOL0     C 4903   3.319   8.606   8.763 -0.2030  0.9987 -0.1461
   37MOL0     C 4904   3.172   8.649   8.746  1.0576  0.4157  0.4908
   37MOL0    Cl 4905   3.100   8.571   8.599  0.2599  0.1695  0.1561
   37MOL0     C 4906   4.211   8.822   8.884  0.2455 -0.5256 -0.0216
   37MOL0     C 4907   4.342   8.850   8.873  0.4413  0.5368  0.1282
   37MOL0     O 4908   4.663   8.627   8.916 -0.0678  0.1084 -0.1468
   37MOL0     C 4909   4.839   8.908   9.018 -0.2031 -0.2956  0.0404
   37MOL0     C 4910   4.968   8.966   9.022 -0.1564  0.0018 -0.1446
   37MOL0     N 4911   5.747   9.278   8.805  0.2631  0.3067 -0.0614
   37MOL0     N 4912   5.744   9.385   8.745  0.6719 -0.5164  0.3408
   37MOL0     C 4913   6.387   9.781   7.953 -0.1817  0.0278  0.3584
   37MOL0     C 4914   6.513   9.814   7.898 -0.3863  0.3414  0.1837
   37MOL0     C 4915   6.924   9.832   7.741 -0.6347 -0.7351  0.4450
   37MOL0     C 4916   6.974   9.705   7.716  0.1125 -0.5945  0.2286
   37MOL0     C 4917   7.109   9.682   7.693  0.9844  0.2825  0.4226
   37MOL0     C 4918   7.203   9.786   7.677 -0.2929  0.1656 -0.2903
   37MOL0     O 4919   7.332   9.757   7.630 -0.0496  0.3663 -0.0518
   37MOL0     C 4920   7.421   9.864   7.590  0.2461  0.1192  0.4693
   37MOL0     C 4921   7.573   9.820   7.584  0.2595  0.8288  0.0604
   37MOL0     C 4922   7.584   9.737   7.457  0.1007  0.4559 -0.0912
   37MOL0     C 4923   7.720   9.668   7.451  0.1493 -0.8621  0.2768
   37MOL0     C 4924   7.838   9.756   7.437  0.6280 -0.2968 -1.0797
   37MOL0     C 4925   7.937   9.829   7.412 -0.2143  0.4384  0.7669
   37MOL0     C 4926   7.150   9.923   7.691 -0.1380 -0.1551 -0.5106
   37MOL0     C 4927   7.014   9.945   7.729  0.5063  0.4960  0.3035
   37MOL0     H 4928   6.532   9.584   7.656 -1.9564 -0.8397 -1.5590
   37MOL0     H 4929   6.302   9.517   7.761 -0.8194  0.0062  0.3951
   37MOL0     H 4930   6.233   9.697   8.172  1.5045 -0.2458 -1.7556
   37MOL0     H 4931   6.118   9.798   8.096  0.7557 -0.2058  3.3569
   37MOL0     H 4932   5.965   9.590   8.049  0.2343  0.5407  0.0961
   37MOL0     H 4933   6.066   9.501   8.161  1.0310 -1.6385 -4.1282
   37MOL0     H 4934   6.014   9.676   8.329 -0.6835 -0.5557  1.6009
   37MOL0     H 4935   5.895   9.746   8.206 -0.4282 -1.7332 -1.9885
   37MOL0     H 4936   5.800   9.518   8.184  3.0839 -0.3923 -1.5514
   37MOL0     H 4937   5.882   9.463   8.330 -2.5612 -0.4257  1.1470
   37MOL0     H 4938   5.771   9.649   8.455 -1.5892  2.7543 -0.7713
   37MOL0     H 4939   5.665   9.676   8.317  0.0258  1.6879  1.7577
   37MOL0     H 4940   5.582   9.449   8.329 -0.2129 -3.4001  1.2139
   37MOL0     H 4941   5.706   9.403   8.454  1.5404  0.4975 -2.0411
   37MOL0     H 4942   5.484   9.605   8.455 -0.7065 -0.8351 -0.4272
   37MOL0     H 4943   5.465   9.431   8.512 -0.5885  0.5378 -0.4125
   37MOL0     H 4944   5.489   9.593   8.712  1.6680  1.2319 -0.0309
   37MOL0     H 4945   5.646   9.626   8.653 -1.9425  0.4112 -1.5128
   37MOL0     H 4946   5.429   9.326   8.808 -0.0676 -1.3756 -1.6926
   37MOL0     H 4947   5.674   9.046   8.884  0.1497  0.6710 -1.6728
   37MOL0     H 4948   5.595   9.122   9.019 -4.4432 -0.7146  0.8851
   37MOL0     H 4949   5.468   9.011   8.781 -0.3019  1.1703 -0.9895
   37MOL0     H 4950   5.367   9.112   8.884 -2.4087 -3.2880  0.4577
   37MOL0     H 4951   5.402   8.983   9.085 -1.8203 -1.7643  0.0936
   37MOL0     H 4952   5.510   8.867   9.009  0.0973 -0.9257 -0.1852
   37MOL0     H 4953   5.292   8.784   9.022  2.7866  0.3242  0.1179
   37MOL0     H 4954   5.318   8.829   8.849  0.9198 -1.8370  0.9403
   37MOL0     H 4955   5.119   8.793   8.770  2.0946  2.4424  1.4051
   37MOL0     H 4956   4.873   8.557   8.778 -1.9772  0.8070  0.7551
   37MOL0     H 4957   4.809   8.677   8.670 -0.1370 -3.5204  0.2496
   37MOL0     H 4958   4.985   8.641   8.678  0.3021 -0.0010  0.0280
   37MOL0     H 4959   4.493   8.674   9.114 -0.9129  0.1414  0.7719
   37MOL0     H 4960   4.225   8.617   9.156 -1.3600  0.2540 -1.4275
   37MOL0     H 4961   3.999   8.575   9.158  1.2823 -0.9502 -4.0617
   37MOL0     H 4962   4.045   8.745   9.200  0.5338 -0.3445 -0.6976
   37MOL0     H 4963   3.806   8.729   9.233  0.6543  1.4406 -0.4193
   37MOL0     H 4964   3.837   8.813   9.077 -0.5623 -0.4530 -2.0445
   37MOL0     H 4965   3.726   8.530   9.091  1.2958  0.0796  0.4289
   37MOL0     H 4966   3.777   8.611   8.938 -0.5400 -0.8202 -0.7243
   37MOL0     H 4967   3.545   8.703   9.121 -1.0458  1.7942 -0.2874
   37MOL0     H 4968   3.607   8.792   8.981 -0.3535 -0.3947 -0.3161
   37MOL0     H 4969   3.501   8.504   8.974  1.0600  0.8581  1.3786
   37MOL0     H 4970   3.575   8.592   8.838 -0.5499 -1.6804  0.2356
   37MOL0     H 4971   3.326   8.656   8.985  1.0506 -0.3765  0.8494
   37MOL0     H 4972   3.405   8.772   8.887  0.3780 -0.1199  1.0396
   37MOL0     H 4973   3.322   8.497   8.757  3.6890  1.0204 -1.6719
   37MOL0     H 4974   3.378   8.641   8.678 -1.3072  0.6971 -1.0583
   37MOL0     H 4975   3.162   8.757   8.735 -0.4205  0.2002 -0.5374
   37MOL0     H 4976   3.109   8.619   8.830  0.4864 -0.1462 -0.1289
   37MOL0     H 4977   4.140   8.874   8.821 -0.1630  1.0084  1.6247
   37MOL0     H 4978   4.371   8.926   8.802 -1.4092 -0.4664 -1.8071
   37MOL0     H 4979   4.759   8.949   9.079  0.4723  0.4270  0.4605
   37MOL0     H 4980   4.988   9.050   9.088 -0.8503  1.1539 -1.3286
   37MOL0     H 4981   6.360   9.849   8.033  2.2705 -0.0010  1.2894
   37MOL0     H 4982   6.568   9.901   7.932 -0.7557  0.1020  1.4418
   37MOL0     H 4983   6.908   9.618   7.719 -2.0832  1.0140  2.2950
   37MOL0     H 4984   7.147   9.582   7.670 -0.6042 -0.2252 -0.1696
   37MOL0     H 4985   7.386   9.912   7.498  0.9696 -3.4767 -1.8605
   37MOL0     H 4986   7.420   9.935   7.674 -0.1626  1.4437 -0.6166
   37MOL0     H 4987   7.600   9.765   7.674  1.2297  0.3098 -0.5331
   37MOL0     H 4988   7.644   9.903   7.577  2.4564 -1.0478 -0.9824
   37MOL0     H 4989   7.562   9.794   7.367  2.1982  0.2542 -0.7978
   37MOL0     H 4990   7.514   9.653   7.463  0.1287  0.5277  2.2231
   37MOL0     H 4991   7.714   9.595   7.370  0.3467 -2.0240  1.2727
   37MOL0     H 4992   7.728   9.608   7.542 -0.0136 -1.9553 -0.4036
   37MOL0     H 4993   8.025   9.889   7.417 -0.7370  1.3686 -0.5731
   37MOL0     H 4994   7.206  10.015   7.677 -0.7480  0.5176  1.2361
   37MOL0     H 4995   6.980  10.048   7.736 -1.4130 -0.0574 -0.2431
   38MOL0     O 4996   2.058   9.402   0.085 -0.1327  0.0514  0.0593
   38MOL0     C 4997   2.086   9.341  -0.014  0.9892  0.6368 -0.6184
   38MOL0     O 4998   2.005   9.245  -0.072 -0.4077 -0.1134  0.3590
   38MOL0     C 4999   1.870   9.241  -0.043 -1.5485 -0.1665  0.1072
   38MOL0     C 5000   1.798   9.362  -0.047  0.3130  0.5221  0.7390
   38MOL0     C 5001   1.654   9.358  -0.050 -0.2337  0.1039 -0.3684
   38MOL0     C 5002   1.580   9.243  -0.041 -0.4457 -0.1989 -0.6214
   38MOL0     O 5003   1.447   9.258  -0.044  0.2888  0.5301 -0.4553
   38MOL0     C 5004   1.369   9.139  -0.024 -0.1646  0.3800 -0.6294
   38MOL0     C 5005   1.216   9.180  -0.026  0.5871  0.1973  0.9087
   38MOL0     C 5006   1.127   9.056  -0.013  0.3811 -0.2451  0.0084
   38MOL0     C 5007   0.989   9.107  -0.037  0.5058  0.0362 -0.1453
   38MOL0     C 5008   0.904   8.982  -0.005  0.5298 -0.9891 -0.0964
   38MOL0     C 5009   0.757   9.021  -0.004 -0.4418  0.1895  0.5128
   38MOL0     C 5010   0.660   8.926   0.058 -0.3855 -0.4434  0.6288
   38MOL0     C 5011   0.679   8.888   0.212  0.2486  0.2019  0.3585
   38MOL0     N 5012   0.579   8.789   0.249  0.2351  0.5418 -0.1187
   38MOL0     C 5013   0.444   8.799   0.281 -0.4236  1.0025 -0.4583
   38MOL0     C 5014   0.388   8.680   0.291 -0.2102  0.3257 -1.1107
   38MOL0     C 5015   0.242   8.638   0.310 -0.9659  0.0106 -0.5597
   38MOL0     C 5016   0.184   8.663   0.169  0.5214 -0.1805 -0.7632
   38MOL0     C 5017   0.029   8.637   0.160 -0.4867  0.4015 -0.8098
   38MOL0     C 5018  -0.058   8.706   0.261 -0.1713 -0.4664  0.9750
   38MOL0     O 5019  -0.194   8.702   0.211  0.0968 -0.5077  0.8392
   38MOL0     C 5020  -0.298   8.704   0.302 -0.1198 -0.3699 -0.9101
   38MOL0     C 5021  -0.295   8.707   0.443 -0.2904  0.1778  0.3593
   38MOL0     C 5022  -0.415   8.720   0.524 -0.0300 -0.4067 -0.1926
   38MOL0     C 5023  -0.399   8.734   0.672 -1.1765  1.0321 -0.1685
   38MOL0     C 5024  -0.539   8.736   0.463  1.0032  0.3057 -0.4859
   38MOL0     C 5025  -0.676   8.758   0.527 -0.9767  0.4591 -0.0680
   38MOL0     O 5026  -0.793   8.775   0.446 -0.6766  0.1973  0.5524
   38MOL0     C 5027  -0.923   8.770   0.492 -0.4379 -0.0217 -0.3619
   38MOL0     C 5028  -0.969   8.717   0.613  0.3251 -0.4999 -0.6068
   38MOL0     C 5029  -1.111   8.720   0.644 -0.4180 -0.2591  0.2459
   38MOL0     C 5030  -1.199   8.796   0.562 -0.5726  0.3567 -0.1709
   38MOL0     O 5031  -1.326   8.808   0.603 -0.4487  0.6478  0.2924
   38MOL0     C 5032  -1.407   8.908   0.542  0.5079  0.0935  0.0942
   38MOL0     C 5033  -1.539   8.894   0.622 -0.2472  0.2936  0.1613
   38MOL0     C 5034  -1.618   8.771   0.603  0.5491  0.2537  0.7118
   38MOL0     C 5035  -1.697   8.789   0.473  0.0904  1.6250  0.3862
   38MOL0     C 5036  -1.760   8.655   0.436  0.8037  0.3420 -0.0559
   38MOL0     C 5037  -1.875   8.616   0.522  0.3193 -0.0504 -0.0689
   38MOL0     C 5038  -1.952   8.500   0.459  0.0891  0.7171  0.3572
   38MOL0     C 5039  -2.046   8.424   0.553 -0.1437  0.4050  0.3020
   38MOL0    Cl 5040  -2.169   8.527   0.614  0.2569 -0.2308 -0.4515
   38MOL0     C 5041  -1.148   8.840   0.437 -0.8563  0.6997 -0.2843
   38MOL0     C 5042  -1.011   8.816   0.400 -0.5407  0.5949  0.1157
   38MOL0     O 5043  -0.676   8.747   0.648 -0.2065  0.1753  0.2499
   38MOL0     C 5044  -0.541   8.718   0.323  0.2621 -0.1778 -0.7792
   38MOL0     C 5045  -0.426   8.697   0.252 -0.2247 -0.1541 -0.1156
   38MOL0     N 5046   0.492   8.588   0.272  0.0036 -0.0352  0.5609
   38MOL0     N 5047   0.610   8.653   0.273  0.1785 -0.3087  0.2230
   38MOL0     C 5048   1.656   9.124  -0.020 -0.3074 -0.6679 -0.2789
   38MOL0     C 5049   1.794   9.129  -0.023  0.2551  1.3084 -0.5663
   38MOL0     C 5050   2.224   9.353  -0.069  0.3235  0.5552 -1.1966
   38MOL0     C 5051   2.314   9.432  -0.001 -0.7523 -0.6012  0.8001
   38MOL0     C 5052   2.446   9.424  -0.046  0.1736 -0.1710 -0.3064
   38MOL0     C 5053   2.484   9.350  -0.159 -1.4765 -0.3322  0.1320
   38MOL0     O 5054   2.611   9.336  -0.220 -0.3486  0.4649 -0.2150
   38MOL0     C 5055   2.722   9.384  -0.141 -0.2932  0.3756  0.3267
   38MOL0     C 5056   2.782   9.509  -0.212 -1.3489  0.8218 -0.3327
   38MOL0     C 5057   2.896   9.569  -0.131  0.0701 -0.2811  0.2453
   38MOL0     C 5058   2.977   9.685  -0.198  0.5378  1.0126  0.3797
   38MOL0     C 5059   3.064   9.624  -0.302 -0.1583 -0.0674 -0.0448
   38MOL0     C 5060   3.135   9.569  -0.371 -0.2595  0.0519  0.0828
   38MOL0     C 5061   2.386   9.272  -0.221  0.5515 -0.4125 -0.0872
   38MOL0     C 5062   2.255   9.279  -0.177 -0.7865 -0.1746  0.9434
   38MOL0     H 5063   1.843   9.461  -0.044  1.3995  0.0348  3.1803
   38MOL0     H 5064   1.593   9.448  -0.060 -2.8708 -1.5516 -0.1750
   38MOL0     H 5065   1.391   9.071  -0.107 -0.5497  0.2264 -0.6097
   38MOL0     H 5066   1.394   9.092   0.072  0.2024  1.0127 -0.4084
   38MOL0     H 5067   1.192   9.244   0.060  0.3288  1.8682 -0.3420
   38MOL0     H 5068   1.195   9.236  -0.118 -2.2890  2.9292  2.9842
   38MOL0     H 5069   1.163   8.984  -0.088  2.6686  0.9525 -0.1270
   38MOL0     H 5070   1.132   9.013   0.087 -2.1708 -0.3475  0.1645
   38MOL0     H 5071   0.961   9.195   0.021  2.7006 -0.4685  1.7953
   38MOL0     H 5072   0.973   9.132  -0.143  0.2609  1.6911  0.2500
   38MOL0     H 5073   0.923   8.904  -0.080 -2.1969 -1.9986  0.1582
   38MOL0     H 5074   0.923   8.939   0.094  1.0955  0.2416  0.3482
   38MOL0     H 5075   0.742   9.113   0.054 -4.7153 -1.6477  2.8604
   38MOL0     H 5076   0.721   9.031  -0.107 -1.3565 -1.9745  0.5703
   38MOL0     H 5077   0.563   8.975   0.041 -1.0435 -1.3598  1.5973
   38MOL0     H 5078   0.657   8.832   0.003 -3.3334 -0.8877  1.3438
   38MOL0     H 5079   0.667   8.978   0.274 -1.2912  1.8089 -2.1222
   38MOL0     H 5080   0.779   8.844   0.225 -0.2158 -2.0128 -2.5059
   38MOL0     H 5081   0.386   8.886   0.311  1.0775  2.1105 -0.6395
   38MOL0     H 5082   0.226   8.537   0.347 -1.5234  0.8910  1.8076
   38MOL0     H 5083   0.190   8.707   0.378  1.9264  1.1600  0.6345
   38MOL0     H 5084   0.238   8.595   0.103  0.6427  0.0250 -0.8786
   38MOL0     H 5085   0.202   8.765   0.133 -2.7782  0.9579  0.4934
   38MOL0     H 5086   0.004   8.531   0.154  0.7006  0.1586 -2.0656
   38MOL0     H 5087   0.002   8.677   0.061 -3.0446  0.0183 -0.3273
   38MOL0     H 5088  -0.021   8.807   0.282  0.1871 -0.3477 -0.1299
   38MOL0     H 5089  -0.059   8.652   0.356 -0.7746  0.3147  1.4312
   38MOL0     H 5090  -0.200   8.697   0.495 -0.5806 -1.0666  0.6797
   38MOL0     H 5091  -0.292   8.735   0.695 -0.8568  6.0731 -0.6642
   38MOL0     H 5092  -0.449   8.824   0.706 -0.7791  1.2757 -0.2169
   38MOL0     H 5093  -0.445   8.651   0.725 -0.5276  0.8622  0.1465
   38MOL0     H 5094  -0.901   8.673   0.685  0.9584  1.0418 -0.2378
   38MOL0     H 5095  -1.150   8.663   0.728 -3.5156 -1.0748 -1.5631
   38MOL0     H 5096  -1.381   9.014   0.551 -2.1318  0.8728 -0.5824
   38MOL0     H 5097  -1.417   8.883   0.436 -1.5322 -0.1306  0.3117
   38MOL0     H 5098  -1.513   8.906   0.728  0.9861  4.0372 -0.4115
   38MOL0     H 5099  -1.607   8.977   0.602  0.9467  1.2815  0.0665
   38MOL0     H 5100  -1.693   8.752   0.680  0.6927 -1.5691  0.4574
   38MOL0     H 5101  -1.551   8.686   0.590  3.1664  2.1884  0.7831
   38MOL0     H 5102  -1.770   8.871   0.472 -0.4321  1.1792  1.1917
   38MOL0     H 5103  -1.622   8.821   0.400  0.1920  3.1879  1.1225
   38MOL0     H 5104  -1.686   8.576   0.450  0.2648 -0.0591  0.5970
   38MOL0     H 5105  -1.796   8.657   0.333  2.1611 -1.4083 -0.6173
   38MOL0     H 5106  -1.837   8.585   0.619 -1.0733 -0.6209  0.3217
   38MOL0     H 5107  -1.945   8.701   0.517  2.9622  2.1773 -2.4818
   38MOL0     H 5108  -1.889   8.422   0.416 -2.2742 -1.2104  0.1506
   38MOL0     H 5109  -2.017   8.545   0.383  1.0236 -2.1708 -2.3383
   38MOL0     H 5110  -1.999   8.378   0.640 -2.4451  2.3451  2.7337
   38MOL0     H 5111  -2.088   8.337   0.500  0.5217 -0.0123  0.4523
   38MOL0     H 5112  -1.215   8.876   0.360 -2.1373 -0.1567  0.4025
   38MOL0     H 5113  -0.967   8.857   0.309  0.9695 -0.4542  0.3268
   38MOL0     H 5114  -0.628   8.720   0.257  0.2645 -0.5479 -0.7935
   38MOL0     H 5115  -0.429   8.690   0.144  2.7510 -1.0090 -0.2372
   38MOL0     H 5116   1.618   9.024  -0.002  1.0890 -1.8579 -3.3385
   38MOL0     H 5117   1.844   9.033  -0.026 -0.7376  0.7666 -0.1445
   38MOL0     H 5118   2.285   9.490   0.086  0.5761  0.0512  0.8233
   38MOL0     H 5119   2.517   9.487   0.006  0.5726 -0.5377 -0.4076
   38MOL0     H 5120   2.693   9.406  -0.038 -2.0851  3.4446 -0.6895
   38MOL0     H 5121   2.794   9.302  -0.137 -0.7914 -0.4231 -3.5245
   38MOL0     H 5122   2.704   9.582  -0.233 -0.5083  2.8687  2.9478
   38MOL0     H 5123   2.829   9.469  -0.302  1.1702  1.0272  0.8158
   38MOL0     H 5124   2.964   9.485  -0.110 -0.2722 -0.0022  2.9191
   38MOL0     H 5125   2.855   9.600  -0.035  0.3171  0.5085  0.1010
   38MOL0     H 5126   3.036   9.746  -0.129  0.9429  0.1599  0.8053
   38MOL0     H 5127   2.910   9.757  -0.245  0.3045  0.4320 -0.1978
   38MOL0     H 5128   3.211   9.512  -0.421  1.6869  1.4828  1.2332
   38MOL0     H 5129   2.392   9.200  -0.302 -1.0395  0.4330 -0.9955
   38MOL0     H 5130   2.176   9.223  -0.226 -0.3799 -0.4703  0.6152
   39MOL0     O 5131   3.437   9.909   9.173 -0.0451 -0.5931  0.3463
   39MOL0     C 5132   3.520   9.969   9.110 -0.0328 -0.6249  0.6206
   39MOL0     O 5133   3.496  10.041   9.001 -1.0134 -0.3553  0.1370
   39MOL0     C 5134   3.381  10.056   8.933 -0.3341  0.8143  0.3240
   39MOL0     C 5135   3.378  10.176   8.869  0.0543 -0.3037 -0.4409
   39MOL0     C 5136   3.269  10.213   8.785  0.2483  0.6336  0.0117
   39MOL0     C 5137   3.150  10.131   8.781 -0.3286 -0.0586  0.1157
   39MOL0     O 5138   3.051  10.160   8.693  0.1105 -0.0182  0.4905
   39MOL0     C 5139   2.972  10.059   8.641  0.3207  0.4653 -0.6452
   39MOL0     C 5140   2.859  10.098   8.554  0.6510 -0.1660  0.2582
   39MOL0     C 5141   2.734  10.137   8.634  0.5776 -0.4281  0.1022
   39MOL0     C 5142   2.637  10.226   8.554  0.2066  0.0501  0.4650
   39MOL0     C 5143   2.526  10.264   8.657 -0.7896 -0.6267 -0.0846
   39MOL0     C 5144   2.417  10.343   8.588 -1.2333  0.3221 -0.0416
   39MOL0     C 5145   2.308  10.392   8.674  0.0664  0.5703 -0.4552
   39MOL0     C 5146   2.190  10.435   8.594  0.1661  0.8077 -0.2140
   39MOL0     N 5147   2.123  10.331   8.510 -0.1837 -0.1234 -0.1430
   39MOL0     C 5148   2.028  10.250   8.556  0.2310 -1.0431 -0.1158
   39MOL0     C 5149   1.960  10.205   8.454  0.1728  1.0654  0.2785
   39MOL0     C 5150   1.843  10.111   8.472  0.1629  0.6178 -0.1725
   39MOL0     C 5151   1.711  10.171   8.428 -0.0907  0.7386 -0.6270
   39MOL0     C 5152   1.603  10.060   8.461 -0.5842 -0.1512  0.5258
   39MOL0     C 5153   1.450  10.107   8.454 -0.2614  0.2783 -0.1940
   39MOL0     O 5154   1.433  10.172   8.326 -0.2965  0.0386 -0.0991
   39MOL0     C 5155   1.310  10.176   8.270 -0.3390 -0.3995 -0.0575
   39MOL0     C 5156   1.309  10.161   8.133  0.1684  0.3343 -0.5150
   39MOL0     C 5157   1.191  10.168   8.059  0.5845  0.0185 -0.1519
   39MOL0     C 5158   1.197  10.154   7.913  0.6907 -0.0363 -0.2085
   39MOL0     C 5159   1.068  10.186   8.124  0.1768  0.6565  0.2648
   39MOL0     C 5160   0.938  10.203   8.057  1.4700 -0.1377 -0.0725
   39MOL0     O 5161   0.859  10.300   8.113 -0.1277 -0.6576  0.1742
   39MOL0     C 5162   0.729  10.304   8.068  0.0920 -0.0312 -0.1038
   39MOL0     C 5163   0.636  10.249   8.157  0.9955 -1.0222 -0.0375
   39MOL0     C 5164   0.499  10.268   8.138 -0.1315 -0.2993 -0.9166
   39MOL0     C 5165   0.448  10.346   8.036 -0.7896 -0.3161  1.1900
   39MOL0     O 5166   0.312  10.362   8.025  0.5865  0.0713 -0.1293
   39MOL0     C 5167   0.266  10.444   7.912 -0.6066  0.8660 -0.0601
   39MOL0     C 5168   0.107  10.432   7.898  0.3388 -0.2543  0.1479
   39MOL0     C 5169   0.031  10.530   7.994  0.0129 -0.8699  0.5878
   39MOL0     C 5170  -0.121  10.499   7.975 -0.7684  0.1527  0.1181
   39MOL0     C 5171  -0.213  10.577   8.073  0.0391  0.0225  0.0805
   39MOL0     C 5172  -0.367  10.551   8.031 -0.0209  0.7007 -0.3714
   39MOL0     C 5173  -0.457  10.618   8.133  0.3810  0.2412  0.5531
   39MOL0     C 5174  -0.603  10.568   8.106 -0.2908  0.7142 -0.3361
   39MOL0    Cl 5175  -0.713  10.622   8.234 -0.1836  0.5901 -0.2962
   39MOL0     C 5176   0.545  10.399   7.941  0.4738  0.3876  0.3092
   39MOL0     C 5177   0.683  10.382   7.964 -0.6848 -0.0814  0.2512
   39MOL0     O 5178   0.907  10.138   7.952  0.1146  0.4801  0.0263
   39MOL0     C 5179   1.073  10.202   8.262  1.1537 -0.1218  1.1344
   39MOL0     C 5180   1.189  10.202   8.331  0.1473 -0.1161 -0.3438
   39MOL0     N 5181   2.014  10.267   8.340  0.2108 -1.3083 -0.2098
   39MOL0     N 5182   2.109  10.353   8.372 -0.3652 -0.1877 -0.1907
   39MOL0     C 5183   3.154   9.999   8.842 -0.2061  0.1258 -0.2970
   39MOL0     C 5184   3.267   9.965   8.923 -0.1871 -0.2416 -1.2594
   39MOL0     C 5185   3.661   9.960   9.147 -0.4705  0.1948  0.0531
   39MOL0     C 5186   3.689   9.907   9.275  0.9817  0.7574 -0.6223
   39MOL0     C 5187   3.824   9.910   9.324 -0.4954 -0.7668  0.2086
   39MOL0     C 5188   3.926   9.970   9.249 -0.1590  0.0115 -0.7635
   39MOL0     O 5189   4.050   9.967   9.314 -0.0482 -0.0097  0.1002
   39MOL0     C 5190   4.163  10.009   9.240 -0.3226 -0.1472 -0.4320
   39MOL0     C 5191   4.282  10.011   9.336 -0.0009 -0.2398 -0.1238
   39MOL0     C 5192   4.411  10.053   9.264 -0.1657 -0.9951  0.0598
   39MOL0     C 5193   4.541  10.061   9.346  0.5380  0.0784 -0.2712
   39MOL0     C 5194   4.561   9.942   9.439 -0.7354 -0.1581  0.2879
   39MOL0     C 5195   4.578   9.840   9.489 -0.2257  0.5396 -0.8134
   39MOL0     C 5196   3.896  10.026   9.127 -0.6946  0.1151 -0.2180
   39MOL0     C 5197   3.766  10.026   9.074  0.4805  0.6427  0.0904
   39MOL0     H 5198   3.455  10.253   8.873  1.0512 -1.3182  0.5594
   39MOL0     H 5199   3.276  10.303   8.725 -0.2082  0.5808 -0.1276
   39MOL0     H 5200   3.033   9.996   8.575  0.5274  0.6866 -0.6649
   39MOL0     H 5201   2.930  10.000   8.723  1.0440 -1.7515 -1.7870
   39MOL0     H 5202   2.890  10.180   8.490 -0.4938  1.3741  1.5866
   39MOL0     H 5203   2.829  10.007   8.501 -2.0081  0.7349  0.1033
   39MOL0     H 5204   2.683  10.057   8.689  1.0192 -0.5203  0.3868
   39MOL0     H 5205   2.771  10.204   8.713 -1.5703  0.4190  0.4750
   39MOL0     H 5206   2.690  10.310   8.508  3.0275 -3.0201 -2.4860
   39MOL0     H 5207   2.598  10.161   8.475  1.5213 -0.7905  0.4732
   39MOL0     H 5208   2.488  10.179   8.716  2.4491 -2.3692 -0.2685
   39MOL0     H 5209   2.579  10.334   8.722  0.4765 -3.0463  1.6634
   39MOL0     H 5210   2.467  10.431   8.547  1.5931 -1.6775 -1.1671
   39MOL0     H 5211   2.373  10.286   8.506 -1.1558  1.6573 -1.0559
   39MOL0     H 5212   2.284  10.317   8.751  1.2638 -0.8299 -1.3827
   39MOL0     H 5213   2.349  10.479   8.725 -4.3418  1.2671  2.4893
   39MOL0     H 5214   2.218  10.514   8.524  1.5502 -0.9218 -1.7236
   39MOL0     H 5215   2.118  10.471   8.669 -0.9510 -2.1674  0.2791
   39MOL0     H 5216   2.016  10.226   8.661 -0.8003  2.8311  0.8020
   39MOL0     H 5217   1.869  10.019   8.419  0.7299  1.0682 -0.6890
   39MOL0     H 5218   1.825  10.094   8.579 -0.9248 -0.3682 -0.4914
   39MOL0     H 5219   1.707  10.203   8.324 -0.8478  0.8605 -0.5635
   39MOL0     H 5220   1.695  10.252   8.500 -1.0552 -0.3834  0.4742
   39MOL0     H 5221   1.621  10.016   8.560 -1.5002 -0.5189  0.5424
   39MOL0     H 5222   1.613   9.975   8.393  2.6860 -2.7598  3.8010
   39MOL0     H 5223   1.410  10.166   8.537 -1.2939  2.2301 -1.9776
   39MOL0     H 5224   1.379  10.024   8.450 -1.0728  1.0039 -1.1703
   39MOL0     H 5225   1.392  10.131   8.070  0.8521 -0.2268  0.6133
   39MOL0     H 5226   1.174  10.240   7.849 -1.1100 -1.2803 -1.3169
   39MOL0     H 5227   1.302  10.141   7.887  0.8988  1.8985 -0.5205
   39MOL0     H 5228   1.131  10.069   7.894 -0.1483  0.8307 -1.3518
   39MOL0     H 5229   0.672  10.209   8.251 -1.3547 -0.4426  1.1825
   39MOL0     H 5230   0.425  10.224   8.204  1.9473 -0.9998  1.0585
   39MOL0     H 5231   0.289  10.549   7.933 -0.6887  0.9435 -0.3552
   39MOL0     H 5232   0.307  10.403   7.820  3.5972  3.5532  0.3652
   39MOL0     H 5233   0.068  10.447   7.797 -2.6612  1.4593  1.4282
   39MOL0     H 5234   0.074  10.335   7.934  1.4021  0.2862  2.7986
   39MOL0     H 5235   0.051  10.637   7.980 -0.3721 -0.3971  3.0898
   39MOL0     H 5236   0.063  10.501   8.095  1.3472  0.5494  0.6062
   39MOL0     H 5237  -0.160  10.526   7.877 -4.6814 -0.2238  1.3928
   39MOL0     H 5238  -0.127  10.390   7.989  1.8113 -0.1665 -0.9005
   39MOL0     H 5239  -0.184  10.681   8.055  2.9544 -0.9198 -1.2566
   39MOL0     H 5240  -0.197  10.565   8.180 -0.7086  2.2641  0.4814
   39MOL0     H 5241  -0.384  10.604   7.936  0.6408 -2.7588 -2.5830
   39MOL0     H 5242  -0.394  10.446   8.023  1.5418  0.0673  1.8068
   39MOL0     H 5243  -0.448  10.727   8.129  2.2020  0.0873 -2.3037
   39MOL0     H 5244  -0.410  10.589   8.227 -0.2960 -0.2580  0.7467
   39MOL0     H 5245  -0.593  10.461   8.126 -0.9877  0.8824  1.0557
   39MOL0     H 5246  -0.639  10.589   8.005 -2.9482  1.6961  0.7250
   39MOL0     H 5247   0.530  10.463   7.855  2.2090  3.6312  2.2000
   39MOL0     H 5248   0.759  10.429   7.903  0.9618  0.1775  2.3759
   39MOL0     H 5249   0.979  10.226   8.312 -0.5990 -0.2623 -1.8574
   39MOL0     H 5250   1.182  10.227   8.437  1.6441 -0.7887 -0.0571
   39MOL0     H 5251   3.075   9.925   8.840  0.3511 -0.5702  1.3987
   39MOL0     H 5252   3.269   9.874   8.983  2.1790 -0.4860 -1.6219
   39MOL0     H 5253   3.612   9.882   9.347  0.2634  0.0999 -1.5830
   39MOL0     H 5254   3.857   9.868   9.418 -0.1325  4.8283  2.9829
   39MOL0     H 5255   4.188   9.941   9.158 -3.9021 -2.2229 -0.0069
   39MOL0     H 5256   4.150  10.110   9.199  0.5405  1.6981  3.3621
   39MOL0     H 5257   4.289   9.908   9.373 -1.1124 -0.6890 -1.0969
   39MOL0     H 5258   4.262  10.076   9.421 -3.0225  0.3835 -1.1612
   39MOL0     H 5259   4.397  10.152   9.219  1.6474 -1.3142 -1.3220
   39MOL0     H 5260   4.427   9.973   9.192 -2.8179 -0.5832 -1.1172
   39MOL0     H 5261   4.538  10.149   9.410  0.9104 -0.1873  0.1186
   39MOL0     H 5262   4.626  10.073   9.278  1.2314 -1.6313  0.2337
   39MOL0     H 5263   4.608   9.758   9.551  1.0074  0.4775 -1.4654
   39MOL0     H 5264   3.965  10.074   9.059 -3.2240  4.3953 -0.1743
   39MOL0     H 5265   3.747  10.073   8.978 -1.7389 -1.9075 -0.8745
   40MOL0     O 5266   1.710   7.189   3.808 -0.5219 -0.7123 -0.2925
   40MOL0     C 5267   1.736   7.300   3.864  0.9684 -1.6307 -0.0945
   40MOL0     O 5268   1.645   7.405   3.876 -0.2033  0.6387 -0.0238
   40MOL0     C 5269   1.511   7.382   3.877 -0.1638 -0.0708  0.2872
   40MOL0     C 5270   1.446   7.254   3.881 -0.2477  0.0062  0.2044
   40MOL0     C 5271   1.308   7.244   3.869  0.1018 -0.1280 -0.1346
   40MOL0     C 5272   1.224   7.358   3.851  0.3071 -0.4571 -0.0009
   40MOL0     O 5273   1.089   7.355   3.830  0.6533 -0.4494  0.1193
   40MOL0     C 5274   1.020   7.232   3.841 -0.1550 -0.1551 -0.0012
   40MOL0     C 5275   0.875   7.267   3.860  0.1320 -0.0468  0.3324
   40MOL0     C 5276   0.779   7.152   3.901 -0.5830 -0.1177 -0.3162
   40MOL0     C 5277   0.761   7.043   3.804  0.3689  0.3909  1.4005
   40MOL0     C 5278   0.655   6.939   3.826  0.2887  0.2349 -0.1967
   40MOL0     C 5279   0.507   6.984   3.810 -0.1798  1.0728  0.3213
   40MOL0     C 5280   0.472   7.059   3.681  0.3791  0.5411  0.0568
   40MOL0     C 5281   0.326   7.077   3.661 -0.1428  0.0693 -0.6055
   40MOL0     N 5282   0.249   7.147   3.770 -0.3629  0.5010 -0.3158
   40MOL0     C 5283   0.236   7.283   3.768 -0.7117  0.0657 -0.7924
   40MOL0     C 5284   0.135   7.318   3.851 -0.8199  1.1224 -0.4090
   40MOL0     C 5285   0.093   7.460   3.903  0.1509  0.0059  0.8205
   40MOL0     C 5286  -0.030   7.521   3.834  0.0613  0.3119  0.9785
   40MOL0     C 5287  -0.165   7.476   3.901  0.8824 -0.1690  0.5406
   40MOL0     C 5288  -0.302   7.511   3.825 -0.7484  0.1732 -0.7508
   40MOL0     O 5289  -0.321   7.453   3.697 -0.1893 -0.1053 -0.4229
   40MOL0     C 5290  -0.440   7.479   3.628 -0.2563  0.2494 -0.1662
   40MOL0     C 5291  -0.434   7.415   3.506  0.6211 -0.0711  0.2198
   40MOL0     C 5292  -0.549   7.414   3.426  1.0574 -0.0312 -0.3103
   40MOL0     C 5293  -0.542   7.348   3.288 -0.2752 -0.3999  0.5947
   40MOL0     C 5294  -0.666   7.473   3.475 -0.1250 -0.3721  0.1570
   40MOL0     C 5295  -0.799   7.466   3.412  0.1137 -0.7347  0.3161
   40MOL0     O 5296  -0.903   7.434   3.486  0.6413 -0.3113  0.2247
   40MOL0     C 5297  -1.005   7.390   3.396 -0.3615  0.6906 -0.5337
   40MOL0     C 5298  -0.998   7.259   3.344 -0.0362  0.1120  0.3956
   40MOL0     C 5299  -1.096   7.205   3.258 -0.3887  0.2680 -0.0513
   40MOL0     C 5300  -1.206   7.288   3.223 -0.3982  0.1780  0.1707
   40MOL0     O 5301  -1.290   7.234   3.136 -0.0111  0.0663 -0.0024
   40MOL0     C 5302  -1.414   7.300   3.096 -0.0006  0.1813  0.4152
   40MOL0     C 5303  -1.504   7.288   3.222  0.9279 -0.9784  0.0202
   40MOL0     C 5304  -1.647   7.316   3.189  0.3544 -0.9968 -0.8426
   40MOL0     C 5305  -1.740   7.270   3.303 -0.8331  0.1366 -0.3059
   40MOL0     C 5306  -1.880   7.285   3.267 -0.5835  0.7590 -1.1121
   40MOL0     C 5307  -1.974   7.226   3.365 -0.6609 -1.2079 -0.0354
   40MOL0     C 5308  -2.117   7.276   3.342 -0.2523  0.7036 -1.1235
   40MOL0     C 5309  -2.191   7.215   3.459  0.3905  1.2559 -0.4584
   40MOL0    Cl 5310  -2.347   7.314   3.465  0.1043 -0.3169  0.1229
   40MOL0     C 5311  -1.207   7.417   3.283 -0.7077 -0.1751 -0.1847
   40MOL0     C 5312  -1.108   7.462   3.364  0.8566 -0.2771  0.0507
   40MOL0     O 5313  -0.791   7.509   3.301  0.6337  0.1736 -0.0088
   40MOL0     C 5314  -0.665   7.538   3.599  0.2282  0.1990  0.2544
   40MOL0     C 5315  -0.552   7.539   3.672 -0.1566 -0.6523 -0.0685
   40MOL0     N 5316   0.073   7.196   3.885 -0.5763 -0.0776 -0.7794
   40MOL0     N 5317   0.157   7.095   3.853 -0.3041 -0.8538 -0.2054
   40MOL0     C 5318   1.296   7.481   3.827 -0.4545 -0.5628  0.1518
   40MOL0     C 5319   1.434   7.495   3.846  0.9838  0.3114 -0.5114
   40MOL0     C 5320   1.874   7.329   3.902  0.7736 -0.3383 -1.0139
   40MOL0     C 5321   1.917   7.456   3.937  0.1202  0.5882  0.3561
   40MOL0     C 5322   2.042   7.476   3.979 -0.1460 -0.4401 -0.1787
   40MOL0     C 5323   2.133   7.369   3.991  0.2657  0.0174 -0.9156
   40MOL0     O 5324   2.255   7.383   4.052 -0.4790 -0.4390  0.5203
   40MOL0     C 5325   2.332   7.273   4.097 -0.2381 -0.3655  0.0584
   40MOL0     C 5326   2.468   7.331   4.147  0.1543 -0.2664  0.3214
   40MOL0     C 5327   2.554   7.398   4.038 -0.0644 -0.5427 -0.4390
   40MOL0     C 5328   2.693   7.416   4.107  0.1763  0.1476  0.5218
   40MOL0     C 5329   2.688   7.512   4.221 -0.6355 -0.2966 -0.2864
   40MOL0     C 5330   2.668   7.593   4.312 -0.4526  0.1213  0.0575
   40MOL0     C 5331   2.095   7.240   3.952  0.1976 -0.6242 -0.3101
   40MOL0     C 5332   1.964   7.219   3.909 -0.8353 -0.3370  0.5511
   40MOL0     H 5333   1.498   7.160   3.902  0.0964 -0.0522 -0.8135
   40MOL0     H 5334   1.263   7.147   3.887 -0.2244 -0.1655 -1.0935
   40MOL0     H 5335   1.024   7.157   3.761 -0.0851 -1.5553  1.2798
   40MOL0     H 5336   1.045   7.180   3.934  0.8265  1.1263  0.4784
   40MOL0     H 5337   0.869   7.340   3.942 -1.0466  1.5728 -1.1230
   40MOL0     H 5338   0.837   7.328   3.778  1.9732  0.0794 -0.4809
   40MOL0     H 5339   0.818   7.101   3.989  0.5564  0.0034 -0.7289
   40MOL0     H 5340   0.687   7.201   3.935  0.9353  1.8036  1.3649
   40MOL0     H 5341   0.736   7.079   3.703  1.0549  1.0748  1.4641
   40MOL0     H 5342   0.849   6.978   3.806 -0.1373 -0.4028 -0.2231
   40MOL0     H 5343   0.672   6.859   3.753 -0.3489  0.5268 -0.6720
   40MOL0     H 5344   0.667   6.895   3.925 -0.4830  2.5034  0.9695
   40MOL0     H 5345   0.444   6.896   3.828  2.1648 -0.1039  3.8435
   40MOL0     H 5346   0.477   7.059   3.885 -0.6936  1.8727 -0.6453
   40MOL0     H 5347   0.521   7.156   3.694  1.4727  0.0320 -0.0602
   40MOL0     H 5348   0.509   7.003   3.594  1.5110 -0.7393  1.2918
   40MOL0     H 5349   0.274   6.982   3.643 -0.7411  0.6281 -1.9356
   40MOL0     H 5350   0.303   7.126   3.566 -1.4492  3.1714  1.1755
   40MOL0     H 5351   0.287   7.362   3.714  2.2856 -1.5426 -0.5751
   40MOL0     H 5352   0.062   7.443   4.006  4.9342  0.8537  2.6479
   40MOL0     H 5353   0.179   7.525   3.921 -0.3282  0.8409  0.1791
   40MOL0     H 5354  -0.017   7.491   3.729  1.8197  1.9885  0.6455
   40MOL0     H 5355  -0.025   7.631   3.836 -0.7007  0.3561  0.8689
   40MOL0     H 5356  -0.176   7.526   3.998 -0.4614  1.1178 -0.2377
   40MOL0     H 5357  -0.158   7.367   3.915  1.3491 -0.4393 -1.4944
   40MOL0     H 5358  -0.301   7.620   3.820  0.2582  0.2599  0.7263
   40MOL0     H 5359  -0.392   7.499   3.886 -0.1624 -0.6217 -0.0333
   40MOL0     H 5360  -0.347   7.365   3.464  0.7384  0.5309 -0.2727
   40MOL0     H 5361  -0.441   7.312   3.267 -1.3619 -2.0922 -2.4075
   40MOL0     H 5362  -0.617   7.268   3.289 -1.8100  0.9804  2.2959
   40MOL0     H 5363  -0.565   7.422   3.211 -2.0922 -1.2799  0.2317
   40MOL0     H 5364  -0.915   7.195   3.373 -1.3009 -1.9403 -0.2680
   40MOL0     H 5365  -1.083   7.114   3.202  1.4739 -0.8893  2.1227
   40MOL0     H 5366  -1.397   7.404   3.065 -1.5504 -0.1351 -1.7732
   40MOL0     H 5367  -1.437   7.250   3.002  1.1895 -2.1093  1.2611
   40MOL0     H 5368  -1.488   7.191   3.269 -0.1358 -3.1571 -3.6444
   40MOL0     H 5369  -1.474   7.371   3.287 -0.8498  1.0702 -1.6175
   40MOL0     H 5370  -1.697   7.273   3.101 -5.4800  0.7390  1.1561
   40MOL0     H 5371  -1.665   7.423   3.182 -0.3043 -0.9721  0.7657
   40MOL0     H 5372  -1.729   7.164   3.327 -0.3576  0.0932 -0.6947
   40MOL0     H 5373  -1.726   7.324   3.397 -0.7600 -0.9956  0.3518
   40MOL0     H 5374  -1.905   7.243   3.169 -2.4268  0.1385 -0.4207
   40MOL0     H 5375  -1.904   7.392   3.260 -1.9897  0.6428  0.9606
   40MOL0     H 5376  -1.976   7.117   3.359  1.1114 -1.2570 -0.3895
   40MOL0     H 5377  -1.939   7.263   3.462  1.8795  1.3568 -1.7375
   40MOL0     H 5378  -2.155   7.233   3.249 -2.2707 -2.0183  0.7788
   40MOL0     H 5379  -2.123   7.385   3.338  0.3840  0.7410 -1.0791
   40MOL0     H 5380  -2.140   7.209   3.556 -1.6799 -0.1602  0.5958
   40MOL0     H 5381  -2.219   7.116   3.423  1.3988  1.4104 -1.7476
   40MOL0     H 5382  -1.288   7.487   3.264  0.7605  0.5226 -5.5689
   40MOL0     H 5383  -1.102   7.557   3.416  3.7621  0.2204 -1.0022
   40MOL0     H 5384  -0.755   7.589   3.634  0.4536  0.4443  0.4860
   40MOL0     H 5385  -0.542   7.597   3.763  1.3574  0.9548 -1.1993
   40MOL0     H 5386   1.245   7.566   3.782  0.3250  0.6096  1.4140
   40MOL0     H 5387   1.483   7.591   3.839  0.5912  0.7858  2.1046
   40MOL0     H 5388   1.843   7.536   3.928 -0.2293  0.2659  0.3365
   40MOL0     H 5389   2.072   7.576   4.010  1.3191 -0.5692 -1.0871
   40MOL0     H 5390   2.276   7.214   4.171 -1.3584 -1.4824 -1.6254
   40MOL0     H 5391   2.362   7.205   4.018  2.2834  0.8507 -0.1373
   40MOL0     H 5392   2.516   7.240   4.183 -0.5709 -0.6741  0.2881
   40MOL0     H 5393   2.446   7.397   4.231 -1.2023  0.8848 -0.8725
   40MOL0     H 5394   2.506   7.490   4.003 -0.7502 -1.3844 -1.7925
   40MOL0     H 5395   2.560   7.334   3.950 -1.1465 -1.3700  0.0785
   40MOL0     H 5396   2.763   7.460   4.034 -1.8153  2.2487 -0.2499
   40MOL0     H 5397   2.729   7.320   4.145 -1.4058  1.3171  5.7253
   40MOL0     H 5398   2.662   7.654   4.400 -0.9355  2.8243 -1.7192
   40MOL0     H 5399   2.168   7.160   3.946 -0.1724 -1.2133  1.9606
   40MOL0     H 5400   1.937   7.120   3.875 -0.7569 -0.4015  0.6759
   41MOL0     O 5401   3.723   5.513   9.951 -0.1357  0.3442 -0.9158
   41MOL0     C 5402   3.818   5.556  10.018 -0.6677 -0.2882  1.0789
   41MOL0     O 5403   3.812   5.600  10.144 -0.3254 -0.5952 -0.9258
   41MOL0     C 5404   3.693   5.605  10.220 -0.8157  0.5641  0.2624
   41MOL0     C 5405   3.712   5.662  10.343 -0.3506 -0.3739 -0.0276
   41MOL0     C 5406   3.610   5.687  10.426  0.1467  0.6830  0.7583
   41MOL0     C 5407   3.483   5.651  10.397 -0.9773  0.7161  0.7151
   41MOL0     O 5408   3.378   5.675  10.478  0.4052  0.1892 -0.2012
   41MOL0     C 5409   3.277   5.747  10.403 -0.4119  0.2172  0.1048
   41MOL0     C 5410   3.204   5.839  10.506  0.9001  0.2707  0.7011
   41MOL0     C 5411   3.088   5.922  10.456  0.3292  0.3092  0.5138
   41MOL0     C 5412   3.027   6.007  10.572 -0.0463  0.8466  0.3576
   41MOL0     C 5413   2.931   6.111  10.505 -0.0377  0.1775  0.5508
   41MOL0     C 5414   2.832   6.176  10.595  0.2401  0.8025 -0.7201
   41MOL0     C 5415   2.718   6.085  10.650 -0.5798 -0.2394  0.6644
   41MOL0     C 5416   2.603   6.157  10.719  1.1460 -0.4610  1.0480
   41MOL0     N 5417   2.648   6.257  10.816 -0.2913 -0.3676  0.1846
   41MOL0     C 5418   2.721   6.232  10.930 -0.2941  0.0404  0.5620
   41MOL0     C 5419   2.765   6.353  10.968  0.3176  0.4489  0.3780
   41MOL0     C 5420   2.848   6.387  11.085 -0.6400  0.1416  0.1609
   41MOL0     C 5421   2.751   6.404  11.205  0.3034 -0.6748 -0.6551
   41MOL0     C 5422   2.704   6.278  11.280 -0.2053  0.9605 -0.2798
   41MOL0     C 5423   2.569   6.220  11.233  0.2714 -1.0217  0.1947
   41MOL0     O 5424   2.461   6.319  11.236  0.6535  0.0855 -0.4811
   41MOL0     C 5425   2.349   6.300  11.160 -0.0666  0.0298 -0.1509
   41MOL0     C 5426   2.318   6.198  11.073  0.0446  0.0720 -0.1794
   41MOL0     C 5427   2.197   6.182  10.998 -0.2095  0.4168  0.3353
   41MOL0     C 5428   2.186   6.067  10.908  0.2015  0.3474 -0.3558
   41MOL0     C 5429   2.095   6.278  11.010 -1.2007 -0.6204 -0.1171
   41MOL0     C 5430   1.960   6.269  10.941 -0.8963 -0.7124  0.0888
   41MOL0     O 5431   1.874   6.372  10.968 -0.2571 -0.2441 -0.0994
   41MOL0     C 5432   1.754   6.374  10.908 -0.9530  0.1999 -0.2998
   41MOL0     C 5433   1.716   6.333  10.781 -0.6197 -0.4221 -0.2346
   41MOL0     C 5434   1.586   6.351  10.730  0.6270 -1.1002 -0.1202
   41MOL0     C 5435   1.478   6.411  10.805  0.0908  0.8572  0.1405
   41MOL0     O 5436   1.346   6.426  10.775 -0.1538 -0.0577  1.1380
   41MOL0     C 5437   1.309   6.367  10.653  0.1795  0.0959  0.0881
   41MOL0     C 5438   1.188   6.440  10.606  0.7501  0.3578 -0.6136
   41MOL0     C 5439   1.076   6.408  10.695 -0.2230 -1.5360 -0.7116
   41MOL0     C 5440   0.955   6.482  10.643 -0.6269 -0.3862  0.2252
   41MOL0     C 5441   0.842   6.471  10.740 -1.0304  0.3835 -0.1314
   41MOL0     C 5442   0.730   6.567  10.700  0.1657 -0.6262  0.1403
   41MOL0     C 5443   0.641   6.610  10.817  0.3461 -0.1497 -0.0313
   41MOL0     C 5444   0.586   6.506  10.923  0.4031 -1.1586 -0.2037
   41MOL0    Cl 5445   0.450   6.563  11.020 -0.3373  0.2042  0.2033
   41MOL0     C 5446   1.523   6.460  10.931  0.8295  0.1235 -0.5271
   41MOL0     C 5447   1.650   6.434  10.982 -0.2820 -0.1122  0.6158
   41MOL0     O 5448   1.940   6.175  10.873 -0.0963  0.3717 -0.0627
   41MOL0     C 5449   2.127   6.387  11.099 -0.7848 -0.6475 -0.9279
   41MOL0     C 5450   2.246   6.394  11.178 -0.1184  0.2104 -0.5482
   41MOL0     N 5451   2.728   6.446  10.872  0.7265 -0.5664  0.3699
   41MOL0     N 5452   2.658   6.390  10.780 -0.2670  1.0390  0.2665
   41MOL0     C 5453   3.453   5.589  10.275 -0.2668  0.3566 -0.5179
   41MOL0     C 5454   3.553   5.574  10.180  0.4165  0.7097 -0.1762
   41MOL0     C 5455   3.957   5.558   9.957 -0.5221 -0.7350 -0.2940
   41MOL0     C 5456   3.976   5.525   9.820  0.0756 -0.4241  0.2018
   41MOL0     C 5457   4.103   5.526   9.766  0.1561  0.0862 -0.2511
   41MOL0     C 5458   4.218   5.551   9.844  0.4516  0.2952 -0.6535
   41MOL0     O 5459   4.340   5.538   9.791  0.0065  0.0852 -0.7636
   41MOL0     C 5460   4.461   5.557   9.873  0.3731  0.6944  0.0235
   41MOL0     C 5461   4.585   5.559   9.782  0.9398 -0.7105 -1.2821
   41MOL0     C 5462   4.578   5.677   9.696  1.1291 -0.6439 -0.2094
   41MOL0     C 5463   4.709   5.693   9.610  0.5537  0.1033 -0.2158
   41MOL0     C 5464   4.822   5.742   9.688  0.5478 -0.6601  0.8261
   41MOL0     C 5465   4.923   5.791   9.721 -0.9866  0.3198 -0.8046
   41MOL0     C 5466   4.193   5.583   9.979 -0.2384 -0.1205 -0.4101
   41MOL0     C 5467   4.063   5.594  10.037 -0.5380 -1.0470  0.1684
   41MOL0     H 5468   3.809   5.689  10.385 -0.3795  0.6970 -0.6026
   41MOL0     H 5469   3.639   5.726  10.523  1.0775  2.1486 -0.0793
   41MOL0     H 5470   3.315   5.817  10.328 -0.8874  0.6678  0.2748
   41MOL0     H 5471   3.213   5.674  10.352 -1.7972  1.3374  0.1845
   41MOL0     H 5472   3.173   5.777  10.591  2.7528  0.2092  1.3849
   41MOL0     H 5473   3.283   5.907  10.540 -1.2747  2.1224  2.3437
   41MOL0     H 5474   3.113   5.975  10.364 -1.9679 -2.7613 -2.1008
   41MOL0     H 5475   3.007   5.860  10.418 -0.5380  1.3415  0.6387
   41MOL0     H 5476   2.986   5.935  10.644  0.1681 -0.0582 -0.4035
   41MOL0     H 5477   3.102   6.057  10.634  0.9730  0.3189 -0.4116
   41MOL0     H 5478   2.997   6.181  10.452  0.3307  1.5738  2.7093
   41MOL0     H 5479   2.871   6.061  10.428 -0.2571  1.9778 -0.5253
   41MOL0     H 5480   2.870   6.218  10.689  0.0342  0.2583 -0.3915
   41MOL0     H 5481   2.785   6.254  10.535  0.5876  0.7526 -1.0619
   41MOL0     H 5482   2.673   6.023  10.572 -0.5918  0.1329  0.3710
   41MOL0     H 5483   2.772   6.014  10.714 -0.1940 -0.7708 -0.2325
   41MOL0     H 5484   2.538   6.079  10.760 -0.0830 -0.3600 -0.6206
   41MOL0     H 5485   2.549   6.200  10.634  1.5863  1.0284  1.5036
   41MOL0     H 5486   2.750   6.136  10.972  2.6969  1.0921  1.0838
   41MOL0     H 5487   2.923   6.310  11.104  0.1767  0.7125 -0.6426
   41MOL0     H 5488   2.905   6.478  11.063  0.8555 -0.6076  0.7453
   41MOL0     H 5489   2.676   6.476  11.171  0.0298 -1.0998 -0.9508
   41MOL0     H 5490   2.818   6.457  11.274 -0.5480  0.6468 -0.8103
   41MOL0     H 5491   2.684   6.306  11.383  0.7097  2.6365 -0.5092
   41MOL0     H 5492   2.782   6.202  11.284 -0.4171  0.7958  2.1664
   41MOL0     H 5493   2.541   6.134  11.295 -0.7065 -2.1370 -1.6994
   41MOL0     H 5494   2.580   6.194  11.127 -1.2355 -0.6263 -0.0858
   41MOL0     H 5495   2.387   6.115  11.064 -4.0929 -3.9113  1.0989
   41MOL0     H 5496   2.176   6.109  10.808 -5.8426  1.0058  0.1639
   41MOL0     H 5497   2.271   5.999  10.919 -0.0131  0.3525  1.7819
   41MOL0     H 5498   2.098   6.006  10.930  0.1849  0.8782  1.2246
   41MOL0     H 5499   1.777   6.277  10.710  1.8729 -0.4918  1.7939
   41MOL0     H 5500   1.579   6.306  10.631 -1.6699 -1.8345  0.3257
   41MOL0     H 5501   1.384   6.373  10.574  0.2650 -0.3055  0.1343
   41MOL0     H 5502   1.282   6.263  10.672  0.6788 -0.1014 -0.2460
   41MOL0     H 5503   1.206   6.547  10.592 -2.1072  1.0573  0.4295
   41MOL0     H 5504   1.160   6.391  10.512 -2.5422  3.6843 -1.6332
   41MOL0     H 5505   1.101   6.440  10.796 -2.3150 -2.9586  0.3155
   41MOL0     H 5506   1.066   6.299  10.698 -0.2337 -1.5618 -1.4167
   41MOL0     H 5507   0.979   6.589  10.633 -0.5016 -0.1453  2.6342
   41MOL0     H 5508   0.934   6.432  10.548  0.7425  1.0959 -0.9354
   41MOL0     H 5509   0.883   6.500  10.837  1.7531 -0.2533 -1.0382
   41MOL0     H 5510   0.809   6.367  10.743 -0.0772  0.0958  0.6205
   41MOL0     H 5511   0.761   6.659  10.650  1.9801 -1.7805 -0.9919
   41MOL0     H 5512   0.668   6.512  10.628  0.3628 -1.2012  0.4095
   41MOL0     H 5513   0.556   6.645  10.757  1.6234 -0.1606 -1.9089
   41MOL0     H 5514   0.702   6.689  10.860  0.1785  1.0349 -1.8577
   41MOL0     H 5515   0.673   6.478  10.983  2.5332  3.4859 -0.7057
   41MOL0     H 5516   0.553   6.425  10.857 -2.6817 -2.1074  2.2675
   41MOL0     H 5517   1.442   6.510  10.984 -0.1614 -1.0771 -0.8619
   41MOL0     H 5518   1.675   6.471  11.081 -0.1214 -1.0172  0.9185
   41MOL0     H 5519   2.047   6.457  11.122 -0.3973 -0.3699 -0.3997
   41MOL0     H 5520   2.257   6.483  11.239 -1.4309  1.2163 -1.7306
   41MOL0     H 5521   3.354   5.548  10.254  0.7146 -3.6176  1.5888
   41MOL0     H 5522   3.540   5.516  10.089 -0.1070  1.5611 -0.6504
   41MOL0     H 5523   3.889   5.494   9.762 -2.2364 -0.7502  3.5950
   41MOL0     H 5524   4.117   5.500   9.662 -0.1808 -0.0313 -0.2666
   41MOL0     H 5525   4.458   5.648   9.934  1.3270 -0.0353  1.1876
   41MOL0     H 5526   4.462   5.476   9.946 -4.1215  2.5876  2.6553
   41MOL0     H 5527   4.590   5.462   9.732 -0.1911 -2.6771  2.0734
   41MOL0     H 5528   4.678   5.566   9.839  1.0907 -0.3438 -1.5677
   41MOL0     H 5529   4.570   5.770   9.752  0.0059  1.6104 -3.7589
   41MOL0     H 5530   4.496   5.669   9.624  2.4261  2.6071 -2.2798
   41MOL0     H 5531   4.682   5.742   9.516  1.1517  0.5031 -0.1784
   41MOL0     H 5532   4.741   5.596   9.569 -1.0233  0.4702 -2.5322
   41MOL0     H 5533   5.005   5.842   9.767  0.5452 -1.4179 -1.4721
   41MOL0     H 5534   4.276   5.598  10.047  1.3773 -1.2521 -2.0555
   41MOL0     H 5535   4.061   5.627  10.140  1.3358  0.9802 -0.3478
   42MOL0     O 5536   2.367   5.151   6.799 -0.1035  0.1052  0.4013
   42MOL0     C 5537   2.480   5.110   6.787  0.0904  0.8129  0.6824
   42MOL0     O 5538   2.508   4.979   6.754  0.7952 -0.5651 -0.0141
   42MOL0     C 5539   2.400   4.903   6.714 -0.2563  0.5160  0.7327
   42MOL0     C 5540   2.377   4.865   6.585  0.3213 -0.4878  0.5312
   42MOL0     C 5541   2.261   4.794   6.546  0.2308 -0.1097  0.6163
   42MOL0     C 5542   2.163   4.770   6.638  0.0002  0.0857 -0.7008
   42MOL0     O 5543   2.059   4.691   6.602 -0.1357  0.1025 -0.3695
   42MOL0     C 5544   1.984   4.619   6.703 -0.5199 -0.3011 -0.0537
   42MOL0     C 5545   1.877   4.528   6.632  0.2924  0.7337 -0.3825
   42MOL0     C 5546   1.776   4.607   6.558  0.4768 -0.9402 -0.4946
   42MOL0     C 5547   1.663   4.520   6.500 -0.8502  0.1760 -0.0493
   42MOL0     C 5548   1.554   4.609   6.452  0.8420 -0.8754 -0.1411
   42MOL0     C 5549   1.440   4.527   6.391 -0.1338  0.1136  0.4912
   42MOL0     C 5550   1.329   4.622   6.330  0.2577  0.4515  0.9176
   42MOL0     C 5551   1.363   4.662   6.184  0.3521 -0.2663 -1.1966
   42MOL0     N 5552   1.271   4.589   6.085 -0.2467 -0.5266  0.0686
   42MOL0     C 5553   1.134   4.601   6.067 -0.0337  0.7573  0.8514
   42MOL0     C 5554   1.110   4.510   5.969 -0.0322 -0.0092 -0.0996
   42MOL0     C 5555   0.968   4.482   5.926  0.2648  0.6029  0.5728
   42MOL0     C 5556   0.869   4.410   6.019  1.2064 -0.0897  0.4542
   42MOL0     C 5557   0.726   4.387   5.953  1.0499  0.3075  0.0597
   42MOL0     C 5558   0.618   4.373   6.063 -0.8353  0.2155  0.0168
   42MOL0     O 5559   0.484   4.381   6.007 -0.2727  0.2422 -0.1366
   42MOL0     C 5560   0.379   4.331   6.095  0.1912 -0.8579 -0.1956
   42MOL0     C 5561   0.403   4.278   6.224 -0.4280 -0.2644  0.2201
   42MOL0     C 5562   0.295   4.222   6.294  0.3347 -0.0553 -0.2511
   42MOL0     C 5563   0.331   4.151   6.420  0.4273 -0.4408  0.4770
   42MOL0     C 5564   0.166   4.236   6.238 -0.0641  0.3225 -0.0802
   42MOL0     C 5565   0.053   4.176   6.298  0.1241  0.2624 -1.0802
   42MOL0     O 5566  -0.030   4.265   6.381  1.0131  1.2265  0.2757
   42MOL0     C 5567  -0.121   4.215   6.472 -0.2795 -0.4030 -0.1771
   42MOL0     C 5568  -0.146   4.081   6.523 -0.3510 -0.4465 -0.3231
   42MOL0     C 5569  -0.234   4.061   6.631 -0.2174 -0.7232 -0.6217
   42MOL0     C 5570  -0.305   4.167   6.680 -0.8116  0.2950  0.2423
   42MOL0     O 5571  -0.401   4.148   6.773  1.0460  0.6301  0.1272
   42MOL0     C 5572  -0.542   4.145   6.748 -0.7970  0.3496 -0.5416
   42MOL0     C 5573  -0.609   4.089   6.876 -0.4275 -0.9529 -0.7038
   42MOL0     C 5574  -0.582   3.941   6.909 -0.4830 -0.6636 -0.1266
   42MOL0     C 5575  -0.678   3.901   7.018  0.5664  0.3504 -0.1146
   42MOL0     C 5576  -0.636   3.790   7.113 -0.5547  0.3727  0.3408
   42MOL0     C 5577  -0.540   3.844   7.216 -0.3059 -0.5143  0.5483
   42MOL0     C 5578  -0.528   3.748   7.327 -0.7848  0.5076  0.2447
   42MOL0     C 5579  -0.484   3.809   7.464  0.9520  0.1855 -0.3246
   42MOL0    Cl 5580  -0.328   3.877   7.423 -0.0362  0.1559 -0.3024
   42MOL0     C 5581  -0.289   4.288   6.621 -0.5400 -0.0801 -0.4545
   42MOL0     C 5582  -0.188   4.320   6.530 -0.3553  0.1239  0.1276
   42MOL0     O 5583   0.045   4.054   6.300  0.2180 -0.1858 -0.5234
   42MOL0     C 5584   0.153   4.294   6.117 -0.6804 -0.1921 -0.5529
   42MOL0     C 5585   0.255   4.347   6.041 -0.6931  0.1290  0.4610
   42MOL0     N 5586   1.231   4.441   5.930  0.5830 -0.8060  1.3828
   42MOL0     N 5587   1.327   4.501   5.998  0.3686 -0.5479  0.0397
   42MOL0     C 5588   2.182   4.815   6.774 -0.6686 -0.1870  0.0831
   42MOL0     C 5589   2.305   4.875   6.802 -2.0890  0.1852 -0.1805
   42MOL0     C 5590   2.598   5.194   6.813 -0.0509  0.2113 -0.0264
   42MOL0     C 5591   2.583   5.312   6.892  0.1639  0.3964  0.1000
   42MOL0     C 5592   2.689   5.386   6.930  0.3563 -0.0199  0.2090
   42MOL0     C 5593   2.819   5.362   6.884 -0.2235  0.1395  0.4530
   42MOL0     O 5594   2.931   5.438   6.925  0.2835  0.4142 -0.4976
   42MOL0     C 5595   2.907   5.577   6.954  0.1705 -1.2638  0.6239
   42MOL0     C 5596   3.029   5.668   6.934 -0.2004  0.8168 -0.1679
   42MOL0     C 5597   3.122   5.617   6.825  0.5241 -0.4853 -0.0097
   42MOL0     C 5598   3.059   5.607   6.689 -0.2636 -0.0001  1.1605
   42MOL0     C 5599   3.038   5.737   6.619  0.4460  0.6998  0.7481
   42MOL0     C 5600   3.020   5.831   6.537  0.5801  0.0866 -1.4215
   42MOL0     C 5601   2.834   5.242   6.805 -0.5822 -0.4952 -0.1754
   42MOL0     C 5602   2.722   5.156   6.770  0.3948 -0.0683 -0.2883
   42MOL0     H 5603   2.447   4.915   6.519  1.1053 -0.0021  1.6963
   42MOL0     H 5604   2.244   4.773   6.441  2.4395 -2.2066  0.5859
   42MOL0     H 5605   2.068   4.568   6.751  0.4396  0.5458 -0.7725
   42MOL0     H 5606   1.926   4.683   6.770  0.8153 -1.0893  1.9418
   42MOL0     H 5607   1.924   4.452   6.568 -2.0950  0.2744 -1.7343
   42MOL0     H 5608   1.834   4.466   6.711  1.2903  2.5190  1.6588
   42MOL0     H 5609   1.738   4.685   6.625  0.3797  0.0256 -1.6505
   42MOL0     H 5610   1.821   4.658   6.473 -2.5898  2.9311 -0.0600
   42MOL0     H 5611   1.705   4.458   6.421 -0.0173  0.6391  0.0173
   42MOL0     H 5612   1.635   4.447   6.577  1.1392 -1.1413 -0.5157
   42MOL0     H 5613   1.506   4.662   6.535  0.4130  0.0741 -0.9701
   42MOL0     H 5614   1.598   4.686   6.388 -1.1857  1.2976  0.9342
   42MOL0     H 5615   1.481   4.453   6.321  0.3656  2.8509 -2.3541
   42MOL0     H 5616   1.383   4.471   6.465 -0.8638 -1.4006 -1.1550
   42MOL0     H 5617   1.231   4.574   6.339 -0.6403  2.3347  1.8107
   42MOL0     H 5618   1.325   4.706   6.401  2.4165  0.4293  1.1197
   42MOL0     H 5619   1.467   4.633   6.168 -0.4635 -3.0255 -2.1929
   42MOL0     H 5620   1.364   4.771   6.176 -0.6511 -0.2524 -1.3160
   42MOL0     H 5621   1.059   4.649   6.128 -1.7227 -1.4859  0.6706
   42MOL0     H 5622   0.927   4.583   5.915 -3.5811 -0.6952  1.3567
   42MOL0     H 5623   0.968   4.420   5.836  1.4186 -1.1589  1.7335
   42MOL0     H 5624   0.849   4.475   6.104 -0.7736  0.5501 -0.4278
   42MOL0     H 5625   0.914   4.314   6.048  1.9712  0.7009  1.9750
   42MOL0     H 5626   0.738   4.301   5.885  2.6788 -0.5791  1.3859
   42MOL0     H 5627   0.693   4.466   5.886 -2.5870 -1.4997 -0.5312
   42MOL0     H 5628   0.638   4.453   6.135  2.3344 -0.6289  0.2141
   42MOL0     H 5629   0.631   4.274   6.107 -2.5716 -0.7728 -1.5565
   42MOL0     H 5630   0.504   4.273   6.265 -0.7496 -4.0176  1.0040
   42MOL0     H 5631   0.404   4.211   6.475  2.4140 -1.7671 -0.5862
   42MOL0     H 5632   0.244   4.131   6.482 -2.4213  3.3207 -1.8526
   42MOL0     H 5633   0.392   4.071   6.376  1.6783  0.6233  0.1897
   42MOL0     H 5634  -0.099   3.990   6.487 -0.7118 -0.4101 -0.8910
   42MOL0     H 5635  -0.255   3.960   6.664  2.6485 -0.4415  2.6531
   42MOL0     H 5636  -0.567   4.247   6.720  0.4345  0.4229 -1.4791
   42MOL0     H 5637  -0.565   4.080   6.663  0.3253 -0.5903 -0.1664
   42MOL0     H 5638  -0.563   4.153   6.951 -1.9458 -0.0337 -0.5184
   42MOL0     H 5639  -0.715   4.114   6.871 -0.6094 -1.1563  1.3620
   42MOL0     H 5640  -0.485   3.937   6.959 -0.3599 -0.0567 -0.3016
   42MOL0     H 5641  -0.571   3.874   6.824  2.3906  1.3362 -1.4857
   42MOL0     H 5642  -0.720   3.986   7.073 -0.0398  1.2943 -1.9654
   42MOL0     H 5643  -0.760   3.855   6.962  2.3505  1.7738 -4.2832
   42MOL0     H 5644  -0.593   3.711   7.051  0.5623  3.1123 -2.6572
   42MOL0     H 5645  -0.726   3.750   7.161 -0.2064 -0.1209  0.5876
   42MOL0     H 5646  -0.442   3.849   7.169 -0.6695 -2.9326 -0.5892
   42MOL0     H 5647  -0.573   3.943   7.251  1.7727 -0.7824  3.6561
   42MOL0     H 5648  -0.458   3.672   7.291 -1.8767 -1.1244  1.3989
   42MOL0     H 5649  -0.627   3.707   7.352 -0.8077  1.5455  2.0284
   42MOL0     H 5650  -0.464   3.729   7.536  1.6228 -1.4662 -2.2722
   42MOL0     H 5651  -0.551   3.886   7.504  2.5593  0.6214  1.7486
   42MOL0     H 5652  -0.352   4.367   6.663  2.5272  2.1299  0.3987
   42MOL0     H 5653  -0.154   4.422   6.517  0.1815 -0.2088 -1.3377
   42MOL0     H 5654   0.051   4.298   6.080 -1.2958 -0.1262  1.0579
   42MOL0     H 5655   0.247   4.374   5.936  2.2133  0.4256  0.2218
   42MOL0     H 5656   2.109   4.808   6.853  0.3467  1.1440  1.2090
   42MOL0     H 5657   2.329   4.916   6.900  0.3365  1.7854 -1.3569
   42MOL0     H 5658   2.490   5.344   6.939 -0.5761 -2.4316  0.7432
   42MOL0     H 5659   2.675   5.470   6.997 -0.8531 -0.2007  0.2189
   42MOL0     H 5660   2.827   5.614   6.889 -0.7737 -0.1914  2.3417
   42MOL0     H 5661   2.859   5.596   7.050 -2.4947 -1.3200 -0.6239
   42MOL0     H 5662   3.086   5.669   7.027  1.9140 -0.6976 -1.3576
   42MOL0     H 5663   3.006   5.773   6.912  0.5484  0.1797 -5.1377
   42MOL0     H 5664   3.164   5.521   6.857 -0.6816 -0.1008  3.0846
   42MOL0     H 5665   3.207   5.684   6.813  1.6208 -1.5285  1.5434
   42MOL0     H 5666   2.960   5.562   6.697 -0.1611 -0.6189 -0.5307
   42MOL0     H 5667   3.112   5.544   6.616 -1.8663 -0.6312  0.5019
   42MOL0     H 5668   3.007   5.908   6.463 -0.3335 -1.4124 -2.9096
   42MOL0     H 5669   2.928   5.190   6.791 -0.8363 -1.2759  0.9008
   42MOL0     H 5670   2.741   5.061   6.722 -0.5248  0.7786 -2.4530
   43MOL0     O 5671  11.213   1.808  11.119 -0.0082 -0.0238 -0.4557
   43MOL0     C 5672  11.277   1.812  11.230  1.3778  0.1390 -0.5348
   43MOL0     O 5673  11.216   1.805  11.347 -0.1516  0.2812  0.5406
   43MOL0     C 5674  11.075   1.803  11.357  0.1760 -0.1377  0.4771
   43MOL0     C 5675  11.001   1.684  11.368  0.2472  0.4084 -1.1901
   43MOL0     C 5676  10.860   1.690  11.378 -0.1249  0.5582 -1.0250
   43MOL0     C 5677  10.791   1.811  11.366 -0.3972  0.3340  0.4171
   43MOL0     O 5678  10.653   1.807  11.348  0.2768  0.7226 -0.5834
   43MOL0     C 5679  10.583   1.919  11.307 -1.0307 -0.3946  0.1951
   43MOL0     C 5680  10.434   1.876  11.298 -0.2942  0.5031 -0.4322
   43MOL0     C 5681  10.345   1.972  11.217 -0.3436  0.9999  0.2243
   43MOL0     C 5682  10.205   1.920  11.198  0.0713 -0.2343  0.0228
   43MOL0     C 5683  10.124   2.029  11.137 -0.4939 -0.2108 -0.1802
   43MOL0     C 5684   9.980   2.009  11.166  0.4152 -0.3758 -0.0684
   43MOL0     C 5685   9.898   2.120  11.109  0.0013  0.3216 -0.0762
   43MOL0     C 5686   9.940   2.249  11.179  0.3647  0.3774  0.2523
   43MOL0     N 5687   9.837   2.357  11.152 -0.7762  0.1996  0.6529
   43MOL0     C 5688   9.739   2.397  11.240 -0.9756 -1.1713 -0.1851
   43MOL0     C 5689   9.665   2.489  11.177  0.0784  0.1898 -1.1765
   43MOL0     C 5690   9.543   2.553  11.241 -0.2197  0.2147 -0.0944
   43MOL0     C 5691   9.541   2.704  11.225 -0.7707 -0.6212  0.9023
   43MOL0     C 5692   9.435   2.792  11.299 -0.9071  0.1454 -0.2648
   43MOL0     C 5693   9.292   2.749  11.280  0.8364  0.3683 -0.2968
   43MOL0     O 5694   9.210   2.852  11.336  0.5183  1.4952 -0.1493
   43MOL0     C 5695   9.073   2.837  11.355  0.3372 -0.1774 -1.4984
   43MOL0     C 5696   9.008   2.727  11.304 -0.4192 -0.7023  0.3005
   43MOL0     C 5697   8.876   2.696  11.336  0.1993 -0.0085  0.2301
   43MOL0     C 5698   8.823   2.572  11.290 -0.4639 -0.6704 -1.0854
   43MOL0     C 5699   8.801   2.789  11.416 -0.4365  0.0066  0.2058
   43MOL0     C 5700   8.663   2.765  11.472  0.0930 -1.1812 -0.3643
   43MOL0     O 5701   8.634   2.820  11.596  0.6579 -0.1948 -0.1854
   43MOL0     C 5702   8.508   2.807  11.649  0.0508 -0.0247 -0.1039
   43MOL0     C 5703   8.505   2.778  11.785 -0.1997 -0.4741 -0.0045
   43MOL0     C 5704   8.383   2.753  11.848  0.8161  0.5156  0.6930
   43MOL0     C 5705   8.260   2.770  11.776 -0.2099  0.4581 -0.3643
   43MOL0     O 5706   8.134   2.772  11.834 -0.7439  0.1400  0.3478
   43MOL0     C 5707   8.104   2.896  11.883 -0.2330  0.4324  0.0572
   43MOL0     C 5708   8.136   2.894  12.035 -0.3121 -0.5627  0.0186
   43MOL0     C 5709   8.110   3.030  12.108  0.8355  0.9052 -0.3106
   43MOL0     C 5710   8.153   3.018  12.257 -0.8524 -0.5184 -0.2724
   43MOL0     C 5711   8.118   3.140  12.349 -0.5339  0.7964  0.1952
   43MOL0     C 5712   7.973   3.175  12.348  0.2129 -0.8304  0.1788
   43MOL0     C 5713   7.938   3.291  12.440  0.2336 -0.4985 -0.1242
   43MOL0     C 5714   7.964   3.261  12.590 -0.6216  0.3616  0.3709
   43MOL0    Cl 5715   7.859   3.358  12.700 -0.2234  0.2653 -0.4575
   43MOL0     C 5716   8.268   2.802  11.639  0.0632 -0.2186  0.1043
   43MOL0     C 5717   8.392   2.818  11.572  0.3035  0.6906  0.0603
   43MOL0     O 5718   8.595   2.688  11.411  0.4790 -0.3435 -0.2756
   43MOL0     C 5719   8.868   2.903  11.461  0.2445 -0.0757 -0.1188
   43MOL0     C 5720   9.000   2.926  11.429 -0.6369  0.8009 -0.5229
   43MOL0     N 5721   9.709   2.498  11.049  0.5913  0.0359 -0.8047
   43MOL0     N 5722   9.815   2.428  11.038 -0.5400 -0.6205  0.0037
   43MOL0     C 5723  10.860   1.931  11.355  0.0633  0.1230 -0.3225
   43MOL0     C 5724  11.001   1.923  11.357  0.3141 -0.4327 -0.1321
   43MOL0     C 5725  11.418   1.802  11.221 -0.7918  1.0557 -0.1189
   43MOL0     C 5726  11.497   1.769  11.340 -0.4219  0.7848  0.4950
   43MOL0     C 5727  11.636   1.738  11.323 -0.9228  0.4365  0.7176
   43MOL0     C 5728  11.702   1.734  11.197  0.1068  0.6783  0.0177
   43MOL0     O 5729  11.830   1.694  11.194  0.8089  0.2421 -0.2681
   43MOL0     C 5730  11.897   1.709  11.062  0.3370  0.7403  0.3526
   43MOL0     C 5731  12.041   1.701  11.081 -0.1822 -0.5343  0.1724
   43MOL0     C 5732  12.110   1.720  10.949 -0.2849  0.2462  0.7235
   43MOL0     C 5733  12.263   1.742  10.967  0.1375  0.7114 -0.0064
   43MOL0     C 5734  12.322   1.750  10.840 -0.8704  0.1485 -0.9852
   43MOL0     C 5735  12.386   1.752  10.737 -0.3602  0.2721 -0.2271
   43MOL0     C 5736  11.623   1.773  11.086  0.3669  0.2516 -0.5433
   43MOL0     C 5737  11.484   1.807  11.101 -0.0078  0.2442  0.3767
   43MOL0     H 5738  11.043   1.584  11.362 -2.8024 -0.9616 -1.2960
   43MOL0     H 5739  10.813   1.595  11.399 -1.1182  1.7258  3.1461
   43MOL0     H 5740  10.602   2.001  11.376  1.0889  0.5398 -1.3882
   43MOL0     H 5741  10.618   1.953  11.210  3.5875 -1.0799  1.3974
   43MOL0     H 5742  10.436   1.776  11.254  0.8327  0.0032  0.6780
   43MOL0     H 5743  10.389   1.881  11.398  3.8666  2.0779  1.6210
   43MOL0     H 5744  10.335   2.070  11.266  2.0433  0.9161  0.9891
   43MOL0     H 5745  10.393   1.995  11.121  1.1535 -0.4107  0.5955
   43MOL0     H 5746  10.206   1.838  11.125 -0.2021  1.0957 -1.5229
   43MOL0     H 5747  10.171   1.898  11.300  1.5002  0.7787  0.7410
   43MOL0     H 5748  10.153   2.115  11.198 -2.4147 -0.8205  1.7048
   43MOL0     H 5749  10.152   2.055  11.035 -0.3394  0.7632  0.0986
   43MOL0     H 5750   9.955   1.917  11.112  0.0558 -1.2775  1.5342
   43MOL0     H 5751   9.951   1.998  11.271 -0.7348 -1.2788 -0.4574
   43MOL0     H 5752   9.913   2.129  11.001  1.5416  1.9662  0.2384
   43MOL0     H 5753   9.791   2.098  11.117  0.4203 -1.8390  0.1543
   43MOL0     H 5754  10.035   2.286  11.140 -0.8398  1.1923 -2.1395
   43MOL0     H 5755   9.958   2.239  11.286  0.6053  0.7206  0.2445
   43MOL0     H 5756   9.739   2.363  11.343 -1.2542  0.8659  0.5299
   43MOL0     H 5757   9.450   2.508  11.203 -0.5041  1.2455 -0.6709
   43MOL0     H 5758   9.543   2.536  11.349 -1.0248  0.6702 -0.0164
   43MOL0     H 5759   9.524   2.731  11.120  1.3723 -2.7227 -0.0810
   43MOL0     H 5760   9.635   2.747  11.262  0.7499 -2.0816 -1.0491
   43MOL0     H 5761   9.444   2.890  11.251  1.5922  0.9866  1.6940
   43MOL0     H 5762   9.459   2.801  11.405  0.8904 -1.0516 -0.5231
   43MOL0     H 5763   9.268   2.653  11.326 -1.2412 -0.0798 -2.1715
   43MOL0     H 5764   9.278   2.746  11.172 -1.2814 -1.4794 -0.0490
   43MOL0     H 5765   9.069   2.669  11.236 -0.9380  2.2035 -2.9573
   43MOL0     H 5766   8.901   2.512  11.240  0.3439  0.3209 -1.0508
   43MOL0     H 5767   8.785   2.510  11.371 -0.7438  0.4076 -0.3788
   43MOL0     H 5768   8.740   2.579  11.220 -0.0414  2.7215 -1.3955
   43MOL0     H 5769   8.602   2.773  11.835  0.3336  2.5517 -0.5814
   43MOL0     H 5770   8.372   2.735  11.954 -4.4654  0.7727  0.4750
   43MOL0     H 5771   8.164   2.976  11.839  2.4053 -0.8767  1.0041
   43MOL0     H 5772   8.002   2.929  11.862 -0.5361 -0.7967 -0.4913
   43MOL0     H 5773   8.067   2.825  12.082 -1.8129  1.4347  0.8747
   43MOL0     H 5774   8.241   2.868  12.050 -0.9344 -3.9601 -0.7825
   43MOL0     H 5775   8.006   3.063  12.100  0.2303  0.1730  2.9190
   43MOL0     H 5776   8.177   3.101  12.059  2.8120 -1.7079 -1.6640
   43MOL0     H 5777   8.096   2.938  12.305  0.7050 -0.2816  2.0828
   43MOL0     H 5778   8.260   2.997  12.262 -0.5638  0.3263 -1.9510
   43MOL0     H 5779   8.185   3.213  12.302  1.1571 -1.1035 -0.4740
   43MOL0     H 5780   8.153   3.123  12.451  0.5108 -3.5698 -0.6636
   43MOL0     H 5781   7.945   3.207  12.247  0.1978 -0.9721  0.1381
   43MOL0     H 5782   7.912   3.086  12.365  2.8163 -2.7554  0.1104
   43MOL0     H 5783   7.833   3.320  12.425  0.1611 -0.2660  0.7495
   43MOL0     H 5784   7.995   3.381  12.417 -0.4651  0.0900  0.4059
   43MOL0     H 5785   8.066   3.300  12.598 -0.8313  1.2089 -0.8927
   43MOL0     H 5786   7.956   3.154  12.615  0.8444  0.4850  1.4909
   43MOL0     H 5787   8.180   2.813  11.577  0.2608 -2.4819 -0.6524
   43MOL0     H 5788   8.402   2.851  11.469 -0.4602 -0.6521 -0.4701
   43MOL0     H 5789   8.814   2.972  11.525 -2.1530 -0.9894 -1.0222
   43MOL0     H 5790   9.048   3.006  11.485 -0.6137  0.1446  0.4242
   43MOL0     H 5791  10.808   2.027  11.357 -1.2074 -0.5483  1.4092
   43MOL0     H 5792  11.056   2.014  11.337  1.1050 -1.1629 -1.4601
   43MOL0     H 5793  11.453   1.771  11.439  1.2451  1.2848  1.2706
   43MOL0     H 5794  11.697   1.695  11.402 -0.6649 -3.2866 -1.2913
   43MOL0     H 5795  11.861   1.626  11.000  1.9028  0.5367 -0.3393
   43MOL0     H 5796  11.867   1.800  11.008 -2.4924  0.3243  1.0871
   43MOL0     H 5797  12.077   1.603  11.116 -0.4726 -0.9869 -0.7621
   43MOL0     H 5798  12.083   1.769  11.155  3.8612 -0.9590 -1.4784
   43MOL0     H 5799  12.064   1.803  10.896  2.3076  1.0238 -0.4949
   43MOL0     H 5800  12.089   1.632  10.888  1.8499  0.9858 -1.2318
   43MOL0     H 5801  12.306   1.671  11.037 -0.8132  1.2598  1.1752
   43MOL0     H 5802  12.271   1.833  11.026 -0.4375  0.1164  1.0098
   43MOL0     H 5803  12.441   1.754  10.645 -1.0339 -4.4951 -1.0042
   43MOL0     H 5804  11.668   1.776  10.988 -0.4756  5.7735 -1.0458
   43MOL0     H 5805  11.427   1.807  11.009 -0.4619  0.1182  0.6518
   44MOL0     O 5806   1.606  10.737   0.401  0.2481 -0.7080  0.0534
   44MOL0     C 5807   1.654  10.726   0.287  0.6197  0.3831  0.3915
   44MOL0     O 5808   1.585  10.720   0.167  0.8386  0.3539 -0.5772
   44MOL0     C 5809   1.443  10.720   0.161  0.6226 -0.7533  0.5093
   44MOL0     C 5810   1.356  10.691   0.269  1.1373  0.5553  0.0090
   44MOL0     C 5811   1.209  10.683   0.249 -1.3920 -0.2822  0.1156
   44MOL0     C 5812   1.158  10.699   0.122  0.4403  0.2952  0.4448
   44MOL0     O 5813   1.019  10.682   0.087  0.5557 -0.0362  0.4545
   44MOL0     C 5814   0.925  10.677   0.199 -0.1695  0.4693  0.0366
   44MOL0     C 5815   0.785  10.670   0.151  0.2659 -0.0529  0.1295
   44MOL0     C 5816   0.743  10.523   0.099  0.3028 -1.0925  0.2466
   44MOL0     C 5817   0.608  10.529   0.022 -0.6448  0.5577  0.1605
   44MOL0     C 5818   0.551  10.387  -0.009  0.4840 -0.3564 -0.8499
   44MOL0     C 5819   0.412  10.419  -0.048  0.7441 -1.0160  0.0436
   44MOL0     C 5820   0.353  10.288  -0.101  1.4668 -0.1991  0.4891
   44MOL0     C 5821   0.322  10.176  -0.003 -0.0529 -0.4740 -0.3155
   44MOL0     N 5822   0.233  10.225   0.096 -0.4642 -0.7209  0.3321
   44MOL0     C 5823   0.102  10.261   0.078 -0.3758 -0.3261 -0.4100
   44MOL0     C 5824   0.055  10.261   0.208 -0.2135  0.1117 -0.4213
   44MOL0     C 5825  -0.091  10.300   0.250 -0.7010  0.2620  1.0478
   44MOL0     C 5826  -0.131  10.275   0.406 -0.3768  0.3754  0.7613
   44MOL0     C 5827  -0.243  10.360   0.459  0.1868 -0.0135 -0.1955
   44MOL0     C 5828  -0.378  10.290   0.458 -0.2479  1.3640 -0.0744
   44MOL0     O 5829  -0.479  10.388   0.429 -0.2399 -0.8937 -0.3275
   44MOL0     C 5830  -0.613  10.371   0.463  0.2529  0.7064  0.8657
   44MOL0     C 5831  -0.702  10.465   0.416 -0.7627  0.0592 -0.9369
   44MOL0     C 5832  -0.835  10.451   0.427  0.7642 -0.0981 -0.8093
   44MOL0     C 5833  -0.916  10.574   0.397  0.0350  0.3251  1.4894
   44MOL0     C 5834  -0.891  10.354   0.511  0.6680 -0.6821  0.2823
   44MOL0     C 5835  -1.037  10.333   0.541  0.3212  0.6525 -0.5995
   44MOL0     O 5836  -1.123  10.394   0.457  0.5702  0.3561 -0.0696
   44MOL0     C 5837  -1.251  10.347   0.434 -0.7705  0.5301  0.3666
   44MOL0     C 5838  -1.354  10.444   0.439 -0.1004  0.3460  0.8207
   44MOL0     C 5839  -1.488  10.397   0.432  0.1510  0.1139  0.7753
   44MOL0     C 5840  -1.515  10.263   0.414 -0.0598 -1.1057 -0.0927
   44MOL0     O 5841  -1.648  10.208   0.395 -0.2726  0.0673 -0.0253
   44MOL0     C 5842  -1.755  10.290   0.341 -0.3493  0.3262  0.3315
   44MOL0     C 5843  -1.889  10.232   0.371  0.0444 -0.1651 -0.1505
   44MOL0     C 5844  -2.006  10.314   0.317  0.5909  0.2615  0.4339
   44MOL0     C 5845  -2.152  10.249   0.345  0.5682  0.4363  0.5115
   44MOL0     C 5846  -2.175  10.115   0.270 -0.0902 -0.5624 -0.6758
   44MOL0     C 5847  -2.318  10.064   0.299 -0.3026  0.1637  0.4227
   44MOL0     C 5848  -2.329   9.924   0.243  0.1190  0.0172  0.1678
   44MOL0     C 5849  -2.313   9.901   0.096  0.4052 -0.5323  0.6058
   44MOL0    Cl 5850  -2.421  10.003  -0.004 -0.0964 -0.0186 -0.1239
   44MOL0     C 5851  -1.408  10.175   0.405 -0.7516 -0.6932 -0.2113
   44MOL0     C 5852  -1.281  10.216   0.416 -0.0481 -0.1908 -0.1374
   44MOL0     O 5853  -1.069  10.248   0.621 -0.1752  1.1260  0.2138
   44MOL0     C 5854  -0.804  10.252   0.555  0.2847  0.5312 -0.6564
   44MOL0     C 5855  -0.667  10.257   0.528  0.0675 -0.1524  0.6640
   44MOL0     N 5856   0.166  10.239   0.297  0.3084 -0.1257  0.3175
   44MOL0     N 5857   0.272  10.222   0.227 -0.6881  0.0326  0.4848
   44MOL0     C 5858   1.240  10.729   0.012  0.1436 -0.4924  0.5230
   44MOL0     C 5859   1.381  10.726   0.029 -0.4819 -0.3237 -0.2683
   44MOL0     C 5860   1.800  10.720   0.282  0.3687  0.2345 -0.2213
   44MOL0     C 5861   1.862  10.678   0.163  0.4155  0.4444 -0.1814
   44MOL0     C 5862   2.002  10.669   0.164 -0.5483 -0.3209 -0.2099
   44MOL0     C 5863   2.080  10.699   0.281  0.2429  0.9853  0.3794
   44MOL0     O 5864   2.212  10.712   0.289  0.3294 -0.2253 -0.3573
   44MOL0     C 5865   2.297  10.696   0.175 -0.6299 -0.0972  0.0886
   44MOL0     C 5866   2.443  10.720   0.212 -0.3003 -0.9408  0.1329
   44MOL0     C 5867   2.483  10.850   0.293  0.0667  0.5099  0.4450
   44MOL0     C 5868   2.607  10.822   0.379 -0.0353  0.3039 -0.3058
   44MOL0     C 5869   2.630  10.951   0.449  0.4651 -0.3599  0.1248
   44MOL0     C 5870   2.661  11.063   0.487 -0.5344 -0.5548  0.5737
   44MOL0     C 5871   2.014  10.745   0.394  0.1893  0.1795 -0.4376
   44MOL0     C 5872   1.872  10.748   0.403  0.7717 -0.2093 -0.0187
   44MOL0     H 5873   1.381  10.684   0.375  1.3610  0.0321 -0.0739
   44MOL0     H 5874   1.136  10.660   0.326 -3.1880  1.4693 -0.9470
   44MOL0     H 5875   0.948  10.587   0.257 -0.3819 -1.1242 -2.1985
   44MOL0     H 5876   0.919  10.773   0.251  0.3152  1.7899 -2.2186
   44MOL0     H 5877   0.720  10.705   0.232  0.9583  0.2791  0.5493
   44MOL0     H 5878   0.765  10.737   0.067  3.2988  2.7588  1.4399
   44MOL0     H 5879   0.818  10.492   0.026 -0.2974 -1.5047 -0.2042
   44MOL0     H 5880   0.733  10.452   0.182 -1.0236 -0.3659  0.7371
   44MOL0     H 5881   0.528  10.577   0.080 -1.1080  0.6638 -0.5499
   44MOL0     H 5882   0.618  10.574  -0.078 -0.9929 -0.9132 -0.5609
   44MOL0     H 5883   0.616  10.334  -0.080  1.5444  1.4409 -1.2968
   44MOL0     H 5884   0.547  10.328   0.082  2.2722  1.9475  0.8532
   44MOL0     H 5885   0.351  10.462   0.031 -0.3716  1.4736 -2.0378
   44MOL0     H 5886   0.420  10.499  -0.122  0.1372 -0.8778  0.1221
   44MOL0     H 5887   0.261  10.309  -0.155  2.1471  2.4299  0.2336
   44MOL0     H 5888   0.426  10.260  -0.178  0.0283 -0.8599 -0.6782
   44MOL0     H 5889   0.408  10.127   0.044 -1.3747 -1.3716  1.2647
   44MOL0     H 5890   0.269  10.095  -0.052 -1.6196  0.1901  0.2315
   44MOL0     H 5891   0.040  10.270  -0.010 -3.4900  0.4328  1.6743
   44MOL0     H 5892  -0.093  10.408   0.231 -0.0361  0.6412  2.8829
   44MOL0     H 5893  -0.163  10.249   0.186 -1.3529  0.4141  1.6446
   44MOL0     H 5894  -0.044  10.289   0.471 -0.1453  1.1593  0.2984
   44MOL0     H 5895  -0.152  10.167   0.413  3.1298 -0.5361 -0.7611
   44MOL0     H 5896  -0.253  10.455   0.406  1.6929  0.1816 -0.1504
   44MOL0     H 5897  -0.221  10.393   0.561  1.0954  3.4286 -1.3781
   44MOL0     H 5898  -0.404  10.252   0.558 -2.4004  0.4042 -0.9326
   44MOL0     H 5899  -0.385  10.200   0.395  0.5802  1.3294 -0.1300
   44MOL0     H 5900  -0.656  10.560   0.388 -0.1809 -0.4951 -1.9449
   44MOL0     H 5901  -0.978  10.591   0.485  0.5084 -5.0229  3.2126
   44MOL0     H 5902  -0.852  10.656   0.362  1.6517 -1.4382  0.0570
   44MOL0     H 5903  -0.981  10.544   0.314  0.3898 -0.5059  1.4995
   44MOL0     H 5904  -1.335  10.551   0.442 -1.0334  0.4975  1.7760
   44MOL0     H 5905  -1.577  10.460   0.437 -1.2036 -1.8035  2.1508
   44MOL0     H 5906  -1.761  10.394   0.374  2.5959  1.0482 -1.0347
   44MOL0     H 5907  -1.739  10.297   0.233  1.2869 -0.0355  0.5163
   44MOL0     H 5908  -1.890  10.126   0.342  2.5804 -0.6185  1.1412
   44MOL0     H 5909  -1.895  10.235   0.480  1.2930  1.5669 -0.0838
   44MOL0     H 5910  -1.988  10.331   0.210  1.1805  0.3858  0.5455
   44MOL0     H 5911  -2.002  10.415   0.358  1.2419 -0.0270  1.1044
   44MOL0     H 5912  -2.155  10.241   0.454  2.2908  2.7491  0.7996
   44MOL0     H 5913  -2.232  10.318   0.317  1.0528  0.5112 -0.7195
   44MOL0     H 5914  -2.101  10.050   0.318  0.8300  0.7901 -0.2182
   44MOL0     H 5915  -2.148  10.111   0.164  0.5488 -0.4736 -0.5203
   44MOL0     H 5916  -2.327  10.060   0.408  2.5062  1.1661  0.7786
   44MOL0     H 5917  -2.394  10.129   0.255 -1.6284  0.2586  2.7014
   44MOL0     H 5918  -2.429   9.891   0.274  1.2412 -2.2171  1.6192
   44MOL0     H 5919  -2.254   9.854   0.278  0.3538 -0.6910 -1.6179
   44MOL0     H 5920  -2.328   9.795   0.074 -0.9858  0.0100 -1.3499
   44MOL0     H 5921  -2.209   9.922   0.070  0.5911 -0.0475  1.6898
   44MOL0     H 5922  -1.434  10.072   0.383 -0.4836 -1.2577  1.8899
   44MOL0     H 5923  -1.208  10.139   0.393  2.3152  2.5129 -2.4852
   44MOL0     H 5924  -0.834  10.163   0.609 -0.0900  0.2307 -1.3499
   44MOL0     H 5925  -0.610  10.170   0.561 -2.9908 -1.1594  3.9350
   44MOL0     H 5926   1.204  10.732  -0.090  1.4377  0.9378  0.0833
   44MOL0     H 5927   1.445  10.723  -0.058 -0.2118 -0.5733 -0.0648
   44MOL0     H 5928   1.807  10.648   0.075  2.0494  0.4260 -1.2267
   44MOL0     H 5929   2.051  10.667   0.067 -1.3282 -0.2413 -0.6169
   44MOL0     H 5930   2.312  10.592   0.142  2.6219  0.1079  0.6103
   44MOL0     H 5931   2.254  10.769   0.106  1.0325  0.6520 -0.2199
   44MOL0     H 5932   2.507  10.717   0.124 -0.1672 -2.8230  0.2523
   44MOL0     H 5933   2.463  10.640   0.283 -1.8326 -2.1060 -0.6940
   44MOL0     H 5934   2.400  10.890   0.352 -2.1472  1.7152 -3.1731
   44MOL0     H 5935   2.503  10.931   0.222  1.6452  0.0785  0.3525
   44MOL0     H 5936   2.687  10.786   0.314  0.3889 -0.4460  0.5985
   44MOL0     H 5937   2.593  10.753   0.463  0.9698 -0.4652 -0.7431
   44MOL0     H 5938   2.699  11.159   0.513  2.2793 -0.8555 -1.9335
   44MOL0     H 5939   2.078  10.781   0.473 -0.8424 -1.0238  0.9868
   44MOL0     H 5940   1.821  10.771   0.496  0.0452  0.2735 -0.5360
   45MOL0     O 5941   7.094   2.430   6.524 -0.7588  0.3431 -0.8314
   45MOL0     C 5942   7.172   2.428   6.429  0.4743  0.1720  0.4406
   45MOL0     O 5943   7.136   2.413   6.300  0.1111  0.0479 -0.6532
   45MOL0     C 5944   7.001   2.411   6.272  0.4473  0.1563 -0.7368
   45MOL0     C 5945   6.941   2.538   6.259  0.4375  0.3565  0.0410
   45MOL0     C 5946   6.801   2.548   6.242  0.1644  0.5039 -0.7833
   45MOL0     C 5947   6.718   2.429   6.235 -0.0290 -0.3125  0.3481
   45MOL0     O 5948   6.586   2.436   6.198  0.2396 -0.1140 -0.0365
   45MOL0     C 5949   6.494   2.367   6.276  0.2587  0.5142  0.1662
   45MOL0     C 5950   6.364   2.361   6.202  0.7988  0.2413  0.3496
   45MOL0     C 5951   6.382   2.356   6.050  0.8597  0.9287 -0.5635
   45MOL0     C 5952   6.250   2.330   5.981  0.5817 -1.3819  0.3964
   45MOL0     C 5953   6.266   2.292   5.831 -0.2378 -0.4408 -0.7845
   45MOL0     C 5954   6.175   2.378   5.744 -0.0233  0.0866  0.3685
   45MOL0     C 5955   6.022   2.367   5.769  0.4056 -0.6668 -0.4342
   45MOL0     C 5956   5.954   2.261   5.686  0.1184  0.8192 -0.3461
   45MOL0     N 5957   5.807   2.266   5.680 -0.5212 -0.0847  0.0561
   45MOL0     C 5958   5.732   2.355   5.738 -0.3897 -0.5281 -0.1774
   45MOL0     C 5959   5.611   2.357   5.677 -0.3451 -0.2895 -1.6695
   45MOL0     C 5960   5.502   2.460   5.705 -0.3855 -1.4053 -1.3372
   45MOL0     C 5961   5.362   2.419   5.657  0.4741  0.0388 -0.0907
   45MOL0     C 5962   5.298   2.304   5.730  0.8933  0.0114  0.8261
   45MOL0     C 5963   5.147   2.292   5.698 -0.1340 -0.0976 -0.6874
   45MOL0     O 5964   5.085   2.417   5.702  0.3730 -0.1321  0.0850
   45MOL0     C 5965   4.946   2.425   5.676 -0.0585  0.6179  0.7346
   45MOL0     C 5966   4.879   2.522   5.745 -0.4952  0.1983  0.0119
   45MOL0     C 5967   4.743   2.547   5.733  0.1429 -0.0625  0.5627
   45MOL0     C 5968   4.683   2.672   5.808  0.3683 -0.7768  0.1387
   45MOL0     C 5969   4.663   2.459   5.662  0.2123 -0.1423 -0.0072
   45MOL0     C 5970   4.512   2.462   5.631 -0.5819 -0.8066 -0.1400
   45MOL0     O 5971   4.452   2.349   5.584  0.3208 -0.1049 -0.9866
   45MOL0     C 5972   4.320   2.366   5.537 -0.8944  0.5038  0.1366
   45MOL0     C 5973   4.213   2.398   5.626 -0.9672  0.2733 -0.8227
   45MOL0     C 5974   4.082   2.411   5.583 -0.1104  0.0428 -0.6760
   45MOL0     C 5975   4.056   2.397   5.446 -1.0500 -0.5917 -0.8053
   45MOL0     O 5976   3.933   2.422   5.398  0.0053  0.2250  0.4142
   45MOL0     C 5977   3.882   2.559   5.420 -0.5225  1.2981 -0.2323
   45MOL0     C 5978   3.751   2.579   5.349 -0.5101  0.2858  0.3841
   45MOL0     C 5979   3.648   2.461   5.353 -0.2983  0.1938  0.1794
   45MOL0     C 5980   3.553   2.465   5.235  0.6848  0.5354 -0.1600
   45MOL0     C 5981   3.439   2.361   5.238  0.1330  0.4278 -0.4836
   45MOL0     C 5982   3.304   2.395   5.301  0.1636  0.0964  0.0308
   45MOL0     C 5983   3.305   2.420   5.449 -0.5436  0.1029 -0.7311
   45MOL0     C 5984   3.159   2.419   5.486 -0.3230 -0.0240  0.1212
   45MOL0    Cl 5985   3.074   2.262   5.468  0.1081 -0.3892 -0.5578
   45MOL0     C 5986   4.155   2.358   5.362 -0.0038  0.0287  0.2249
   45MOL0     C 5987   4.289   2.336   5.403 -0.3090  0.6833 -0.8771
   45MOL0     O 5988   4.460   2.572   5.650  0.6661 -0.2161  0.9406
   45MOL0     C 5989   4.728   2.361   5.583  1.1474  0.4298  0.2799
   45MOL0     C 5990   4.868   2.346   5.581 -0.5442 -0.7752 -0.0713
   45MOL0     N 5991   5.623   2.268   5.573 -0.5858 -0.6109  0.0486
   45MOL0     N 5992   5.729   2.198   5.593 -0.4864  0.7075  0.5487
   45MOL0     C 5993   6.779   2.312   6.243  0.1644  0.4435 -0.1233
   45MOL0     C 5994   6.917   2.301   6.269  0.4749 -0.3825  0.2796
   45MOL0     C 5995   7.314   2.417   6.452 -0.7046 -0.1221 -0.5557
   45MOL0     C 5996   7.404   2.434   6.346 -0.2498  0.1663  0.3159
   45MOL0     C 5997   7.544   2.420   6.370 -0.4308  0.5405 -0.8703
   45MOL0     C 5998   7.585   2.394   6.500 -0.5232  0.3689  0.2668
   45MOL0     O 5999   7.715   2.369   6.544 -0.5457  0.1531 -0.0610
   45MOL0     C 6000   7.819   2.425   6.466  0.5980  1.4593  0.7010
   45MOL0     C 6001   7.799   2.577   6.458 -0.0135  0.8034 -0.5133
   45MOL0     C 6002   7.935   2.656   6.460 -0.3906  0.6245  0.9428
   45MOL0     C 6003   7.902   2.810   6.457 -0.2396 -0.3915 -0.2732
   45MOL0     C 6004   8.022   2.891   6.446  0.4618 -0.1390 -0.3498
   45MOL0     C 6005   8.118   2.958   6.430  0.1475 -0.9096 -0.5401
   45MOL0     C 6006   7.497   2.369   6.599  0.2332 -0.7111 -0.8204
   45MOL0     C 6007   7.363   2.387   6.579  1.1521  0.4318  0.4134
   45MOL0     H 6008   7.013   2.620   6.262  1.1033 -0.2447  1.2725
   45MOL0     H 6009   6.762   2.647   6.219  0.0817  1.3033  2.3304
   45MOL0     H 6010   6.534   2.268   6.302  0.3111  0.6374  0.5643
   45MOL0     H 6011   6.482   2.418   6.372  1.6716  0.5852  0.3220
   45MOL0     H 6012   6.311   2.270   6.233 -0.8168  0.5825 -1.2237
   45MOL0     H 6013   6.311   2.448   6.241  1.9287 -0.5417  4.0599
   45MOL0     H 6014   6.438   2.445   6.018 -1.4164  1.9156 -2.0516
   45MOL0     H 6015   6.448   2.269   6.037 -0.8437 -1.0335  2.6402
   45MOL0     H 6016   6.186   2.251   6.021 -0.4916  0.1000  1.7472
   45MOL0     H 6017   6.191   2.422   5.989  0.8130 -1.1274 -0.6800
   45MOL0     H 6018   6.370   2.307   5.802 -0.3063  2.7640  0.2320
   45MOL0     H 6019   6.242   2.187   5.814 -1.7954  0.0931 -2.2429
   45MOL0     H 6020   6.180   2.486   5.763 -2.8109 -0.0541  2.7128
   45MOL0     H 6021   6.195   2.348   5.641 -0.1155 -1.5421  0.8020
   45MOL0     H 6022   5.998   2.359   5.876 -5.1272  0.3284 -1.2916
   45MOL0     H 6023   5.972   2.462   5.746 -2.6784 -1.2868  2.8059
   45MOL0     H 6024   5.975   2.164   5.734 -0.5413  0.4922 -0.7124
   45MOL0     H 6025   5.993   2.257   5.584 -1.5096  2.2579 -1.0663
   45MOL0     H 6026   5.761   2.416   5.823 -2.6673 -1.8866  1.6960
   45MOL0     H 6027   5.504   2.479   5.812 -1.5673  3.0219 -1.8918
   45MOL0     H 6028   5.539   2.554   5.664 -0.2844 -0.2767  1.1842
   45MOL0     H 6029   5.385   2.389   5.554  1.6182 -1.1842  0.4879
   45MOL0     H 6030   5.294   2.505   5.661 -0.0710 -0.4168  0.5022
   45MOL0     H 6031   5.316   2.318   5.837  2.0148 -2.5694  1.0413
   45MOL0     H 6032   5.348   2.211   5.703 -2.3457 -2.4389  2.4887
   45MOL0     H 6033   5.095   2.229   5.770 -1.8469 -0.1116 -1.8947
   45MOL0     H 6034   5.149   2.247   5.598 -0.1230  0.7237 -1.0646
   45MOL0     H 6035   4.939   2.592   5.803 -1.4963 -0.3504  1.7858
   45MOL0     H 6036   4.757   2.724   5.869  1.1307 -1.3937 -0.2310
   45MOL0     H 6037   4.650   2.736   5.726 -0.2633 -1.1862  0.0620
   45MOL0     H 6038   4.602   2.652   5.878 -2.2033  3.9458 -1.0798
   45MOL0     H 6039   4.239   2.407   5.731 -0.4079 -0.9334 -0.8348
   45MOL0     H 6040   4.000   2.442   5.647 -1.0898 -1.5858 -1.0764
   45MOL0     H 6041   3.857   2.566   5.526 -2.4775 -2.0938 -0.3277
   45MOL0     H 6042   3.958   2.636   5.404  0.2536  1.0944  2.1229
   45MOL0     H 6043   3.700   2.662   5.398 -2.0533 -1.5805  2.1246
   45MOL0     H 6044   3.775   2.592   5.243 -1.4757 -2.6570 -0.2895
   45MOL0     H 6045   3.598   2.493   5.444  0.4643  3.4023 -0.4060
   45MOL0     H 6046   3.693   2.361   5.358  1.3545  0.8746 -0.4861
   45MOL0     H 6047   3.519   2.568   5.222 -0.0487  0.3017 -0.1823
   45MOL0     H 6048   3.607   2.431   5.147 -1.2099 -0.6690 -0.9360
   45MOL0     H 6049   3.464   2.263   5.280 -0.5242  1.7990  3.6195
   45MOL0     H 6050   3.408   2.348   5.134 -2.2750 -0.4472  0.2810
   45MOL0     H 6051   3.268   2.485   5.251 -0.5739 -1.2000 -1.8791
   45MOL0     H 6052   3.248   2.305   5.274  2.0574 -0.7673 -1.3006
   45MOL0     H 6053   3.358   2.511   5.479  0.4337 -0.7638  0.2557
   45MOL0     H 6054   3.354   2.334   5.495  0.6541  1.3588  0.4325
   45MOL0     H 6055   3.107   2.498   5.432 -2.4470 -0.3508  1.5627
   45MOL0     H 6056   3.133   2.444   5.589 -1.3902 -0.3739 -0.0551
   45MOL0     H 6057   4.127   2.337   5.259 -0.7537 -4.2887  1.1048
   45MOL0     H 6058   4.371   2.301   5.342  1.9938  2.2005  1.1542
   45MOL0     H 6059   4.670   2.295   5.520  3.1555 -0.4360 -0.7716
   45MOL0     H 6060   4.917   2.271   5.520  0.2946 -0.4597  0.2038
   45MOL0     H 6061   6.724   2.219   6.257 -0.9195  0.6902 -2.2785
   45MOL0     H 6062   6.969   2.208   6.289  0.8730  0.2651  2.5376
   45MOL0     H 6063   7.367   2.466   6.249 -0.3582  1.2789  0.7187
   45MOL0     H 6064   7.618   2.425   6.291 -0.9425  3.8878 -1.2604
   45MOL0     H 6065   7.916   2.403   6.511  0.5864  0.5793  0.3185
   45MOL0     H 6066   7.831   2.385   6.365  1.3272  1.3466  0.8312
   45MOL0     H 6067   7.735   2.616   6.537 -2.1842 -2.3843 -0.4891
   45MOL0     H 6068   7.753   2.604   6.362  0.5505  1.7962 -0.5230
   45MOL0     H 6069   7.999   2.623   6.377 -1.4056 -0.6006  0.6246
   45MOL0     H 6070   7.983   2.626   6.553 -0.3152 -2.2824  0.0617
   45MOL0     H 6071   7.845   2.830   6.548  0.1320  1.0083 -0.3379
   45MOL0     H 6072   7.826   2.845   6.386 -2.4199 -2.9294  0.6013
   45MOL0     H 6073   8.207   3.011   6.405 -1.5767  1.8058 -1.3658
   45MOL0     H 6074   7.546   2.347   6.693  1.1982 -1.8441 -1.5557
   45MOL0     H 6075   7.291   2.388   6.660 -0.9921 -2.5679 -1.2230
   46MOL0     O 6076   7.468   7.234   1.888  0.0931  0.0179 -0.0472
   46MOL0     C 6077   7.555   7.161   1.835  0.5019  1.5973  0.5550
   46MOL0     O 6078   7.534   7.039   1.783 -0.2821  0.6691  0.2923
   46MOL0     C 6079   7.413   6.982   1.792 -0.3709 -0.1597 -0.3916
   46MOL0     C 6080   7.335   6.984   1.913 -0.5313  0.7553  1.2384
   46MOL0     C 6081   7.202   6.934   1.908  0.5995 -0.4284  0.1823
   46MOL0     C 6082   7.145   6.877   1.796 -0.0850 -0.5634  0.2228
   46MOL0     O 6083   7.017   6.825   1.792 -0.7100  0.7899 -0.1803
   46MOL0     C 6084   7.006   6.681   1.840 -0.7484  0.2250 -0.4760
   46MOL0     C 6085   6.870   6.633   1.786 -0.2280 -0.5540 -0.5454
   46MOL0     C 6086   6.756   6.683   1.872 -0.1642 -0.5244  0.2657
   46MOL0     C 6087   6.616   6.680   1.797  0.5326 -0.4218  0.5241
   46MOL0     C 6088   6.507   6.714   1.898  0.3385 -0.0191  0.1161
   46MOL0     C 6089   6.373   6.661   1.839 -0.3016 -0.0471 -0.4414
   46MOL0     C 6090   6.260   6.686   1.934  0.6424  0.5956 -0.7756
   46MOL0     C 6091   6.264   6.833   1.988  0.1611 -0.3545 -0.6295
   46MOL0     N 6092   6.164   6.864   2.095 -0.1215 -0.1150 -0.3847
   46MOL0     C 6093   6.181   6.951   2.197  0.6122 -0.1432 -0.3919
   46MOL0     C 6094   6.073   6.935   2.278  1.3338  0.5299  0.2891
   46MOL0     C 6095   6.055   7.004   2.414 -0.4251 -0.3866 -0.0812
   46MOL0     C 6096   5.934   7.087   2.428  0.0553 -0.1023 -0.2406
   46MOL0     C 6097   5.929   7.147   2.571  0.5669  0.7831 -0.0805
   46MOL0     C 6098   5.803   7.103   2.660  0.3047 -0.0305  0.2051
   46MOL0     O 6099   5.768   7.190   2.765 -0.9868  0.8404  0.2004
   46MOL0     C 6100   5.733   7.322   2.726  0.2683  0.6960 -0.2130
   46MOL0     C 6101   5.733   7.399   2.845  0.2263 -0.3219 -0.1293
   46MOL0     C 6102   5.722   7.540   2.830  0.3178 -0.2812 -0.5584
   46MOL0     C 6103   5.735   7.614   2.954 -1.1288 -0.5185 -0.8675
   46MOL0     C 6104   5.701   7.600   2.702  0.0286 -0.2693  0.3951
   46MOL0     C 6105   5.677   7.751   2.674  0.6218  0.4726  0.4757
   46MOL0     O 6106   5.711   7.844   2.767  0.1222 -0.2624  0.6210
   46MOL0     C 6107   5.682   7.976   2.731  0.2419  0.5460  0.3586
   46MOL0     C 6108   5.770   8.043   2.635 -0.3529 -0.2792  0.7735
   46MOL0     C 6109   5.742   8.170   2.589  0.1461 -0.8326 -0.8636
   46MOL0     C 6110   5.634   8.239   2.643  0.6048 -0.3124  0.5812
   46MOL0     O 6111   5.619   8.371   2.609 -0.0906 -0.3436 -0.2865
   46MOL0     C 6112   5.578   8.403   2.479 -0.0352  0.7580 -0.5624
   46MOL0     C 6113   5.449   8.484   2.487  1.0109  0.7411 -0.4081
   46MOL0     C 6114   5.421   8.557   2.351  1.0392  0.4607 -0.4861
   46MOL0     C 6115   5.382   8.703   2.374  0.6871  0.0647 -0.4416
   46MOL0     C 6116   5.346   8.789   2.254 -0.4033 -0.2734  0.6900
   46MOL0     C 6117   5.252   8.717   2.163 -0.3510 -0.3699  0.1009
   46MOL0     C 6118   5.165   8.814   2.082 -0.6565 -0.1153 -0.1899
   46MOL0     C 6119   5.045   8.749   2.019 -0.6812 -0.5117 -0.0459
   46MOL0    Cl 6120   4.947   8.675   2.142  0.1228 -0.1532  0.3783
   46MOL0     C 6121   5.551   8.183   2.744  0.1864 -1.2908  0.8405
   46MOL0     C 6122   5.583   8.055   2.785  1.4636 -0.4412  0.3063
   46MOL0     O 6123   5.614   7.775   2.571 -0.0744 -0.0720 -0.2658
   46MOL0     C 6124   5.694   7.508   2.594  0.1131 -0.3657  0.2836
   46MOL0     C 6125   5.708   7.375   2.605 -0.2672 -0.0545  0.0756
   46MOL0     N 6126   5.994   6.839   2.223 -0.3770  0.5380 -0.7379
   46MOL0     N 6127   6.052   6.788   2.123  0.5226 -0.6626 -0.1993
   46MOL0     C 6128   7.229   6.862   1.691  0.3362  0.0863  0.0845
   46MOL0     C 6129   7.359   6.916   1.682  1.0895 -0.2664 -0.1157
   46MOL0     C 6130   7.693   7.219   1.830  0.9340  0.1189  0.1446
   46MOL0     C 6131   7.794   7.142   1.777 -0.6346 -0.1412  1.0117
   46MOL0     C 6132   7.925   7.200   1.775 -0.6155 -0.3549  0.0397
   46MOL0     C 6133   7.961   7.325   1.827  0.8046  0.4360  0.6244
   46MOL0     O 6134   8.095   7.367   1.824  0.1651 -0.1890 -0.3292
   46MOL0     C 6135   8.135   7.486   1.886  0.6489  0.3395  0.3477
   46MOL0     C 6136   8.285   7.511   1.874  0.2405 -0.2152 -0.1574
   46MOL0     C 6137   8.383   7.418   1.944 -0.2483  0.1522 -0.1507
   46MOL0     C 6138   8.522   7.437   1.877  0.9238  0.1323 -0.0825
   46MOL0     C 6139   8.567   7.582   1.884 -0.1140  0.5674  0.2298
   46MOL0     C 6140   8.613   7.691   1.883  0.4154 -0.2735  0.8646
   46MOL0     C 6141   7.854   7.391   1.889  0.9462  0.2532 -0.3515
   46MOL0     C 6142   7.725   7.341   1.895 -0.2647  0.3381  0.9786
   46MOL0     H 6143   7.363   7.036   2.004  0.7338  3.9234 -0.7717
   46MOL0     H 6144   7.129   6.945   1.988 -1.0058 -0.6374 -1.1958
   46MOL0     H 6145   7.087   6.610   1.818  0.2787  1.3278 -0.3309
   46MOL0     H 6146   7.007   6.675   1.949  0.0311 -0.7777 -0.5187
   46MOL0     H 6147   6.865   6.692   1.694  0.4327  0.6304  0.1550
   46MOL0     H 6148   6.863   6.526   1.764  0.9684 -0.8722  0.5169
   46MOL0     H 6149   6.746   6.618   1.960  1.6768 -3.1557 -1.3346
   46MOL0     H 6150   6.771   6.783   1.914 -1.5790  1.0950 -2.7489
   46MOL0     H 6151   6.620   6.755   1.718  2.4203 -1.2723 -0.2384
   46MOL0     H 6152   6.611   6.580   1.753  1.4350 -0.6431  0.9046
   46MOL0     H 6153   6.534   6.674   1.995 -0.1155 -0.8264 -0.0845
   46MOL0     H 6154   6.504   6.823   1.909 -2.1876 -0.0531  0.4410
   46MOL0     H 6155   6.362   6.703   1.739  2.4898  0.1107 -0.7453
   46MOL0     H 6156   6.385   6.555   1.816  2.8842  0.0725  0.2942
   46MOL0     H 6157   6.161   6.661   1.895 -0.0791  0.5461  1.0189
   46MOL0     H 6158   6.256   6.616   2.018  2.2229 -0.7519 -1.7496
   46MOL0     H 6159   6.274   6.897   1.900  2.6879 -0.5805 -0.5764
   46MOL0     H 6160   6.361   6.853   2.035 -0.7093  2.7390  0.0947
   46MOL0     H 6161   6.264   7.014   2.228  0.8341 -0.7509  0.2915
   46MOL0     H 6162   6.056   6.921   2.487 -0.2938 -2.4929 -2.3489
   46MOL0     H 6163   6.145   7.066   2.414 -1.0603  0.6603 -2.9853
   46MOL0     H 6164   5.841   7.030   2.416  0.3754 -0.7128  0.1226
   46MOL0     H 6165   5.938   7.176   2.364 -0.7836 -0.0588 -0.2457
   46MOL0     H 6166   5.927   7.256   2.563 -0.3226  1.0193  2.6324
   46MOL0     H 6167   6.025   7.123   2.617  0.7593 -0.0403 -0.8852
   46MOL0     H 6168   5.812   7.009   2.715  2.1392  1.4392  2.5997
   46MOL0     H 6169   5.707   7.103   2.608 -2.0758 -0.3706  4.1570
   46MOL0     H 6170   5.753   7.352   2.940 -0.9683  0.2111  0.4027
   46MOL0     H 6171   5.638   7.645   2.995  0.3438  2.0694  0.9740
   46MOL0     H 6172   5.793   7.553   3.025 -1.4863 -1.3185 -1.2484
   46MOL0     H 6173   5.794   7.705   2.949 -0.3367 -0.7008  2.5836
   46MOL0     H 6174   5.856   7.997   2.586 -1.2913 -0.0942 -1.1186
   46MOL0     H 6175   5.806   8.189   2.504 -0.4624 -2.1657 -1.6600
   46MOL0     H 6176   5.649   8.462   2.420 -0.6063 -0.3291 -2.4315
   46MOL0     H 6177   5.565   8.309   2.425  2.4249  0.7794 -1.2870
   46MOL0     H 6178   5.360   8.428   2.518  0.1798  2.7417  0.9785
   46MOL0     H 6179   5.457   8.555   2.569 -0.8962  0.8839 -0.2990
   46MOL0     H 6180   5.340   8.498   2.306  2.6837 -2.8672  0.5816
   46MOL0     H 6181   5.502   8.558   2.277  1.9668  1.7957  0.4927
   46MOL0     H 6182   5.304   8.712   2.450 -2.3363  2.8123 -3.5139
   46MOL0     H 6183   5.459   8.756   2.431 -1.4103  1.7497  1.0176
   46MOL0     H 6184   5.433   8.808   2.190  0.6764 -1.7044  1.6766
   46MOL0     H 6185   5.308   8.883   2.296  2.9893  1.2999  0.5717
   46MOL0     H 6186   5.302   8.638   2.105 -2.4474 -3.1621  1.8438
   46MOL0     H 6187   5.186   8.660   2.229 -0.1233 -0.5607  0.1657
   46MOL0     H 6188   5.227   8.863   2.006 -0.0074  0.3115  0.5928
   46MOL0     H 6189   5.137   8.902   2.140 -0.1174 -0.2285  0.2504
   46MOL0     H 6190   5.088   8.679   1.946  0.3515 -0.7129  0.7308
   46MOL0     H 6191   4.987   8.817   1.957  1.4431 -1.0009 -2.8233
   46MOL0     H 6192   5.477   8.242   2.796  2.1333 -0.0320  2.3346
   46MOL0     H 6193   5.529   8.003   2.864  1.8792 -1.3008  0.0285
   46MOL0     H 6194   5.680   7.551   2.495  0.7684 -3.3625 -1.2390
   46MOL0     H 6195   5.700   7.306   2.522 -4.3869 -0.7278  0.7859
   46MOL0     H 6196   7.189   6.790   1.621 -0.7758 -0.6926  1.4473
   46MOL0     H 6197   7.417   6.899   1.591 -0.2109  1.4029 -1.3213
   46MOL0     H 6198   7.778   7.047   1.727  1.8793 -0.4881  0.7379
   46MOL0     H 6199   8.003   7.140   1.729 -0.0446  1.1502 -1.0590
   46MOL0     H 6200   8.084   7.574   1.846 -1.9614  1.2524  4.9377
   46MOL0     H 6201   8.108   7.477   1.992  2.7667  0.5613  0.9542
   46MOL0     H 6202   8.304   7.614   1.906 -1.1396  0.0368 -0.0999
   46MOL0     H 6203   8.311   7.511   1.768 -0.2154  2.8472 -0.3744
   46MOL0     H 6204   8.353   7.317   1.915 -2.1149  0.4498  0.5575
   46MOL0     H 6205   8.384   7.436   2.052  0.3923 -1.6107  0.1612
   46MOL0     H 6206   8.522   7.398   1.774  1.7330 -0.4355  0.1241
   46MOL0     H 6207   8.596   7.378   1.931  1.4234  1.0668  0.2944
   46MOL0     H 6208   8.658   7.787   1.871  0.4475 -0.0915  2.3421
   46MOL0     H 6209   7.862   7.485   1.943 -4.4003  0.6998  0.2471
   46MOL0     H 6210   7.650   7.400   1.947 -1.4695 -0.1660 -0.1399
   47MOL0     O 6211   3.310   2.238   3.135 -0.3495  0.4845  0.3570
   47MOL0     C 6212   3.322   2.289   3.245  0.4047  0.0539  0.2466
   47MOL0     O 6213   3.227   2.278   3.339  0.1840 -0.5836  0.1773
   47MOL0     C 6214   3.099   2.239   3.309 -0.2982 -0.3658 -0.5907
   47MOL0     C 6215   3.002   2.344   3.299 -0.0081  0.2318  0.8726
   47MOL0     C 6216   2.870   2.324   3.254  0.0266  0.3171 -0.0581
   47MOL0     C 6217   2.827   2.193   3.236  0.7334  0.3849 -0.5054
   47MOL0     O 6218   2.693   2.151   3.241 -0.8895 -0.4162 -0.1062
   47MOL0     C 6219   2.585   2.252   3.209 -0.1343 -0.6176  0.3464
   47MOL0     C 6220   2.443   2.183   3.206 -0.0616 -0.0489 -0.7930
   47MOL0     C 6221   2.426   2.094   3.088  0.1228  0.9310  0.5170
   47MOL0     C 6222   2.289   2.008   3.081 -1.2955  0.1171 -0.2109
   47MOL0     C 6223   2.167   2.102   3.093 -0.6695  0.5028 -0.3630
   47MOL0     C 6224   2.035   2.016   3.064 -0.2023 -0.0592 -0.2750
   47MOL0     C 6225   2.034   1.889   3.151 -0.1885  0.1334  0.7794
   47MOL0     C 6226   1.898   1.824   3.152 -0.7700  0.4775  0.2016
   47MOL0     N 6227   1.835   1.801   3.027  0.2903 -0.0672 -0.1585
   47MOL0     C 6228   1.741   1.877   2.966 -0.2299 -0.5027  1.0947
   47MOL0     C 6229   1.688   1.804   2.866 -0.3840 -0.1492  0.3229
   47MOL0     C 6230   1.598   1.839   2.750 -0.4835 -0.2682  0.2659
   47MOL0     C 6231   1.455   1.873   2.787 -0.0653  0.1912 -0.3682
   47MOL0     C 6232   1.367   1.753   2.793 -0.3257 -0.7011 -0.6902
   47MOL0     C 6233   1.228   1.780   2.824  0.0911  0.2402 -0.6459
   47MOL0     O 6234   1.177   1.858   2.717  0.2987 -0.5394 -0.1292
   47MOL0     C 6235   1.045   1.902   2.714  0.0074  0.1641 -0.8559
   47MOL0     C 6236   0.950   1.883   2.819 -0.7428 -0.3604 -1.3328
   47MOL0     C 6237   0.823   1.933   2.811  0.1592  0.0906 -0.2621
   47MOL0     C 6238   0.732   1.928   2.937 -0.1335  0.0469  0.5123
   47MOL0     C 6239   0.784   2.001   2.691  0.1667  0.3232  0.3110
   47MOL0     C 6240   0.651   2.074   2.678 -0.7001  0.1698  0.0173
   47MOL0     O 6241   0.598   2.076   2.549 -0.2366 -0.2096  0.4418
   47MOL0     C 6242   0.464   2.110   2.536  0.8382 -0.1744 -0.8150
   47MOL0     C 6243   0.356   2.051   2.621  0.7260 -0.1013 -0.2738
   47MOL0     C 6244   0.221   2.084   2.599 -0.6750 -0.3355  0.6732
   47MOL0     C 6245   0.195   2.180   2.498 -0.3808  0.3022  0.2766
   47MOL0     O 6246   0.063   2.208   2.487  0.2785  0.0706  0.0330
   47MOL0     C 6247   0.017   2.306   2.395 -0.2454  0.7229  0.4574
   47MOL0     C 6248  -0.126   2.304   2.356  1.1962 -0.1636  0.8679
   47MOL0     C 6249  -0.161   2.443   2.294 -0.1226 -0.1010  0.1676
   47MOL0     C 6250  -0.312   2.442   2.252 -0.0245 -0.2570 -0.3342
   47MOL0     C 6251  -0.380   2.578   2.233 -0.1574  0.1278 -1.0760
   47MOL0     C 6252  -0.529   2.587   2.203  0.5112 -0.4337  0.3373
   47MOL0     C 6253  -0.560   2.737   2.187  0.1127 -0.5665 -0.4117
   47MOL0     C 6254  -0.703   2.766   2.135 -0.7207  0.5370  0.1962
   47MOL0    Cl 6255  -0.807   2.794   2.284  0.0646  0.1245  0.4896
   47MOL0     C 6256   0.295   2.233   2.418 -0.3415  0.2031  0.6187
   47MOL0     C 6257   0.430   2.190   2.430 -0.3062 -0.7871 -0.1459
   47MOL0     O 6258   0.590   2.119   2.779 -0.2724  0.4261 -0.2617
   47MOL0     C 6259   0.874   2.006   2.586  0.9600  0.5193  0.0661
   47MOL0     C 6260   1.002   1.954   2.598  0.5431 -1.4735 -0.7273
   47MOL0     N 6261   1.740   1.678   2.876 -0.6295 -0.0498  0.1483
   47MOL0     N 6262   1.835   1.681   2.970  0.1103  0.2187  0.6116
   47MOL0     C 6263   2.924   2.082   3.249  0.6414  0.4992 -0.1921
   47MOL0     C 6264   3.062   2.106   3.270  0.6398  0.2764 -0.1453
   47MOL0     C 6265   3.450   2.370   3.267 -0.1447  0.4099  0.3228
   47MOL0     C 6266   3.531   2.385   3.155 -0.5739 -0.4227  0.0108
   47MOL0     C 6267   3.661   2.442   3.157  0.3301  0.0281  0.5534
   47MOL0     C 6268   3.698   2.505   3.285  0.5891  0.0638 -0.4015
   47MOL0     O 6269   3.810   2.581   3.312 -0.2933  0.1234  0.1920
   47MOL0     C 6270   3.899   2.627   3.208  0.3689 -0.1393 -0.9407
   47MOL0     C 6271   4.002   2.522   3.176  0.2958 -0.0281 -0.0552
   47MOL0     C 6272   4.083   2.483   3.301  0.2844 -0.2693  0.9288
   47MOL0     C 6273   4.186   2.594   3.348 -0.3493 -0.0653 -0.8142
   47MOL0     C 6274   4.316   2.586   3.274  0.0022  0.3000  0.2923
   47MOL0     C 6275   4.422   2.610   3.216  1.1292  0.2848 -0.6750
   47MOL0     C 6276   3.611   2.488   3.402 -0.4448 -0.2102  0.6329
   47MOL0     C 6277   3.500   2.409   3.394 -0.5843 -0.6704  1.1382
   47MOL0     H 6278   3.037   2.443   3.326 -0.3013  1.1769 -1.9310
   47MOL0     H 6279   2.805   2.411   3.252  0.0392  0.3752  1.3564
   47MOL0     H 6280   2.580   2.333   3.282 -1.7546 -0.0478 -0.3663
   47MOL0     H 6281   2.597   2.305   3.114  0.6513  1.6829  1.6672
   47MOL0     H 6282   2.424   2.120   3.293  1.5281  0.3430 -0.1146
   47MOL0     H 6283   2.365   2.260   3.204  0.9483  1.0629  0.3434
   47MOL0     H 6284   2.432   2.153   2.996  2.6378 -4.0448 -2.9772
   47MOL0     H 6285   2.517   2.032   3.080  0.4364  1.4334  0.1351
   47MOL0     H 6286   2.280   1.951   2.988  1.2840 -3.3356  1.4710
   47MOL0     H 6287   2.293   1.943   3.169 -1.7304 -0.1508 -0.3865
   47MOL0     H 6288   2.168   2.146   3.193 -2.0151 -1.8173  0.7693
   47MOL0     H 6289   2.174   2.183   3.020  1.3570  3.5401  2.8991
   47MOL0     H 6290   1.946   2.078   3.078 -1.5894 -1.5570 -2.0098
   47MOL0     H 6291   2.029   1.995   2.957 -1.7967 -1.3312  0.0310
   47MOL0     H 6292   2.109   1.824   3.105 -0.2841 -0.5378  1.5525
   47MOL0     H 6293   2.069   1.894   3.254  1.4457  0.6496  0.2325
   47MOL0     H 6294   1.833   1.888   3.212  0.4663  1.9193  0.0668
   47MOL0     H 6295   1.919   1.738   3.217 -0.6256  0.4860  0.1672
   47MOL0     H 6296   1.735   1.984   2.983  2.3227  0.3423 -2.2333
   47MOL0     H 6297   1.638   1.922   2.691  1.5537 -0.6401  1.0372
   47MOL0     H 6298   1.597   1.757   2.678  0.3448  0.5254 -0.6768
   47MOL0     H 6299   1.414   1.934   2.706  1.0206 -1.5757 -2.3554
   47MOL0     H 6300   1.465   1.924   2.883  2.6468  0.3041 -0.6354
   47MOL0     H 6301   1.414   1.684   2.864  0.1342 -1.4884 -1.7294
   47MOL0     H 6302   1.367   1.704   2.696 -0.1140  1.2101 -1.6978
   47MOL0     H 6303   1.208   1.824   2.922 -1.7415 -2.6615  0.4252
   47MOL0     H 6304   1.173   1.685   2.828 -1.7803  1.1877 -1.8985
   47MOL0     H 6305   0.980   1.827   2.907 -1.2249 -0.5488 -1.2815
   47MOL0     H 6306   0.789   1.892   3.023  1.8449  3.0918  0.6290
   47MOL0     H 6307   0.706   2.027   2.974 -2.2009 -0.7523  1.3298
   47MOL0     H 6308   0.645   1.862   2.933 -0.1367  0.0193  0.9909
   47MOL0     H 6309   0.385   1.989   2.705 -0.1870 -1.2991 -0.8297
   47MOL0     H 6310   0.139   2.049   2.660 -3.3371 -1.8303 -3.3634
   47MOL0     H 6311   0.035   2.409   2.428 -0.1511  0.2315  1.9827
   47MOL0     H 6312   0.075   2.286   2.304 -0.5627  0.5469  0.2918
   47MOL0     H 6313  -0.139   2.222   2.284 -1.7380  0.2298  0.8275
   47MOL0     H 6314  -0.194   2.275   2.436 -1.8952 -1.1927 -1.8781
   47MOL0     H 6315  -0.103   2.472   2.206  1.1294 -3.1453 -0.1316
   47MOL0     H 6316  -0.146   2.517   2.373 -1.6153 -1.2023  1.5494
   47MOL0     H 6317  -0.330   2.375   2.167  0.4393 -0.6737 -0.1061
   47MOL0     H 6318  -0.374   2.416   2.338  1.1834 -0.2384  0.5697
   47MOL0     H 6319  -0.326   2.628   2.152 -2.3966  1.9425 -1.5413
   47MOL0     H 6320  -0.363   2.633   2.327  1.7663  0.3729 -1.5187
   47MOL0     H 6321  -0.555   2.524   2.118  2.2348 -0.7866  0.0331
   47MOL0     H 6322  -0.595   2.551   2.283  0.0023 -1.7717 -0.6455
   47MOL0     H 6323  -0.494   2.771   2.107  0.9818 -0.0899  0.4950
   47MOL0     H 6324  -0.529   2.802   2.269  2.0010 -0.0552 -1.4779
   47MOL0     H 6325  -0.742   2.683   2.075 -1.9766  0.6266  0.8703
   47MOL0     H 6326  -0.708   2.861   2.080 -0.6081  1.0222  1.0093
   47MOL0     H 6327   0.274   2.316   2.353  0.0810  0.5338  0.8983
   47MOL0     H 6328   0.512   2.232   2.372 -0.1669 -0.7956  0.0461
   47MOL0     H 6329   0.842   2.035   2.486 -1.6363  1.0813  0.9713
   47MOL0     H 6330   1.069   1.960   2.513  0.1768  0.4066 -0.9392
   47MOL0     H 6331   2.894   1.978   3.242 -2.4465  1.4112 -2.8644
   47MOL0     H 6332   3.133   2.025   3.254 -2.1632 -3.1688  3.1891
   47MOL0     H 6333   3.504   2.345   3.057  0.4856 -0.1242 -0.4155
   47MOL0     H 6334   3.720   2.428   3.067  0.2845  0.7414  0.4049
   47MOL0     H 6335   3.835   2.654   3.124 -1.1484  1.7251  0.7198
   47MOL0     H 6336   3.943   2.719   3.248 -1.0950  0.3392 -0.3696
   47MOL0     H 6337   4.075   2.554   3.101 -0.5333 -0.7922 -1.2372
   47MOL0     H 6338   3.946   2.435   3.142 -0.6825 -1.1686  3.9429
   47MOL0     H 6339   4.140   2.391   3.285  0.9788  0.5149 -1.5532
   47MOL0     H 6340   4.011   2.456   3.379 -2.2123  0.0203 -1.1407
   47MOL0     H 6341   4.217   2.582   3.453 -1.7762  2.3931 -0.0218
   47MOL0     H 6342   4.142   2.693   3.335 -2.0733  0.1610  4.3898
   47MOL0     H 6343   4.522   2.617   3.179  2.0362 -1.6285  1.2366
   47MOL0     H 6344   3.649   2.533   3.494 -1.2085 -3.5102  2.7091
   47MOL0     H 6345   3.455   2.394   3.491 -0.6265 -0.7907  1.0999
   48MOL0     O 6346   4.660   4.599   7.630  0.5135  0.5453 -0.1373
   48MOL0     C 6347   4.626   4.705   7.591  0.1480  0.9635  0.1090
   48MOL0     O 6348   4.512   4.768   7.623 -0.4526 -0.0263  0.0742
   48MOL0     C 6349   4.426   4.704   7.710 -0.4433 -0.4486  0.4032
   48MOL0     C 6350   4.309   4.643   7.657  0.4281  0.7899 -0.2722
   48MOL0     C 6351   4.211   4.582   7.745  0.3279 -0.4552 -0.2101
   48MOL0     C 6352   4.230   4.582   7.883 -0.1377  0.5401  0.2612
   48MOL0     O 6353   4.137   4.515   7.965 -0.4729  0.0227  0.6093
   48MOL0     C 6354   4.143   4.538   8.103 -1.0453 -0.0175 -0.7081
   48MOL0     C 6355   4.018   4.484   8.174  0.5293  0.3523  0.1703
   48MOL0     C 6356   3.997   4.521   8.321 -0.3315  0.3530 -0.0331
   48MOL0     C 6357   3.873   4.445   8.372 -0.2310  0.3513  0.6456
   48MOL0     C 6358   3.816   4.464   8.514  0.7137 -0.7732 -0.7487
   48MOL0     C 6359   3.772   4.607   8.529 -0.4168  1.5487  1.0469
   48MOL0     C 6360   3.679   4.631   8.650 -0.6994 -1.0176 -0.0269
   48MOL0     C 6361   3.548   4.566   8.630  0.2860 -0.6531  0.4803
   48MOL0     N 6362   3.445   4.609   8.729  0.7328 -0.4301 -0.0125
   48MOL0     C 6363   3.313   4.630   8.716  0.5498  0.0474  0.0530
   48MOL0     C 6364   3.263   4.648   8.841  0.5564 -0.5088 -0.2869
   48MOL0     C 6365   3.123   4.712   8.855  0.5578  0.7790 -0.3604
   48MOL0     C 6366   3.019   4.606   8.829 -0.1355  1.0768 -0.0276
   48MOL0     C 6367   2.884   4.673   8.791 -0.1209 -0.4279 -0.0636
   48MOL0     C 6368   2.798   4.713   8.914 -0.7499  0.0972  0.0702
   48MOL0     O 6369   2.749   4.594   8.983 -1.1558  0.3186  0.3356
   48MOL0     C 6370   2.675   4.616   9.096  0.3705  0.3360  0.3816
   48MOL0     C 6371   2.711   4.586   9.227 -0.0394 -0.4730  0.2255
   48MOL0     C 6372   2.635   4.617   9.339  0.2777  0.8302  0.2689
   48MOL0     C 6373   2.691   4.567   9.470 -0.2683  0.8188  0.4606
   48MOL0     C 6374   2.503   4.675   9.324  0.3752 -0.2497 -0.0567
   48MOL0     C 6375   2.416   4.711   9.439 -0.1210  0.6470  0.4458
   48MOL0     O 6376   2.286   4.703   9.404  0.6152  0.0002 -0.3973
   48MOL0     C 6377   2.181   4.730   9.484 -0.2969  0.2791  0.1539
   48MOL0     C 6378   2.175   4.742   9.629 -0.1689 -0.6712 -0.5262
   48MOL0     C 6379   2.055   4.774   9.695 -0.3171  0.1568 -0.2400
   48MOL0     C 6380   1.941   4.797   9.622  0.4287  0.7903 -1.2589
   48MOL0     O 6381   1.831   4.840   9.696  0.1674  0.4735  0.5293
   48MOL0     C 6382   1.694   4.822   9.651  0.3327  0.6460  0.4433
   48MOL0     C 6383   1.598   4.914   9.743  0.7635  0.4547  0.3340
   48MOL0     C 6384   1.627   4.910   9.886  0.4458 -0.5797 -0.2699
   48MOL0     C 6385   1.639   4.765   9.955  0.1339 -0.6406  0.7950
   48MOL0     C 6386   1.507   4.691   9.912 -1.0873 -0.6333 -0.1791
   48MOL0     C 6387   1.483   4.570  10.000 -0.2439  0.9065 -0.5743
   48MOL0     C 6388   1.355   4.491   9.950  0.0750 -0.5982 -0.2232
   48MOL0     C 6389   1.323   4.354  10.028 -0.4940  0.2665  0.9397
   48MOL0    Cl 6390   1.462   4.234  10.054 -0.4188  0.1844 -0.4793
   48MOL0     C 6391   1.946   4.785   9.482  0.9952 -0.0295 -0.2236
   48MOL0     C 6392   2.061   4.758   9.419  0.4199  0.1634  0.5663
   48MOL0     O 6393   2.458   4.732   9.551 -0.6773 -0.2499  0.0069
   48MOL0     C 6394   2.466   4.705   9.190 -0.2359 -0.6886  0.3873
   48MOL0     C 6395   2.552   4.679   9.083 -0.5981  0.0960  0.4125
   48MOL0     N 6396   3.368   4.656   8.926  0.2637 -0.0824  0.0624
   48MOL0     N 6397   3.476   4.624   8.860 -0.4207  0.4574  0.0305
   48MOL0     C 6398   4.347   4.643   7.934 -0.3877 -0.1256  0.0231
   48MOL0     C 6399   4.446   4.694   7.850 -0.5172  0.2393  0.2856
   48MOL0     C 6400   4.727   4.784   7.505  0.1411 -0.0967 -0.3037
   48MOL0     C 6401   4.697   4.920   7.472  0.2487 -0.0988  0.8335
   48MOL0     C 6402   4.774   4.988   7.378 -0.6410  0.2761  0.2345
   48MOL0     C 6403   4.893   4.937   7.324 -0.4410 -0.0498  0.1852
   48MOL0     O 6404   4.977   5.017   7.242 -0.5275  0.2283 -0.1617
   48MOL0     C 6405   5.032   5.137   7.308 -0.4277  0.7785  0.5551
   48MOL0     C 6406   5.099   5.212   7.196 -0.1501  0.2937 -0.0007
   48MOL0     C 6407   5.157   5.341   7.268 -0.2276 -0.5749 -0.8365
   48MOL0     C 6408   5.270   5.391   7.186  0.1970  0.0739 -0.1713
   48MOL0     C 6409   5.387   5.299   7.202 -0.4779 -0.7096 -0.2153
   48MOL0     C 6410   5.482   5.234   7.221 -0.2512 -0.3661  0.0018
   48MOL0     C 6411   4.927   4.806   7.371 -0.1269 -0.6207 -0.2121
   48MOL0     C 6412   4.845   4.726   7.453 -0.0588 -0.5556 -1.0692
   48MOL0     H 6413   4.289   4.645   7.550 -1.0965  0.2315 -0.0255
   48MOL0     H 6414   4.125   4.533   7.700  1.1770 -0.3555 -2.0221
   48MOL0     H 6415   4.225   4.482   8.148 -3.1346  0.5408  4.4721
   48MOL0     H 6416   4.151   4.647   8.106 -2.7609  0.1674 -1.6449
   48MOL0     H 6417   3.934   4.518   8.113  1.6990  1.6120 -0.8044
   48MOL0     H 6418   4.024   4.376   8.162 -1.1669  0.4577 -2.5894
   48MOL0     H 6419   4.080   4.498   8.388  0.4499  0.0299 -1.0821
   48MOL0     H 6420   3.978   4.629   8.326  0.0788  0.4696 -0.7517
   48MOL0     H 6421   3.790   4.439   8.302 -1.6334  1.2473  2.1708
   48MOL0     H 6422   3.899   4.340   8.391 -2.2664  0.1403  2.5774
   48MOL0     H 6423   3.728   4.400   8.524 -1.0595  1.7342  0.6275
   48MOL0     H 6424   3.890   4.446   8.593  1.2136 -1.8737 -1.4398
   48MOL0     H 6425   3.858   4.674   8.523  0.4001  0.4607 -0.0797
   48MOL0     H 6426   3.715   4.629   8.438  0.0853 -0.1160  0.2775
   48MOL0     H 6427   3.724   4.585   8.738  1.2343  0.9867  0.1336
   48MOL0     H 6428   3.671   4.739   8.665 -2.1740 -0.9088 -1.2878
   48MOL0     H 6429   3.565   4.461   8.655  2.9511 -0.2199  0.7108
   48MOL0     H 6430   3.507   4.585   8.530  1.7369 -0.1616 -0.0518
   48MOL0     H 6431   3.260   4.634   8.621 -1.0116 -1.6562  0.7791
   48MOL0     H 6432   3.091   4.754   8.950 -2.5776  2.0102 -1.8186
   48MOL0     H 6433   3.131   4.784   8.773  1.2771 -0.2066 -1.1971
   48MOL0     H 6434   2.997   4.550   8.921 -1.4040  1.8909  0.1980
   48MOL0     H 6435   3.045   4.530   8.756  0.1577 -0.4948  1.6314
   48MOL0     H 6436   2.838   4.587   8.740  0.9946 -2.0435  1.5338
   48MOL0     H 6437   2.891   4.758   8.723 -1.6327 -0.5867 -0.4535
   48MOL0     H 6438   2.731   4.795   8.884  0.8802  1.3140 -0.3947
   48MOL0     H 6439   2.865   4.774   8.975  0.5281  0.2271 -1.3976
   48MOL0     H 6440   2.807   4.539   9.244  0.0848 -0.6956 -0.9823
   48MOL0     H 6441   2.787   4.518   9.486 -1.4759 -1.1744  2.0160
   48MOL0     H 6442   2.701   4.655   9.534 -2.4528  2.9699 -1.8990
   48MOL0     H 6443   2.617   4.499   9.514 -1.5486 -0.0110 -2.6514
   48MOL0     H 6444   2.264   4.737   9.691  0.0226 -0.6275 -0.7964
   48MOL0     H 6445   2.055   4.788   9.803  0.9131  1.1098 -0.3401
   48MOL0     H 6446   1.682   4.844   9.545  0.6576 -1.9955 -0.2303
   48MOL0     H 6447   1.679   4.713   9.657 -1.1444  0.7303 -1.0390
   48MOL0     H 6448   1.596   5.017   9.707  0.9476  0.3853  0.1207
   48MOL0     H 6449   1.495   4.877   9.734  1.4013 -1.2535 -0.5099
   48MOL0     H 6450   1.548   4.968   9.934  0.9390 -0.9902  1.0794
   48MOL0     H 6451   1.712   4.978   9.900 -0.0359 -0.2192  1.0710
   48MOL0     H 6452   1.728   4.712   9.920  0.4713 -0.5551  1.5170
   48MOL0     H 6453   1.647   4.772  10.064  0.7619 -1.0098  0.7810
   48MOL0     H 6454   1.519   4.665   9.806  0.2732 -0.4831 -0.0786
   48MOL0     H 6455   1.421   4.758   9.909 -1.9729 -1.7293  0.1368
   48MOL0     H 6456   1.557   4.493   9.979 -1.3762  0.1827 -2.1643
   48MOL0     H 6457   1.479   4.580  10.108 -0.1283 -0.0221 -0.4751
   48MOL0     H 6458   1.366   4.458   9.846 -1.0999 -0.8548 -0.2778
   48MOL0     H 6459   1.265   4.552   9.957  0.1799 -0.3326 -0.9859
   48MOL0     H 6460   1.249   4.289   9.979 -0.2195  2.3727 -2.6518
   48MOL0     H 6461   1.287   4.398  10.121 -0.6933  4.4729 -0.9270
   48MOL0     H 6462   1.850   4.804   9.436 -0.1080  2.4811  2.7189
   48MOL0     H 6463   2.054   4.749   9.311 -3.2027 -0.2853  0.7204
   48MOL0     H 6464   2.371   4.752   9.170 -0.5696 -0.1183  2.9199
   48MOL0     H 6465   2.529   4.717   8.984 -0.8933 -0.9182  0.0889
   48MOL0     H 6466   4.379   4.625   8.037 -1.9860  1.4741  0.8453
   48MOL0     H 6467   4.539   4.724   7.898 -1.1901  2.4512  0.2846
   48MOL0     H 6468   4.603   4.962   7.506  0.7900  1.9279 -0.0639
   48MOL0     H 6469   4.748   5.087   7.343 -0.6072 -0.6265 -2.6068
   48MOL0     H 6470   4.952   5.195   7.354 -1.6452  0.6085 -1.2374
   48MOL0     H 6471   5.105   5.112   7.385 -0.4178 -1.1838 -0.0375
   48MOL0     H 6472   5.022   5.240   7.123  1.5100 -0.0445 -1.9774
   48MOL0     H 6473   5.175   5.151   7.147 -0.4396  1.4587 -2.0165
   48MOL0     H 6474   5.190   5.322   7.371 -0.2586  0.7444 -0.5705
   48MOL0     H 6475   5.076   5.414   7.282  1.0258  0.3888  2.5353
   48MOL0     H 6476   5.294   5.492   7.221  0.8906 -0.0150 -0.3596
   48MOL0     H 6477   5.250   5.388   7.078  0.4323 -2.2857 -0.1960
   48MOL0     H 6478   5.560   5.160   7.220  0.2959  0.1727 -1.7940
   48MOL0     H 6479   5.025   4.765   7.352 -0.3192 -2.0286  1.6403
   48MOL0     H 6480   4.876   4.627   7.483 -0.4116  0.2775  2.4938
   49MOL0     O 6481   7.048   2.082   1.004 -0.7329 -0.0716  0.1250
   49MOL0     C 6482   7.015   1.978   0.949 -0.5117  0.2463 -0.1348
   49MOL0     O 6483   6.897   1.926   0.935  0.0308  0.2367  0.2276
   49MOL0     C 6484   6.780   1.978   0.995  0.6149  0.0609  0.7866
   49MOL0     C 6485   6.764   2.106   1.043  0.2625  0.5800  0.2652
   49MOL0     C 6486   6.645   2.150   1.098 -0.0523  0.1168  0.2957
   49MOL0     C 6487   6.535   2.075   1.085  0.2534  0.6553 -0.5137
   49MOL0     O 6488   6.414   2.126   1.132 -0.2793 -0.2422 -0.0317
   49MOL0     C 6489   6.355   2.029   1.225 -0.3854 -0.4902 -0.1559
   49MOL0     C 6490   6.232   2.100   1.288 -0.9373 -0.4128  0.4443
   49MOL0     C 6491   6.129   2.136   1.174  0.3996 -0.2300 -0.1874
   49MOL0     C 6492   6.059   2.011   1.107  1.0091  0.8618 -0.1193
   49MOL0     C 6493   5.954   2.040   1.002 -0.9966 -0.0718 -0.1089
   49MOL0     C 6494   5.894   1.910   0.947  0.1614  0.2623  0.5614
   49MOL0     C 6495   5.829   1.925   0.806 -0.6914  1.1796  0.4414
   49MOL0     C 6496   5.800   1.781   0.763  0.6475  0.3169  0.5553
   49MOL0     N 6497   5.676   1.742   0.844 -0.7241 -0.8128  0.2003
   49MOL0     C 6498   5.551   1.763   0.798 -0.0091  0.3478  0.3547
   49MOL0     C 6499   5.464   1.722   0.893 -1.0562  0.4088  1.1457
   49MOL0     C 6500   5.321   1.749   0.908  1.1463  0.6653 -0.1020
   49MOL0     C 6501   5.243   1.724   0.781 -0.2470 -0.8830 -0.0869
   49MOL0     C 6502   5.088   1.718   0.794  0.0774 -0.3108  0.4434
   49MOL0     C 6503   5.020   1.843   0.846 -0.2347  0.1088  0.0780
   49MOL0     O 6504   4.878   1.842   0.893 -0.1656 -1.0060 -0.5079
   49MOL0     C 6505   4.777   1.785   0.812 -0.5477 -0.0899  0.3443
   49MOL0     C 6506   4.776   1.781   0.673  0.2593 -0.1563  0.5469
   49MOL0     C 6507   4.671   1.722   0.597  0.3431 -0.3259 -0.2929
   49MOL0     C 6508   4.673   1.737   0.450 -0.4087 -0.3143 -0.3141
   49MOL0     C 6509   4.560   1.673   0.679 -0.0973  0.7690 -0.0029
   49MOL0     C 6510   4.439   1.623   0.613 -0.5500 -0.6267  0.2393
   49MOL0     O 6511   4.354   1.731   0.588 -0.8353 -0.3532  0.1283
   49MOL0     C 6512   4.244   1.688   0.508  0.1813 -0.9949 -0.3896
   49MOL0     C 6513   4.257   1.712   0.370  0.0177 -0.0534 -0.2602
   49MOL0     C 6514   4.151   1.689   0.285  0.1233 -0.2645  0.6214
   49MOL0     C 6515   4.035   1.642   0.337 -0.5615  0.7425  0.4001
   49MOL0     O 6516   3.927   1.615   0.260  0.0191  0.2867 -0.1472
   49MOL0     C 6517   3.936   1.622   0.115 -0.5825 -0.6670 -0.6616
   49MOL0     C 6518   3.810   1.604   0.035  0.1590  0.1390  0.2877
   49MOL0     C 6519   3.714   1.490   0.086 -0.9902  0.0763  0.1231
   49MOL0     C 6520   3.601   1.478  -0.018 -0.5656  0.2588 -0.7940
   49MOL0     C 6521   3.482   1.398   0.029 -0.9305 -0.1146 -0.0480
   49MOL0     C 6522   3.390   1.366  -0.085  0.3040  0.4843  0.0923
   49MOL0     C 6523   3.323   1.491  -0.146  0.4051 -0.1440  0.0841
   49MOL0     C 6524   3.181   1.473  -0.192 -0.0591  0.2516  0.1108
   49MOL0    Cl 6525   3.174   1.316  -0.291 -0.1135  0.1646 -0.0191
   49MOL0     C 6526   4.025   1.604   0.475  0.1196 -0.5561 -0.2231
   49MOL0     C 6527   4.134   1.629   0.561 -1.0006  0.9434 -0.4103
   49MOL0     O 6528   4.423   1.504   0.588 -0.4323 -0.2837  0.5733
   49MOL0     C 6529   4.563   1.687   0.825  0.3687  0.1590  0.0375
   49MOL0     C 6530   4.671   1.741   0.888  0.7701  0.3305  0.1002
   49MOL0     N 6531   5.548   1.673   0.998  0.2757 -0.1478  0.7448
   49MOL0     N 6532   5.670   1.679   0.964 -0.0285  0.3304  0.4944
   49MOL0     C 6533   6.545   1.950   1.023  1.2338 -0.5799  0.7993
   49MOL0     C 6534   6.664   1.904   0.973  0.0695  0.5993  0.7220
   49MOL0     C 6535   7.126   1.899   0.900  0.1052  1.4015 -0.6548
   49MOL0     C 6536   7.261   1.926   0.936 -0.6227  0.5309 -0.0973
   49MOL0     C 6537   7.367   1.851   0.889 -0.6988  0.0365 -0.2918
   49MOL0     C 6538   7.345   1.749   0.802 -0.3764 -0.1423 -0.5023
   49MOL0     O 6539   7.463   1.684   0.748  0.1332 -0.2527  0.4159
   49MOL0     C 6540   7.437   1.581   0.657 -0.0247 -0.4700  0.0501
   49MOL0     C 6541   7.570   1.515   0.637 -0.4538 -0.0438  0.8756
   49MOL0     C 6542   7.678   1.603   0.566 -0.1085 -0.1294  0.1820
   49MOL0     C 6543   7.804   1.521   0.547 -0.0577 -0.5679  0.5238
   49MOL0     C 6544   7.926   1.603   0.526 -0.7788  0.3697 -0.0809
   49MOL0     C 6545   8.035   1.657   0.492  0.2880 -0.3295 -0.2934
   49MOL0     C 6546   7.213   1.711   0.771  0.0759  0.0933 -0.1432
   49MOL0     C 6547   7.103   1.793   0.812 -1.4274 -0.5858  0.4075
   49MOL0     H 6548   6.846   2.176   1.052  0.2302  0.5887  0.4939
   49MOL0     H 6549   6.638   2.251   1.138  3.7065  0.6525 -0.0053
   49MOL0     H 6550   6.314   1.935   1.188  0.7773 -1.9474  2.0292
   49MOL0     H 6551   6.424   2.000   1.305  1.5298 -1.9386 -2.1953
   49MOL0     H 6552   6.184   2.030   1.357 -1.4449 -4.3592 -3.4540
   49MOL0     H 6553   6.258   2.201   1.322  2.1267  0.1043 -2.8528
   49MOL0     H 6554   6.053   2.194   1.226  0.2848  1.0072 -1.6695
   49MOL0     H 6555   6.172   2.203   1.099  0.2667  3.0444  2.4504
   49MOL0     H 6556   6.131   1.954   1.048  0.8645  1.6281 -1.0533
   49MOL0     H 6557   6.019   1.942   1.182 -0.3998  0.3058 -1.3318
   49MOL0     H 6558   5.873   2.100   1.046 -1.9149 -1.5257  0.2744
   49MOL0     H 6559   6.013   2.087   0.923  1.5118 -2.3655  0.2235
   49MOL0     H 6560   5.967   1.829   0.942  1.1716  1.1979 -2.8027
   49MOL0     H 6561   5.812   1.882   1.013  0.4319  0.6168  1.0509
   49MOL0     H 6562   5.735   1.982   0.801 -0.6148  1.2631 -0.0961
   49MOL0     H 6563   5.897   1.967   0.731 -0.9634 -2.6976 -2.2507
   49MOL0     H 6564   5.882   1.709   0.775  1.8112  1.4691 -0.2320
   49MOL0     H 6565   5.779   1.780   0.656  2.0034  1.3091  0.2508
   49MOL0     H 6566   5.529   1.810   0.702  3.4048  0.9203 -0.2797
   49MOL0     H 6567   5.281   1.673   0.976 -0.5098 -0.8612 -2.5973
   49MOL0     H 6568   5.311   1.854   0.938  1.3065  0.6401  0.0370
   49MOL0     H 6569   5.286   1.632   0.740  1.9721  0.5364 -1.0922
   49MOL0     H 6570   5.278   1.807   0.720 -3.6889  0.9905  0.2216
   49MOL0     H 6571   5.058   1.630   0.852 -1.6989 -2.0535 -2.8566
   49MOL0     H 6572   5.054   1.693   0.693  1.1152  1.1687 -0.3139
   49MOL0     H 6573   5.039   1.919   0.769  0.6320  0.4983  0.6491
   49MOL0     H 6574   5.082   1.874   0.931  0.2284  0.3052 -0.3239
   49MOL0     H 6575   4.856   1.825   0.615  3.0061 -1.2244  3.2695
   49MOL0     H 6576   4.586   1.692   0.400 -2.8021  2.9819  0.5110
   49MOL0     H 6577   4.664   1.845   0.432  0.0358  0.7726  4.6818
   49MOL0     H 6578   4.765   1.687   0.420  1.0189  0.2229  2.8227
   49MOL0     H 6579   4.345   1.756   0.323  1.1763  1.6276  3.1320
   49MOL0     H 6580   4.177   1.705   0.181  1.7245  3.2624  1.4243
   49MOL0     H 6581   3.975   1.720   0.086 -1.0041 -0.2684  0.0962
   49MOL0     H 6582   4.012   1.550   0.084  2.6149  2.8016 -1.6758
   49MOL0     H 6583   3.764   1.704   0.040  0.6146  0.3042  1.3573
   49MOL0     H 6584   3.830   1.577  -0.069 -2.0993 -1.2905  0.1455
   49MOL0     H 6585   3.689   1.514   0.189  1.8674  2.6475  0.3582
   49MOL0     H 6586   3.758   1.390   0.070  0.2149  0.6222 -0.1017
   49MOL0     H 6587   3.582   1.584  -0.037  1.9761  0.6051 -1.7813
   49MOL0     H 6588   3.648   1.437  -0.108  1.2877  1.7272 -0.5629
   49MOL0     H 6589   3.425   1.439   0.113  0.4095 -0.3028  0.9848
   49MOL0     H 6590   3.510   1.305   0.078 -0.5551  0.2019  0.3430
   49MOL0     H 6591   3.452   1.303  -0.149  0.6354 -1.9032  2.5776
   49MOL0     H 6592   3.306   1.303  -0.055  2.3996 -1.9272  1.2602
   49MOL0     H 6593   3.391   1.520  -0.226 -0.1673 -1.4941 -0.9325
   49MOL0     H 6594   3.322   1.569  -0.070 -0.1589  0.0241 -0.0893
   49MOL0     H 6595   3.141   1.556  -0.250 -0.3562  2.3595  3.1088
   49MOL0     H 6596   3.122   1.472  -0.100  0.4035 -1.5805  0.4344
   49MOL0     H 6597   3.944   1.547   0.518  2.8357 -2.1679  3.2778
   49MOL0     H 6598   4.109   1.615   0.666 -1.0765 -1.3477 -0.6795
   49MOL0     H 6599   4.485   1.641   0.885 -2.0620  1.8454 -1.6338
   49MOL0     H 6600   4.671   1.736   0.996  0.1209  0.9619  0.1438
   49MOL0     H 6601   6.449   1.903   1.006  0.9829  0.4415 -0.8236
   49MOL0     H 6602   6.667   1.814   0.911 -0.3669  0.6875  0.5729
   49MOL0     H 6603   7.286   1.999   1.012  2.6414 -1.0722  0.5483
   49MOL0     H 6604   7.465   1.887   0.919 -0.2003 -2.4631  1.3088
   49MOL0     H 6605   7.357   1.513   0.688 -2.6299  0.8140 -3.2354
   49MOL0     H 6606   7.393   1.615   0.563  0.1438 -0.7444 -0.1289
   49MOL0     H 6607   7.563   1.418   0.587  0.4303  0.1082  0.4524
   49MOL0     H 6608   7.606   1.503   0.740 -0.4749 -1.0642  0.7734
   49MOL0     H 6609   7.704   1.698   0.614  0.4018  0.4994 -1.2901
   49MOL0     H 6610   7.640   1.623   0.465 -2.1477  2.2825  1.2994
   49MOL0     H 6611   7.792   1.453   0.463 -0.5822 -0.8557  0.8310
   49MOL0     H 6612   7.817   1.464   0.640  2.6359 -2.0197 -0.6320
   49MOL0     H 6613   8.119   1.707   0.449 -0.1131  1.6641  1.0916
   49MOL0     H 6614   7.189   1.611   0.738 -0.4807  0.2085 -0.1013
   49MOL0     H 6615   7.006   1.774   0.767 -0.8328 -0.9095 -0.7925
   50MOL0     O 6616  10.175   9.629   2.565  0.0804  0.5508  0.1026
   50MOL0     C 6617  10.249   9.555   2.631 -0.4162 -0.5086 -0.4910
   50MOL0     O 6618  10.250   9.543   2.769 -0.4829 -0.5595  0.0909
   50MOL0     C 6619  10.162   9.589   2.864  0.8644  0.5241  0.2838
   50MOL0     C 6620  10.157   9.530   2.984  0.0098 -0.4436 -0.7752
   50MOL0     C 6621  10.069   9.554   3.084  0.3679 -0.7172 -0.0730
   50MOL0     C 6622   9.970   9.654   3.060 -0.0606  0.2908 -0.7100
   50MOL0     O 6623   9.874   9.693   3.155 -0.8809  0.4970  0.1451
   50MOL0     C 6624   9.897   9.675   3.294 -0.8655  0.2018 -0.0371
   50MOL0     C 6625   9.775   9.729   3.373  0.1727 -0.3833 -0.6848
   50MOL0     C 6626   9.803   9.757   3.520 -0.3763 -0.0189  0.2190
   50MOL0     C 6627   9.886   9.880   3.554 -0.5636  0.1270 -0.5245
   50MOL0     C 6628   9.866   9.918   3.708 -0.3844  0.2489  0.8711
   50MOL0     C 6629   9.962  10.025   3.752 -0.6578  0.1463 -0.4029
   50MOL0     C 6630   9.948  10.053   3.908  0.1338  0.4210  0.6886
   50MOL0     C 6631  10.035   9.958   3.998 -0.3094 -0.1683  0.6762
   50MOL0     N 6632  10.167  10.011   4.025 -0.4905  0.0095  0.2092
   50MOL0     C 6633  10.263  10.046   3.936  0.1985 -0.0383 -1.0796
   50MOL0     C 6634  10.365  10.079   4.015  0.1808 -0.4549 -0.5506
   50MOL0     C 6635  10.491  10.117   3.950 -0.9441 -0.3510  0.4669
   50MOL0     C 6636  10.534  10.258   3.971  0.6444  0.3826  0.3443
   50MOL0     C 6637  10.491  10.348   3.849  1.5602 -0.0153  0.5193
   50MOL0     C 6638  10.343  10.391   3.842 -0.4531  0.1062 -0.5225
   50MOL0     O 6639  10.261  10.310   3.752 -0.3620  0.3896  0.4284
   50MOL0     C 6640  10.125  10.336   3.735 -0.1854  0.6165 -0.0055
   50MOL0     C 6641  10.069  10.314   3.608 -0.2903 -0.7898 -0.3540
   50MOL0     C 6642   9.928  10.343   3.590 -0.5758 -0.8164 -0.6087
   50MOL0     C 6643   9.866  10.291   3.461 -0.3219 -0.8937  0.1746
   50MOL0     C 6644   9.854  10.409   3.695 -0.1037 -1.3697  1.2427
   50MOL0     C 6645   9.705  10.437   3.690 -0.0707  0.4992  0.2926
   50MOL0     O 6646   9.652  10.529   3.779 -0.5562 -0.7329 -0.1019
   50MOL0     C 6647   9.515  10.550   3.783 -0.5329 -0.7782  0.4191
   50MOL0     C 6648   9.452  10.616   3.673  0.1827  0.0288 -0.2257
   50MOL0     C 6649   9.324  10.645   3.693  0.0878 -0.4667 -0.3241
   50MOL0     C 6650   9.245  10.606   3.807 -0.3707 -0.2249  0.3724
   50MOL0     O 6651   9.109  10.631   3.807  0.0039 -0.2898 -0.4486
   50MOL0     C 6652   9.076  10.768   3.818  0.2944  0.4909  0.2615
   50MOL0     C 6653   8.951  10.786   3.900 -0.0167 -0.7451 -0.0784
   50MOL0     C 6654   8.961  10.701   4.027 -0.6349  0.8829  0.1619
   50MOL0     C 6655   8.846  10.732   4.122  0.7680  0.2797  0.8395
   50MOL0     C 6656   8.700  10.698   4.076 -0.0152  0.1472 -0.1825
   50MOL0     C 6657   8.606  10.720   4.198  0.5386  0.2446  0.0765
   50MOL0     C 6658   8.589  10.870   4.218  0.3230  0.7783  0.0249
   50MOL0     C 6659   8.453  10.898   4.275 -0.3670  0.2253 -0.2373
   50MOL0    Cl 6660   8.448  10.814   4.421  0.0102 -0.3455  0.1281
   50MOL0     C 6661   9.311  10.557   3.914 -0.0178  0.6959 -0.2585
   50MOL0     C 6662   9.446  10.527   3.900  0.3842 -0.5394 -0.0779
   50MOL0     O 6663   9.635  10.371   3.613  0.9512 -0.1579 -0.2628
   50MOL0     C 6664   9.918  10.430   3.817 -0.1994  0.4779 -0.6706
   50MOL0     C 6665  10.049  10.395   3.841  0.5239  1.4078  0.6709
   50MOL0     N 6666  10.330  10.069   4.149 -0.8010 -0.3428 -0.3863
   50MOL0     N 6667  10.214  10.026   4.156  0.6790  0.6230  0.1934
   50MOL0     C 6668   9.973   9.727   2.945 -0.6793 -0.6757  1.4812
   50MOL0     C 6669  10.064   9.693   2.845  0.3743  0.4681  0.1286
   50MOL0     C 6670  10.352   9.469   2.564  0.0532  0.2509  0.8149
   50MOL0     C 6671  10.388   9.343   2.624  0.1024  0.2004 -0.3455
   50MOL0     C 6672  10.502   9.275   2.568  0.7191 -0.2904 -0.7872
   50MOL0     C 6673  10.574   9.337   2.463  0.6266 -0.0748 -0.3441
   50MOL0     O 6674  10.688   9.293   2.396 -0.4866  0.3554 -0.1402
   50MOL0     C 6675  10.711   9.149   2.381  0.0469 -0.4138 -0.3291
   50MOL0     C 6676  10.839   9.095   2.448 -0.6081 -1.2004 -0.7628
   50MOL0     C 6677  10.963   9.168   2.406  0.2298 -0.7236 -1.0875
   50MOL0     C 6678  10.984   9.157   2.261 -0.6938 -0.2570  0.0717
   50MOL0     C 6679  11.123   9.190   2.233 -0.1695  0.4522 -0.1335
   50MOL0     C 6680  11.239   9.210   2.206  0.0369 -1.1398  0.0462
   50MOL0     C 6681  10.537   9.460   2.408  0.7244  0.8808 -0.2210
   50MOL0     C 6682  10.427   9.524   2.463 -0.2707 -1.1909 -0.5910
   50MOL0     H 6683  10.240   9.463   3.003  1.6560  1.7013  0.0410
   50MOL0     H 6684  10.072   9.500   3.178  0.3257 -2.1828 -0.8939
   50MOL0     H 6685   9.910   9.568   3.311  1.3308  0.3330 -0.7127
   50MOL0     H 6686   9.993   9.714   3.328 -0.2086 -1.0065 -0.4942
   50MOL0     H 6687   9.751   9.829   3.338 -0.7676  1.4664  4.3596
   50MOL0     H 6688   9.691   9.660   3.358  1.4836 -1.8971 -1.3912
   50MOL0     H 6689   9.705   9.757   3.567 -0.2729 -1.8208  0.4823
   50MOL0     H 6690   9.862   9.681   3.571 -0.0425  1.1255  1.6067
   50MOL0     H 6691   9.992   9.857   3.538 -1.3156 -2.2984 -2.7399
   50MOL0     H 6692   9.861   9.968   3.494 -1.9448  1.0430  1.2894
   50MOL0     H 6693   9.762   9.948   3.721 -0.2738  0.8931  0.2928
   50MOL0     H 6694   9.872   9.828   3.770 -2.6701 -0.5821 -0.0115
   50MOL0     H 6695  10.064   9.995   3.725 -2.0525 -1.4521 -4.7326
   50MOL0     H 6696   9.939  10.120   3.704 -0.4187  0.0181 -0.7819
   50MOL0     H 6697   9.977  10.152   3.945  0.0116 -0.1910  2.5487
   50MOL0     H 6698   9.841  10.053   3.930  0.5664 -0.7522  3.1766
   50MOL0     H 6699  10.030   9.865   3.941 -1.9267  1.2623 -1.6998
   50MOL0     H 6700   9.979   9.929   4.087  2.9558 -6.4240  1.2298
   50MOL0     H 6701  10.260  10.055   3.828 -0.9055 -0.7613 -1.1271
   50MOL0     H 6702  10.571  10.055   3.993 -0.1041 -1.4483 -2.4456
   50MOL0     H 6703  10.493  10.101   3.842  1.5461  1.3739  0.1660
   50MOL0     H 6704  10.643  10.256   3.974  0.6191 -1.3387  1.0209
   50MOL0     H 6705  10.494  10.293   4.066  2.1150  1.2309  0.6680
   50MOL0     H 6706  10.507  10.297   3.753  1.0296  1.2734 -0.2735
   50MOL0     H 6707  10.558  10.434   3.858  0.7783  0.9185 -1.8886
   50MOL0     H 6708  10.338  10.494   3.803  1.1150  1.7950  3.2286
   50MOL0     H 6709  10.302  10.394   3.943 -3.9537  2.0035 -1.8315
   50MOL0     H 6710  10.127  10.271   3.527  0.2986  0.0439 -0.3890
   50MOL0     H 6711   9.828  10.379   3.408 -2.6774 -0.4727  2.3146
   50MOL0     H 6712   9.948  10.249   3.403  1.2979 -2.3591  3.2619
   50MOL0     H 6713   9.790  10.214   3.478 -0.4844 -1.2494 -1.8989
   50MOL0     H 6714   9.508  10.646   3.585  2.1664 -0.9453  0.6293
   50MOL0     H 6715   9.267  10.686   3.611 -2.0958 -0.8799  0.9117
   50MOL0     H 6716   9.163  10.825   3.852  0.7593  1.0812 -1.7458
   50MOL0     H 6717   9.075  10.807   3.716  3.2081 -0.4408 -0.2137
   50MOL0     H 6718   8.956  10.889   3.937  0.5829 -1.9258  3.4505
   50MOL0     H 6719   8.858  10.767   3.846 -0.6369  1.4950  0.1048
   50MOL0     H 6720   9.056  10.720   4.077  0.0413 -0.0209 -0.7176
   50MOL0     H 6721   8.946  10.597   3.994  2.0964  0.7552 -0.9939
   50MOL0     H 6722   8.867  10.678   4.215 -0.2120 -3.5587 -0.9627
   50MOL0     H 6723   8.856  10.836   4.155  1.8572 -0.8393  4.6102
   50MOL0     H 6724   8.695  10.598   4.031  0.2153 -0.0009  0.1185
   50MOL0     H 6725   8.681  10.758   3.986 -1.3434  2.0396  1.2877
   50MOL0     H 6726   8.509  10.672   4.183  0.0902  1.2124 -0.2096
   50MOL0     H 6727   8.648  10.673   4.287  2.3089  0.8303 -0.4051
   50MOL0     H 6728   8.610  10.920   4.123 -0.0965 -1.4483 -1.3260
   50MOL0     H 6729   8.656  10.918   4.290  0.1247  0.4203  0.4550
   50MOL0     H 6730   8.378  10.860   4.204 -0.4969  0.1476 -0.0588
   50MOL0     H 6731   8.431  11.003   4.295 -0.0708  0.6612 -2.0216
   50MOL0     H 6732   9.262  10.540   4.009  2.5022 -1.1741  0.8239
   50MOL0     H 6733   9.496  10.485   3.987 -0.0152  0.8335  0.8325
   50MOL0     H 6734   9.865  10.458   3.908 -0.1297 -0.6011 -0.2804
   50MOL0     H 6735  10.081  10.415   3.943 -0.0744  0.1423  1.1261
   50MOL0     H 6736   9.910   9.813   2.929  3.6558  2.4246 -0.9490
   50MOL0     H 6737  10.061   9.741   2.748 -3.0700 -1.3455 -0.8214
   50MOL0     H 6738  10.339   9.303   2.711  2.2690 -1.3383  0.2643
   50MOL0     H 6739  10.550   9.187   2.609 -0.6964 -1.2611 -1.1494
   50MOL0     H 6740  10.621   9.094   2.412  2.0601 -2.3912  2.5155
   50MOL0     H 6741  10.713   9.136   2.272  1.4650  1.5236 -0.5780
   50MOL0     H 6742  10.852   8.991   2.419  2.1115 -1.7176  1.7941
   50MOL0     H 6743  10.838   9.098   2.558  2.3339 -4.0781 -0.5129
   50MOL0     H 6744  11.046   9.122   2.462 -0.3264  2.0991  2.3877
   50MOL0     H 6745  10.948   9.270   2.441  0.4973 -1.4358  1.2704
   50MOL0     H 6746  10.910   9.210   2.201 -1.2524 -0.1533  0.8426
   50MOL0     H 6747  10.974   9.053   2.229 -0.5921 -0.7480  1.5876
   50MOL0     H 6748  11.338   9.244   2.185  0.4916 -1.8075  1.0152
   50MOL0     H 6749  10.607   9.496   2.333  1.6246 -1.7600 -0.7521
   50MOL0     H 6750  10.403   9.626   2.433 -1.0596  0.2718  4.1482
   51MOL0     O 6751   4.645   4.600   9.655 -0.2685  0.3114 -0.7067
   51MOL0     C 6752   4.690   4.483   9.647  0.0397  0.6262 -0.5266
   51MOL0     O 6753   4.615   4.367   9.633  0.3203  0.0842  0.8814
   51MOL0     C 6754   4.480   4.383   9.615  0.3966 -0.7060  0.3842
   51MOL0     C 6755   4.407   4.436   9.719  0.3759 -0.5335 -0.0964
   51MOL0     C 6756   4.269   4.466   9.696 -0.6432 -0.2388 -0.0121
   51MOL0     C 6757   4.210   4.438   9.572 -0.4722  0.9973  0.4904
   51MOL0     O 6758   4.074   4.446   9.542 -0.4380  0.1051  0.5354
   51MOL0     C 6759   3.996   4.554   9.595  0.3196 -0.3762 -0.2129
   51MOL0     C 6760   3.865   4.563   9.509  0.6161 -0.4559  0.4321
   51MOL0     C 6761   3.870   4.578   9.361  0.2220  0.0174  0.5813
   51MOL0     C 6762   3.738   4.574   9.296 -0.7690 -0.5626 -0.1567
   51MOL0     C 6763   3.643   4.691   9.331  0.3318  0.4305 -0.2988
   51MOL0     C 6764   3.508   4.679   9.262  0.3828  0.0983  0.3431
   51MOL0     C 6765   3.419   4.554   9.302 -0.4251 -0.6654  0.1831
   51MOL0     C 6766   3.282   4.562   9.243 -0.3497  0.0180 -0.5044
   51MOL0     N 6767   3.181   4.452   9.283 -0.2989  0.1720 -0.5002
   51MOL0     C 6768   3.193   4.322   9.249 -0.0729 -0.0980  0.5519
   51MOL0     C 6769   3.094   4.258   9.313 -0.0157  0.3750  0.0024
   51MOL0     C 6770   3.054   4.109   9.299 -0.7181 -0.0435  0.3771
   51MOL0     C 6771   3.149   4.009   9.369 -0.1778  0.8669  0.1241
   51MOL0     C 6772   3.128   3.861   9.340 -0.5927  0.4911 -0.3494
   51MOL0     C 6773   3.011   3.799   9.404 -0.4243 -0.1993 -0.0574
   51MOL0     O 6774   2.885   3.844   9.349  0.0457  0.0028 -0.5122
   51MOL0     C 6775   2.773   3.775   9.397  0.7419  0.0417 -0.9551
   51MOL0     C 6776   2.779   3.713   9.526  0.0781 -1.5337 -0.4285
   51MOL0     C 6777   2.664   3.651   9.576  0.9217  0.3684 -0.3652
   51MOL0     C 6778   2.673   3.597   9.714  0.8088  0.0755  0.3674
   51MOL0     C 6779   2.541   3.668   9.505  0.3252  0.6082  0.6493
   51MOL0     C 6780   2.412   3.610   9.557  0.6286 -0.4548  0.1085
   51MOL0     O 6781   2.294   3.679   9.534 -0.0810  1.0054 -0.6708
   51MOL0     C 6782   2.173   3.639   9.574  0.7850  0.5532  0.2347
   51MOL0     C 6783   2.074   3.719   9.520 -0.4048  1.0267  0.6739
   51MOL0     C 6784   1.936   3.714   9.560 -0.3905  0.4056 -0.2952
   51MOL0     C 6785   1.901   3.627   9.664 -0.3558  1.1954 -0.4621
   51MOL0     O 6786   1.781   3.614   9.725 -0.2877 -0.5562  0.5672
   51MOL0     C 6787   1.660   3.634   9.642  0.2747 -0.0541 -0.0406
   51MOL0     C 6788   1.537   3.682   9.725  0.5638  0.3011  0.7507
   51MOL0     C 6789   1.565   3.815   9.808  0.5862  0.4030  0.4708
   51MOL0     C 6790   1.627   3.925   9.720 -0.3053  1.2558 -0.0311
   51MOL0     C 6791   1.639   4.057   9.795  0.5687 -0.1156  0.3656
   51MOL0     C 6792   1.679   4.172   9.703 -0.1070  0.2214  1.0027
   51MOL0     C 6793   1.674   4.311   9.772  0.0702 -0.3510  1.0987
   51MOL0     C 6794   1.703   4.427   9.675  0.6395  0.2123 -0.6079
   51MOL0    Cl 6795   1.563   4.442   9.559 -0.0409  0.5077 -0.0066
   51MOL0     C 6796   2.006   3.542   9.714  0.5742 -0.5365 -0.0857
   51MOL0     C 6797   2.142   3.539   9.668  0.0096 -0.3007 -1.1534
   51MOL0     O 6798   2.427   3.498   9.586 -0.5999  0.3831 -0.7274
   51MOL0     C 6799   2.545   3.724   9.374  0.5154  0.0593 -0.2676
   51MOL0     C 6800   2.653   3.776   9.325  0.6944 -0.0937 -0.6060
   51MOL0     N 6801   3.013   4.351   9.370 -0.0040 -0.6954 -0.3156
   51MOL0     N 6802   3.072   4.468   9.362 -0.5195 -0.1470  0.1856
   51MOL0     C 6803   4.294   4.384   9.462 -0.7096  0.1681 -0.7466
   51MOL0     C 6804   4.423   4.352   9.487 -0.5813  0.8473 -0.2139
   51MOL0     C 6805   4.831   4.466   9.666 -0.0009 -0.7288  0.8010
   51MOL0     C 6806   4.913   4.576   9.668  1.1389  0.1347 -0.1561
   51MOL0     C 6807   5.050   4.554   9.686 -0.0002 -0.0415  0.0388
   51MOL0     C 6808   5.110   4.431   9.696  1.1492 -0.2569 -1.2101
   51MOL0     O 6809   5.242   4.428   9.730 -0.1562  0.1614  0.5038
   51MOL0     C 6810   5.319   4.310   9.702  0.1404  0.3503  0.2078
   51MOL0     C 6811   5.383   4.308   9.561 -0.0291 -0.3807 -0.3426
   51MOL0     C 6812   5.436   4.167   9.542  0.1570 -0.0913 -0.7505
   51MOL0     C 6813   5.532   4.162   9.415 -0.3142  0.3862 -1.1028
   51MOL0     C 6814   5.490   4.078   9.299  0.2365  0.0028  0.1678
   51MOL0     C 6815   5.429   4.021   9.203 -0.3746  0.2594 -0.1500
   51MOL0     C 6816   5.021   4.323   9.700 -0.5979  0.0106 -0.6150
   51MOL0     C 6817   4.877   4.338   9.681  0.4001 -0.1252  0.0999
   51MOL0     H 6818   4.443   4.452   9.820  1.2152  0.1182 -0.4877
   51MOL0     H 6819   4.221   4.515   9.780 -0.8629 -2.1059  1.0019
   51MOL0     H 6820   3.973   4.538   9.701  2.3966  2.4314  0.7860
   51MOL0     H 6821   4.047   4.650   9.586 -0.9483  0.1959 -1.7524
   51MOL0     H 6822   3.818   4.465   9.522 -1.5527  0.2943 -1.0404
   51MOL0     H 6823   3.799   4.641   9.548 -1.0984  1.0672 -4.6951
   51MOL0     H 6824   3.923   4.670   9.335 -0.6946  0.5672  0.5801
   51MOL0     H 6825   3.933   4.495   9.329 -0.3850 -0.1068 -0.3189
   51MOL0     H 6826   3.753   4.572   9.188  0.9834  1.3357  0.0013
   51MOL0     H 6827   3.692   4.482   9.335  1.3811 -1.3381  0.7578
   51MOL0     H 6828   3.624   4.697   9.439 -1.3615  0.7126 -0.5835
   51MOL0     H 6829   3.688   4.788   9.307 -1.8058  1.9314  1.3578
   51MOL0     H 6830   3.450   4.766   9.293  1.0781 -0.3292  3.1567
   51MOL0     H 6831   3.539   4.692   9.158 -0.4636  1.0918  0.2039
   51MOL0     H 6832   3.469   4.464   9.266  1.1692 -0.6317  2.1397
   51MOL0     H 6833   3.429   4.545   9.411  1.9996 -1.1208 -0.0300
   51MOL0     H 6834   3.294   4.568   9.134 -1.2024  1.5746 -0.5485
   51MOL0     H 6835   3.239   4.659   9.273  1.1074  0.5336  0.0048
   51MOL0     H 6836   3.266   4.286   9.178 -2.0077 -0.7713 -1.1768
   51MOL0     H 6837   2.961   4.089   9.354 -1.1086 -0.5246 -0.4373
   51MOL0     H 6838   3.029   4.085   9.195 -0.9483  0.0214  0.4173
   51MOL0     H 6839   3.143   4.037   9.474 -3.0119  3.3179 -0.5550
   51MOL0     H 6840   3.244   4.045   9.328 -2.0101 -0.0707 -6.0007
   51MOL0     H 6841   3.222   3.814   9.373 -2.2023 -1.6542  1.4918
   51MOL0     H 6842   3.126   3.843   9.232  2.4362  0.4860 -0.5079
   51MOL0     H 6843   3.011   3.826   9.510 -2.8995  0.0185 -0.0726
   51MOL0     H 6844   3.016   3.690   9.396 -1.6784 -0.2166 -0.9109
   51MOL0     H 6845   2.866   3.717   9.591 -0.1689 -4.0145  0.1400
   51MOL0     H 6846   2.679   3.489   9.696 -0.7134 -0.3554  2.1205
   51MOL0     H 6847   2.767   3.631   9.759 -0.2226  2.3480  0.9634
   51MOL0     H 6848   2.589   3.624   9.779  0.0409  1.4807 -1.1286
   51MOL0     H 6849   2.105   3.780   9.436 -1.9499  0.4585 -0.3568
   51MOL0     H 6850   1.879   3.797   9.520 -0.8709  0.5777  0.7071
   51MOL0     H 6851   1.688   3.704   9.563  3.6573 -0.8249  0.3361
   51MOL0     H 6852   1.632   3.541   9.592  0.8910 -0.7386  0.8373
   51MOL0     H 6853   1.449   3.693   9.662  0.0032 -1.2032  1.2165
   51MOL0     H 6854   1.515   3.602   9.797  0.0723  1.8815  2.4215
   51MOL0     H 6855   1.634   3.800   9.892  1.7240  1.2911 -0.2805
   51MOL0     H 6856   1.473   3.858   9.850 -0.5518 -1.0566 -0.4288
   51MOL0     H 6857   1.727   3.888   9.697 -0.7987  0.5160 -1.0489
   51MOL0     H 6858   1.574   3.940   9.626  0.3962 -0.8767 -0.8199
   51MOL0     H 6859   1.697   4.045   9.887 -1.5706  0.1061  1.8214
   51MOL0     H 6860   1.540   4.083   9.835 -0.9803 -1.3487 -2.3811
   51MOL0     H 6861   1.781   4.158   9.667 -1.0006  0.8662 -2.0561
   51MOL0     H 6862   1.611   4.163   9.618  0.7099  1.3108  0.2108
   51MOL0     H 6863   1.743   4.312   9.857 -1.8262 -2.5605  2.7852
   51MOL0     H 6864   1.572   4.321   9.811 -1.2227 -3.1941 -1.1804
   51MOL0     H 6865   1.797   4.409   9.622  0.0631 -0.8474 -1.3180
   51MOL0     H 6866   1.719   4.519   9.732  0.4558  0.4194 -0.8849
   51MOL0     H 6867   1.973   3.484   9.800 -0.6201 -0.5673 -0.5569
   51MOL0     H 6868   2.225   3.480   9.705 -0.0516 -0.2788 -0.9832
   51MOL0     H 6869   2.456   3.735   9.312  1.6256  0.5680 -1.8162
   51MOL0     H 6870   2.658   3.837   9.236 -0.6405  2.2237  0.8094
   51MOL0     H 6871   4.258   4.358   9.363 -0.1597 -0.1651 -0.8677
   51MOL0     H 6872   4.484   4.303   9.411 -0.9647 -3.3127  1.9185
   51MOL0     H 6873   4.869   4.673   9.646  0.6933  0.8159  3.1709
   51MOL0     H 6874   5.123   4.634   9.684 -0.5542  0.6306  2.7394
   51MOL0     H 6875   5.404   4.298   9.769  0.2086 -0.2527  0.0202
   51MOL0     H 6876   5.257   4.221   9.719 -1.0741  0.8776 -1.2078
   51MOL0     H 6877   5.456   4.388   9.549 -1.6094  1.2151  0.3344
   51MOL0     H 6878   5.309   4.330   9.483  1.3449  0.5517 -1.4121
   51MOL0     H 6879   5.347   4.103   9.541 -2.7515  3.5537 -0.9374
   51MOL0     H 6880   5.508   4.147   9.622 -0.4309  2.5543  0.5736
   51MOL0     H 6881   5.628   4.131   9.456 -0.0030 -0.4916 -2.4386
   51MOL0     H 6882   5.549   4.260   9.368 -1.3963  0.9951 -0.2606
   51MOL0     H 6883   5.380   3.961   9.130 -1.6149 -0.7288  1.4093
   51MOL0     H 6884   5.055   4.220   9.706 -0.1350  0.1351 -1.0219
   51MOL0     H 6885   4.812   4.252   9.667 -1.8263  1.3707  0.7885
   52MOL0     O 6886   6.552   2.614   1.724 -0.4406  0.5166  0.0421
   52MOL0     C 6887   6.603   2.526   1.796 -0.1553  0.6091  0.9541
   52MOL0     O 6888   6.533   2.448   1.880  0.0074  0.4716 -0.5139
   52MOL0     C 6889   6.406   2.479   1.924 -0.2011  0.3839 -0.0838
   52MOL0     C 6890   6.341   2.366   1.957  0.0827  0.0885  0.1744
   52MOL0     C 6891   6.208   2.373   2.003  0.4049 -0.2900  0.4288
   52MOL0     C 6892   6.148   2.498   2.036  0.2181  0.6084  0.1936
   52MOL0     O 6893   6.017   2.502   2.082  0.0826 -0.0566 -0.1685
   52MOL0     C 6894   5.926   2.408   2.025  0.2234 -0.2737  0.4278
   52MOL0     C 6895   5.784   2.443   2.065  0.3256  0.0031 -0.1168
   52MOL0     C 6896   5.763   2.466   2.216  0.8490 -0.0826  0.7433
   52MOL0     C 6897   5.617   2.489   2.249  0.7762 -0.1343 -0.1272
   52MOL0     C 6898   5.587   2.482   2.395 -0.4960  0.7263 -0.7197
   52MOL0     C 6899   5.435   2.486   2.419 -1.0631  0.0797  0.4087
   52MOL0     C 6900   5.416   2.453   2.568 -0.0383 -0.4192 -0.1226
   52MOL0     C 6901   5.276   2.420   2.614  0.4839 -0.1798 -0.1354
   52MOL0     N 6902   5.173   2.492   2.545  0.6132 -0.7952 -0.4233
   52MOL0     C 6903   5.160   2.633   2.521 -0.7181  0.7936 -0.3074
   52MOL0     C 6904   5.077   2.640   2.414  0.3805  0.3257 -0.1559
   52MOL0     C 6905   5.048   2.767   2.337 -0.3081  0.6636 -0.3455
   52MOL0     C 6906   4.994   2.885   2.428 -0.8169  0.1347  0.0176
   52MOL0     C 6907   4.938   3.002   2.355 -0.5058  0.6801 -0.0786
   52MOL0     C 6908   4.902   3.118   2.449 -0.2935  0.5785  0.6995
   52MOL0     O 6909   4.851   3.229   2.371  0.2193  0.4553 -0.5893
   52MOL0     C 6910   4.725   3.210   2.316 -0.2455  1.3385 -0.0841
   52MOL0     C 6911   4.616   3.168   2.395 -0.9600 -0.2173  0.2156
   52MOL0     C 6912   4.492   3.144   2.329 -0.2142  0.1172 -0.1416
   52MOL0     C 6913   4.398   3.091   2.423 -0.3479 -0.0119 -0.4029
   52MOL0     C 6914   4.475   3.160   2.187 -0.1991  0.2552 -0.2056
   52MOL0     C 6915   4.344   3.152   2.118 -0.5690  0.1446 -0.5504
   52MOL0     O 6916   4.235   3.148   2.188 -0.2714 -0.2778  0.0874
   52MOL0     C 6917   4.123   3.077   2.152  0.2491 -0.1731  0.0107
   52MOL0     C 6918   4.099   3.008   2.032  0.0818 -0.6967  0.0832
   52MOL0     C 6919   3.984   2.937   2.008 -0.5100 -0.0765  0.0724
   52MOL0     C 6920   3.879   2.939   2.096 -0.7440 -0.2818 -0.4652
   52MOL0     O 6921   3.764   2.873   2.065 -1.1915  0.4508  1.1474
   52MOL0     C 6922   3.658   2.877   2.158 -0.0216 -0.0390  0.1619
   52MOL0     C 6923   3.554   2.780   2.102  0.7837 -0.0342  0.6029
   52MOL0     C 6924   3.410   2.816   2.157  1.5533  0.1362 -0.1564
   52MOL0     C 6925   3.304   2.707   2.118 -0.1255 -0.0160  0.2426
   52MOL0     C 6926   3.162   2.758   2.137 -0.3890  1.0275  1.1256
   52MOL0     C 6927   3.049   2.666   2.067 -0.5214 -0.1169  0.3605
   52MOL0     C 6928   2.905   2.693   2.112 -0.3983 -0.3835  0.7203
   52MOL0     C 6929   2.805   2.606   2.033 -0.4110  0.6137  0.1049
   52MOL0    Cl 6930   2.811   2.644   1.868 -0.5077 -0.1031 -0.7727
   52MOL0     C 6931   3.904   3.010   2.221 -0.0390  0.0714  0.9925
   52MOL0     C 6932   4.027   3.079   2.243 -0.5973  0.1938 -0.2133
   52MOL0     O 6933   4.354   3.144   1.995  0.1900 -1.0070  0.2413
   52MOL0     C 6934   4.589   3.220   2.125 -0.5236  0.4803  0.3891
   52MOL0     C 6935   4.708   3.248   2.185 -0.5097  1.0586  0.2014
   52MOL0     N 6936   5.018   2.516   2.394 -0.3565  0.0100 -0.2237
   52MOL0     N 6937   5.075   2.432   2.475  0.1326  0.0288 -0.0187
   52MOL0     C 6938   6.213   2.615   2.000  0.4760  0.3319 -0.5900
   52MOL0     C 6939   6.348   2.605   1.950  0.2426  0.0460  0.1495
   52MOL0     C 6940   6.735   2.484   1.756 -0.0572 -0.2121  0.0767
   52MOL0     C 6941   6.812   2.570   1.676  0.1096 -0.5800  0.2916
   52MOL0     C 6942   6.945   2.548   1.652 -0.0485 -0.2701 -0.0893
   52MOL0     C 6943   7.015   2.437   1.707 -0.9575 -1.3001 -0.0678
   52MOL0     O 6944   7.155   2.437   1.699  0.2775  0.0561 -0.0636
   52MOL0     C 6945   7.236   2.367   1.792 -0.6832 -0.1394 -0.2310
   52MOL0     C 6946   7.282   2.450   1.915  0.2656  0.3550  0.6938
   52MOL0     C 6947   7.173   2.486   2.020 -0.8167 -0.8538 -0.3303
   52MOL0     C 6948   7.223   2.581   2.128 -0.7574  0.2509 -0.4644
   52MOL0     C 6949   7.334   2.517   2.209  0.0978 -0.2753  0.2655
   52MOL0     C 6950   7.411   2.452   2.271  0.4246 -0.4590  0.9256
   52MOL0     C 6951   6.943   2.351   1.785  1.6316  1.1345  0.3344
   52MOL0     C 6952   6.802   2.369   1.800  0.8240  0.2306 -0.0962
   52MOL0     H 6953   6.381   2.266   1.943 -0.6265 -0.6377  2.8139
   52MOL0     H 6954   6.155   2.281   2.025  1.7650 -0.5141  3.3350
   52MOL0     H 6955   5.930   2.405   1.915 -2.1263 -0.6115  0.3033
   52MOL0     H 6956   5.946   2.311   2.071  0.5467  0.1721  1.2401
   52MOL0     H 6957   5.752   2.536   2.018 -1.5770 -0.9554 -0.8441
   52MOL0     H 6958   5.712   2.362   2.049  0.6820 -0.5268  0.8598
   52MOL0     H 6959   5.794   2.376   2.270  0.0355 -0.7383  0.1472
   52MOL0     H 6960   5.827   2.548   2.250 -2.4572  2.8656  0.4160
   52MOL0     H 6961   5.576   2.586   2.221 -1.5114 -1.7533 -2.9314
   52MOL0     H 6962   5.561   2.413   2.193  1.7953 -0.1116 -1.2187
   52MOL0     H 6963   5.638   2.391   2.425 -2.7771 -0.4734 -0.2771
   52MOL0     H 6964   5.639   2.560   2.452  1.1371  0.8563 -2.3165
   52MOL0     H 6965   5.398   2.588   2.405 -0.2435  0.7846  2.8688
   52MOL0     H 6966   5.387   2.411   2.356  1.0223  0.3724 -1.6658
   52MOL0     H 6967   5.483   2.376   2.608  0.7315  0.9318  1.3182
   52MOL0     H 6968   5.447   2.547   2.613 -1.2019 -0.2310  0.3179
   52MOL0     H 6969   5.266   2.457   2.717  1.8882 -1.3773  0.4762
   52MOL0     H 6970   5.267   2.311   2.606 -0.3128 -0.2271  1.1177
   52MOL0     H 6971   5.215   2.716   2.562 -1.8372  1.3991  0.0118
   52MOL0     H 6972   5.143   2.810   2.305 -0.1062  1.1758  0.8660
   52MOL0     H 6973   4.982   2.741   2.254  1.3051  1.4237 -1.9117
   52MOL0     H 6974   5.083   2.904   2.488  0.7093  0.7772 -2.2904
   52MOL0     H 6975   4.917   2.842   2.492 -1.7386  2.1202  0.3178
   52MOL0     H 6976   4.856   2.962   2.295  0.5627 -0.7928 -0.6121
   52MOL0     H 6977   5.019   3.039   2.290 -0.4001 -1.9666 -1.6052
   52MOL0     H 6978   4.997   3.161   2.481 -0.9326  2.3763  0.3530
   52MOL0     H 6979   4.837   3.084   2.530 -1.3016 -0.3485 -0.4356
   52MOL0     H 6980   4.626   3.169   2.503 -4.7065 -0.9554  0.7216
   52MOL0     H 6981   4.381   2.987   2.394 -3.2296  0.3039 -0.0795
   52MOL0     H 6982   4.437   3.092   2.526 -1.8912  0.9917  0.1976
   52MOL0     H 6983   4.309   3.154   2.419 -0.0316  0.4386 -0.4701
   52MOL0     H 6984   4.163   3.014   1.944 -0.7382  1.3946 -0.4204
   52MOL0     H 6985   3.973   2.886   1.913 -0.0682  3.6365 -2.1793
   52MOL0     H 6986   3.686   2.847   2.260  0.2974 -0.5359 -0.0679
   52MOL0     H 6987   3.616   2.978   2.164 -1.1301 -0.5635  2.6066
   52MOL0     H 6988   3.534   2.786   1.994 -1.0052 -3.4671  0.5928
   52MOL0     H 6989   3.575   2.675   2.126  0.2987  0.2508  2.4205
   52MOL0     H 6990   3.382   2.913   2.114 -0.1700 -0.8474 -1.4236
   52MOL0     H 6991   3.397   2.829   2.265 -0.3726  0.3488 -0.3642
   52MOL0     H 6992   3.318   2.694   2.010 -0.4334  1.1118  0.0443
   52MOL0     H 6993   3.311   2.612   2.171  1.9641  0.9154  1.8024
   52MOL0     H 6994   3.148   2.856   2.089  0.4650 -0.4521 -2.4662
   52MOL0     H 6995   3.146   2.742   2.244 -0.8942 -2.7190  0.6293
   52MOL0     H 6996   3.071   2.682   1.961  2.1791 -0.4170  0.8048
   52MOL0     H 6997   3.070   2.559   2.078  0.4731  0.0704  0.3156
   52MOL0     H 6998   2.887   2.801   2.111  0.5652 -0.1617  2.6106
   52MOL0     H 6999   2.893   2.662   2.216  0.1773  0.7503  1.1362
   52MOL0     H 7000   2.703   2.629   2.065  0.8234  4.3928  1.9281
   52MOL0     H 7001   2.825   2.499   2.040 -1.0005  0.3328 -1.7708
   52MOL0     H 7002   3.832   3.008   2.303 -2.1186  2.7361 -0.5959
   52MOL0     H 7003   4.035   3.125   2.341 -1.9779  1.1383 -0.4996
   52MOL0     H 7004   4.579   3.256   2.023 -0.3278  0.0297  0.2096
   52MOL0     H 7005   4.798   3.288   2.138 -1.7221  2.5585 -0.9606
   52MOL0     H 7006   6.166   2.711   2.020 -0.9884 -0.5100  0.2752
   52MOL0     H 7007   6.402   2.699   1.940  0.2066  0.3168  2.0328
   52MOL0     H 7008   6.785   2.670   1.644  1.2856  0.4742  2.3787
   52MOL0     H 7009   7.004   2.613   1.588  1.8326 -1.1274  0.6982
   52MOL0     H 7010   7.202   2.268   1.823 -0.5017  0.6645  2.8412
   52MOL0     H 7011   7.323   2.336   1.733  0.3135 -0.4615  1.3618
   52MOL0     H 7012   7.332   2.542   1.883 -2.7702  2.1473  0.7032
   52MOL0     H 7013   7.352   2.380   1.962  1.0313 -0.6317 -1.7497
   52MOL0     H 7014   7.142   2.391   2.065  0.9161 -0.3020  2.2416
   52MOL0     H 7015   7.095   2.545   1.970 -0.4554  2.1377  2.3056
   52MOL0     H 7016   7.138   2.597   2.195 -0.1452 -1.1147  0.6787
   52MOL0     H 7017   7.265   2.673   2.087  0.3291  0.3509  0.7870
   52MOL0     H 7018   7.479   2.389   2.324  2.0198 -0.5716 -1.1474
   52MOL0     H 7019   6.989   2.261   1.823  4.0702  2.8226  1.6769
   52MOL0     H 7020   6.750   2.301   1.866  0.8426 -0.3677 -0.6900
   53MOL0     O 7021  10.362   0.483   4.819  0.5720  0.0141  0.4877
   53MOL0     C 7022  10.396   0.405   4.905  0.0902  0.3406 -0.4825
   53MOL0     O 7023  10.330   0.294   4.945  1.0012 -0.2947 -0.1579
   53MOL0     C 7024  10.213   0.243   4.894  0.8796 -0.3652  0.6211
   53MOL0     C 7025  10.206   0.105   4.872  0.0289 -0.7227  0.3032
   53MOL0     C 7026  10.095   0.060   4.805 -0.0590  0.3488 -0.5574
   53MOL0     C 7027   9.990   0.139   4.777  0.1828  1.0098 -0.1210
   53MOL0     O 7028   9.876   0.091   4.717  0.4792  0.0388 -0.0173
   53MOL0     C 7029   9.776   0.066   4.813 -0.6125  0.2545  0.1774
   53MOL0     C 7030   9.637   0.076   4.752  0.1740 -0.1194  0.3887
   53MOL0     C 7031   9.586   0.215   4.715 -0.6643 -0.2166  0.5226
   53MOL0     C 7032   9.458   0.190   4.630 -0.0276 -0.4940  0.9216
   53MOL0     C 7033   9.335   0.167   4.725 -0.0909 -0.7221 -0.0174
   53MOL0     C 7034   9.212   0.171   4.636  0.9819 -0.8502  0.1998
   53MOL0     C 7035   9.082   0.142   4.713 -0.3442 -0.4091  0.5408
   53MOL0     C 7036   8.968   0.128   4.612 -0.1563  0.2512 -0.0546
   53MOL0     N 7037   8.849   0.129   4.705  0.2754  0.8356  0.2294
   53MOL0     C 7038   8.790   0.013   4.758 -0.3130  0.0340  0.0090
   53MOL0     C 7039   8.678   0.056   4.813 -0.3059  0.3141  0.9291
   53MOL0     C 7040   8.588  -0.040   4.878 -0.3616 -0.2569 -0.0864
   53MOL0     C 7041   8.441   0.010   4.883  0.1085  0.1729  0.1073
   53MOL0     C 7042   8.415   0.115   4.982 -1.9127  0.0885  0.0743
   53MOL0     C 7043   8.275   0.171   4.986  0.6024 -0.5237  0.5776
   53MOL0     O 7044   8.192   0.061   5.008  0.3968  0.2326  0.2104
   53MOL0     C 7045   8.057   0.053   4.964 -0.1247  0.1278 -0.0089
   53MOL0     C 7046   7.982  -0.058   5.003 -0.3731  0.2814 -0.7506
   53MOL0     C 7047   7.845  -0.077   4.969  0.5519 -0.2912  0.0359
   53MOL0     C 7048   7.776  -0.193   5.027 -0.0009  0.2800  0.2873
   53MOL0     C 7049   7.781   0.029   4.893  0.4362  0.7126  0.2310
   53MOL0     C 7050   7.635   0.021   4.868 -0.4850 -1.0546 -0.1160
   53MOL0     O 7051   7.598   0.094   4.761  0.3423 -0.5897 -0.4149
   53MOL0     C 7052   7.467   0.131   4.747  0.7095 -0.0363 -0.0142
   53MOL0     C 7053   7.362   0.055   4.688  0.3603 -0.1447 -0.7851
   53MOL0     C 7054   7.225   0.109   4.689 -0.6680  0.0034 -0.8627
   53MOL0     C 7055   7.194   0.240   4.744 -0.0241  0.4061  0.0007
   53MOL0     O 7056   7.076   0.301   4.760  0.8444  0.0265 -0.3659
   53MOL0     C 7057   6.950   0.241   4.719  0.4661  1.0002  0.3358
   53MOL0     C 7058   6.854   0.351   4.704 -0.3986 -0.0647  0.0783
   53MOL0     C 7059   6.721   0.312   4.647  0.3476  0.3372 -0.1440
   53MOL0     C 7060   6.607   0.413   4.682 -0.1253  0.2481 -0.2856
   53MOL0     C 7061   6.470   0.375   4.619  0.3209  0.3881 -0.2270
   53MOL0     C 7062   6.362   0.482   4.628 -0.9557 -0.3242  0.3763
   53MOL0     C 7063   6.236   0.465   4.702  0.0429  0.1495 -0.0982
   53MOL0     C 7064   6.176   0.323   4.662  0.2030  0.2678 -0.1959
   53MOL0    Cl 7065   5.997   0.308   4.697 -0.3883 -0.0860  0.5332
   53MOL0     C 7066   7.303   0.314   4.793  1.5768 -0.7370  0.2316
   53MOL0     C 7067   7.426   0.259   4.794 -0.0466 -0.4030  0.6299
   53MOL0     O 7068   7.562  -0.032   4.955  0.8791  0.3469  0.5364
   53MOL0     C 7069   7.858   0.135   4.843 -0.9829  0.7935  0.2708
   53MOL0     C 7070   7.994   0.143   4.880 -0.0169 -0.0060 -0.3633
   53MOL0     N 7071   8.669   0.194   4.802 -0.2540  0.4098 -0.1096
   53MOL0     N 7072   8.772   0.231   4.729  0.6555  0.1124 -0.4291
   53MOL0     C 7073   9.989   0.273   4.808  0.1057  0.1611  0.5246
   53MOL0     C 7074  10.102   0.333   4.862 -0.8230 -0.5936 -0.0229
   53MOL0     C 7075  10.525   0.419   4.964 -0.1309 -1.8446 -0.3397
   53MOL0     C 7076  10.603   0.539   4.946 -0.3676  0.4435 -0.1851
   53MOL0     C 7077  10.736   0.553   4.984  0.2038 -0.2469  0.9670
   53MOL0     C 7078  10.797   0.436   5.040 -0.2723 -0.3233 -0.2443
   53MOL0     O 7079  10.926   0.465   5.076 -0.7850 -0.7282 -0.2140
   53MOL0     C 7080  11.025   0.360   5.076 -0.0243  1.4736 -0.9042
   53MOL0     C 7081  11.162   0.421   5.101 -0.5761 -0.3409 -0.1120
   53MOL0     C 7082  11.275   0.332   5.170 -0.5672 -0.1695 -0.1025
   53MOL0     C 7083  11.404   0.415   5.186 -0.1393  0.0434 -0.0509
   53MOL0     C 7084  11.393   0.548   5.244 -0.0288 -0.2211  0.2796
   53MOL0     C 7085  11.379   0.648   5.297 -0.1935 -0.9563 -0.2361
   53MOL0     C 7086  10.722   0.316   5.061  0.7119  0.2122 -0.2214
   53MOL0     C 7087  10.592   0.313   5.023  0.6455  1.1629  0.7604
   53MOL0     H 7088  10.290   0.038   4.886 -0.3179 -1.2115  0.0727
   53MOL0     H 7089  10.091  -0.045   4.777  4.2286  0.8705 -4.2429
   53MOL0     H 7090   9.786  -0.036   4.850  0.6712 -0.0293 -0.8674
   53MOL0     H 7091   9.774   0.143   4.891 -0.2626  0.8121 -0.3509
   53MOL0     H 7092   9.655   0.028   4.656  0.3277 -0.2052  0.4622
   53MOL0     H 7093   9.566   0.017   4.811  0.2219 -2.4859 -1.7819
   53MOL0     H 7094   9.559   0.264   4.810  0.2159 -0.8392  1.1117
   53MOL0     H 7095   9.663   0.272   4.662 -0.9188  1.2360  1.6200
   53MOL0     H 7096   9.442   0.284   4.577  1.7854 -1.4052 -1.4053
   53MOL0     H 7097   9.475   0.118   4.549 -0.1372 -3.1389  3.1141
   53MOL0     H 7098   9.347   0.072   4.779 -3.0488 -0.0859  1.9815
   53MOL0     H 7099   9.308   0.244   4.798  1.3753 -1.3148  1.1941
   53MOL0     H 7100   9.202   0.267   4.585 -0.3992 -1.8758 -1.5550
   53MOL0     H 7101   9.229   0.092   4.562 -1.3132  1.1217 -2.6665
   53MOL0     H 7102   9.101   0.046   4.763 -1.5700  0.9511  3.9039
   53MOL0     H 7103   9.065   0.211   4.796  1.0323  1.9929 -1.0501
   53MOL0     H 7104   8.975   0.032   4.560  1.6079  0.7859 -0.8708
   53MOL0     H 7105   8.963   0.207   4.537 -1.8543  0.9761  0.7783
   53MOL0     H 7106   8.822  -0.089   4.738  1.4106  0.2292  1.4611
   53MOL0     H 7107   8.578  -0.127   4.812 -0.8466 -1.2014  1.1920
   53MOL0     H 7108   8.632  -0.083   4.968 -0.6679 -0.1242  0.1259
   53MOL0     H 7109   8.380  -0.079   4.904  1.1860 -0.6877 -0.3254
   53MOL0     H 7110   8.411   0.049   4.786  2.3009 -0.3536 -0.8416
   53MOL0     H 7111   8.489   0.195   4.969  1.3417 -2.7528 -0.1788
   53MOL0     H 7112   8.430   0.070   5.080  1.3714  0.8628  0.0538
   53MOL0     H 7113   8.255   0.219   4.891 -0.3992 -1.0294  0.5168
   53MOL0     H 7114   8.266   0.238   5.072 -0.8856  0.5331 -0.3529
   53MOL0     H 7115   8.032  -0.131   5.065  1.4921  1.8457 -0.3535
   53MOL0     H 7116   7.711  -0.242   4.953 -0.3558  2.6471 -1.0544
   53MOL0     H 7117   7.852  -0.266   5.058 -0.2249 -0.0199  0.1388
   53MOL0     H 7118   7.720  -0.167   5.116 -1.8256  0.9519 -0.9946
   53MOL0     H 7119   7.386  -0.036   4.634  2.0531 -0.7588  0.9080
   53MOL0     H 7120   7.150   0.048   4.639 -0.7311 -0.4717 -0.2049
   53MOL0     H 7121   6.953   0.167   4.639 -0.1713 -2.0348  2.9459
   53MOL0     H 7122   6.917   0.173   4.798  1.3593 -1.6387 -1.4321
   53MOL0     H 7123   6.851   0.409   4.797  2.2530  0.9985 -0.3940
   53MOL0     H 7124   6.897   0.422   4.632  0.7207 -0.8369 -0.0414
   53MOL0     H 7125   6.684   0.217   4.685 -1.3180  1.3045  0.7762
   53MOL0     H 7126   6.725   0.297   4.538 -1.7161 -0.3785 -0.1776
   53MOL0     H 7127   6.583   0.416   4.789 -3.4019 -1.6082 -0.8064
   53MOL0     H 7128   6.623   0.515   4.648  0.9813 -0.0922 -0.8256
   53MOL0     H 7129   6.431   0.281   4.660 -1.3625  2.2701  2.8470
   53MOL0     H 7130   6.495   0.361   4.513  2.8327 -1.7287  0.5559
   53MOL0     H 7131   6.405   0.574   4.670 -0.9560  0.1027 -0.5257
   53MOL0     H 7132   6.340   0.508   4.524 -2.2077 -1.0787  0.4360
   53MOL0     H 7133   6.167   0.542   4.667 -0.4340 -0.7018 -1.0952
   53MOL0     H 7134   6.246   0.468   4.811 -0.9729  2.0178 -0.0122
   53MOL0     H 7135   6.225   0.247   4.723 -1.5697 -0.1392  0.8211
   53MOL0     H 7136   6.189   0.313   4.554  4.1280  0.5806  0.0936
   53MOL0     H 7137   7.288   0.413   4.833  1.9032 -0.1021 -1.1415
   53MOL0     H 7138   7.512   0.312   4.835 -0.4792 -0.7104  1.9579
   53MOL0     H 7139   7.812   0.205   4.774 -1.3625  1.2202  0.9370
   53MOL0     H 7140   8.043   0.227   4.832 -1.7247  1.0869 -0.2561
   53MOL0     H 7141   9.896   0.325   4.786 -0.2197  0.0040  1.4551
   53MOL0     H 7142  10.105   0.440   4.876 -3.6630 -0.4941  0.4079
   53MOL0     H 7143  10.559   0.619   4.887  1.3181  2.5318  1.2542
   53MOL0     H 7144  10.784   0.650   4.976  0.4231 -0.3802  0.6508
   53MOL0     H 7145  11.009   0.290   5.159  0.8193  0.3208 -1.6863
   53MOL0     H 7146  11.021   0.311   4.978  0.6747  0.6732 -0.5491
   53MOL0     H 7147  11.140   0.506   5.166 -3.3967 -2.3282  1.7807
   53MOL0     H 7148  11.211   0.451   5.008  0.7340  1.9935  1.2352
   53MOL0     H 7149  11.282   0.240   5.112 -1.5943  0.0727 -0.6442
   53MOL0     H 7150  11.249   0.301   5.272 -0.9694 -2.2339 -0.7749
   53MOL0     H 7151  11.464   0.416   5.095 -0.6812  0.3333 -0.4124
   53MOL0     H 7152  11.463   0.357   5.257  0.1624 -1.4959 -1.4719
   53MOL0     H 7153  11.371   0.749   5.332  1.6084  0.4328 -3.4041
   53MOL0     H 7154  10.751   0.223   5.110  0.4989 -0.1311 -0.7420
   53MOL0     H 7155  10.538   0.219   5.026  2.3701  0.1133  0.1766
   54MOL0     O 7156   7.661   3.678   5.620  0.1017  0.5195 -0.0493
   54MOL0     C 7157   7.640   3.783   5.561 -0.0017  0.3486  0.3190
   54MOL0     O 7158   7.514   3.826   5.525 -0.4188 -0.2651 -0.2455
   54MOL0     C 7159   7.399   3.754   5.548 -0.3183  0.1953  0.3652
   54MOL0     C 7160   7.300   3.758   5.449  0.1456 -0.6748 -0.3331
   54MOL0     C 7161   7.173   3.699   5.467 -0.0959 -0.3413 -1.2925
   54MOL0     C 7162   7.153   3.609   5.580  0.6853  0.6550 -0.0615
   54MOL0     O 7163   7.034   3.537   5.581 -0.3252  0.3994 -0.0179
   54MOL0     C 7164   7.016   3.447   5.693 -1.0753 -0.4279  0.0416
   54MOL0     C 7165   6.906   3.362   5.631  0.8253  0.3146  0.2948
   54MOL0     C 7166   6.769   3.432   5.652  0.4354  0.2526  0.1570
   54MOL0     C 7167   6.662   3.315   5.644 -0.7316 -0.2175 -0.7867
   54MOL0     C 7168   6.527   3.356   5.704  0.0929 -0.3484 -0.5897
   54MOL0     C 7169   6.415   3.270   5.655 -0.3596  0.8899  0.1309
   54MOL0     C 7170   6.274   3.299   5.721 -1.1862  0.7108  0.2262
   54MOL0     C 7171   6.271   3.282   5.869 -0.1529 -0.1081 -0.3323
   54MOL0     N 7172   6.131   3.266   5.920 -0.4994  0.3701  0.5716
   54MOL0     C 7173   6.021   3.348   5.890 -0.2637  1.3091  0.3913
   54MOL0     C 7174   5.937   3.307   5.984  0.7695 -0.3977  0.1644
   54MOL0     C 7175   5.802   3.375   6.002  0.3036  0.8816 -0.2145
   54MOL0     C 7176   5.683   3.307   5.929  0.9356  0.6056 -0.1321
   54MOL0     C 7177   5.554   3.370   5.961 -0.0424 -0.7773 -0.0894
   54MOL0     C 7178   5.524   3.478   5.855  0.0050 -0.7817  0.8341
   54MOL0     O 7179   5.402   3.550   5.873  0.0904 -0.6580 -0.7393
   54MOL0     C 7180   5.279   3.483   5.883 -1.0376  0.2346  0.2460
   54MOL0     C 7181   5.168   3.541   5.944  0.1665  0.4627  0.3589
   54MOL0     C 7182   5.039   3.492   5.940  0.5707 -0.4660  0.0060
   54MOL0     C 7183   4.929   3.580   6.002  0.1976 -1.0152  0.0602
   54MOL0     C 7184   5.020   3.368   5.872  0.3872  0.0539  0.1270
   54MOL0     C 7185   4.890   3.293   5.870 -0.5675 -0.1116  0.8455
   54MOL0     O 7186   4.896   3.162   5.864  0.6444 -0.1195  0.2221
   54MOL0     C 7187   4.777   3.092   5.866 -0.4364  0.3144 -0.1684
   54MOL0     C 7188   4.662   3.102   5.783 -0.0895 -0.0855  0.9546
   54MOL0     C 7189   4.540   3.042   5.793  0.3831  0.2181  0.6754
   54MOL0     C 7190   4.529   2.948   5.903  0.1855 -0.9345 -0.3151
   54MOL0     O 7191   4.415   2.888   5.947  0.1330  0.8249  0.1449
   54MOL0     C 7192   4.298   2.976   5.943  1.0172  0.4506  0.1897
   54MOL0     C 7193   4.187   2.939   6.045  0.2620 -0.7409  0.8066
   54MOL0     C 7194   4.102   2.817   5.996  0.2849  0.0682  0.3331
   54MOL0     C 7195   4.195   2.691   5.968 -0.1182 -0.7037 -0.1796
   54MOL0     C 7196   4.124   2.571   5.921  0.2347 -0.3176 -0.3022
   54MOL0     C 7197   3.995   2.539   5.984 -0.4054  0.0896 -1.3310
   54MOL0     C 7198   3.948   2.390   5.962 -0.1444 -0.4392  0.3482
   54MOL0     C 7199   3.847   2.356   6.053 -0.1454 -0.5781  0.1272
   54MOL0    Cl 7200   3.697   2.451   6.010 -0.0202  0.2384  0.1233
   54MOL0     C 7201   4.636   2.937   5.988  0.1191  0.8115  0.9655
   54MOL0     C 7202   4.764   3.000   5.970 -0.1576  0.4671 -0.6671
   54MOL0     O 7203   4.789   3.357   5.887 -0.1758  1.4925 -0.1816
   54MOL0     C 7204   5.125   3.303   5.807 -0.4236  0.1097  0.7136
   54MOL0     C 7205   5.248   3.357   5.821  0.5323 -0.3083  0.4523
   54MOL0     N 7206   5.975   3.188   6.044 -0.4657 -0.1559  0.3585
   54MOL0     N 7207   6.098   3.169   6.005 -0.9562  0.4426 -0.3565
   54MOL0     C 7208   7.250   3.599   5.681 -1.5666 -0.6197  0.0172
   54MOL0     C 7209   7.369   3.674   5.666 -0.0148  0.5643  1.2780
   54MOL0     C 7210   7.760   3.862   5.522  1.2407  0.4458 -0.6730
   54MOL0     C 7211   7.754   3.945   5.405 -0.2585 -0.1919  0.3388
   54MOL0     C 7212   7.875   4.012   5.362 -0.3922  0.2836  0.8846
   54MOL0     C 7213   7.993   3.994   5.439  0.4364 -0.4192 -0.1962
   54MOL0     O 7214   8.102   4.063   5.390 -0.1288  0.0767  0.1260
   54MOL0     C 7215   8.223   4.065   5.470  0.7151  0.3135  0.3591
   54MOL0     C 7216   8.317   4.156   5.389 -0.4679 -0.1023 -0.5511
   54MOL0     C 7217   8.303   4.304   5.441 -0.6051 -0.2277  0.0135
   54MOL0     C 7218   8.388   4.399   5.365  0.7397 -0.6462 -0.7808
   54MOL0     C 7219   8.523   4.412   5.413 -0.1538 -0.3606 -0.3888
   54MOL0     C 7220   8.630   4.433   5.472  1.2528  0.3506 -0.1688
   54MOL0     C 7221   7.985   3.922   5.558 -0.4976  0.8080 -0.8285
   54MOL0     C 7222   7.871   3.854   5.601  0.7541  0.4516 -0.6371
   54MOL0     H 7223   7.312   3.817   5.359  0.8339  2.5220  1.6916
   54MOL0     H 7224   7.095   3.708   5.392 -0.9385  2.2939 -0.2255
   54MOL0     H 7225   7.110   3.393   5.705 -0.0703  1.1114 -0.5692
   54MOL0     H 7226   6.998   3.503   5.785  0.6363  1.0420 -0.4534
   54MOL0     H 7227   6.910   3.354   5.522 -1.8342 -1.6494  0.2597
   54MOL0     H 7228   6.908   3.262   5.674  3.8440 -1.1815 -2.7888
   54MOL0     H 7229   6.758   3.493   5.742 -3.4623 -0.8000  0.6188
   54MOL0     H 7230   6.732   3.503   5.577 -0.1188 -1.1300 -0.9273
   54MOL0     H 7231   6.641   3.295   5.539  1.9011 -0.2621 -1.3665
   54MOL0     H 7232   6.703   3.227   5.696  0.1555 -0.5017 -1.9377
   54MOL0     H 7233   6.525   3.353   5.814  0.7008  3.0807 -0.3703
   54MOL0     H 7234   6.509   3.461   5.682  0.3899 -0.2985 -0.6107
   54MOL0     H 7235   6.393   3.271   5.548 -0.8526 -4.0609 -0.0445
   54MOL0     H 7236   6.454   3.169   5.675 -1.7140 -0.1881 -2.2130
   54MOL0     H 7237   6.250   3.404   5.701  4.2763  2.3182  0.4228
   54MOL0     H 7238   6.198   3.235   5.675 -0.2317 -0.4050  0.1810
   54MOL0     H 7239   6.319   3.364   5.922 -0.8060 -0.5924  1.0612
   54MOL0     H 7240   6.320   3.188   5.895 -2.0256 -1.1712 -0.4276
   54MOL0     H 7241   6.017   3.430   5.818 -0.5988 -1.1781 -2.6198
   54MOL0     H 7242   5.788   3.378   6.111  2.2864  3.1555  0.0473
   54MOL0     H 7243   5.807   3.478   5.967  0.6674  0.9130 -0.0747
   54MOL0     H 7244   5.684   3.204   5.965  3.6762  1.0603  1.4014
   54MOL0     H 7245   5.707   3.315   5.822 -0.0571 -0.5984 -0.4579
   54MOL0     H 7246   5.556   3.417   6.060 -2.8408  2.2798 -1.3094
   54MOL0     H 7247   5.469   3.301   5.958  0.2256 -1.1407 -3.5783
   54MOL0     H 7248   5.530   3.438   5.754 -2.8696 -2.8199  1.3546
   54MOL0     H 7249   5.605   3.552   5.856  2.2514 -3.0385 -0.7372
   54MOL0     H 7250   5.185   3.633   5.998  1.2046  1.2346 -1.2344
   54MOL0     H 7251   4.969   3.661   6.064 -0.2467  2.9721 -4.2485
   54MOL0     H 7252   4.879   3.634   5.921  0.3437  1.9028  1.8030
   54MOL0     H 7253   4.850   3.520   6.047 -0.6650 -0.0754 -0.1684
   54MOL0     H 7254   4.668   3.178   5.706 -0.2830 -1.2710 -0.2618
   54MOL0     H 7255   4.460   3.068   5.725  1.4611 -0.3902 -0.9000
   54MOL0     H 7256   4.337   3.074   5.974  1.3815 -0.0251  1.2869
   54MOL0     H 7257   4.265   2.982   5.839  1.0688 -1.0521  0.0692
   54MOL0     H 7258   4.231   2.922   6.143  1.1910  0.7654  0.6790
   54MOL0     H 7259   4.116   3.021   6.058 -1.5837 -2.5772  3.3834
   54MOL0     H 7260   4.054   2.845   5.902  1.9226  1.1967 -0.2179
   54MOL0     H 7261   4.018   2.803   6.065  0.4499  2.7650  1.2036
   54MOL0     H 7262   4.268   2.728   5.895  0.4700  2.1403  1.6985
   54MOL0     H 7263   4.250   2.672   6.061 -1.7666  2.9698  1.7642
   54MOL0     H 7264   4.190   2.484   5.922  0.0023 -0.6116 -2.8219
   54MOL0     H 7265   4.109   2.593   5.815 -1.8615 -0.4334 -0.0782
   54MOL0     H 7266   4.020   2.544   6.091  0.3461 -1.9278 -1.3825
   54MOL0     H 7267   3.915   2.611   5.963  0.3713  1.6687  0.6723
   54MOL0     H 7268   4.035   2.332   5.993  0.9128  2.2762  2.9511
   54MOL0     H 7269   3.911   2.371   5.861  0.9503 -0.5924 -0.0427
   54MOL0     H 7270   3.883   2.378   6.154  0.2662 -0.5853 -0.0149
   54MOL0     H 7271   3.825   2.249   6.040 -0.2587 -0.5690  0.2442
   54MOL0     H 7272   4.618   2.861   6.064 -3.0590  0.9122  0.4156
   54MOL0     H 7273   4.853   2.993   6.033 -1.8067 -0.4303  1.6909
   54MOL0     H 7274   5.121   3.202   5.767 -0.6414  0.6789 -0.7752
   54MOL0     H 7275   5.331   3.312   5.768 -0.8935  0.1418 -2.3799
   54MOL0     H 7276   7.235   3.549   5.776 -0.0274 -3.3416 -1.0426
   54MOL0     H 7277   7.445   3.670   5.743 -0.0379  1.9960  1.3914
   54MOL0     H 7278   7.665   3.968   5.348  0.3230  2.2368  0.2759
   54MOL0     H 7279   7.873   4.075   5.273  0.9165  0.9768  1.3089
   54MOL0     H 7280   8.201   4.113   5.566  2.1088  4.9894 -1.4114
   54MOL0     H 7281   8.272   3.967   5.480  0.9696  0.4998  1.0516
   54MOL0     H 7282   8.320   4.143   5.280  0.2041 -2.1988 -0.3355
   54MOL0     H 7283   8.416   4.122   5.420 -1.4840 -1.8610  0.9695
   54MOL0     H 7284   8.327   4.314   5.547 -1.7018 -1.3236  0.3889
   54MOL0     H 7285   8.196   4.322   5.453 -0.1099  1.3081  3.3126
   54MOL0     H 7286   8.344   4.499   5.376  1.2603 -0.6255  1.6727
   54MOL0     H 7287   8.400   4.381   5.258  0.2075  2.9897 -1.5869
   54MOL0     H 7288   8.725   4.454   5.517  1.6353 -0.0675 -0.7659
   54MOL0     H 7289   8.074   3.909   5.618 -1.3798  2.1931  0.8881
   54MOL0     H 7290   7.876   3.803   5.697  0.7025  0.8028 -0.4447
   55MOL0     O 7291  10.721   4.098   4.929  1.1840  0.3101  0.0006
   55MOL0     C 7292  10.790   4.047   5.015 -0.0852 -0.5311 -0.2958
   55MOL0     O 7293  10.754   4.029   5.154  0.3551  0.0813  0.3465
   55MOL0     C 7294  10.631   4.044   5.207 -0.1613 -0.9653  0.3406
   55MOL0     C 7295  10.607   3.991   5.331  0.0200  0.7458 -0.0974
   55MOL0     C 7296  10.494   4.018   5.403 -0.6304  0.2340 -0.0834
   55MOL0     C 7297  10.387   4.088   5.342 -0.1640  0.3324  0.2912
   55MOL0     O 7298  10.259   4.108   5.392  0.2094 -0.7111  0.1660
   55MOL0     C 7299  10.192   4.000   5.460 -0.1007 -0.1522  0.1041
   55MOL0     C 7300  10.045   4.019   5.429  0.1543  0.2466  0.5695
   55MOL0     C 7301   9.968   3.895   5.479  1.5251 -0.2992 -0.1326
   55MOL0     C 7302   9.968   3.861   5.632 -0.0480  0.8297  0.2506
   55MOL0     C 7303   9.931   3.708   5.663 -0.2232 -0.9914 -0.0644
   55MOL0     C 7304   9.895   3.678   5.812  0.2385  0.6957 -0.4330
   55MOL0     C 7305   9.902   3.524   5.845  0.0238 -0.4209  0.2350
   55MOL0     C 7306   9.799   3.439   5.770 -0.5379  0.0162  0.3032
   55MOL0     N 7307   9.660   3.501   5.789 -0.5082  0.1859  0.6901
   55MOL0     C 7308   9.575   3.496   5.893 -0.0987  0.7683  0.1924
   55MOL0     C 7309   9.471   3.573   5.859  0.0261 -0.1214 -0.3567
   55MOL0     C 7310   9.349   3.589   5.942 -0.1743 -0.1677  0.0300
   55MOL0     C 7311   9.329   3.739   5.975  0.2132 -0.5323 -0.1233
   55MOL0     C 7312   9.219   3.754   6.081  0.5622  0.3266 -0.5534
   55MOL0     C 7313   9.084   3.697   6.030 -0.7104  0.1467  0.5927
   55MOL0     O 7314   9.085   3.554   6.039 -0.0169  0.2682 -0.7782
   55MOL0     C 7315   8.959   3.495   6.034  0.2697 -0.4454  0.1329
   55MOL0     C 7316   8.926   3.396   6.124 -0.1178  0.0620 -0.2605
   55MOL0     C 7317   8.805   3.326   6.117  0.5174 -0.0524 -0.4414
   55MOL0     C 7318   8.789   3.233   6.225  0.4508  0.3158  0.1041
   55MOL0     C 7319   8.703   3.370   6.034  0.4132  0.5332  0.7257
   55MOL0     C 7320   8.576   3.300   6.008 -0.4623 -0.0127  0.3905
   55MOL0     O 7321   8.495   3.301   6.118  0.1990  0.0082 -0.4365
   55MOL0     C 7322   8.374   3.270   6.112  0.3581  0.3495  0.2431
   55MOL0     C 7323   8.332   3.136   6.085  0.6230  0.3127 -0.7917
   55MOL0     C 7324   8.197   3.107   6.104 -1.1918 -0.0040 -0.4699
   55MOL0     C 7325   8.107   3.201   6.148  0.0742 -0.1301 -0.2899
   55MOL0     O 7326   7.974   3.168   6.173 -0.2293 -0.1907 -0.5705
   55MOL0     C 7327   7.904   3.117   6.052 -0.1443  0.3862 -0.1244
   55MOL0     C 7328   7.823   2.999   6.109  0.3131  0.1905 -0.5035
   55MOL0     C 7329   7.756   2.910   6.003 -0.3211  0.7040 -0.5538
   55MOL0     C 7330   7.612   2.975   5.965  0.3324  0.2370  1.0086
   55MOL0     C 7331   7.538   2.898   5.847 -0.0571 -1.2183 -1.0403
   55MOL0     C 7332   7.515   2.751   5.885  0.1328  0.6375 -0.2341
   55MOL0     C 7333   7.415   2.677   5.789 -0.8457 -0.3048 -0.2414
   55MOL0     C 7334   7.369   2.552   5.868 -0.2667  0.3764 -0.4217
   55MOL0    Cl 7335   7.274   2.598   6.016  0.0460  0.0074 -0.1892
   55MOL0     C 7336   8.145   3.337   6.157 -0.0220 -0.5316 -0.0883
   55MOL0     C 7337   8.282   3.370   6.147 -0.3371  0.6325 -0.2816
   55MOL0     O 7338   8.545   3.270   5.894 -0.1311  0.1721  0.7163
   55MOL0     C 7339   8.738   3.471   5.940  0.1297 -0.2078  0.1742
   55MOL0     C 7340   8.865   3.528   5.937 -0.7375 -0.1560  0.3818
   55MOL0     N 7341   9.500   3.621   5.733  0.2432  0.0968 -0.3193
   55MOL0     N 7342   9.607   3.570   5.689  0.5878  0.3193 -0.7267
   55MOL0     C 7343  10.413   4.140   5.211 -0.4293 -0.3964  0.0362
   55MOL0     C 7344  10.529   4.119   5.145 -0.3763 -0.5289  0.3554
   55MOL0     C 7345  10.927   4.034   4.983 -1.1506  0.0613  0.0088
   55MOL0     C 7346  10.990   4.097   4.871  0.0848  0.4737 -0.3391
   55MOL0     C 7347  11.122   4.067   4.839 -0.1955  0.5855  0.6751
   55MOL0     C 7348  11.193   3.978   4.919  0.0074 -0.1878  0.4359
   55MOL0     O 7349  11.328   3.942   4.883  1.2634 -0.6162 -0.0707
   55MOL0     C 7350  11.412   3.888   4.979 -0.3045  0.1755  1.0091
   55MOL0     C 7351  11.547   3.862   4.907  0.6414 -0.4425 -0.6908
   55MOL0     C 7352  11.541   3.765   4.781  0.6205 -0.2254 -0.7105
   55MOL0     C 7353  11.671   3.692   4.756 -0.7411 -0.3500 -0.0605
   55MOL0     C 7354  11.794   3.784   4.750 -0.5451  0.2529  0.0340
   55MOL0     C 7355  11.881   3.865   4.758  0.2670  0.4525 -0.7228
   55MOL0     C 7356  11.134   3.924   5.037 -0.3120  0.5397 -0.6847
   55MOL0     C 7357  11.001   3.950   5.064 -0.7737  0.4172  0.4090
   55MOL0     H 7358  10.669   3.925   5.391 -3.0871 -1.1603  1.3040
   55MOL0     H 7359  10.496   3.973   5.502 -1.5171 -0.2054 -0.2537
   55MOL0     H 7360  10.233   3.910   5.413 -0.6852  0.8237 -2.4180
   55MOL0     H 7361  10.206   4.005   5.569 -0.3305 -4.2698  0.4828
   55MOL0     H 7362  10.017   4.108   5.487  0.6500  0.6107  0.2535
   55MOL0     H 7363  10.028   4.030   5.322 -1.9187 -3.7755  0.3011
   55MOL0     H 7364   9.865   3.895   5.444  1.2544 -2.1844  0.5701
   55MOL0     H 7365  10.003   3.807   5.423 -0.0604  0.1221 -1.8801
   55MOL0     H 7366  10.063   3.889   5.679  0.9299 -0.9853 -0.5115
   55MOL0     H 7367   9.890   3.926   5.672  0.0731 -0.2001  2.2597
   55MOL0     H 7368   9.855   3.673   5.594  0.9396  1.5196 -2.8703
   55MOL0     H 7369  10.023   3.654   5.640  0.6139  0.3007  0.0930
   55MOL0     H 7370   9.973   3.720   5.876 -2.3619  1.3486  2.5952
   55MOL0     H 7371   9.804   3.732   5.840 -0.1612  0.0721 -0.5039
   55MOL0     H 7372  10.005   3.492   5.826 -0.6623 -1.8505 -1.3135
   55MOL0     H 7373   9.892   3.514   5.953  1.0758  0.1649  0.4046
   55MOL0     H 7374   9.802   3.336   5.808  0.6013  0.1045  0.4645
   55MOL0     H 7375   9.822   3.433   5.663  0.5866  1.1634  0.4603
   55MOL0     H 7376   9.598   3.448   5.988  3.2392 -0.2290 -0.9972
   55MOL0     H 7377   9.264   3.551   5.885  1.6810 -0.4732 -2.7778
   55MOL0     H 7378   9.374   3.543   6.037  4.0046 -1.5857 -1.5282
   55MOL0     H 7379   9.306   3.806   5.892 -0.1785 -1.6141 -0.8999
   55MOL0     H 7380   9.427   3.764   6.018  0.4043  0.7484 -1.2464
   55MOL0     H 7381   9.213   3.860   6.106  1.7202  0.1904  0.3740
   55MOL0     H 7382   9.246   3.689   6.164  1.4101 -1.9987 -2.5123
   55MOL0     H 7383   9.064   3.721   5.926 -0.2158 -2.9746 -0.3045
   55MOL0     H 7384   9.006   3.750   6.086 -0.1933  0.7188  0.7905
   55MOL0     H 7385   9.007   3.373   6.193  2.1396  0.5692 -2.5938
   55MOL0     H 7386   8.873   3.164   6.237 -0.2772 -0.9600 -1.6713
   55MOL0     H 7387   8.762   3.292   6.313  2.0078  3.9655 -1.6605
   55MOL0     H 7388   8.712   3.156   6.212  2.3053 -1.7962  0.7895
   55MOL0     H 7389   8.400   3.053   6.069 -0.5848 -0.9878  0.5460
   55MOL0     H 7390   8.154   3.007   6.109 -3.5718  1.0255  2.2823
   55MOL0     H 7391   7.850   3.199   6.004 -1.3604  0.0448  0.6166
   55MOL0     H 7392   7.969   3.083   5.971  2.5125  2.3982  1.0522
   55MOL0     H 7393   7.893   2.934   6.163 -0.8261 -2.7529 -2.3159
   55MOL0     H 7394   7.750   3.042   6.178 -0.4136 -1.8695  0.0870
   55MOL0     H 7395   7.739   2.809   6.039 -2.8561  1.1769 -0.2544
   55MOL0     H 7396   7.827   2.899   5.920 -1.1719 -1.7635 -1.0095
   55MOL0     H 7397   7.554   2.960   6.057  1.0748 -1.0616  1.2953
   55MOL0     H 7398   7.615   3.081   5.939 -0.6570  0.0915  0.2682
   55MOL0     H 7399   7.602   2.900   5.759  1.4127  0.3600  0.0095
   55MOL0     H 7400   7.443   2.953   5.843 -0.9064 -2.2084  2.1354
   55MOL0     H 7401   7.605   2.689   5.879 -0.6558 -0.4123 -2.1781
   55MOL0     H 7402   7.471   2.750   5.985 -0.6729 -0.5410 -0.5791
   55MOL0     H 7403   7.468   2.651   5.697  0.8465 -0.3472  0.6994
   55MOL0     H 7404   7.322   2.733   5.774 -0.8938  0.1532  1.5858
   55MOL0     H 7405   7.457   2.494   5.896  0.0170  2.2441  3.1121
   55MOL0     H 7406   7.303   2.490   5.806 -1.4776  1.8976 -0.7361
   55MOL0     H 7407   8.073   3.411   6.190  0.6414  1.2593 -2.4131
   55MOL0     H 7408   8.313   3.468   6.182  1.1139  0.0839  0.0529
   55MOL0     H 7409   8.677   3.497   5.853 -0.3643 -0.0499  0.5601
   55MOL0     H 7410   8.904   3.599   5.865  2.9207 -1.8805  0.4386
   55MOL0     H 7411  10.323   4.184   5.169  1.1248  1.1469 -1.8314
   55MOL0     H 7412  10.535   4.170   5.050  3.5199 -0.6920  0.3542
   55MOL0     H 7413  10.941   4.158   4.795 -3.1792 -2.5015 -0.8552
   55MOL0     H 7414  11.170   4.110   4.752  0.1450 -0.2830  0.4288
   55MOL0     H 7415  11.426   3.962   5.058 -1.3981 -0.2638  1.6295
   55MOL0     H 7416  11.379   3.793   5.022  1.0264  0.0773  1.9000
   55MOL0     H 7417  11.613   3.820   4.983 -0.7584 -4.4532 -1.4493
   55MOL0     H 7418  11.575   3.961   4.870 -4.2031  0.0891 -3.8820
   55MOL0     H 7419  11.529   3.817   4.685 -0.1213 -1.9796 -1.6312
   55MOL0     H 7420  11.461   3.691   4.795  1.3487 -0.6474  1.6816
   55MOL0     H 7421  11.654   3.642   4.661 -1.6819 -0.3166  0.0872
   55MOL0     H 7422  11.682   3.621   4.839 -1.7714 -0.1759  0.2313
   55MOL0     H 7423  11.949   3.941   4.791 -0.5130  0.4643  0.9232
   55MOL0     H 7424  11.195   3.858   5.098 -2.1868 -0.3300  0.2978
   55MOL0     H 7425  10.958   3.896   5.147 -2.1316  1.1798  0.2217
   56MOL0     O 7426   7.320   1.840   9.825  0.1426 -0.5922  0.1613
   56MOL0     C 7427   7.411   1.842   9.740  0.3731 -0.4441 -0.9242
   56MOL0     O 7428   7.484   1.954   9.711  0.0809  0.3195 -1.1200
   56MOL0     C 7429   7.437   2.079   9.736  0.2971 -0.3757 -0.2946
   56MOL0     C 7430   7.304   2.110   9.742  0.6612 -0.2321 -0.4878
   56MOL0     C 7431   7.255   2.238   9.784  0.2733  0.2690 -1.7127
   56MOL0     C 7432   7.340   2.347   9.788  0.0465 -0.0230 -0.0599
   56MOL0     O 7433   7.296   2.476   9.821 -0.1903 -0.0147  0.2124
   56MOL0     C 7434   7.343   2.568   9.718  0.6250  0.5268  0.6944
   56MOL0     C 7435   7.228   2.665   9.695  0.2043  0.1982 -0.3750
   56MOL0     C 7436   7.181   2.746   9.817 -0.5332 -0.2092 -0.2990
   56MOL0     C 7437   7.077   2.847   9.760  0.1113  0.2934 -0.3792
   56MOL0     C 7438   7.015   2.928   9.877 -0.3769  0.1396 -0.3211
   56MOL0     C 7439   6.888   2.853   9.945 -0.3233 -0.8694 -0.2078
   56MOL0     C 7440   6.860   2.896  10.090  0.9845  0.2181  0.2548
   56MOL0     C 7441   6.752   2.812  10.162  0.3179 -0.0869 -0.1813
   56MOL0     N 7442   6.698   2.884  10.276  0.7591  0.2007  0.2308
   56MOL0     C 7443   6.574   2.945  10.276  0.5720 -0.0914  0.9273
   56MOL0     C 7444   6.573   3.017  10.394  0.1453  0.8582 -0.1066
   56MOL0     C 7445   6.456   3.098  10.448  0.5931  0.2015  0.8513
   56MOL0     C 7446   6.307   3.078  10.397  0.8507 -0.0339  0.6898
   56MOL0     C 7447   6.246   2.941  10.425  0.0165  0.2752  0.5431
   56MOL0     C 7448   6.090   2.954  10.427 -0.0550 -0.1213 -0.3461
   56MOL0     O 7449   6.049   3.046  10.528  0.4211  0.5933 -0.1934
   56MOL0     C 7450   5.918   3.076  10.563 -0.0297 -0.3054  0.2988
   56MOL0     C 7451   5.811   3.016  10.497 -0.2793  0.0049  1.0760
   56MOL0     C 7452   5.677   3.031  10.542  0.1593  0.6699  0.0925
   56MOL0     C 7453   5.566   2.964  10.463  0.1402  0.0469  0.4681
   56MOL0     C 7454   5.647   3.101  10.662 -0.9000  0.2869  0.3294
   56MOL0     C 7455   5.512   3.131  10.713 -0.0824 -0.6701 -0.3253
   56MOL0     O 7456   5.402   3.056  10.672 -0.7410 -0.4292  0.4402
   56MOL0     C 7457   5.267   3.069  10.712  0.2082 -0.6585  0.0103
   56MOL0     C 7458   5.180   2.989  10.634 -0.3060 -0.1987  0.2859
   56MOL0     C 7459   5.044   2.976  10.656 -0.3065  0.1741 -0.0963
   56MOL0     C 7460   4.997   3.050  10.769  0.2494  0.0903 -0.0963
   56MOL0     O 7461   4.866   3.038  10.818  0.4467  0.4149 -0.1627
   56MOL0     C 7462   4.762   3.019  10.719 -0.4239 -0.9728 -0.0516
   56MOL0     C 7463   4.631   3.057  10.782 -0.3804 -0.6528 -1.1023
   56MOL0     C 7464   4.591   2.969  10.900 -0.6459 -0.4911 -0.7280
   56MOL0     C 7465   4.476   3.037  10.976  0.4087 -0.2220  0.4086
   56MOL0     C 7466   4.394   2.926  11.036 -0.2354  0.1176  0.4528
   56MOL0     C 7467   4.274   2.981  11.121 -0.1235 -0.7025  0.3228
   56MOL0     C 7468   4.221   2.875  11.207  0.4043  0.0285 -0.7124
   56MOL0     C 7469   4.146   2.775  11.120  0.4493 -0.2291 -0.2414
   56MOL0    Cl 7470   4.061   2.667  11.245  0.0130  0.0400 -0.1911
   56MOL0     C 7471   5.084   3.138  10.846  0.6422  0.2488  0.4932
   56MOL0     C 7472   5.217   3.142  10.814 -0.5019 -0.3985 -0.2239
   56MOL0     O 7473   5.496   3.229  10.789  0.3458  0.4192  0.4533
   56MOL0     C 7474   5.762   3.163  10.719 -0.2747  0.1993 -0.6307
   56MOL0     C 7475   5.898   3.153  10.674 -0.2436  0.1480  0.5387
   56MOL0     N 7476   6.686   2.989  10.453 -0.0826 -0.4896 -0.8245
   56MOL0     N 7477   6.759   2.912  10.391  0.1520  0.9484  0.7033
   56MOL0     C 7478   7.477   2.319   9.778 -0.3359  0.0267 -0.1558
   56MOL0     C 7479   7.524   2.190   9.751 -1.5365  1.1199  0.2802
   56MOL0     C 7480   7.456   1.708   9.692  0.5121 -0.0402 -0.0537
   56MOL0     C 7481   7.430   1.584   9.761  0.4129 -0.0905  1.0677
   56MOL0     C 7482   7.476   1.463   9.710  0.3150 -1.7503 -0.0913
   56MOL0     C 7483   7.553   1.460   9.599 -0.0199 -0.1764  0.3839
   56MOL0     O 7484   7.609   1.339   9.565  0.6426  0.3351  0.4286
   56MOL0     C 7485   7.525   1.281   9.473  0.6631  0.2795  0.1739
   56MOL0     C 7486   7.592   1.150   9.435 -0.4290  0.5286  0.2392
   56MOL0     C 7487   7.599   1.063   9.560  0.3022  0.2278 -0.4298
   56MOL0     C 7488   7.676   0.934   9.546  0.7394 -0.4727 -0.8563
   56MOL0     C 7489   7.641   0.829   9.651  0.6267  0.2004  0.5509
   56MOL0     C 7490   7.625   0.738   9.738 -0.2465 -0.1704  0.6989
   56MOL0     C 7491   7.583   1.578   9.524  0.9385 -0.3967  0.0415
   56MOL0     C 7492   7.531   1.702   9.567 -0.3520 -0.2659 -0.0941
   56MOL0     H 7493   7.222   2.041   9.728  1.9197 -2.3822  2.0020
   56MOL0     H 7494   7.150   2.246   9.807  0.6700 -0.4208  0.5381
   56MOL0     H 7495   7.437   2.619   9.744  0.7450  1.0371 -0.6486
   56MOL0     H 7496   7.358   2.524   9.619 -4.2537  2.4712 -1.2478
   56MOL0     H 7497   7.253   2.733   9.614  0.4758  0.8779  0.2626
   56MOL0     H 7498   7.141   2.606   9.666 -0.4020  2.3278 -3.2171
   56MOL0     H 7499   7.144   2.693   9.905 -1.0894  0.4229 -0.1445
   56MOL0     H 7500   7.271   2.798   9.851  0.4758 -1.6176 -0.7225
   56MOL0     H 7501   7.125   2.909   9.683 -1.0193  0.3285 -1.0836
   56MOL0     H 7502   6.989   2.803   9.712  0.9133 -0.3198 -1.3304
   56MOL0     H 7503   7.087   2.955   9.955 -0.0663  0.6009 -0.7646
   56MOL0     H 7504   6.978   3.021   9.834  0.6092  1.8723  2.3217
   56MOL0     H 7505   6.797   2.872   9.888 -1.1952 -3.7268  0.0622
   56MOL0     H 7506   6.903   2.745   9.939 -1.0031 -0.9722 -0.1222
   56MOL0     H 7507   6.947   2.894  10.156  1.4889  1.6769 -0.3329
   56MOL0     H 7508   6.831   3.001  10.086  0.2648 -0.0173 -2.5266
   56MOL0     H 7509   6.807   2.725  10.200  1.1692  0.8265  0.7426
   56MOL0     H 7510   6.675   2.770  10.097  0.3666  2.6620 -2.1576
   56MOL0     H 7511   6.497   2.939  10.199  1.0140 -3.5749  0.5753
   56MOL0     H 7512   6.459   3.102  10.557 -0.6880  0.2565  0.9032
   56MOL0     H 7513   6.491   3.199  10.425 -0.1656  0.0915 -1.0586
   56MOL0     H 7514   6.301   3.091  10.289 -2.4056 -0.0220  0.7884
   56MOL0     H 7515   6.243   3.149  10.450  1.3590  0.2568  0.9295
   56MOL0     H 7516   6.287   2.907  10.521 -1.9033  1.2907  1.8073
   56MOL0     H 7517   6.282   2.874  10.347  0.0472  1.2344 -0.2819
   56MOL0     H 7518   6.061   2.850  10.443 -1.1792 -0.2084 -2.5351
   56MOL0     H 7519   6.063   2.991  10.328 -1.8815 -1.7624 -0.5272
   56MOL0     H 7520   5.830   2.949  10.414 -2.2559  1.7593 -0.9260
   56MOL0     H 7521   5.538   2.875  10.520  0.3980  1.1294  2.3651
   56MOL0     H 7522   5.481   3.030  10.443  1.5372  2.6142  2.3189
   56MOL0     H 7523   5.607   2.936  10.365 -3.0280  0.8332 -1.2123
   56MOL0     H 7524   5.218   2.931  10.550 -2.2756 -0.6727 -0.3357
   56MOL0     H 7525   4.985   2.904  10.600  0.7760 -1.6150  0.9866
   56MOL0     H 7526   4.780   3.088  10.636  0.3246  1.1384  1.7574
   56MOL0     H 7527   4.759   2.915  10.685 -1.1687 -0.3866 -1.8839
   56MOL0     H 7528   4.642   3.159  10.820 -0.1471 -1.3894  0.9262
   56MOL0     H 7529   4.553   3.064  10.705  0.9289  1.9585 -2.3119
   56MOL0     H 7530   4.678   2.950  10.964 -0.9120  1.3185  0.2229
   56MOL0     H 7531   4.550   2.876  10.858 -0.2777 -1.5920  1.2201
   56MOL0     H 7532   4.523   3.109  11.044 -0.5066 -0.0058  0.8323
   56MOL0     H 7533   4.415   3.100  10.910 -0.4137  0.7033  1.9917
   56MOL0     H 7534   4.450   2.862  11.104 -0.3619 -1.7841 -1.1523
   56MOL0     H 7535   4.360   2.857  10.958  1.4844 -0.6457  0.3328
   56MOL0     H 7536   4.316   3.047  11.198 -0.5027 -0.3017  0.1876
   56MOL0     H 7537   4.211   3.041  11.055  1.3496  0.6063  0.0518
   56MOL0     H 7538   4.143   2.902  11.280  1.4714 -2.2152  1.4375
   56MOL0     H 7539   4.307   2.839  11.263  2.1454  1.5199 -2.3174
   56MOL0     H 7540   4.224   2.723  11.064  3.2786  0.9977  2.3047
   56MOL0     H 7541   4.066   2.817  11.058  0.7857 -0.3293 -0.7497
   56MOL0     H 7542   5.051   3.177  10.942 -4.1050 -2.2084  0.1548
   56MOL0     H 7543   5.272   3.208  10.882 -0.2580  0.9468 -1.6672
   56MOL0     H 7544   5.749   3.207  10.817  3.4564  0.7910 -0.2612
   56MOL0     H 7545   5.991   3.187  10.719 -0.8728 -0.5741  2.5194
   56MOL0     H 7546   7.561   2.386   9.792  0.5512 -1.1647  0.4717
   56MOL0     H 7547   7.631   2.174   9.738 -0.9209  2.8575  2.5682
   56MOL0     H 7548   7.370   1.582   9.851 -0.9955  4.1572  0.4505
   56MOL0     H 7549   7.447   1.372   9.760  0.1314 -1.6162  0.0468
   56MOL0     H 7550   7.426   1.256   9.510 -0.9817  3.5166 -1.5976
   56MOL0     H 7551   7.501   1.348   9.390 -2.0802  1.8891  2.1307
   56MOL0     H 7552   7.696   1.157   9.403 -0.2109 -0.6058  0.6359
   56MOL0     H 7553   7.533   1.104   9.355  0.5418  0.3826 -0.4119
   56MOL0     H 7554   7.501   1.032   9.598  0.0469  0.3679 -0.9701
   56MOL0     H 7555   7.642   1.121   9.643  0.2149 -0.5944  0.2014
   56MOL0     H 7556   7.782   0.960   9.552  0.2718  1.6064 -0.8915
   56MOL0     H 7557   7.660   0.884   9.450 -0.2977 -0.8104 -0.5271
   56MOL0     H 7558   7.636   0.667   9.817  1.1227 -1.1000 -0.2750
   56MOL0     H 7559   7.642   1.580   9.432  0.0664  1.9307 -0.5329
   56MOL0     H 7560   7.550   1.794   9.512  1.8227  0.3900  1.5862
   57MOL0     O 7561   5.119   2.967   3.871  0.2565 -0.0582  0.0838
   57MOL0     C 7562   5.147   2.858   3.825 -0.1661  0.3157 -0.0902
   57MOL0     O 7563   5.061   2.767   3.780 -0.3155 -0.5457  0.2868
   57MOL0     C 7564   4.930   2.814   3.778  0.1221  1.1044 -0.2305
   57MOL0     C 7565   4.840   2.779   3.880 -0.0419 -0.7827 -0.3984
   57MOL0     C 7566   4.706   2.825   3.882  0.7325  0.3925  0.5667
   57MOL0     C 7567   4.661   2.901   3.771  0.2356 -0.0536  0.0696
   57MOL0     O 7568   4.530   2.932   3.787  0.1528  0.7324 -0.0808
   57MOL0     C 7569   4.476   3.027   3.703  0.1092 -0.3638 -0.0319
   57MOL0     C 7570   4.343   3.075   3.748  0.3261  0.6313  0.2090
   57MOL0     C 7571   4.240   2.959   3.755 -0.0326  0.4099 -0.1393
   57MOL0     C 7572   4.104   3.001   3.706  0.4315 -0.2484 -0.3460
   57MOL0     C 7573   3.998   2.892   3.739 -0.0029  0.1856  0.5383
   57MOL0     C 7574   4.002   2.755   3.660 -0.9121  0.5262  0.5397
   57MOL0     C 7575   3.861   2.689   3.647 -0.0584  0.1812 -0.8496
   57MOL0     C 7576   3.808   2.647   3.797 -0.0750 -0.1141  0.8927
   57MOL0     N 7577   3.680   2.578   3.801  0.5079  0.4857 -0.3364
   57MOL0     C 7578   3.569   2.623   3.745  0.3555 -0.0183 -0.4053
   57MOL0     C 7579   3.474   2.530   3.778  0.0604  0.1368 -0.1977
   57MOL0     C 7580   3.327   2.536   3.746 -0.2386 -0.7668  0.1292
   57MOL0     C 7581   3.268   2.662   3.830  0.7828  0.0479 -0.9546
   57MOL0     C 7582   3.124   2.671   3.782  0.1876  0.0586 -0.0050
   57MOL0     C 7583   3.045   2.771   3.865  0.0328 -0.3259 -0.5384
   57MOL0     O 7584   2.927   2.811   3.792  0.2120  0.2662 -0.1167
   57MOL0     C 7585   2.800   2.755   3.819 -1.0755  0.2760  0.2752
   57MOL0     C 7586   2.769   2.671   3.934  0.4747 -1.2359  0.3471
   57MOL0     C 7587   2.637   2.624   3.949  0.8802  0.0550 -1.1117
   57MOL0     C 7588   2.605   2.542   4.075 -0.4060  1.2732  0.3087
   57MOL0     C 7589   2.525   2.672   3.860  0.0135 -0.7905  0.5522
   57MOL0     C 7590   2.373   2.639   3.872 -0.9364 -0.1797 -0.0104
   57MOL0     O 7591   2.295   2.707   3.787  0.2552 -0.0360  0.5501
   57MOL0     C 7592   2.162   2.692   3.756 -0.2132  0.6935  0.1383
   57MOL0     C 7593   2.070   2.587   3.789 -0.0985 -0.3930  0.0667
   57MOL0     C 7594   1.946   2.575   3.739 -0.0507 -0.7332  0.9128
   57MOL0     C 7595   1.894   2.672   3.654  0.2499  0.0790 -0.0665
   57MOL0     O 7596   1.761   2.651   3.613  0.3178 -0.3325 -0.4027
   57MOL0     C 7597   1.686   2.750   3.533 -0.0011 -0.3260 -1.0100
   57MOL0     C 7598   1.739   2.733   3.388  0.3090  0.5204 -0.0474
   57MOL0     C 7599   1.716   2.595   3.330  1.0982 -0.2162 -0.5492
   57MOL0     C 7600   1.760   2.586   3.185 -0.3324 -0.5927  1.0998
   57MOL0     C 7601   1.911   2.557   3.159 -0.5545 -0.6972  0.0092
   57MOL0     C 7602   2.008   2.645   3.235  0.0522  0.1341  0.0140
   57MOL0     C 7603   2.151   2.605   3.209  0.0747  0.4717 -0.1220
   57MOL0     C 7604   2.233   2.704   3.281 -0.1033  0.1580  0.5115
   57MOL0    Cl 7605   2.210   2.864   3.203 -0.4129 -0.3288  0.0672
   57MOL0     C 7606   1.975   2.784   3.618 -0.2093 -0.7221 -0.1374
   57MOL0     C 7607   2.107   2.792   3.669  0.1899  0.1365  0.3945
   57MOL0     O 7608   2.339   2.552   3.946 -0.3839  1.1718  0.2130
   57MOL0     C 7609   2.560   2.753   3.751 -0.3144  0.5189  0.4426
   57MOL0     C 7610   2.696   2.781   3.735 -0.4809 -0.5180 -0.6217
   57MOL0     N 7611   3.532   2.419   3.833  1.3499  0.6657 -0.3300
   57MOL0     N 7612   3.655   2.446   3.846 -0.2753 -0.6558 -0.2706
   57MOL0     C 7613   4.747   2.941   3.668  0.2913 -0.7674  0.3932
   57MOL0     C 7614   4.878   2.893   3.676  0.9671  0.7334 -0.6778
   57MOL0     C 7615   5.289   2.810   3.841  0.3045 -0.1869 -0.1672
   57MOL0     C 7616   5.329   2.677   3.819 -0.0778  0.3695 -0.4512
   57MOL0     C 7617   5.462   2.639   3.849 -0.7187  0.0176  0.0766
   57MOL0     C 7618   5.566   2.723   3.875 -0.9394 -0.9611  0.3488
   57MOL0     O 7619   5.692   2.677   3.884 -0.8310 -0.0443  0.4759
   57MOL0     C 7620   5.795   2.768   3.913 -0.2701 -0.1370 -0.3376
   57MOL0     C 7621   5.936   2.703   3.916  0.4892  0.0902 -0.1970
   57MOL0     C 7622   5.977   2.657   3.788  0.4371  0.2567  0.8038
   57MOL0     C 7623   6.128   2.603   3.795  0.4238  0.5179 -0.7494
   57MOL0     C 7624   6.184   2.582   3.664 -0.6210 -0.1381  0.4341
   57MOL0     C 7625   6.227   2.563   3.552  0.4690  0.8664 -0.2230
   57MOL0     C 7626   5.523   2.857   3.894 -0.1788  0.0554 -0.6673
   57MOL0     C 7627   5.392   2.897   3.883  0.7750 -0.2580 -0.8934
   57MOL0     H 7628   4.865   2.714   3.964 -3.9781 -2.4638 -0.3026
   57MOL0     H 7629   4.641   2.808   3.966 -1.2116  2.5659 -0.3937
   57MOL0     H 7630   4.533   3.119   3.716  2.8230 -1.8514 -0.6218
   57MOL0     H 7631   4.466   2.988   3.602  0.2195 -2.3014  0.6625
   57MOL0     H 7632   4.370   3.106   3.849  2.2054 -1.1240  0.3181
   57MOL0     H 7633   4.303   3.152   3.682  2.2370  0.4966 -1.1973
   57MOL0     H 7634   4.275   2.871   3.701 -1.6638  0.1014 -0.7502
   57MOL0     H 7635   4.225   2.920   3.856 -1.6975 -0.5602 -0.7220
   57MOL0     H 7636   4.076   3.092   3.760  4.0170  1.1113 -0.4676
   57MOL0     H 7637   4.113   3.027   3.600  2.9666  0.0316 -0.1337
   57MOL0     H 7638   4.003   2.880   3.848  3.4724 -0.3458  0.4180
   57MOL0     H 7639   3.897   2.932   3.723 -0.2791 -1.1092 -1.3972
   57MOL0     H 7640   4.045   2.777   3.562 -0.5732  3.7115  1.2996
   57MOL0     H 7641   4.074   2.698   3.720 -0.2998 -0.8734 -1.4076
   57MOL0     H 7642   3.796   2.764   3.602  1.7481  2.5712  0.2754
   57MOL0     H 7643   3.860   2.606   3.576 -3.5014  0.9837 -1.9285
   57MOL0     H 7644   3.798   2.738   3.856 -1.3215 -0.0013  0.5182
   57MOL0     H 7645   3.884   2.585   3.847  1.2504 -0.0694 -0.9476
   57MOL0     H 7646   3.553   2.722   3.702  0.2022  1.5409  2.9002
   57MOL0     H 7647   3.301   2.550   3.641  1.9445  0.2471 -0.3258
   57MOL0     H 7648   3.288   2.435   3.762  0.6849 -1.5909 -2.4329
   57MOL0     H 7649   3.321   2.756   3.817  0.7966  0.2152  0.2487
   57MOL0     H 7650   3.268   2.640   3.937  0.0958 -0.4803 -1.0521
   57MOL0     H 7651   3.066   2.579   3.778 -1.8350  1.2040  1.2709
   57MOL0     H 7652   3.134   2.720   3.685  3.3963  1.1340  0.7307
   57MOL0     H 7653   3.106   2.859   3.884 -1.3490  0.5669 -0.1249
   57MOL0     H 7654   3.025   2.737   3.967  1.0831  0.3041 -0.1073
   57MOL0     H 7655   2.829   2.650   4.022  0.2265 -1.2158  0.5229
   57MOL0     H 7656   2.693   2.533   4.138 -0.1955 -0.7233 -0.2036
   57MOL0     H 7657   2.531   2.599   4.132 -0.4161 -1.1701  2.9118
   57MOL0     H 7658   2.565   2.444   4.049 -0.1434  1.0989  0.5686
   57MOL0     H 7659   2.105   2.515   3.862 -0.3411 -1.6349 -1.0019
   57MOL0     H 7660   1.876   2.494   3.757 -1.6537  0.0798 -1.2676
   57MOL0     H 7661   1.577   2.736   3.529 -1.0950  4.8388  1.8589
   57MOL0     H 7662   1.688   2.852   3.571 -0.1846 -1.1824  1.5029
   57MOL0     H 7663   1.690   2.803   3.320  2.0624  2.2904  0.4183
   57MOL0     H 7664   1.845   2.761   3.384  1.4697 -3.2226  0.9619
   57MOL0     H 7665   1.609   2.574   3.341  1.0547  0.8923  1.7393
   57MOL0     H 7666   1.762   2.518   3.392 -0.5641 -0.9501 -0.1521
   57MOL0     H 7667   1.701   2.511   3.130  3.1543 -1.1518 -2.3369
   57MOL0     H 7668   1.731   2.679   3.136 -0.4686  0.1239  2.4910
   57MOL0     H 7669   1.941   2.567   3.055  0.5638 -0.0788  0.3767
   57MOL0     H 7670   1.932   2.454   3.192  0.0696 -0.5327  0.1224
   57MOL0     H 7671   1.986   2.749   3.209 -1.5329 -0.2135 -0.1333
   57MOL0     H 7672   1.997   2.618   3.340  0.8275 -3.6714 -0.7298
   57MOL0     H 7673   2.171   2.608   3.101 -0.1123  2.9514 -0.1414
   57MOL0     H 7674   2.169   2.504   3.247  0.0304  0.2306 -0.7369
   57MOL0     H 7675   2.341   2.687   3.292 -0.4129 -1.0161  2.0218
   57MOL0     H 7676   2.193   2.716   3.382 -1.0361  1.5226  0.0070
   57MOL0     H 7677   1.937   2.867   3.560  2.1216 -1.0245 -2.2665
   57MOL0     H 7678   2.167   2.876   3.634  1.9703 -0.6342  1.4701
   57MOL0     H 7679   2.490   2.793   3.678  1.9263  3.4602 -0.2854
   57MOL0     H 7680   2.722   2.838   3.646 -0.3917 -0.2453 -0.4208
   57MOL0     H 7681   4.706   2.990   3.580 -2.3566 -0.8740  1.4739
   57MOL0     H 7682   4.939   2.908   3.588  0.4801  0.5662 -1.0468
   57MOL0     H 7683   5.265   2.597   3.783  1.1495 -0.8257 -0.0707
   57MOL0     H 7684   5.486   2.536   3.822 -0.1646 -0.4324  2.1252
   57MOL0     H 7685   5.794   2.847   3.838 -3.5857  0.4764  0.1826
   57MOL0     H 7686   5.772   2.805   4.013 -2.3588 -1.7056 -0.1736
   57MOL0     H 7687   5.937   2.623   3.990  0.4210 -0.8520 -1.1805
   57MOL0     H 7688   6.004   2.779   3.954 -0.1052  1.4544 -1.7288
   57MOL0     H 7689   5.972   2.745   3.724  2.7569 -1.2555 -1.6958
   57MOL0     H 7690   5.914   2.578   3.748  0.0659  1.2633 -0.6682
   57MOL0     H 7691   6.123   2.499   3.831  1.1000  0.9202  0.5768
   57MOL0     H 7692   6.193   2.656   3.865  0.3443 -1.4016  0.8734
   57MOL0     H 7693   6.260   2.534   3.454 -0.2674  0.1356 -0.2679
   57MOL0     H 7694   5.585   2.938   3.929 -3.4124  1.5799  2.1475
   57MOL0     H 7695   5.376   3.004   3.894  0.9839 -0.0625 -2.3385
   58MOL0     O 7696   9.334  10.621   2.689 -0.0626 -0.3851  0.9305
   58MOL0     C 7697   9.333  10.538   2.771 -0.3201  0.5210  0.3239
   58MOL0     O 7698   9.225  10.484   2.843 -0.4881 -0.4360  0.1383
   58MOL0     C 7699   9.105  10.532   2.811 -0.7468 -0.4980  0.8382
   58MOL0     C 7700   9.027  10.474   2.709 -0.1366  0.1986 -1.2150
   58MOL0     C 7701   8.896  10.511   2.693 -0.1791 -0.1407  0.0497
   58MOL0     C 7702   8.833  10.608   2.771 -0.3626  0.3210 -0.5183
   58MOL0     O 7703   8.700  10.621   2.754 -0.8887 -0.8950 -0.5734
   58MOL0     C 7704   8.633  10.715   2.841  0.2009 -0.4063 -0.8296
   58MOL0     C 7705   8.483  10.696   2.811  0.7603  1.0434  0.3045
   58MOL0     C 7706   8.441  10.774   2.682  0.2570  0.1213  0.6214
   58MOL0     C 7707   8.422  10.924   2.701 -0.6005  0.5954  0.3417
   58MOL0     C 7708   8.366  10.980   2.575  0.4743 -0.1206  0.0316
   58MOL0     C 7709   8.327  11.134   2.595  0.2080  0.1581 -1.4533
   58MOL0     C 7710   8.277  11.214   2.474  0.6592 -0.8721 -0.6946
   58MOL0     C 7711   8.385  11.287   2.401  0.4583  1.0377 -0.0451
   58MOL0     N 7712   8.346  11.362   2.276 -1.0969  0.5033  0.3761
   58MOL0     C 7713   8.319  11.323   2.150 -0.4371  0.4968 -0.5598
   58MOL0     C 7714   8.305  11.436   2.077  0.3103 -0.0118  0.4377
   58MOL0     C 7715   8.266  11.450   1.931 -1.0250  0.4742 -0.1608
   58MOL0     C 7716   8.341  11.346   1.843  0.0052 -0.4852  0.4425
   58MOL0     C 7717   8.342  11.384   1.688  0.1051 -0.1980 -0.6318
   58MOL0     C 7718   8.452  11.484   1.649  0.0577  0.6782  0.1816
   58MOL0     O 7719   8.575  11.436   1.682  0.0387  0.3892 -0.5943
   58MOL0     C 7720   8.653  11.351   1.613  0.4307  0.0942 -0.6278
   58MOL0     C 7721   8.622  11.300   1.488 -0.2653  1.0084 -0.1297
   58MOL0     C 7722   8.706  11.214   1.417 -0.5223 -0.0215  0.4950
   58MOL0     C 7723   8.677  11.192   1.275 -0.4484  0.2350 -0.1283
   58MOL0     C 7724   8.821  11.176   1.488  0.3529  0.0842  0.1170
   58MOL0     C 7725   8.922  11.094   1.425 -0.6916  0.2305  0.9574
   58MOL0     O 7726   8.883  10.995   1.337 -0.4239 -0.0143 -0.2770
   58MOL0     C 7727   8.968  10.892   1.306  0.6658 -0.1138  0.9498
   58MOL0     C 7728   9.104  10.892   1.274  0.0862  0.0642 -0.3096
   58MOL0     C 7729   9.169  10.767   1.235  0.8235 -0.3185 -0.5221
   58MOL0     C 7730   9.100  10.642   1.238  0.3632 -0.4247 -0.6334
   58MOL0     O 7731   9.159  10.519   1.224 -0.3079  0.7899 -0.0915
   58MOL0     C 7732   9.292  10.505   1.175  0.4072 -0.1601  0.4217
   58MOL0     C 7733   9.401  10.526   1.283  0.7586  0.3350 -0.3845
   58MOL0     C 7734   9.532  10.579   1.222 -0.9692  0.2458 -0.1180
   58MOL0     C 7735   9.635  10.616   1.333  0.4132 -0.2360 -0.1043
   58MOL0     C 7736   9.746  10.699   1.275  0.6998 -0.1574  0.7469
   58MOL0     C 7737   9.827  10.642   1.157 -0.4455  0.1788 -0.6557
   58MOL0     C 7738   9.924  10.525   1.195  0.4700 -0.2700 -0.1686
   58MOL0     C 7739  10.024  10.566   1.301 -0.1047  0.0662  0.1845
   58MOL0    Cl 7740  10.187  10.510   1.274 -0.3272  0.1430  0.2199
   58MOL0     C 7741   8.965  10.650   1.275  0.9668 -0.1008  0.5524
   58MOL0     C 7742   8.900  10.772   1.290 -0.2136 -0.5558  1.0643
   58MOL0     O 7743   9.038  11.106   1.470 -0.5562  0.4137  0.4197
   58MOL0     C 7744   8.849  11.222   1.617 -0.9875  0.8028  0.5505
   58MOL0     C 7745   8.766  11.306   1.688  0.7516 -0.4902 -0.2753
   58MOL0     N 7746   8.354  11.544   2.157 -0.6586 -0.1169  0.1686
   58MOL0     N 7747   8.372  11.498   2.274  0.1921  0.6895  0.5121
   58MOL0     C 7748   8.912  10.681   2.867  0.3928 -1.0936 -0.0599
   58MOL0     C 7749   9.046  10.636   2.890  0.5383 -0.7073 -0.2066
   58MOL0     C 7750   9.466  10.489   2.803 -0.0200  0.5806 -0.7024
   58MOL0     C 7751   9.567  10.498   2.711  0.8260 -0.9656  0.5703
   58MOL0     C 7752   9.686  10.448   2.726 -0.0144  1.2490 -0.7894
   58MOL0     C 7753   9.722  10.392   2.847 -0.3504  0.9588 -0.1934
   58MOL0     O 7754   9.842  10.316   2.867 -0.3567  0.1146 -0.2631
   58MOL0     C 7755   9.959  10.366   2.800 -0.0530 -0.4879  0.3029
   58MOL0     C 7756  10.085  10.286   2.838  0.4596  0.3464  0.3146
   58MOL0     C 7757  10.141  10.313   2.980 -1.1939 -0.7301 -0.2727
   58MOL0     C 7758  10.053  10.277   3.096  0.0470  0.5371  0.9410
   58MOL0     C 7759  10.030  10.133   3.118  0.2302  0.6231  0.2667
   58MOL0     C 7760  10.013  10.014   3.138  0.1041  0.5320  0.2708
   58MOL0     C 7761   9.632  10.385   2.951  0.0458 -0.7353  0.4189
   58MOL0     C 7762   9.504  10.438   2.933 -0.4607  0.1281  0.3142
   58MOL0     H 7763   9.075  10.391   2.658  1.7975 -0.7139  1.8098
   58MOL0     H 7764   8.839  10.470   2.610 -4.8026  3.9407  0.7451
   58MOL0     H 7765   8.656  10.695   2.946 -0.2947 -1.8567 -0.9816
   58MOL0     H 7766   8.667  10.818   2.827 -1.2354  0.6655  2.5144
   58MOL0     H 7767   8.462  10.590   2.794  0.3623  0.9195  1.4803
   58MOL0     H 7768   8.418  10.730   2.892 -1.3930 -2.6196  0.3338
   58MOL0     H 7769   8.511  10.759   2.599 -1.3467  0.3015 -0.8109
   58MOL0     H 7770   8.343  10.732   2.658 -1.0018 -0.3423  5.4723
   58MOL0     H 7771   8.347  10.937   2.779 -0.7991  0.2738  0.2070
   58MOL0     H 7772   8.518  10.965   2.733 -0.4958  0.2107  0.5210
   58MOL0     H 7773   8.440  10.973   2.495  0.5008 -0.2262  0.0658
   58MOL0     H 7774   8.276  10.923   2.547  0.3756  0.5129 -1.0388
   58MOL0     H 7775   8.242  11.139   2.664 -0.1434  0.0827 -1.8782
   58MOL0     H 7776   8.406  11.183   2.652 -1.1112 -1.6692  2.2792
   58MOL0     H 7777   8.202  11.158   2.417 -0.7481  3.8862 -4.1695
   58MOL0     H 7778   8.221  11.299   2.515  1.1116 -0.9882  0.2001
   58MOL0     H 7779   8.460  11.215   2.367  0.1135  0.9479 -0.6305
   58MOL0     H 7780   8.442  11.344   2.474  0.7032  0.5859  0.1234
   58MOL0     H 7781   8.301  11.224   2.110  1.2179  0.2150 -0.6698
   58MOL0     H 7782   8.160  11.428   1.918 -0.6096 -3.9076  2.0590
   58MOL0     H 7783   8.292  11.550   1.894  0.6110  0.2696  0.3373
   58MOL0     H 7784   8.293  11.247   1.843  0.1455 -0.5944 -1.9369
   58MOL0     H 7785   8.444  11.340   1.879 -0.5671  1.8350  2.7760
   58MOL0     H 7786   8.248  11.429   1.654 -0.9842 -1.6767  0.2847
   58MOL0     H 7787   8.346  11.291   1.631 -2.2740 -0.1851 -0.9476
   58MOL0     H 7788   8.441  11.574   1.710  0.6073  0.8325  0.0647
   58MOL0     H 7789   8.443  11.516   1.545  3.1948 -1.5741 -0.9491
   58MOL0     H 7790   8.524  11.317   1.445 -2.2023 -1.4129  2.8692
   58MOL0     H 7791   8.601  11.114   1.260 -0.6354  0.7886 -2.3968
   58MOL0     H 7792   8.640  11.288   1.238 -1.2916  0.0817  0.2762
   58MOL0     H 7793   8.771  11.180   1.222  0.2772 -3.0670  1.6058
   58MOL0     H 7794   9.163  10.983   1.265  1.0467 -0.4668  0.5790
   58MOL0     H 7795   9.275  10.782   1.214  1.0656 -0.8302  0.2534
   58MOL0     H 7796   9.313  10.404   1.140  2.9092  0.1672  0.7684
   58MOL0     H 7797   9.306  10.574   1.091 -0.8468  0.5060  0.7353
   58MOL0     H 7798   9.355  10.597   1.352  2.5200  0.7416  0.4313
   58MOL0     H 7799   9.424  10.430   1.331  1.1118  0.5825 -0.0415
   58MOL0     H 7800   9.516  10.664   1.155 -0.8108 -0.8586 -1.5870
   58MOL0     H 7801   9.580  10.509   1.154 -0.3308 -0.3523  0.9173
   58MOL0     H 7802   9.576  10.669   1.408  0.4574 -2.6905  1.7686
   58MOL0     H 7803   9.674  10.530   1.388 -0.7644  0.4200  1.8546
   58MOL0     H 7804   9.803  10.744   1.356 -0.3980 -0.4154  1.6834
   58MOL0     H 7805   9.702  10.786   1.226  1.9818  1.2630  2.0278
   58MOL0     H 7806   9.758  10.612   1.077  2.5685 -1.3382 -2.9145
   58MOL0     H 7807   9.880  10.726   1.110  1.0590  1.1224  2.4604
   58MOL0     H 7808   9.981  10.490   1.109  0.1660  0.4129 -0.6563
   58MOL0     H 7809   9.866  10.439   1.231  0.4375 -0.8841 -1.6251
   58MOL0     H 7810   9.979  10.530   1.395 -2.1321 -0.9573 -1.1113
   58MOL0     H 7811  10.031  10.675   1.297  0.1594  0.1258  1.6243
   58MOL0     H 7812   8.903  10.561   1.279  0.6097 -0.0477 -2.1094
   58MOL0     H 7813   8.793  10.781   1.300 -0.2751  0.3774 -0.2759
   58MOL0     H 7814   8.946  11.210   1.663 -0.4769 -2.8445 -1.0954
   58MOL0     H 7815   8.779  11.353   1.785 -1.5103 -0.8349  0.2452
   58MOL0     H 7816   8.872  10.769   2.917  0.7434 -1.6049  1.1812
   58MOL0     H 7817   9.098  10.678   2.976 -0.6319 -1.5710  0.9568
   58MOL0     H 7818   9.546  10.542   2.614  0.0798 -1.1195  0.6598
   58MOL0     H 7819   9.743  10.437   2.635  2.1850  1.2850  0.5108
   58MOL0     H 7820   9.951  10.347   2.693 -3.1118 -1.2621  0.5778
   58MOL0     H 7821   9.984  10.469   2.828  4.1295 -1.1959 -0.1698
   58MOL0     H 7822  10.167  10.305   2.769  1.2355  1.8296  1.6053
   58MOL0     H 7823  10.043  10.185   2.838  1.2851 -0.0218  1.8395
   58MOL0     H 7824  10.165  10.418   2.994 -0.4379 -1.0477  1.0427
   58MOL0     H 7825  10.238  10.262   2.979  0.7434  2.6061 -2.4574
   58MOL0     H 7826   9.956  10.325   3.083 -0.2689 -0.6407 -1.5939
   58MOL0     H 7827  10.111  10.304   3.185 -1.3297 -0.1337  2.0756
   58MOL0     H 7828  10.006   9.907   3.146  0.2687  0.2739 -2.1601
   58MOL0     H 7829   9.659  10.355   3.052 -0.4552  1.2410  1.1714
   58MOL0     H 7830   9.435  10.432   3.017  1.4116 -1.9238  1.8298
   59MOL0     O 7831   0.488   2.003   0.343 -0.4394  0.5001 -1.0060
   59MOL0     C 7832   0.502   2.007   0.223 -0.1650 -0.7058  0.6044
   59MOL0     O 7833   0.406   2.043   0.136 -0.4743  0.1156 -0.6454
   59MOL0     C 7834   0.277   2.075   0.169  1.2103  0.6967  0.2848
   59MOL0     C 7835   0.212   2.075   0.295 -0.3569  0.2109  0.6286
   59MOL0     C 7836   0.078   2.110   0.313 -0.2485 -0.3018 -0.8124
   59MOL0     C 7837  -0.001   2.132   0.196  0.4825 -0.0908  0.1887
   59MOL0     O 7838  -0.129   2.169   0.226  0.7380 -0.4155 -0.0522
   59MOL0     C 7839  -0.197   2.258   0.137  0.1761 -0.9211  0.2765
   59MOL0     C 7840  -0.339   2.285   0.194 -0.1654  0.6471 -0.2656
   59MOL0     C 7841  -0.415   2.388   0.112  0.0679  0.2060  0.8495
   59MOL0     C 7842  -0.552   2.419   0.186 -0.4051  0.7249  0.3743
   59MOL0     C 7843  -0.645   2.497   0.089 -0.3854 -0.9037  0.8790
   59MOL0     C 7844  -0.789   2.503   0.140 -0.3733 -0.4092 -0.3682
   59MOL0     C 7845  -0.862   2.385   0.073  0.5586  0.8680  0.1420
   59MOL0     C 7846  -0.987   2.339   0.153 -0.5316 -0.1975 -0.0487
   59MOL0     N 7847  -1.088   2.438   0.173 -0.2287 -0.3055  1.1302
   59MOL0     C 7848  -1.078   2.540   0.258 -0.5480  0.5072  0.0787
   59MOL0     C 7849  -1.173   2.627   0.227 -0.1797 -0.8334 -1.3369
   59MOL0     C 7850  -1.208   2.770   0.276 -0.0772  0.8403 -0.9056
   59MOL0     C 7851  -1.290   2.755   0.410 -0.0725 -0.4300 -0.3143
   59MOL0     C 7852  -1.348   2.894   0.460  0.3814 -0.5083  0.0483
   59MOL0     C 7853  -1.502   2.893   0.429 -0.1300 -1.1148  0.0971
   59MOL0     O 7854  -1.551   3.016   0.477  0.7449 -0.0834  0.2187
   59MOL0     C 7855  -1.649   3.079   0.411  0.8338 -1.0219  0.2408
   59MOL0     C 7856  -1.762   3.021   0.354 -0.0683 -0.3654 -0.1880
   59MOL0     C 7857  -1.876   3.089   0.305  0.0989  0.2369  0.5791
   59MOL0     C 7858  -2.006   3.021   0.276  0.4040  0.8675 -0.5510
   59MOL0     C 7859  -1.863   3.232   0.309  0.3911 -0.2147 -0.0014
   59MOL0     C 7860  -1.969   3.327   0.266  0.0143  0.3691  0.4194
   59MOL0     O 7861  -1.929   3.457   0.262  0.6366 -0.2507 -0.3358
   59MOL0     C 7862  -2.004   3.548   0.184 -0.2562  0.6739 -0.5284
   59MOL0     C 7863  -1.943   3.620   0.080 -0.0942 -0.8897  1.1779
   59MOL0     C 7864  -2.015   3.728   0.018 -0.0653  0.2689  0.1581
   59MOL0     C 7865  -2.142   3.771   0.070  0.3655  0.4015 -0.1307
   59MOL0     O 7866  -2.207   3.888   0.040  0.0273  0.4573 -0.3741
   59MOL0     C 7867  -2.145   3.966  -0.069 -0.0911  0.3712 -0.2121
   59MOL0     C 7868  -2.236   4.086  -0.111 -0.7186 -0.4216 -0.3539
   59MOL0     C 7869  -2.389   4.067  -0.140 -0.1984  0.3880  0.2974
   59MOL0     C 7870  -2.467   4.184  -0.206  0.5761  0.5920  0.3470
   59MOL0     C 7871  -2.620   4.136  -0.233 -0.2734  0.2557  0.2397
   59MOL0     C 7872  -2.722   4.248  -0.261 -1.0706 -1.3325  0.9067
   59MOL0     C 7873  -2.680   4.355  -0.372 -0.4513 -0.6009  0.8964
   59MOL0     C 7874  -2.810   4.447  -0.395  0.8646 -0.4363  0.1110
   59MOL0    Cl 7875  -2.860   4.522  -0.244 -0.0173 -0.4110 -0.1568
   59MOL0     C 7876  -2.194   3.696   0.177 -0.4655 -0.5317  0.4373
   59MOL0     C 7877  -2.130   3.595   0.242 -0.2657  0.2801  0.3397
   59MOL0     O 7878  -2.072   3.284   0.216 -0.2259  0.4398  0.1874
   59MOL0     C 7879  -1.746   3.295   0.355  0.5455  0.7056  0.0892
   59MOL0     C 7880  -1.642   3.219   0.413  0.2251  0.1999 -0.3615
   59MOL0     N 7881  -1.248   2.566   0.135  0.6437 -0.6543  0.0406
   59MOL0     N 7882  -1.197   2.463   0.092 -0.0288  0.6381 -0.4913
   59MOL0     C 7883   0.067   2.134   0.071  0.0703  0.5335  0.2142
   59MOL0     C 7884   0.199   2.106   0.064  0.0439 -0.2865  0.6626
   59MOL0     C 7885   0.641   1.983   0.171  0.3590  0.2216 -0.2309
   59MOL0     C 7886   0.740   1.908   0.245  0.5827 -0.6495 -0.3792
   59MOL0     C 7887   0.870   1.896   0.193  0.0089 -0.4998 -0.0101
   59MOL0     C 7888   0.906   1.931   0.063  0.3647 -1.5858 -0.2661
   59MOL0     O 7889   1.027   1.915   0.007  0.1400  0.3306  0.1462
   59MOL0     C 7890   1.130   1.856   0.085  0.0445  0.6522 -0.1008
   59MOL0     C 7891   1.253   1.788   0.008  0.1219  0.0759 -0.0888
   59MOL0     C 7892   1.209   1.701  -0.110 -0.0640  0.1044  0.4186
   59MOL0     C 7893   1.323   1.612  -0.151  0.3671  0.3060  0.5440
   59MOL0     C 7894   1.290   1.538  -0.274 -0.1823  0.3363  0.2621
   59MOL0     C 7895   1.254   1.487  -0.377  0.6407 -0.0336 -1.4876
   59MOL0     C 7896   0.796   1.999  -0.009  0.7949  0.6875  1.1597
   59MOL0     C 7897   0.673   2.028   0.036  0.8466  0.4692  0.0034
   59MOL0     H 7898   0.263   2.053   0.388  0.5219  1.5671  0.4866
   59MOL0     H 7899   0.038   2.115   0.414  0.9521 -0.5031 -0.3140
   59MOL0     H 7900  -0.142   2.352   0.136  1.5998 -1.7259 -0.3125
   59MOL0     H 7901  -0.194   2.217   0.036  0.1065  1.2480 -0.6353
   59MOL0     H 7902  -0.400   2.194   0.194 -1.3352  1.3890  0.6324
   59MOL0     H 7903  -0.327   2.321   0.296 -0.0786  1.7130 -0.6370
   59MOL0     H 7904  -0.354   2.478   0.103 -0.2195  0.3839  0.6759
   59MOL0     H 7905  -0.435   2.348   0.012  1.1820 -2.4861  1.6140
   59MOL0     H 7906  -0.606   2.326   0.205 -0.4900  0.4562 -1.0276
   59MOL0     H 7907  -0.533   2.479   0.275  0.6311  3.2045 -1.4214
   59MOL0     H 7908  -0.609   2.599   0.075 -0.4486 -1.2945 -3.3356
   59MOL0     H 7909  -0.643   2.448  -0.009  0.7542 -1.2562  1.0670
   59MOL0     H 7910  -0.788   2.498   0.249 -0.3641  1.9920 -0.2098
   59MOL0     H 7911  -0.830   2.603   0.124 -0.1021 -0.5153 -1.8620
   59MOL0     H 7912  -0.898   2.417  -0.025 -0.8181  0.6654  0.5621
   59MOL0     H 7913  -0.791   2.302   0.070  2.5825  2.5111 -2.1962
   59MOL0     H 7914  -0.951   2.311   0.253 -0.9725 -1.5712 -0.2579
   59MOL0     H 7915  -1.044   2.256   0.112 -1.3253  1.7522 -3.1982
   59MOL0     H 7916  -0.997   2.553   0.328  0.6583 -0.2136 -1.1489
   59MOL0     H 7917  -1.124   2.839   0.284  1.3612 -0.9410  0.3049
   59MOL0     H 7918  -1.276   2.805   0.197 -0.2544  1.0007 -0.6808
   59MOL0     H 7919  -1.226   2.716   0.490  0.4162  0.8333 -0.0734
   59MOL0     H 7920  -1.355   2.667   0.413  1.1326 -1.3249  1.4652
   59MOL0     H 7921  -1.298   2.977   0.409 -1.1710  2.0194  2.3791
   59MOL0     H 7922  -1.332   2.907   0.567 -0.8947  0.9732  0.0979
   59MOL0     H 7923  -1.554   2.807   0.472  0.7537 -1.9353 -0.4533
   59MOL0     H 7924  -1.523   2.888   0.321 -1.4989 -0.5845  0.3122
   59MOL0     H 7925  -1.776   2.915   0.376 -3.1971  0.2925  1.6472
   59MOL0     H 7926  -2.080   3.028   0.357 -0.0426 -0.4275 -0.8192
   59MOL0     H 7927  -2.047   3.058   0.182  1.1412  1.9559 -0.4492
   59MOL0     H 7928  -1.996   2.914   0.255 -1.5802  0.8794 -1.8606
   59MOL0     H 7929  -1.846   3.584   0.047  0.2639  0.1429  1.0568
   59MOL0     H 7930  -1.974   3.773  -0.072 -1.5671  0.3256 -0.5217
   59MOL0     H 7931  -2.043   4.000  -0.050  0.4670  0.6136 -3.1399
   59MOL0     H 7932  -2.137   3.899  -0.156  1.5368  2.1015 -1.4725
   59MOL0     H 7933  -2.229   4.148  -0.021  3.6469  0.8420 -1.3457
   59MOL0     H 7934  -2.185   4.143  -0.189  0.7348 -2.0099 -0.6055
   59MOL0     H 7935  -2.438   4.058  -0.043  0.5995 -1.2176  0.5726
   59MOL0     H 7936  -2.404   3.971  -0.190 -1.0441  0.4724  0.3681
   59MOL0     H 7937  -2.465   4.267  -0.135 -0.3989  2.6145 -1.8732
   59MOL0     H 7938  -2.409   4.225  -0.290 -0.2865  2.8893  0.7952
   59MOL0     H 7939  -2.657   4.080  -0.147  0.3664  1.8530  1.6260
   59MOL0     H 7940  -2.609   4.075  -0.323  0.4447  1.4867 -0.5435
   59MOL0     H 7941  -2.814   4.204  -0.300  0.4342 -2.0596 -2.2177
   59MOL0     H 7942  -2.731   4.308  -0.170 -0.2056 -0.8248  0.6745
   59MOL0     H 7943  -2.656   4.311  -0.469 -0.9499  1.3480 -0.1669
   59MOL0     H 7944  -2.587   4.407  -0.347 -1.3888  1.3444  0.5836
   59MOL0     H 7945  -2.889   4.384  -0.437 -0.0911  2.2013 -2.3801
   59MOL0     H 7946  -2.784   4.522  -0.470  0.9813 -1.1157 -0.5421
   59MOL0     H 7947  -2.282   3.739   0.224 -2.1060 -2.2988 -0.8678
   59MOL0     H 7948  -2.177   3.537   0.321 -2.2893 -2.5229 -2.7007
   59MOL0     H 7949  -1.735   3.403   0.359 -0.7895  0.8463  0.2031
   59MOL0     H 7950  -1.562   3.273   0.463 -0.3035 -0.5534  1.3556
   59MOL0     H 7951   0.012   2.149  -0.021 -1.3585  2.8622  1.3499
   59MOL0     H 7952   0.251   2.102  -0.032  2.6651  0.4694  1.9608
   59MOL0     H 7953   0.730   1.875   0.348 -0.7804  0.1519 -0.2227
   59MOL0     H 7954   0.944   1.853   0.260  1.2414 -0.5648 -1.3773
   59MOL0     H 7955   1.178   1.922   0.158 -1.3531 -0.4963  1.9613
   59MOL0     H 7956   1.095   1.775   0.150  1.8945 -0.9062 -0.9515
   59MOL0     H 7957   1.299   1.731   0.089 -0.3228 -0.2798 -0.0810
   59MOL0     H 7958   1.314   1.874  -0.022  1.6038 -1.3937 -1.5129
   59MOL0     H 7959   1.190   1.756  -0.202  1.3638 -1.3591 -0.8137
   59MOL0     H 7960   1.123   1.640  -0.082  1.2560 -1.5831  0.9856
   59MOL0     H 7961   1.345   1.546  -0.067 -0.6015  0.3071  0.8161
   59MOL0     H 7962   1.413   1.670  -0.174 -1.5200  3.4387  0.4403
   59MOL0     H 7963   1.210   1.433  -0.459 -1.2941  1.3639 -1.4379
   59MOL0     H 7964   0.829   2.034  -0.106  1.0962  3.0665  2.0508
   59MOL0     H 7965   0.601   2.081  -0.027  0.0194 -0.6677 -0.0417
   60MOL0     O 7966   6.905   8.085   3.423  0.2279  0.1071 -0.3805
   60MOL0     C 7967   7.006   8.087   3.361 -0.2854 -0.4383  0.4003
   60MOL0     O 7968   7.012   8.115   3.225  0.4032 -0.1176  0.8973
   60MOL0     C 7969   6.896   8.098   3.141  0.5660 -0.8893  0.7801
   60MOL0     C 7970   6.877   8.183   3.030  0.6453 -0.4053  0.1128
   60MOL0     C 7971   6.774   8.164   2.940  0.6384 -0.0579 -0.2338
   60MOL0     C 7972   6.688   8.053   2.951  0.5507 -0.6926 -0.5744
   60MOL0     O 7973   6.590   8.035   2.858  0.4735 -0.6216  0.3789
   60MOL0     C 7974   6.617   7.926   2.767  0.4280 -0.0688 -0.6526
   60MOL0     C 7975   6.519   7.944   2.653  0.3429  0.2570 -0.0864
   60MOL0     C 7976   6.372   7.927   2.698  0.4917  0.3722  0.6478
   60MOL0     C 7977   6.274   7.892   2.578  0.8184  1.0777  0.4248
   60MOL0     C 7978   6.132   7.896   2.630 -1.1761  0.0078  0.4485
   60MOL0     C 7979   6.055   7.779   2.574  0.3356 -0.1983  0.1707
   60MOL0     C 7980   6.024   7.804   2.425  0.0126 -0.2741  0.4413
   60MOL0     C 7981   5.956   7.681   2.361 -0.4760 -0.6189 -0.1800
   60MOL0     N 7982   6.041   7.558   2.368  0.9081 -0.3785  0.1658
   60MOL0     C 7983   6.162   7.544   2.313 -0.8952 -0.1300 -0.2833
   60MOL0     C 7984   6.223   7.432   2.365 -0.4649  0.6786  1.2265
   60MOL0     C 7985   6.362   7.386   2.355  0.5817  0.0336  0.9560
   60MOL0     C 7986   6.473   7.496   2.377 -0.0476 -0.0534 -0.7344
   60MOL0     C 7987   6.512   7.546   2.241 -0.5755  0.1694 -0.0945
   60MOL0     C 7988   6.594   7.672   2.258  0.5885  1.0780  0.2307
   60MOL0     O 7989   6.510   7.787   2.293  1.3405 -0.2624 -0.3246
   60MOL0     C 7990   6.535   7.912   2.253  0.3211 -0.5841  0.6073
   60MOL0     C 7991   6.460   7.989   2.161  0.7184 -1.0722 -0.9496
   60MOL0     C 7992   6.495   8.119   2.133 -0.0704 -0.1995 -0.2875
   60MOL0     C 7993   6.398   8.201   2.055 -0.3275  0.2947  0.0066
   60MOL0     C 7994   6.617   8.169   2.179 -0.0120  0.3271  0.7352
   60MOL0     C 7995   6.686   8.286   2.128 -0.4063 -0.0548 -0.9281
   60MOL0     O 7996   6.688   8.311   1.998  0.8908  0.1699  0.3085
   60MOL0     C 7997   6.773   8.413   1.954 -0.0607  0.1754 -0.0239
   60MOL0     C 7998   6.715   8.542   1.929 -1.1020 -0.3138 -0.4251
   60MOL0     C 7999   6.796   8.652   1.887  0.2903  0.3358 -0.7797
   60MOL0     C 8000   6.938   8.631   1.872 -0.3197  0.0032 -0.9289
   60MOL0     O 8001   7.019   8.737   1.837 -0.1100 -0.2894 -0.0616
   60MOL0     C 8002   7.147   8.701   1.772  0.1816 -0.4550 -0.1400
   60MOL0     C 8003   7.190   8.812   1.675 -0.2098 -0.4565  0.3785
   60MOL0     C 8004   7.341   8.817   1.633  0.5787 -0.0937 -0.0411
   60MOL0     C 8005   7.365   8.856   1.479 -0.0006  0.3824 -0.6933
   60MOL0     C 8006   7.315   8.996   1.441 -0.2094  1.2283 -0.2933
   60MOL0     C 8007   7.393   9.107   1.495  0.0091  0.3482 -0.8604
   60MOL0     C 8008   7.344   9.244   1.452 -0.1488 -0.1886  0.3351
   60MOL0     C 8009   7.195   9.271   1.467 -0.2346 -0.0976  0.4657
   60MOL0    Cl 8010   7.160   9.260   1.642 -0.0330  0.3314 -0.4712
   60MOL0     C 8011   6.987   8.500   1.899 -0.7174  1.8538 -0.1172
   60MOL0     C 8012   6.910   8.391   1.940  0.1029  0.6393 -0.3406
   60MOL0     O 8013   6.739   8.363   2.209  0.3516  0.3588  0.7658
   60MOL0     C 8014   6.696   8.090   2.261 -0.4237  0.0274 -0.0710
   60MOL0     C 8015   6.655   7.967   2.302  0.0808  0.3742 -0.0848
   60MOL0     N 8016   6.135   7.371   2.452  0.4450 -0.1163 -0.3190
   60MOL0     N 8017   6.033   7.457   2.460 -0.1977  0.0985 -0.0782
   60MOL0     C 8018   6.699   7.966   3.063 -0.3622 -0.2737  0.2194
   60MOL0     C 8019   6.797   7.998   3.162 -0.7504 -0.7993 -0.8914
   60MOL0     C 8020   7.138   8.056   3.416  0.0535  0.3834 -0.3315
   60MOL0     C 8021   7.159   8.079   3.551  0.3803  0.2233 -0.2368
   60MOL0     C 8022   7.278   8.055   3.616 -0.1066 -1.3646 -0.8631
   60MOL0     C 8023   7.384   7.995   3.544  0.0063  0.1299  0.8893
   60MOL0     O 8024   7.509   7.959   3.604  0.1098 -0.2095  0.1075
   60MOL0     C 8025   7.526   7.968   3.743 -0.3511 -0.2130 -0.5781
   60MOL0     C 8026   7.677   7.943   3.787 -0.0275  0.5565 -0.2032
   60MOL0     C 8027   7.778   8.039   3.723 -0.2496 -0.7105 -0.2573
   60MOL0     C 8028   7.910   8.057   3.805  0.1160 -0.4291 -0.8735
   60MOL0     C 8029   7.995   7.941   3.827 -0.0909  0.3740 -0.9750
   60MOL0     C 8030   8.066   7.847   3.844  0.6709  0.2457 -0.6631
   60MOL0     C 8031   7.366   7.974   3.413 -0.4894 -0.2922  0.4778
   60MOL0     C 8032   7.246   8.014   3.347  0.2888 -0.4171 -0.1635
   60MOL0     H 8033   6.945   8.260   2.994  1.4294 -1.7845 -1.5042
   60MOL0     H 8034   6.767   8.242   2.864 -0.1224 -0.3052 -0.4273
   60MOL0     H 8035   6.715   7.934   2.719  0.0851  3.4959 -1.0082
   60MOL0     H 8036   6.602   7.826   2.808  2.1783  1.1150  3.3133
   60MOL0     H 8037   6.526   8.040   2.600 -1.3405 -0.7843 -2.3495
   60MOL0     H 8038   6.551   7.867   2.583  1.5989 -0.2146  0.9706
   60MOL0     H 8039   6.359   7.852   2.776 -1.2818  0.6365  0.6395
   60MOL0     H 8040   6.333   8.021   2.738 -3.3450 -0.1022 -1.4926
   60MOL0     H 8041   6.280   7.963   2.495 -0.2890  0.9066  0.1822
   60MOL0     H 8042   6.305   7.792   2.545  2.1309  1.8479 -0.8100
   60MOL0     H 8043   6.131   7.880   2.738  0.4420 -1.0133  0.3385
   60MOL0     H 8044   6.080   7.988   2.600 -1.8592 -0.6206 -0.3537
   60MOL0     H 8045   6.115   7.687   2.570  0.0007 -0.3849 -2.6742
   60MOL0     H 8046   5.964   7.762   2.631  1.0456  0.6395  1.6049
   60MOL0     H 8047   5.955   7.888   2.420  1.5292  0.9639 -0.7581
   60MOL0     H 8048   6.116   7.830   2.372  0.3198 -0.1848  1.0124
   60MOL0     H 8049   5.931   7.706   2.257  0.2537  0.2963 -0.1412
   60MOL0     H 8050   5.864   7.666   2.419  0.3530 -3.5659  0.5439
   60MOL0     H 8051   6.212   7.603   2.236  3.5119 -2.6291  0.3113
   60MOL0     H 8052   6.372   7.319   2.441 -0.2444  1.0916  1.9157
   60MOL0     H 8053   6.375   7.338   2.258 -1.2086  0.8011  0.3048
   60MOL0     H 8054   6.557   7.453   2.432 -1.7284  0.6109  2.6142
   60MOL0     H 8055   6.435   7.579   2.438 -1.2047 -0.8189 -0.3668
   60MOL0     H 8056   6.427   7.566   2.174 -0.9649  1.5815  0.7716
   60MOL0     H 8057   6.575   7.472   2.190 -0.0749 -0.7169  1.7282
   60MOL0     H 8058   6.630   7.680   2.155 -2.7787 -1.9973 -1.4205
   60MOL0     H 8059   6.677   7.643   2.322  0.0130 -3.5469 -0.7639
   60MOL0     H 8060   6.371   7.942   2.120  0.3369  0.2327 -1.6489
   60MOL0     H 8061   6.356   8.281   2.117 -0.7185 -0.5037  0.7983
   60MOL0     H 8062   6.454   8.237   1.968 -0.2325  0.0537 -0.0329
   60MOL0     H 8063   6.309   8.147   2.021  0.5892  0.8192 -3.6878
   60MOL0     H 8064   6.613   8.573   1.945 -0.5673  1.0111  0.6839
   60MOL0     H 8065   6.753   8.749   1.866  1.5530  0.8985 -0.8584
   60MOL0     H 8066   7.216   8.694   1.856 -2.2384 -3.2508  1.8432
   60MOL0     H 8067   7.140   8.601   1.727 -0.3156 -1.8023  2.6951
   60MOL0     H 8068   7.113   8.800   1.599 -1.8959 -0.4164  2.0198
   60MOL0     H 8069   7.174   8.911   1.718  2.7151 -0.1245  0.9354
   60MOL0     H 8070   7.373   8.714   1.649 -3.5525 -1.5657  0.1407
   60MOL0     H 8071   7.399   8.894   1.684 -2.2971  1.0248  1.7883
   60MOL0     H 8072   7.473   8.849   1.467 -0.0602 -0.6564 -0.7193
   60MOL0     H 8073   7.322   8.792   1.401  1.9920 -1.3295 -0.4623
   60MOL0     H 8074   7.214   9.008   1.479 -0.4408 -2.1667  0.5499
   60MOL0     H 8075   7.312   9.009   1.332 -2.0299 -0.7117 -0.5400
   60MOL0     H 8076   7.385   9.104   1.604  0.9178  0.1145 -0.7945
   60MOL0     H 8077   7.497   9.087   1.469 -0.1591  0.0839 -1.3449
   60MOL0     H 8078   7.371   9.244   1.346 -2.1235 -3.2133 -0.2764
   60MOL0     H 8079   7.396   9.321   1.510 -0.6367 -0.4358  1.1181
   60MOL0     H 8080   7.133   9.195   1.418  0.1144  0.8841 -1.6382
   60MOL0     H 8081   7.172   9.371   1.428  0.9564  1.4052  3.3043
   60MOL0     H 8082   7.092   8.483   1.878 -0.5987  0.0961  1.6082
   60MOL0     H 8083   6.943   8.289   1.957 -0.0662  0.9766  2.3460
   60MOL0     H 8084   6.796   8.125   2.286 -0.2119  1.4400 -2.5475
   60MOL0     H 8085   6.706   7.912   2.381 -1.2780  1.3985  1.5643
   60MOL0     H 8086   6.644   7.874   3.081  0.7468 -1.0533 -0.2975
   60MOL0     H 8087   6.822   7.930   3.243  0.0718  1.9584  1.3330
   60MOL0     H 8088   7.070   8.115   3.602  0.0705  0.6992 -1.0989
   60MOL0     H 8089   7.304   8.088   3.716 -1.5066 -1.8212 -0.3392
   60MOL0     H 8090   7.506   8.073   3.768 -1.5541 -0.2832 -1.1637
   60MOL0     H 8091   7.469   7.895   3.800  0.4624 -2.7915 -2.8725
   60MOL0     H 8092   7.703   7.840   3.761  0.4817  0.5580  0.3031
   60MOL0     H 8093   7.680   7.954   3.895  1.6745 -0.3259 -0.1343
   60MOL0     H 8094   7.727   8.135   3.714 -0.5718 -0.5988  2.0508
   60MOL0     H 8095   7.793   8.001   3.622 -2.4655 -1.6981 -0.2721
   60MOL0     H 8096   7.901   8.106   3.902  3.1766 -1.6264  0.1422
   60MOL0     H 8097   7.969   8.131   3.752  0.0400  1.8388  1.9698
   60MOL0     H 8098   8.143   7.776   3.866  1.1940  0.9302 -0.2397
   60MOL0     H 8099   7.446   7.928   3.356 -0.9287  1.5173 -1.7905
   60MOL0     H 8100   7.225   7.986   3.244 -1.7079 -1.2950  0.4201
   61MOL0     O 8101   6.390   6.252   0.160  0.1273  0.4235 -0.4398
   61MOL0     C 8102   6.440   6.363   0.187 -0.1114  0.1776 -0.5071
   61MOL0     O 8103   6.375   6.474   0.200  0.1293 -0.2362 -1.0197
   61MOL0     C 8104   6.249   6.493   0.147  0.0961 -0.8430 -0.1254
   61MOL0     C 8105   6.226   6.594   0.057  0.8498  0.0703 -0.1834
   61MOL0     C 8106   6.100   6.620   0.005 -0.5791 -0.4116  0.4285
   61MOL0     C 8107   5.991   6.546   0.041  0.5470  0.1118  0.6756
   61MOL0     O 8108   5.861   6.548  -0.014  0.2240  0.3801 -0.0713
   61MOL0     C 8109   5.818   6.666  -0.084 -0.3692  0.0753  0.1085
   61MOL0     C 8110   5.672   6.642  -0.105  1.4372  0.6448  0.4209
   61MOL0     C 8111   5.596   6.756  -0.176 -0.8487  0.5454  0.3425
   61MOL0     C 8112   5.450   6.737  -0.199 -1.1514 -0.2724 -0.0040
   61MOL0     C 8113   5.374   6.670  -0.080 -0.0350 -0.4998  0.1452
   61MOL0     C 8114   5.220   6.705  -0.086  0.0361 -0.0436  0.0687
   61MOL0     C 8115   5.185   6.849  -0.038  0.1345  0.3326  0.2364
   61MOL0     C 8116   5.229   6.872   0.108  0.2704  0.5976  0.0418
   61MOL0     N 8117   5.172   6.993   0.160 -0.1574 -0.5117 -0.2759
   61MOL0     C 8118   5.035   7.026   0.177 -0.1094 -0.9794 -0.3652
   61MOL0     C 8119   5.033   7.134   0.258  0.0724  0.5000  0.2901
   61MOL0     C 8120   4.903   7.181   0.323 -0.5927 -0.1097  0.3905
   61MOL0     C 8121   4.853   7.310   0.273  0.0036 -0.3819 -0.5728
   61MOL0     C 8122   4.830   7.320   0.129 -0.2173  0.6883 -0.1859
   61MOL0     C 8123   4.757   7.446   0.087 -0.2312 -0.4999 -0.2617
   61MOL0     O 8124   4.619   7.445   0.120 -0.2579  0.2373  0.7884
   61MOL0     C 8125   4.547   7.559   0.090 -0.1276  0.6427  0.0255
   61MOL0     C 8126   4.605   7.677   0.050 -0.1647 -0.4310  0.7712
   61MOL0     C 8127   4.529   7.789   0.017  0.3292  1.0049 -0.1850
   61MOL0     C 8128   4.605   7.919  -0.021  0.7981  0.9896  0.5846
   61MOL0     C 8129   4.385   7.771   0.015  0.2599  0.6350  0.6811
   61MOL0     C 8130   4.283   7.871  -0.034  0.1946 -0.9179 -0.0250
   61MOL0     O 8131   4.150   7.845  -0.001  0.1214  0.5024 -0.0455
   61MOL0     C 8132   4.053   7.909  -0.072 -0.6046 -0.5974 -0.7835
   61MOL0     C 8133   4.049   7.895  -0.213 -0.4239 -0.1483  0.4668
   61MOL0     C 8134   3.954   7.972  -0.274 -0.2800  0.7496  0.1235
   61MOL0     C 8135   3.857   8.051  -0.202  0.0740 -0.5759  0.7194
   61MOL0     O 8136   3.754   8.111  -0.275  0.8039  0.2098  0.1595
   61MOL0     C 8137   3.646   8.181  -0.213 -0.4020 -0.9017  0.0930
   61MOL0     C 8138   3.549   8.084  -0.145 -0.9763 -0.6007  0.0689
   61MOL0     C 8139   3.422   8.138  -0.099 -0.0194  0.2939  0.8089
   61MOL0     C 8140   3.410   8.261  -0.006 -0.5422 -0.2918 -0.6862
   61MOL0     C 8141   3.261   8.300   0.017 -0.3380 -0.3367 -0.1274
   61MOL0     C 8142   3.191   8.198   0.095 -0.1364  0.2341 -0.9864
   61MOL0     C 8143   3.054   8.250   0.160 -0.6194 -0.4102  0.2932
   61MOL0     C 8144   2.977   8.132   0.209  0.3524 -0.2383 -0.7133
   61MOL0    Cl 8145   2.897   8.053   0.068  0.1153  0.2494  0.5475
   61MOL0     C 8146   3.861   8.053  -0.063 -0.1594  0.1110 -0.2832
   61MOL0     C 8147   3.967   7.985   0.002 -0.1097  0.0967  0.2674
   61MOL0     O 8148   4.327   7.976  -0.091 -0.2185 -0.0553 -0.8141
   61MOL0     C 8149   4.332   7.650   0.067  1.3104  0.2221  0.0083
   61MOL0     C 8150   4.413   7.542   0.099 -0.3390 -0.0667  0.2058
   61MOL0     N 8151   5.162   7.159   0.294  0.2825  0.5139 -0.6249
   61MOL0     N 8152   5.245   7.077   0.237 -0.1985 -0.7649 -0.4532
   61MOL0     C 8153   6.009   6.441   0.137  0.5874 -0.1254  0.5703
   61MOL0     C 8154   6.136   6.423   0.187  0.8469  0.1603 -0.2875
   61MOL0     C 8155   6.582   6.367   0.213 -0.1312 -0.3261 -0.3968
   61MOL0     C 8156   6.662   6.272   0.151  0.2193 -0.3648  0.3366
   61MOL0     C 8157   6.791   6.260   0.182 -0.8258 -0.1712 -0.8290
   61MOL0     C 8158   6.852   6.351   0.276  0.1446  0.6368  0.1686
   61MOL0     O 8159   6.980   6.337   0.325 -0.4691  0.2849 -0.1270
   61MOL0     C 8160   7.050   6.224   0.280  0.2908 -0.0048  0.8902
   61MOL0     C 8161   7.193   6.221   0.348  0.5200  0.7547 -0.3601
   61MOL0     C 8162   7.289   6.339   0.345  1.0426  0.0408 -0.1498
   61MOL0     C 8163   7.238   6.444   0.449 -0.3110 -0.6620  1.0930
   61MOL0     C 8164   7.355   6.505   0.518  0.1416  0.4459  0.0413
   61MOL0     C 8165   7.432   6.572   0.576  0.2301  0.3012  0.9050
   61MOL0     C 8166   6.771   6.453   0.321  0.2426 -0.8272 -0.0418
   61MOL0     C 8167   6.640   6.468   0.289  0.3710  0.3971  0.3281
   61MOL0     H 8168   6.313   6.648   0.021 -0.6840  1.4802 -1.9057
   61MOL0     H 8169   6.080   6.706  -0.058 -2.9188 -0.3642  1.1597
   61MOL0     H 8170   5.845   6.749  -0.018  2.3264  0.3766 -1.2215
   61MOL0     H 8171   5.877   6.677  -0.176 -0.4062 -0.4256  0.0185
   61MOL0     H 8172   5.649   6.554  -0.167 -1.8195  1.1564  0.7410
   61MOL0     H 8173   5.622   6.630  -0.008  1.6806 -0.4337  0.4268
   61MOL0     H 8174   5.614   6.846  -0.115 -0.3081 -1.5690  3.5682
   61MOL0     H 8175   5.648   6.784  -0.268  1.3981  1.7848  1.8787
   61MOL0     H 8176   5.426   6.843  -0.206  0.0255  0.0432  0.4435
   61MOL0     H 8177   5.440   6.689  -0.297  0.4479  0.0898 -0.3853
   61MOL0     H 8178   5.394   6.563  -0.084 -1.6005 -0.7664 -2.1333
   61MOL0     H 8179   5.421   6.715   0.008  1.5071  1.1124 -1.4301
   61MOL0     H 8180   5.195   6.672  -0.187  2.0554 -1.7729  0.0578
   61MOL0     H 8181   5.171   6.640  -0.013  1.4593  1.1436  2.1574
   61MOL0     H 8182   5.232   6.920  -0.106 -1.6896 -1.5657 -3.2470
   61MOL0     H 8183   5.076   6.857  -0.042  0.1320 -0.2161 -1.1239
   61MOL0     H 8184   5.338   6.881   0.101  0.3949 -1.1741 -0.8552
   61MOL0     H 8185   5.189   6.795   0.175  0.0777 -0.3787 -1.1821
   61MOL0     H 8186   4.948   6.967   0.149 -1.9873  1.4785 -0.0581
   61MOL0     H 8187   4.817   7.116   0.304 -0.9300  0.8768 -1.8687
   61MOL0     H 8188   4.914   7.193   0.431 -0.9906 -1.8649  0.6536
   61MOL0     H 8189   4.923   7.390   0.298  0.6825 -0.9640 -0.5640
   61MOL0     H 8190   4.753   7.326   0.315  0.5134  1.5345  0.0286
   61MOL0     H 8191   4.767   7.235   0.101  0.1339 -1.1357  3.9417
   61MOL0     H 8192   4.931   7.320   0.087  1.4497  0.6204  3.4573
   61MOL0     H 8193   4.777   7.464  -0.019  0.8611  1.5023  0.2314
   61MOL0     H 8194   4.805   7.532   0.135 -3.3943  1.4533 -0.3221
   61MOL0     H 8195   4.711   7.701   0.043 -0.5470  0.9077 -4.7022
   61MOL0     H 8196   4.542   8.001   0.015 -1.1826  0.0648 -0.6188
   61MOL0     H 8197   4.707   7.913   0.018  1.4189 -2.6397 -1.2435
   61MOL0     H 8198   4.607   7.938  -0.128  1.2245  0.3355  0.4737
   61MOL0     H 8199   4.127   7.845  -0.268 -1.8002  0.7286 -2.4600
   61MOL0     H 8200   3.949   7.964  -0.382 -0.1619  1.7192  0.0456
   61MOL0     H 8201   3.683   8.244  -0.131 -1.5497 -0.4098  0.2511
   61MOL0     H 8202   3.589   8.240  -0.286  0.6880  1.1377  0.8061
   61MOL0     H 8203   3.531   7.998  -0.210  1.2943  1.4731 -3.6469
   61MOL0     H 8204   3.600   8.042  -0.057  0.0564 -0.9799 -0.6953
   61MOL0     H 8205   3.369   8.051  -0.060 -2.2169  1.6047  0.8890
   61MOL0     H 8206   3.365   8.180  -0.182 -2.3925  0.9067  2.6319
   61MOL0     H 8207   3.465   8.248   0.088  0.3208  1.1128 -0.9615
   61MOL0     H 8208   3.462   8.351  -0.041  0.7662 -0.3894  0.8723
   61MOL0     H 8209   3.215   8.312  -0.082 -2.1949  0.3293  0.7707
   61MOL0     H 8210   3.260   8.392   0.077  2.5451 -0.0955 -0.3431
   61MOL0     H 8211   3.167   8.105   0.044 -1.9431 -0.5564  1.1049
   61MOL0     H 8212   3.246   8.174   0.187  0.4210 -4.0102 -2.2152
   61MOL0     H 8213   2.996   8.314   0.093  1.3326 -0.6942 -1.7783
   61MOL0     H 8214   3.077   8.310   0.249 -1.4452 -0.4383  0.5386
   61MOL0     H 8215   2.905   8.166   0.284  1.6063 -0.0783  0.4667
   61MOL0     H 8216   3.048   8.059   0.250 -0.9533 -1.7825 -1.1242
   61MOL0     H 8217   3.789   8.100   0.003  3.3260 -0.5385  4.4662
   61MOL0     H 8218   3.972   7.987   0.110 -2.1734  0.6477  0.4137
   61MOL0     H 8219   4.227   7.623   0.071  1.3328  0.3053  1.8870
   61MOL0     H 8220   4.376   7.445   0.133 -0.9672  1.4135  4.2790
   61MOL0     H 8221   5.929   6.374   0.168 -0.9278  0.5387 -1.6485
   61MOL0     H 8222   6.132   6.340   0.256 -1.2736 -1.1532 -1.8925
   61MOL0     H 8223   6.620   6.188   0.096 -0.4382 -0.3164  0.7540
   61MOL0     H 8224   6.845   6.177   0.139  0.8703  1.1950 -1.5011
   61MOL0     H 8225   6.985   6.140   0.305 -2.2695  1.3576 -0.7419
   61MOL0     H 8226   7.064   6.223   0.171 -0.5568 -3.8457  0.6522
   61MOL0     H 8227   7.250   6.145   0.296  0.6726  0.7084 -0.1280
   61MOL0     H 8228   7.179   6.196   0.454  2.1202  0.5925 -0.1696
   61MOL0     H 8229   7.303   6.380   0.245  2.6747 -0.0834  0.0085
   61MOL0     H 8230   7.390   6.311   0.376  0.9473  0.5578  0.6441
   61MOL0     H 8231   7.187   6.397   0.533  1.0825 -2.2681  1.0794
   61MOL0     H 8232   7.171   6.518   0.405  0.9697  1.4210  2.4689
   61MOL0     H 8233   7.505   6.627   0.631  1.0022 -1.9326  2.2485
   61MOL0     H 8234   6.819   6.518   0.393  0.7248  0.7405 -1.7163
   61MOL0     H 8235   6.581   6.554   0.319 -0.7705 -0.5732  1.0098
   62MOL0     O 8236   8.124   3.183  10.104  0.5519 -0.1051 -0.5813
   62MOL0     C 8237   8.159   3.302  10.110  0.8258  0.7660  0.1007
   62MOL0     O 8238   8.070   3.418  10.106  0.2198  0.0605  0.1623
   62MOL0     C 8239   7.933   3.408  10.116 -1.2649  0.4575  0.1963
   62MOL0     C 8240   7.865   3.528  10.112  0.4827 -0.5347 -0.1899
   62MOL0     C 8241   7.720   3.538  10.134 -0.7077 -0.4282 -0.3819
   62MOL0     C 8242   7.636   3.423  10.143 -0.5474  0.3477  1.0029
   62MOL0     O 8243   7.498   3.445  10.141  0.1970  0.7147  1.0942
   62MOL0     C 8244   7.419   3.348  10.068 -0.1264  0.8442 -0.3935
   62MOL0     C 8245   7.445   3.353   9.920 -0.3764 -0.2760 -0.1698
   62MOL0     C 8246   7.347   3.259   9.845 -0.2196 -0.8658  0.7327
   62MOL0     C 8247   7.331   3.297   9.704  0.5824 -1.0663  0.9097
   62MOL0     C 8248   7.221   3.211   9.621  0.5926  0.3427  0.1759
   62MOL0     C 8249   7.236   3.211   9.466  0.1573  0.1117 -1.1707
   62MOL0     C 8250   7.210   3.351   9.408  0.3827  0.6239  0.3100
   62MOL0     C 8251   7.241   3.354   9.253  0.0392 -0.0171 -0.5315
   62MOL0     N 8252   7.181   3.474   9.194 -0.4015  0.1919 -0.5072
   62MOL0     C 8253   7.240   3.592   9.167 -0.0858 -0.4188 -0.0218
   62MOL0     C 8254   7.149   3.668   9.093  0.4713 -0.3422 -1.1340
   62MOL0     C 8255   7.179   3.798   9.027  0.2057  0.8468  0.0950
   62MOL0     C 8256   7.122   3.803   8.887 -0.7658  0.8114  0.6446
   62MOL0     C 8257   7.066   3.941   8.867 -0.7144  0.3745 -0.5797
   62MOL0     C 8258   7.001   3.974   8.734  0.0519 -0.1789 -0.7997
   62MOL0     O 8259   6.936   4.102   8.728  0.3717 -1.3266  0.0492
   62MOL0     C 8260   6.847   4.138   8.627 -0.3490 -0.4953 -0.5800
   62MOL0     C 8261   6.838   4.066   8.506  0.2998  1.2285  0.3901
   62MOL0     C 8262   6.740   4.096   8.401  0.0295 -0.3013  0.0317
   62MOL0     C 8263   6.749   4.015   8.269  0.8493  0.4082  0.1032
   62MOL0     C 8264   6.637   4.192   8.435  0.3092  0.0868  0.0224
   62MOL0     C 8265   6.518   4.224   8.356 -0.9108  0.2575  0.0863
   62MOL0     O 8266   6.403   4.273   8.420 -0.9075 -0.3224  0.0739
   62MOL0     C 8267   6.277   4.296   8.362  0.3136  0.6768 -0.0135
   62MOL0     C 8268   6.243   4.296   8.227  0.0717 -0.2257  0.0004
   62MOL0     C 8269   6.112   4.322   8.192  0.0331 -0.2808 -0.3008
   62MOL0     C 8270   6.006   4.345   8.285 -0.1843  0.2664  0.6999
   62MOL0     O 8271   5.883   4.379   8.237 -0.0741  0.2910 -0.2122
   62MOL0     C 8272   5.879   4.514   8.202 -0.3457  0.0787 -1.0072
   62MOL0     C 8273   5.826   4.598   8.323  0.9167  0.4601  0.2146
   62MOL0     C 8274   5.669   4.573   8.350 -0.4089 -0.2601 -1.0897
   62MOL0     C 8275   5.564   4.662   8.298 -0.4664 -0.4703 -0.1333
   62MOL0     C 8276   5.417   4.616   8.344  0.2835 -0.1984  0.0270
   62MOL0     C 8277   5.315   4.734   8.341 -0.3263 -0.6262  0.5039
   62MOL0     C 8278   5.165   4.680   8.338 -0.2386  0.4277 -0.0126
   62MOL0     C 8279   5.071   4.786   8.270 -0.3526  0.3073  0.0497
   62MOL0    Cl 8280   5.071   4.916   8.384 -0.0367  0.4027 -0.2547
   62MOL0     C 8281   6.038   4.340   8.415 -0.2537  0.4099 -0.6816
   62MOL0     C 8282   6.174   4.323   8.452  0.0569 -0.3789  0.0490
   62MOL0     O 8283   6.526   4.202   8.234  0.4243 -0.5042 -0.1010
   62MOL0     C 8284   6.650   4.249   8.560  1.1636 -0.4205 -0.2866
   62MOL0     C 8285   6.753   4.237   8.646 -0.3116  0.2917 -0.9342
   62MOL0     N 8286   7.035   3.586   9.086 -1.0413 -0.0100  0.5359
   62MOL0     N 8287   7.055   3.477   9.152  0.2170  0.1647 -0.5269
   62MOL0     C 8288   7.707   3.306  10.129 -0.1824  0.2833 -1.0210
   62MOL0     C 8289   7.847   3.293  10.118 -0.5073  0.6298  0.3217
   62MOL0     C 8290   8.302   3.323  10.134  0.4628 -1.0478 -0.1493
   62MOL0     C 8291   8.399   3.211  10.134  0.6684  0.1169 -0.0134
   62MOL0     C 8292   8.542   3.238  10.138  0.4465  0.0035  0.1056
   62MOL0     C 8293   8.579   3.376  10.149  0.0467 -0.3626 -0.0371
   62MOL0     O 8294   8.705   3.416  10.142  0.4766 -0.4782  0.3154
   62MOL0     C 8295   8.809   3.321  10.128 -0.3567  0.6261  0.0730
   62MOL0     C 8296   8.931   3.385  10.193 -0.2251 -0.3426  0.7565
   62MOL0     C 8297   8.950   3.535  10.139 -0.0207 -0.4890 -0.2751
   62MOL0     C 8298   8.953   3.564   9.984  0.5034  1.0235 -0.0385
   62MOL0     C 8299   9.001   3.692   9.947  0.5072  0.3093  0.2292
   62MOL0     C 8300   9.041   3.804   9.917  1.0035 -0.2143  0.6336
   62MOL0     C 8301   8.482   3.478  10.152  0.2754  0.2004 -0.1581
   62MOL0     C 8302   8.346   3.456  10.148 -0.5538 -0.5630  0.5103
   62MOL0     H 8303   7.924   3.619  10.104  0.1132 -0.3237 -0.5617
   62MOL0     H 8304   7.679   3.639  10.134  4.5028  2.0810 -1.4883
   62MOL0     H 8305   7.433   3.248  10.110  0.1404  0.3783 -1.5382
   62MOL0     H 8306   7.313   3.370  10.085 -0.4601 -0.7082 -0.3070
   62MOL0     H 8307   7.433   3.458   9.891  2.8954  0.5708  1.1768
   62MOL0     H 8308   7.549   3.326   9.905 -0.0513  2.1061 -3.3194
   62MOL0     H 8309   7.384   3.157   9.859 -1.3098 -1.7298 -2.0459
   62MOL0     H 8310   7.250   3.258   9.895 -0.3561 -0.0613  0.4987
   62MOL0     H 8311   7.294   3.400   9.709  1.8638 -0.3272 -2.3836
   62MOL0     H 8312   7.427   3.288   9.652  0.7431  0.0386  0.9831
   62MOL0     H 8313   7.219   3.105   9.648  3.4781  0.3008  0.5422
   62MOL0     H 8314   7.116   3.237   9.639 -0.5514 -3.9734  1.0230
   62MOL0     H 8315   7.341   3.187   9.448  0.7430  0.8874  0.9806
   62MOL0     H 8316   7.175   3.131   9.425  0.5686 -0.8580  0.0585
   62MOL0     H 8317   7.106   3.379   9.427  0.9059  0.6766  3.9139
   62MOL0     H 8318   7.282   3.413   9.463 -0.2046  1.7775 -0.1821
   62MOL0     H 8319   7.206   3.257   9.217 -2.1722  0.2556  0.6886
   62MOL0     H 8320   7.348   3.351   9.232  0.0428 -3.0738 -0.4213
   62MOL0     H 8321   7.342   3.619   9.193 -1.1298  1.9179  1.9869
   62MOL0     H 8322   7.145   3.874   9.098  0.3705  0.2082  0.8735
   62MOL0     H 8323   7.287   3.809   9.015  0.2555  1.6479  1.1304
   62MOL0     H 8324   7.049   3.722   8.882 -0.1853  0.3047  0.3201
   62MOL0     H 8325   7.202   3.782   8.815 -0.4775  1.9704  0.6072
   62MOL0     H 8326   7.140   4.021   8.879 -0.1101  0.0380 -1.9272
   62MOL0     H 8327   6.988   3.962   8.942 -1.3187 -2.1288 -0.4218
   62MOL0     H 8328   6.929   3.895   8.710  1.4382 -2.4583  2.0023
   62MOL0     H 8329   7.080   3.969   8.658  0.5325  1.7634 -0.4643
   62MOL0     H 8330   6.913   3.990   8.489 -0.6454  0.4258 -0.2632
   62MOL0     H 8331   6.768   4.066   8.174  1.9323 -0.3364 -0.0961
   62MOL0     H 8332   6.825   3.938   8.283 -1.5749 -1.8743  1.7524
   62MOL0     H 8333   6.652   3.965   8.255 -1.5198  4.5448  0.2045
   62MOL0     H 8334   6.323   4.291   8.153 -0.1198  2.0657 -0.4263
   62MOL0     H 8335   6.079   4.317   8.088 -2.7792 -0.3687  0.5416
   62MOL0     H 8336   5.970   4.557   8.158 -0.8695  2.6459  0.1913
   62MOL0     H 8337   5.808   4.522   8.120 -1.0036 -1.6188 -0.6445
   62MOL0     H 8338   5.877   4.558   8.410  2.2118  1.9645  0.1859
   62MOL0     H 8339   5.857   4.702   8.309  0.1680  0.5019 -1.3595
   62MOL0     H 8340   5.658   4.568   8.458 -0.2887  1.2197 -0.9993
   62MOL0     H 8341   5.651   4.472   8.311  0.6358 -0.6037 -0.6928
   62MOL0     H 8342   5.580   4.763   8.336 -2.4363 -1.2294  3.1736
   62MOL0     H 8343   5.576   4.659   8.189  1.3732 -1.2789  0.0467
   62MOL0     H 8344   5.419   4.574   8.445 -0.5370 -2.0567 -0.6822
   62MOL0     H 8345   5.384   4.535   8.278  2.4327 -0.2026 -1.1384
   62MOL0     H 8346   5.339   4.793   8.430  0.9938  0.2439 -0.4016
   62MOL0     H 8347   5.327   4.794   8.251  0.5621 -0.5162  0.6884
   62MOL0     H 8348   5.140   4.660   8.442  1.9822  1.0026  0.6746
   62MOL0     H 8349   5.156   4.586   8.282 -0.2521 -0.9523  2.2030
   62MOL0     H 8350   4.970   4.750   8.253  0.1595 -0.9345 -0.4607
   62MOL0     H 8351   5.122   4.822   8.180 -0.1647 -1.8400 -0.7605
   62MOL0     H 8352   5.967   4.356   8.496 -2.5476 -1.0676 -2.2820
   62MOL0     H 8353   6.189   4.311   8.559 -1.9791 -0.6112  0.3577
   62MOL0     H 8354   6.566   4.303   8.603  0.4932  0.7862 -2.9057
   62MOL0     H 8355   6.752   4.289   8.741 -0.9061  0.1292 -0.8514
   62MOL0     H 8356   7.651   3.213  10.138 -0.2311  0.3735 -0.3352
   62MOL0     H 8357   7.885   3.192  10.133  2.7005  1.5286 -0.9226
   62MOL0     H 8358   8.357   3.112  10.116 -1.9012  1.2568 -0.8172
   62MOL0     H 8359   8.614   3.156  10.139 -0.6650 -1.0005  1.1415
   62MOL0     H 8360   8.792   3.233  10.190  0.2836 -0.7354 -1.6281
   62MOL0     H 8361   8.835   3.285  10.028  0.4132  0.3903  0.3553
   62MOL0     H 8362   9.022   3.341  10.153 -0.7173  0.1690 -0.9817
   62MOL0     H 8363   8.925   3.365  10.301 -3.1158  1.6237  1.0639
   62MOL0     H 8364   9.046   3.566  10.182 -0.6041 -0.6278  1.1865
   62MOL0     H 8365   8.878   3.595  10.195  2.7753 -0.0198  3.1933
   62MOL0     H 8366   8.855   3.548   9.939  1.9799 -2.3964 -2.4602
   62MOL0     H 8367   9.016   3.484   9.944  2.1106  0.2726  3.5382
   62MOL0     H 8368   9.088   3.897   9.890 -1.5564  0.1314 -3.5081
   62MOL0     H 8369   8.516   3.579  10.173 -2.9344  0.8309  3.0408
   62MOL0     H 8370   8.284   3.544  10.162 -0.5944 -0.7907  1.8846
   63MOL0     O 8371  10.554   2.704   8.754  0.1153  0.7074  0.9420
   63MOL0     C 8372  10.536   2.636   8.653  0.5062  0.2937  0.1014
   63MOL0     O 8373  10.413   2.597   8.603 -0.0396 -0.0855  0.3008
   63MOL0     C 8374  10.301   2.614   8.680 -0.1249 -0.0678  0.6410
   63MOL0     C 8375  10.269   2.721   8.762 -0.6420  0.2103 -0.2567
   63MOL0     C 8376  10.146   2.728   8.830 -0.2309  0.7358 -0.5315
   63MOL0     C 8377  10.047   2.632   8.808  0.7258 -0.3202  0.0446
   63MOL0     O 8378   9.916   2.651   8.854  0.6520 -0.2481  0.3419
   63MOL0     C 8379   9.902   2.686   8.991 -0.0100 -0.3956  0.5259
   63MOL0     C 8380   9.775   2.633   9.049  0.6929  0.5814 -1.0800
   63MOL0     C 8381   9.640   2.696   9.007  0.4615  0.5806  0.0587
   63MOL0     C 8382   9.660   2.845   9.014 -0.4940 -1.0799 -0.7358
   63MOL0     C 8383   9.532   2.914   8.993  0.2326  0.1615 -0.3005
   63MOL0     C 8384   9.562   3.068   8.965  0.3950 -0.2312  0.7362
   63MOL0     C 8385   9.440   3.108   8.878  0.0246 -0.0918 -0.0096
   63MOL0     C 8386   9.451   3.266   8.869  0.5940  0.0088  0.8882
   63MOL0     N 8387   9.339   3.317   8.787 -0.7795  0.3383 -0.4321
   63MOL0     C 8388   9.244   3.416   8.828 -1.5313 -0.6950  0.3298
   63MOL0     C 8389   9.170   3.436   8.715 -0.8106  0.4679  0.0094
   63MOL0     C 8390   9.076   3.554   8.698  0.0541  0.1100  0.2541
   63MOL0     C 8391   8.948   3.518   8.781 -0.9678 -0.2429  0.4560
   63MOL0     C 8392   8.831   3.594   8.723 -1.2290 -0.2254 -0.2916
   63MOL0     C 8393   8.701   3.587   8.804  0.1870 -0.2878 -0.4508
   63MOL0     O 8394   8.588   3.646   8.735  0.1426 -0.5279  0.0871
   63MOL0     C 8395   8.518   3.557   8.661 -0.4833  0.2212 -0.3049
   63MOL0     C 8396   8.558   3.424   8.618  0.5104 -0.4345 -0.2728
   63MOL0     C 8397   8.482   3.346   8.536  0.1636 -0.3159 -1.0342
   63MOL0     C 8398   8.547   3.214   8.499  0.5088 -0.2937 -0.2231
   63MOL0     C 8399   8.353   3.390   8.501 -0.4058 -0.0824  0.0036
   63MOL0     C 8400   8.255   3.305   8.437  0.5672 -0.2277  1.3175
   63MOL0     O 8401   8.136   3.366   8.432 -0.0011 -0.2315  0.1888
   63MOL0     C 8402   8.019   3.291   8.410 -0.4856  0.2948  0.1282
   63MOL0     C 8403   7.928   3.341   8.326 -0.0504 -0.2888  0.9395
   63MOL0     C 8404   7.809   3.280   8.305  0.0111 -0.3673  0.1539
   63MOL0     C 8405   7.782   3.158   8.360 -0.4672 -0.8069 -0.2578
   63MOL0     O 8406   7.655   3.119   8.334 -0.5114 -0.9784 -0.2906
   63MOL0     C 8407   7.610   2.981   8.364 -0.2712  0.6876  0.3036
   63MOL0     C 8408   7.489   2.999   8.460 -0.6101 -0.6686  0.8474
   63MOL0     C 8409   7.482   2.863   8.538  0.0285  0.3466 -0.2781
   63MOL0     C 8410   7.391   2.884   8.661 -0.3327  0.0237  0.4166
   63MOL0     C 8411   7.396   2.760   8.746  0.7292  1.1391 -0.3273
   63MOL0     C 8412   7.521   2.728   8.832  0.4601  1.8430 -0.2657
   63MOL0     C 8413   7.508   2.595   8.906  0.2328 -0.4687  0.2485
   63MOL0     C 8414   7.620   2.570   9.010 -1.3510  0.4731 -0.2098
   63MOL0    Cl 8415   7.594   2.645   9.161 -0.0279 -0.1908 -0.3193
   63MOL0     C 8416   7.880   3.096   8.439 -0.2380 -0.0747 -0.2091
   63MOL0     C 8417   7.995   3.165   8.470  0.1016  0.5463 -0.3983
   63MOL0     O 8418   8.285   3.193   8.393 -0.1652 -0.1264 -0.0250
   63MOL0     C 8419   8.315   3.518   8.543  0.2483 -0.2647 -0.3170
   63MOL0     C 8420   8.398   3.600   8.621  0.6139  0.7713  0.3085
   63MOL0     N 8421   9.206   3.333   8.618  0.1299 -0.1303  0.5561
   63MOL0     N 8422   9.312   3.274   8.658 -0.1087 -0.6170  0.1149
   63MOL0     C 8423  10.075   2.522   8.731  0.0245 -0.4812  0.0292
   63MOL0     C 8424  10.201   2.516   8.666  0.3521 -0.6705  0.4572
   63MOL0     C 8425  10.658   2.585   8.591  0.1597 -0.2977  0.8090
   63MOL0     C 8426  10.639   2.522   8.460  0.0694  0.7078 -0.3689
   63MOL0     C 8427  10.741   2.495   8.376 -0.5820 -0.0339 -0.5953
   63MOL0     C 8428  10.878   2.527   8.412 -0.0586  0.2437 -0.7843
   63MOL0     O 8429  11.003   2.510   8.341  0.4519 -0.5712  0.4189
   63MOL0     C 8430  11.000   2.442   8.215 -0.5749  0.4985 -0.1230
   63MOL0     C 8431  11.010   2.295   8.246  0.3727  0.5818  0.5692
   63MOL0     C 8432  11.054   2.212   8.116 -0.1079 -0.6977  0.4234
   63MOL0     C 8433  10.994   2.072   8.117 -0.9548  0.3479 -0.0327
   63MOL0     C 8434  10.845   2.073   8.126  0.0897  0.2089 -0.6671
   63MOL0     C 8435  10.727   2.085   8.126  1.1434 -0.8998 -0.1359
   63MOL0     C 8436  10.901   2.602   8.536  0.0160 -0.1333  0.2956
   63MOL0     C 8437  10.794   2.621   8.622  0.6130  0.0321 -0.5173
   63MOL0     H 8438  10.343   2.800   8.775 -1.9591  1.0454  3.2434
   63MOL0     H 8439  10.119   2.814   8.891 -1.9869 -0.3503  0.2948
   63MOL0     H 8440   9.979   2.641   9.054  2.0806  1.8626 -0.2531
   63MOL0     H 8441   9.910   2.795   8.997 -1.3458 -0.3754  3.2747
   63MOL0     H 8442   9.778   2.527   9.024  1.5988  0.4715 -0.5379
   63MOL0     H 8443   9.781   2.636   9.158 -1.0931 -0.9369 -0.8854
   63MOL0     H 8444   9.615   2.672   8.904 -0.2625  0.4962  0.2514
   63MOL0     H 8445   9.557   2.683   9.077 -0.0529 -0.1799 -0.6816
   63MOL0     H 8446   9.702   2.879   9.109  0.2017 -2.2103 -0.6181
   63MOL0     H 8447   9.733   2.886   8.942 -0.2340  0.2802  0.2475
   63MOL0     H 8448   9.482   2.875   8.905  1.0153 -0.2499 -0.5662
   63MOL0     H 8449   9.468   2.913   9.082  0.3876  0.4886 -0.1818
   63MOL0     H 8450   9.567   3.119   9.061  1.4557  1.5292 -0.1983
   63MOL0     H 8451   9.657   3.095   8.918  0.1923 -0.0395  0.4299
   63MOL0     H 8452   9.440   3.059   8.780 -2.0121  1.4341 -0.8497
   63MOL0     H 8453   9.345   3.090   8.929 -1.0919  1.0863 -1.5780
   63MOL0     H 8454   9.538   3.281   8.804 -1.4256 -0.0093 -2.0048
   63MOL0     H 8455   9.467   3.319   8.963  0.3168  0.7793  0.5024
   63MOL0     H 8456   9.249   3.474   8.919  0.7580  3.0690 -1.9435
   63MOL0     H 8457   9.121   3.645   8.736 -0.5914  1.5109 -2.1175
   63MOL0     H 8458   9.062   3.575   8.592  0.0398 -0.0546  0.2226
   63MOL0     H 8459   8.954   3.543   8.887  2.2620  3.0771 -0.3017
   63MOL0     H 8460   8.928   3.411   8.773  0.6974 -0.7317  2.2556
   63MOL0     H 8461   8.812   3.556   8.623  0.1624  0.9945 -1.0506
   63MOL0     H 8462   8.859   3.699   8.716  0.6611 -0.6226  0.7169
   63MOL0     H 8463   8.720   3.639   8.898 -0.6815  0.9192 -0.9111
   63MOL0     H 8464   8.679   3.482   8.823 -0.0428 -0.5631 -2.0724
   63MOL0     H 8465   8.659   3.392   8.637  1.3215 -0.9051 -4.4192
   63MOL0     H 8466   8.538   3.195   8.392  3.5194 -0.2213 -0.5774
   63MOL0     H 8467   8.650   3.201   8.534  0.5176  0.3512  0.0104
   63MOL0     H 8468   8.485   3.144   8.557  0.2401  0.6014  0.6103
   63MOL0     H 8469   7.945   3.429   8.266  0.1444 -1.3913 -0.6814
   63MOL0     H 8470   7.726   3.320   8.248 -0.3077 -0.7959  0.3050
   63MOL0     H 8471   7.582   2.942   8.265  1.2604  0.4135 -0.0431
   63MOL0     H 8472   7.686   2.913   8.402 -0.3431 -0.9694 -2.2435
   63MOL0     H 8473   7.515   3.080   8.529 -0.1846 -0.5771  0.5783
   63MOL0     H 8474   7.400   3.029   8.404  0.7313  0.6751 -0.6387
   63MOL0     H 8475   7.580   2.834   8.577 -0.0818 -1.2689 -1.1216
   63MOL0     H 8476   7.439   2.789   8.470 -1.1949  1.7391 -1.0815
   63MOL0     H 8477   7.429   2.968   8.720 -0.2119 -0.5166  1.1315
   63MOL0     H 8478   7.292   2.917   8.627  0.1368  0.2667 -0.7258
   63MOL0     H 8479   7.390   2.679   8.673  2.6210 -0.2505  0.9678
   63MOL0     H 8480   7.305   2.744   8.805  2.6063 -2.0099  1.9437
   63MOL0     H 8481   7.608   2.715   8.766 -0.1158  1.3879 -0.9602
   63MOL0     H 8482   7.544   2.807   8.904 -2.0127  1.8889  0.5487
   63MOL0     H 8483   7.518   2.515   8.832  0.3064 -0.1012 -0.1372
   63MOL0     H 8484   7.408   2.575   8.946 -0.4970 -0.2889 -1.4224
   63MOL0     H 8485   7.707   2.617   8.964 -0.2301 -1.0605  0.2556
   63MOL0     H 8486   7.635   2.462   9.020 -0.0255  0.6539 -0.1225
   63MOL0     H 8487   7.863   2.999   8.485 -0.9289  0.8587  1.5915
   63MOL0     H 8488   8.067   3.132   8.545 -0.9163 -0.0586  0.3342
   63MOL0     H 8489   8.225   3.573   8.519  1.6744  1.6552 -1.6646
   63MOL0     H 8490   8.355   3.695   8.651  0.8110  0.4625  1.6065
   63MOL0     H 8491   9.995   2.450   8.718  1.0528 -1.6545  0.0428
   63MOL0     H 8492  10.224   2.434   8.599  2.2047 -2.8640  3.4709
   63MOL0     H 8493  10.538   2.505   8.423  0.7181 -1.8291 -1.1585
   63MOL0     H 8494  10.725   2.443   8.282 -0.0262 -1.1188 -0.1121
   63MOL0     H 8495  10.905   2.471   8.169 -1.8792 -2.7190  0.2622
   63MOL0     H 8496  11.089   2.470   8.157 -0.7347  0.4433 -0.3944
   63MOL0     H 8497  10.910   2.261   8.273  2.0328 -6.0952 -0.0964
   63MOL0     H 8498  11.081   2.272   8.326  1.0831  0.0056 -0.2126
   63MOL0     H 8499  11.163   2.201   8.127 -0.0887 -3.2493 -1.3400
   63MOL0     H 8500  11.026   2.263   8.024  2.0827  2.2359  1.2112
   63MOL0     H 8501  11.037   2.017   8.201 -0.8964  0.6565  0.1443
   63MOL0     H 8502  11.023   2.022   8.024  3.4319  3.2396 -0.5588
   63MOL0     H 8503  10.620   2.088   8.135  1.2369  0.9375  0.9742
   63MOL0     H 8504  11.000   2.644   8.553  0.8236 -0.1720 -3.3555
   63MOL0     H 8505  10.819   2.680   8.709 -0.5333  2.5984 -1.8187
   64MOL0     O 8506   2.285   8.802   5.747  0.0814  0.3533 -0.3356
   64MOL0     C 8507   2.349   8.735   5.827 -0.3048  0.6242 -0.4855
   64MOL0     O 8508   2.313   8.609   5.865 -0.4281 -0.3069  0.1351
   64MOL0     C 8509   2.176   8.576   5.861  0.3658 -0.2539 -0.5273
   64MOL0     C 8510   2.110   8.508   5.759  0.9526  0.0212 -1.0205
   64MOL0     C 8511   1.977   8.469   5.778 -0.3088 -0.7182 -0.1756
   64MOL0     C 8512   1.906   8.495   5.893 -0.6513  0.3713 -0.1317
   64MOL0     O 8513   1.783   8.446   5.931 -0.2267  0.1249 -0.1814
   64MOL0     C 8514   1.673   8.487   5.847 -0.4748  0.9556  0.0303
   64MOL0     C 8515   1.542   8.394   5.865 -0.0996  0.0906  0.4792
   64MOL0     C 8516   1.457   8.432   5.985  0.7627 -0.7951 -0.2881
   64MOL0     C 8517   1.341   8.330   5.989 -0.2656 -0.5366 -0.0181
   64MOL0     C 8518   1.228   8.388   6.073 -0.3224  0.3442 -0.2835
   64MOL0     C 8519   1.121   8.280   6.098 -0.6512  0.1583 -0.8149
   64MOL0     C 8520   0.991   8.348   6.150  0.4775  0.1975  0.3448
   64MOL0     C 8521   0.864   8.259   6.168  0.0816 -0.1837  0.2497
   64MOL0     N 8522   0.897   8.142   6.254 -0.1026 -0.6835  0.2195
   64MOL0     C 8523   0.857   8.136   6.388  0.3367 -0.0517  0.4358
   64MOL0     C 8524   0.863   8.007   6.418  0.0762 -0.1567  0.1925
   64MOL0     C 8525   0.812   7.938   6.543 -0.5169 -0.1613  0.7925
   64MOL0     C 8526   0.680   7.869   6.502  0.3775 -0.3870 -0.3180
   64MOL0     C 8527   0.551   7.952   6.539  1.1128 -0.0741  0.7664
   64MOL0     C 8528   0.419   7.873   6.518  0.4589  0.4800  0.3082
   64MOL0     O 8529   0.308   7.956   6.568  0.3739 -0.4192  0.4603
   64MOL0     C 8530   0.179   7.902   6.561 -1.2018 -0.9224  0.8056
   64MOL0     C 8531   0.075   7.990   6.598  0.1051  0.1626 -0.5229
   64MOL0     C 8532  -0.060   7.955   6.591  0.9507 -0.4156 -0.6850
   64MOL0     C 8533  -0.160   8.057   6.657 -0.4932  0.4232 -0.0494
   64MOL0     C 8534  -0.100   7.826   6.535 -0.1068  0.0074  0.0122
   64MOL0     C 8535  -0.233   7.760   6.533  0.9482  0.2139 -0.3556
   64MOL0     O 8536  -0.232   7.638   6.483 -0.5893  0.7246 -0.3713
   64MOL0     C 8537  -0.348   7.563   6.455  0.1901  0.0549 -0.2913
   64MOL0     C 8538  -0.455   7.627   6.393 -0.1263 -0.6360  0.5651
   64MOL0     C 8539  -0.575   7.551   6.376 -0.7646 -0.3861  0.0955
   64MOL0     C 8540  -0.583   7.421   6.406 -0.0503  0.1606 -0.3994
   64MOL0     O 8541  -0.703   7.359   6.396 -0.0958 -0.3451 -0.0749
   64MOL0     C 8542  -0.719   7.219   6.437 -0.8487 -0.1409  0.5470
   64MOL0     C 8543  -0.867   7.186   6.443  0.2458  0.3291 -0.4656
   64MOL0     C 8544  -0.889   7.030   6.466  0.1246  0.0493  0.2283
   64MOL0     C 8545  -1.030   7.003   6.420 -0.8255  0.3013 -0.5875
   64MOL0     C 8546  -1.078   6.868   6.464  1.1892 -0.0125 -0.4084
   64MOL0     C 8547  -1.222   6.836   6.414  0.0951  0.1381 -0.1153
   64MOL0     C 8548  -1.289   6.715   6.476  0.3366  0.2558  0.1966
   64MOL0     C 8549  -1.438   6.734   6.510  0.5082 -0.6081  0.4262
   64MOL0    Cl 8550  -1.557   6.753   6.369 -0.0924  0.1377 -0.0856
   64MOL0     C 8551  -0.466   7.360   6.455  0.6191 -0.7372  0.2565
   64MOL0     C 8552  -0.352   7.429   6.479 -0.1034 -0.2304 -0.7953
   64MOL0     O 8553  -0.335   7.822   6.561  0.1477 -0.5363 -0.0246
   64MOL0     C 8554   0.009   7.744   6.505  0.2522 -0.0193  0.2753
   64MOL0     C 8555   0.148   7.777   6.523 -0.3872 -0.0300  0.8252
   64MOL0     N 8556   0.925   7.936   6.316  0.4356 -0.2789  0.5156
   64MOL0     N 8557   0.954   8.021   6.216 -0.0711  0.0065 -0.3588
   64MOL0     C 8558   1.974   8.556   5.998 -0.1996 -0.5119  0.1476
   64MOL0     C 8559   2.108   8.599   5.979 -0.3419  0.8178 -0.8953
   64MOL0     C 8560   2.484   8.773   5.870  0.1119  0.1014  0.1172
   64MOL0     C 8561   2.578   8.688   5.932 -0.5896 -0.0680 -0.1091
   64MOL0     C 8562   2.708   8.723   5.959  0.0870  0.0522 -0.3339
   64MOL0     C 8563   2.748   8.856   5.935  0.7955 -0.0300  0.2482
   64MOL0     O 8564   2.881   8.890   5.966  0.0047  0.7606 -0.0353
   64MOL0     C 8565   2.982   8.792   5.959 -0.4090  0.1861 -0.4457
   64MOL0     C 8566   3.113   8.860   5.914  0.2877  0.5481  0.0374
   64MOL0     C 8567   3.135   8.999   5.963 -0.7131  0.0718  0.6183
   64MOL0     C 8568   3.266   9.062   5.917  0.1553 -0.7748  1.3962
   64MOL0     C 8569   3.260   9.096   5.777 -0.4618 -0.1548  0.1487
   64MOL0     C 8570   3.255   9.149   5.670 -0.5529 -0.3554  0.1771
   64MOL0     C 8571   2.657   8.955   5.884 -0.7446  0.2195  0.1928
   64MOL0     C 8572   2.527   8.907   5.850  0.5163  0.4785  0.6070
   64MOL0     H 8573   2.146   8.484   5.660  1.0606 -2.3920 -0.4449
   64MOL0     H 8574   1.920   8.427   5.696 -0.1875 -1.2814  0.0211
   64MOL0     H 8575   1.658   8.593   5.870 -0.2948  1.0615 -0.3284
   64MOL0     H 8576   1.715   8.484   5.746  4.4567  0.2817  1.7763
   64MOL0     H 8577   1.485   8.399   5.772 -0.6154  1.8844  0.8524
   64MOL0     H 8578   1.587   8.295   5.877 -3.3368 -1.4836  0.5098
   64MOL0     H 8579   1.508   8.432   6.082  0.9323 -2.5824 -0.3331
   64MOL0     H 8580   1.429   8.537   5.970 -0.3537 -0.9194  0.7452
   64MOL0     H 8581   1.300   8.300   5.892 -2.9564  2.5069  0.0329
   64MOL0     H 8582   1.385   8.239   6.032 -0.8233 -0.0942  1.5879
   64MOL0     H 8583   1.267   8.427   6.168  0.7383 -4.1933  1.4069
   64MOL0     H 8584   1.187   8.474   6.020  2.3981  1.5798 -0.5727
   64MOL0     H 8585   1.097   8.224   6.007  0.8436 -0.9761 -0.5511
   64MOL0     H 8586   1.145   8.203   6.173 -0.3608  3.5081  2.8448
   64MOL0     H 8587   1.009   8.387   6.251 -2.1750 -0.5109  1.1925
   64MOL0     H 8588   0.961   8.428   6.083 -0.7128 -0.9282 -0.5374
   64MOL0     H 8589   0.839   8.220   6.068 -3.3073 -2.1302  1.6931
   64MOL0     H 8590   0.786   8.321   6.212  0.0914 -2.5020  3.9530
   64MOL0     H 8591   0.810   8.208   6.454 -0.6457 -2.6185  2.6904
   64MOL0     H 8592   0.881   7.861   6.577 -0.2116 -0.2834 -0.0835
   64MOL0     H 8593   0.790   8.005   6.627 -1.0412 -1.0334  1.3660
   64MOL0     H 8594   0.672   7.772   6.553 -3.6172  0.2701  0.6281
   64MOL0     H 8595   0.673   7.853   6.394  1.2039 -0.2600 -0.3961
   64MOL0     H 8596   0.547   8.036   6.470 -0.2355 -0.2656  0.5718
   64MOL0     H 8597   0.557   7.992   6.641 -0.2483  1.2787  0.3547
   64MOL0     H 8598   0.422   7.777   6.570  0.3596  0.8037  0.9201
   64MOL0     H 8599   0.398   7.855   6.412 -0.1893 -0.2717  0.5570
   64MOL0     H 8600   0.109   8.079   6.651  0.9672 -2.9804  4.9615
   64MOL0     H 8601  -0.219   8.008   6.735  1.5719 -2.0195  0.1283
   64MOL0     H 8602  -0.111   8.142   6.707 -0.9386  0.4924  0.2778
   64MOL0     H 8603  -0.222   8.094   6.575 -1.4490 -0.7843  0.0990
   64MOL0     H 8604  -0.444   7.729   6.358  0.1052 -1.6124 -2.4666
   64MOL0     H 8605  -0.663   7.598   6.332 -1.4249 -1.6470  0.0386
   64MOL0     H 8606  -0.676   7.145   6.369 -3.0103 -2.1641  1.2524
   64MOL0     H 8607  -0.675   7.199   6.534 -0.6435 -1.6512  0.1587
   64MOL0     H 8608  -0.917   7.245   6.520  0.7444  2.4584 -1.7079
   64MOL0     H 8609  -0.923   7.211   6.353 -0.4301  2.7518  0.5729
   64MOL0     H 8610  -0.886   6.995   6.570 -0.7968  0.1692  0.3034
   64MOL0     H 8611  -0.822   6.970   6.403  0.5480  1.9882 -1.2799
   64MOL0     H 8612  -1.094   7.079   6.466 -1.3712 -0.3559 -0.2577
   64MOL0     H 8613  -1.034   7.016   6.311  0.6599  1.0328 -0.5909
   64MOL0     H 8614  -1.079   6.860   6.573 -1.4580 -0.3440 -0.3745
   64MOL0     H 8615  -1.011   6.786   6.435  0.3882 -0.4189 -1.1842
   64MOL0     H 8616  -1.286   6.920   6.442  1.3113  1.1665 -0.3959
   64MOL0     H 8617  -1.212   6.820   6.306  0.6133 -2.0740  0.1988
   64MOL0     H 8618  -1.239   6.687   6.569  0.9574 -0.7759 -0.4222
   64MOL0     H 8619  -1.277   6.631   6.407  1.5384 -0.6306  1.4140
   64MOL0     H 8620  -1.443   6.818   6.580 -0.1469  1.0413 -1.5103
   64MOL0     H 8621  -1.464   6.647   6.571 -1.5686  0.0995  0.6289
   64MOL0     H 8622  -0.450   7.254   6.472  0.0645 -0.8224  0.2585
   64MOL0     H 8623  -0.255   7.391   6.512  2.5045 -0.0546 -6.8673
   64MOL0     H 8624   0.001   7.641   6.474 -2.2771  0.3350 -0.4905
   64MOL0     H 8625   0.220   7.703   6.488 -1.5716 -2.2866  2.8845
   64MOL0     H 8626   1.919   8.558   6.092  1.7503 -2.4025  1.4145
   64MOL0     H 8627   2.158   8.628   6.070  0.8933 -2.5030 -0.3548
   64MOL0     H 8628   2.545   8.586   5.953  1.0404 -0.3041  1.6288
   64MOL0     H 8629   2.771   8.643   5.997 -0.6093 -0.1466  0.4234
   64MOL0     H 8630   3.002   8.760   6.061 -2.8476 -1.8336 -0.5118
   64MOL0     H 8631   2.960   8.702   5.902  0.8237  0.8355 -2.0287
   64MOL0     H 8632   3.127   8.861   5.805 -3.4637  0.9906 -0.5585
   64MOL0     H 8633   3.192   8.795   5.952 -0.3846 -0.3254 -0.0235
   64MOL0     H 8634   3.133   9.001   6.072 -0.9202  1.2309  0.6083
   64MOL0     H 8635   3.048   9.059   5.933  0.4825  1.3997 -0.3025
   64MOL0     H 8636   3.353   9.003   5.945 -0.8673 -1.7180  2.6944
   64MOL0     H 8637   3.276   9.158   5.968  0.6618 -2.1857  4.1488
   64MOL0     H 8638   3.237   9.188   5.572  1.9683  0.8443  0.1148
   64MOL0     H 8639   2.687   9.058   5.871 -0.0875  0.2864  1.9966
   64MOL0     H 8640   2.459   8.979   5.807  0.2531 -0.3872 -0.4699
   65MOL0     O 8641   5.068   6.744   3.945  0.0320 -1.0869  0.0304
   65MOL0     C 8642   5.104   6.807   4.047  0.3232 -0.2530 -0.0816
   65MOL0     O 8643   5.054   6.929   4.091  1.2372  0.1593 -0.3756
   65MOL0     C 8644   4.934   6.971   4.041  0.5614  0.4800  0.4984
   65MOL0     C 8645   4.825   6.958   4.125 -0.9534 -0.3538 -0.0710
   65MOL0     C 8646   4.697   6.991   4.083  0.1149 -0.7846  0.2862
   65MOL0     C 8647   4.675   7.046   3.955 -0.3891  0.3026  0.1790
   65MOL0     O 8648   4.544   7.073   3.938  0.4587 -0.8037 -0.2688
   65MOL0     C 8649   4.526   7.173   3.836 -0.4565  0.7443  0.6927
   65MOL0     C 8650   4.512   7.104   3.703 -0.0361  0.0647  1.1531
   65MOL0     C 8651   4.373   7.064   3.662  0.3328 -0.4516  1.0906
   65MOL0     C 8652   4.302   7.178   3.579  0.3605 -0.7847  0.6488
   65MOL0     C 8653   4.160   7.147   3.552 -0.1575  0.8783  0.0211
   65MOL0     C 8654   4.141   7.033   3.446  0.1123  0.3530 -0.2424
   65MOL0     C 8655   3.993   7.032   3.392  1.3624  1.1422  0.3668
   65MOL0     C 8656   3.885   7.006   3.495 -0.2497 -0.7452  0.5783
   65MOL0     N 8657   3.767   6.955   3.440  0.7467  0.3486  0.6456
   65MOL0     C 8658   3.762   6.831   3.373  0.6549  0.0028  0.7231
   65MOL0     C 8659   3.632   6.832   3.332  0.1100 -0.3088  0.8904
   65MOL0     C 8660   3.573   6.736   3.231  0.0295  0.2547 -0.3835
   65MOL0     C 8661   3.464   6.652   3.301  0.8464 -0.3807  0.0415
   65MOL0     C 8662   3.359   6.580   3.208 -0.1279 -1.0191 -0.5094
   65MOL0     C 8663   3.257   6.497   3.287 -0.2612  0.6348 -0.1296
   65MOL0     O 8664   3.216   6.402   3.192 -0.2578 -1.2315  1.1227
   65MOL0     C 8665   3.101   6.329   3.215 -0.1026  0.6396 -0.3450
   65MOL0     C 8666   3.022   6.337   3.332  0.4642  0.3616 -0.1314
   65MOL0     C 8667   2.908   6.250   3.353 -0.1987  0.3864  0.4523
   65MOL0     C 8668   2.846   6.258   3.498 -0.1882  0.7542  0.7931
   65MOL0     C 8669   2.865   6.168   3.252 -0.0658  0.3737  0.0087
   65MOL0     C 8670   2.760   6.063   3.266 -0.2102  0.0558 -0.1096
   65MOL0     O 8671   2.696   6.035   3.146 -0.3592 -0.9051  0.5511
   65MOL0     C 8672   2.592   5.951   3.125  0.3683 -0.5211 -0.1601
   65MOL0     C 8673   2.488   5.933   3.218 -0.5188 -0.5670  0.2495
   65MOL0     C 8674   2.390   5.839   3.198 -0.2975  0.1712  0.0009
   65MOL0     C 8675   2.393   5.755   3.088  0.4582  0.2119  0.0848
   65MOL0     O 8676   2.291   5.661   3.052 -0.0167 -0.1660 -0.1083
   65MOL0     C 8677   2.215   5.594   3.159  0.1049 -0.3686 -0.6644
   65MOL0     C 8678   2.115   5.489   3.120  0.3726  0.3898 -0.3192
   65MOL0     C 8679   1.985   5.540   3.055 -0.8268  0.5902  0.2488
   65MOL0     C 8680   1.895   5.420   3.041  0.7011 -0.1436  0.3213
   65MOL0     C 8681   1.759   5.459   2.986  0.6600 -0.7549  0.2002
   65MOL0     C 8682   1.676   5.348   2.932  0.8036  0.3513 -0.2904
   65MOL0     C 8683   1.534   5.390   2.895  0.0597  0.6314  0.2580
   65MOL0     C 8684   1.449   5.259   2.851 -0.5542  0.0298  0.0696
   65MOL0    Cl 8685   1.479   5.214   2.678 -0.2578 -0.1629  0.2782
   65MOL0     C 8686   2.477   5.791   2.985 -1.0213  0.5095 -0.4358
   65MOL0     C 8687   2.584   5.883   3.003 -0.4687 -0.3271 -0.4125
   65MOL0     O 8688   2.750   5.995   3.376  0.0667 -0.2668  0.3669
   65MOL0     C 8689   2.948   6.159   3.127 -0.5987 -0.1080 -0.7360
   65MOL0     C 8690   3.057   6.240   3.114  0.3679  0.3530 -0.2717
   65MOL0     N 8691   3.567   6.955   3.372  0.2391 -0.3196 -0.1463
   65MOL0     N 8692   3.646   7.017   3.453 -0.0768 -0.3520  0.4309
   65MOL0     C 8693   4.784   7.046   3.862 -0.9322  0.0115 -0.5101
   65MOL0     C 8694   4.914   7.014   3.904  0.4669  0.3137 -0.8418
   65MOL0     C 8695   5.211   6.742   4.111 -0.4277 -0.0472 -1.0751
   65MOL0     C 8696   5.236   6.763   4.247 -0.5176  0.0898 -0.2452
   65MOL0     C 8697   5.352   6.716   4.311  0.0684  0.0535  0.0606
   65MOL0     C 8698   5.439   6.627   4.242  1.2884 -0.4568 -0.2221
   65MOL0     O 8699   5.539   6.587   4.320 -0.2905 -0.4010  0.1542
   65MOL0     C 8700   5.648   6.503   4.274  0.9749 -0.6456  0.2956
   65MOL0     C 8701   5.734   6.584   4.168 -1.1137 -0.4210 -0.2499
   65MOL0     C 8702   5.819   6.699   4.235 -0.4291  0.0602 -0.5003
   65MOL0     C 8703   5.895   6.658   4.357  0.8171 -0.3273  0.2417
   65MOL0     C 8704   5.973   6.534   4.345  0.1736  0.2117 -0.2704
   65MOL0     C 8705   6.052   6.441   4.356  0.4851 -0.0158  1.1037
   65MOL0     C 8706   5.412   6.598   4.104 -0.0861 -0.2170 -0.0299
   65MOL0     C 8707   5.297   6.653   4.048  0.4808 -0.2998 -0.3666
   65MOL0     H 8708   4.858   6.924   4.223  0.3613  0.7577 -0.1061
   65MOL0     H 8709   4.616   6.983   4.154 -0.7115 -0.4712 -0.5902
   65MOL0     H 8710   4.438   7.234   3.855  0.8776  2.9234  0.2783
   65MOL0     H 8711   4.614   7.237   3.823 -0.1890  0.5663  1.5689
   65MOL0     H 8712   4.555   7.174   3.631  0.9826 -0.0490  1.6472
   65MOL0     H 8713   4.565   7.009   3.706  1.4322  0.7868 -0.2627
   65MOL0     H 8714   4.370   6.974   3.600 -2.0392 -0.4111  1.0617
   65MOL0     H 8715   4.317   7.038   3.753 -0.1373 -3.3544  0.0980
   65MOL0     H 8716   4.307   7.273   3.632  2.0059  1.4350 -3.1181
   65MOL0     H 8717   4.361   7.200   3.490  1.0443  1.8009  1.6648
   65MOL0     H 8718   4.114   7.116   3.646 -2.0864  0.2026 -1.1012
   65MOL0     H 8719   4.112   7.232   3.502  0.7325  0.9668 -0.7269
   65MOL0     H 8720   4.203   7.054   3.359 -0.6809 -0.3988 -1.0035
   65MOL0     H 8721   4.166   6.933   3.482 -2.9162 -1.4206 -2.5520
   65MOL0     H 8722   3.980   7.127   3.339 -0.7511 -0.0307 -1.3515
   65MOL0     H 8723   3.993   6.944   3.327 -0.8878 -0.1227  1.9343
   65MOL0     H 8724   3.859   7.100   3.545 -1.2526 -0.2139 -0.8942
   65MOL0     H 8725   3.925   6.950   3.580  4.0992  0.1644 -0.6374
   65MOL0     H 8726   3.846   6.767   3.348  0.1904  0.2719 -1.8268
   65MOL0     H 8727   3.522   6.797   3.156  1.1718 -1.3428 -2.5327
   65MOL0     H 8728   3.654   6.678   3.188  0.4441  0.3106  0.3095
   65MOL0     H 8729   3.409   6.719   3.367  3.5150 -0.1060  2.2138
   65MOL0     H 8730   3.520   6.584   3.366  1.0887  0.0073  0.2431
   65MOL0     H 8731   3.426   6.519   3.146  3.5799  1.4200  0.7248
   65MOL0     H 8732   3.312   6.654   3.143  1.3259  2.5552  2.1945
   65MOL0     H 8733   3.180   6.568   3.319 -0.3886  0.5665 -0.2821
   65MOL0     H 8734   3.302   6.447   3.374  0.5287  0.8255 -0.4165
   65MOL0     H 8735   3.054   6.403   3.412  2.3425  1.2646 -1.5399
   65MOL0     H 8736   2.743   6.221   3.496  0.2284 -0.9906  4.2379
   65MOL0     H 8737   2.899   6.207   3.579 -0.1321 -0.3932  0.0527
   65MOL0     H 8738   2.841   6.360   3.539 -1.0837  0.4512  1.4676
   65MOL0     H 8739   2.492   6.001   3.302 -4.3344 -0.4913  0.5454
   65MOL0     H 8740   2.319   5.816   3.276  1.6128 -2.7500  1.0652
   65MOL0     H 8741   2.279   5.545   3.233 -0.5871 -1.2038 -0.6034
   65MOL0     H 8742   2.167   5.677   3.212 -0.6430 -0.4841 -1.1466
   65MOL0     H 8743   2.160   5.414   3.055 -0.3318 -1.7851  1.5570
   65MOL0     H 8744   2.091   5.441   3.216 -1.5566  1.6367 -0.1236
   65MOL0     H 8745   1.998   5.584   2.956  0.6584  0.4726  0.3722
   65MOL0     H 8746   1.935   5.605   3.127  0.9787  0.9397  1.2304
   65MOL0     H 8747   1.950   5.358   2.970 -0.5827  0.2486 -1.0581
   65MOL0     H 8748   1.895   5.364   3.135  2.6814 -2.0369 -0.7256
   65MOL0     H 8749   1.777   5.544   2.920  0.9948  1.6267  3.1666
   65MOL0     H 8750   1.703   5.508   3.066 -0.6035  0.9481 -1.6356
   65MOL0     H 8751   1.723   5.311   2.840 -1.4476  2.7845 -2.5941
   65MOL0     H 8752   1.676   5.271   3.010 -1.7705  0.6042  0.0358
   65MOL0     H 8753   1.536   5.459   2.811  2.0065  0.4240  0.0902
   65MOL0     H 8754   1.489   5.429   2.987  0.5771  0.5960  0.5297
   65MOL0     H 8755   1.343   5.284   2.854  0.1640  3.7453  0.4415
   65MOL0     H 8756   1.477   5.182   2.924  2.2961  1.3680  0.5490
   65MOL0     H 8757   2.487   5.729   2.896  2.9739  2.1854 -1.3865
   65MOL0     H 8758   2.665   5.885   2.931  0.3473  2.4676  0.4806
   65MOL0     H 8759   2.935   6.091   3.043 -0.6666 -1.4533  0.3358
   65MOL0     H 8760   3.108   6.232   3.019 -2.1019 -0.9544 -1.5681
   65MOL0     H 8761   4.779   7.061   3.755  2.8003 -0.8548 -0.9165
   65MOL0     H 8762   4.999   7.020   3.837  1.5029 -1.2860  0.2757
   65MOL0     H 8763   5.174   6.839   4.294  0.1292  1.1262 -1.0240
   65MOL0     H 8764   5.381   6.749   4.410 -2.3478  0.5460  0.6667
   65MOL0     H 8765   5.716   6.470   4.353 -1.0595 -2.9239  1.2357
   65MOL0     H 8766   5.607   6.411   4.230 -1.5436  0.0353  1.0686
   65MOL0     H 8767   5.679   6.635   4.088 -0.8786 -1.5920 -1.1716
   65MOL0     H 8768   5.794   6.509   4.116 -0.5670 -0.4051  0.3399
   65MOL0     H 8769   5.750   6.768   4.283  0.3938 -1.4767  3.2066
   65MOL0     H 8770   5.884   6.760   4.171 -1.0113  4.0428  2.3778
   65MOL0     H 8771   5.826   6.640   4.440 -0.7816 -0.0131 -0.9797
   65MOL0     H 8772   5.955   6.741   4.393 -0.7290  1.1081 -0.3623
   65MOL0     H 8773   6.130   6.368   4.370 -0.3127 -1.0585  0.2998
   65MOL0     H 8774   5.479   6.541   4.041  0.7689 -0.5606  1.1386
   65MOL0     H 8775   5.277   6.643   3.942  1.8554 -0.1888 -0.6542
   66MOL0     O 8776   9.279   5.011   3.062 -0.5495  0.1261  0.0587
   66MOL0     C 8777   9.320   4.899   3.089 -0.3185  0.3302  0.2087
   66MOL0     O 8778   9.249   4.806   3.158 -0.0979  0.7508 -0.0053
   66MOL0     C 8779   9.122   4.833   3.208  0.1062  1.3567  0.6350
   66MOL0     C 8780   9.025   4.851   3.108 -0.2318  0.4182  0.3557
   66MOL0     C 8781   8.893   4.873   3.152  0.1189 -0.1927  0.6778
   66MOL0     C 8782   8.857   4.876   3.291 -0.2805  0.4401 -0.3004
   66MOL0     O 8783   8.727   4.903   3.330  0.0935 -0.4097  0.6857
   66MOL0     C 8784   8.616   4.871   3.240  0.0010  0.4441 -0.3022
   66MOL0     C 8785   8.606   4.719   3.254  0.0236  1.1630  0.8586
   66MOL0     C 8786   8.480   4.653   3.188  0.1220  0.6721  0.8608
   66MOL0     C 8787   8.498   4.503   3.165  0.3429  0.7413 -0.6889
   66MOL0     C 8788   8.513   4.414   3.286  0.0850  0.8313 -1.1921
   66MOL0     C 8789   8.573   4.274   3.253 -0.6656  0.9917 -0.6882
   66MOL0     C 8790   8.551   4.175   3.370  0.0720  0.1468 -0.3899
   66MOL0     C 8791   8.567   4.031   3.319 -0.2783 -0.7469 -1.0757
   66MOL0     N 8792   8.460   3.998   3.225 -0.3631  0.4275  0.1069
   66MOL0     C 8793   8.484   3.900   3.138 -0.4692 -0.1057  0.4135
   66MOL0     C 8794   8.355   3.882   3.085 -0.3661  0.6775 -0.2450
   66MOL0     C 8795   8.302   3.783   2.980 -0.2707 -0.0349  0.0526
   66MOL0     C 8796   8.161   3.738   3.016 -0.0193  0.4221  0.2525
   66MOL0     C 8797   8.106   3.631   2.917  0.3364  0.0270  0.9825
   66MOL0     C 8798   7.976   3.576   2.971 -0.1240  0.1597  0.0104
   66MOL0     O 8799   7.884   3.686   2.952  0.2946  0.9887 -0.1613
   66MOL0     C 8800   7.751   3.667   2.970  0.8245  0.1668 -0.8576
   66MOL0     C 8801   7.663   3.767   2.929 -0.3279 -0.2883 -0.4325
   66MOL0     C 8802   7.523   3.756   2.945  0.3492 -0.7892  1.1194
   66MOL0     C 8803   7.458   3.883   2.898  0.4720  0.1658  0.0088
   66MOL0     C 8804   7.450   3.639   2.987 -0.2288  0.1734  0.4594
   66MOL0     C 8805   7.304   3.616   2.991  0.1245 -0.5625 -0.0554
   66MOL0     O 8806   7.255   3.502   3.040 -0.2977  0.4100  0.3989
   66MOL0     C 8807   7.118   3.496   3.041  0.3814 -0.6026  0.1517
   66MOL0     C 8808   7.049   3.480   2.916  0.3851  0.8348 -1.2206
   66MOL0     C 8809   6.908   3.469   2.919 -0.6067 -0.7178 -0.4070
   66MOL0     C 8810   6.838   3.501   3.034 -0.2566 -0.1149 -0.1848
   66MOL0     O 8811   6.699   3.499   3.047  0.2275  0.1651  0.1395
   66MOL0     C 8812   6.625   3.443   2.930 -0.1125 -0.7129 -0.2058
   66MOL0     C 8813   6.483   3.389   2.950 -0.7385  0.3260 -0.3974
   66MOL0     C 8814   6.411   3.496   3.042 -0.0323 -0.3945 -0.2500
   66MOL0     C 8815   6.253   3.509   3.020 -0.4225 -0.2428  0.8878
   66MOL0     C 8816   6.167   3.592   3.118 -1.5087  0.7640  1.2961
   66MOL0     C 8817   6.019   3.597   3.105 -0.3717  0.4803 -0.9751
   66MOL0     C 8818   5.972   3.652   3.234 -0.2329 -0.4982 -0.3094
   66MOL0     C 8819   5.822   3.633   3.249  0.4913 -0.1333 -0.4010
   66MOL0    Cl 8820   5.721   3.771   3.208 -0.0038  0.1181 -0.2369
   66MOL0     C 8821   6.910   3.536   3.146  0.8073  0.7329  0.2071
   66MOL0     C 8822   7.047   3.524   3.153 -0.0245  0.5692 -0.0148
   66MOL0     O 8823   7.238   3.715   2.959  0.2213 -0.0414 -0.5039
   66MOL0     C 8824   7.544   3.536   3.021 -0.2165 -0.0913  0.6576
   66MOL0     C 8825   7.681   3.557   3.026 -0.9092  0.0381  0.3640
   66MOL0     N 8826   8.264   3.959   3.151 -0.5075 -0.2189  0.2130
   66MOL0     N 8827   8.332   4.037   3.227 -0.1736  0.8762  0.5039
   66MOL0     C 8828   8.954   4.862   3.387  0.0046  0.4619 -0.1566
   66MOL0     C 8829   9.089   4.839   3.343  0.1383  0.2083  0.1193
   66MOL0     C 8830   9.460   4.865   3.054 -0.2357 -0.7935 -0.2842
   66MOL0     C 8831   9.534   4.946   2.962 -0.2473 -0.4458 -0.4572
   66MOL0     C 8832   9.668   4.925   2.934  0.0310  0.0419  0.1290
   66MOL0     C 8833   9.725   4.809   2.988 -0.0228 -0.3856  0.3284
   66MOL0     O 8834   9.855   4.783   2.961 -0.1869  0.7015  0.2038
   66MOL0     C 8835   9.944   4.836   3.066 -0.2216 -0.2607  0.1664
   66MOL0     C 8836  10.015   4.973   3.043  0.4299  0.5043 -0.3263
   66MOL0     C 8837  10.125   4.955   2.937  0.7185  0.0022  0.9157
   66MOL0     C 8838  10.064   5.004   2.803  0.1777 -0.1061  0.4673
   66MOL0     C 8839  10.072   5.147   2.774  0.2317  0.5501 -0.0131
   66MOL0     C 8840  10.055   5.264   2.758 -0.6076 -0.9354 -0.4593
   66MOL0     C 8841   9.657   4.734   3.087 -0.1354 -0.0749  0.2921
   66MOL0     C 8842   9.524   4.760   3.115  0.5441  0.3380 -0.2810
   66MOL0     H 8843   9.054   4.848   3.003  1.3519 -0.4723  0.7958
   66MOL0     H 8844   8.821   4.892   3.073  0.2076  1.0047  0.8599
   66MOL0     H 8845   8.532   4.920   3.290  0.6470  0.8682  0.3883
   66MOL0     H 8846   8.623   4.925   3.145 -0.1489  1.4761  0.2502
   66MOL0     H 8847   8.695   4.680   3.204 -1.5072  0.5714 -1.5643
   66MOL0     H 8848   8.600   4.700   3.362  2.7983  2.2975  1.2850
   66MOL0     H 8849   8.387   4.665   3.245 -1.2321 -0.2941 -1.0344
   66MOL0     H 8850   8.470   4.703   3.091  0.2191 -0.0511  0.4733
   66MOL0     H 8851   8.413   4.461   3.111 -2.1448  0.9986  2.7141
   66MOL0     H 8852   8.588   4.493   3.104  0.6488 -2.9577  0.1363
   66MOL0     H 8853   8.571   4.461   3.366 -3.2791  1.7856  0.8963
   66MOL0     H 8854   8.417   4.404   3.337  2.0191  0.1902  2.7597
   66MOL0     H 8855   8.533   4.229   3.162 -1.1975 -0.0144  0.0299
   66MOL0     H 8856   8.681   4.279   3.231 -0.6144 -0.2638 -0.7907
   66MOL0     H 8857   8.624   4.203   3.447 -0.9085  1.2338  0.1831
   66MOL0     H 8858   8.452   4.187   3.415 -0.2424  0.1070 -1.0626
   66MOL0     H 8859   8.550   3.965   3.405  1.7643 -1.9143 -1.5019
   66MOL0     H 8860   8.667   4.010   3.280  0.2656 -1.9395  0.7968
   66MOL0     H 8861   8.572   3.848   3.102 -0.3316  2.3898 -3.4293
   66MOL0     H 8862   8.291   3.826   2.880  2.5557  2.5982  0.7454
   66MOL0     H 8863   8.365   3.693   2.988  0.5262  0.4897 -0.2412
   66MOL0     H 8864   8.093   3.823   3.022  2.1462  2.2375  0.7023
   66MOL0     H 8865   8.178   3.694   3.115  0.7582  1.0780  0.4277
   66MOL0     H 8866   8.174   3.547   2.905  0.9663  0.4555  1.5025
   66MOL0     H 8867   8.090   3.676   2.819 -1.4343  1.1292  1.7192
   66MOL0     H 8868   7.980   3.537   3.073  3.7475 -2.5371 -0.9501
   66MOL0     H 8869   7.957   3.494   2.901  3.4465 -0.8984  0.0821
   66MOL0     H 8870   7.714   3.858   2.901 -1.4523  0.0315 -1.5654
   66MOL0     H 8871   7.404   3.864   2.806 -1.0376  1.4770  0.5763
   66MOL0     H 8872   7.388   3.925   2.970 -1.5482 -1.2272 -1.0580
   66MOL0     H 8873   7.527   3.964   2.870  0.5941 -0.5811 -1.9367
   66MOL0     H 8874   7.094   3.479   2.818  1.1619 -0.4655 -0.8781
   66MOL0     H 8875   6.871   3.430   2.825 -0.4649 -0.5860 -0.5179
   66MOL0     H 8876   6.623   3.510   2.843 -0.7383 -0.6949 -0.1806
   66MOL0     H 8877   6.674   3.355   2.888 -0.6842 -1.3118  0.3588
   66MOL0     H 8878   6.433   3.392   2.853 -0.0680  0.9736 -0.7302
   66MOL0     H 8879   6.489   3.290   2.996 -2.1379  0.7650  0.8184
   66MOL0     H 8880   6.449   3.590   3.002 -2.3647  0.0161 -1.7377
   66MOL0     H 8881   6.441   3.485   3.146  1.1005 -1.7453 -0.6951
   66MOL0     H 8882   6.248   3.556   2.921  0.0061 -0.0617  0.9501
   66MOL0     H 8883   6.198   3.419   2.993 -0.2015 -0.3790  0.8873
   66MOL0     H 8884   6.217   3.689   3.119 -0.9298  0.4943  0.4928
   66MOL0     H 8885   6.193   3.537   3.209 -1.4550 -1.3402  0.0787
   66MOL0     H 8886   5.989   3.664   3.024 -2.1499  0.8796 -0.0489
   66MOL0     H 8887   5.976   3.499   3.079 -0.4646  0.3487 -0.3585
   66MOL0     H 8888   6.016   3.750   3.252  0.6100 -0.6602 -1.3640
   66MOL0     H 8889   6.005   3.591   3.318 -4.1328 -2.6846 -0.1074
   66MOL0     H 8890   5.805   3.600   3.352 -0.4258  0.7887 -0.2454
   66MOL0     H 8891   5.777   3.559   3.182 -3.1986 -0.4785  2.1284
   66MOL0     H 8892   6.854   3.537   3.239 -0.1250  0.9619 -0.3399
   66MOL0     H 8893   7.091   3.525   3.252 -0.6076 -1.7307  0.3141
   66MOL0     H 8894   7.507   3.446   3.071 -1.4759  0.4427  0.7177
   66MOL0     H 8895   7.753   3.485   3.064  3.5617  2.5361 -2.4255
   66MOL0     H 8896   8.934   4.882   3.492  2.0824  1.4170  0.1025
   66MOL0     H 8897   9.176   4.830   3.408  0.6091 -5.0309 -0.7496
   66MOL0     H 8898   9.495   5.030   2.905 -2.3535 -3.3953 -3.8411
   66MOL0     H 8899   9.723   4.990   2.866  0.2785 -0.0240  0.2639
   66MOL0     H 8900   9.887   4.844   3.159 -0.4157 -1.2250  0.1332
   66MOL0     H 8901  10.018   4.757   3.081  0.4146 -0.0188 -1.4823
   66MOL0     H 8902  10.052   5.008   3.140  1.5260 -1.6846  0.1053
   66MOL0     H 8903   9.939   5.045   3.013 -1.1728 -1.7574 -1.9931
   66MOL0     H 8904  10.158   4.851   2.928 -2.5279 -1.0561 -0.3370
   66MOL0     H 8905  10.216   5.013   2.950  0.0642  1.3920 -0.3825
   66MOL0     H 8906   9.958   4.977   2.806  0.0863  0.2835  1.0641
   66MOL0     H 8907  10.109   4.944   2.723  2.9938 -1.7314  3.0278
   66MOL0     H 8908  10.029   5.366   2.740  0.8612 -0.8828 -2.6669
   66MOL0     H 8909   9.706   4.653   3.140 -3.0420 -1.0868  1.6632
   66MOL0     H 8910   9.493   4.706   3.204  3.8832  0.6351  1.2056
   67MOL0     O 8911   5.596   5.398   4.821  0.7615 -0.3760  0.7225
   67MOL0     C 8912   5.635   5.384   4.707  0.7562  0.8864 -0.0443
   67MOL0     O 8913   5.567   5.408   4.596 -0.0010  0.0839 -0.3908
   67MOL0     C 8914   5.438   5.470   4.603  0.2564  0.3249  0.3112
   67MOL0     C 8915   5.408   5.533   4.476 -0.1430 -0.2420 -0.1920
   67MOL0     C 8916   5.287   5.593   4.445  0.3067 -0.1385  0.7585
   67MOL0     C 8917   5.196   5.610   4.552 -0.0965 -0.1689  0.0535
   67MOL0     O 8918   5.093   5.694   4.550  0.0239  0.7611 -0.1744
   67MOL0     C 8919   5.139   5.830   4.558 -0.3173  0.1813 -0.1239
   67MOL0     C 8920   5.065   5.924   4.464  0.0931 -0.2570  0.2359
   67MOL0     C 8921   5.058   5.873   4.322 -0.1601  0.1990 -0.1985
   67MOL0     C 8922   4.965   5.955   4.222 -0.6678  0.2555  0.0232
   67MOL0     C 8923   4.902   5.883   4.114  0.9089 -0.1442 -0.2260
   67MOL0     C 8924   4.991   5.818   4.009  0.1854  0.5237 -0.1775
   67MOL0     C 8925   4.935   5.822   3.868  0.5060 -0.1854 -0.0228
   67MOL0     C 8926   5.005   5.727   3.776 -0.5614 -0.4203 -0.0787
   67MOL0     N 8927   5.146   5.768   3.757 -0.7803  0.0952 -0.2317
   67MOL0     C 8928   5.256   5.756   3.843  0.5049 -0.4850 -0.8329
   67MOL0     C 8929   5.344   5.825   3.776 -1.0786 -0.1596  0.6781
   67MOL0     C 8930   5.493   5.849   3.805  0.5547  0.5765 -0.3662
   67MOL0     C 8931   5.565   5.716   3.806  0.1566  0.1960  0.6575
   67MOL0     C 8932   5.709   5.742   3.843 -0.3702  0.3508  0.4361
   67MOL0     C 8933   5.802   5.614   3.820  0.0912 -0.2986 -0.1979
   67MOL0     O 8934   5.940   5.645   3.849 -0.0473  0.2135  0.6861
   67MOL0     C 8935   6.033   5.548   3.834  0.5556 -0.4302 -0.4263
   67MOL0     C 8936   6.161   5.595   3.879 -0.1453 -0.1016  0.7277
   67MOL0     C 8937   6.266   5.505   3.876 -0.6394  0.5703 -0.0008
   67MOL0     C 8938   6.397   5.558   3.931 -0.2032 -0.6135  0.3524
   67MOL0     C 8939   6.251   5.366   3.834  0.1891 -0.4085  0.2324
   67MOL0     C 8940   6.359   5.261   3.818  0.0661 -1.1237 -0.0504
   67MOL0     O 8941   6.486   5.296   3.842 -0.0018  0.0301  0.4319
   67MOL0     C 8942   6.588   5.204   3.835 -0.2887 -0.0336 -0.4286
   67MOL0     C 8943   6.704   5.232   3.765 -0.4012  0.0506  1.0085
   67MOL0     C 8944   6.810   5.149   3.775 -0.0308  0.5904 -0.1106
   67MOL0     C 8945   6.806   5.034   3.852 -0.4537  0.5343  0.2290
   67MOL0     O 8946   6.927   4.967   3.863  0.5914  0.4579 -0.2233
   67MOL0     C 8947   6.930   4.837   3.924  0.9568 -0.7310 -0.4046
   67MOL0     C 8948   7.073   4.793   3.945  0.8408  0.4072  1.0436
   67MOL0     C 8949   7.088   4.641   3.919 -0.1570  0.0645 -0.8514
   67MOL0     C 8950   7.227   4.602   3.862 -0.0210 -0.4710  0.1379
   67MOL0     C 8951   7.248   4.448   3.875 -0.0291 -0.4012  0.3310
   67MOL0     C 8952   7.150   4.362   3.783 -0.9558  0.5719  0.1147
   67MOL0     C 8953   7.166   4.209   3.795 -0.5347  0.0192  0.0897
   67MOL0     C 8954   7.098   4.154   3.924  1.0312 -0.2757  0.7431
   67MOL0    Cl 8955   7.154   3.988   3.964 -0.2384 -0.3352  0.0824
   67MOL0     C 8956   6.680   4.999   3.913 -0.5081  0.3718 -0.5091
   67MOL0     C 8957   6.575   5.084   3.910  0.5072 -0.1375 -0.2421
   67MOL0     O 8958   6.323   5.151   3.796  0.1444 -0.2175  1.0587
   67MOL0     C 8959   6.123   5.327   3.784  0.4001 -0.3494  0.2151
   67MOL0     C 8960   6.012   5.411   3.795  0.1853  0.0807  0.0290
   67MOL0     N 8961   5.293   5.865   3.653 -0.4296  0.3736  0.0559
   67MOL0     N 8962   5.169   5.850   3.655  0.0442  0.0918  0.1222
   67MOL0     C 8963   5.215   5.533   4.667  0.0261 -0.0213 -0.0625
   67MOL0     C 8964   5.336   5.470   4.696  0.7000  1.3648 -0.4728
   67MOL0     C 8965   5.773   5.332   4.691  1.2125  0.1887 -0.0182
   67MOL0     C 8966   5.815   5.283   4.567 -0.0268  0.0089  0.3565
   67MOL0     C 8967   5.943   5.236   4.554 -0.0173 -0.4484  1.3003
   67MOL0     C 8968   6.023   5.212   4.659 -0.1077 -0.5874 -0.0116
   67MOL0     O 8969   6.143   5.156   4.628 -0.3631  0.0358 -0.0255
   67MOL0     C 8970   6.240   5.151   4.739  0.3399  0.6173 -0.0849
   67MOL0     C 8971   6.358   5.065   4.696 -0.2693  0.0197  0.4610
   67MOL0     C 8972   6.324   4.921   4.653  0.1718 -0.2213  0.6941
   67MOL0     C 8973   6.441   4.850   4.577 -0.6794  0.0005 -0.7302
   67MOL0     C 8974   6.567   4.885   4.635  0.1724  0.1692 -0.2893
   67MOL0     C 8975   6.675   4.906   4.676 -0.1112  0.6642  0.7158
   67MOL0     C 8976   5.981   5.257   4.785  1.4114  0.2318 -0.1812
   67MOL0     C 8977   5.859   5.311   4.801 -0.1273  0.2405  0.0834
   67MOL0     H 8978   5.476   5.521   4.393 -1.1411  1.6666 -1.3428
   67MOL0     H 8979   5.283   5.651   4.354 -1.6626 -1.3506  0.0144
   67MOL0     H 8980   5.135   5.872   4.659  2.4669 -1.4054  0.7619
   67MOL0     H 8981   5.247   5.839   4.540 -0.2174  0.9791  0.7949
   67MOL0     H 8982   4.967   5.952   4.504  0.4155  2.4426 -0.6877
   67MOL0     H 8983   5.131   6.011   4.455 -1.9393  1.3483  0.3450
   67MOL0     H 8984   5.157   5.852   4.280 -0.7051 -2.7458 -0.2756
   67MOL0     H 8985   5.016   5.771   4.322  0.4689 -0.0707  0.2749
   67MOL0     H 8986   4.881   5.998   4.277 -1.8499  0.9786 -2.2192
   67MOL0     H 8987   5.027   6.037   4.185  0.8942 -1.9666 -2.6606
   67MOL0     H 8988   4.844   5.801   4.157 -1.3811  0.8687 -1.1656
   67MOL0     H 8989   4.828   5.949   4.067  1.6175  0.9264  0.1402
   67MOL0     H 8990   5.080   5.880   3.997 -0.4797  1.6970  0.7269
   67MOL0     H 8991   5.013   5.713   4.031 -1.5541 -0.1111 -1.2476
   67MOL0     H 8992   4.828   5.800   3.867  0.2426  0.9174 -1.5812
   67MOL0     H 8993   4.942   5.924   3.828  2.1241 -0.4858 -0.5942
   67MOL0     H 8994   4.957   5.734   3.677 -0.6450 -1.4727 -0.1247
   67MOL0     H 8995   5.003   5.621   3.803  0.4233 -0.9314 -1.8324
   67MOL0     H 8996   5.263   5.702   3.937 -5.5818 -0.8839 -0.2053
   67MOL0     H 8997   5.527   5.914   3.724 -1.8765  1.1117 -1.0205
   67MOL0     H 8998   5.502   5.907   3.898  0.3886 -1.1110  0.7493
   67MOL0     H 8999   5.554   5.671   3.707  1.6763 -1.0336  0.9984
   67MOL0     H 9000   5.526   5.660   3.892  1.8693 -1.4836  0.4152
   67MOL0     H 9001   5.724   5.779   3.945  0.6533  0.7100  0.1671
   67MOL0     H 9002   5.755   5.805   3.767  2.1949 -1.8118  0.0488
   67MOL0     H 9003   5.790   5.563   3.724 -0.9012 -0.6981  0.1290
   67MOL0     H 9004   5.755   5.543   3.887  1.6125 -0.4016  0.8109
   67MOL0     H 9005   6.185   5.696   3.910  0.3252 -0.7222  2.4903
   67MOL0     H 9006   6.472   5.535   3.856 -0.1270  0.5042  0.0710
   67MOL0     H 9007   6.387   5.663   3.962 -1.1900 -0.0559 -1.6626
   67MOL0     H 9008   6.424   5.497   4.018 -2.7913 -1.4166  0.6837
   67MOL0     H 9009   6.705   5.317   3.699  0.0763 -0.0749  0.8490
   67MOL0     H 9010   6.899   5.164   3.716 -0.1449 -0.7450 -0.6538
   67MOL0     H 9011   6.884   4.852   4.022  1.9207  1.6547 -0.2602
   67MOL0     H 9012   6.862   4.770   3.870 -1.2424 -0.3072  1.6726
   67MOL0     H 9013   7.137   4.847   3.875 -2.4408  2.4403 -0.6577
   67MOL0     H 9014   7.110   4.810   4.046  2.1043  0.4559  0.5952
   67MOL0     H 9015   7.004   4.606   3.859 -0.2742 -0.4241 -0.4153
   67MOL0     H 9016   7.080   4.589   4.015  1.8445 -0.0284 -0.6960
   67MOL0     H 9017   7.250   4.631   3.759 -1.0162 -2.3080 -0.6371
   67MOL0     H 9018   7.291   4.650   3.937 -3.0084 -0.0130  2.5866
   67MOL0     H 9019   7.231   4.422   3.980 -0.1324  1.9889  0.9651
   67MOL0     H 9020   7.352   4.429   3.849 -0.4178  0.4535 -2.0619
   67MOL0     H 9021   7.046   4.395   3.784 -1.5578 -1.1649  1.8573
   67MOL0     H 9022   7.185   4.376   3.680 -0.5457  1.3786  0.3581
   67MOL0     H 9023   7.272   4.187   3.807  0.9574  2.3587 -5.6929
   67MOL0     H 9024   7.115   4.151   3.718 -1.0111  0.8416 -0.2361
   67MOL0     H 9025   6.992   4.154   3.898  1.0778  1.2453  0.4648
   67MOL0     H 9026   7.107   4.220   4.011 -1.3342  1.8832 -0.5329
   67MOL0     H 9027   6.676   4.908   3.973 -1.2499  0.0409 -1.0411
   67MOL0     H 9028   6.485   5.043   3.956  0.7437  0.6909  1.0189
   67MOL0     H 9029   6.096   5.235   3.735  0.1150 -0.6738  0.9702
   67MOL0     H 9030   5.919   5.375   3.751  0.6694 -0.0075 -0.9617
   67MOL0     H 9031   5.145   5.537   4.749  1.1046 -1.6723  1.0162
   67MOL0     H 9032   5.344   5.416   4.790  1.1649  3.1351  0.5505
   67MOL0     H 9033   5.754   5.281   4.477  1.6038 -2.7146 -0.8198
   67MOL0     H 9034   5.971   5.200   4.455 -1.0887  0.2771  0.7126
   67MOL0     H 9035   6.279   5.248   4.772  3.9095 -1.1865  1.5608
   67MOL0     H 9036   6.200   5.099   4.827  1.2668 -0.6323 -0.3793
   67MOL0     H 9037   6.425   5.062   4.783  0.2627  1.5781  0.1352
   67MOL0     H 9038   6.412   5.122   4.621 -1.5880  2.7735  1.4882
   67MOL0     H 9039   6.230   4.919   4.596 -0.3352 -1.2877  1.5238
   67MOL0     H 9040   6.301   4.861   4.741 -0.6906  0.8250  1.2044
   67MOL0     H 9041   6.438   4.871   4.469  1.0908  0.2226 -0.7696
   67MOL0     H 9042   6.424   4.742   4.579 -0.0881 -0.1742 -2.8300
   67MOL0     H 9043   6.772   4.928   4.715  0.1014  1.2184 -0.0777
   67MOL0     H 9044   6.031   5.228   4.877 -0.2641  2.4491  1.5461
   67MOL0     H 9045   5.830   5.338   4.902 -3.0652  0.3748 -0.7174
   68MOL0     O 9046   6.547   7.573   0.105  0.0441 -0.1839 -0.6933
   68MOL0     C 9047   6.588   7.475   0.044 -0.1877  0.7913 -0.5920
   68MOL0     O 9048   6.515   7.362   0.001  0.2255  0.2775  0.0022
   68MOL0     C 9049   6.390   7.363   0.036  0.9223 -0.6306 -0.5298
   68MOL0     C 9050   6.296   7.415  -0.046  0.6591 -0.5239  0.2752
   68MOL0     C 9051   6.159   7.414  -0.032 -0.2211  0.2358 -0.6384
   68MOL0     C 9052   6.107   7.348   0.075  0.0988 -0.4829  0.8022
   68MOL0     O 9053   5.972   7.347   0.076 -0.3110 -0.2494 -0.7917
   68MOL0     C 9054   5.901   7.241   0.148 -0.2048  0.3345  0.3987
   68MOL0     C 9055   5.869   7.280   0.293 -0.1441 -0.2516 -0.7195
   68MOL0     C 9056   5.781   7.408   0.300  0.0710 -0.1572  0.0272
   68MOL0     C 9057   5.640   7.361   0.304  0.3719 -1.3294 -0.6308
   68MOL0     C 9058   5.553   7.484   0.330  0.2269  0.2430 -1.3852
   68MOL0     C 9059   5.403   7.442   0.324 -0.0160 -0.4018  0.8633
   68MOL0     C 9060   5.302   7.559   0.336  0.4778 -1.5465 -0.0219
   68MOL0     C 9061   5.160   7.506   0.307 -0.0918  0.5445 -0.0463
   68MOL0     N 9062   5.055   7.603   0.343 -0.6166 -0.5988  0.4954
   68MOL0     C 9063   5.015   7.643   0.469  1.5467 -0.0585  0.8294
   68MOL0     C 9064   4.899   7.712   0.456  0.1304  0.3289  0.4633
   68MOL0     C 9065   4.804   7.738   0.570 -0.2532  0.4960 -0.5460
   68MOL0     C 9066   4.733   7.597   0.581  0.4161 -0.3922  0.1185
   68MOL0     C 9067   4.648   7.562   0.458 -0.3195  0.4119  0.0974
   68MOL0     C 9068   4.545   7.669   0.430 -0.3062  0.1412  0.6615
   68MOL0     O 9069   4.480   7.707   0.555 -0.5481 -0.4680 -0.5228
   68MOL0     C 9070   4.380   7.797   0.537  1.0163  0.4059  0.1844
   68MOL0     C 9071   4.341   7.883   0.644 -0.6150 -1.1679 -0.0470
   68MOL0     C 9072   4.234   7.972   0.636  0.5171 -1.1371  0.1640
   68MOL0     C 9073   4.207   8.062   0.759  0.7198 -0.0941 -0.5896
   68MOL0     C 9074   4.153   7.969   0.515 -0.2803 -0.1160 -0.1839
   68MOL0     C 9075   4.046   8.068   0.493  0.2159 -0.4593  0.4865
   68MOL0     O 9076   4.015   8.097   0.357 -0.3223  0.3343 -0.1471
   68MOL0     C 9077   3.951   8.216   0.342 -0.6212  0.2622  0.6338
   68MOL0     C 9078   4.023   8.339   0.352  0.3879 -0.5930 -0.1002
   68MOL0     C 9079   3.956   8.464   0.323 -0.5912  0.8183  0.1446
   68MOL0     C 9080   3.822   8.466   0.288  0.1062  0.6903 -0.5108
   68MOL0     O 9081   3.771   8.593   0.276  0.2316  0.4943  0.3550
   68MOL0     C 9082   3.641   8.605   0.223  0.1236  0.0842  0.0808
   68MOL0     C 9083   3.599   8.753   0.215 -0.1803  0.1617 -0.0626
   68MOL0     C 9084   3.472   8.759   0.124  0.9168  0.6829 -0.6704
   68MOL0     C 9085   3.431   8.901   0.070 -0.0482  0.9044 -0.7252
   68MOL0     C 9086   3.317   8.898  -0.036 -1.0446  1.2736  0.0036
   68MOL0     C 9087   3.381   8.849  -0.170  0.4928 -0.4462  0.0250
   68MOL0     C 9088   3.274   8.870  -0.278  0.0986  0.4581 -0.8831
   68MOL0     C 9089   3.324   8.821  -0.410 -0.5786  0.8844  0.7152
   68MOL0    Cl 9090   3.197   8.867  -0.524 -0.0964 -0.1903  0.0059
   68MOL0     C 9091   3.754   8.345   0.263 -0.8745  0.1947  0.3563
   68MOL0     C 9092   3.815   8.224   0.295  0.5864  0.7063 -0.3639
   68MOL0     O 9093   3.987   8.111   0.592 -0.3416 -0.3068 -0.0880
   68MOL0     C 9094   4.188   7.892   0.411 -0.4477 -0.5538 -0.0198
   68MOL0     C 9095   4.301   7.814   0.423 -0.5788  1.2112  0.1945
   68MOL0     N 9096   4.886   7.733   0.318  1.2966 -0.0627  0.2737
   68MOL0     N 9097   4.980   7.677   0.257 -0.6639 -0.3433 -0.3285
   68MOL0     C 9098   6.193   7.295   0.169 -0.2465 -0.4153 -0.2813
   68MOL0     C 9099   6.334   7.302   0.146  0.7176 -0.1041  0.0015
   68MOL0     C 9100   6.723   7.481   0.002  0.0150 -0.3031 -0.0613
   68MOL0     C 9101   6.783   7.360  -0.035 -1.0444  0.0200  0.5277
   68MOL0     C 9102   6.911   7.357  -0.093 -0.5029  0.5023 -0.1381
   68MOL0     C 9103   6.987   7.476  -0.111  0.7137 -0.2714 -0.1695
   68MOL0     O 9104   7.108   7.462  -0.173 -0.1202  0.4580 -0.5207
   68MOL0     C 9105   7.181   7.581  -0.214 -0.2777  0.0161 -0.2424
   68MOL0     C 9106   7.303   7.546  -0.301 -0.8566  0.7284  0.5088
   68MOL0     C 9107   7.412   7.488  -0.209  0.4472 -0.5588 -0.3508
   68MOL0     C 9108   7.533   7.417  -0.273 -0.3317  0.7037 -0.6522
   68MOL0     C 9109   7.636   7.371  -0.173 -0.3226 -0.1200 -0.1283
   68MOL0     C 9110   7.714   7.324  -0.091 -0.0253  0.3386 -0.7446
   68MOL0     C 9111   6.928   7.597  -0.067 -0.0047  0.0592  0.4526
   68MOL0     C 9112   6.800   7.603  -0.012  0.5637  0.0347 -0.0382
   68MOL0     H 9113   6.334   7.447  -0.142 -0.8714  0.4159 -0.0520
   68MOL0     H 9114   6.094   7.448  -0.113 -1.0657  1.0394  0.3531
   68MOL0     H 9115   5.817   7.207   0.086  0.6430 -1.5532  0.2271
   68MOL0     H 9116   5.963   7.153   0.162 -1.1786 -0.1464  1.8267
   68MOL0     H 9117   5.827   7.198   0.352  2.4508 -1.5266 -0.4837
   68MOL0     H 9118   5.963   7.299   0.347  0.6659 -2.7055 -1.1616
   68MOL0     H 9119   5.810   7.469   0.386  0.0263  2.2707 -1.5878
   68MOL0     H 9120   5.804   7.472   0.214 -1.9303  1.9644  0.9872
   68MOL0     H 9121   5.604   7.315   0.212 -0.3127  2.0772 -2.2563
   68MOL0     H 9122   5.623   7.282   0.378  0.4398 -0.9192 -0.1696
   68MOL0     H 9123   5.571   7.535   0.425 -3.3197  0.4984 -0.6894
   68MOL0     H 9124   5.568   7.556   0.249 -0.1686 -0.9454 -2.5585
   68MOL0     H 9125   5.383   7.389   0.230 -0.8001 -1.7786  1.7771
   68MOL0     H 9126   5.387   7.373   0.408  0.2529 -0.4993  0.8362
   68MOL0     H 9127   5.311   7.611   0.431  0.7145  1.9938 -1.8283
   68MOL0     H 9128   5.322   7.639   0.264  0.8150  0.5530  2.2731
   68MOL0     H 9129   5.136   7.415   0.363  0.2110  0.2509 -0.3810
   68MOL0     H 9130   5.141   7.482   0.202  0.4180 -0.8418  0.1575
   68MOL0     H 9131   5.048   7.605   0.565  0.1437 -1.2428  0.8783
   68MOL0     H 9132   4.860   7.752   0.663 -0.2017  0.8150 -0.6238
   68MOL0     H 9133   4.722   7.809   0.558 -1.0826 -0.2744  0.3818
   68MOL0     H 9134   4.672   7.587   0.671  0.0431  2.1729  0.2446
   68MOL0     H 9135   4.807   7.518   0.588  0.2100 -0.5368  0.7575
   68MOL0     H 9136   4.602   7.468   0.488 -0.5504  0.9521  1.5285
   68MOL0     H 9137   4.713   7.543   0.372 -0.9416  0.0696 -0.3021
   68MOL0     H 9138   4.483   7.625   0.351  0.1744 -0.3961  0.5819
   68MOL0     H 9139   4.581   7.757   0.377 -0.5521 -0.1111  0.0676
   68MOL0     H 9140   4.397   7.880   0.738 -0.9344  1.9279  0.3426
   68MOL0     H 9141   4.116   8.037   0.814  1.2194 -1.1787 -0.2345
   68MOL0     H 9142   4.291   8.058   0.829 -1.2981  1.6138  2.1481
   68MOL0     H 9143   4.200   8.166   0.725 -1.5837  0.0677  0.2033
   68MOL0     H 9144   4.128   8.327   0.377  1.4259 -1.0898 -3.9566
   68MOL0     H 9145   3.998   8.563   0.339 -1.3884  1.1978 -0.0460
   68MOL0     H 9146   3.628   8.551   0.129  0.2885 -0.2267  0.2352
   68MOL0     H 9147   3.562   8.565   0.286 -0.9861 -2.4314 -2.6563
   68MOL0     H 9148   3.580   8.795   0.314  1.4014 -0.7244  0.6670
   68MOL0     H 9149   3.681   8.810   0.172 -0.8692  1.1560 -0.0951
   68MOL0     H 9150   3.388   8.713   0.176  1.1592  1.2940  0.2994
   68MOL0     H 9151   3.492   8.697   0.036  0.7729 -0.3861  0.0256
   68MOL0     H 9152   3.395   8.969   0.148  0.6249  0.9221 -0.4283
   68MOL0     H 9153   3.522   8.950   0.033  1.2566 -2.3222 -2.1799
   68MOL0     H 9154   3.273   8.998  -0.048  0.7651  2.2085  0.6091
   68MOL0     H 9155   3.248   8.830   0.013 -1.0359  2.3807  1.6416
   68MOL0     H 9156   3.473   8.900  -0.200  0.6048 -0.0792  0.9593
   68MOL0     H 9157   3.413   8.745  -0.165  0.7207 -0.3711  0.1275
   68MOL0     H 9158   3.252   8.977  -0.275  1.4782  0.8095 -2.1813
   68MOL0     H 9159   3.185   8.809  -0.255  0.0129  0.2177 -1.8030
   68MOL0     H 9160   3.358   8.717  -0.404  1.1627  1.3827  0.1840
   68MOL0     H 9161   3.411   8.880  -0.441 -0.2776  0.4063  0.6433
   68MOL0     H 9162   3.653   8.345   0.224  0.0854 -0.3885 -2.3772
   68MOL0     H 9163   3.767   8.127   0.287 -1.6047  1.7569 -0.5233
   68MOL0     H 9164   4.142   7.921   0.317  1.0718  1.7937 -0.1143
   68MOL0     H 9165   4.314   7.754   0.333  0.3072  2.8222 -0.7931
   68MOL0     H 9166   6.164   7.253   0.265 -1.4367  0.4265 -0.2581
   68MOL0     H 9167   6.407   7.266   0.218  0.0267 -1.8539 -0.1239
   68MOL0     H 9168   6.730   7.265  -0.038 -3.0450  1.1036 -0.1454
   68MOL0     H 9169   6.942   7.256  -0.117 -0.2966  0.7417 -0.9132
   68MOL0     H 9170   7.111   7.636  -0.277  0.7938  1.2630 -0.3832
   68MOL0     H 9171   7.226   7.632  -0.129  0.5422 -1.6395  0.3645
   68MOL0     H 9172   7.350   7.631  -0.353  0.0805 -0.0097  0.1033
   68MOL0     H 9173   7.272   7.472  -0.375 -0.4000 -0.0926  1.1231
   68MOL0     H 9174   7.356   7.427  -0.138 -0.6686 -0.1592 -0.8560
   68MOL0     H 9175   7.457   7.570  -0.152 -1.1690 -0.7399  1.2688
   68MOL0     H 9176   7.588   7.481  -0.343  1.6064  2.2491  2.0631
   68MOL0     H 9177   7.495   7.326  -0.319 -1.1790  0.4527  0.5195
   68MOL0     H 9178   7.781   7.277  -0.022  1.0121  1.1370 -1.1871
   68MOL0     H 9179   6.975   7.695  -0.069  1.9822 -0.7562  2.7046
   68MOL0     H 9180   6.761   7.696   0.029 -0.3721  1.2324 -3.3525
   69MOL0     O 9181   8.410   3.651   5.927  0.3258 -0.1390 -0.5603
   69MOL0     C 9182   8.460   3.684   5.818  0.2404  0.5264 -0.5980
   69MOL0     O 9183   8.395   3.660   5.688 -0.5729 -1.0036 -0.5800
   69MOL0     C 9184   8.286   3.570   5.682  0.1750  0.3143 -0.1161
   69MOL0     C 9185   8.248   3.471   5.771  0.1918  0.3285 -0.0863
   69MOL0     C 9186   8.128   3.407   5.754  0.4004  0.3026  0.2292
   69MOL0     C 9187   8.034   3.443   5.653  0.4847 -0.1466 -0.7140
   69MOL0     O 9188   7.916   3.390   5.643  0.3617  0.2194  0.4244
   69MOL0     C 9189   7.835   3.416   5.758 -0.1183  0.2346  0.0357
   69MOL0     C 9190   7.714   3.314   5.756  0.3093 -0.2326  0.0022
   69MOL0     C 9191   7.599   3.344   5.657  0.2364  0.4263 -0.3896
   69MOL0     C 9192   7.483   3.240   5.679  1.0235 -0.1583  0.1853
   69MOL0     C 9193   7.387   3.238   5.560  0.1794  0.7478  0.3091
   69MOL0     C 9194   7.276   3.133   5.591  0.3261 -0.1497 -0.1994
   69MOL0     C 9195   7.172   3.137   5.473 -0.4836 -0.6075 -0.8274
   69MOL0     C 9196   7.054   3.044   5.505 -1.3449 -0.2955  0.4641
   69MOL0     N 9197   6.952   3.054   5.400 -0.3464  0.1318  0.3606
   69MOL0     C 9198   6.822   3.091   5.412  0.0169 -0.5274  1.1979
   69MOL0     C 9199   6.778   3.091   5.284  0.2524 -0.6442  0.2264
   69MOL0     C 9200   6.634   3.133   5.243 -0.0566  0.4025 -0.2297
   69MOL0     C 9201   6.617   3.174   5.096 -0.4465  1.0304  0.5259
   69MOL0     C 9202   6.485   3.250   5.068  0.5332 -0.1606 -0.5381
   69MOL0     C 9203   6.360   3.165   5.115 -0.7718  0.2344 -1.1600
   69MOL0     O 9204   6.343   3.170   5.262  0.5598  0.5520 -0.6042
   69MOL0     C 9205   6.217   3.168   5.313  0.1744  0.4793  0.5085
   69MOL0     C 9206   6.181   3.285   5.376  0.2265 -0.9922 -0.4496
   69MOL0     C 9207   6.049   3.302   5.416 -0.4752 -0.0749 -0.1851
   69MOL0     C 9208   6.003   3.448   5.459 -0.6970  0.1134  0.7432
   69MOL0     C 9209   5.959   3.190   5.412 -0.3709 -0.6295  0.2980
   69MOL0     C 9210   5.817   3.201   5.458  0.1516  0.1088  0.3660
   69MOL0     O 9211   5.736   3.092   5.418  0.1988 -0.9101 -0.0615
   69MOL0     C 9212   5.602   3.119   5.430  0.0749  0.0427  0.1904
   69MOL0     C 9213   5.537   3.097   5.550  0.9999 -0.2454  0.2234
   69MOL0     C 9214   5.395   3.117   5.564  0.0575 -0.1470  0.0238
   69MOL0     C 9215   5.317   3.131   5.450 -0.3064 -0.2479  0.5453
   69MOL0     O 9216   5.180   3.131   5.459 -0.4108 -0.2717 -0.6433
   69MOL0     C 9217   5.120   3.240   5.383  0.2412  0.1226 -0.1912
   69MOL0     C 9218   4.992   3.278   5.465 -0.6058 -0.1361  0.6800
   69MOL0     C 9219   4.885   3.343   5.378 -0.9512 -0.9844  0.5170
   69MOL0     C 9220   4.759   3.388   5.465 -0.0355  0.1390 -0.0092
   69MOL0     C 9221   4.644   3.443   5.378  0.1336  0.4470  0.2669
   69MOL0     C 9222   4.531   3.486   5.459 -0.8221 -0.5276  0.2557
   69MOL0     C 9223   4.433   3.370   5.479 -0.8257  0.5402 -0.0528
   69MOL0     C 9224   4.322   3.390   5.582  0.2151 -0.2481 -0.5837
   69MOL0    Cl 9225   4.222   3.535   5.552  0.4325 -0.3365  0.3979
   69MOL0     C 9226   5.372   3.134   5.323 -0.7236 -0.5679  0.5985
   69MOL0     C 9227   5.522   3.142   5.316 -0.1392 -0.3645 -0.7520
   69MOL0     O 9228   5.780   3.288   5.537 -0.3469 -0.2118 -0.0136
   69MOL0     C 9229   6.005   3.075   5.352 -0.0050 -0.5075 -0.3259
   69MOL0     C 9230   6.134   3.057   5.299 -0.0585 -0.3710 -0.4461
   69MOL0     N 9231   6.885   3.060   5.204  0.5458  0.5978  0.1840
   69MOL0     N 9232   6.980   3.011   5.274  0.2336  0.0192  0.0598
   69MOL0     C 9233   8.074   3.546   5.565  0.2126  0.0528 -0.5023
   69MOL0     C 9234   8.195   3.605   5.579  0.5640  0.2137  0.3881
   69MOL0     C 9235   8.593   3.755   5.826 -0.1102 -0.7420  0.4644
   69MOL0     C 9236   8.673   3.775   5.713 -0.6204  0.3452 -0.0796
   69MOL0     C 9237   8.798   3.831   5.720 -0.6880 -0.7351 -0.5467
   69MOL0     C 9238   8.846   3.886   5.840  0.4620 -0.2287  0.5892
   69MOL0     O 9239   8.962   3.961   5.853  0.0739 -0.6012 -0.5830
   69MOL0     C 9240   9.043   4.001   5.739  0.4104  0.5871 -0.3216
   69MOL0     C 9241   8.997   4.136   5.674  0.7116  0.1682  0.4775
   69MOL0     C 9242   9.073   4.171   5.549  0.5192  0.7183 -1.2945
   69MOL0     C 9243   8.994   4.248   5.443  0.0572  0.3782  0.0122
   69MOL0     C 9244   8.871   4.191   5.402  0.2871 -0.4479 -0.1034
   69MOL0     C 9245   8.770   4.138   5.358 -0.0643 -0.0351 -0.0398
   69MOL0     C 9246   8.764   3.872   5.958 -0.2204 -0.0429 -0.3133
   69MOL0     C 9247   8.642   3.804   5.948 -0.0135 -0.2799 -0.2629
   69MOL0     H 9248   8.308   3.438   5.855 -4.7494 -3.3111  2.5571
   69MOL0     H 9249   8.104   3.322   5.818  0.6803  1.9486  2.6171
   69MOL0     H 9250   7.892   3.417   5.852  0.1953  3.5278 -0.0562
   69MOL0     H 9251   7.808   3.522   5.759  0.7009  0.4648  1.6013
   69MOL0     H 9252   7.759   3.216   5.741  0.1227 -0.2313 -0.5798
   69MOL0     H 9253   7.668   3.306   5.854  0.6045  0.4583  0.2062
   69MOL0     H 9254   7.554   3.442   5.672 -2.9788 -1.2833  2.7881
   69MOL0     H 9255   7.627   3.346   5.552 -2.0363  2.6341 -1.0412
   69MOL0     H 9256   7.532   3.143   5.674  0.1228 -0.6142 -0.0493
   69MOL0     H 9257   7.428   3.251   5.773  0.5994  0.0768 -0.0865
   69MOL0     H 9258   7.351   3.338   5.534  0.0661  0.5589 -0.2748
   69MOL0     H 9259   7.455   3.209   5.479  0.3670 -0.6935  0.9514
   69MOL0     H 9260   7.321   3.038   5.620  0.2870 -0.2611 -0.4987
   69MOL0     H 9261   7.220   3.165   5.680 -0.5974 -0.5373 -0.6258
   69MOL0     H 9262   7.130   3.237   5.463  1.9362  0.3629 -2.1612
   69MOL0     H 9263   7.215   3.107   5.377 -2.1001  0.0800 -1.8093
   69MOL0     H 9264   7.003   3.079   5.596  1.0400  0.4787  1.5711
   69MOL0     H 9265   7.094   2.943   5.515 -1.0442 -0.1413  0.8415
   69MOL0     H 9266   6.769   3.115   5.504  0.8384  0.3027  1.4639
   69MOL0     H 9267   6.571   3.050   5.274  0.6783 -0.2663 -0.4735
   69MOL0     H 9268   6.606   3.222   5.300 -4.0526 -0.0357 -1.2209
   69MOL0     H 9269   6.613   3.082   5.038  0.3598 -0.0524  2.0969
   69MOL0     H 9270   6.695   3.231   5.045 -0.0903 -0.2699 -0.4358
   69MOL0     H 9271   6.483   3.265   4.960  2.4151 -1.2122 -0.7647
   69MOL0     H 9272   6.486   3.349   5.115 -2.5872 -0.4701  0.3814
   69MOL0     H 9273   6.369   3.065   5.071 -0.4637 -0.4769  0.4455
   69MOL0     H 9274   6.272   3.213   5.070 -2.0311  0.0626  1.0066
   69MOL0     H 9275   6.249   3.369   5.384  1.1918 -1.4962 -2.6162
   69MOL0     H 9276   6.014   3.459   5.567 -2.7784 -3.3958  1.4947
   69MOL0     H 9277   6.065   3.525   5.413  0.0827  0.9467  3.0503
   69MOL0     H 9278   5.903   3.480   5.429 -0.7310 -0.7773 -0.1187
   69MOL0     H 9279   5.591   3.068   5.639 -1.3119 -2.4460  1.0146
   69MOL0     H 9280   5.350   3.108   5.662 -0.1968 -1.3903 -0.1953
   69MOL0     H 9281   5.184   3.329   5.377  1.2328 -0.6653 -2.1676
   69MOL0     H 9282   5.103   3.210   5.280 -0.7130  0.5489 -0.1637
   69MOL0     H 9283   4.946   3.195   5.520 -1.7702 -0.5925 -0.8843
   69MOL0     H 9284   5.026   3.353   5.537 -2.0542 -1.4434  2.8509
   69MOL0     H 9285   4.863   3.270   5.299  1.2943 -2.5115  1.1917
   69MOL0     H 9286   4.921   3.431   5.324  0.0934 -1.1498  0.9274
   69MOL0     H 9287   4.729   3.310   5.536 -4.1432  0.9226 -0.6705
   69MOL0     H 9288   4.794   3.478   5.516 -0.3771 -0.3467  1.1376
   69MOL0     H 9289   4.616   3.368   5.304  1.9321  0.8902 -0.9437
   69MOL0     H 9290   4.675   3.541   5.339  0.8649  0.0128 -0.2685
   69MOL0     H 9291   4.554   3.526   5.558  1.4689 -0.0540 -0.4028
   69MOL0     H 9292   4.483   3.570   5.408  0.7968  0.6848  0.6479
   69MOL0     H 9293   4.478   3.277   5.514 -1.3138  0.2993 -0.0604
   69MOL0     H 9294   4.388   3.347   5.382 -1.8373  1.7025  0.1168
   69MOL0     H 9295   4.362   3.393   5.683 -0.1249 -0.3769 -0.4436
   69MOL0     H 9296   4.247   3.311   5.573 -0.5114  0.4761 -0.9519
   69MOL0     H 9297   5.315   3.129   5.230 -3.3465  1.6338  1.9570
   69MOL0     H 9298   5.569   3.130   5.219 -1.7083  0.7819 -1.6887
   69MOL0     H 9299   5.947   2.983   5.356  0.5799 -0.8336  1.6057
   69MOL0     H 9300   6.161   2.960   5.260 -1.1840 -1.5513  1.5214
   69MOL0     H 9301   8.002   3.581   5.492  0.1022  1.3197  0.1894
   69MOL0     H 9302   8.226   3.693   5.524  1.5251  0.3053  1.0431
   69MOL0     H 9303   8.653   3.737   5.613 -0.9879 -2.6379  1.0317
   69MOL0     H 9304   8.846   3.852   5.625 -0.4034  0.4307 -0.1596
   69MOL0     H 9305   9.147   4.011   5.769  0.4837  0.9835 -0.6884
   69MOL0     H 9306   9.047   3.917   5.669  0.8597  3.3116 -3.8520
   69MOL0     H 9307   9.013   4.220   5.742  0.4763  0.0546  0.6760
   69MOL0     H 9308   8.889   4.126   5.662  0.8003 -1.6947  0.8466
   69MOL0     H 9309   9.114   4.076   5.513  0.8262  0.2294  0.2550
   69MOL0     H 9310   9.158   4.231   5.581  1.8574 -3.2842  4.4886
   69MOL0     H 9311   9.057   4.257   5.354 -1.6354  3.5800 -1.0419
   69MOL0     H 9312   8.957   4.338   5.494 -0.3661  0.6383 -0.7347
   69MOL0     H 9313   8.690   4.104   5.296 -1.0541  1.8153  0.1417
   69MOL0     H 9314   8.791   3.918   6.052 -0.2192 -0.5573 -0.0605
   69MOL0     H 9315   8.576   3.797   6.034 -1.5106  1.5364 -1.1841
   70MOL0     O 9316   8.941   4.259   1.340 -0.0268  0.4360 -0.5327
   70MOL0     C 9317   9.017   4.344   1.395  0.3774  1.0309 -0.4164
   70MOL0     O 9318   8.976   4.454   1.469 -0.1789  0.6248  0.5167
   70MOL0     C 9319   8.843   4.497   1.472  0.4174  1.3721  0.0075
   70MOL0     C 9320   8.818   4.598   1.561  0.4205  0.3829 -0.3344
   70MOL0     C 9321   8.691   4.657   1.581  0.5071  0.1542  0.3070
   70MOL0     C 9322   8.592   4.630   1.492 -0.1064 -0.2397  0.5255
   70MOL0     O 9323   8.475   4.702   1.517  0.2677 -0.4982  0.0154
   70MOL0     C 9324   8.355   4.680   1.438  0.9550 -0.4008 -0.6454
   70MOL0     C 9325   8.222   4.716   1.515 -0.2271 -0.1709  1.3201
   70MOL0     C 9326   8.200   4.632   1.640  0.5758  0.1878 -0.1141
   70MOL0     C 9327   8.064   4.669   1.702 -0.3719 -0.3533 -0.2315
   70MOL0     C 9328   8.032   4.569   1.815  0.5298  0.3692 -0.0809
   70MOL0     C 9329   7.891   4.597   1.864 -0.4000 -0.1156 -0.2505
   70MOL0     C 9330   7.845   4.512   1.989  0.4928 -0.2477 -0.0759
   70MOL0     C 9331   7.758   4.601   2.086 -0.8871  0.0523 -0.4334
   70MOL0     N 9332   7.614   4.574   2.072 -0.9063  0.1884 -0.0875
   70MOL0     C 9333   7.533   4.618   1.981 -0.7360 -0.7108  0.1222
   70MOL0     C 9334   7.418   4.548   1.995  0.0622 -0.0387  0.6719
   70MOL0     C 9335   7.302   4.553   1.895  0.2974  0.5467  0.0317
   70MOL0     C 9336   7.193   4.446   1.916  0.2860  0.9357  0.6991
   70MOL0     C 9337   7.230   4.299   1.872 -0.3055 -0.5023  0.4977
   70MOL0     C 9338   7.125   4.200   1.905  0.7810 -0.0791  0.4999
   70MOL0     O 9339   7.006   4.237   1.832  0.5495  0.1967 -0.5399
   70MOL0     C 9340   6.878   4.176   1.844 -0.2150 -0.4161 -0.0086
   70MOL0     C 9341   6.841   4.081   1.941 -0.2334  0.0061  0.6048
   70MOL0     C 9342   6.715   4.024   1.947  1.6023  0.3329 -0.4178
   70MOL0     C 9343   6.683   3.929   2.058  0.3014  0.4561  0.6657
   70MOL0     C 9344   6.625   4.067   1.845  0.9788  0.0933 -0.2702
   70MOL0     C 9345   6.488   4.026   1.849 -0.7267  0.1726 -0.1447
   70MOL0     O 9346   6.419   4.020   1.973  0.3548 -0.0629  0.2884
   70MOL0     C 9347   6.313   3.933   1.981  0.0478 -1.1436  0.1665
   70MOL0     C 9348   6.338   3.798   1.993 -0.5327  0.1136  0.2897
   70MOL0     C 9349   6.232   3.712   2.028  0.3277  0.0008 -0.1473
   70MOL0     C 9350   6.100   3.763   2.047  0.1636 -0.2136 -0.8213
   70MOL0     O 9351   5.999   3.675   2.081  0.4251  0.2263  0.1459
   70MOL0     C 9352   5.861   3.712   2.085  0.0115 -0.2318  0.5669
   70MOL0     C 9353   5.774   3.588   2.079  0.3145  0.0586 -0.2861
   70MOL0     C 9354   5.784   3.504   2.200 -0.0229  0.6305  0.0242
   70MOL0     C 9355   5.683   3.393   2.199 -0.1434  0.2472 -0.4250
   70MOL0     C 9356   5.658   3.335   2.343 -0.8726 -0.8894  0.8082
   70MOL0     C 9357   5.556   3.229   2.334 -0.0606  1.0901 -0.1422
   70MOL0     C 9358   5.547   3.149   2.469  0.1732 -0.5386  0.0177
   70MOL0     C 9359   5.450   3.033   2.450 -0.6638  0.4878  0.0216
   70MOL0    Cl 9360   5.280   3.088   2.418 -0.0516 -0.2524  0.0467
   70MOL0     C 9361   6.077   3.900   2.047  0.2611  0.2541 -0.0831
   70MOL0     C 9362   6.188   3.986   2.015  0.2036  0.9176  0.4592
   70MOL0     O 9363   6.449   3.990   1.736 -0.0147  0.1587 -0.5877
   70MOL0     C 9364   6.658   4.162   1.748  0.5124 -0.5391  0.2900
   70MOL0     C 9365   6.786   4.210   1.740 -0.5496 -1.5000  0.1675
   70MOL0     N 9366   7.434   4.478   2.108  0.3710  0.9987 -0.0867
   70MOL0     N 9367   7.545   4.493   2.152  0.2800  0.4751  0.2315
   70MOL0     C 9368   8.616   4.545   1.381 -0.0822 -0.4041 -0.1364
   70MOL0     C 9369   8.733   4.465   1.385 -0.1614 -0.3260 -0.4203
   70MOL0     C 9370   9.157   4.314   1.400 -0.5843 -0.2410 -0.5360
   70MOL0     C 9371   9.211   4.204   1.334 -0.1273  0.0254  0.3065
   70MOL0     C 9372   9.352   4.186   1.333  1.1057 -0.1508  0.2037
   70MOL0     C 9373   9.433   4.265   1.415  0.6234  0.3663 -0.8649
   70MOL0     O 9374   9.573   4.243   1.427 -0.1851 -0.0333 -0.2382
   70MOL0     C 9375   9.630   4.133   1.354 -0.4264 -0.0779  0.7242
   70MOL0     C 9376   9.776   4.130   1.382 -0.0919 -0.1434 -0.9324
   70MOL0     C 9377   9.810   4.045   1.506 -0.3228 -0.1526 -0.5204
   70MOL0     C 9378   9.962   4.020   1.511 -0.0651 -0.8283  0.2998
   70MOL0     C 9379  10.000   3.916   1.411  0.1800 -0.6617  0.2046
   70MOL0     C 9380  10.021   3.822   1.332 -0.5091 -0.4769  0.1106
   70MOL0     C 9381   9.376   4.371   1.486  0.8332  0.1280 -0.6815
   70MOL0     C 9382   9.240   4.401   1.472  0.2425  0.0439 -0.6524
   70MOL0     H 9383   8.908   4.619   1.619  1.2314  1.2440 -1.8523
   70MOL0     H 9384   8.663   4.732   1.654 -1.6240 -0.3958  0.1263
   70MOL0     H 9385   8.356   4.740   1.346  1.5991  0.9401  0.1894
   70MOL0     H 9386   8.363   4.573   1.422  5.2374 -0.7559  2.1953
   70MOL0     H 9387   8.210   4.823   1.536  0.4177  0.4659 -1.1922
   70MOL0     H 9388   8.152   4.691   1.434  2.5354 -0.6672 -1.0789
   70MOL0     H 9389   8.204   4.527   1.608  1.3701  0.0408  0.4465
   70MOL0     H 9390   8.276   4.645   1.717  1.4450 -2.7760 -0.3408
   70MOL0     H 9391   8.061   4.767   1.750 -1.3588 -0.4313 -0.1253
   70MOL0     H 9392   7.989   4.663   1.622 -0.8226  0.9118  0.0777
   70MOL0     H 9393   8.042   4.465   1.783 -1.7482  0.8465 -2.7243
   70MOL0     H 9394   8.099   4.595   1.897 -1.3318  2.4405  0.8957
   70MOL0     H 9395   7.880   4.702   1.893 -2.2720 -0.8317  1.9433
   70MOL0     H 9396   7.820   4.587   1.781  2.3612  1.1654 -2.9616
   70MOL0     H 9397   7.794   4.420   1.959 -0.2131 -0.7582  2.4021
   70MOL0     H 9398   7.934   4.472   2.038 -1.1647 -1.8914  1.7659
   70MOL0     H 9399   7.773   4.709   2.086 -0.0405 -0.0260  1.4793
   70MOL0     H 9400   7.799   4.574   2.184  0.7069  2.5619 -0.3096
   70MOL0     H 9401   7.564   4.684   1.900  1.7075 -0.2992  1.2943
   70MOL0     H 9402   7.258   4.653   1.887  0.6514  0.7275  0.3070
   70MOL0     H 9403   7.345   4.543   1.795 -0.4856 -2.3294 -0.1033
   70MOL0     H 9404   7.104   4.472   1.858  1.1474  0.9207 -0.6472
   70MOL0     H 9405   7.165   4.441   2.022  1.3077  2.7572  1.0874
   70MOL0     H 9406   7.325   4.262   1.912 -1.5344 -1.9907  2.2208
   70MOL0     H 9407   7.234   4.297   1.763 -1.4981 -2.7074  0.4345
   70MOL0     H 9408   7.100   4.202   2.012  0.4032 -0.2139  0.4192
   70MOL0     H 9409   7.150   4.094   1.894 -1.6996 -0.7845  0.9502
   70MOL0     H 9410   6.916   4.040   2.008 -1.0825 -5.1566 -1.1717
   70MOL0     H 9411   6.778   3.902   2.106  0.8213  1.0621  0.0009
   70MOL0     H 9412   6.607   3.970   2.126 -0.5706 -0.0260  0.0045
   70MOL0     H 9413   6.649   3.835   2.014 -0.6650 -0.1524  2.5738
   70MOL0     H 9414   6.437   3.754   1.991 -1.6653 -3.0464  2.9034
   70MOL0     H 9415   6.245   3.605   2.043 -1.5548 -0.8904 -3.6494
   70MOL0     H 9416   5.833   3.774   2.171 -3.5483  3.3129 -2.7629
   70MOL0     H 9417   5.830   3.773   2.000 -1.1645  0.5532  1.5362
   70MOL0     H 9418   5.671   3.618   2.057  0.6913  3.2651  1.7055
   70MOL0     H 9419   5.814   3.532   1.994 -1.3227 -0.6479 -0.6334
   70MOL0     H 9420   5.758   3.569   2.284 -3.9380 -1.0820  0.3462
   70MOL0     H 9421   5.888   3.470   2.202 -0.2666 -0.5416 -2.6222
   70MOL0     H 9422   5.588   3.438   2.168 -0.8065  1.2510  2.7110
   70MOL0     H 9423   5.707   3.312   2.130  1.5673 -1.9963  2.5945
   70MOL0     H 9424   5.617   3.408   2.414 -0.2563 -0.3652  0.6333
   70MOL0     H 9425   5.755   3.295   2.373 -0.7130 -1.2152 -0.1092
   70MOL0     H 9426   5.460   3.281   2.321 -0.6725 -0.1883 -0.8402
   70MOL0     H 9427   5.581   3.148   2.266 -1.3030  1.5686 -1.1935
   70MOL0     H 9428   5.509   3.223   2.539  0.6309  0.6108 -0.9037
   70MOL0     H 9429   5.642   3.113   2.510 -0.2862 -1.0950  0.5977
   70MOL0     H 9430   5.446   2.973   2.541 -1.6071 -0.2467 -0.4876
   70MOL0     H 9431   5.492   2.971   2.371  1.7555  0.4756  1.2188
   70MOL0     H 9432   5.980   3.942   2.072 -0.6781 -0.5408 -2.2007
   70MOL0     H 9433   6.176   4.093   2.003 -0.5089  0.7770 -0.1701
   70MOL0     H 9434   6.583   4.204   1.682 -1.6507 -2.1721  1.5930
   70MOL0     H 9435   6.818   4.272   1.657  0.7329 -1.6834  0.5040
   70MOL0     H 9436   8.548   4.510   1.304 -2.0807  1.1548  0.8324
   70MOL0     H 9437   8.741   4.395   1.302  0.1039  1.1432 -1.6841
   70MOL0     H 9438   9.145   4.141   1.275  2.0900 -2.2305  0.0628
   70MOL0     H 9439   9.401   4.111   1.272  0.1892 -1.7054  1.3086
   70MOL0     H 9440   9.574   4.042   1.377  1.7659 -1.3247  1.4316
   70MOL0     H 9441   9.622   4.171   1.251  1.9983  0.9255  0.8458
   70MOL0     H 9442   9.805   4.234   1.402 -3.7159  0.6357  1.3679
   70MOL0     H 9443   9.838   4.103   1.296  1.7567 -2.7122  1.0737
   70MOL0     H 9444   9.763   3.947   1.496 -3.2007  1.0294  0.2054
   70MOL0     H 9445   9.782   4.093   1.600 -1.2525 -1.3851 -0.1363
   70MOL0     H 9446   9.998   4.008   1.614  0.4500  1.2275  0.4110
   70MOL0     H 9447  10.019   4.109   1.484 -2.5895  0.0862 -2.5386
   70MOL0     H 9448  10.033   3.740   1.264  2.0697  0.1449 -0.3169
   70MOL0     H 9449   9.444   4.434   1.543 -0.1357  0.0574  0.5952
   70MOL0     H 9450   9.211   4.494   1.521  0.4981  0.7683 -1.8214
   71MOL0     O 9451   2.602   1.490   7.341 -0.2144  0.4650  0.2840
   71MOL0     C 9452   2.605   1.518   7.461  0.5837 -0.5377  0.0185
   71MOL0     O 9453   2.495   1.533   7.535 -0.0741  0.1580  0.0721
   71MOL0     C 9454   2.376   1.547   7.485  0.3528 -0.1704  0.3681
   71MOL0     C 9455   2.315   1.451   7.400  0.5201 -0.0287  0.3713
   71MOL0     C 9456   2.189   1.476   7.338  0.7823  0.6872 -0.2169
   71MOL0     C 9457   2.119   1.591   7.359 -0.6686  1.2039 -0.4523
   71MOL0     O 9458   1.991   1.623   7.321 -0.4225 -0.4776 -0.2476
   71MOL0     C 9459   1.901   1.526   7.268 -0.3903  0.0048  0.0901
   71MOL0     C 9460   1.758   1.589   7.248 -0.3402 -0.4258  0.0192
   71MOL0     C 9461   1.681   1.605   7.381  0.5905  0.0006 -0.6994
   71MOL0     C 9462   1.563   1.708   7.369 -0.9506  0.7159 -0.3685
   71MOL0     C 9463   1.596   1.835   7.452 -0.5925  0.0238  0.2752
   71MOL0     C 9464   1.501   1.952   7.428  0.1732 -0.0165  0.3322
   71MOL0     C 9465   1.355   1.912   7.437  1.0105 -0.5365  0.0592
   71MOL0     C 9466   1.271   2.034   7.464  0.9398 -0.5637  0.5315
   71MOL0     N 9467   1.121   2.017   7.451  0.0582 -0.3912 -0.4519
   71MOL0     C 9468   1.025   2.118   7.411 -0.4188 -0.0288 -0.4925
   71MOL0     C 9469   0.902   2.056   7.400  0.7231  0.5972  0.4599
   71MOL0     C 9470   0.769   2.122   7.393  0.6736 -0.1235 -0.0278
   71MOL0     C 9471   0.667   2.089   7.514  0.0802  0.3326 -0.1678
   71MOL0     C 9472   0.698   2.158   7.642 -0.7101  0.1128 -0.9806
   71MOL0     C 9473   0.619   2.088   7.758  0.7611 -0.6294  0.3655
   71MOL0     O 9474   0.485   2.066   7.715 -0.1667 -0.4067  0.0020
   71MOL0     C 9475   0.395   2.029   7.806 -0.3693  0.0138 -0.2449
   71MOL0     C 9476   0.272   2.077   7.793 -0.0226 -0.1489 -0.5387
   71MOL0     C 9477   0.161   2.032   7.869 -0.0874 -0.5792 -0.0809
   71MOL0     C 9478   0.026   2.100   7.850 -0.6495  0.3491  1.2166
   71MOL0     C 9479   0.186   1.946   7.976  0.2909  0.5620  0.1648
   71MOL0     C 9480   0.082   1.902   8.081 -0.6417  0.1427  0.0136
   71MOL0     O 9481   0.127   1.858   8.209  0.1094  0.0835  1.4560
   71MOL0     C 9482   0.062   1.772   8.296  0.6958  0.0559 -0.8702
   71MOL0     C 9483   0.073   1.788   8.440 -0.7877 -0.0505  0.1201
   71MOL0     C 9484   0.006   1.703   8.523 -0.3422  0.3569 -0.4069
   71MOL0     C 9485  -0.073   1.605   8.467  0.0959  0.4497 -0.0051
   71MOL0     O 9486  -0.156   1.536   8.549  0.6076 -0.5101  0.3108
   71MOL0     C 9487  -0.131   1.510   8.684 -0.4997 -0.3382 -0.0514
   71MOL0     C 9488  -0.229   1.407   8.735  1.0330  0.0366 -0.9597
   71MOL0     C 9489  -0.376   1.450   8.713  0.5513 -0.4432 -0.2858
   71MOL0     C 9490  -0.469   1.375   8.804  0.1403  0.2950  0.5960
   71MOL0     C 9491  -0.614   1.414   8.795  0.8071 -0.5130 -0.5664
   71MOL0     C 9492  -0.700   1.440   8.659 -0.3500  0.2055 -0.9262
   71MOL0     C 9493  -0.679   1.584   8.614 -0.0475 -0.7990 -0.2293
   71MOL0     C 9494  -0.787   1.621   8.510 -0.7272  0.5499 -0.1016
   71MOL0    Cl 9495  -0.943   1.644   8.599 -0.0171 -0.3504 -0.2154
   71MOL0     C 9496  -0.085   1.582   8.328  0.3394  1.0469  0.6099
   71MOL0     C 9497  -0.012   1.661   8.243  0.2903 -0.1073 -0.8303
   71MOL0     O 9498  -0.030   1.900   8.038 -1.0021 -0.7222 -0.4639
   71MOL0     C 9499   0.315   1.889   7.986 -0.5468 -0.2936  0.6163
   71MOL0     C 9500   0.416   1.924   7.902  0.5216  0.1316  0.8429
   71MOL0     N 9501   0.923   1.923   7.441 -0.8770 -0.6128  0.2920
   71MOL0     N 9502   1.053   1.902   7.467  0.4024 -0.1983 -0.2060
   71MOL0     C 9503   2.178   1.687   7.451  0.9569  0.4230  0.1567
   71MOL0     C 9504   2.301   1.659   7.512 -0.2502 -0.4486  0.0255
   71MOL0     C 9505   2.735   1.490   7.534 -0.3285 -0.7631 -0.4954
   71MOL0     C 9506   2.855   1.487   7.460 -1.2522  0.0880  0.2239
   71MOL0     C 9507   2.979   1.479   7.524  0.9515  0.4905 -0.0929
   71MOL0     C 9508   2.983   1.475   7.673 -0.6811  0.0797  0.2726
   71MOL0     O 9509   3.114   1.477   7.718  0.4189  0.0727 -0.2443
   71MOL0     C 9510   3.139   1.494   7.855 -0.0240  0.1344 -0.4940
   71MOL0     C 9511   3.294   1.501   7.861 -0.0504 -0.0727 -0.0732
   71MOL0     C 9512   3.343   1.540   7.997 -0.3956  0.6391  0.3961
   71MOL0     C 9513   3.484   1.501   8.035 -0.6311  0.3961 -0.0898
   71MOL0     C 9514   3.503   1.349   8.046 -0.2978 -0.5949  1.4109
   71MOL0     C 9515   3.518   1.234   8.044  0.1448 -0.0613  0.3579
   71MOL0     C 9516   2.863   1.486   7.743  0.1974 -0.1819  0.3060
   71MOL0     C 9517   2.746   1.494   7.668  0.7369  0.2789 -0.3481
   71MOL0     H 9518   2.358   1.359   7.361 -0.4427  0.2276 -1.4127
   71MOL0     H 9519   2.153   1.399   7.271 -3.1523  3.2748 -1.4313
   71MOL0     H 9520   1.944   1.492   7.174 -1.3040  0.8319 -0.6497
   71MOL0     H 9521   1.907   1.450   7.346 -0.4030  0.0460  0.1317
   71MOL0     H 9522   1.783   1.685   7.200  4.3379 -0.4468  1.9733
   71MOL0     H 9523   1.699   1.526   7.181 -0.1789  1.4909 -2.0591
   71MOL0     H 9524   1.643   1.511   7.421 -0.2840  1.0838  1.2041
   71MOL0     H 9525   1.755   1.636   7.455  0.9262 -0.3361 -0.8947
   71MOL0     H 9526   1.551   1.743   7.266  2.2606  1.8196 -0.4727
   71MOL0     H 9527   1.467   1.670   7.405  0.9369 -2.4570  1.7847
   71MOL0     H 9528   1.594   1.813   7.559 -0.9260  0.2905  0.3262
   71MOL0     H 9529   1.694   1.878   7.429 -0.5999 -0.2013 -0.2031
   71MOL0     H 9530   1.526   2.027   7.505  0.9074  0.4886 -0.3807
   71MOL0     H 9531   1.519   2.009   7.336  0.2085  1.2382  1.0885
   71MOL0     H 9532   1.314   1.874   7.344 -2.6838 -0.7226  1.6026
   71MOL0     H 9533   1.338   1.830   7.507 -1.4430 -0.7518 -0.7098
   71MOL0     H 9534   1.303   2.121   7.406 -1.3988  1.7595  2.5153
   71MOL0     H 9535   1.291   2.061   7.568  2.7149 -1.0507  0.3566
   71MOL0     H 9536   1.026   2.225   7.391 -0.9670  0.0805  0.0538
   71MOL0     H 9537   0.780   2.230   7.383  2.1480 -0.4117 -2.2486
   71MOL0     H 9538   0.717   2.081   7.305 -0.8560  0.9439  0.3401
   71MOL0     H 9539   0.677   1.981   7.532 -0.3089 -0.2833 -3.0787
   71MOL0     H 9540   0.563   2.104   7.486 -0.1141  0.5890  0.6630
   71MOL0     H 9541   0.659   2.260   7.632  0.6257  0.7554  0.1274
   71MOL0     H 9542   0.803   2.159   7.669 -0.9985  0.3800  0.1734
   71MOL0     H 9543   0.631   2.145   7.850 -0.0945  0.5222 -0.2167
   71MOL0     H 9544   0.651   1.987   7.786 -0.1215 -0.4302  2.2098
   71MOL0     H 9545   0.247   2.146   7.713 -0.7466 -0.4568 -0.5849
   71MOL0     H 9546  -0.017   2.125   7.948  0.8081 -0.2065  2.0248
   71MOL0     H 9547   0.022   2.192   7.792 -0.7166  0.3978  1.2971
   71MOL0     H 9548  -0.041   2.024   7.808  1.8032 -0.7846 -0.8938
   71MOL0     H 9549   0.129   1.873   8.477 -1.2172  0.1881  0.2368
   71MOL0     H 9550   0.014   1.717   8.630 -3.7715 -0.5523  0.0610
   71MOL0     H 9551  -0.033   1.464   8.698 -0.2079  0.6545  1.4560
   71MOL0     H 9552  -0.137   1.599   8.748  2.2268  1.3957 -1.9797
   71MOL0     H 9553  -0.211   1.314   8.681 -0.0594 -1.7850  1.6191
   71MOL0     H 9554  -0.215   1.388   8.841 -0.5777  2.1991 -0.2978
   71MOL0     H 9555  -0.417   1.447   8.611  1.5212 -1.1760 -0.6741
   71MOL0     H 9556  -0.388   1.555   8.742 -0.3865 -0.2238 -1.3781
   71MOL0     H 9557  -0.478   1.276   8.757  0.6099  1.7570 -2.9417
   71MOL0     H 9558  -0.424   1.368   8.903 -0.2064 -1.3411  0.6762
   71MOL0     H 9559  -0.628   1.501   8.859 -4.9611 -0.4231 -1.3800
   71MOL0     H 9560  -0.665   1.342   8.860  0.4285  0.2939  0.0422
   71MOL0     H 9561  -0.678   1.361   8.587 -1.4659 -0.4118 -0.6197
   71MOL0     H 9562  -0.808   1.444   8.678 -0.3969  3.3498 -1.3174
   71MOL0     H 9563  -0.578   1.602   8.576 -0.5263  1.8301 -0.4720
   71MOL0     H 9564  -0.686   1.658   8.693 -1.0238 -0.2617 -0.8015
   71MOL0     H 9565  -0.793   1.537   8.440  0.9455 -0.4622  0.8955
   71MOL0     H 9566  -0.749   1.711   8.461 -1.5601  1.4889  0.9209
   71MOL0     H 9567  -0.146   1.506   8.281  2.6803  0.4857 -1.7711
   71MOL0     H 9568  -0.007   1.653   8.135  1.5961  0.1741 -0.8040
   71MOL0     H 9569   0.340   1.811   8.057 -0.1737 -1.7416 -1.0151
   71MOL0     H 9570   0.518   1.885   7.902  1.3734  2.2117  1.0431
   71MOL0     H 9571   2.120   1.775   7.478 -2.8679 -2.1052  1.0676
   71MOL0     H 9572   2.344   1.730   7.581  0.7437  1.0401 -2.0157
   71MOL0     H 9573   2.846   1.513   7.355 -0.4738 -0.6358 -0.0299
   71MOL0     H 9574   3.077   1.484   7.477  0.2747  2.2897 -1.4529
   71MOL0     H 9575   3.087   1.587   7.878  0.0024  0.3819 -1.4013
   71MOL0     H 9576   3.092   1.419   7.920  0.7287  0.7741  0.8221
   71MOL0     H 9577   3.332   1.574   7.789 -1.8175  0.4100 -0.5584
   71MOL0     H 9578   3.329   1.402   7.830 -0.3005  0.8132 -3.6189
   71MOL0     H 9579   3.280   1.494   8.074  1.1679  0.6443  1.7225
   71MOL0     H 9580   3.335   1.648   8.002 -0.3383  0.7329 -1.1011
   71MOL0     H 9581   3.522   1.547   8.127 -1.0649  1.7665 -0.5682
   71MOL0     H 9582   3.552   1.532   7.954 -0.7147 -2.5532 -1.4123
   71MOL0     H 9583   3.516   1.127   8.052 -0.6308  0.0593  2.1725
   71MOL0     H 9584   2.866   1.498   7.851 -1.0443  1.6475  0.1974
   71MOL0     H 9585   2.657   1.509   7.728  1.0012 -1.4711  0.5229
   72MOL0     O 9586   4.303   9.485   4.070  0.3189  0.1466  0.4421
   72MOL0     C 9587   4.383   9.397   4.103 -0.4516  1.0330  0.3514
   72MOL0     O 9588   4.360   9.268   4.130  0.2005 -0.5727 -0.4061
   72MOL0     C 9589   4.235   9.229   4.086 -0.5679  1.0648 -0.1575
   72MOL0     C 9590   4.239   9.110   4.014  1.1415  0.5334  0.2385
   72MOL0     C 9591   4.119   9.046   3.968  0.1845  0.0219 -0.4527
   72MOL0     C 9592   4.000   9.108   4.006  0.3829 -0.6033 -0.8390
   72MOL0     O 9593   3.876   9.051   3.969  0.1306 -0.2649 -0.5421
   72MOL0     C 9594   3.878   8.984   3.845 -0.1416  0.2633 -0.0974
   72MOL0     C 9595   3.739   8.947   3.799  0.0843  0.5755  0.5028
   72MOL0     C 9596   3.656   9.070   3.780 -0.3300 -0.8089  0.6836
   72MOL0     C 9597   3.548   9.038   3.677  0.2042 -0.7135 -0.1362
   72MOL0     C 9598   3.436   9.152   3.677  0.5633  0.0763 -0.0171
   72MOL0     C 9599   3.341   9.146   3.798 -0.4790 -0.1729 -1.4192
   72MOL0     C 9600   3.232   9.043   3.782  0.5229 -0.0839  0.7130
   72MOL0     C 9601   3.139   9.034   3.910  0.1619  0.3421  1.0612
   72MOL0     N 9602   3.006   8.982   3.868 -0.4279 -1.4039 -0.4552
   72MOL0     C 9603   2.909   9.039   3.780 -0.2465  0.3609 -0.3477
   72MOL0     C 9604   2.801   8.962   3.794 -0.0539 -0.5852  0.5803
   72MOL0     C 9605   2.668   8.989   3.727  0.3804 -0.1192 -0.1264
   72MOL0     C 9606   2.581   9.092   3.793 -0.3492 -0.0551  0.2528
   72MOL0     C 9607   2.503   9.182   3.702  0.2278 -0.9918  0.3880
   72MOL0     C 9608   2.436   9.290   3.788  0.6748 -0.1876  0.5832
   72MOL0     O 9609   2.341   9.217   3.876  0.7809 -0.1900 -0.0846
   72MOL0     C 9610   2.207   9.223   3.846 -0.7443 -0.9110 -1.1182
   72MOL0     C 9611   2.119   9.196   3.953  0.7072  0.3105 -0.0918
   72MOL0     C 9612   1.986   9.190   3.921 -0.7427  0.0611 -0.6295
   72MOL0     C 9613   1.901   9.142   4.037 -0.5847 -0.0895  0.6680
   72MOL0     C 9614   1.926   9.225   3.799  0.3911  0.4767 -0.4408
   72MOL0     C 9615   1.778   9.209   3.762 -0.5416  0.7554 -0.0496
   72MOL0     O 9616   1.680   9.164   3.854  0.3342  0.2320  0.6799
   72MOL0     C 9617   1.550   9.137   3.830 -0.0800 -0.5047  0.7717
   72MOL0     C 9618   1.472   9.032   3.891 -0.2280 -0.1713  0.0774
   72MOL0     C 9619   1.336   9.020   3.877  0.4926  0.3938 -0.2199
   72MOL0     C 9620   1.271   9.093   3.780  0.2009 -0.7056  0.2001
   72MOL0     O 9621   1.135   9.056   3.763 -0.2763 -0.2230 -0.1555
   72MOL0     C 9622   1.049   9.119   3.662 -0.8973  0.0638 -0.0683
   72MOL0     C 9623   0.908   9.080   3.710 -0.0261 -0.1342 -0.1917
   72MOL0     C 9624   0.870   9.117   3.855 -0.4149  0.4002 -0.3353
   72MOL0     C 9625   0.732   9.088   3.901 -0.0443  0.2299 -0.8189
   72MOL0     C 9626   0.719   8.965   3.990 -0.4069  0.1309 -0.2979
   72MOL0     C 9627   0.726   8.832   3.912  0.3642 -0.3346 -0.4749
   72MOL0     C 9628   0.744   8.721   4.004  1.1518 -0.9370 -0.1193
   72MOL0     C 9629   0.756   8.586   3.931  0.0064 -0.3569 -0.4550
   72MOL0    Cl 9630   0.597   8.501   3.911 -0.2387  0.2941  0.2411
   72MOL0     C 9631   1.338   9.198   3.715  0.5454  0.1690  0.1787
   72MOL0     C 9632   1.476   9.217   3.740 -0.0772  1.0031  0.0523
   72MOL0     O 9633   1.755   9.240   3.642 -0.6488 -0.7075 -0.2606
   72MOL0     C 9634   2.016   9.259   3.700 -0.4302  0.5574 -0.2047
   72MOL0     C 9635   2.155   9.249   3.721  0.4849 -0.6681  0.6359
   72MOL0     N 9636   2.832   8.859   3.880 -0.6772  0.5032 -0.9229
   72MOL0     N 9637   2.949   8.877   3.928  0.5166  0.4654  0.3623
   72MOL0     C 9638   3.990   9.219   4.084 -0.9800 -0.7116  0.1564
   72MOL0     C 9639   4.109   9.281   4.117 -0.2647  0.7943 -0.6703
   72MOL0     C 9640   4.526   9.434   4.117  0.3912 -0.4394 -0.0248
   72MOL0     C 9641   4.622   9.335   4.141 -0.6085 -0.3873  0.8183
   72MOL0     C 9642   4.757   9.373   4.152  2.0311  0.3472  0.4352
   72MOL0     C 9643   4.799   9.505   4.153  0.4970 -0.2803  0.7834
   72MOL0     O 9644   4.936   9.547   4.161  0.3060 -0.3232  0.0542
   72MOL0     C 9645   5.019   9.455   4.233 -0.5897  0.4313 -1.4809
   72MOL0     C 9646   5.144   9.528   4.290  0.1954 -0.3037  0.1328
   72MOL0     C 9647   5.204   9.628   4.182 -0.6861 -0.2977 -0.0353
   72MOL0     C 9648   5.356   9.657   4.209  0.2343  1.3833  0.2233
   72MOL0     C 9649   5.442   9.539   4.185 -0.4431  0.0006 -0.2543
   72MOL0     C 9650   5.499   9.436   4.162 -0.1540  0.0693 -1.2170
   72MOL0     C 9651   4.696   9.599   4.117  0.6302 -0.2638 -0.0025
   72MOL0     C 9652   4.558   9.572   4.106 -0.1269 -0.0132  1.1440
   72MOL0     H 9653   4.330   9.058   3.986  0.2377 -0.2324 -1.3497
   72MOL0     H 9654   4.119   8.952   3.914  0.6354  0.9991 -2.2316
   72MOL0     H 9655   3.925   9.051   3.774  1.6675 -0.8451 -0.0017
   72MOL0     H 9656   3.939   8.893   3.852  1.1715  1.1611  0.5277
   72MOL0     H 9657   3.748   8.890   3.707  1.7324  1.2415  0.2047
   72MOL0     H 9658   3.692   8.883   3.874  0.4720  1.6430  1.6942
   72MOL0     H 9659   3.622   9.101   3.879 -3.5333  1.9487 -1.0382
   72MOL0     H 9660   3.722   9.150   3.746  1.2119 -2.5075 -0.5616
   72MOL0     H 9661   3.587   9.037   3.575 -1.8958  0.3586 -1.0108
   72MOL0     H 9662   3.506   8.939   3.699 -1.1830 -0.3591 -1.0360
   72MOL0     H 9663   3.482   9.250   3.694 -0.2287 -0.0066  3.2334
   72MOL0     H 9664   3.392   9.155   3.577  2.2797 -1.1240 -0.8716
   72MOL0     H 9665   3.397   9.118   3.888 -1.7508  2.6636  0.3826
   72MOL0     H 9666   3.303   9.247   3.814  1.2347  0.3306 -0.2454
   72MOL0     H 9667   3.170   9.062   3.694  0.1682  1.9126  1.3540
   72MOL0     H 9668   3.284   8.947   3.777 -2.2667 -1.6476 -0.6401
   72MOL0     H 9669   3.127   9.131   3.958 -2.3189 -0.1786  1.6638
   72MOL0     H 9670   3.193   8.971   3.981  1.4437  1.7491  1.3791
   72MOL0     H 9671   2.909   9.120   3.708 -0.9106  0.2597 -0.4611
   72MOL0     H 9672   2.687   9.016   3.623  1.3301 -0.5320 -0.0688
   72MOL0     H 9673   2.612   8.895   3.732 -0.3369  0.3724  2.0085
   72MOL0     H 9674   2.657   9.151   3.846  0.4320 -1.8940  1.2840
   72MOL0     H 9675   2.522   9.046   3.873 -2.1577  2.0230  0.1983
   72MOL0     H 9676   2.432   9.121   3.647  1.8438 -2.9346  0.3344
   72MOL0     H 9677   2.558   9.240   3.626 -1.4056  2.5447  1.7112
   72MOL0     H 9678   2.387   9.368   3.728 -2.0931 -1.5146  0.9461
   72MOL0     H 9679   2.512   9.343   3.846  0.4592  1.4663 -0.5674
   72MOL0     H 9680   2.153   9.189   4.055  1.7715  0.4697 -0.4262
   72MOL0     H 9681   1.952   9.126   4.133 -0.1167  3.6858  1.2193
   72MOL0     H 9682   1.821   9.212   4.061 -3.1307 -2.7801  0.5673
   72MOL0     H 9683   1.844   9.055   4.003  0.8572 -1.5941  1.9017
   72MOL0     H 9684   1.528   8.975   3.965  0.0106  0.7032  0.5922
   72MOL0     H 9685   1.277   8.956   3.941  2.4405 -1.7655 -0.4433
   72MOL0     H 9686   1.071   9.227   3.663  0.1197 -0.0925  2.5677
   72MOL0     H 9687   1.058   9.080   3.560  4.4586  1.3090 -0.3751
   72MOL0     H 9688   0.830   9.118   3.644 -0.4146 -1.7949 -0.7434
   72MOL0     H 9689   0.904   8.971   3.702 -4.1228 -0.0794 -1.5566
   72MOL0     H 9690   0.890   9.223   3.870  1.8133  0.1284 -1.0646
   72MOL0     H 9691   0.940   9.063   3.920  0.7103  1.9689 -0.1876
   72MOL0     H 9692   0.719   9.181   3.957  3.5433  1.8155 -2.3291
   72MOL0     H 9693   0.673   9.087   3.810  0.6620  2.4562 -1.3436
   72MOL0     H 9694   0.635   8.969   4.060 -0.3862  1.7942 -0.3105
   72MOL0     H 9695   0.810   8.968   4.051  0.1163 -2.4272 -0.8594
   72MOL0     H 9696   0.630   8.805   3.867  0.6525 -1.5805 -0.3867
   72MOL0     H 9697   0.796   8.838   3.829 -1.0150  1.9710 -1.5888
   72MOL0     H 9698   0.654   8.713   4.066 -0.2276  1.8498 -1.5957
   72MOL0     H 9699   0.833   8.744   4.064  1.0078  3.1228 -1.1580
   72MOL0     H 9700   0.825   8.522   3.986 -0.3715  0.2071  0.7016
   72MOL0     H 9701   0.790   8.610   3.829  1.0112 -2.6599 -0.7151
   72MOL0     H 9702   1.308   9.258   3.629  1.3553 -0.4583 -0.5730
   72MOL0     H 9703   1.514   9.296   3.677 -1.7811 -0.0155 -2.3838
   72MOL0     H 9704   1.986   9.300   3.605  1.7664 -0.0282 -1.2191
   72MOL0     H 9705   2.221   9.274   3.639  0.7523  0.4196  1.1504
   72MOL0     H 9706   3.887   9.251   4.096 -0.7509  1.6812 -3.0007
   72MOL0     H 9707   4.105   9.366   4.183 -2.1938 -2.3538  3.7575
   72MOL0     H 9708   4.602   9.229   4.157  0.3649 -1.2590 -2.8578
   72MOL0     H 9709   4.822   9.292   4.182  1.3669 -0.4277 -0.1860
   72MOL0     H 9710   4.964   9.406   4.313 -0.9099 -0.2065 -2.0888
   72MOL0     H 9711   5.056   9.378   4.165  1.6979  0.4715 -0.3886
   72MOL0     H 9712   5.212   9.450   4.326 -0.6601 -0.7046  0.9253
   72MOL0     H 9713   5.111   9.588   4.375 -2.7912 -1.2967 -0.2196
   72MOL0     H 9714   5.150   9.723   4.198 -0.1373 -0.0299  0.2479
   72MOL0     H 9715   5.200   9.581   4.084  0.6128 -0.3506 -0.0820
   72MOL0     H 9716   5.353   9.702   4.308 -0.8192  1.1386  0.3191
   72MOL0     H 9717   5.397   9.735   4.144  0.3253  0.0985 -1.3474
   72MOL0     H 9718   5.561   9.350   4.153 -1.1447 -0.5729 -2.2609
   72MOL0     H 9719   4.724   9.703   4.101 -2.1871  0.7035  0.6986
   72MOL0     H 9720   4.486   9.647   4.075  1.5915  0.3379 -2.5097
   73MOL0     O 9721   9.942   7.092   1.829  0.3397 -0.1142 -0.0668
   73MOL0     C 9722   9.933   7.124   1.947 -0.7420  0.0826 -0.2583
   73MOL0     O 9723   9.816   7.142   2.014 -0.2762 -0.3216 -0.0181
   73MOL0     C 9724   9.696   7.168   1.954 -0.7676  0.1539  0.3326
   73MOL0     C 9725   9.583   7.144   2.030  0.2929 -0.4459 -0.0032
   73MOL0     C 9726   9.458   7.171   1.977 -0.0490 -0.4609 -0.1009
   73MOL0     C 9727   9.437   7.207   1.841  0.5261  0.9234 -0.3113
   73MOL0     O 9728   9.316   7.223   1.773  0.0579  0.1005 -0.4098
   73MOL0     C 9729   9.201   7.160   1.843 -0.2869 -0.3878  0.7548
   73MOL0     C 9730   9.086   7.177   1.744 -0.1076 -0.3198  0.0226
   73MOL0     C 9731   8.977   7.086   1.766 -0.4402 -0.2253  0.5786
   73MOL0     C 9732   8.858   7.084   1.662 -0.6640 -0.6917 -0.6471
   73MOL0     C 9733   8.745   6.990   1.709 -0.1753 -0.0245 -0.4880
   73MOL0     C 9734   8.641   6.955   1.595 -0.7428  0.6687  0.3785
   73MOL0     C 9735   8.524   6.872   1.667 -1.0421 -0.4277 -0.2414
   73MOL0     C 9736   8.444   6.962   1.745  0.5404  0.4833 -0.8730
   73MOL0     N 9737   8.339   7.048   1.684  0.1513 -0.2648  0.4035
   73MOL0     C 9738   8.364   7.179   1.645 -0.4789  0.2134  1.4540
   73MOL0     C 9739   8.254   7.203   1.572 -0.2726  0.1155 -0.4467
   73MOL0     C 9740   8.239   7.333   1.495 -0.3586 -0.2860 -0.0015
   73MOL0     C 9741   8.141   7.331   1.373 -1.1076 -0.3892 -0.9740
   73MOL0     C 9742   7.990   7.347   1.411 -0.2836 -0.1896  0.3592
   73MOL0     C 9743   7.951   7.484   1.458 -0.4683  0.0041 -0.1885
   73MOL0     O 9744   7.939   7.574   1.344  1.1515 -1.0114 -0.7798
   73MOL0     C 9745   7.940   7.703   1.377 -0.3111 -0.6465 -0.3575
   73MOL0     C 9746   7.821   7.751   1.431  0.1368  0.0332  0.0650
   73MOL0     C 9747   7.807   7.882   1.473 -0.0270 -0.2165 -0.0610
   73MOL0     C 9748   7.656   7.910   1.515 -0.2734  0.2453 -0.1159
   73MOL0     C 9749   7.908   7.974   1.472 -0.1031  0.1610  0.6857
   73MOL0     C 9750   7.909   8.117   1.507 -0.1101  0.6154 -0.2897
   73MOL0     O 9751   8.026   8.182   1.544 -1.3661  0.5161 -0.3472
   73MOL0     C 9752   8.036   8.306   1.608  0.1495  0.6438  0.6636
   73MOL0     C 9753   7.923   8.349   1.675  0.2740  0.1440  0.9161
   73MOL0     C 9754   7.930   8.470   1.740  0.5396 -0.0753 -0.7489
   73MOL0     C 9755   8.039   8.555   1.735  0.2466  0.5630 -0.8407
   73MOL0     O 9756   8.029   8.670   1.814  0.3498  0.0515  0.0159
   73MOL0     C 9757   8.145   8.748   1.846 -0.1175 -0.1017  0.1981
   73MOL0     C 9758   8.128   8.838   1.966  0.2412 -0.0850  0.8130
   73MOL0     C 9759   8.091   8.772   2.106  0.3427 -0.6320  0.6780
   73MOL0     C 9760   8.051   8.879   2.205  0.6483 -0.0565  0.3014
   73MOL0     C 9761   8.002   8.811   2.336 -0.0178  0.1201  0.0614
   73MOL0     C 9762   7.957   8.918   2.436 -0.6861 -0.4796  0.5357
   73MOL0     C 9763   7.903   8.849   2.553 -0.8134  0.2124  0.1165
   73MOL0     C 9764   7.821   8.947   2.631  0.8294 -1.1960  0.9134
   73MOL0    Cl 9765   7.689   9.028   2.537 -0.0274  0.1253  0.0540
   73MOL0     C 9766   8.159   8.499   1.674  0.1810  0.2417  0.0667
   73MOL0     C 9767   8.154   8.375   1.613 -0.0727 -0.3535  0.9325
   73MOL0     O 9768   7.814   8.175   1.464  0.3032 -0.0535 -0.3358
   73MOL0     C 9769   8.031   7.927   1.417  0.2401 -0.6388 -0.4280
   73MOL0     C 9770   8.048   7.789   1.384 -1.1281  0.0246  0.2787
   73MOL0     N 9771   8.170   7.093   1.568  0.3587  0.1043  0.4566
   73MOL0     N 9772   8.217   7.005   1.645 -0.3548 -0.3123  0.6067
   73MOL0     C 9773   9.548   7.228   1.765 -0.0383 -0.1747 -0.5478
   73MOL0     C 9774   9.676   7.223   1.823  0.4308  1.4537 -0.6108
   73MOL0     C 9775  10.052   7.118   2.032 -1.0847  1.0140 -0.5277
   73MOL0     C 9776  10.179   7.118   1.980  0.0347  0.1185  0.1164
   73MOL0     C 9777  10.293   7.132   2.065  0.4380  0.5586  0.4093
   73MOL0     C 9778  10.283   7.123   2.201 -0.0556  0.1182  0.7204
   73MOL0     O 9779  10.404   7.150   2.257 -1.3119 -0.1997 -0.1652
   73MOL0     C 9780  10.413   7.122   2.400  0.7436 -0.1657  0.4263
   73MOL0     C 9781  10.511   7.009   2.438  0.1807  0.0401 -0.0631
   73MOL0     C 9782  10.446   6.874   2.399 -0.2961 -0.4830  1.2249
   73MOL0     C 9783  10.363   6.808   2.512  0.1480 -0.4422  0.1708
   73MOL0     C 9784  10.268   6.721   2.444 -0.7214 -0.0029 -0.0934
   73MOL0     C 9785  10.196   6.648   2.386  0.0637  0.3761 -1.0020
   73MOL0     C 9786  10.157   7.097   2.254 -0.0498 -0.2566 -0.2427
   73MOL0     C 9787  10.041   7.101   2.169 -0.0315  0.0780 -0.6482
   73MOL0     H 9788   9.598   7.098   2.127  2.1665 -1.5820 -0.7518
   73MOL0     H 9789   9.371   7.172   2.043 -0.5451  1.9975 -0.6973
   73MOL0     H 9790   9.230   7.062   1.882 -0.1996 -0.2340  1.0798
   73MOL0     H 9791   9.179   7.223   1.929  3.2163  0.1745  1.3836
   73MOL0     H 9792   9.054   7.278   1.770 -0.3954  0.1834 -2.1237
   73MOL0     H 9793   9.122   7.174   1.640  2.6851  0.3052  0.8689
   73MOL0     H 9794   9.016   6.984   1.770 -1.2259 -0.5196  3.3286
   73MOL0     H 9795   8.942   7.111   1.867 -1.3490  0.8656  0.0102
   73MOL0     H 9796   8.819   7.185   1.648  2.0192  0.2759 -1.7411
   73MOL0     H 9797   8.881   7.047   1.562  0.2537  1.2566 -1.2114
   73MOL0     H 9798   8.788   6.905   1.763  1.4311  1.1684  0.1792
   73MOL0     H 9799   8.693   7.051   1.783  0.0456  1.4045 -1.4526
   73MOL0     H 9800   8.613   7.039   1.532  1.7158 -0.1796 -2.0239
   73MOL0     H 9801   8.689   6.883   1.529 -0.0180  1.9186 -0.4936
   73MOL0     H 9802   8.465   6.824   1.588  0.9405 -0.2912 -1.8886
   73MOL0     H 9803   8.563   6.798   1.738 -1.1884 -0.0621  0.2200
   73MOL0     H 9804   8.495   7.024   1.819 -1.4349 -0.9816  1.9072
   73MOL0     H 9805   8.387   6.889   1.804 -1.9383  1.1577 -2.2936
   73MOL0     H 9806   8.451   7.239   1.671  0.9144 -0.4374 -1.3301
   73MOL0     H 9807   8.210   7.411   1.566  1.5642  1.5677 -1.0952
   73MOL0     H 9808   8.336   7.350   1.447  0.4767 -0.6410  1.5001
   73MOL0     H 9809   8.161   7.231   1.334  0.1380 -0.3345 -0.4989
   73MOL0     H 9810   8.159   7.411   1.301  1.7367  0.3386  0.4252
   73MOL0     H 9811   7.969   7.270   1.487  1.0303 -0.8007  0.1262
   73MOL0     H 9812   7.931   7.323   1.322  0.3951 -4.2528  0.8150
   73MOL0     H 9813   8.016   7.513   1.542  1.0574  0.4712 -1.4854
   73MOL0     H 9814   7.852   7.476   1.505  0.4558 -0.7682  1.7440
   73MOL0     H 9815   7.742   7.683   1.403  1.5380 -1.2647 -0.9271
   73MOL0     H 9816   7.657   7.962   1.611  3.3653 -0.2874  0.2759
   73MOL0     H 9817   7.615   7.967   1.431  3.9778 -1.3022 -3.6662
   73MOL0     H 9818   7.595   7.820   1.519 -1.7854  1.0441 -2.8668
   73MOL0     H 9819   7.833   8.289   1.677 -0.7170  1.5840  0.9445
   73MOL0     H 9820   7.847   8.512   1.796  1.7646  1.5275 -0.0613
   73MOL0     H 9821   8.227   8.678   1.861 -0.9899 -0.8886  1.4437
   73MOL0     H 9822   8.166   8.819   1.765  1.2178  1.4469  1.8243
   73MOL0     H 9823   8.228   8.880   1.977  1.3123 -2.4243  0.7875
   73MOL0     H 9824   8.051   8.908   1.934  1.3363  0.0619 -1.7857
   73MOL0     H 9825   8.169   8.706   2.145  0.8775  0.7569  1.9968
   73MOL0     H 9826   7.995   8.721   2.092  0.5169 -0.8502  0.2368
   73MOL0     H 9827   8.136   8.938   2.238  0.5728 -0.3040  0.9403
   73MOL0     H 9828   7.972   8.942   2.162  1.1091  0.5819  0.3724
   73MOL0     H 9829   8.077   8.746   2.382 -0.6094  0.8727  2.2281
   73MOL0     H 9830   7.924   8.739   2.310 -1.8257  2.1927 -0.6511
   73MOL0     H 9831   8.035   8.989   2.466 -1.2644 -0.0617  1.0792
   73MOL0     H 9832   7.892   8.978   2.372  2.7181 -0.0530 -2.8665
   73MOL0     H 9833   7.982   8.807   2.616 -0.6358 -0.0507 -0.2822
   73MOL0     H 9834   7.854   8.759   2.515  0.4002 -1.2570  1.8202
   73MOL0     H 9835   7.869   9.032   2.681  1.0804 -2.0556  2.1863
   73MOL0     H 9836   7.775   8.895   2.715  1.2433 -2.0867  0.6053
   73MOL0     H 9837   8.242   8.566   1.660 -0.5110  1.2728  0.8071
   73MOL0     H 9838   8.246   8.328   1.581  1.5904  2.0782  1.9013
   73MOL0     H 9839   8.124   7.983   1.407  0.0921 -0.6484 -2.3674
   73MOL0     H 9840   8.145   7.751   1.351 -1.0339  0.9794 -0.5849
   73MOL0     H 9841   9.526   7.254   1.662  0.1889  1.5031 -0.1978
   73MOL0     H 9842   9.760   7.249   1.760 -0.7016  2.1960 -1.8620
   73MOL0     H 9843  10.187   7.125   1.872  1.7437 -0.1188  0.1951
   73MOL0     H 9844  10.389   7.166   2.028  0.7717 -1.5224 -0.7682
   73MOL0     H 9845  10.457   7.207   2.452  0.9522 -0.1743  0.2645
   73MOL0     H 9846  10.311   7.112   2.439 -0.7967 -0.0296 -3.1046
   73MOL0     H 9847  10.535   7.024   2.544 -1.9440  2.4549  0.1850
   73MOL0     H 9848  10.595   7.025   2.370 -1.6531  0.3479 -2.3938
   73MOL0     H 9849  10.528   6.804   2.380  1.9653  2.3031 -0.1035
   73MOL0     H 9850  10.391   6.895   2.307 -2.1453  2.0888  2.7733
   73MOL0     H 9851  10.305   6.879   2.571  0.6990  0.7941 -0.7340
   73MOL0     H 9852  10.432   6.753   2.576  0.8175 -1.9221 -1.7172
   73MOL0     H 9853  10.130   6.583   2.332  0.8477 -1.6286  0.3143
   73MOL0     H 9854  10.136   7.083   2.360 -2.9842  0.8952 -0.5852
   73MOL0     H 9855   9.946   7.094   2.221  0.8345 -2.6480  0.7542
   74MOL0     O 9856   7.499  10.100  10.109  0.3401  1.2169  0.1876
   74MOL0     C 9857   7.431   9.997  10.085  0.3863  0.7595 -0.3485
   74MOL0     O 9858   7.309   9.991  10.016 -0.1143 -0.2426  0.1331
   74MOL0     C 9859   7.248  10.107   9.975  0.2667 -0.3551 -0.6006
   74MOL0     C 9860   7.167  10.108   9.857  0.0776  0.3727  0.6946
   74MOL0     C 9861   7.085  10.213   9.828  0.4923  1.1215 -0.2660
   74MOL0     C 9862   7.076  10.324   9.912  0.0061 -0.6509 -0.4262
   74MOL0     O 9863   6.972  10.417   9.888  0.3846 -0.0218 -0.3187
   74MOL0     C 9864   6.927  10.514   9.987 -0.4143  0.2796 -0.6699
   74MOL0     C 9865   6.999  10.651   9.961  0.0493  0.5747 -0.0846
   74MOL0     C 9866   7.004  10.735  10.091  0.4321  0.1475  0.6987
   74MOL0     C 9867   6.863  10.802  10.114 -0.3116 -0.9741  0.1015
   74MOL0     C 9868   6.836  10.839  10.262 -0.2229 -0.1168 -0.0983
   74MOL0     C 9869   6.700  10.898  10.298 -0.4338  0.0270  0.7032
   74MOL0     C 9870   6.656  10.894  10.445 -0.5941 -0.2777  0.6938
   74MOL0     C 9871   6.506  10.928  10.466  0.1898 -0.5234  0.2764
   74MOL0     N 9872   6.479  11.060  10.405  1.0193  0.4915 -0.0592
   74MOL0     C 9873   6.548  11.178  10.408  0.4635 -0.1439  0.0223
   74MOL0     C 9874   6.499  11.250  10.307  0.1554 -0.3370  0.9281
   74MOL0     C 9875   6.532  11.393  10.272  0.2494 -0.1001 -0.0017
   74MOL0     C 9876   6.406  11.492  10.266  0.2300 -0.0992 -0.4549
   74MOL0     C 9877   6.336  11.527  10.404  0.5883 -0.6165 -0.0988
   74MOL0     C 9878   6.241  11.647  10.399 -0.6530  1.3964  0.3544
   74MOL0     O 9879   6.222  11.687  10.534  0.1038  0.8724 -0.7337
   74MOL0     C 9880   6.134  11.786  10.558  1.0362  0.3021 -0.0712
   74MOL0     C 9881   6.141  11.852  10.679  0.2168  1.2364 -1.1838
   74MOL0     C 9882   6.035  11.935  10.720 -0.7142  0.3927 -0.6241
   74MOL0     C 9883   6.054  12.003  10.853  0.3365  0.4243  0.2583
   74MOL0     C 9884   5.930  11.959  10.631 -0.1749 -0.3698  0.4791
   74MOL0     C 9885   5.806  12.033  10.680 -0.2394 -0.7443 -0.1478
   74MOL0     O 9886   5.693  11.982  10.623 -1.3931 -0.2355 -0.3980
   74MOL0     C 9887   5.574  12.033  10.666  0.9278 -0.7334  0.0355
   74MOL0     C 9888   5.471  12.050  10.566  0.3058 -0.2361 -0.3083
   74MOL0     C 9889   5.338  12.089  10.602  0.3691  0.6191  0.4369
   74MOL0     C 9890   5.312  12.122  10.732  0.2702 -0.2845 -0.2391
   74MOL0     O 9891   5.187  12.174  10.770 -0.1228  0.3834 -0.8734
   74MOL0     C 9892   5.074  12.149  10.685  0.4987 -0.4831 -0.0061
   74MOL0     C 9893   4.949  12.228  10.742 -0.2628 -0.4204 -0.1579
   74MOL0     C 9894   4.942  12.220  10.903 -0.8184  0.4103 -0.5693
   74MOL0     C 9895   4.800  12.221  10.953 -0.8557 -0.0594  0.0134
   74MOL0     C 9896   4.806  12.263  11.100  0.2957 -0.0049  0.1583
   74MOL0     C 9897   4.675  12.272  11.172  0.6070 -0.1806 -1.0107
   74MOL0     C 9898   4.607  12.136  11.185 -0.1154 -0.4275 -0.2758
   74MOL0     C 9899   4.547  12.111  11.327 -0.1980  0.7248  0.4408
   74MOL0    Cl 9900   4.678  12.101  11.454 -0.2105  0.2326 -0.4709
   74MOL0     C 9901   5.409  12.094  10.833 -0.0705 -0.3677  0.1842
   74MOL0     C 9902   5.538  12.049  10.799 -0.5592 -0.3150  0.2311
   74MOL0     O 9903   5.814  12.138  10.742 -0.2794  0.0492 -0.0902
   74MOL0     C 9904   5.925  11.897  10.503  0.1282 -0.4407 -0.2901
   74MOL0     C 9905   6.033  11.819  10.462 -0.1467 -0.3590 -0.3803
   74MOL0     N 9906   6.406  11.171  10.236 -0.4202 -0.3456  0.4188
   74MOL0     N 9907   6.401  11.049  10.293 -0.1300 -0.5561 -0.1375
   74MOL0     C 9908   7.161  10.334  10.025  0.5612  0.8550  0.4163
   74MOL0     C 9909   7.236  10.226  10.062 -0.2640  0.6628 -0.7144
   74MOL0     C 9910   7.485   9.872  10.144  0.7593 -0.7719 -0.0886
   74MOL0     C 9911   7.421   9.748  10.100 -0.4040 -0.9271  0.0763
   74MOL0     C 9912   7.466   9.617  10.145  0.9167 -0.0139 -0.3889
   74MOL0     C 9913   7.579   9.613  10.238 -0.6816 -0.6653 -0.0295
   74MOL0     O 9914   7.631   9.507  10.306  0.1907  0.2722 -0.6187
   74MOL0     C 9915   7.587   9.373  10.265  0.2847  0.1996 -1.0068
   74MOL0     C 9916   7.708   9.313  10.201  0.0582 -0.3590  0.5221
   74MOL0     C 9917   7.743   9.388  10.063  0.9394  1.3009 -0.3692
   74MOL0     C 9918   7.869   9.339  10.000  0.3023  0.3188 -0.1262
   74MOL0     C 9919   7.899   9.199   9.982  0.5506 -0.1997 -0.2697
   74MOL0     C 9920   7.927   9.082   9.986 -0.8680 -0.5012  0.6476
   74MOL0     C 9921   7.638   9.735  10.274 -0.1930 -0.4712 -0.2038
   74MOL0     C 9922   7.604   9.862  10.217  0.0492 -0.2913 -0.3776
   74MOL0     H 9923   7.158  10.018   9.797  0.7535  2.7227 -3.2243
   74MOL0     H 9924   7.026  10.221   9.738 -0.2253  1.9484  0.2709
   74MOL0     H 9925   6.819  10.527   9.981 -0.1510  1.8786 -2.9396
   74MOL0     H 9926   6.960  10.470  10.082  3.2711 -0.3260 -2.0568
   74MOL0     H 9927   7.103  10.633   9.933  0.3549  0.4002  1.0848
   74MOL0     H 9928   6.948  10.715   9.888 -2.6852  0.7589  1.8039
   74MOL0     H 9929   7.044  10.688  10.181 -0.2536  1.0916  1.5219
   74MOL0     H 9930   7.073  10.819  10.083 -0.9422  1.4616  1.9817
   74MOL0     H 9931   6.856  10.891  10.050  2.9193  0.0745  1.0087
   74MOL0     H 9932   6.782  10.736  10.080 -2.5412  1.8791 -0.5336
   74MOL0     H 9933   6.833  10.743  10.315 -3.0979  1.2910  2.6100
   74MOL0     H 9934   6.921  10.897  10.298  0.2635  1.3306 -3.2292
   74MOL0     H 9935   6.702  10.998  10.255  1.9024 -0.8650 -1.5032
   74MOL0     H 9936   6.621  10.844  10.246 -0.5026  0.7740  0.0100
   74MOL0     H 9937   6.675  10.788  10.465  2.9032 -0.7966 -3.6471
   74MOL0     H 9938   6.719  10.958  10.506  1.4763 -0.8835 -0.7028
   74MOL0     H 9939   6.478  10.931  10.572  0.5600  0.2932  0.3510
   74MOL0     H 9940   6.439  10.854  10.419  3.2959 -2.6819 -1.0826
   74MOL0     H 9941   6.629  11.205  10.475 -1.8622  1.4256  2.3526
   74MOL0     H 9942   6.605  11.426  10.347 -0.0804 -0.9814  0.7386
   74MOL0     H 9943   6.581  11.407  10.175 -0.9669  1.6081 -0.4127
   74MOL0     H 9944   6.340  11.461  10.186  0.4408  2.5245 -1.7660
   74MOL0     H 9945   6.450  11.586  10.230  0.5916 -1.0120 -2.5325
   74MOL0     H 9946   6.413  11.558  10.475 -0.6363 -0.0306  1.0067
   74MOL0     H 9947   6.283  11.440  10.443  2.5449 -2.4287 -1.2838
   74MOL0     H 9948   6.153  11.609  10.346 -0.9418 -2.0995  2.9925
   74MOL0     H 9949   6.299  11.727  10.351  2.3389  0.3157  1.9173
   74MOL0     H 9950   6.217  11.820  10.748  2.1653  0.9019 -3.3642
   74MOL0     H 9951   5.963  12.010  10.913 -0.8541  0.7795 -1.5056
   74MOL0     H 9952   6.127  11.947  10.912 -0.9674  0.2485  1.7693
   74MOL0     H 9953   6.087  12.106  10.840  0.1466  1.0306  3.6245
   74MOL0     H 9954   5.493  12.030  10.461 -2.0363 -1.2368 -0.6723
   74MOL0     H 9955   5.283  12.084  10.509  1.6273  0.3363 -0.3063
   74MOL0     H 9956   5.092  12.182  10.582 -0.8442 -2.1078 -0.7900
   74MOL0     H 9957   5.047  12.043  10.683  2.2261 -0.9564 -1.2563
   74MOL0     H 9958   4.953  12.333  10.711 -2.7954 -0.2060  0.0543
   74MOL0     H 9959   4.860  12.179  10.703 -0.1381 -0.3111 -0.5845
   74MOL0     H 9960   4.991  12.310  10.940 -2.4050  1.2023 -0.3067
   74MOL0     H 9961   5.001  12.136  10.941 -0.2015  0.4430 -1.4269
   74MOL0     H 9962   4.747  12.305  10.908 -2.0403 -2.1710 -2.8270
   74MOL0     H 9963   4.744  12.133  10.920 -1.1565  0.8549 -2.0712
   74MOL0     H 9964   4.865  12.354  11.111  0.1504  0.2831 -1.2916
   74MOL0     H 9965   4.866  12.185  11.149  0.6061 -1.8316 -2.8742
   74MOL0     H 9966   4.691  12.307  11.275 -1.1690  0.5494 -0.9493
   74MOL0     H 9967   4.611  12.344  11.121  0.8480  1.1336  0.4853
   74MOL0     H 9968   4.676  12.054  11.166 -1.1728 -1.5749  0.6462
   74MOL0     H 9969   4.530  12.127  11.108  1.1221  0.0368 -1.6196
   74MOL0     H 9970   4.474  12.029  11.331 -0.4185  0.8684  5.3932
   74MOL0     H 9971   4.496  12.204  11.351  0.1555  0.7424  1.1411
   74MOL0     H 9972   5.375  12.105  10.936 -0.3137  1.1625 -0.0366
   74MOL0     H 9973   5.606  12.024  10.880 -0.6855  0.3620  0.5575
   74MOL0     H 9974   5.839  11.895  10.437  1.5610 -0.9980 -2.2353
   74MOL0     H 9975   6.029  11.785  10.359  4.2376  0.2179 -0.9663
   74MOL0     H 9976   7.161  10.413  10.100  3.7288  0.1348  1.3360
   74MOL0     H 9977   7.279  10.240  10.160 -1.0021 -3.0240  0.2941
   74MOL0     H 9978   7.343   9.744  10.025 -3.0786 -2.6346  2.7055
   74MOL0     H 9979   7.409   9.528  10.122 -2.7604  1.4749  1.9542
   74MOL0     H 9980   7.552   9.314  10.351  1.0387 -1.2909 -1.6896
   74MOL0     H 9981   7.496   9.369  10.204 -0.6405 -1.1054  0.3642
   74MOL0     H 9982   7.694   9.206  10.187 -1.8375 -0.2663  1.3374
   74MOL0     H 9983   7.796   9.323  10.264  0.9000 -0.1010 -0.6473
   74MOL0     H 9984   7.758   9.495  10.080 -1.0806  1.3813  1.3176
   74MOL0     H 9985   7.663   9.373   9.991 -0.0830  1.9179  0.6126
   74MOL0     H 9986   7.953   9.375  10.060  1.3467  1.3130 -2.0878
   74MOL0     H 9987   7.878   9.386   9.901  0.5622  0.6300  0.0405
   74MOL0     H 9988   7.959   8.982  10.006  0.8864 -0.2094 -0.4458
   74MOL0     H 9989   7.710   9.711  10.352 -0.5469 -1.8234 -0.2684
   74MOL0     H 9990   7.648   9.957  10.245 -5.2439  2.1732  0.7255
   75MOL0     O 9991  10.384   3.531   2.455  0.2845  0.0617 -0.5843
   75MOL0     C 9992  10.423   3.576   2.350  0.7113  0.1540  0.5380
   75MOL0     O 9993  10.335   3.603   2.243 -0.6336 -0.3552 -0.5374
   75MOL0     C 9994  10.200   3.571   2.254  0.9314 -0.2286 -0.5630
   75MOL0     C 9995  10.163   3.436   2.293  0.6328  0.1982 -0.4057
   75MOL0     C 9996  10.023   3.409   2.288 -0.2658 -0.8686  0.3300
   75MOL0     C 9997   9.927   3.496   2.233  0.4184  0.1599  0.2405
   75MOL0     O 9998   9.792   3.462   2.220 -0.4727 -0.4681 -0.3626
   75MOL0     C 9999   9.762   3.328   2.163 -0.0469 -0.1643 -0.1366
   75MOL0     C10000   9.685   3.367   2.044 -0.5370 -0.4447 -0.1516
   75MOL0     C10001   9.548   3.409   2.072  0.0402  0.9523  0.2338
   75MOL0     C10002   9.474   3.462   1.946 -0.6522  0.1671  0.4762
   75MOL0     C10003   9.327   3.474   1.986 -0.8558 -0.0393 -0.1687
   75MOL0     C10004   9.259   3.564   1.877  0.2924 -0.4400 -0.0317
   75MOL0     C10005   9.123   3.611   1.913  0.4108 -0.3708  0.6707
   75MOL0     C10006   9.031   3.601   1.794 -0.3298 -0.3392  0.4033
   75MOL0     N10007   8.887   3.628   1.807  0.1742 -0.6423  0.3945
   75MOL0     C10008   8.830   3.746   1.855  0.2889  0.7206 -0.4321
   75MOL0     C10009   8.695   3.719   1.854  0.6441 -0.7740 -0.6816
   75MOL0     C10010   8.576   3.811   1.907  0.6267 -0.2709 -0.2417
   75MOL0     C10011   8.456   3.826   1.817  0.5933  0.0758 -0.0697
   75MOL0     C10012   8.374   3.944   1.838  0.5044 -0.2845  0.2439
   75MOL0     C10013   8.296   3.950   1.968 -0.7881 -0.4485 -0.2844
   75MOL0     O10014   8.221   3.832   1.981  0.0525  0.4859 -0.7299
   75MOL0     C10015   8.165   3.791   2.105 -0.0634 -0.1469 -0.0208
   75MOL0     C10016   8.187   3.853   2.225  0.4405 -0.2965 -0.3633
   75MOL0     C10017   8.161   3.790   2.347  0.6598  0.1472  0.3396
   75MOL0     C10018   8.172   3.881   2.461 -0.5738 -0.5787  0.2268
   75MOL0     C10019   8.101   3.658   2.349 -0.0765  0.9171  0.1636
   75MOL0     C10020   8.044   3.596   2.472  0.6074  0.1678  0.3728
   75MOL0     O10021   7.927   3.531   2.439  0.3662 -0.1388 -0.0316
   75MOL0     C10022   7.847   3.467   2.535 -0.7357  0.2185  0.0165
   75MOL0     C10023   7.707   3.465   2.524  0.7378  0.4707 -0.4681
   75MOL0     C10024   7.625   3.401   2.620 -0.5698 -0.8444 -0.0803
   75MOL0     C10025   7.688   3.337   2.730  0.7285 -0.2236 -1.1344
   75MOL0     O10026   7.625   3.277   2.836  0.1206 -0.2411 -0.5282
   75MOL0     C10027   7.484   3.268   2.827  0.6528 -0.6318 -0.6289
   75MOL0     C10028   7.439   3.191   2.949  0.1336  0.3762  0.0670
   75MOL0     C10029   7.290   3.155   2.964  0.3970  0.6650  0.1806
   75MOL0     C10030   7.235   3.077   2.843  0.0633 -0.6682  0.0618
   75MOL0     C10031   7.119   2.988   2.877  0.8256  0.3308  0.2021
   75MOL0     C10032   6.985   3.067   2.907  0.2973 -0.3604  0.2621
   75MOL0     C10033   6.872   2.961   2.943  0.8514 -0.8664  0.0801
   75MOL0     C10034   6.743   3.039   2.976  0.3780  0.1288  0.4446
   75MOL0    Cl10035   6.640   3.088   2.833  0.1233 -0.1568  0.4419
   75MOL0     C10036   7.820   3.327   2.740 -0.1570 -0.6862  0.5913
   75MOL0     C10037   7.900   3.389   2.637 -0.5847 -0.7607 -0.4586
   75MOL0     O10038   8.099   3.613   2.580 -0.0439 -0.2607 -0.1797
   75MOL0     C10039   8.073   3.596   2.228  0.6398  0.3617  0.3746
   75MOL0     C10040   8.106   3.663   2.111  0.4475 -0.2374  0.3767
   75MOL0     N10041   8.675   3.590   1.795 -0.2092 -0.0073 -0.8816
   75MOL0     N10042   8.788   3.536   1.773  0.8473 -0.1808  0.5287
   75MOL0     C10043   9.967   3.623   2.199  0.2165 -0.8493  0.4092
   75MOL0     C10044  10.099   3.660   2.216  0.7086  0.2976  0.5448
   75MOL0     C10045  10.557   3.619   2.331 -0.0506  0.2284  0.7314
   75MOL0     C10046  10.606   3.692   2.216 -0.1835  0.5338 -0.1016
   75MOL0     C10047  10.737   3.731   2.204 -0.1276  0.2060 -0.0567
   75MOL0     C10048  10.830   3.701   2.302 -1.1080  0.2503 -0.0728
   75MOL0     O10049  10.953   3.745   2.286 -0.9416 -0.4672 -0.3906
   75MOL0     C10050  11.034   3.769   2.404  0.6736 -0.2403  0.3068
   75MOL0     C10051  11.135   3.877   2.371  0.4125  0.4314 -0.0857
   75MOL0     C10052  11.226   3.833   2.252  0.1462  1.2046  0.3783
   75MOL0     C10053  11.200   3.904   2.116  0.4280 -0.6084 -0.0948
   75MOL0     C10054  11.315   3.899   2.028 -0.3165 -0.0867  0.3745
   75MOL0     C10055  11.407   3.888   1.949  0.2852  0.7360 -0.4466
   75MOL0     C10056  10.779   3.644   2.424 -0.7558  0.3530  0.7313
   75MOL0     C10057  10.650   3.603   2.437  0.0715  1.4279  1.1536
   75MOL0     H10058  10.229   3.354   2.320  2.6094  0.3884 -4.1054
   75MOL0     H10059   9.989   3.308   2.306 -2.2264 -1.0158 -3.4158
   75MOL0     H10060   9.855   3.281   2.131  0.0561 -0.1401  0.1240
   75MOL0     H10061   9.701   3.273   2.235  0.9616 -0.1211  0.7672
   75MOL0     H10062   9.737   3.450   1.994 -0.5706 -0.6543 -0.5376
   75MOL0     H10063   9.680   3.280   1.978  0.3459 -1.2018  0.7417
   75MOL0     H10064   9.495   3.323   2.113 -0.0258 -0.1983 -2.1364
   75MOL0     H10065   9.537   3.473   2.161 -0.7281 -0.3912  1.1348
   75MOL0     H10066   9.505   3.564   1.922 -1.9512  0.2306 -1.0910
   75MOL0     H10067   9.483   3.395   1.860  0.3310 -1.4063  1.7371
   75MOL0     H10068   9.293   3.370   1.985  2.0000 -1.0589  0.7059
   75MOL0     H10069   9.314   3.511   2.088 -1.5806 -2.1114  0.5336
   75MOL0     H10070   9.314   3.657   1.869 -0.4675  0.1847  1.4908
   75MOL0     H10071   9.264   3.520   1.777 -1.7827  0.5895 -0.6454
   75MOL0     H10072   9.077   3.556   1.996 -1.5575 -0.5365 -0.4471
   75MOL0     H10073   9.115   3.716   1.940 -2.8401 -0.2819 -0.1299
   75MOL0     H10074   9.043   3.496   1.768  1.7646 -0.5318  1.9004
   75MOL0     H10075   9.059   3.655   1.703 -3.4865 -1.4781 -1.3966
   75MOL0     H10076   8.884   3.835   1.886  2.7989 -0.5341 -1.0077
   75MOL0     H10077   8.533   3.781   2.004 -1.4470 -0.4310 -1.1487
   75MOL0     H10078   8.621   3.910   1.918  6.2025 -2.6618  2.2328
   75MOL0     H10079   8.399   3.733   1.830  2.3638 -0.9532  0.7723
   75MOL0     H10080   8.492   3.831   1.714 -0.7975 -0.6554 -0.6224
   75MOL0     H10081   8.298   3.946   1.759  0.0038 -3.2329  0.5496
   75MOL0     H10082   8.435   4.035   1.834  1.2624 -0.8200 -0.5303
   75MOL0     H10083   8.232   4.039   1.965 -0.7723 -0.4534 -1.8169
   75MOL0     H10084   8.371   3.969   2.045 -0.7810  1.3492 -0.6922
   75MOL0     H10085   8.230   3.952   2.215 -2.1230  0.7601 -2.1415
   75MOL0     H10086   8.237   3.967   2.440  0.2295 -0.5691  2.4374
   75MOL0     H10087   8.086   3.935   2.502  0.5829  2.0038 -0.5270
   75MOL0     H10088   8.226   3.827   2.540  0.3632 -0.2326 -0.1664
   75MOL0     H10089   7.649   3.531   2.461 -2.4738  1.2038  2.8749
   75MOL0     H10090   7.519   3.422   2.615 -0.0924  1.8602 -0.9177
   75MOL0     H10091   7.426   3.360   2.820 -0.4690 -1.1718  0.9917
   75MOL0     H10092   7.462   3.206   2.739  1.1978  0.6841 -1.7310
   75MOL0     H10093   7.492   3.096   2.957  0.6811  0.6185 -0.6240
   75MOL0     H10094   7.472   3.253   3.033 -1.1228  0.7399  0.3107
   75MOL0     H10095   7.229   3.244   2.986 -2.3187 -0.8731 -0.6858
   75MOL0     H10096   7.273   3.098   3.055  0.4412 -1.2172 -0.9398
   75MOL0     H10097   7.218   3.136   2.753  0.8833  2.2805  1.6876
   75MOL0     H10098   7.320   3.013   2.820  0.5536  0.2638 -0.7693
   75MOL0     H10099   7.134   2.933   2.971 -3.9833 -2.8973 -0.5149
   75MOL0     H10100   7.105   2.912   2.800 -1.2596  0.7497  0.1040
   75MOL0     H10101   7.001   3.140   2.987 -0.0602 -1.9923  1.8951
   75MOL0     H10102   6.972   3.119   2.811  1.4178 -1.6976 -0.6585
   75MOL0     H10103   6.904   2.902   3.029 -0.7181  2.0718  2.9209
   75MOL0     H10104   6.852   2.889   2.862  0.2803 -1.6801  0.9202
   75MOL0     H10105   6.770   3.118   3.046 -0.4884  0.9339 -0.1041
   75MOL0     H10106   6.679   2.977   3.038  0.4042 -1.7145 -1.2704
   75MOL0     H10107   7.853   3.264   2.821  1.0418 -0.6467  0.1457
   75MOL0     H10108   8.007   3.379   2.646 -0.7757 -1.3478  1.7408
   75MOL0     H10109   8.010   3.509   2.211 -1.2274  2.2569 -3.9261
   75MOL0     H10110   8.100   3.613   2.015  3.0965 -1.1308  0.5720
   75MOL0     H10111   9.892   3.692   2.161 -0.3893 -0.7147  1.7750
   75MOL0     H10112  10.126   3.762   2.191 -1.4679  0.3541 -2.0626
   75MOL0     H10113  10.542   3.725   2.136 -0.3674 -1.2287 -0.7217
   75MOL0     H10114  10.755   3.783   2.111 -0.5868  0.5121  0.0257
   75MOL0     H10115  10.961   3.790   2.483 -1.4525 -2.1604 -0.9887
   75MOL0     H10116  11.089   3.679   2.435  1.8847 -0.2552 -1.7051
   75MOL0     H10117  11.192   3.899   2.461 -2.0976  0.8488  1.5034
   75MOL0     H10118  11.089   3.973   2.344  0.9840  0.3117 -1.6209
   75MOL0     H10119  11.222   3.725   2.241 -1.3724  1.2829 -0.0949
   75MOL0     H10120  11.329   3.860   2.277  0.9144 -0.3507 -0.9357
   75MOL0     H10121  11.184   4.010   2.137 -0.2532 -0.3907 -1.5866
   75MOL0     H10122  11.110   3.859   2.074  0.4156 -3.5516  2.6903
   75MOL0     H10123  11.482   3.864   1.876 -1.1285 -0.3886 -1.6048
   75MOL0     H10124  10.851   3.631   2.504 -0.2987 -2.3246 -0.0282
   75MOL0     H10125  10.625   3.557   2.532  0.6886  2.5742  1.8892
   76MOL0     O10126   3.826  10.221   4.977 -0.3389 -0.5279 -0.1608
   76MOL0     C10127   3.895  10.122   5.015 -0.1731 -0.3195  0.2734
   76MOL0     O10128   3.843  10.001   5.053  0.5290  0.0207 -0.0906
   76MOL0     C10129   3.707   9.985   5.042  0.3455 -0.8125 -0.2310
   76MOL0     C10130   3.603  10.054   5.125  0.1489 -0.2330 -0.1564
   76MOL0     C10131   3.465  10.041   5.096  0.4086 -0.2383 -0.6822
   76MOL0     C10132   3.426   9.960   4.994  0.5253  0.7458 -0.0191
   76MOL0     O10133   3.298   9.915   4.981 -0.3894  0.2801 -0.6827
   76MOL0     C10134   3.192   9.986   5.031 -0.2440 -0.6634 -0.0660
   76MOL0     C10135   3.071   9.904   4.984 -0.2243 -0.6223  0.8362
   76MOL0     C10136   2.954   9.985   5.024  0.1861 -0.4837  0.0519
   76MOL0     C10137   2.834   9.911   4.986 -0.3031  0.3473  0.0314
   76MOL0     C10138   2.709   9.986   4.996  0.8885 -0.4899  0.7209
   76MOL0     C10139   2.601   9.878   4.986 -0.5111  0.3062  0.1723
   76MOL0     C10140   2.462   9.939   5.006 -0.6849 -0.4179 -0.1892
   76MOL0     C10141   2.353   9.842   4.987  0.5341  0.0960 -0.2330
   76MOL0     N10142   2.230   9.903   5.036  0.5227 -0.8898  0.3945
   76MOL0     C10143   2.179   9.875   5.159  0.1660 -0.1600 -0.4783
   76MOL0     C10144   2.072   9.954   5.175  0.3918  1.1162 -1.1019
   76MOL0     C10145   1.987   9.954   5.302 -0.4894  0.5279  0.9453
   76MOL0     C10146   1.856   9.879   5.286  0.8360 -0.2679  0.1338
   76MOL0     C10147   1.745   9.983   5.241  0.1631 -0.2473  0.3617
   76MOL0     C10148   1.613   9.933   5.245 -0.0200 -0.8810  0.1241
   76MOL0     O10149   1.522  10.027   5.306  0.2114  0.1489 -0.2627
   76MOL0     C10150   1.388   9.995   5.330 -0.6628  0.0259 -0.0100
   76MOL0     C10151   1.305  10.109   5.355  0.4247 -0.2429  0.6653
   76MOL0     C10152   1.160  10.095   5.363  0.1132  0.4278 -0.1077
   76MOL0     C10153   1.083  10.216   5.380 -0.8010 -0.0652  0.1240
   76MOL0     C10154   1.106   9.964   5.347  0.5522  0.6828 -0.3884
   76MOL0     C10155   0.964   9.930   5.342 -0.8548  1.3976  0.0941
   76MOL0     O10156   0.926   9.806   5.283  0.6485 -0.6925  0.0265
   76MOL0     C10157   0.789   9.774   5.297 -0.9961 -0.9947 -0.7726
   76MOL0     C10158   0.742   9.769   5.427  0.0695  0.0054 -0.0256
   76MOL0     C10159   0.613   9.718   5.445 -0.0744  0.0774  0.4711
   76MOL0     C10160   0.540   9.666   5.337 -0.6550 -0.0479  0.5349
   76MOL0     O10161   0.423   9.603   5.357  0.0334 -0.2359  0.2217
   76MOL0     C10162   0.327   9.659   5.434 -0.1146 -0.3937 -0.2487
   76MOL0     C10163   0.191   9.652   5.357  0.9046  0.2331  0.6975
   76MOL0     C10164   0.085   9.717   5.444 -0.4794  0.5905  0.6384
   76MOL0     C10165  -0.054   9.652   5.415 -0.4276 -0.0821 -0.4674
   76MOL0     C10166  -0.148   9.677   5.537  0.5376 -0.3002  0.4416
   76MOL0     C10167  -0.294   9.678   5.499 -0.2154 -1.0404 -0.2302
   76MOL0     C10168  -0.336   9.548   5.440  0.1755  0.3963  0.0517
   76MOL0     C10169  -0.374   9.570   5.292 -0.1690  0.0454  0.7053
   76MOL0    Cl10170  -0.482   9.421   5.261 -0.2540  0.2269  0.4198
   76MOL0     C10171   0.587   9.685   5.208 -0.2259  0.4834 -0.0026
   76MOL0     C10172   0.711   9.739   5.188  0.3297 -0.6280 -0.5330
   76MOL0     O10173   0.893  10.003   5.407 -1.2925 -0.0093 -0.9551
   76MOL0     C10174   1.190   9.850   5.347 -0.8153 -0.5383 -0.7242
   76MOL0     C10175   1.326   9.872   5.334  0.6518  0.3329 -0.2880
   76MOL0     N10176   2.058  10.030   5.062  0.0748  0.0686 -0.4039
   76MOL0     N10177   2.152  10.000   4.979  0.7552 -0.7254 -0.2138
   76MOL0     C10178   3.528   9.894   4.922  0.6239  0.1106 -0.2858
   76MOL0     C10179   3.663   9.908   4.938  0.3565  0.3754  0.7056
   76MOL0     C10180   4.045  10.139   5.026  0.2900  0.2725  0.9192
   76MOL0     C10181   4.113  10.262   5.033 -0.6542 -1.1797 -0.5430
   76MOL0     C10182   4.254  10.264   5.022 -0.3120 -0.3454 -0.7208
   76MOL0     C10183   4.327  10.152   5.014  0.2456 -0.4382 -0.9845
   76MOL0     O10184   4.463  10.155   5.012  0.1862  0.2216  1.1350
   76MOL0     C10185   4.536  10.262   4.944 -0.3859  0.8143  0.2813
   76MOL0     C10186   4.665  10.226   4.871 -0.1050  0.5792  0.1513
   76MOL0     C10187   4.769  10.149   4.954  0.3224 -0.6914 -0.3945
   76MOL0     C10188   4.901  10.123   4.877 -0.2606  0.4333  1.2517
   76MOL0     C10189   5.015  10.082   4.956 -0.8695  0.1883 -0.1942
   76MOL0     C10190   5.122  10.061   5.012  0.5786  0.8596  0.1579
   76MOL0     C10191   4.266  10.030   5.017  0.0226  0.2721  0.3214
   76MOL0     C10192   4.129  10.022   5.010  0.5180 -0.6117 -0.3395
   76MOL0     H10193   3.648  10.107   5.207  0.5800 -2.3642  1.0534
   76MOL0     H10194   3.387  10.084   5.159  1.9583 -1.4982  2.2963
   76MOL0     H10195   3.202  10.000   5.139 -0.3861 -1.4792  0.0596
   76MOL0     H10196   3.187  10.086   4.985  1.3465 -0.5450 -0.0503
   76MOL0     H10197   3.084   9.900   4.876  0.2724  1.4736  0.7801
   76MOL0     H10198   3.072   9.805   5.030 -2.4324 -1.8230 -1.4556
   76MOL0     H10199   2.955  10.005   5.131 -0.5061  0.8068 -0.1588
   76MOL0     H10200   2.945  10.080   4.969 -1.7524 -1.6770 -1.9105
   76MOL0     H10201   2.842   9.865   4.888 -3.0689 -0.3504  0.0632
   76MOL0     H10202   2.844   9.830   5.058  0.2692  2.2010  2.1704
   76MOL0     H10203   2.709  10.024   5.098 -1.5914  2.5475 -0.2399
   76MOL0     H10204   2.694  10.074   4.932 -0.7609 -0.1123  1.5634
   76MOL0     H10205   2.609   9.828   4.889 -0.8447  0.4500  0.0682
   76MOL0     H10206   2.617   9.805   5.065 -0.6828 -2.6933 -2.3671
   76MOL0     H10207   2.462   9.982   5.107  1.2258 -0.5733 -0.0795
   76MOL0     H10208   2.443  10.015   4.930 -1.8442 -1.1423 -0.6415
   76MOL0     H10209   2.372   9.747   5.037  0.0231  0.9531  1.6579
   76MOL0     H10210   2.342   9.820   4.880 -0.6151  1.4197 -0.4159
   76MOL0     H10211   2.217   9.797   5.225  4.2810  2.9798  1.3270
   76MOL0     H10212   2.058   9.917   5.377 -1.1822 -0.3644  1.1772
   76MOL0     H10213   1.978  10.058   5.333  0.5912  1.1973 -0.7947
   76MOL0     H10214   1.827   9.851   5.388 -0.7611 -2.1534 -0.7642
   76MOL0     H10215   1.864   9.790   5.222 -2.5051 -1.1544  0.7363
   76MOL0     H10216   1.762  10.003   5.135  3.3307 -1.4235  0.5155
   76MOL0     H10217   1.761  10.069   5.306  2.1799 -0.4087  0.1459
   76MOL0     H10218   1.613   9.832   5.287  2.8521 -1.3454 -0.8163
   76MOL0     H10219   1.572   9.947   5.145 -0.4699  2.0484  0.6410
   76MOL0     H10220   1.350  10.207   5.359  1.3572 -0.6967  1.4198
   76MOL0     H10221   1.004  10.229   5.306 -0.6696 -0.8745 -0.1647
   76MOL0     H10222   1.041  10.219   5.481  0.0533 -3.0251  0.6757
   76MOL0     H10223   1.158  10.294   5.361 -2.0414  1.3909  1.0023
   76MOL0     H10224   0.803   9.795   5.512 -1.8449  0.6103  1.2371
   76MOL0     H10225   0.567   9.712   5.543 -0.1757 -0.5578  0.3846
   76MOL0     H10226   0.321   9.592   5.520  3.9222 -3.3346 -1.9185
   76MOL0     H10227   0.356   9.760   5.464  2.8145 -1.2092 -0.0266
   76MOL0     H10228   0.208   9.705   5.263  1.7052 -0.1166  0.6396
   76MOL0     H10229   0.166   9.548   5.334 -0.4804  0.8230 -0.6475
   76MOL0     H10230   0.083   9.825   5.428  1.2592  0.4585 -0.7401
   76MOL0     H10231   0.110   9.693   5.548 -0.5177  1.3072  0.8183
   76MOL0     H10232  -0.103   9.683   5.322  1.6547  2.0671 -0.9613
   76MOL0     H10233  -0.043   9.544   5.407  2.5795 -0.0505  1.5797
   76MOL0     H10234  -0.115   9.775   5.573 -0.5567  0.1431  0.2853
   76MOL0     H10235  -0.130   9.614   5.625  2.5195 -0.2852  0.0982
   76MOL0     H10236  -0.349   9.704   5.590  0.9282 -2.7325  1.0284
   76MOL0     H10237  -0.310   9.763   5.431  2.8520  0.3003  0.5248
   76MOL0     H10238  -0.416   9.509   5.505 -0.3563  0.2320 -0.6895
   76MOL0     H10239  -0.255   9.478   5.464  0.3497  0.1349 -1.2295
   76MOL0     H10240  -0.286   9.567   5.226 -2.3173  0.1165 -2.4041
   76MOL0     H10241  -0.434   9.660   5.274 -0.2593 -0.2376 -0.5411
   76MOL0     H10242   0.523   9.667   5.122  2.1600  1.1724 -2.0498
   76MOL0     H10243   0.758   9.758   5.092  2.1606  1.1345  0.6479
   76MOL0     H10244   1.146   9.753   5.362  0.3704 -0.6672  2.7935
   76MOL0     H10245   1.375   9.777   5.318 -0.7761 -0.6649  1.0499
   76MOL0     H10246   3.507   9.823   4.842  1.0881 -0.1740 -0.1586
   76MOL0     H10247   3.730   9.853   4.873  1.3079 -0.3989  2.2787
   76MOL0     H10248   4.057  10.355   5.043  1.4297 -0.0109  1.0767
   76MOL0     H10249   4.311  10.357   5.021  0.9787 -0.7897  4.4384
   76MOL0     H10250   4.475  10.292   4.858 -1.2552 -0.8748  0.2736
   76MOL0     H10251   4.555  10.349   5.007 -0.9772 -0.5479  2.4286
   76MOL0     H10252   4.709  10.321   4.839  3.2067 -0.2745  1.7159
   76MOL0     H10253   4.633  10.167   4.785 -2.9452  2.3524 -0.1463
   76MOL0     H10254   4.724  10.052   4.976 -3.1903  1.0777  1.1322
   76MOL0     H10255   4.789  10.203   5.047  3.0716  2.0731 -2.3948
   76MOL0     H10256   4.928  10.211   4.820  0.4190 -2.4003 -3.2985
   76MOL0     H10257   4.884  10.037   4.811 -0.7865  0.4501  1.3608
   76MOL0     H10258   5.209  10.049   5.074 -0.8107 -0.1591  1.9894
   76MOL0     H10259   4.327   9.940   5.024 -0.9874 -0.4269  0.3412
   76MOL0     H10260   4.089   9.921   5.006  1.4078 -0.9626 -0.6196
   77MOL0     O10261  10.607   9.944   5.339  0.2766  0.2028 -0.3474
   77MOL0     C10262  10.630   9.866   5.248 -0.1377  0.6208 -0.1785
   77MOL0     O10263  10.541   9.763   5.217 -0.3394  0.4656 -0.1175
   77MOL0     C10264  10.425   9.760   5.293  0.6795  0.4119  1.4832
   77MOL0     C10265  10.394   9.635   5.360  0.4343  0.6107 -0.4460
   77MOL0     C10266  10.265   9.615   5.418  0.4444  1.0305  0.6012
   77MOL0     C10267  10.175   9.718   5.418  0.1770 -0.2920  0.1004
   77MOL0     O10268  10.049   9.712   5.475 -0.3782  1.0217 -0.3292
   77MOL0     C10269  10.054   9.710   5.626 -0.0363  0.5786  0.7871
   77MOL0     C10270  10.028   9.853   5.683 -0.4085 -0.1225  0.2840
   77MOL0     C10271   9.972   9.853   5.818 -0.5910  0.3394 -0.4713
   77MOL0     C10272   9.944   9.993   5.873 -0.2379  0.3238  0.5030
   77MOL0     C10273   9.824   9.988   5.975  0.0962 -0.0092  0.0243
   77MOL0     C10274   9.766  10.129   5.992 -0.3154 -0.4566  1.0557
   77MOL0     C10275   9.685  10.183   5.867 -0.0269 -0.2358  1.2157
   77MOL0     C10276   9.632  10.322   5.873 -0.4331  0.1318  0.2468
   77MOL0     N10277   9.586  10.363   5.740 -0.2692  0.3337 -0.0536
   77MOL0     C10278   9.656  10.418   5.636  0.7767  0.1202  0.8994
   77MOL0     C10279   9.566  10.420   5.533 -0.3475  1.1491 -0.5508
   77MOL0     C10280   9.593  10.479   5.403 -0.0503  0.5752  0.5843
   77MOL0     C10281   9.715  10.415   5.325 -0.5546  0.3825  0.4321
   77MOL0     C10282   9.733  10.259   5.316  0.4888 -0.1771  0.5720
   77MOL0     C10283   9.861  10.193   5.356 -0.2380 -0.0334  1.0402
   77MOL0     O10284   9.907  10.245   5.475 -0.2571 -0.4991 -0.3970
   77MOL0     C10285  10.043  10.273   5.496 -0.1677 -0.2209  0.7556
   77MOL0     C10286  10.066  10.343   5.610  0.0421  0.5867  0.1512
   77MOL0     C10287  10.196  10.383   5.640  0.0813  0.3824  0.6797
   77MOL0     C10288  10.197  10.454   5.776 -0.1908 -0.7830  0.7142
   77MOL0     C10289  10.314  10.351   5.559  0.1503  0.1165 -0.1670
   77MOL0     C10290  10.454  10.388   5.593  0.4654 -0.4868  0.7297
   77MOL0     O10291  10.547  10.326   5.509  0.3122 -0.2530 -0.3278
   77MOL0     C10292  10.680  10.338   5.516  0.4063 -0.6269 -0.6330
   77MOL0     C10293  10.751  10.316   5.637  0.8175 -0.6250 -0.2172
   77MOL0     C10294  10.889  10.299   5.633 -0.1159 -0.0197 -0.4336
   77MOL0     C10295  10.963  10.321   5.518  0.2095  0.1510  0.8657
   77MOL0     O10296  11.096  10.319   5.507  0.3325  0.4981  0.0113
   77MOL0     C10297  11.166  10.287   5.632  0.4869  0.4032  0.1868
   77MOL0     C10298  11.316  10.259   5.603 -0.2030  0.7984 -0.0094
   77MOL0     C10299  11.348  10.181   5.469 -0.6442 -0.2052  0.0739
   77MOL0     C10300  11.489  10.203   5.417 -0.0341 -0.0060  0.0363
   77MOL0     C10301  11.588  10.133   5.500 -0.8786 -0.4415  0.3914
   77MOL0     C10302  11.738  10.159   5.452  0.1175  0.2749  0.0966
   77MOL0     C10303  11.754  10.129   5.308 -1.0721  0.1558  0.4212
   77MOL0     C10304  11.903  10.099   5.267 -0.8140  0.7883  0.2032
   77MOL0    Cl10305  11.994  10.258   5.272 -0.6923  0.4363 -0.1121
   77MOL0     C10306  10.898  10.344   5.400  0.6414 -0.1055  0.3464
   77MOL0     C10307  10.754  10.345   5.399 -0.2448 -0.5533  0.0992
   77MOL0     O10308  10.479  10.477   5.669  0.1050 -0.0932 -0.1691
   77MOL0     C10309  10.286  10.263   5.453 -0.8413 -0.3496 -0.3196
   77MOL0     C10310  10.152  10.229   5.415  0.1778  0.0774  0.7143
   77MOL0     N10311   9.446  10.373   5.571 -1.0540 -1.0026 -0.6465
   77MOL0     N10312   9.463  10.338   5.698 -0.1253  0.3202  0.3995
   77MOL0     C10313  10.208   9.838   5.350 -0.4069 -0.0970 -0.4439
   77MOL0     C10314  10.326   9.861   5.288 -0.7401 -0.1845 -0.6841
   77MOL0     C10315  10.749   9.879   5.164  0.0634  0.2751  0.2949
   77MOL0     C10316  10.768   9.784   5.052 -0.4493 -0.2988 -1.0781
   77MOL0     C10317  10.873   9.814   4.960 -0.3559  0.9051  0.5409
   77MOL0     C10318  10.970   9.913   4.985 -0.5052  0.3124 -0.5045
   77MOL0     O10319  11.068   9.923   4.893  0.5333  0.1678 -0.4927
   77MOL0     C10320  11.187  10.001   4.914  0.0282 -0.0851  0.1622
   77MOL0     C10321  11.294   9.927   4.998  0.0857 -0.4000 -0.1347
   77MOL0     C10322  11.436   9.963   4.951  0.1328 -0.4383 -1.6444
   77MOL0     C10323  11.550   9.880   4.989 -0.0985 -0.1050 -0.3380
   77MOL0     C10324  11.670   9.937   4.935  0.9800 -0.1239 -0.3210
   77MOL0     C10325  11.762  10.004   4.896 -0.4808 -0.9942  0.4512
   77MOL0     C10326  10.954   9.982   5.101  1.0282 -1.3121  0.7985
   77MOL0     C10327  10.847   9.967   5.193 -0.5503  0.5330  0.6243
   77MOL0     H10328  10.471   9.559   5.352  2.1787  2.2705 -0.0812
   77MOL0     H10329  10.248   9.526   5.477  0.3135  1.6200  1.4739
   77MOL0     H10330   9.967   9.647   5.648  1.1111 -1.1647  0.5975
   77MOL0     H10331  10.138   9.659   5.675 -0.4114  0.7240  1.5868
   77MOL0     H10332  10.113   9.923   5.685 -0.6488  0.2068 -0.5692
   77MOL0     H10333   9.961   9.906   5.614 -4.1763 -0.2207  3.5327
   77MOL0     H10334   9.875   9.801   5.818 -1.8435  2.5068  1.3471
   77MOL0     H10335  10.045   9.817   5.891  0.5311  1.2522 -1.1147
   77MOL0     H10336  10.038  10.042   5.902  0.6329  0.4579 -2.1688
   77MOL0     H10337   9.899  10.053   5.793  0.1849  1.1745  0.8976
   77MOL0     H10338   9.744   9.915   5.954 -0.4061 -1.3410  5.1078
   77MOL0     H10339   9.853   9.971   6.079  2.6111  0.9910 -0.4428
   77MOL0     H10340   9.702  10.136   6.081 -1.7438  0.2022  0.0210
   77MOL0     H10341   9.850  10.199   5.995 -1.6999  1.2781  1.1587
   77MOL0     H10342   9.743  10.182   5.774 -2.4575  0.5100 -0.4122
   77MOL0     H10343   9.599  10.119   5.843  0.5974  0.0807 -2.3345
   77MOL0     H10344   9.708  10.392   5.910  0.4745 -0.7315  0.0639
   77MOL0     H10345   9.549  10.326   5.944  0.8435  3.5009  1.7706
   77MOL0     H10346   9.757  10.459   5.629 -0.0010  1.8521 -2.2064
   77MOL0     H10347   9.496  10.475   5.353  0.5946  1.3439 -0.7831
   77MOL0     H10348   9.617  10.584   5.422 -0.2523  1.4457 -3.1269
   77MOL0     H10349   9.803  10.461   5.371 -0.7131  1.9141 -0.7340
   77MOL0     H10350   9.730  10.465   5.229  0.2255  0.0581  0.3696
   77MOL0     H10351   9.698  10.236   5.215 -2.4088  1.5372  1.0456
   77MOL0     H10352   9.653  10.212   5.373  0.3640 -2.6818 -1.4937
   77MOL0     H10353   9.931  10.203   5.272  0.2771  0.9196  1.5597
   77MOL0     H10354   9.840  10.087   5.372  0.0706  0.0452  2.0323
   77MOL0     H10355   9.989  10.372   5.680 -1.3327  1.7727 -1.7519
   77MOL0     H10356  10.117  10.434   5.849 -0.0631 -0.3379  0.9824
   77MOL0     H10357  10.285  10.433   5.837  0.7594 -1.6663 -0.9021
   77MOL0     H10358  10.200  10.559   5.747 -1.6818 -1.7180 -3.5305
   77MOL0     H10359  10.689  10.282   5.720  2.3965 -0.2983  1.1488
   77MOL0     H10360  10.936  10.266   5.725  1.0202  1.6330 -0.3785
   77MOL0     H10361  11.148  10.361   5.711 -1.0066 -0.2287  0.4837
   77MOL0     H10362  11.136  10.185   5.661  0.5937  0.7010  1.4134
   77MOL0     H10363  11.366  10.356   5.592  1.1211 -0.0454 -1.9739
   77MOL0     H10364  11.356  10.200   5.686  2.3275 -3.5561 -3.8518
   77MOL0     H10365  11.272  10.206   5.394 -2.8746 -1.7194  1.6821
   77MOL0     H10366  11.338  10.074   5.489 -1.6929  0.1939  1.9246
   77MOL0     H10367  11.489  10.156   5.318  1.1367  0.5778 -0.2663
   77MOL0     H10368  11.512  10.310   5.409 -0.6424  0.0217 -1.7622
   77MOL0     H10369  11.574  10.026   5.483  1.9636 -0.5671 -1.8875
   77MOL0     H10370  11.572  10.161   5.605 -0.2987  1.3643  0.0292
   77MOL0     H10371  11.752  10.263   5.480 -2.4376 -0.0666  3.2790
   77MOL0     H10372  11.808  10.093   5.504  1.7093  1.8280  0.0050
   77MOL0     H10373  11.713  10.215   5.255 -0.8253  1.3275  2.0368
   77MOL0     H10374  11.702  10.038   5.275 -1.1310  0.5266 -0.5228
   77MOL0     H10375  11.908  10.058   5.165  0.6845 -1.2522  1.0323
   77MOL0     H10376  11.946  10.029   5.339 -2.4252  0.2557  0.6939
   77MOL0     H10377  10.956  10.368   5.312 -1.0092 -0.1129 -0.7957
   77MOL0     H10378  10.707  10.364   5.303  0.6580 -0.3492 -0.3048
   77MOL0     H10379  10.360  10.209   5.394 -2.5039 -1.7632 -1.1869
   77MOL0     H10380  10.127  10.185   5.320 -0.6294  1.2415  0.3661
   77MOL0     H10381  10.134   9.916   5.359  0.2067  0.2893  1.7658
   77MOL0     H10382  10.339   9.960   5.247  0.1086 -0.6012 -1.4654
   77MOL0     H10383  10.696   9.705   5.031 -0.6613 -0.9108  1.6251
   77MOL0     H10384  10.872   9.747   4.875  0.1575 -2.4946  2.9812
   77MOL0     H10385  11.236  10.025   4.819 -3.0599  0.1526 -1.4872
   77MOL0     H10386  11.150  10.092   4.962 -0.0471  0.6082 -1.1541
   77MOL0     H10387  11.270   9.821   4.990 -1.9965 -0.0121  0.2193
   77MOL0     H10388  11.284   9.954   5.104  3.7109  2.9443 -0.4190
   77MOL0     H10389  11.452  10.068   4.978  2.0602 -0.5585 -2.1584
   77MOL0     H10390  11.432   9.971   4.842 -0.4921  1.1990 -1.5292
   77MOL0     H10391  11.543   9.776   4.954  2.6961  0.1783 -2.0979
   77MOL0     H10392  11.545   9.873   5.098 -0.5909  2.4228 -0.1484
   77MOL0     H10393  11.850  10.062   4.876 -1.6911  0.1206 -2.1529
   77MOL0     H10394  11.023  10.062   5.126 -2.0666  1.6802  0.5173
   77MOL0     H10395  10.849  10.018   5.288  0.4690 -0.7558  1.3319
   78MOL0     O10396   8.131   8.166   0.161  1.0380  0.1093 -0.5987
   78MOL0     C10397   8.120   8.235   0.263 -0.0195  0.3405  1.0362
   78MOL0     O10398   7.997   8.270   0.316  0.2459  0.1334 -0.3316
   78MOL0     C10399   7.898   8.187   0.268 -0.3722 -1.4814 -0.1743
   78MOL0     C10400   7.818   8.222   0.156 -0.0144 -0.4787 -0.1402
   78MOL0     C10401   7.716   8.147   0.110  1.5283  0.4272  0.9671
   78MOL0     C10402   7.696   8.016   0.171 -0.0541 -1.4284  0.1357
   78MOL0     O10403   7.585   7.953   0.147  0.1145  0.0251 -0.1344
   78MOL0     C10404   7.500   7.910   0.261 -0.0496 -0.3882 -0.2172
   78MOL0     C10405   7.352   7.917   0.208 -1.4301 -0.5245  0.1284
   78MOL0     C10406   7.304   7.791   0.136  0.0270 -0.4782  0.9322
   78MOL0     C10407   7.268   7.672   0.226 -0.9047  0.4530  0.2958
   78MOL0     C10408   7.292   7.535   0.157  0.8244 -0.2800  0.0912
   78MOL0     C10409   7.246   7.420   0.246 -0.2673  0.1951 -0.2243
   78MOL0     C10410   7.099   7.418   0.272 -0.1891  0.0663  0.5286
   78MOL0     C10411   7.069   7.299   0.365  0.2496  0.4135 -0.1857
   78MOL0     N10412   6.927   7.305   0.390 -0.2023  1.4005  1.0581
   78MOL0     C10413   6.866   7.359   0.498 -0.1318  0.3334 -0.0930
   78MOL0     C10414   6.742   7.327   0.486  0.1190 -0.0537  0.7434
   78MOL0     C10415   6.646   7.380   0.586  0.0900  0.1204  0.0089
   78MOL0     C10416   6.522   7.442   0.530 -0.9469  0.3088  0.6163
   78MOL0     C10417   6.541   7.571   0.444 -0.0211  0.5877  0.1117
   78MOL0     C10418   6.412   7.635   0.405 -0.9017  0.2030 -0.4470
   78MOL0     O10419   6.344   7.678   0.524 -0.4589  0.4121  0.8415
   78MOL0     C10420   6.215   7.712   0.511 -0.2351  1.1435 -0.1252
   78MOL0     C10421   6.154   7.710   0.385  0.0649  0.5783  0.0628
   78MOL0     C10422   6.022   7.754   0.368  0.1695  0.1501 -0.2551
   78MOL0     C10423   5.962   7.752   0.228 -0.4356 -0.6080  0.2885
   78MOL0     C10424   5.949   7.802   0.478 -0.5661 -0.3361 -0.9743
   78MOL0     C10425   5.806   7.845   0.483  0.5492  0.3001  0.0144
   78MOL0     O10426   5.737   7.884   0.366 -0.2009  0.1644  0.0385
   78MOL0     C10427   5.614   7.938   0.392  0.3291 -0.7071 -0.7152
   78MOL0     C10428   5.601   8.076   0.401  0.4826  0.1046 -0.3127
   78MOL0     C10429   5.470   8.128   0.404 -0.1963  0.0078 -0.9064
   78MOL0     C10430   5.354   8.051   0.412 -0.2626  0.2047  0.3095
   78MOL0     O10431   5.236   8.121   0.412  0.3680 -0.3736  0.1262
   78MOL0     C10432   5.114   8.048   0.440  0.7901 -0.1133 -1.1033
   78MOL0     C10433   5.013   8.151   0.491  0.1849  0.3993 -0.4839
   78MOL0     C10434   4.872   8.095   0.498 -0.3143  0.4380  0.4398
   78MOL0     C10435   4.777   8.205   0.525  0.3350 -0.5201 -0.1162
   78MOL0     C10436   4.643   8.177   0.468  0.1779 -0.1065 -0.3511
   78MOL0     C10437   4.530   8.275   0.472 -0.4841  0.5576 -0.4853
   78MOL0     C10438   4.409   8.223   0.391  0.6961 -0.4714 -0.7906
   78MOL0     C10439   4.410   8.289   0.251  0.7663 -0.1684 -1.0793
   78MOL0    Cl10440   4.407   8.462   0.267  0.0232  0.2197 -0.2191
   78MOL0     C10441   5.371   7.911   0.416  0.2588  0.3264  0.7510
   78MOL0     C10442   5.500   7.859   0.397  0.0859 -0.0771 -0.8773
   78MOL0     O10443   5.756   7.837   0.596 -0.2897 -0.2814 -0.0084
   78MOL0     C10444   6.025   7.803   0.600 -0.1525  0.1955 -0.2634
   78MOL0     C10445   6.148   7.761   0.619  0.0593 -0.0827 -0.6742
   78MOL0     N10446   6.717   7.259   0.372 -0.0550 -0.1202  0.0767
   78MOL0     N10447   6.836   7.245   0.314  0.4109 -0.7063  0.2988
   78MOL0     C10448   7.778   7.977   0.273 -0.3990  0.6225  0.0945
   78MOL0     C10449   7.878   8.060   0.324  0.3615  0.9164 -0.1805
   78MOL0     C10450   8.243   8.304   0.318 -0.3890  0.1111  0.5290
   78MOL0     C10451   8.224   8.405   0.410 -0.0518 -0.7982 -0.3996
   78MOL0     C10452   8.335   8.473   0.462 -0.2604 -0.0981  0.1391
   78MOL0     C10453   8.466   8.448   0.417 -0.5948 -0.0396 -1.0939
   78MOL0     O10454   8.559   8.531   0.481 -0.4922  0.2081  0.5631
   78MOL0     C10455   8.693   8.488   0.484  0.0616 -0.6779 -0.2947
   78MOL0     C10456   8.752   8.570   0.595  0.3468  0.6494  0.0537
   78MOL0     C10457   8.681   8.563   0.735 -0.1146  0.6863  0.1743
   78MOL0     C10458   8.722   8.659   0.845 -1.2991  0.1022  0.6619
   78MOL0     C10459   8.872   8.653   0.865  0.1848  0.3797  1.0485
   78MOL0     C10460   8.995   8.665   0.873  0.8094 -0.3401 -1.1776
   78MOL0     C10461   8.482   8.355   0.309  0.8289  0.0567 -1.1674
   78MOL0     C10462   8.370   8.287   0.255  0.3536  0.0678  0.9761
   78MOL0     H10463   7.838   8.317   0.107  1.3970  0.8925  2.8144
   78MOL0     H10464   7.645   8.179   0.035  2.8878  2.0059  0.2932
   78MOL0     H10465   7.529   7.815   0.307 -2.3024 -0.8404  0.3870
   78MOL0     H10466   7.504   7.988   0.338 -1.7226  0.0328 -0.5005
   78MOL0     H10467   7.278   7.929   0.288 -1.4017 -1.6299  0.3384
   78MOL0     H10468   7.346   8.007   0.145  0.6769 -0.5089 -0.1261
   78MOL0     H10469   7.209   7.822   0.092  1.1552  1.1087 -0.4984
   78MOL0     H10470   7.374   7.770   0.055  0.5246  2.7423  0.3765
   78MOL0     H10471   7.335   7.675   0.313  1.3369 -0.7380 -1.3053
   78MOL0     H10472   7.165   7.679   0.264 -1.1392  1.3197 -0.4800
   78MOL0     H10473   7.226   7.540   0.070 -1.3778  3.4711  1.7245
   78MOL0     H10474   7.393   7.515   0.118  0.3893  0.9296 -1.8026
   78MOL0     H10475   7.267   7.327   0.193 -0.0739  0.4504 -0.5998
   78MOL0     H10476   7.302   7.420   0.340  1.4171 -0.2069 -1.1868
   78MOL0     H10477   7.060   7.506   0.325  3.4999  1.4032  1.2826
   78MOL0     H10478   7.045   7.417   0.177 -0.0215  0.9568  0.4148
   78MOL0     H10479   7.124   7.303   0.459 -0.2938 -2.2169  0.3377
   78MOL0     H10480   7.102   7.202   0.325  0.7844 -0.5279  2.3362
   78MOL0     H10481   6.904   7.432   0.568 -0.3811  2.7338 -2.3059
   78MOL0     H10482   6.616   7.299   0.653 -0.9858  1.0937  0.7381
   78MOL0     H10483   6.683   7.470   0.637 -0.8435  2.1449 -2.6455
   78MOL0     H10484   6.451   7.464   0.610 -1.6881 -1.6472  0.5730
   78MOL0     H10485   6.475   7.359   0.476 -0.5181  1.4695 -1.6324
   78MOL0     H10486   6.612   7.555   0.363  1.8544  0.9303  1.6219
   78MOL0     H10487   6.591   7.641   0.511 -0.5267 -0.9260  2.1808
   78MOL0     H10488   6.367   7.556   0.345  1.6240 -2.4207  0.8776
   78MOL0     H10489   6.434   7.720   0.339 -2.4366 -0.1858 -1.5414
   78MOL0     H10490   6.195   7.668   0.294 -2.0851 -1.0091 -0.2465
   78MOL0     H10491   5.933   7.853   0.199 -0.5740 -0.3652  1.2244
   78MOL0     H10492   6.032   7.716   0.152 -0.6665 -0.8261  0.1755
   78MOL0     H10493   5.875   7.685   0.225  1.6795 -3.5164 -0.1943
   78MOL0     H10494   5.693   8.131   0.415  0.3296 -0.2769  2.8428
   78MOL0     H10495   5.462   8.236   0.411  1.7437  0.0985  0.7664
   78MOL0     H10496   5.080   7.985   0.357 -3.1215 -1.6514  1.4106
   78MOL0     H10497   5.125   7.973   0.518 -0.9617  0.4194 -0.2939
   78MOL0     H10498   5.041   8.176   0.594  0.2163  0.8846 -0.6108
   78MOL0     H10499   5.016   8.244   0.435 -1.9496  0.4545 -0.6023
   78MOL0     H10500   4.874   8.018   0.575  0.8477  1.1509  1.1557
   78MOL0     H10501   4.844   8.052   0.401 -2.2809 -1.0271  1.5873
   78MOL0     H10502   4.777   8.228   0.632  0.4842  1.8038 -0.5578
   78MOL0     H10503   4.807   8.298   0.476 -0.3223  0.2945  0.9838
   78MOL0     H10504   4.609   8.079   0.502  0.5068  0.1552  0.7665
   78MOL0     H10505   4.652   8.162   0.360 -0.1379  0.5039 -0.4702
   78MOL0     H10506   4.505   8.270   0.578  2.3082  0.2219  0.2142
   78MOL0     H10507   4.567   8.377   0.458 -0.5461  0.7614  0.7197
   78MOL0     H10508   4.315   8.244   0.442  1.6236 -0.8835  1.1554
   78MOL0     H10509   4.413   8.115   0.373 -1.1300 -0.6194 -0.4705
   78MOL0     H10510   4.321   8.260   0.195  0.3710 -3.9309  1.2187
   78MOL0     H10511   4.504   8.256   0.206  2.3360 -0.8667  2.4363
   78MOL0     H10512   5.279   7.854   0.414  0.4212 -0.2209 -4.0372
   78MOL0     H10513   5.508   7.751   0.390  1.0912 -0.1378  0.8352
   78MOL0     H10514   5.979   7.844   0.690  1.0681 -1.1332  1.0241
   78MOL0     H10515   6.193   7.772   0.717 -3.1225 -2.6965  1.3012
   78MOL0     H10516   7.764   7.876   0.312  1.8046  0.2256 -0.0442
   78MOL0     H10517   7.943   8.023   0.402 -1.9148 -1.4851  0.7586
   78MOL0     H10518   8.124   8.437   0.435 -0.6598 -2.2769 -0.8745
   78MOL0     H10519   8.313   8.543   0.541 -1.7140  0.8923 -1.0984
   78MOL0     H10520   8.701   8.380   0.502 -1.4458 -1.1301 -2.0710
   78MOL0     H10521   8.748   8.495   0.389 -0.9900 -3.1755 -1.1673
   78MOL0     H10522   8.763   8.675   0.564 -0.3817 -0.0169 -2.7583
   78MOL0     H10523   8.857   8.542   0.604 -0.0724 -1.1383 -0.2771
   78MOL0     H10524   8.693   8.463   0.777  0.3166  1.0395  0.9154
   78MOL0     H10525   8.577   8.595   0.725  0.2483  1.7996 -0.2717
   78MOL0     H10526   8.675   8.640   0.942  0.6339 -0.7212  1.4789
   78MOL0     H10527   8.684   8.759   0.823  1.5918  1.3168  0.7886
   78MOL0     H10528   9.099   8.687   0.876  1.4794 -3.1733 -0.7868
   78MOL0     H10529   8.571   8.348   0.247  0.6488 -3.0608 -1.2412
   78MOL0     H10530   8.378   8.247   0.155  1.5406  1.7526  0.3404
   79MOL0     O10531   8.369   1.664  10.285 -0.9165 -0.1273 -0.6711
   79MOL0     C10532   8.304   1.681  10.184  0.4221  0.3080  1.0058
   79MOL0     O10533   8.165   1.692  10.176 -0.4250 -0.7348 -0.4428
   79MOL0     C10534   8.089   1.680  10.285  0.1878 -0.2213  1.0984
   79MOL0     C10535   8.114   1.605  10.397 -0.7856 -0.8835 -0.1940
   79MOL0     C10536   8.022   1.602  10.502  0.1147 -0.0926 -0.0629
   79MOL0     C10537   7.897   1.654  10.484 -0.0619  0.3277 -0.7529
   79MOL0     O10538   7.810   1.642  10.587  0.7909  0.2862  0.1852
   79MOL0     C10539   7.853   1.697  10.710  0.2254  0.3910 -0.1724
   79MOL0     C10540   7.774   1.816  10.738  0.5268 -0.4639  0.8207
   79MOL0     C10541   7.624   1.778  10.750  0.4884  0.1373 -0.0162
   79MOL0     C10542   7.545   1.851  10.865  0.4321  0.2982  0.0752
   79MOL0     C10543   7.394   1.830  10.841  0.0121  0.4685  0.2684
   79MOL0     C10544   7.288   1.854  10.952  0.2617  0.5107  0.5138
   79MOL0     C10545   7.147   1.821  10.899 -0.3862 -0.3270  0.3776
   79MOL0     C10546   7.034   1.856  10.997 -0.4470 -0.3173  0.3916
   79MOL0     N10547   7.015   2.000  11.003 -0.5399 -0.2473  0.4814
   79MOL0     C10548   6.898   2.072  10.972  0.2754  0.4066 -0.3815
   79MOL0     C10549   6.927   2.201  10.990  0.0206  0.0186 -0.8400
   79MOL0     C10550   6.819   2.311  10.985  0.3121  0.3428 -0.3002
   79MOL0     C10551   6.705   2.292  11.085 -0.1553  1.0945 -0.3467
   79MOL0     C10552   6.596   2.393  11.068  0.0642 -0.1200 -0.1581
   79MOL0     C10553   6.500   2.382  11.184 -0.4844 -0.2056 -0.3282
   79MOL0     O10554   6.415   2.267  11.178 -0.2023  0.2786  0.2775
   79MOL0     C10555   6.289   2.266  11.236  0.1207  0.3849  0.5536
   79MOL0     C10556   6.195   2.173  11.192  0.6417 -0.6839  0.0735
   79MOL0     C10557   6.072   2.158  11.257 -0.1477  0.3719  0.1282
   79MOL0     C10558   5.979   2.058  11.189 -0.1103  0.4076  0.2549
   79MOL0     C10559   6.033   2.245  11.364 -1.6984  0.7514  1.4638
   79MOL0     C10560   5.909   2.244  11.436  0.0947  0.0822 -0.3954
   79MOL0     O10561   5.860   2.370  11.475 -0.4654  0.0520  0.0921
   79MOL0     C10562   5.727   2.396  11.509 -0.4406 -0.4939  0.1902
   79MOL0     C10563   5.616   2.344  11.453  0.0755 -0.1148 -0.0801
   79MOL0     C10564   5.493   2.365  11.514  0.7297 -0.0313  0.6727
   79MOL0     C10565   5.475   2.441  11.625 -0.4958 -0.6910 -0.0342
   79MOL0     O10566   5.351   2.471  11.679  0.0023  0.3599  0.3945
   79MOL0     C10567   5.341   2.518  11.812  0.0104  0.6813  0.1734
   79MOL0     C10568   5.204   2.497  11.871  0.0947 -0.9893 -0.0744
   79MOL0     C10569   5.105   2.587  11.810  0.0323 -0.9998  0.7221
   79MOL0     C10570   4.980   2.616  11.892  0.4965 -0.2008  0.2127
   79MOL0     C10571   4.894   2.715  11.826 -0.3158  0.2111 -0.2489
   79MOL0     C10572   4.750   2.729  11.877 -0.2748  0.3697  0.1342
   79MOL0     C10573   4.746   2.743  12.030  0.2488  0.0211  0.6630
   79MOL0     C10574   4.613   2.787  12.102 -0.7095  0.7962 -0.1596
   79MOL0    Cl10575   4.577   2.960  12.073 -0.2235  0.4914 -0.1686
   79MOL0     C10576   5.593   2.503  11.680  0.1521 -0.4361  0.3990
   79MOL0     C10577   5.715   2.488  11.616  0.1563 -0.4472  0.3485
   79MOL0     O10578   5.842   2.142  11.444 -0.1325  0.1716 -0.6146
   79MOL0     C10579   6.124   2.352  11.386  1.1275 -0.6929 -0.0401
   79MOL0     C10580   6.249   2.358  11.332  0.7975  0.3785  1.0882
   79MOL0     N10581   7.054   2.208  11.031 -0.2473 -0.0566  1.0296
   79MOL0     N10582   7.104   2.088  11.045  0.8132  0.1396  0.4075
   79MOL0     C10583   7.869   1.728  10.375 -0.6836  0.2189 -0.1482
   79MOL0     C10584   7.967   1.738  10.272 -0.1270  0.9398  0.8073
   79MOL0     C10585   8.368   1.651  10.059  0.1893 -0.5960 -0.1043
   79MOL0     C10586   8.300   1.675   9.936  0.6344  0.2391 -0.5656
   79MOL0     C10587   8.357   1.646   9.813  0.0151  0.0344  0.5841
   79MOL0     C10588   8.496   1.601   9.808 -0.6242 -0.5136 -0.5222
   79MOL0     O10589   8.556   1.568   9.693  0.3165  0.6015  0.5289
   79MOL0     C10590   8.495   1.595   9.565  0.4019  0.0994 -0.5152
   79MOL0     C10591   8.585   1.568   9.452 -0.2750  0.0940 -0.1819
   79MOL0     C10592   8.623   1.419   9.444 -0.5519  0.3515 -0.1831
   79MOL0     C10593   8.728   1.390   9.340  0.2050 -0.8039  0.6320
   79MOL0     C10594   8.759   1.246   9.333  0.5639 -0.6576  0.1037
   79MOL0     C10595   8.791   1.131   9.345  0.0242 -0.4169 -0.4693
   79MOL0     C10596   8.568   1.583   9.927 -0.9531  0.7182  1.0225
   79MOL0     C10597   8.496   1.596  10.048 -0.5183 -0.0016  0.0238
   79MOL0     H10598   8.209   1.554  10.405 -0.0369  0.3711 -0.8456
   79MOL0     H10599   8.053   1.552  10.593 -0.5023 -0.9597 -0.3075
   79MOL0     H10600   7.846   1.619  10.787  0.6804 -0.7652 -1.2733
   79MOL0     H10601   7.958   1.728  10.704 -0.5606  2.9685 -3.6148
   79MOL0     H10602   7.806   1.879  10.822  1.0145  3.0518 -1.7306
   79MOL0     H10603   7.797   1.881  10.652  0.0279 -0.8881  0.3598
   79MOL0     H10604   7.583   1.785  10.648  1.5473 -1.2286 -0.5667
   79MOL0     H10605   7.623   1.673  10.780  0.3904  0.6337  1.8071
   79MOL0     H10606   7.583   1.831  10.966  0.5339  1.8938  0.3903
   79MOL0     H10607   7.560   1.958  10.849  0.4155  0.2984  0.0616
   79MOL0     H10608   7.376   1.896  10.756  0.1446  1.9299  1.3247
   79MOL0     H10609   7.378   1.728  10.805 -1.2683  0.7771 -0.1173
   79MOL0     H10610   7.299   1.786  11.036  0.5485  1.2730  1.1031
   79MOL0     H10611   7.303   1.949  11.005  1.8851 -0.8359  2.6229
   79MOL0     H10612   7.138   1.868  10.800 -1.1579  1.8904  1.4365
   79MOL0     H10613   7.141   1.714  10.874 -0.3029 -0.2636  0.0836
   79MOL0     H10614   7.071   1.825  11.095  0.0199 -0.8160  0.0622
   79MOL0     H10615   6.939   1.813  10.963 -1.4052  1.4143  0.7426
   79MOL0     H10616   6.800   2.032  10.949 -0.7839  1.2734  2.2156
   79MOL0     H10617   6.872   2.404  11.011  0.5416 -0.4044  2.0570
   79MOL0     H10618   6.778   2.318  10.883 -0.7477 -0.0972  0.0873
   79MOL0     H10619   6.749   2.297  11.185  0.4458  0.1017 -0.5482
   79MOL0     H10620   6.667   2.189  11.080 -0.2195  1.0171  1.2026
   79MOL0     H10621   6.538   2.386  10.976 -0.0634  1.4526 -0.2318
   79MOL0     H10622   6.640   2.493  11.072  1.0174 -0.5363 -0.0178
   79MOL0     H10623   6.447   2.477  11.189  1.1698  0.6859  1.6323
   79MOL0     H10624   6.551   2.384  11.281  3.2164  5.1463 -1.8849
   79MOL0     H10625   6.223   2.103  11.113 -1.1975 -1.5837  0.1735
   79MOL0     H10626   5.878   2.099  11.194 -0.5656 -0.1517 -2.5511
   79MOL0     H10627   6.005   2.027  11.087 -4.3908 -0.2534 -0.8375
   79MOL0     H10628   5.971   1.965  11.247 -2.5515  1.7335  2.2375
   79MOL0     H10629   5.628   2.265  11.380 -1.8413  0.2991 -0.9217
   79MOL0     H10630   5.406   2.324  11.464  1.5905  0.9537 -1.7762
   79MOL0     H10631   5.417   2.467  11.871  0.0445  1.9487  1.2742
   79MOL0     H10632   5.368   2.624  11.816  0.1975  0.6842 -0.8400
   79MOL0     H10633   5.175   2.395  11.843 -2.9385 -0.3962  0.5544
   79MOL0     H10634   5.211   2.507  11.979  2.5634 -0.4152 -0.2180
   79MOL0     H10635   5.072   2.541  11.716  0.3159  0.5202 -0.1462
   79MOL0     H10636   5.152   2.683  11.787  1.6448 -1.6643  1.0916
   79MOL0     H10637   4.941   2.516  11.913  2.4265 -0.8676  0.8459
   79MOL0     H10638   5.007   2.648  11.993  0.3517  1.5488 -0.2784
   79MOL0     H10639   4.890   2.702  11.717 -2.8909  0.9669 -0.3094
   79MOL0     H10640   4.943   2.810  11.853  3.6426 -2.3614  2.7913
   79MOL0     H10641   4.702   2.813  11.827 -1.0691 -0.4916 -0.5874
   79MOL0     H10642   4.701   2.638  11.841 -1.6190 -0.3282  3.3567
   79MOL0     H10643   4.825   2.809  12.069 -0.7282  0.1155  2.5688
   79MOL0     H10644   4.758   2.639  12.060  0.4576 -0.3001 -0.4946
   79MOL0     H10645   4.621   2.767  12.209  2.7010  1.2375 -0.2114
   79MOL0     H10646   4.535   2.721  12.064  0.2769  0.6564 -2.1250
   79MOL0     H10647   5.595   2.583  11.754  1.5206 -0.8260  0.8089
   79MOL0     H10648   5.800   2.547  11.647  0.0064 -0.1844  0.2605
   79MOL0     H10649   6.106   2.427  11.462  1.4128 -1.0985  0.4334
   79MOL0     H10650   6.307   2.446  11.358  1.4063  0.3500 -0.1196
   79MOL0     H10651   7.770   1.771  10.366 -1.3380 -1.0912  0.4017
   79MOL0     H10652   7.943   1.789  10.180 -3.2565 -1.1671  0.2872
   79MOL0     H10653   8.201   1.718   9.929  1.1177  1.7041  0.9272
   79MOL0     H10654   8.297   1.655   9.723 -0.7719  0.0561  1.0975
   79MOL0     H10655   8.402   1.539   9.548 -1.8872  3.3490  0.2705
   79MOL0     H10656   8.480   1.703   9.571 -0.5858 -0.0884  1.9188
   79MOL0     H10657   8.673   1.633   9.463  2.1988 -3.3257  2.7367
   79MOL0     H10658   8.530   1.603   9.365 -1.3081  1.7357  1.0805
   79MOL0     H10659   8.534   1.362   9.416 -0.2521 -0.7515  1.0230
   79MOL0     H10660   8.665   1.386   9.539 -1.0407 -0.0136 -0.0908
   79MOL0     H10661   8.819   1.440   9.374  0.3452  0.6702 -1.6938
   79MOL0     H10662   8.699   1.435   9.245 -2.2931 -1.2761  1.1107
   79MOL0     H10663   8.826   1.035   9.377  0.3492  0.0348  0.5919
   79MOL0     H10664   8.666   1.537   9.919 -2.4140 -2.3648 -1.5148
   79MOL0     H10665   8.545   1.571  10.141 -0.4583 -1.3183 -0.3408
   80MOL0     O10666   3.135   3.921   6.556  0.5662  0.6664 -0.2041
   80MOL0     C10667   3.217   3.828   6.561  0.7704  0.4505 -0.0127
   80MOL0     O10668   3.196   3.702   6.619  0.0604  0.9113  0.5018
   80MOL0     C10669   3.063   3.680   6.668  0.0253 -0.0621  0.4415
   80MOL0     C10670   3.039   3.629   6.795 -0.0074  0.5189 -0.2264
   80MOL0     C10671   2.910   3.607   6.830 -0.0819  0.8111  0.3547
   80MOL0     C10672   2.805   3.627   6.747  0.8827  0.4668  0.1524
   80MOL0     O10673   2.692   3.581   6.804  0.3165  0.1563 -0.0832
   80MOL0     C10674   2.578   3.579   6.710 -0.1911 -0.5110 -0.3910
   80MOL0     C10675   2.455   3.537   6.780 -0.1429  0.2019  0.4867
   80MOL0     C10676   2.410   3.631   6.895 -0.2487  0.5379  0.0548
   80MOL0     C10677   2.259   3.607   6.916 -0.4470  0.0688 -1.1368
   80MOL0     C10678   2.202   3.474   6.968 -0.6611  0.8364  0.0778
   80MOL0     C10679   2.254   3.429   7.101  0.2054 -0.3340  0.3420
   80MOL0     C10680   2.248   3.539   7.207 -1.1613 -0.1165 -0.1607
   80MOL0     C10681   2.300   3.495   7.351 -0.2152 -0.3288 -0.5026
   80MOL0     N10682   2.208   3.398   7.408  0.3981  0.8838 -0.6759
   80MOL0     C10683   2.077   3.424   7.459  0.1638 -0.4600 -0.1978
   80MOL0     C10684   2.038   3.305   7.508 -0.4674 -0.5412 -0.1161
   80MOL0     C10685   1.899   3.294   7.569  0.9495  0.5197 -0.4333
   80MOL0     C10686   1.909   3.341   7.713  0.3720  0.2495 -0.3989
   80MOL0     C10687   1.775   3.330   7.789  0.1924 -0.4897  0.9049
   80MOL0     C10688   1.772   3.403   7.919 -0.2299  0.2840 -0.8108
   80MOL0     O10689   1.638   3.417   7.956 -0.0884 -0.2094  0.7172
   80MOL0     C10690   1.606   3.451   8.085  0.9576 -0.2026 -0.6974
   80MOL0     C10691   1.683   3.496   8.188 -0.5266 -1.0078  0.4291
   80MOL0     C10692   1.639   3.530   8.317 -0.1555  0.5912 -0.5190
   80MOL0     C10693   1.741   3.610   8.400 -0.3336  0.1184  0.0255
   80MOL0     C10694   1.501   3.508   8.353  0.7251 -0.2965 -0.0298
   80MOL0     C10695   1.444   3.530   8.492  0.3352 -0.0473 -0.2537
   80MOL0     O10696   1.308   3.554   8.494 -0.1079 -0.4812 -0.2039
   80MOL0     C10697   1.235   3.539   8.611  0.0482  0.2250  0.0168
   80MOL0     C10698   1.140   3.637   8.641  0.0790 -0.2379  0.1906
   80MOL0     C10699   1.055   3.625   8.754 -0.3853 -0.1156  0.4644
   80MOL0     C10700   1.073   3.513   8.837  0.2714  0.6255 -0.7433
   80MOL0     O10701   0.982   3.483   8.936  0.5593  0.2568  0.1003
   80MOL0     C10702   0.847   3.532   8.919  0.2659 -0.2971  0.1951
   80MOL0     C10703   0.759   3.477   9.037 -0.6539  0.0199 -0.6119
   80MOL0     C10704   0.616   3.539   9.020 -0.5212 -0.0479 -0.0507
   80MOL0     C10705   0.515   3.476   9.115 -0.3952  1.4381 -0.3768
   80MOL0     C10706   0.365   3.503   9.071  0.3487 -0.5972 -1.3187
   80MOL0     C10707   0.250   3.461   9.164 -0.2177 -1.1363  0.2807
   80MOL0     C10708   0.108   3.502   9.113 -0.2510  0.4685 -0.2925
   80MOL0     C10709   0.010   3.394   9.160 -0.2726  0.2219 -0.1266
   80MOL0    Cl10710  -0.144   3.403   9.071 -0.0323  0.4155 -0.1511
   80MOL0     C10711   1.164   3.417   8.804  0.2898  0.0420 -0.8370
   80MOL0     C10712   1.251   3.429   8.695  0.0191 -0.6853 -0.2458
   80MOL0     O10713   1.525   3.535   8.589  0.0627  0.1889 -0.1048
   80MOL0     C10714   1.411   3.467   8.250  0.4555 -0.1983  0.0351
   80MOL0     C10715   1.465   3.439   8.123 -0.5385 -0.0997  0.0748
   80MOL0     N10716   2.139   3.209   7.489  1.0257  0.4515 -0.7320
   80MOL0     N10717   2.243   3.266   7.427  0.6906 -0.1531  0.4808
   80MOL0     C10718   2.825   3.672   6.624 -0.8829 -0.3607  0.5041
   80MOL0     C10719   2.955   3.706   6.591 -0.2404  0.1747  0.5541
   80MOL0     C10720   3.356   3.864   6.519  0.6527 -0.1650 -1.1311
   80MOL0     C10721   3.385   3.997   6.504  0.0560  0.4658  0.7587
   80MOL0     C10722   3.517   4.037   6.477  0.9369 -0.0768  0.5873
   80MOL0     C10723   3.611   3.946   6.437  0.3314 -0.4013  0.4684
   80MOL0     O10724   3.741   3.994   6.404 -0.1381 -0.4199 -0.5309
   80MOL0     C10725   3.844   3.907   6.372  0.2350 -0.0238 -0.1233
   80MOL0     C10726   3.959   3.998   6.325 -0.5034 -0.2137  0.2170
   80MOL0     C10727   4.077   3.920   6.281  0.2001  0.0159 -0.3507
   80MOL0     C10728   4.172   4.018   6.208  0.0309 -0.5085 -0.3964
   80MOL0     C10729   4.139   4.076   6.081  0.4352  0.4866  0.3250
   80MOL0     C10730   4.123   4.115   5.966 -0.1077 -0.1700 -0.3064
   80MOL0     C10731   3.581   3.806   6.458  0.2943  0.4260  0.5556
   80MOL0     C10732   3.460   3.770   6.509  0.4045 -0.5233  0.9675
   80MOL0     H10733   3.106   3.631   6.881  2.2901 -0.1273 -1.8877
   80MOL0     H10734   2.884   3.572   6.930 -0.3723 -0.6125 -0.1896
   80MOL0     H10735   2.556   3.678   6.667 -0.7139 -0.1007  0.7640
   80MOL0     H10736   2.591   3.507   6.629 -1.7562  0.0853 -1.2240
   80MOL0     H10737   2.377   3.519   6.706  0.6453 -2.8149  0.2727
   80MOL0     H10738   2.483   3.442   6.827  3.1842  0.6319 -0.3390
   80MOL0     H10739   2.467   3.620   6.987  0.0578  1.2445 -0.0389
   80MOL0     H10740   2.413   3.738   6.869 -0.7281  0.3685 -0.7440
   80MOL0     H10741   2.227   3.683   6.988 -0.8097 -1.1481  0.0141
   80MOL0     H10742   2.201   3.650   6.834  1.3840  0.4360 -2.3062
   80MOL0     H10743   2.093   3.479   6.975 -0.7872  0.4455 -1.3380
   80MOL0     H10744   2.218   3.392   6.898  0.0873  1.9722 -1.1262
   80MOL0     H10745   2.193   3.347   7.141 -2.0549  0.4415 -1.2515
   80MOL0     H10746   2.355   3.398   7.077  0.2238  0.8371 -1.2827
   80MOL0     H10747   2.310   3.626   7.184  1.8219 -1.6235  1.5685
   80MOL0     H10748   2.140   3.560   7.207 -1.6809 -1.3461 -5.6691
   80MOL0     H10749   2.287   3.580   7.419  0.3401 -1.4457  1.0627
   80MOL0     H10750   2.403   3.458   7.353  0.7057  1.9677  2.6379
   80MOL0     H10751   2.019   3.515   7.443  0.4911 -0.2547 -0.2411
   80MOL0     H10752   1.826   3.356   7.516 -0.8745 -1.3403 -0.2261
   80MOL0     H10753   1.866   3.190   7.581 -0.1200  1.1867  3.7527
   80MOL0     H10754   1.926   3.449   7.704  2.9716 -0.1143 -0.8552
   80MOL0     H10755   1.984   3.289   7.774 -1.4828 -2.3264 -0.1802
   80MOL0     H10756   1.744   3.227   7.812 -2.3423  0.2430  1.1032
   80MOL0     H10757   1.699   3.377   7.725  1.5237 -0.1037 -0.4498
   80MOL0     H10758   1.828   3.497   7.917  1.3981 -0.5389  1.4458
   80MOL0     H10759   1.825   3.343   7.994  1.6473  0.4870 -1.8970
   80MOL0     H10760   1.780   3.529   8.152  0.2348 -0.2490  2.9994
   80MOL0     H10761   1.784   3.537   8.470 -0.5615  0.6192  0.7058
   80MOL0     H10762   1.813   3.657   8.332  2.4904  0.5893  3.0514
   80MOL0     H10763   1.687   3.691   8.449 -1.2416  0.7992 -2.0194
   80MOL0     H10764   1.126   3.720   8.573 -2.4477 -0.3191  0.5451
   80MOL0     H10765   0.982   3.701   8.779 -1.8589 -2.2709  3.2500
   80MOL0     H10766   0.849   3.641   8.924 -1.0798 -0.1051 -1.9224
   80MOL0     H10767   0.807   3.502   8.821  1.3170  0.5768 -0.5280
   80MOL0     H10768   0.761   3.367   9.042 -0.2066  0.0688  1.3202
   80MOL0     H10769   0.803   3.517   9.129 -0.5730 -0.9998 -0.1864
   80MOL0     H10770   0.589   3.526   8.914 -4.1143  2.9703  0.2802
   80MOL0     H10771   0.624   3.647   9.033  1.8427 -0.4295  2.7228
   80MOL0     H10772   0.523   3.367   9.112 -1.8744  1.2245  1.5351
   80MOL0     H10773   0.541   3.513   9.215 -0.1441 -0.2802  0.2175
   80MOL0     H10774   0.344   3.457   8.974  0.2243 -0.1594 -1.5037
   80MOL0     H10775   0.360   3.612   9.078  0.4619 -0.6966  4.1398
   80MOL0     H10776   0.252   3.356   9.192  0.2253 -1.0889  0.4281
   80MOL0     H10777   0.264   3.512   9.260 -0.0668  0.8920 -0.7554
   80MOL0     H10778   0.108   3.502   9.004  1.1236 -1.9914 -0.3676
   80MOL0     H10779   0.082   3.601   9.150  0.2354  0.2437  0.6821
   80MOL0     H10780  -0.023   3.424   9.260 -1.5172  1.7813 -0.9502
   80MOL0     H10781   0.050   3.293   9.165  0.2926  0.4748  0.8670
   80MOL0     H10782   1.174   3.325   8.861 -2.0814 -1.8424 -3.2086
   80MOL0     H10783   1.314   3.347   8.661 -2.0724 -0.9210 -4.1777
   80MOL0     H10784   1.310   3.436   8.277  0.1306 -1.8894 -2.7324
   80MOL0     H10785   1.405   3.412   8.037 -0.9693  0.1055  0.3043
   80MOL0     H10786   2.753   3.681   6.543 -1.7945 -0.6081  1.2607
   80MOL0     H10787   2.986   3.755   6.499  0.0902 -1.2180 -0.0978
   80MOL0     H10788   3.315   4.074   6.534  1.3957  1.6358  1.0132
   80MOL0     H10789   3.532   4.144   6.480 -0.1117  0.0541  2.0184
   80MOL0     H10790   3.864   3.852   6.464  0.9624  3.2342  1.8090
   80MOL0     H10791   3.809   3.840   6.292 -0.0973  0.1577 -0.1299
   80MOL0     H10792   3.983   4.059   6.412  0.4991 -0.9606  0.4785
   80MOL0     H10793   3.923   4.056   6.239 -0.1211  2.3483  1.7083
   80MOL0     H10794   4.038   3.836   6.223 -3.4580  2.9382 -2.6033
   80MOL0     H10795   4.130   3.878   6.367 -1.2279  1.7426  1.4765
   80MOL0     H10796   4.258   3.954   6.184  2.5649  1.9527  1.4021
   80MOL0     H10797   4.192   4.102   6.275  0.0516 -0.5840 -0.3072
   80MOL0     H10798   4.108   4.136   5.862  1.9446  0.3381 -0.5384
   80MOL0     H10799   3.657   3.730   6.448 -1.0059 -0.9627  0.9458
   80MOL0     H10800   3.435   3.666   6.528  0.3664 -0.3466  1.9310
   81MOL0     O10801   8.307   6.146   4.152  0.5537 -0.6115 -0.0316
   81MOL0     C10802   8.348   6.252   4.205 -0.3096  1.1334 -0.1146
   81MOL0     O10803   8.298   6.382   4.186 -0.1182  0.4933  0.4721
   81MOL0     C10804   8.168   6.402   4.155  0.1440 -1.0763 -0.0287
   81MOL0     C10805   8.133   6.499   4.062 -0.6607 -0.4871  0.0603
   81MOL0     C10806   8.001   6.513   4.018 -0.1255  0.2810  0.0137
   81MOL0     C10807   7.901   6.419   4.056 -0.1089  0.0018 -0.8559
   81MOL0     O10808   7.783   6.431   3.997  0.2384  0.1734  0.3344
   81MOL0     C10809   7.696   6.326   4.026  0.6091  0.7641  0.9880
   81MOL0     C10810   7.584   6.335   3.929 -0.1708 -0.1897 -0.3426
   81MOL0     C10811   7.496   6.449   3.967 -0.2322 -0.3299  0.2738
   81MOL0     C10812   7.371   6.411   4.050  0.3034  0.3305 -0.1879
   81MOL0     C10813   7.296   6.531   4.098 -0.4122  0.3129 -0.9309
   81MOL0     C10814   7.188   6.480   4.199 -0.5116  0.7056  0.2347
   81MOL0     C10815   7.084   6.580   4.214 -0.6782  0.5103 -0.1801
   81MOL0     C10816   7.142   6.713   4.270  0.0012  0.2491  1.1953
   81MOL0     N10817   7.036   6.811   4.287  0.2529  0.3867 -0.2369
   81MOL0     C10818   7.005   6.855   4.415  0.2138  0.4772 -0.7984
   81MOL0     C10819   6.924   6.961   4.392  0.6364 -0.3629 -0.1378
   81MOL0     C10820   6.871   7.054   4.496  0.4056 -0.0035  0.0660
   81MOL0     C10821   6.718   7.045   4.524  0.1927  0.2809  0.5647
   81MOL0     C10822   6.668   7.147   4.625  0.5698 -0.2348  0.5887
   81MOL0     C10823   6.526   7.184   4.616  0.7836  0.1686  0.5370
   81MOL0     O10824   6.437   7.090   4.685  0.2585  0.1742 -0.3752
   81MOL0     C10825   6.303   7.106   4.672  0.3719  0.1067 -0.3901
   81MOL0     C10826   6.226   7.051   4.566 -0.1591 -0.4974 -0.1511
   81MOL0     C10827   6.089   7.073   4.539 -0.5266  0.6060 -1.2253
   81MOL0     C10828   6.036   6.999   4.426  0.0514 -0.4452 -0.2213
   81MOL0     C10829   6.018   7.158   4.635  0.3439  0.5243  0.0376
   81MOL0     C10830   5.875   7.196   4.626  0.9446  0.3116 -0.1976
   81MOL0     O10831   5.841   7.288   4.723  0.6053  0.3706 -0.1671
   81MOL0     C10832   5.719   7.342   4.708  0.3104  0.1367 -0.4792
   81MOL0     C10833   5.689   7.433   4.605  0.0581 -0.1014  0.4851
   81MOL0     C10834   5.565   7.487   4.588 -0.1549  0.1157 -0.6417
   81MOL0     C10835   5.464   7.457   4.671 -0.7437  0.6673 -0.1470
   81MOL0     O10836   5.348   7.518   4.648 -0.3449 -0.1645  0.2301
   81MOL0     C10837   5.250   7.512   4.751  0.4352 -0.5558  0.5831
   81MOL0     C10838   5.139   7.621   4.727 -0.1485  0.3284 -0.0299
   81MOL0     C10839   5.019   7.582   4.639  0.5289  0.2549  0.2456
   81MOL0     C10840   4.928   7.696   4.643  0.5645 -0.3801  0.1069
   81MOL0     C10841   4.810   7.671   4.552  0.2241  0.0247 -0.4738
   81MOL0     C10842   4.705   7.568   4.599 -0.3958 -0.0130 -0.5577
   81MOL0     C10843   4.625   7.604   4.728  0.1463  0.2564 -0.7062
   81MOL0     C10844   4.501   7.692   4.686  0.0297 -0.4419 -0.1596
   81MOL0    Cl10845   4.371   7.604   4.596  0.4462 -0.3462 -0.0552
   81MOL0     C10846   5.488   7.363   4.774 -0.3630  0.0043 -0.1748
   81MOL0     C10847   5.615   7.308   4.786  0.0604  0.0186 -0.7245
   81MOL0     O10848   5.812   7.161   4.532 -0.6170  0.3557  0.3675
   81MOL0     C10849   6.091   7.207   4.747  0.6464 -0.8276  0.1845
   81MOL0     C10850   6.228   7.189   4.767  0.3687 -0.3520 -0.1576
   81MOL0     N10851   6.896   6.969   4.257  0.1359 -0.0118  0.0043
   81MOL0     N10852   6.966   6.883   4.192  0.0466  0.0304 -0.4145
   81MOL0     C10853   7.939   6.326   4.160  0.2395 -0.0353 -0.4953
   81MOL0     C10854   8.069   6.327   4.213  1.3916 -0.5138  0.3676
   81MOL0     C10855   8.461   6.242   4.301  0.2154  0.4602 -0.8233
   81MOL0     C10856   8.522   6.125   4.336  0.0131  0.0171 -0.0787
   81MOL0     C10857   8.630   6.120   4.420 -0.9007 -0.3470  0.3118
   81MOL0     C10858   8.673   6.228   4.491  0.1289 -0.4232 -0.0567
   81MOL0     O10859   8.781   6.211   4.581  0.6778  0.2025  0.9223
   81MOL0     C10860   8.828   6.309   4.670 -0.1653  0.3023 -0.2132
   81MOL0     C10861   8.739   6.316   4.796  0.3129 -0.3388  1.3973
   81MOL0     C10862   8.747   6.188   4.885 -0.0683  0.1536  0.6236
   81MOL0     C10863   8.649   6.082   4.822  0.4072  0.1886 -0.5767
   81MOL0     C10864   8.619   5.966   4.913  0.4808 -0.2601  0.2709
   81MOL0     C10865   8.596   5.872   4.985 -0.3532 -0.6523  0.6423
   81MOL0     C10866   8.611   6.353   4.462 -0.0521  0.2380 -0.5188
   81MOL0     C10867   8.511   6.359   4.367 -0.2836  0.0711  0.2565
   81MOL0     H10868   8.220   6.551   4.024 -1.6682 -0.5670 -2.6140
   81MOL0     H10869   7.977   6.586   3.941  1.7060  0.2270 -0.6447
   81MOL0     H10870   7.738   6.227   4.007 -0.8883  0.3024 -0.1243
   81MOL0     H10871   7.659   6.334   4.129  0.1167 -0.5485  0.9326
   81MOL0     H10872   7.615   6.363   3.828 -0.0643  0.0194 -0.2517
   81MOL0     H10873   7.529   6.240   3.929  0.7492 -0.7524 -1.9708
   81MOL0     H10874   7.537   6.535   4.021 -0.1339 -1.2885  1.7906
   81MOL0     H10875   7.453   6.504   3.883  2.5503  4.2549  1.5193
   81MOL0     H10876   7.302   6.344   3.998 -0.1090 -1.6653  2.6761
   81MOL0     H10877   7.408   6.359   4.140 -0.4708  0.6568  0.3217
   81MOL0     H10878   7.365   6.596   4.153 -0.0695 -2.4109  2.1096
   81MOL0     H10879   7.260   6.584   4.009 -0.0352 -1.0286 -1.9228
   81MOL0     H10880   7.144   6.389   4.156  0.0807  0.6605 -0.2927
   81MOL0     H10881   7.237   6.453   4.293 -2.4993  1.2595  1.4849
   81MOL0     H10882   7.054   6.600   4.111  2.8488  0.6640 -1.3355
   81MOL0     H10883   6.996   6.545   4.269 -0.4592  0.3496  0.0708
   81MOL0     H10884   7.210   6.754   4.195  0.5917 -2.0373  0.4044
   81MOL0     H10885   7.204   6.688   4.357  0.4691 -0.3737  0.6962
   81MOL0     H10886   7.046   6.822   4.510  0.1631  3.1357  0.2293
   81MOL0     H10887   6.912   7.022   4.592  1.0085  0.3438 -0.0661
   81MOL0     H10888   6.894   7.158   4.471  1.3946 -0.2519 -0.1009
   81MOL0     H10889   6.687   6.944   4.549  2.4246 -0.3632  1.0152
   81MOL0     H10890   6.663   7.062   4.431  2.4011 -1.1192 -1.1240
   81MOL0     H10891   6.721   7.240   4.602 -1.0208 -0.0532 -3.0363
   81MOL0     H10892   6.684   7.128   4.732 -0.1094 -0.5482  0.6390
   81MOL0     H10893   6.488   7.204   4.515  0.9802  0.3460  0.4951
   81MOL0     H10894   6.519   7.278   4.672  3.6835  1.6125 -1.2617
   81MOL0     H10895   6.291   6.999   4.496 -1.4407 -0.9728 -1.0209
   81MOL0     H10896   6.102   6.914   4.410  2.4195  1.2208  0.0991
   81MOL0     H10897   5.933   6.969   4.449 -0.1957 -0.7494 -1.6669
   81MOL0     H10898   6.027   7.060   4.336 -0.5747 -0.3752 -0.1159
   81MOL0     H10899   5.770   7.462   4.538 -1.9142  1.4987 -1.3614
   81MOL0     H10900   5.542   7.560   4.511 -1.1822  2.3939  1.6735
   81MOL0     H10901   5.195   7.418   4.759 -3.0921  1.2007 -1.0412
   81MOL0     H10902   5.300   7.523   4.848  2.3431 -2.7308 -0.0545
   81MOL0     H10903   5.103   7.648   4.826  3.5540  0.4882  1.4104
   81MOL0     H10904   5.193   7.706   4.684  2.3405 -0.8667  0.5260
   81MOL0     H10905   4.977   7.492   4.685  2.9702 -0.9898  0.2166
   81MOL0     H10906   5.039   7.564   4.533 -0.3290  1.4020 -0.1292
   81MOL0     H10907   4.906   7.703   4.750  1.7597  1.9613  0.2734
   81MOL0     H10908   4.977   7.791   4.619  0.2442  0.5133  2.6476
   81MOL0     H10909   4.831   7.648   4.447 -0.4621 -1.3344 -0.3300
   81MOL0     H10910   4.749   7.761   4.556 -0.9170 -0.7088 -0.8346
   81MOL0     H10911   4.634   7.545   4.519 -1.4740 -0.7179  0.5484
   81MOL0     H10912   4.752   7.472   4.624 -1.2867 -0.7300 -1.5162
   81MOL0     H10913   4.697   7.649   4.797 -2.6399  0.6279  2.1774
   81MOL0     H10914   4.595   7.514   4.782  1.5938  1.1650  1.7752
   81MOL0     H10915   4.538   7.772   4.620  2.6341 -1.3397  0.0796
   81MOL0     H10916   4.462   7.748   4.772  2.6444  1.5274 -0.1003
   81MOL0     H10917   5.413   7.325   4.842  2.6788 -2.3406  2.1696
   81MOL0     H10918   5.642   7.226   4.852 -0.2160 -0.9831 -1.8172
   81MOL0     H10919   6.044   7.266   4.825 -0.0058 -0.1301 -0.7157
   81MOL0     H10920   6.272   7.229   4.858  1.5860  3.0768 -2.0758
   81MOL0     H10921   7.868   6.254   4.201  1.9002 -2.1859 -1.2202
   81MOL0     H10922   8.090   6.256   4.292  1.7751  1.2236  1.8896
   81MOL0     H10923   8.503   6.031   4.285 -1.6283  0.4364 -0.3060
   81MOL0     H10924   8.691   6.032   4.439 -0.1546  0.1071  0.0800
   81MOL0     H10925   8.933   6.291   4.694  0.0851 -1.8287 -2.4819
   81MOL0     H10926   8.824   6.406   4.620 -1.8950  0.7452  0.7213
   81MOL0     H10927   8.636   6.338   4.767  0.1164 -1.2964  1.3416
   81MOL0     H10928   8.773   6.402   4.855 -0.1511  2.8682 -2.6149
   81MOL0     H10929   8.716   6.216   4.986 -2.2994  0.1638 -0.0072
   81MOL0     H10930   8.847   6.144   4.885  0.0192  0.2771  2.5227
   81MOL0     H10931   8.689   6.038   4.731  2.4616 -0.1547  0.4397
   81MOL0     H10932   8.557   6.134   4.792  0.2560  0.3126  0.0707
   81MOL0     H10933   8.571   5.790   5.049 -2.0115 -1.9065 -1.4766
   81MOL0     H10934   8.631   6.444   4.518  0.1854 -0.8803  1.2888
   81MOL0     H10935   8.466   6.455   4.346  0.2618  0.4794  0.9321
   82MOL0     O10936   9.910   2.151   8.109  0.0310  0.5329  0.2782
   82MOL0     C10937   9.958   2.103   8.007  0.1109 -0.1382  0.2834
   82MOL0     O10938   9.923   2.141   7.870  0.8071  0.4731  0.0612
   82MOL0     C10939   9.812   2.221   7.843  0.2174 -0.1382  0.3326
   82MOL0     C10940   9.817   2.290   7.721  0.2994  0.8945 -0.2113
   82MOL0     C10941   9.704   2.355   7.666 -0.0672  0.2847 -0.1317
   82MOL0     C10942   9.589   2.364   7.743  0.3074 -1.3210 -0.0456
   82MOL0     O10943   9.478   2.429   7.680  0.1752  0.3462 -0.0088
   82MOL0     C10944   9.379   2.490   7.757 -0.5492  0.5727 -0.5293
   82MOL0     C10945   9.264   2.555   7.674  0.6917  0.3025 -0.1304
   82MOL0     C10946   9.126   2.539   7.735 -0.1067 -0.8590  0.5640
   82MOL0     C10947   9.023   2.572   7.617 -0.1082 -0.0472  0.2010
   82MOL0     C10948   8.874   2.553   7.647  0.1088 -0.4286  0.3462
   82MOL0     C10949   8.781   2.588   7.529  0.0145  0.2127  0.6288
   82MOL0     C10950   8.630   2.601   7.567 -0.1535 -0.1085 -0.7452
   82MOL0     C10951   8.553   2.681   7.456 -0.0564 -0.5770 -0.3360
   82MOL0     N10952   8.408   2.712   7.491 -0.1299  0.1390 -0.0071
   82MOL0     C10953   8.361   2.833   7.529 -0.4769  1.1055 -0.4577
   82MOL0     C10954   8.229   2.830   7.540  0.6347 -0.3540 -0.3652
   82MOL0     C10955   8.145   2.950   7.584  0.3860  0.9499  0.2689
   82MOL0     C10956   7.997   2.937   7.603 -0.1475  0.6747  0.2987
   82MOL0     C10957   7.928   2.880   7.484 -0.0429  0.2633 -0.0995
   82MOL0     C10958   7.780   2.860   7.519 -0.0665 -0.1007  0.0631
   82MOL0     O10959   7.706   2.842   7.405  0.1239  0.4343  0.9882
   82MOL0     C10960   7.571   2.852   7.413 -0.0802  0.1681 -0.5841
   82MOL0     C10961   7.498   2.851   7.293  0.0605  0.0983  0.3303
   82MOL0     C10962   7.358   2.841   7.296 -0.5694  1.2137  0.4118
   82MOL0     C10963   7.300   2.810   7.161  0.1819 -0.1807 -0.5033
   82MOL0     C10964   7.280   2.866   7.415  0.1582  0.5870 -0.0471
   82MOL0     C10965   7.133   2.878   7.426 -0.0241  0.0637 -0.1968
   82MOL0     O10966   7.075   2.925   7.317 -0.6564  0.7913 -0.6166
   82MOL0     C10967   6.944   2.935   7.306 -0.4008 -0.0140 -0.5766
   82MOL0     C10968   6.885   2.841   7.214 -0.5534 -0.6043  0.4040
   82MOL0     C10969   6.742   2.828   7.203 -0.0435 -0.6988  0.2978
   82MOL0     C10970   6.663   2.922   7.265  0.1956  0.1530  0.2084
   82MOL0     O10971   6.523   2.914   7.257 -0.9017  0.3373  0.0030
   82MOL0     C10972   6.459   3.027   7.212  0.0898 -0.1703 -0.4440
   82MOL0     C10973   6.310   2.998   7.200 -0.5091 -0.0337 -1.5000
   82MOL0     C10974   6.280   2.888   7.097 -0.1091 -0.3327 -0.5853
   82MOL0     C10975   6.141   2.829   7.115  1.2292 -0.6239 -0.3519
   82MOL0     C10976   6.107   2.712   7.018 -0.0025 -0.1282  0.4049
   82MOL0     C10977   6.091   2.762   6.869 -0.3687 -0.8269 -0.5723
   82MOL0     C10978   6.057   2.636   6.783  0.7410 -0.4016  0.2224
   82MOL0     C10979   6.039   2.654   6.636  0.6700 -0.9757 -1.1640
   82MOL0    Cl10980   6.192   2.687   6.552  0.0663  0.3659 -0.0110
   82MOL0     C10981   6.723   3.021   7.346 -0.1525 -0.0064 -0.1147
   82MOL0     C10982   6.865   3.030   7.366  0.0819  0.3911 -0.2679
   82MOL0     O10983   7.081   2.843   7.530 -0.1157  0.1004 -0.6044
   82MOL0     C10984   7.357   2.870   7.536 -0.3267  0.1459  0.5271
   82MOL0     C10985   7.498   2.862   7.534 -0.6032 -0.2381  0.4494
   82MOL0     N10986   8.198   2.696   7.524  0.3189 -0.0047  0.1808
   82MOL0     N10987   8.302   2.623   7.500  0.2825 -0.4392 -0.0987
   82MOL0     C10988   9.591   2.312   7.876  0.4316 -0.0269 -0.8548
   82MOL0     C10989   9.701   2.240   7.926  0.3843  0.3379 -0.2443
   82MOL0     C10990  10.064   2.012   8.017 -0.3705 -0.3432 -0.3452
   82MOL0     C10991  10.153   1.986   7.909  0.2635 -0.0519  0.1434
   82MOL0     C10992  10.264   1.898   7.922  0.7221  0.2818  0.2049
   82MOL0     C10993  10.290   1.834   8.052 -0.4451  0.4082  0.5227
   82MOL0     O10994  10.392   1.752   8.083  0.0550 -0.1575 -0.4453
   82MOL0     C10995  10.507   1.797   8.013  0.0306 -0.1176  0.0610
   82MOL0     C10996  10.627   1.715   8.077  1.3283  0.3072  0.3623
   82MOL0     C10997  10.745   1.721   7.980  0.7045 -0.2446 -0.3711
   82MOL0     C10998  10.843   1.612   8.016  0.3568  0.3222 -0.1711
   82MOL0     C10999  10.885   1.628   8.155 -0.4444 -0.1206  0.4844
   82MOL0     C11000  10.905   1.618   8.282  0.1571  0.0708 -0.3107
   82MOL0     C11001  10.199   1.864   8.156 -0.3178  0.1931 -0.3219
   82MOL0     C11002  10.096   1.951   8.140 -0.4536 -0.3916 -0.5246
   82MOL0     H11003   9.912   2.295   7.668 -0.2454  1.0176 -1.2056
   82MOL0     H11004   9.705   2.401   7.567 -2.3652 -0.8555 -0.7676
   82MOL0     H11005   9.329   2.406   7.807  0.5495  0.6422  0.7202
   82MOL0     H11006   9.426   2.560   7.826  2.6017 -2.1400  0.3205
   82MOL0     H11007   9.285   2.661   7.662 -2.7311  0.9179 -1.9338
   82MOL0     H11008   9.253   2.509   7.575  0.5129  0.4277 -0.1678
   82MOL0     H11009   9.109   2.436   7.767 -0.9650 -0.3316  1.8908
   82MOL0     H11010   9.114   2.608   7.819  1.2528 -2.7582  2.4279
   82MOL0     H11011   9.037   2.677   7.591 -1.7028 -0.2135 -1.5540
   82MOL0     H11012   9.053   2.521   7.525  4.3836  1.1516  0.7924
   82MOL0     H11013   8.847   2.452   7.681 -1.4476  0.3781  1.6099
   82MOL0     H11014   8.862   2.628   7.726  2.5453  1.5056 -0.9871
   82MOL0     H11015   8.806   2.681   7.478 -1.3362 -1.0810 -2.7732
   82MOL0     H11016   8.796   2.508   7.455 -0.9607  0.9337 -0.3889
   82MOL0     H11017   8.589   2.499   7.566  1.9912 -1.0433 -2.4902
   82MOL0     H11018   8.612   2.648   7.664 -3.4823 -4.3393  1.0314
   82MOL0     H11019   8.556   2.625   7.362  4.6380  0.6805 -1.1846
   82MOL0     H11020   8.609   2.772   7.434 -0.2751 -0.2357  0.4799
   82MOL0     H11021   8.412   2.928   7.544 -2.3650  2.5595 -2.5156
   82MOL0     H11022   8.192   2.979   7.679 -2.5430 -1.4844  2.6738
   82MOL0     H11023   8.154   3.034   7.514 -2.1010 -0.2849 -1.6537
   82MOL0     H11024   7.967   3.041   7.624  0.0986  1.1501 -1.5497
   82MOL0     H11025   7.993   2.873   7.692  0.9587 -0.2429 -0.2836
   82MOL0     H11026   7.978   2.792   7.442 -0.5480  0.0809 -0.3425
   82MOL0     H11027   7.910   2.944   7.397 -1.4803 -1.9271 -1.5302
   82MOL0     H11028   7.738   2.946   7.573 -0.5268  0.2991 -0.9161
   82MOL0     H11029   7.764   2.771   7.581 -1.2473 -1.2750 -1.8186
   82MOL0     H11030   7.560   2.838   7.205 -0.9663 -0.2611 -0.3691
   82MOL0     H11031   7.219   2.738   7.159 -0.4351  0.5068 -1.1493
   82MOL0     H11032   7.252   2.899   7.117 -1.4121 -1.0443 -0.5797
   82MOL0     H11033   7.380   2.773   7.096  0.8584 -0.9799  0.7415
   82MOL0     H11034   6.938   2.764   7.158  2.6626  1.4065  0.3950
   82MOL0     H11035   6.699   2.747   7.145 -2.6792  0.3084  0.7055
   82MOL0     H11036   6.472   3.118   7.271  2.1248 -0.4846 -0.3544
   82MOL0     H11037   6.504   3.041   7.114  2.7574 -4.3225 -0.0726
   82MOL0     H11038   6.261   2.974   7.294 -1.9761 -2.0077 -2.6916
   82MOL0     H11039   6.264   3.089   7.160  1.2891  1.0990 -1.1307
   82MOL0     H11040   6.347   2.801   7.106 -0.6457 -0.7275 -0.3236
   82MOL0     H11041   6.293   2.924   6.995  2.3505 -1.9552 -0.9238
   82MOL0     H11042   6.139   2.786   7.215  0.3076 -2.0673 -0.9627
   82MOL0     H11043   6.068   2.912   7.112  1.3976 -0.3087  2.3895
   82MOL0     H11044   6.012   2.664   7.044 -0.0173 -0.6838 -0.6106
   82MOL0     H11045   6.183   2.633   7.012  1.5897  1.3376  0.5268
   82MOL0     H11046   6.009   2.834   6.873  0.7018  0.4684  3.9034
   82MOL0     H11047   6.175   2.814   6.821 -2.1081  0.1279 -2.7223
   82MOL0     H11048   5.969   2.601   6.838 -0.7606  2.0184 -0.5021
   82MOL0     H11049   6.132   2.561   6.810  0.3878 -0.4277  1.1729
   82MOL0     H11050   5.973   2.739   6.614  1.1684  0.3489  1.9115
   82MOL0     H11051   5.993   2.564   6.594  0.3640 -1.3088 -0.1406
   82MOL0     H11052   6.653   3.085   7.399 -1.8444  0.1682 -2.4325
   82MOL0     H11053   6.902   3.109   7.430  1.4789  1.0212 -1.7598
   82MOL0     H11054   7.311   2.890   7.633  0.4516  2.5125  0.4774
   82MOL0     H11055   7.537   2.882   7.634 -0.2330  0.8478  0.1049
   82MOL0     H11056   9.503   2.319   7.938  2.1422 -1.5114  1.9130
   82MOL0     H11057   9.683   2.184   8.017 -1.7755 -0.3499 -1.0395
   82MOL0     H11058  10.140   2.036   7.814 -2.6310 -2.1477 -0.7248
   82MOL0     H11059  10.328   1.886   7.835  0.2026 -2.8364  0.1181
   82MOL0     H11060  10.504   1.767   7.908 -0.0518 -0.9503  0.2932
   82MOL0     H11061  10.524   1.905   8.018  0.5169 -0.2339  1.4817
   82MOL0     H11062  10.584   1.615   8.087  1.0915  0.5033  1.4083
   82MOL0     H11063  10.667   1.747   8.174  0.7730 -0.7911  0.9738
   82MOL0     H11064  10.802   1.814   7.969  0.3730 -0.1672 -1.5169
   82MOL0     H11065  10.703   1.695   7.883 -1.1867  3.4641 -0.7149
   82MOL0     H11066  10.929   1.616   7.948 -0.9369  2.5271 -1.8522
   82MOL0     H11067  10.804   1.511   8.013  1.0869  0.0393 -1.8351
   82MOL0     H11068  10.923   1.614   8.387  1.1264 -0.2151 -0.4769
   82MOL0     H11069  10.212   1.815   8.252 -0.0859 -0.5896 -0.7436
   82MOL0     H11070  10.024   1.959   8.221  0.3083  0.5397  0.0854
   83MOL0     O11071   5.876   3.794   8.067  0.2141  0.1706  0.9475
   83MOL0     C11072   5.862   3.876   8.159 -0.6009  0.4241  0.0513
   83MOL0     O11073   5.947   3.897   8.261 -1.3611 -0.0727 -0.2849
   83MOL0     C11074   6.062   3.818   8.262  0.8598 -0.7817 -0.2315
   83MOL0     C11075   6.059   3.676   8.243 -0.3968  0.3522  0.3514
   83MOL0     C11076   6.178   3.612   8.239 -0.1323  0.8568 -0.8653
   83MOL0     C11077   6.300   3.679   8.251 -0.7877  0.0819 -0.2152
   83MOL0     O11078   6.407   3.601   8.250  0.2266 -0.3268  0.0712
   83MOL0     C11079   6.537   3.656   8.295  0.2940  0.1980 -1.0601
   83MOL0     C11080   6.538   3.674   8.449 -0.4634  0.0719 -0.4108
   83MOL0     C11081   6.680   3.655   8.505 -1.0289  0.1781  0.6684
   83MOL0     C11082   6.662   3.682   8.660 -0.8062  0.8466 -0.0897
   83MOL0     C11083   6.792   3.618   8.728  0.6983  0.3344  0.6289
   83MOL0     C11084   6.768   3.619   8.877 -0.3175  0.7649 -0.2818
   83MOL0     C11085   6.735   3.757   8.936  0.3211  0.1317  0.9469
   83MOL0     C11086   6.725   3.755   9.085 -0.1782 -0.2708  0.2294
   83MOL0     N11087   6.655   3.641   9.147 -0.3120  0.1009 -0.4326
   83MOL0     C11088   6.691   3.508   9.173 -0.0804 -0.1019  0.6325
   83MOL0     C11089   6.581   3.440   9.214  0.3455  0.5644  0.5743
   83MOL0     C11090   6.579   3.295   9.264  0.3243 -0.2324 -0.3849
   83MOL0     C11091   6.704   3.207   9.254 -0.3324  0.0236 -0.1575
   83MOL0     C11092   6.676   3.056   9.280  0.0163 -0.2273  0.3306
   83MOL0     C11093   6.799   2.979   9.333  0.7956 -0.3886  0.0584
   83MOL0     O11094   6.855   3.034   9.450 -0.3535 -0.7583  0.5224
   83MOL0     C11095   6.775   3.025   9.559  0.6540  0.2483  0.7072
   83MOL0     C11096   6.736   2.902   9.613 -0.9967  0.1972  0.2834
   83MOL0     C11097   6.641   2.908   9.715  0.6271 -0.4303 -0.2694
   83MOL0     C11098   6.597   2.774   9.754  1.1623 -0.1437 -0.0903
   83MOL0     C11099   6.571   3.023   9.762  0.3258  0.4084 -0.5029
   83MOL0     C11100   6.453   3.023   9.856  0.4608 -0.5358  0.3987
   83MOL0     O11101   6.372   3.131   9.845  0.2852 -0.4449  0.1146
   83MOL0     C11102   6.276   3.169   9.942 -0.2243  0.4543  0.7178
   83MOL0     C11103   6.158   3.106   9.973 -0.9280 -0.1258 -0.0505
   83MOL0     C11104   6.071   3.149  10.073  0.5157  0.1230  0.4606
   83MOL0     C11105   6.098   3.280  10.132 -0.3619  0.4065  0.1150
   83MOL0     O11106   6.014   3.345  10.216 -0.2223  0.2286 -0.3362
   83MOL0     C11107   5.888   3.297  10.253 -0.5328 -0.1267  0.3473
   83MOL0     C11108   5.785   3.334  10.151 -0.5694  0.7319  0.7381
   83MOL0     C11109   5.638   3.298  10.170 -0.6196 -0.2800  0.5265
   83MOL0     C11110   5.575   3.360  10.288  0.0981 -0.4697 -0.3127
   83MOL0     C11111   5.426   3.339  10.302  1.2029  0.4834  0.1975
   83MOL0     C11112   5.368   3.402  10.433 -0.4941  0.5931 -0.0525
   83MOL0     C11113   5.229   3.352  10.482 -1.4021  0.7056 -0.2663
   83MOL0     C11114   5.127   3.340  10.368 -1.0480 -0.4476 -0.5904
   83MOL0    Cl11115   4.967   3.279  10.436 -0.0943  0.0448  0.2562
   83MOL0     C11116   6.220   3.345  10.103  0.7306  0.0311  0.1665
   83MOL0     C11117   6.299   3.288  10.007  0.9761 -0.7560  0.0124
   83MOL0     O11118   6.453   2.951   9.955  0.4676 -0.1091  0.6102
   83MOL0     C11119   6.618   3.142   9.707 -0.1830 -0.3614 -0.3143
   83MOL0     C11120   6.723   3.143   9.608 -0.0112  0.5797  0.7274
   83MOL0     N11121   6.481   3.536   9.214  0.5896  0.4555  0.5423
   83MOL0     N11122   6.523   3.654   9.171 -0.0801 -0.3590  1.2595
   83MOL0     C11123   6.299   3.823   8.270  0.0138 -0.7347  0.4270
   83MOL0     C11124   6.180   3.892   8.276 -0.6170  0.3604 -0.0764
   83MOL0     C11125   5.736   3.956   8.158 -0.1323 -0.7164 -0.7056
   83MOL0     C11126   5.627   3.928   8.077 -0.2175  0.0751  0.4433
   83MOL0     C11127   5.516   4.012   8.074 -0.0284  0.4234 -0.3000
   83MOL0     C11128   5.519   4.127   8.156  0.6904 -0.0168  0.8209
   83MOL0     O11129   5.404   4.203   8.153  0.0546 -0.3880 -0.9695
   83MOL0     C11130   5.287   4.150   8.213  0.5236 -0.7373  0.2066
   83MOL0     C11131   5.151   4.179   8.148  0.5445 -0.6698  0.8125
   83MOL0     C11132   5.044   4.102   8.241  0.0496  0.1065  0.8504
   83MOL0     C11133   4.904   4.129   8.180 -0.1001 -0.0391  0.0907
   83MOL0     C11134   4.798   4.040   8.232  0.0188  0.6137  0.0899
   83MOL0     C11135   4.711   3.974   8.279 -0.3129 -0.1249 -0.3971
   83MOL0     C11136   5.624   4.159   8.234 -0.3621 -0.4438 -0.3528
   83MOL0     C11137   5.731   4.076   8.235 -2.0083  0.0539  0.1042
   83MOL0     H11138   5.962   3.628   8.243  0.1341 -0.9224 -2.7771
   83MOL0     H11139   6.188   3.504   8.234  0.5770  0.7868  1.1057
   83MOL0     H11140   6.599   3.571   8.265 -1.0784 -0.2962 -2.6232
   83MOL0     H11141   6.563   3.741   8.231 -0.9750  0.4070 -1.3127
   83MOL0     H11142   6.500   3.769   8.486 -3.5885 -0.4666 -1.9055
   83MOL0     H11143   6.471   3.601   8.496 -0.1689  0.3173  0.4043
   83MOL0     H11144   6.699   3.548   8.493 -0.5411  0.1544  1.5623
   83MOL0     H11145   6.767   3.705   8.461  2.1988 -4.5959  0.7918
   83MOL0     H11146   6.647   3.788   8.683 -3.1423  0.3132  1.0830
   83MOL0     H11147   6.575   3.628   8.698  0.3379 -0.6933  0.4178
   83MOL0     H11148   6.806   3.512   8.705 -1.3719 -0.1910  1.5536
   83MOL0     H11149   6.887   3.667   8.705  1.0422 -0.3508  0.5662
   83MOL0     H11150   6.678   3.559   8.895 -0.0271  0.8052  1.4907
   83MOL0     H11151   6.854   3.578   8.930  0.0395  0.4457 -1.0914
   83MOL0     H11152   6.805   3.837   8.910  1.0120 -1.2566 -1.9025
   83MOL0     H11153   6.641   3.781   8.884  1.5243 -2.1826 -2.6580
   83MOL0     H11154   6.692   3.847   9.135  0.1806  1.2179 -2.1495
   83MOL0     H11155   6.828   3.743   9.120  0.4693  0.8462 -1.2209
   83MOL0     H11156   6.790   3.469   9.148  1.2613  1.7915  2.6023
   83MOL0     H11157   6.539   3.270   9.363 -2.3528 -4.3961 -2.2203
   83MOL0     H11158   6.499   3.255   9.201  2.5387 -1.6697 -2.4581
   83MOL0     H11159   6.778   3.240   9.328 -1.1983  0.7412  0.4063
   83MOL0     H11160   6.743   3.219   9.152 -2.5658  1.4090 -0.9300
   83MOL0     H11161   6.643   3.015   9.184 -3.2558  0.6701  0.9446
   83MOL0     H11162   6.592   3.042   9.349  0.2774 -3.9818  0.1068
   83MOL0     H11163   6.879   2.977   9.258  1.5556  0.2419  0.8474
   83MOL0     H11164   6.766   2.875   9.343  0.3585 -0.1857  0.7104
   83MOL0     H11165   6.756   2.803   9.575  1.3990  0.8641 -0.3672
   83MOL0     H11166   6.686   2.718   9.786  1.7429  1.1525  0.6522
   83MOL0     H11167   6.530   2.779   9.840  0.7679  5.7058 -0.3759
   83MOL0     H11168   6.542   2.723   9.675 -0.4314 -2.7386  2.4846
   83MOL0     H11169   6.126   3.010   9.932 -1.1494  0.2257 -0.7025
   83MOL0     H11170   5.998   3.079  10.112 -0.4327  1.9006  2.0548
   83MOL0     H11171   5.892   3.189  10.267  2.5781 -0.0597  0.8686
   83MOL0     H11172   5.863   3.355  10.343  1.8420  0.2079  0.8713
   83MOL0     H11173   5.802   3.440  10.131 -0.2388  0.4993 -0.3344
   83MOL0     H11174   5.815   3.280  10.060 -0.8586  0.1334  0.9923
   83MOL0     H11175   5.635   3.190  10.186  1.5017 -0.2131  1.7172
   83MOL0     H11176   5.593   3.307  10.070 -0.5209  1.0634  0.5893
   83MOL0     H11177   5.611   3.325  10.385 -0.1590 -1.6618 -0.6314
   83MOL0     H11178   5.598   3.467  10.289  0.3462 -0.5266  0.4491
   83MOL0     H11179   5.408   3.232  10.293  0.3007  0.5206  1.2704
   83MOL0     H11180   5.375   3.396  10.223  1.4822  1.2364  0.5467
   83MOL0     H11181   5.450   3.407  10.506 -0.7768  5.0860  0.2338
   83MOL0     H11182   5.342   3.505  10.410 -1.4083  0.8438  1.8660
   83MOL0     H11183   5.186   3.412  10.562 -0.4473 -0.8759  1.5308
   83MOL0     H11184   5.254   3.253  10.523 -3.2973 -0.5107 -1.9051
   83MOL0     H11185   5.153   3.274  10.285  3.6869 -0.2599  0.4583
   83MOL0     H11186   5.109   3.442  10.334  0.5045  1.2418  3.0943
   83MOL0     H11187   6.245   3.445  10.136  1.0102 -0.0779  0.2828
   83MOL0     H11188   6.383   3.348   9.973  0.6199 -0.9058 -1.1752
   83MOL0     H11189   6.581   3.238   9.741 -1.3669 -0.2644 -1.7924
   83MOL0     H11190   6.762   3.236   9.569  1.9812 -0.0263  1.1560
   83MOL0     H11191   6.392   3.878   8.273  0.6791 -1.8589  2.2878
   83MOL0     H11192   6.173   4.000   8.269  1.8933  0.4898 -1.6868
   83MOL0     H11193   5.643   3.849   8.005  0.7661  1.7650 -1.2869
   83MOL0     H11194   5.436   3.996   8.003 -2.2914 -1.4523  2.4283
   83MOL0     H11195   5.296   4.041   8.222  1.1141 -0.9006 -1.9665
   83MOL0     H11196   5.283   4.191   8.315 -0.4893  1.1498 -0.5458
   83MOL0     H11197   5.157   4.138   8.047  2.1292 -1.3346  1.1523
   83MOL0     H11198   5.112   4.280   8.132 -1.7218 -1.5498  0.3416
   83MOL0     H11199   5.040   4.133   8.346  0.8530  0.9922  0.6407
   83MOL0     H11200   5.064   3.994   8.235 -1.5278 -0.1482 -1.1059
   83MOL0     H11201   4.900   4.121   8.071 -1.2288 -0.3163  0.1346
   83MOL0     H11202   4.879   4.232   8.207 -0.5616  0.9211 -3.4966
   83MOL0     H11203   4.646   3.901   8.322 -0.9423  0.6537  0.0053
   83MOL0     H11204   5.627   4.245   8.299 -0.6528  0.4487 -1.4799
   83MOL0     H11205   5.803   4.123   8.301  0.3017 -0.6692 -1.7554
   84MOL0     O11206   5.664   3.107   9.734  0.3609  0.0425  0.2008
   84MOL0     C11207   5.698   2.989   9.767 -0.4709 -0.1611  0.1634
   84MOL0     O11208   5.620   2.904   9.841 -0.1904 -0.5944  0.2653
   84MOL0     C11209   5.505   2.948   9.903  0.1704 -0.8964 -0.6257
   84MOL0     C11210   5.494   2.955  10.043 -0.0938 -0.1174  0.1609
   84MOL0     C11211   5.380   3.002  10.103  0.4749  0.0695 -0.9026
   84MOL0     C11212   5.263   3.022  10.024  0.0515 -0.4712 -0.0695
   84MOL0     O11213   5.148   3.054  10.082  0.4047 -0.2916 -0.0062
   84MOL0     C11214   5.037   3.117  10.018 -0.5597 -0.1736 -0.0937
   84MOL0     C11215   4.913   3.110  10.110  0.1002  0.4951  0.2271
   84MOL0     C11216   4.811   3.217  10.107  0.2198 -0.5928 -0.1586
   84MOL0     C11217   4.711   3.201   9.995  0.4834 -0.0244  0.6636
   84MOL0     C11218   4.597   3.303  10.028  0.6405  0.6248 -0.7238
   84MOL0     C11219   4.490   3.252  10.128  0.5621 -0.2372 -0.4741
   84MOL0     C11220   4.358   3.336  10.122 -0.9821  0.6362  0.7553
   84MOL0     C11221   4.282   3.330  10.248 -0.6183 -0.0232  0.4899
   84MOL0     N11222   4.181   3.439  10.260 -0.0591 -0.6736  0.2764
   84MOL0     C11223   4.046   3.424  10.240 -0.7727 -0.0121 -0.3259
   84MOL0     C11224   3.991   3.548  10.276 -0.5395  0.1430 -0.4613
   84MOL0     C11225   3.845   3.598  10.264 -0.1805 -0.3591 -0.6804
   84MOL0     C11226   3.767   3.531  10.146 -0.5041 -0.4321 -1.0487
   84MOL0     C11227   3.620   3.570  10.151  1.2027  0.2629  0.8859
   84MOL0     C11228   3.537   3.500  10.040 -0.3013  0.1708 -0.1792
   84MOL0     O11229   3.415   3.566  10.040 -0.6200 -0.7229  0.0794
   84MOL0     C11230   3.308   3.503  10.090  0.4232  0.0708  0.2131
   84MOL0     C11231   3.186   3.531  10.031  0.6271  0.7230  0.0667
   84MOL0     C11232   3.068   3.464  10.070  0.8199 -0.4240  0.0301
   84MOL0     C11233   2.941   3.495   9.985 -0.1206 -0.0421  0.0943
   84MOL0     C11234   3.077   3.377  10.192  0.2194  0.0948  0.1924
   84MOL0     C11235   2.955   3.333  10.271 -0.2286 -0.9158  0.4359
   84MOL0     O11236   2.950   3.338  10.405 -0.2114 -0.0606 -0.1704
   84MOL0     C11237   2.845   3.286  10.472 -0.5953  0.8225 -0.6687
   84MOL0     C11238   2.866   3.232  10.598  0.3031  0.3638 -0.4800
   84MOL0     C11239   2.762   3.214  10.688 -0.3489  0.3982 -0.5506
   84MOL0     C11240   2.634   3.240  10.656  0.5345  0.0761 -0.2030
   84MOL0     O11241   2.534   3.230  10.743 -0.4930 -0.5559 -0.5366
   84MOL0     C11242   2.513   3.101  10.805  0.4622 -0.0502  0.2155
   84MOL0     C11243   2.394   3.100  10.895 -0.1141 -0.0454  0.6360
   84MOL0     C11244   2.416   3.152  11.035  0.0319  0.0794 -0.0397
   84MOL0     C11245   2.442   3.027  11.130  0.7484 -0.4035  0.8267
   84MOL0     C11246   2.446   3.063  11.281 -0.2093 -0.1644  0.1175
   84MOL0     C11247   2.505   2.950  11.370  0.1172  0.2726 -0.1182
   84MOL0     C11248   2.451   2.807  11.342 -0.0370 -1.2881  0.7382
   84MOL0     C11249   2.512   2.708  11.442 -0.6537 -0.0676 -0.3694
   84MOL0    Cl11250   2.456   2.721  11.613  0.1629  0.3673 -0.3235
   84MOL0     C11251   2.610   3.285  10.529  0.6635 -0.2174  1.1462
   84MOL0     C11252   2.720   3.325  10.447  0.3719  0.7312 -0.1685
   84MOL0     O11253   2.854   3.304  10.203 -0.5844 -0.1173 -0.6661
   84MOL0     C11254   3.199   3.365  10.257 -0.2328  0.2631  0.2294
   84MOL0     C11255   3.309   3.424  10.209  0.1167 -0.0955 -0.1918
   84MOL0     N11256   4.086   3.623  10.325 -0.0617 -0.7035 -0.3530
   84MOL0     N11257   4.202   3.562  10.317 -0.2164 -0.4780  0.2743
   84MOL0     C11258   5.272   3.005   9.891  0.0826 -0.2787 -0.6378
   84MOL0     C11259   5.390   2.973   9.833  0.0417  0.9596  0.2057
   84MOL0     C11260   5.821   2.943   9.709  0.6547 -0.4249 -1.0371
   84MOL0     C11261   5.854   2.806   9.718  0.4115  0.1751 -0.5381
   84MOL0     C11262   5.974   2.764   9.656 -0.4430  0.9186  0.2277
   84MOL0     C11263   6.074   2.849   9.604 -0.5281  0.8531  0.4463
   84MOL0     O11264   6.196   2.796   9.565  0.3494  0.0433  0.1771
   84MOL0     C11265   6.300   2.870   9.502 -0.6237  0.2985 -0.4405
   84MOL0     C11266   6.296   2.880   9.343  0.0567 -0.4382 -0.4635
   84MOL0     C11267   6.221   3.005   9.292 -0.0887 -0.1261 -0.1364
   84MOL0     C11268   6.216   3.024   9.133 -0.0292 -0.1810 -0.7136
   84MOL0     C11269   6.135   2.909   9.077 -0.1772  0.0519  0.3699
   84MOL0     C11270   6.079   2.819   9.019  0.5213  0.1214  0.1210
   84MOL0     C11271   6.023   2.973   9.581  0.5891  0.5692 -0.0403
   84MOL0     C11272   5.908   3.028   9.637 -0.2240 -0.0504  0.2998
   84MOL0     H11273   5.577   2.930  10.108  0.8946 -2.3329 -1.8157
   84MOL0     H11274   5.373   3.015  10.211 -2.1442  0.8564 -1.0927
   84MOL0     H11275   5.071   3.221  10.010  1.1665 -0.3900  2.8892
   84MOL0     H11276   5.010   3.090   9.916  1.6298  0.7837 -0.9856
   84MOL0     H11277   4.864   3.024  10.064 -1.1636  1.0179  0.5655
   84MOL0     H11278   4.949   3.088  10.211  0.5687 -2.0263 -0.4077
   84MOL0     H11279   4.767   3.219  10.207 -0.7170  2.8750 -0.5262
   84MOL0     H11280   4.856   3.314  10.086 -1.4889  0.4162  0.6662
   84MOL0     H11281   4.754   3.241   9.903 -0.9146 -1.2970 -0.5791
   84MOL0     H11282   4.675   3.098   9.989  2.0786 -0.5773  0.1229
   84MOL0     H11283   4.629   3.394  10.078  0.0292  1.1600 -1.2780
   84MOL0     H11284   4.546   3.339   9.938 -0.7146 -1.4825 -0.8764
   84MOL0     H11285   4.453   3.151  10.113 -0.2167 -0.7187  3.5816
   84MOL0     H11286   4.538   3.252  10.226 -0.3078  1.1909 -0.0194
   84MOL0     H11287   4.392   3.439  10.110 -0.2459  0.5201  1.7237
   84MOL0     H11288   4.298   3.304  10.036 -0.6058  0.7428  0.4498
   84MOL0     H11289   4.346   3.350  10.334 -0.9745 -2.4959  1.4105
   84MOL0     H11290   4.227   3.235  10.250  0.5285 -0.6914  2.3631
   84MOL0     H11291   3.999   3.343  10.183 -0.4505 -0.2214 -0.2953
   84MOL0     H11292   3.788   3.569  10.353  1.5549 -0.7270  0.3577
   84MOL0     H11293   3.836   3.707  10.260  0.3670 -0.3085 -0.5535
   84MOL0     H11294   3.781   3.425  10.168  0.5962 -0.2612 -0.8833
   84MOL0     H11295   3.815   3.544  10.049  1.7431 -3.3478 -0.4736
   84MOL0     H11296   3.610   3.677  10.134 -3.5637 -0.1204  0.0509
   84MOL0     H11297   3.574   3.548  10.248 -0.4958  0.0387  0.0587
   84MOL0     H11298   3.515   3.393  10.046  0.8021 -0.1060 -0.7476
   84MOL0     H11299   3.585   3.501   9.941 -2.1283  0.9566 -1.1059
   84MOL0     H11300   3.179   3.604   9.950  0.3648  1.4236  0.7027
   84MOL0     H11301   2.934   3.418   9.908  1.2124 -0.7616  0.6629
   84MOL0     H11302   2.847   3.501  10.039 -1.1709  0.1366 -1.6647
   84MOL0     H11303   2.957   3.594   9.940 -0.0101 -0.4726 -0.8378
   84MOL0     H11304   2.970   3.219  10.626  0.1162 -2.0497 -0.7097
   84MOL0     H11305   2.776   3.182  10.791  0.7957  1.0966 -0.4715
   84MOL0     H11306   2.501   3.018  10.735  1.2675 -1.6295  1.8553
   84MOL0     H11307   2.599   3.072  10.867  1.4471  2.4421  0.1349
   84MOL0     H11308   2.328   3.171  10.847  0.9497 -0.1027 -0.9743
   84MOL0     H11309   2.341   3.004  10.901 -0.6307  0.2990  1.9142
   84MOL0     H11310   2.333   3.214  11.070  0.6106  0.4455  0.7088
   84MOL0     H11311   2.496   3.226  11.042 -2.0670  2.3233  1.8027
   84MOL0     H11312   2.353   2.965  11.117 -1.8194  2.6021  2.6204
   84MOL0     H11313   2.530   2.972  11.094  0.5643  1.4337 -2.9316
   84MOL0     H11314   2.344   3.082  11.314  0.0813  2.0086 -0.0847
   84MOL0     H11315   2.508   3.152  11.293 -0.5328  0.2882 -1.3364
   84MOL0     H11316   2.614   2.944  11.360 -0.0505 -0.0053 -2.5284
   84MOL0     H11317   2.473   2.983  11.469  1.0357 -3.6170  1.6583
   84MOL0     H11318   2.490   2.781  11.244 -1.3854 -0.4507 -0.0583
   84MOL0     H11319   2.342   2.814  11.330  0.1951  0.3765 -0.7793
   84MOL0     H11320   2.619   2.724  11.427 -0.8627  1.0034 -0.7759
   84MOL0     H11321   2.489   2.611  11.397  0.2925  0.1875 -1.4425
   84MOL0     H11322   2.504   3.288  10.506  0.7232  0.0059  0.9044
   84MOL0     H11323   2.701   3.373  10.351 -0.0661 -2.0904 -1.6071
   84MOL0     H11324   3.206   3.312  10.352  1.0915  0.1252  0.0664
   84MOL0     H11325   3.408   3.402  10.248  0.6502 -1.4739 -2.1715
   84MOL0     H11326   5.187   3.006   9.823  0.8508 -1.2751 -1.6391
   84MOL0     H11327   5.396   2.962   9.725  2.1712  0.5208  0.3239
   84MOL0     H11328   5.789   2.730   9.760  2.5856 -1.7087 -0.3845
   84MOL0     H11329   6.004   2.660   9.659  0.4725  1.1945  1.9393
   84MOL0     H11330   6.308   2.967   9.552 -1.8079  0.0189  0.3437
   84MOL0     H11331   6.394   2.823   9.530 -0.9324  0.7308  1.4161
   84MOL0     H11332   6.266   2.790   9.289  0.9942  0.0686 -1.8746
   84MOL0     H11333   6.402   2.892   9.318 -0.2215 -1.0371 -2.0803
   84MOL0     H11334   6.267   3.091   9.342  0.3575 -0.9512  0.9169
   84MOL0     H11335   6.116   3.003   9.320 -0.5228 -1.1273 -1.7067
   84MOL0     H11336   6.318   3.041   9.098  0.5294  0.0195  0.9292
   84MOL0     H11337   6.156   3.114   9.114  3.2325  2.9562  2.2540
   84MOL0     H11338   6.023   2.744   8.966  0.2381  0.0124  0.5698
   84MOL0     H11339   6.076   3.049   9.525 -1.4089  2.0429 -0.0554
   84MOL0     H11340   5.887   3.132   9.615  1.4389  0.7953  2.4060
   85MOL0     O11341   5.274   1.800   2.835 -0.2556  0.2142  0.0861
   85MOL0     C11342   5.272   1.686   2.785 -0.8945  0.0152 -1.1193
   85MOL0     O11343   5.160   1.607   2.785  0.6449 -0.3507 -0.2792
   85MOL0     C11344   5.050   1.661   2.839  0.6922  0.6749 -0.5380
   85MOL0     C11345   4.984   1.595   2.952 -0.2519 -0.0269  0.3362
   85MOL0     C11346   4.868   1.659   3.002  0.0024  0.4770 -0.7272
   85MOL0     C11347   4.820   1.785   2.958 -0.3959  0.2612  0.1612
   85MOL0     O11348   4.715   1.864   3.017  0.1310 -0.1088 -0.2074
   85MOL0     C11349   4.610   1.792   3.077 -0.0366 -0.1174  0.1473
   85MOL0     C11350   4.485   1.891   3.085 -0.6153 -0.8845 -0.3292
   85MOL0     C11351   4.404   1.904   2.949  0.2180 -0.5002  0.8934
   85MOL0     C11352   4.283   1.999   2.954 -0.0083 -0.8702  0.0706
   85MOL0     C11353   4.345   2.136   2.929  0.2552  0.7529 -0.6964
   85MOL0     C11354   4.240   2.236   2.893  0.6163 -0.3034  0.2940
   85MOL0     C11355   4.207   2.247   2.743  0.2024 -0.4134  0.8000
   85MOL0     C11356   4.106   2.357   2.706  0.2423 -0.2287 -0.3710
   85MOL0     N11357   3.972   2.336   2.755  0.5643  0.6898  0.1391
   85MOL0     C11358   3.904   2.214   2.737 -0.2352  0.1374 -0.4010
   85MOL0     C11359   3.785   2.223   2.806  0.0897 -0.9779  0.1264
   85MOL0     C11360   3.682   2.115   2.825  0.5315  0.1474 -0.3306
   85MOL0     C11361   3.568   2.132   2.730  0.8158  0.2616  0.3950
   85MOL0     C11362   3.441   2.058   2.784 -0.0845 -0.3571  0.6870
   85MOL0     C11363   3.451   1.911   2.783  0.5172  0.9111  0.6578
   85MOL0     O11364   3.338   1.855   2.855  0.5524  0.0824  0.8016
   85MOL0     C11365   3.209   1.867   2.815  0.1121  1.1958 -0.1827
   85MOL0     C11366   3.111   1.832   2.911 -0.7081 -0.2686 -0.1827
   85MOL0     C11367   2.979   1.826   2.881  1.0903 -0.0017  0.3266
   85MOL0     C11368   2.894   1.786   2.983  1.0240 -0.1778 -0.2735
   85MOL0     C11369   2.934   1.863   2.748 -0.1244 -1.0455  0.5305
   85MOL0     C11370   2.792   1.869   2.700  0.5168 -0.3259  0.4949
   85MOL0     O11371   2.773   1.918   2.570  1.0425  0.0036 -0.4987
   85MOL0     C11372   2.648   1.912   2.506 -0.7993  0.0556 -0.4743
   85MOL0     C11373   2.635   1.991   2.391 -0.2806  0.5220  1.3883
   85MOL0     C11374   2.525   1.967   2.305  0.5776  0.0052  0.3505
   85MOL0     C11375   2.412   1.896   2.339 -1.2972  0.3472  0.3872
   85MOL0     O11376   2.297   1.892   2.266  0.0048 -0.0004  0.0649
   85MOL0     C11377   2.168   1.870   2.325 -0.2051  0.6386 -0.0007
   85MOL0     C11378   2.057   1.936   2.250  0.5297 -0.6972 -0.1043
   85MOL0     C11379   1.913   1.899   2.302 -0.2480  0.1521  0.1357
   85MOL0     C11380   1.818   1.994   2.233  0.7368  0.1250  0.0607
   85MOL0     C11381   1.669   1.951   2.270  0.7191 -0.5785 -0.2435
   85MOL0     C11382   1.555   2.061   2.230  0.1326  0.9937 -0.0930
   85MOL0     C11383   1.555   2.073   2.078 -0.0500 -0.1401 -0.1954
   85MOL0     C11384   1.467   2.182   2.027 -0.3612  0.2853  1.7908
   85MOL0    Cl11385   1.292   2.139   2.029  0.2112  0.0751 -0.0224
   85MOL0     C11386   2.429   1.814   2.450  0.0112  0.3589  0.0146
   85MOL0     C11387   2.544   1.812   2.525 -0.4627 -0.6527 -0.1083
   85MOL0     O11388   2.700   1.836   2.775  0.1528  0.3985  0.1619
   85MOL0     C11389   3.029   1.874   2.650  0.1061 -0.2917  0.8165
   85MOL0     C11390   3.165   1.880   2.685 -0.7648 -0.8538 -0.1961
   85MOL0     N11391   3.780   2.351   2.851 -0.5301 -0.1718  0.0783
   85MOL0     N11392   3.885   2.417   2.820 -0.3848 -0.4313  0.4390
   85MOL0     C11393   4.871   1.841   2.841 -0.3854  0.3597 -0.5142
   85MOL0     C11394   4.985   1.774   2.790  0.0214 -0.5813  0.6221
   85MOL0     C11395   5.398   1.619   2.746 -0.2830  0.4001  0.6790
   85MOL0     C11396   5.410   1.482   2.744 -0.8333  0.2385 -0.6645
   85MOL0     C11397   5.521   1.421   2.695 -0.3498 -0.3761 -0.3748
   85MOL0     C11398   5.635   1.502   2.668  0.4685  0.4950  0.4004
   85MOL0     O11399   5.759   1.477   2.630  0.1191 -0.0325 -0.5246
   85MOL0     C11400   5.786   1.335   2.624 -0.4101  0.3476 -1.4809
   85MOL0     C11401   5.931   1.322   2.578  0.0169  0.5765  0.9671
   85MOL0     C11402   5.983   1.179   2.570 -0.0858  0.3744  0.1361
   85MOL0     C11403   6.037   1.141   2.439  0.2048 -0.3675 -0.0792
   85MOL0     C11404   6.170   1.192   2.418  0.2237 -0.7099 -1.1335
   85MOL0     C11405   6.279   1.248   2.406  0.9194 -0.3052 -1.1192
   85MOL0     C11406   5.630   1.642   2.677 -0.6038  0.7675 -0.2307
   85MOL0     C11407   5.508   1.700   2.706  0.9684 -0.6272 -0.2137
   85MOL0     H11408   5.031   1.507   2.995  0.5641  0.4628  0.4675
   85MOL0     H11409   4.820   1.611   3.087  1.5469  0.1404 -0.0132
   85MOL0     H11410   4.576   1.705   3.020 -1.5812  1.2545 -1.1128
   85MOL0     H11411   4.644   1.752   3.174  0.3534  0.0508  0.0789
   85MOL0     H11412   4.421   1.852   3.165  0.0203 -0.2966  0.4731
   85MOL0     H11413   4.512   1.994   3.110 -0.7714 -0.6547 -1.0776
   85MOL0     H11414   4.475   1.934   2.870  0.7166 -0.7901  1.2266
   85MOL0     H11415   4.369   1.805   2.920  1.7434 -0.4378 -1.4882
   85MOL0     H11416   4.218   1.969   2.871  3.5234  0.0907 -3.3544
   85MOL0     H11417   4.220   1.990   3.043  0.1473  3.3034  0.8064
   85MOL0     H11418   4.381   2.152   3.031 -1.7501 -0.9242  0.3525
   85MOL0     H11419   4.429   2.143   2.860  1.1114  1.3696  0.3888
   85MOL0     H11420   4.157   2.199   2.954  0.2371  0.4310  0.2311
   85MOL0     H11421   4.267   2.334   2.934 -0.2283  0.1537 -0.2131
   85MOL0     H11422   4.298   2.276   2.689 -0.6243  3.0769  1.0434
   85MOL0     H11423   4.167   2.156   2.698  0.4914  0.3315 -1.0731
   85MOL0     H11424   4.082   2.361   2.599 -0.5774 -3.1276 -0.3762
   85MOL0     H11425   4.130   2.459   2.738  1.2600 -0.3467 -0.7227
   85MOL0     H11426   3.947   2.128   2.687 -1.4929 -0.1864 -0.9388
   85MOL0     H11427   3.730   2.022   2.792 -2.4032 -2.0522  1.1740
   85MOL0     H11428   3.649   2.122   2.929 -0.4114  0.4406 -0.6391
   85MOL0     H11429   3.597   2.092   2.632 -2.7699 -0.8490 -0.3821
   85MOL0     H11430   3.534   2.236   2.719  1.1536  0.3728  0.3924
   85MOL0     H11431   3.348   2.083   2.732 -0.3410 -2.4075  0.0814
   85MOL0     H11432   3.418   2.099   2.883  1.1759 -1.4138  1.4512
   85MOL0     H11433   3.540   1.870   2.831  0.3394  0.4143  0.5623
   85MOL0     H11434   3.441   1.877   2.680 -1.2918  0.3518  0.9750
   85MOL0     H11435   3.150   1.810   3.010 -4.4901 -2.8223  0.9598
   85MOL0     H11436   2.953   1.744   3.065  0.8230  1.1893  0.6003
   85MOL0     H11437   2.864   1.881   3.029  3.4378  0.8369 -0.6914
   85MOL0     H11438   2.810   1.722   2.953  1.7031 -0.3840 -1.8336
   85MOL0     H11439   2.691   2.076   2.355  1.5730 -0.3789  1.9619
   85MOL0     H11440   2.523   2.021   2.211 -0.6643 -0.9573 -0.2072
   85MOL0     H11441   2.148   1.763   2.323  1.9762  0.1752 -1.6638
   85MOL0     H11442   2.171   1.896   2.431 -0.2683 -1.6722  0.6257
   85MOL0     H11443   2.067   2.045   2.244  0.8852 -0.7263 -0.0536
   85MOL0     H11444   2.069   1.911   2.145 -0.7675 -2.0252  0.0365
   85MOL0     H11445   1.905   1.891   2.410 -3.5924 -2.1557 -0.1527
   85MOL0     H11446   1.896   1.800   2.259  0.0982 -0.2313  0.8829
   85MOL0     H11447   1.830   2.095   2.273 -0.0333 -0.0991  0.9199
   85MOL0     H11448   1.827   1.988   2.125  0.2102 -6.2188 -0.0148
   85MOL0     H11449   1.661   1.929   2.376  0.4682  0.1457 -0.1041
   85MOL0     H11450   1.641   1.862   2.213  0.7360 -1.3579  0.9348
   85MOL0     H11451   1.460   2.025   2.269  0.6629  0.4827  0.7600
   85MOL0     H11452   1.596   2.158   2.261 -0.8144  2.6397 -3.4922
   85MOL0     H11453   1.537   1.975   2.032 -0.3513  0.1163 -0.6357
   85MOL0     H11454   1.658   2.100   2.052  0.4261 -1.8431 -0.2143
   85MOL0     H11455   1.504   2.193   1.925 -2.9323 -0.2459  0.7019
   85MOL0     H11456   1.484   2.270   2.089  0.1660  0.7744  0.9724
   85MOL0     H11457   2.351   1.740   2.465  0.7262 -0.2407  0.8072
   85MOL0     H11458   2.563   1.736   2.600 -2.6294 -1.5451 -0.3830
   85MOL0     H11459   3.008   1.910   2.550  1.3168  0.8732  0.9460
   85MOL0     H11460   3.238   1.895   2.606 -0.8434  0.2846 -0.0690
   85MOL0     H11461   4.846   1.942   2.811  0.6898  0.8624  0.1925
   85MOL0     H11462   5.025   1.821   2.701  0.6324 -0.4983  0.9336
   85MOL0     H11463   5.330   1.417   2.777 -0.0989  0.6492  2.1755
   85MOL0     H11464   5.527   1.313   2.695  1.8734 -0.3208 -1.1519
   85MOL0     H11465   5.771   1.282   2.719  0.2384 -3.0079 -3.1046
   85MOL0     H11466   5.719   1.276   2.561 -1.6698  1.5877 -1.3603
   85MOL0     H11467   5.996   1.377   2.646  1.0597 -0.2374  0.6435
   85MOL0     H11468   5.943   1.359   2.476 -0.4134 -0.2072  0.6170
   85MOL0     H11469   5.900   1.114   2.597 -1.9210  2.5842  0.0670
   85MOL0     H11470   6.046   1.170   2.659 -2.3189 -0.3776  1.7302
   85MOL0     H11471   5.978   1.187   2.359  2.5705  0.3847 -1.4696
   85MOL0     H11472   6.034   1.032   2.423 -0.3221 -0.5948  1.4267
   85MOL0     H11473   6.350   1.327   2.420 -1.3893  1.5357  1.1029
   85MOL0     H11474   5.716   1.708   2.665  0.5486  0.1432  3.3638
   85MOL0     H11475   5.488   1.806   2.691 -0.0856 -1.1065 -2.7209
   86MOL0     O11476   7.580   9.121   8.468 -0.2251 -0.2403  0.2532
   86MOL0     C11477   7.584   9.242   8.490  0.2435  0.3121  0.5872
   86MOL0     O11478   7.706   9.301   8.522  0.5491  0.1578  0.1107
   86MOL0     C11479   7.813   9.220   8.548  0.2762 -0.7119 -1.2545
   86MOL0     C11480   7.850   9.186   8.678  0.2400 -0.7930 -0.4027
   86MOL0     C11481   7.973   9.124   8.701  1.3182  0.5931 -0.7007
   86MOL0     C11482   8.054   9.076   8.593 -0.6889  0.0235 -0.2550
   86MOL0     O11483   8.167   8.992   8.607  0.7051  0.5182 -0.2999
   86MOL0     C11484   8.246   8.968   8.727  0.6557  0.3409 -0.1466
   86MOL0     C11485   8.334   9.086   8.770 -1.0153 -0.4637  0.6869
   86MOL0     C11486   8.461   9.099   8.675  0.8184  0.1590  0.4322
   86MOL0     C11487   8.513   9.240   8.692 -0.1978 -0.5534 -0.0016
   86MOL0     C11488   8.661   9.238   8.648  0.5017 -0.3768 -0.3178
   86MOL0     C11489   8.733   9.376   8.678 -0.0538 -0.9893 -0.5895
   86MOL0     C11490   8.876   9.368   8.710 -0.5747  0.8736 -0.5090
   86MOL0     C11491   8.950   9.294   8.597 -0.0759 -0.1597 -0.4604
   86MOL0     N11492   9.086   9.280   8.655 -0.3485 -0.4230 -0.6340
   86MOL0     C11493   9.195   9.358   8.634  0.8536 -0.1013  0.6201
   86MOL0     C11494   9.292   9.301   8.706 -0.4942  0.3835 -0.0812
   86MOL0     C11495   9.444   9.352   8.708 -0.0947  0.5262  0.6021
   86MOL0     C11496   9.503   9.337   8.850  0.2748  0.2380  0.0834
   86MOL0     C11497   9.473   9.455   8.941  0.1348 -1.0198  0.4318
   86MOL0     C11498   9.338   9.512   8.943  0.2460 -0.5401  0.0248
   86MOL0     O11499   9.332   9.586   9.069 -0.0783  0.1567  0.3543
   86MOL0     C11500   9.208   9.643   9.102 -0.0317 -0.6320  0.1056
   86MOL0     C11501   9.093   9.654   9.014 -0.8691 -0.0184 -0.1209
   86MOL0     C11502   8.994   9.751   9.039  0.2026  0.1590  0.3153
   86MOL0     C11503   8.887   9.773   8.928 -1.2597 -0.7409 -0.4746
   86MOL0     C11504   8.997   9.815   9.170  0.0641 -0.0533 -0.9802
   86MOL0     C11505   8.896   9.913   9.214  0.4578 -0.6526 -0.2707
   86MOL0     O11506   8.816   9.965   9.120  0.2687 -0.4153  0.0492
   86MOL0     C11507   8.751  10.088   9.141 -0.0981  0.9503  0.3476
   86MOL0     C11508   8.825  10.207   9.144 -0.6906  0.0132 -0.7059
   86MOL0     C11509   8.747  10.329   9.149 -0.7034  0.2930 -0.2136
   86MOL0     C11510   8.613  10.337   9.161 -0.4124 -0.0197 -0.2698
   86MOL0     O11511   8.564  10.467   9.158  0.1397  0.1145 -0.1903
   86MOL0     C11512   8.417  10.480   9.136 -1.0862  0.9136  0.5851
   86MOL0     C11513   8.338  10.466   9.262  0.3407 -0.3790 -0.2045
   86MOL0     C11514   8.197  10.540   9.235  0.0672  1.0304  0.1252
   86MOL0     C11515   8.124  10.499   9.106  0.3658  0.0422  0.1237
   86MOL0     C11516   7.997  10.582   9.099  0.4839 -0.0640 -0.3368
   86MOL0     C11517   7.929  10.548   8.963 -0.4911 -0.1385 -0.4240
   86MOL0     C11518   7.789  10.607   8.952 -0.6280  0.4267  0.1774
   86MOL0     C11519   7.783  10.756   8.981 -0.3767 -0.7632  0.1660
   86MOL0    Cl11520   7.616  10.821   8.954  0.1482 -0.3019  0.3603
   86MOL0     C11521   8.543  10.218   9.157  0.1143  0.7585 -0.5399
   86MOL0     C11522   8.610  10.094   9.149  0.4999  0.6530  0.2672
   86MOL0     O11523   8.874   9.920   9.339  0.0800 -0.5313 -0.2596
   86MOL0     C11524   9.102   9.792   9.258  0.1067 -0.9147 -0.5355
   86MOL0     C11525   9.206   9.706   9.223  0.3277 -0.2745  0.4598
   86MOL0     N11526   9.236   9.202   8.782  1.2757  0.0325  0.2551
   86MOL0     N11527   9.113   9.192   8.743 -0.3971  0.1310  0.3970
   86MOL0     C11528   8.012   9.102   8.463  0.0328 -0.6938 -0.3889
   86MOL0     C11529   7.898   9.181   8.441 -0.1733 -0.1972 -0.2385
   86MOL0     C11530   7.467   9.326   8.470 -0.0802 -0.0037  0.1225
   86MOL0     C11531   7.339   9.267   8.484 -0.1587 -0.5533 -0.2035
   86MOL0     C11532   7.227   9.338   8.464  0.7318  0.4605 -0.5122
   86MOL0     C11533   7.229   9.474   8.436 -0.7813  0.5095 -0.2897
   86MOL0     O11534   7.107   9.527   8.403  0.2918 -0.1776  0.6408
   86MOL0     C11535   7.097   9.633   8.312 -0.7058  0.9282  0.1518
   86MOL0     C11536   7.029   9.753   8.378 -0.2506  0.2388  0.0732
   86MOL0     C11537   7.077   9.891   8.316 -0.1982  0.1097 -0.4207
   86MOL0     C11538   7.022   9.909   8.172  0.4714  0.1432 -0.2497
   86MOL0     C11539   7.122   9.964   8.078 -0.2349 -0.1352 -0.2864
   86MOL0     C11540   7.211  10.031   8.025  0.3421  0.3696  0.2736
   86MOL0     C11541   7.355   9.536   8.435 -0.0159  0.2164 -0.5493
   86MOL0     C11542   7.475   9.467   8.446 -0.1613  0.1087 -0.0195
   86MOL0     H11543   7.786   9.220   8.759 -0.5918 -0.4291 -1.2030
   86MOL0     H11544   7.998   9.108   8.805 -0.2265 -1.7980 -0.6022
   86MOL0     H11545   8.170   8.956   8.805  0.9942  0.5427  0.2175
   86MOL0     H11546   8.310   8.879   8.722  0.1183 -0.2130  1.8240
   86MOL0     H11547   8.265   9.171   8.760  0.3670  0.5519 -0.9691
   86MOL0     H11548   8.379   9.072   8.868  1.5854  1.2103 -0.1754
   86MOL0     H11549   8.535   9.023   8.702  2.8095  0.6899 -2.9091
   86MOL0     H11550   8.435   9.091   8.569  0.5755  2.0630  0.3112
   86MOL0     H11551   8.457   9.304   8.624  0.9608 -0.1168 -0.5739
   86MOL0     H11552   8.514   9.276   8.795 -0.6434 -3.3034  1.0584
   86MOL0     H11553   8.712   9.152   8.693  3.2867  0.4877 -1.5703
   86MOL0     H11554   8.671   9.229   8.539  3.5110 -1.8604 -0.0383
   86MOL0     H11555   8.720   9.436   8.587 -0.8374 -3.5991 -2.3217
   86MOL0     H11556   8.701   9.431   8.767  0.1254 -0.5734 -0.7806
   86MOL0     H11557   8.918   9.466   8.733  1.4135  0.0057 -0.2700
   86MOL0     H11558   8.877   9.303   8.799  2.7519 -0.3395 -1.2890
   86MOL0     H11559   8.931   9.350   8.504  0.2037  0.8693  0.0793
   86MOL0     H11560   8.914   9.195   8.570  0.5643 -0.2889 -0.8393
   86MOL0     H11561   9.206   9.443   8.567  2.0689 -0.8652 -0.1815
   86MOL0     H11562   9.501   9.287   8.641 -2.3896  0.3599 -1.3256
   86MOL0     H11563   9.459   9.448   8.656  1.6694  0.0262  0.1259
   86MOL0     H11564   9.607   9.304   8.841 -0.3683 -1.3021 -3.1437
   86MOL0     H11565   9.462   9.251   8.905  0.0696 -0.2845 -0.8738
   86MOL0     H11566   9.540   9.540   8.925 -1.9029  0.6263  0.2320
   86MOL0     H11567   9.498   9.408   9.036  2.5716 -0.0064  0.3774
   86MOL0     H11568   9.267   9.430   8.930 -0.5395  0.1161  0.1268
   86MOL0     H11569   9.332   9.588   8.864  2.0648 -0.6236 -0.2450
   86MOL0     H11570   9.095   9.596   8.923  1.0242 -3.1954  1.7761
   86MOL0     H11571   8.787   9.785   8.969 -0.3960 -0.7947  1.8200
   86MOL0     H11572   8.917   9.857   8.865  0.7070 -0.8913  0.1651
   86MOL0     H11573   8.881   9.689   8.858 -0.4443 -0.9698 -0.2827
   86MOL0     H11574   8.933  10.209   9.140 -0.7154  1.3159 -1.0441
   86MOL0     H11575   8.788  10.430   9.139 -1.9079  0.8745  0.5625
   86MOL0     H11576   8.406  10.579   9.090 -2.7572  0.2565 -0.5492
   86MOL0     H11577   8.381  10.408   9.062  0.3087 -0.5605  1.2983
   86MOL0     H11578   8.323  10.359   9.279  0.0942 -0.3764 -0.3949
   86MOL0     H11579   8.396  10.502   9.347  2.4491  0.9161 -2.0851
   86MOL0     H11580   8.214  10.647   9.220 -1.0965  0.9511 -2.1121
   86MOL0     H11581   8.130  10.531   9.321 -1.0378 -1.0896 -0.8618
   86MOL0     H11582   8.188  10.526   9.022 -0.2581 -1.9534 -1.0705
   86MOL0     H11583   8.106  10.391   9.105  0.2248  0.0664 -0.6507
   86MOL0     H11584   8.022  10.688   9.108  0.4480 -0.0910  0.1173
   86MOL0     H11585   7.921  10.575   9.178 -0.8743  2.7428 -1.2344
   86MOL0     H11586   7.998  10.593   8.891  0.4341 -0.9775 -0.0804
   86MOL0     H11587   7.930  10.441   8.941  1.9261  0.1600 -2.1208
   86MOL0     H11588   7.730  10.547   9.022  1.7926 -2.4894 -0.0780
   86MOL0     H11589   7.757  10.596   8.848  1.0233  0.3540 -0.3428
   86MOL0     H11590   7.848  10.797   8.903 -0.8196  0.9114  0.6387
   86MOL0     H11591   7.831  10.795   9.071  1.2706  0.5007 -1.1868
   86MOL0     H11592   8.438  10.231   9.133  0.2575  0.6665 -1.2413
   86MOL0     H11593   8.554  10.001   9.142  1.9935 -0.2853  0.1284
   86MOL0     H11594   9.118   9.842   9.354  2.8223 -0.4720 -1.1485
   86MOL0     H11595   9.290   9.699   9.292 -0.0546  1.1426  1.1154
   86MOL0     H11596   8.068   9.076   8.374 -0.1743  0.3009 -0.8269
   86MOL0     H11597   7.883   9.197   8.335 -1.9657 -1.4656 -0.2287
   86MOL0     H11598   7.336   9.161   8.507  2.1635 -1.3250 -2.9047
   86MOL0     H11599   7.137   9.279   8.451  1.0489 -0.2938  0.5921
   86MOL0     H11600   7.195   9.643   8.264 -0.9749 -3.9881 -1.9787
   86MOL0     H11601   7.025   9.607   8.234 -1.4615  1.5004  0.6496
   86MOL0     H11602   7.068   9.747   8.480  0.4684 -3.2356 -0.2657
   86MOL0     H11603   6.922   9.734   8.370  0.3297 -3.0935 -1.8995
   86MOL0     H11604   7.186   9.898   8.324  0.1273 -1.8603 -2.0142
   86MOL0     H11605   7.030   9.967   8.378  2.3832  0.3596  1.4014
   86MOL0     H11606   6.935   9.974   8.160 -0.3302 -0.9087 -0.3449
   86MOL0     H11607   6.988   9.812   8.133  1.3070 -0.4993  0.5807
   86MOL0     H11608   7.284  10.096   7.981  1.4145 -0.8474  0.2221
   86MOL0     H11609   7.372   9.640   8.408  2.0064  0.0258 -0.1915
   86MOL0     H11610   7.563   9.528   8.428 -0.8549  1.3235  0.6008
   87MOL0     O11611   8.022   8.598   5.709 -0.3001  0.5369  0.5042
   87MOL0     C11612   7.992   8.538   5.609 -0.6596  0.0905  1.3090
   87MOL0     O11613   7.876   8.546   5.542  0.6904  0.0420 -0.2307
   87MOL0     C11614   7.785   8.642   5.567  0.9916  0.4197  0.7019
   87MOL0     C11615   7.660   8.621   5.498  0.2170 -0.7050 -0.5985
   87MOL0     C11616   7.550   8.706   5.526 -0.8841 -0.2633  0.0230
   87MOL0     C11617   7.572   8.822   5.598  0.6232  0.0778 -0.0464
   87MOL0     O11618   7.479   8.914   5.615  0.1871  0.4269 -0.7194
   87MOL0     C11619   7.359   8.868   5.677  0.6729  0.2810 -0.5678
   87MOL0     C11620   7.312   8.960   5.794 -0.4082  0.5272  0.1836
   87MOL0     C11621   7.171   8.920   5.845  0.5145  0.5949  0.8616
   87MOL0     C11622   7.110   9.016   5.939 -0.6885  0.4809 -0.2678
   87MOL0     C11623   6.960   9.015   5.940  0.6793 -0.7861 -0.5528
   87MOL0     C11624   6.897   9.109   6.051  0.2350  0.0330  0.4151
   87MOL0     C11625   6.748   9.119   6.032  0.3705 -0.6102  0.4220
   87MOL0     C11626   6.685   9.218   6.133  0.1045 -0.4066  0.0194
   87MOL0     N11627   6.539   9.215   6.127 -0.5116  0.1281  0.0604
   87MOL0     C11628   6.472   9.283   6.032  0.5808 -0.2332 -0.7242
   87MOL0     C11629   6.343   9.260   6.067  0.6046 -0.2066 -0.2850
   87MOL0     C11630   6.213   9.298   5.996 -0.1100 -0.1211 -0.6454
   87MOL0     C11631   6.179   9.447   6.001 -0.1808 -0.4904 -0.9946
   87MOL0     C11632   6.042   9.480   5.940  0.3479 -0.7799 -0.7425
   87MOL0     C11633   5.915   9.442   6.019  0.4317 -0.2316  1.0340
   87MOL0     O11634   5.881   9.560   6.095  0.1414  0.0293  0.1961
   87MOL0     C11635   5.750   9.576   6.135  0.8479  0.5966  0.1062
   87MOL0     C11636   5.711   9.693   6.197 -0.0565  0.0339 -0.5573
   87MOL0     C11637   5.586   9.707   6.267  0.5082 -0.5563  0.0540
   87MOL0     C11638   5.560   9.836   6.345 -0.2949 -0.8050  0.7649
   87MOL0     C11639   5.491   9.607   6.258  0.3628 -0.1926 -0.6390
   87MOL0     C11640   5.352   9.605   6.315 -0.3782 -0.1882 -0.1432
   87MOL0     O11641   5.311   9.488   6.359  0.0463  0.0583 -0.0522
   87MOL0     C11642   5.209   9.487   6.453  1.2304  0.2796 -0.0593
   87MOL0     C11643   5.211   9.530   6.585 -0.4812 -0.1943  0.0096
   87MOL0     C11644   5.110   9.509   6.676 -1.7717  0.2599  0.4120
   87MOL0     C11645   4.988   9.451   6.622 -0.3558  0.1089 -0.2842
   87MOL0     O11646   4.882   9.422   6.710 -0.3071 -0.5408 -0.1949
   87MOL0     C11647   4.837   9.533   6.792 -0.5719  0.3560 -0.3944
   87MOL0     C11648   4.728   9.504   6.882 -0.0052 -0.2001 -0.3991
   87MOL0     C11649   4.592   9.496   6.812  0.1315  0.1887  0.1925
   87MOL0     C11650   4.477   9.510   6.915 -0.6706 -1.1174 -0.6213
   87MOL0     C11651   4.449   9.397   7.002  0.4461  0.8318 -0.6337
   87MOL0     C11652   4.365   9.285   6.942  0.0033  0.1121 -0.2973
   87MOL0     C11653   4.375   9.166   7.035 -0.1395  0.3784  0.0742
   87MOL0     C11654   4.301   9.045   6.966 -0.3146 -0.4738 -0.2293
   87MOL0    Cl11655   4.135   9.084   6.990 -0.3269 -0.4227 -0.1019
   87MOL0     C11656   4.988   9.398   6.494  0.1236 -0.3679  0.4724
   87MOL0     C11657   5.096   9.419   6.415 -0.7129 -0.3441 -0.1115
   87MOL0     O11658   5.303   9.716   6.333 -0.0690  0.3802  0.2956
   87MOL0     C11659   5.527   9.491   6.178  0.8109  0.0723  0.6115
   87MOL0     C11660   5.650   9.476   6.113 -0.0356  0.1938  0.3075
   87MOL0     N11661   6.339   9.186   6.192 -0.2614  0.0667  0.6042
   87MOL0     N11662   6.464   9.152   6.220  0.9643 -0.3511 -0.3959
   87MOL0     C11663   7.695   8.852   5.650  0.5118  0.9997  0.0807
   87MOL0     C11664   7.801   8.765   5.630  0.2099 -0.3128 -0.3273
   87MOL0     C11665   8.089   8.437   5.561  0.4811 -0.1694 -1.4671
   87MOL0     C11666   8.053   8.356   5.455  0.0923  0.0503 -0.0991
   87MOL0     C11667   8.130   8.262   5.406 -0.2893  0.5226 -0.3002
   87MOL0     C11668   8.261   8.254   5.450  0.6454  0.6764  0.2049
   87MOL0     O11669   8.355   8.178   5.387  0.0132 -0.0915 -0.4977
   87MOL0     C11670   8.337   8.141   5.255  0.0498  0.7512  0.4483
   87MOL0     C11671   8.375   8.227   5.141 -0.8223  0.3723  1.0779
   87MOL0     C11672   8.263   8.332   5.123  0.3257 -0.2928  0.1266
   87MOL0     C11673   8.286   8.424   4.999  0.4544  0.2349  0.8712
   87MOL0     C11674   8.425   8.475   4.993  0.4478  0.1423  0.4830
   87MOL0     C11675   8.539   8.493   4.965  0.0377 -0.6923  0.1843
   87MOL0     C11676   8.303   8.322   5.555  0.7815 -0.6530 -0.8071
   87MOL0     C11677   8.213   8.415   5.621 -0.0499  0.3468 -0.5741
   87MOL0     H11678   7.638   8.530   5.443 -1.4417 -0.6903 -0.0181
   87MOL0     H11679   7.451   8.701   5.481 -0.5839 -0.8254 -0.5746
   87MOL0     H11680   7.273   8.859   5.611 -1.9776  2.8725  2.2057
   87MOL0     H11681   7.379   8.776   5.732 -0.5224  0.5559  0.3742
   87MOL0     H11682   7.379   8.952   5.880 -0.3420  3.3483  0.4877
   87MOL0     H11683   7.306   9.065   5.767  1.4755  0.9232  1.1191
   87MOL0     H11684   7.099   8.920   5.763  0.2221  0.3859  1.1160
   87MOL0     H11685   7.174   8.819   5.886  1.4535 -0.2744 -1.2132
   87MOL0     H11686   7.151   8.996   6.038 -1.1833 -0.7101 -0.2752
   87MOL0     H11687   7.140   9.117   5.911 -0.8180  0.8769  0.9843
   87MOL0     H11688   6.920   9.043   5.842 -0.6521 -0.2171  0.1284
   87MOL0     H11689   6.931   8.913   5.969  0.8787 -0.1539  2.0777
   87MOL0     H11690   6.917   9.084   6.156 -1.5272 -0.4093  0.6794
   87MOL0     H11691   6.941   9.209   6.043 -0.2781  0.5477  3.0141
   87MOL0     H11692   6.733   9.150   5.928  1.5305 -3.9465 -0.8891
   87MOL0     H11693   6.706   9.019   6.046 -0.4918 -0.0939  1.7205
   87MOL0     H11694   6.720   9.321   6.125  1.2397 -0.5462  2.2236
   87MOL0     H11695   6.714   9.187   6.234 -0.9466  3.7134  1.7736
   87MOL0     H11696   6.503   9.333   5.941  0.6708 -1.2131 -1.2391
   87MOL0     H11697   6.228   9.276   5.890  2.7429 -1.1999 -0.1105
   87MOL0     H11698   6.129   9.248   6.046  1.6769 -1.4572  1.2040
   87MOL0     H11699   6.256   9.514   5.961  0.2442  1.2051  2.2768
   87MOL0     H11700   6.165   9.475   6.106  0.1872 -0.2237 -1.0138
   87MOL0     H11701   6.049   9.425   5.846  3.0516 -0.4842 -0.8085
   87MOL0     H11702   6.041   9.588   5.922  2.9545 -0.7112 -0.9319
   87MOL0     H11703   5.922   9.355   6.085 -3.7441 -0.7361  1.0840
   87MOL0     H11704   5.842   9.413   5.943 -0.3756 -0.9637  2.0625
   87MOL0     H11705   5.795   9.759   6.214 -0.9037  1.0239 -0.0459
   87MOL0     H11706   5.474   9.896   6.315 -1.3148 -1.2420  2.6898
   87MOL0     H11707   5.554   9.820   6.453 -0.6145 -0.8543  0.7404
   87MOL0     H11708   5.647   9.901   6.335 -1.2965  0.5244  0.4165
   87MOL0     H11709   5.312   9.555   6.613  0.0581 -1.0210 -1.1044
   87MOL0     H11710   5.129   9.546   6.776  2.1505 -0.5806  0.1656
   87MOL0     H11711   4.925   9.554   6.854 -0.6430  0.5599 -0.3642
   87MOL0     H11712   4.808   9.618   6.729 -1.8909  0.7042  0.6426
   87MOL0     H11713   4.751   9.412   6.937 -0.5859  0.8165  1.6868
   87MOL0     H11714   4.721   9.590   6.950 -0.3080 -1.0164  0.6262
   87MOL0     H11715   4.579   9.402   6.758 -5.1474 -0.4391  1.9749
   87MOL0     H11716   4.572   9.573   6.736 -0.7907 -1.3099 -1.1534
   87MOL0     H11717   4.510   9.597   6.972  0.3896  0.4383 -3.4137
   87MOL0     H11718   4.387   9.548   6.865  0.0602  2.0056  0.1927
   87MOL0     H11719   4.401   9.432   7.094  1.8913  2.3045 -0.3800
   87MOL0     H11720   4.546   9.357   7.032  0.5308  0.9789 -0.7136
   87MOL0     H11721   4.262   9.315   6.923  0.0229 -0.6602 -1.7828
   87MOL0     H11722   4.404   9.258   6.843 -2.5843  0.6979 -1.5752
   87MOL0     H11723   4.341   9.200   7.133 -1.7116  0.4727 -0.4833
   87MOL0     H11724   4.479   9.131   7.041  0.1861  1.3680  0.4909
   87MOL0     H11725   4.325   8.947   7.008  2.3797 -0.3500 -1.2812
   87MOL0     H11726   4.315   9.040   6.858  2.0107 -2.1686  0.0740
   87MOL0     H11727   4.906   9.334   6.464  0.1185 -0.3306  0.4082
   87MOL0     H11728   5.069   9.378   6.318 -1.2648 -1.9630  0.6949
   87MOL0     H11729   5.453   9.417   6.147  0.6313 -0.0762  1.3766
   87MOL0     H11730   5.670   9.380   6.067  0.3886 -0.0790  1.0593
   87MOL0     H11731   7.707   8.944   5.707  1.5574  1.0549 -0.2176
   87MOL0     H11732   7.894   8.797   5.676  0.2205 -1.2673  0.3436
   87MOL0     H11733   7.953   8.352   5.413  0.0134 -1.6672  0.1672
   87MOL0     H11734   8.100   8.209   5.316  0.4113 -0.9634  0.3255
   87MOL0     H11735   8.407   8.057   5.250  1.5465  2.0377 -1.2720
   87MOL0     H11736   8.239   8.096   5.236  1.0219 -0.2556 -2.9050
   87MOL0     H11737   8.389   8.159   5.056  0.2397 -2.2664  3.1916
   87MOL0     H11738   8.479   8.259   5.155 -1.4935  2.3906  1.8012
   87MOL0     H11739   8.264   8.391   5.215  3.7940 -2.1231  1.4022
   87MOL0     H11740   8.174   8.269   5.112  0.6858 -0.6949 -0.5509
   87MOL0     H11741   8.220   8.511   4.995 -0.4750 -0.4262  1.4887
   87MOL0     H11742   8.261   8.371   4.906  1.7481 -3.0505  2.2131
   87MOL0     H11743   8.641   8.512   4.938  0.7034 -0.4167  2.6750
   87MOL0     H11744   8.401   8.293   5.590  1.1276  0.4642 -0.8041
   87MOL0     H11745   8.246   8.468   5.709  1.5014 -3.5458  1.4431
   88MOL0     O11746   1.317   0.456   8.629 -0.5047  0.3497 -0.4817
   88MOL0     C11747   1.305   0.406   8.740  0.3640 -0.4810 -0.5063
   88MOL0     O11748   1.198   0.354   8.800 -0.2524 -0.6273 -0.1021
   88MOL0     C11749   1.070   0.346   8.754 -0.0095 -0.3100 -0.0775
   88MOL0     C11750   0.971   0.307   8.842 -0.4719 -0.2250 -1.4087
   88MOL0     C11751   0.835   0.301   8.819 -0.9508  0.1123  0.5590
   88MOL0     C11752   0.792   0.357   8.690  0.6623  0.8130 -0.0509
   88MOL0     O11753   0.660   0.390   8.656 -0.5494  0.3024 -0.8354
   88MOL0     C11754   0.563   0.353   8.749  0.7225 -0.0763  0.2716
   88MOL0     C11755   0.415   0.380   8.689 -0.8179 -0.2643 -0.2166
   88MOL0     C11756   0.324   0.293   8.770  0.3979  0.5251  0.3595
   88MOL0     C11757   0.183   0.319   8.713 -0.6386 -0.7812 -0.3698
   88MOL0     C11758   0.083   0.214   8.742 -0.1792  0.3979  0.3475
   88MOL0     C11759  -0.053   0.254   8.690 -0.1764 -0.3911  0.1323
   88MOL0     C11760  -0.167   0.164   8.730  0.3799  0.4592  0.2405
   88MOL0     C11761  -0.295   0.229   8.673 -0.5149  0.1218 -0.5357
   88MOL0     N11762  -0.410   0.160   8.722 -0.5572 -0.2876 -0.4656
   88MOL0     C11763  -0.440   0.025   8.711 -0.4565 -0.2619 -1.0223
   88MOL0     C11764  -0.552   0.015   8.792  0.3426 -0.0199 -0.9030
   88MOL0     C11765  -0.636  -0.107   8.811 -1.1158 -0.2156 -0.4758
   88MOL0     C11766  -0.789  -0.102   8.815  0.1619 -0.1975  0.4411
   88MOL0     C11767  -0.848  -0.049   8.681 -0.3392  0.2061  0.4103
   88MOL0     C11768  -0.997  -0.027   8.696  0.6297  0.5223  0.0648
   88MOL0     O11769  -1.066  -0.153   8.737 -0.6281  0.4860  0.0151
   88MOL0     C11770  -1.205  -0.149   8.763  0.2963 -0.5045  0.7457
   88MOL0     C11771  -1.267  -0.264   8.819 -0.5855  0.0663  0.4949
   88MOL0     C11772  -1.403  -0.266   8.863 -0.4202 -0.3040  0.0282
   88MOL0     C11773  -1.457  -0.395   8.930  0.2602 -0.1550 -0.1533
   88MOL0     C11774  -1.481  -0.149   8.840  0.2370  0.0278 -0.2775
   88MOL0     C11775  -1.623  -0.131   8.872  0.1567  0.4192 -0.0638
   88MOL0     O11776  -1.664   0.001   8.882  0.3654  0.1980 -0.0966
   88MOL0     C11777  -1.795   0.032   8.914  0.1710  0.1350 -0.7878
   88MOL0     C11778  -1.850   0.143   8.854 -0.0846 -0.3338  0.2078
   88MOL0     C11779  -1.969   0.199   8.901 -0.7493 -1.1983 -0.7577
   88MOL0     C11780  -2.044   0.136   9.003 -0.8912  1.1619 -0.7157
   88MOL0     O11781  -2.162   0.193   9.051 -0.6289 -0.3055  0.2525
   88MOL0     C11782  -2.249   0.112   9.119 -0.1759 -0.6875 -0.3090
   88MOL0     C11783  -2.393   0.175   9.093 -0.6149 -0.4029 -0.2172
   88MOL0     C11784  -2.500   0.101   9.178 -0.3365 -0.1129  0.2205
   88MOL0     C11785  -2.612   0.198   9.196  0.3297  0.4047  0.7860
   88MOL0     C11786  -2.732   0.122   9.252 -1.1065  0.2972  0.2238
   88MOL0     C11787  -2.848   0.216   9.272  0.0857 -0.5364  0.3682
   88MOL0     C11788  -2.979   0.153   9.321 -0.7385  0.0942 -0.4346
   88MOL0     C11789  -3.072   0.259   9.388  0.1805 -0.3424 -0.1810
   88MOL0    Cl11790  -3.121   0.377   9.269 -0.0431 -0.0430  0.4662
   88MOL0     C11791  -1.979   0.028   9.076  0.8148 -0.5200  0.6239
   88MOL0     C11792  -1.861  -0.021   9.021  0.3218  0.3315 -0.8048
   88MOL0     O11793  -1.704  -0.225   8.882 -0.0926 -0.1006  0.4531
   88MOL0     C11794  -1.418  -0.035   8.786 -0.6722  0.0905  0.2122
   88MOL0     C11795  -1.280  -0.030   8.749  0.5028 -0.1598 -0.1444
   88MOL0     N11796  -0.583   0.143   8.842  0.4769  0.4416  0.4740
   88MOL0     N11797  -0.490   0.221   8.808 -0.1796 -0.8710 -0.0308
   88MOL0     C11798   0.895   0.419   8.612 -0.0047  0.2145  0.1581
   88MOL0     C11799   1.024   0.407   8.636  0.4215 -0.0145 -0.4957
   88MOL0     C11800   1.429   0.411   8.818 -0.5037  0.2132 -0.5662
   88MOL0     C11801   1.559   0.450   8.776  0.4286 -0.3826  0.8343
   88MOL0     C11802   1.670   0.456   8.862  1.0436  0.1782 -0.0232
   88MOL0     C11803   1.654   0.425   9.004  0.4321 -0.4218 -0.7033
   88MOL0     O11804   1.747   0.425   9.101 -0.1353  0.0418  0.3455
   88MOL0     C11805   1.887   0.448   9.069  0.0826 -0.0233 -0.1621
   88MOL0     C11806   1.914   0.598   9.040 -0.0923  0.7746  0.6679
   88MOL0     C11807   1.900   0.676   9.163  0.6083 -0.3202  0.7839
   88MOL0     C11808   2.028   0.680   9.258 -0.3389 -0.6800 -0.6500
   88MOL0     C11809   2.004   0.750   9.384 -0.3878  0.3883  0.6557
   88MOL0     C11810   1.987   0.782   9.503  0.2079 -0.3230  0.4453
   88MOL0     C11811   1.530   0.379   9.046 -0.6802  0.7016  0.1396
   88MOL0     C11812   1.424   0.373   8.955 -0.1350  0.2289  0.2458
   88MOL0     H11813   0.990   0.282   8.946 -0.7914 -3.0033 -1.9300
   88MOL0     H11814   0.769   0.266   8.897 -1.1745 -3.6845 -1.0863
   88MOL0     H11815   0.571   0.251   8.787  2.1102 -0.1387 -0.1699
   88MOL0     H11816   0.573   0.413   8.841  1.1754 -0.7447  0.6644
   88MOL0     H11817   0.385   0.484   8.702 -0.2824 -0.2817  1.4610
   88MOL0     H11818   0.402   0.358   8.583  1.2104  1.4467 -0.8785
   88MOL0     H11819   0.346   0.188   8.753  1.3835  0.3138  2.6161
   88MOL0     H11820   0.343   0.319   8.874 -0.1249 -0.0720  0.6040
   88MOL0     H11821   0.143   0.416   8.743  3.1102  0.9994 -0.5988
   88MOL0     H11822   0.189   0.322   8.603 -0.0759  0.7394 -0.3230
   88MOL0     H11823   0.118   0.120   8.699  1.5892  0.9664  0.4647
   88MOL0     H11824   0.087   0.201   8.850  2.0306 -0.6964  0.1920
   88MOL0     H11825  -0.064   0.359   8.718  3.3939  0.3049 -0.5417
   88MOL0     H11826  -0.048   0.262   8.581  1.3023 -1.3454  0.0914
   88MOL0     H11827  -0.155   0.061   8.695  2.1577  0.5217  0.5809
   88MOL0     H11828  -0.166   0.155   8.839 -1.1023  0.6231  0.2920
   88MOL0     H11829  -0.293   0.224   8.564 -1.4969  1.4237 -0.6376
   88MOL0     H11830  -0.297   0.337   8.687 -1.3658  0.0820 -0.2741
   88MOL0     H11831  -0.391  -0.061   8.668 -0.1404 -1.6015  1.7946
   88MOL0     H11832  -0.617  -0.178   8.730  0.1454 -0.6740  0.1893
   88MOL0     H11833  -0.602  -0.153   8.904  2.0176 -0.9103 -1.8275
   88MOL0     H11834  -0.818  -0.033   8.893 -2.8808 -0.3831 -0.4138
   88MOL0     H11835  -0.830  -0.201   8.836  2.5271 -1.1668  0.8752
   88MOL0     H11836  -0.828  -0.125   8.605 -1.8938 -0.6890  0.8505
   88MOL0     H11837  -0.802   0.041   8.639  0.2109 -1.4443 -2.8631
   88MOL0     H11838  -1.033   0.014   8.602 -1.0631 -2.1558 -0.5924
   88MOL0     H11839  -1.010   0.056   8.766  0.9275  0.4148  0.2503
   88MOL0     H11840  -1.211  -0.356   8.837 -2.3750 -1.1458  0.1761
   88MOL0     H11841  -1.377  -0.461   8.966 -0.1259  0.3138  1.6211
   88MOL0     H11842  -1.516  -0.368   9.018 -1.0595 -0.0739 -1.0386
   88MOL0     H11843  -1.525  -0.442   8.858 -2.5766  1.6105  1.1978
   88MOL0     H11844  -1.790   0.199   8.784 -0.1277  0.6049  0.9009
   88MOL0     H11845  -2.009   0.285   8.848  0.5370 -1.4579 -2.2366
   88MOL0     H11846  -2.248   0.007   9.088 -0.4188  0.3618 -4.4541
   88MOL0     H11847  -2.232   0.127   9.226  1.6489 -1.3648 -0.4778
   88MOL0     H11848  -2.391   0.282   9.113 -1.1981  0.1355 -2.7493
   88MOL0     H11849  -2.412   0.166   8.985  1.3055 -0.9938 -0.5328
   88MOL0     H11850  -2.464   0.070   9.276  0.7345  2.4975  0.7180
   88MOL0     H11851  -2.519   0.008   9.123  1.7007  0.5717 -1.7803
   88MOL0     H11852  -2.576   0.277   9.262 -2.1363  0.2595  2.4371
   88MOL0     H11853  -2.645   0.240   9.101  1.8474  1.8083  0.8509
   88MOL0     H11854  -2.714   0.071   9.347 -1.7263 -0.7059 -0.1702
   88MOL0     H11855  -2.750   0.045   9.177  0.6588 -0.6275  0.6844
   88MOL0     H11856  -2.831   0.289   9.352 -1.2481  1.0918 -0.7535
   88MOL0     H11857  -2.865   0.265   9.176 -0.7370 -3.1000 -0.8791
   88MOL0     H11858  -2.955   0.072   9.390  1.0414 -2.5237 -3.8638
   88MOL0     H11859  -3.047   0.113   9.246 -1.3716  0.7637 -0.2346
   88MOL0     H11860  -3.017   0.293   9.476  1.6867 -2.0909 -0.3881
   88MOL0     H11861  -3.156   0.204   9.432  1.4211 -1.2109  1.2009
   88MOL0     H11862  -2.015  -0.015   9.169  1.4894  0.7062  1.4784
   88MOL0     H11863  -1.817  -0.114   9.056 -1.6618 -0.4697 -0.2823
   88MOL0     H11864  -1.465   0.063   8.786 -1.8880 -0.4087  2.7988
   88MOL0     H11865  -1.240   0.068   8.725  1.1538 -0.2389  0.5743
   88MOL0     H11866   0.854   0.478   8.530  1.8451 -2.8370 -3.3082
   88MOL0     H11867   1.089   0.456   8.564  0.0213  0.8087 -0.3101
   88MOL0     H11868   1.570   0.470   8.670  1.7627  2.3436  1.4075
   88MOL0     H11869   1.767   0.489   8.826  0.8754  0.6698 -0.0218
   88MOL0     H11870   1.953   0.413   9.149  1.3790  0.0093 -1.1721
   88MOL0     H11871   1.911   0.396   8.975 -2.6177 -1.8824  0.0661
   88MOL0     H11872   1.847   0.638   8.963  0.2365 -1.3052 -0.8030
   88MOL0     H11873   2.017   0.589   9.003 -1.0441 -1.4925 -1.7231
   88MOL0     H11874   1.808   0.653   9.218 -0.6166  3.4653  0.5562
   88MOL0     H11875   1.890   0.783   9.145  0.9770  0.1016  2.8468
   88MOL0     H11876   2.112   0.726   9.205 -2.0982  1.8991 -1.4026
   88MOL0     H11877   2.061   0.579   9.283  2.4248  0.1148 -0.7685
   88MOL0     H11878   1.982   0.813   9.605 -1.2919  0.0048  0.2970
   88MOL0     H11879   1.518   0.338   9.145 -0.8992  1.9230  0.6345
   88MOL0     H11880   1.326   0.337   8.985 -1.1730  1.5616 -1.3468
   89MOL0     O11881   6.619   2.548   3.750  0.1209  0.1787 -0.2118
   89MOL0     C11882   6.717   2.615   3.719  0.5088 -0.2053 -0.5599
   89MOL0     O11883   6.730   2.753   3.712 -0.4651  0.0781 -1.4676
   89MOL0     C11884   6.616   2.822   3.769  0.4775  0.5366  0.1092
   89MOL0     C11885   6.650   2.916   3.862  0.3182  0.7288  0.5526
   89MOL0     C11886   6.551   2.985   3.928  0.0527 -0.3594 -0.3099
   89MOL0     C11887   6.419   2.976   3.880 -0.2718 -0.3867  0.5193
   89MOL0     O11888   6.332   3.060   3.946  0.3953  0.3112 -0.2575
   89MOL0     C11889   6.198   3.021   3.969 -0.3706 -0.0510  0.5300
   89MOL0     C11890   6.152   3.116   4.077 -0.1207  0.3272 -0.1040
   89MOL0     C11891   6.001   3.117   4.068  0.2532 -0.1012 -0.9365
   89MOL0     C11892   5.945   3.218   4.166 -0.1315  0.1906  0.5477
   89MOL0     C11893   5.793   3.247   4.136 -0.0203  0.0256 -0.2768
   89MOL0     C11894   5.741   3.338   4.238 -0.1130 -0.4013  0.1211
   89MOL0     C11895   5.603   3.397   4.206  0.1578  1.5421 -0.1501
   89MOL0     C11896   5.541   3.484   4.323 -0.2330  0.5553  0.7106
   89MOL0     N11897   5.434   3.581   4.284  0.2712  0.7073  0.0896
   89MOL0     C11898   5.412   3.707   4.341 -0.6790  0.5465  0.6145
   89MOL0     C11899   5.323   3.765   4.271  0.0879 -0.3878  0.1669
   89MOL0     C11900   5.261   3.890   4.311  0.3359 -0.4333  0.0006
   89MOL0     C11901   5.138   3.858   4.406  0.5179  0.4541 -0.1636
   89MOL0     C11902   5.037   3.974   4.422  0.5124  0.3469  0.3823
   89MOL0     C11903   4.912   3.942   4.502 -0.6746  0.5382  0.1558
   89MOL0     O11904   4.814   4.045   4.486  0.0997  0.4116 -0.2653
   89MOL0     C11905   4.769   4.102   4.594  0.0668  0.0213  0.1973
   89MOL0     C11906   4.844   4.198   4.662 -1.0917  0.6436  0.0564
   89MOL0     C11907   4.781   4.271   4.766 -0.4780 -1.1757 -0.9538
   89MOL0     C11908   4.869   4.380   4.841 -0.5646 -0.6485 -0.4708
   89MOL0     C11909   4.652   4.246   4.804  0.2656  0.5990  0.0854
   89MOL0     C11910   4.571   4.320   4.904 -0.3246  0.3455 -0.1737
   89MOL0     O11911   4.460   4.248   4.960 -0.2527  0.0677  0.4727
   89MOL0     C11912   4.368   4.315   5.034 -0.5735 -0.7032  0.3676
   89MOL0     C11913   4.297   4.425   4.983 -0.4741  0.9333 -0.6715
   89MOL0     C11914   4.207   4.488   5.065  0.3815  0.0004  0.0735
   89MOL0     C11915   4.170   4.449   5.192  0.0303  0.5100  0.3572
   89MOL0     O11916   4.069   4.510   5.261  0.2980 -0.1016  0.4095
   89MOL0     C11917   3.943   4.500   5.195 -0.6226  0.7647  0.1092
   89MOL0     C11918   3.864   4.459   5.316  0.0268 -0.0212  0.6270
   89MOL0     C11919   3.718   4.453   5.296  1.4646 -0.1935 -0.4546
   89MOL0     C11920   3.639   4.374   5.410 -0.2832 -0.1373 -0.1317
   89MOL0     C11921   3.485   4.395   5.394 -0.4920 -0.2981  0.3919
   89MOL0     C11922   3.433   4.336   5.260  0.2682  0.1926 -0.8255
   89MOL0     C11923   3.425   4.179   5.258 -0.2063 -0.2281 -0.3603
   89MOL0     C11924   3.365   4.122   5.138  0.5274 -1.0290 -0.4961
   89MOL0    Cl11925   3.371   3.946   5.161 -0.1567  0.3451 -0.3937
   89MOL0     C11926   4.234   4.330   5.238  0.4679 -0.9103 -0.0622
   89MOL0     C11927   4.328   4.267   5.158  0.0389  0.1566 -0.1311
   89MOL0     O11928   4.603   4.435   4.939 -0.0098 -0.7130  0.6999
   89MOL0     C11929   4.580   4.138   4.741  0.3695 -0.1093 -0.1125
   89MOL0     C11930   4.640   4.074   4.638 -0.2387  0.0619 -0.4571
   89MOL0     N11931   5.286   3.678   4.168 -0.4242 -0.5702  0.5113
   89MOL0     N11932   5.352   3.560   4.178  0.7658  0.0792  0.3213
   89MOL0     C11933   6.387   2.878   3.793  0.8060  0.4029  1.0114
   89MOL0     C11934   6.476   2.795   3.741  0.0347  0.5825  0.7861
   89MOL0     C11935   6.840   2.556   3.679 -0.3965 -0.3362  0.4216
   89MOL0     C11936   6.958   2.634   3.653 -0.7965  0.2031 -0.1810
   89MOL0     C11937   7.073   2.569   3.595 -0.0175 -0.2488 -0.7005
   89MOL0     C11938   7.070   2.435   3.566 -0.7166 -0.0938 -0.7637
   89MOL0     O11939   7.172   2.377   3.498 -0.5592  0.2282  0.4105
   89MOL0     C11940   7.167   2.238   3.469  0.3653  0.2074 -0.3609
   89MOL0     C11941   7.294   2.218   3.391 -0.3477  0.4315  0.6131
   89MOL0     C11942   7.423   2.209   3.468 -0.1848 -0.9596 -0.6254
   89MOL0     C11943   7.436   2.330   3.572 -0.0778 -0.5554 -0.4004
   89MOL0     C11944   7.573   2.329   3.632  1.2094 -0.0999  0.3789
   89MOL0     C11945   7.686   2.324   3.675  1.0444 -0.3518  1.5804
   89MOL0     C11946   6.961   2.359   3.612 -0.5791 -0.0893  0.0465
   89MOL0     C11947   6.841   2.417   3.662 -0.5710  0.4964 -0.5554
   89MOL0     H11948   6.752   2.931   3.896  0.0093  1.9720  1.0000
   89MOL0     H11949   6.571   3.060   4.004  0.4007  1.3454 -2.0001
   89MOL0     H11950   6.144   3.032   3.875  0.0636 -0.9583  0.1587
   89MOL0     H11951   6.192   2.925   4.019  2.8743 -1.0160 -0.6822
   89MOL0     H11952   6.198   3.085   4.171 -0.4176  1.1365  0.3131
   89MOL0     H11953   6.200   3.211   4.051  0.8701 -0.1351 -0.0344
   89MOL0     H11954   5.964   3.138   3.967 -1.1915 -1.2261 -0.6647
   89MOL0     H11955   5.969   3.016   4.093 -0.3425  0.4673  0.7284
   89MOL0     H11956   5.965   3.178   4.266  1.6723 -1.0337 -0.2353
   89MOL0     H11957   5.992   3.316   4.160 -1.5815  0.9741  1.3829
   89MOL0     H11958   5.794   3.301   4.040  0.3087  0.2559 -0.1431
   89MOL0     H11959   5.713   3.173   4.134 -2.8214  2.8560 -0.3181
   89MOL0     H11960   5.731   3.274   4.327 -1.8731  0.5406  0.6601
   89MOL0     H11961   5.816   3.415   4.253 -0.4636 -0.4874  2.9963
   89MOL0     H11962   5.611   3.457   4.115 -1.9454  1.5298 -0.4050
   89MOL0     H11963   5.535   3.313   4.187 -1.3703  3.0117 -1.5714
   89MOL0     H11964   5.628   3.538   4.361  2.4694 -2.8529 -0.0778
   89MOL0     H11965   5.504   3.426   4.408  0.6222 -1.2415 -0.0851
   89MOL0     H11966   5.452   3.749   4.433  0.3603 -0.1623  0.5059
   89MOL0     H11967   5.330   3.953   4.368  0.3830 -1.0775  0.6782
   89MOL0     H11968   5.240   3.936   4.214  0.5108 -0.0722  0.1323
   89MOL0     H11969   5.168   3.830   4.508 -2.2920  1.5847  1.0900
   89MOL0     H11970   5.095   3.765   4.368 -0.5120 -0.1381  2.1987
   89MOL0     H11971   5.015   4.015   4.323  3.5926 -0.2971 -0.6862
   89MOL0     H11972   5.087   4.060   4.469  0.7219  1.3297 -1.5388
   89MOL0     H11973   4.942   3.931   4.606  0.4520 -1.1663 -0.3069
   89MOL0     H11974   4.855   3.855   4.467  1.8253 -1.7814  1.4185
   89MOL0     H11975   4.946   4.209   4.627 -0.6283 -2.2682  0.2313
   89MOL0     H11976   4.835   4.483   4.837 -2.8192 -1.2413  1.4833
   89MOL0     H11977   4.864   4.355   4.947  0.1615  0.0054 -0.2729
   89MOL0     H11978   4.975   4.366   4.818 -0.7284 -0.5526 -1.3231
   89MOL0     H11979   4.317   4.461   4.883 -1.4481  0.3457 -1.0911
   89MOL0     H11980   4.145   4.571   5.033 -0.0450 -0.7116 -1.0127
   89MOL0     H11981   3.915   4.603   5.169  2.6345  1.2692 -1.9717
   89MOL0     H11982   3.934   4.428   5.112 -0.9032  1.4069 -0.4263
   89MOL0     H11983   3.886   4.357   5.347 -0.8140 -0.1321  0.8894
   89MOL0     H11984   3.904   4.520   5.397  3.8348 -0.7600 -0.4726
   89MOL0     H11985   3.699   4.398   5.204 -1.5461  2.3990 -1.5599
   89MOL0     H11986   3.680   4.556   5.290 -0.2077 -0.7982 -0.6631
   89MOL0     H11987   3.652   4.265   5.410 -2.3498 -0.4555 -1.7440
   89MOL0     H11988   3.676   4.416   5.504  1.4238 -1.8776  0.0439
   89MOL0     H11989   3.456   4.500   5.393 -0.7172 -0.2933  2.4839
   89MOL0     H11990   3.425   4.359   5.477 -1.0157 -0.0917  0.1061
   89MOL0     H11991   3.334   4.383   5.251  0.8153  1.7897  0.9343
   89MOL0     H11992   3.501   4.365   5.180  0.0262  3.6129  0.0463
   89MOL0     H11993   3.379   4.148   5.352  3.8443  3.4605  3.3382
   89MOL0     H11994   3.531   4.152   5.267  0.2510  1.6466  0.3630
   89MOL0     H11995   3.427   4.134   5.049 -1.0386 -0.7451 -1.5911
   89MOL0     H11996   3.261   4.153   5.124  0.0394 -1.0856  2.3205
   89MOL0     H11997   4.210   4.270   5.325  4.5520 -2.1110  0.4331
   89MOL0     H11998   4.364   4.171   5.191 -4.1519 -1.0351  1.6909
   89MOL0     H11999   4.486   4.093   4.772  1.7465 -1.9530  1.6616
   89MOL0     H12000   4.574   4.002   4.589 -1.8225  0.5791  0.8355
   89MOL0     H12001   6.287   2.860   3.755  2.2328  0.2373 -3.1638
   89MOL0     H12002   6.447   2.714   3.675  0.5798  0.4994  0.6499
   89MOL0     H12003   6.969   2.737   3.683 -1.8533 -0.0866  1.3492
   89MOL0     H12004   7.165   2.622   3.572 -0.4368  1.6070  1.5616
   89MOL0     H12005   7.164   2.186   3.565  0.7740  2.0600  0.7221
   89MOL0     H12006   7.081   2.204   3.410  1.7662 -0.1252 -2.3218
   89MOL0     H12007   7.310   2.303   3.325 -1.1809  0.2705  0.1855
   89MOL0     H12008   7.283   2.135   3.320  2.3933  0.6983 -0.2270
   89MOL0     H12009   7.501   2.219   3.392 -0.5495 -1.3260 -1.0598
   89MOL0     H12010   7.422   2.118   3.528 -3.2185 -2.1932 -2.3285
   89MOL0     H12011   7.363   2.332   3.653 -0.2937  2.7706 -0.5332
   89MOL0     H12012   7.433   2.417   3.505  0.2308 -0.9720 -0.9695
   89MOL0     H12013   7.789   2.320   3.704  1.8666  0.8188 -0.9670
   89MOL0     H12014   6.949   2.252   3.597  0.3379  0.0439 -1.8586
   89MOL0     H12015   6.762   2.355   3.703  1.0644 -0.1598  1.8626
   90MOL0     O12016   1.958   9.587  11.006 -0.2546 -0.4972 -0.2485
   90MOL0     C12017   2.013   9.526  10.915  0.1949 -0.1458  0.0843
   90MOL0     O12018   1.956   9.443  10.832  0.2963  0.3281 -0.6306
   90MOL0     C12019   1.821   9.423  10.841 -0.2564  0.0280  0.7731
   90MOL0     C12020   1.737   9.505  10.772  0.1553  0.0135 -0.5316
   90MOL0     C12021   1.606   9.471  10.746 -0.0790 -0.0599  0.2122
   90MOL0     C12022   1.544   9.370  10.823  0.1567  0.3770  0.7618
   90MOL0     O12023   1.414   9.354  10.793 -0.6319 -0.4043 -0.8164
   90MOL0     C12024   1.349   9.253  10.860  0.1629 -0.3734 -0.2079
   90MOL0     C12025   1.213   9.220  10.786  0.4171 -0.3106 -0.0353
   90MOL0     C12026   1.107   9.175  10.893 -0.3203 -0.3119 -1.3291
   90MOL0     C12027   0.992   9.130  10.808 -0.1355  0.1325 -0.5666
   90MOL0     C12028   0.878   9.054  10.885  0.6323 -0.4603 -0.1713
   90MOL0     C12029   0.756   9.025  10.800  0.5657 -0.7236  0.4288
   90MOL0     C12030   0.662   8.934  10.883 -0.4346 -0.2559  0.6546
   90MOL0     C12031   0.532   8.884  10.808 -0.0147  0.3134 -1.2994
   90MOL0     N12032   0.505   8.947  10.679  0.6743  0.0420 -0.6832
   90MOL0     C12033   0.446   9.069  10.659  0.0852  0.3715 -0.8291
   90MOL0     C12034   0.427   9.069  10.524 -0.5987 -0.2765  0.0532
   90MOL0     C12035   0.384   9.195  10.447  0.5593  0.2239 -0.6475
   90MOL0     C12036   0.262   9.249  10.527 -1.2346 -0.2064  1.2024
   90MOL0     C12037   0.171   9.331  10.434  0.4128  0.1337  0.6763
   90MOL0     C12038   0.054   9.401  10.498 -0.6624  0.4072 -0.6137
   90MOL0     O12039  -0.050   9.418  10.403 -0.0768 -0.3331 -0.4189
   90MOL0     C12040  -0.180   9.448  10.452 -0.4035  0.5793 -0.2520
   90MOL0     C12041  -0.210   9.485  10.587  0.7681  0.0473  0.4605
   90MOL0     C12042  -0.338   9.515  10.619 -0.4779  0.6448  0.3800
   90MOL0     C12043  -0.356   9.543  10.771  0.6918 -0.6581  0.5765
   90MOL0     C12044  -0.439   9.528  10.525 -0.8052  0.5825  0.9488
   90MOL0     C12045  -0.586   9.558  10.553 -0.3475  0.5379 -0.2359
   90MOL0     O12046  -0.679   9.522  10.457 -0.1886  0.4689  0.1583
   90MOL0     C12047  -0.804   9.547  10.472  0.7223 -0.7337 -0.1485
   90MOL0     C12048  -0.904   9.451  10.456  0.4728  0.7210  0.4852
   90MOL0     C12049  -1.043   9.477  10.475 -0.1113  1.0395  0.1711
   90MOL0     C12050  -1.085   9.607  10.477  0.3829  0.8104  0.4284
   90MOL0     O12051  -1.220   9.634  10.495  0.3949  0.3321 -0.1879
   90MOL0     C12052  -1.327   9.540  10.496  0.0243 -0.6042  0.2593
   90MOL0     C12053  -1.451   9.604  10.566 -0.2835 -0.5873  0.9676
   90MOL0     C12054  -1.551   9.502  10.618 -0.8254  0.5526  0.0976
   90MOL0     C12055  -1.698   9.537  10.579 -0.5650  0.0970  0.1369
   90MOL0     C12056  -1.792   9.427  10.612 -0.5012 -0.6315  0.2739
   90MOL0     C12057  -1.930   9.440  10.547 -0.6232 -0.7072 -0.5089
   90MOL0     C12058  -2.004   9.580  10.571  0.3015  0.4702  0.0652
   90MOL0     C12059  -2.146   9.583  10.518  0.7053  0.0251 -0.1857
   90MOL0    Cl12060  -2.261   9.560  10.651 -0.1806 -0.1765 -0.1301
   90MOL0     C12061  -0.989   9.709  10.493 -0.5378 -0.4353  0.5466
   90MOL0     C12062  -0.848   9.679  10.495  0.2441  0.1108  0.3630
   90MOL0     O12063  -0.617   9.609  10.663 -0.3123 -0.0550  0.1869
   90MOL0     C12064  -0.405   9.492  10.392  0.3045  1.0992 -0.2742
   90MOL0     C12065  -0.282   9.448  10.357 -0.0538 -0.1769 -0.0789
   90MOL0     N12066   0.451   8.945  10.469 -0.1148 -0.0264  0.0380
   90MOL0     N12067   0.490   8.872  10.562 -0.9721 -0.2185 -0.7452
   90MOL0     C12068   1.629   9.292  10.909 -0.1232  0.7869  0.0280
   90MOL0     C12069   1.771   9.313  10.913 -0.2859 -0.0855 -0.1313
   90MOL0     C12070   2.167   9.549  10.903  0.5267  0.4003  0.1266
   90MOL0     C12071   2.244   9.622  11.003  0.4483  0.1157  0.6922
   90MOL0     C12072   2.378   9.643  10.977 -0.3095 -0.3941  0.2115
   90MOL0     C12073   2.444   9.590  10.863 -0.0869 -0.4772  0.1087
   90MOL0     O12074   2.579   9.592  10.857  0.4540 -0.0336  0.2611
   90MOL0     C12075   2.649   9.536  10.738  0.1951  0.2917 -0.1079
   90MOL0     C12076   2.798   9.571  10.740 -0.4511  0.4759 -0.2397
   90MOL0     C12077   2.876   9.547  10.608  0.0906 -0.6862  0.4883
   90MOL0     C12078   3.019   9.588  10.624  0.2863  0.0744 -0.5507
   90MOL0     C12079   3.101   9.556  10.504  0.4867  0.1696  0.0292
   90MOL0     C12080   3.171   9.557  10.404 -0.8963 -0.4432  0.1070
   90MOL0     C12081   2.361   9.518  10.771  0.0374 -0.0693  0.9729
   90MOL0     C12082   2.225   9.506  10.789  0.2815  0.3732 -0.0349
   90MOL0     H12083   1.797   9.575  10.714 -0.4988  0.8026 -0.2646
   90MOL0     H12084   1.551   9.530  10.673 -2.8317 -1.5443  0.9118
   90MOL0     H12085   1.410   9.162  10.860 -0.9971 -1.2823  3.1051
   90MOL0     H12086   1.338   9.276  10.966 -0.0234 -0.8056 -0.1277
   90MOL0     H12087   1.178   9.311  10.736  1.9412 -0.6957 -1.9403
   90MOL0     H12088   1.231   9.136  10.719 -0.9448 -1.8337  1.4250
   90MOL0     H12089   1.146   9.094  10.956 -2.7972 -0.1689  0.5414
   90MOL0     H12090   1.073   9.257  10.956 -1.0784 -0.5914 -1.3642
   90MOL0     H12091   0.952   9.216  10.755 -0.0615 -0.9399 -2.4687
   90MOL0     H12092   1.036   9.069  10.728  3.0335  1.4121  0.0163
   90MOL0     H12093   0.919   8.961  10.926  0.1834 -1.8062 -2.6020
   90MOL0     H12094   0.846   9.113  10.972  0.6035 -0.8830  0.1092
   90MOL0     H12095   0.711   9.120  10.768 -1.2522 -1.4515  0.6574
   90MOL0     H12096   0.772   8.963  10.712 -3.5432 -0.8469 -0.4441
   90MOL0     H12097   0.716   8.849  10.926 -0.4787 -1.5862 -1.7257
   90MOL0     H12098   0.618   8.990  10.966 -0.3391 -1.9772  1.9321
   90MOL0     H12099   0.451   8.907  10.878  2.4683 -0.7858  2.1888
   90MOL0     H12100   0.548   8.777  10.791 -1.0343 -0.4014  1.6267
   90MOL0     H12101   0.425   9.149  10.730  2.5165  1.4047 -1.1593
   90MOL0     H12102   0.461   9.270  10.424 -0.3430  1.4563  0.2076
   90MOL0     H12103   0.346   9.153  10.353  1.2920 -0.0629 -0.8258
   90MOL0     H12104   0.288   9.323  10.603  1.1053  0.1608  0.1142
   90MOL0     H12105   0.217   9.158  10.568 -0.3435 -1.6690 -0.8877
   90MOL0     H12106   0.124   9.250  10.377  0.7710 -0.2177  0.8770
   90MOL0     H12107   0.222   9.411  10.381 -0.0008 -0.4359 -0.6243
   90MOL0     H12108   0.083   9.496  10.543  0.0486  0.2914 -0.8133
   90MOL0     H12109   0.023   9.341  10.584 -0.3250  2.3192  0.9166
   90MOL0     H12110  -0.136   9.470  10.664 -0.3749 -1.1747  1.3701
   90MOL0     H12111  -0.268   9.515  10.830  0.4620  0.1875  1.3453
   90MOL0     H12112  -0.375   9.649  10.790  0.0426 -0.1053 -2.6301
   90MOL0     H12113  -0.437   9.477  10.804 -1.5965  2.4947  1.7568
   90MOL0     H12114  -0.876   9.349  10.431 -0.9393  0.8354 -1.9081
   90MOL0     H12115  -1.119   9.402  10.456 -0.1818  0.4823  2.4002
   90MOL0     H12116  -1.356   9.510  10.395 -1.0513 -0.5614  0.5372
   90MOL0     H12117  -1.291   9.447  10.542 -1.4802 -1.4764 -0.2487
   90MOL0     H12118  -1.406   9.668  10.643  0.6995  2.2369 -1.7332
   90MOL0     H12119  -1.498   9.676  10.498 -0.8766 -0.8435  1.1019
   90MOL0     H12120  -1.563   9.512  10.726  0.4811 -0.9984  0.4184
   90MOL0     H12121  -1.522   9.402  10.585 -2.2098 -0.0967  0.7465
   90MOL0     H12122  -1.739   9.631  10.616 -1.8509  0.4601 -2.0292
   90MOL0     H12123  -1.704   9.563  10.473  1.5705  1.7940  0.3670
   90MOL0     H12124  -1.805   9.423  10.720 -0.0542  0.8598  0.4169
   90MOL0     H12125  -1.743   9.333  10.584 -0.3887 -0.4400 -0.1874
   90MOL0     H12126  -1.913   9.431  10.440  1.0557  1.4148 -0.4967
   90MOL0     H12127  -1.991   9.352  10.569  0.0081 -1.7550 -2.7266
   90MOL0     H12128  -1.957   9.665  10.522  0.9870  0.5918  0.9270
   90MOL0     H12129  -2.000   9.597  10.679 -0.0302 -1.8811  0.4994
   90MOL0     H12130  -2.162   9.500  10.448 -0.5621 -0.0073  0.1171
   90MOL0     H12131  -2.156   9.675  10.460 -0.3126 -1.3001 -2.2355
   90MOL0     H12132  -1.010   9.808  10.533 -0.3782 -0.0844 -0.2056
   90MOL0     H12133  -0.774   9.754  10.520 -0.6469  1.3601 -0.6100
   90MOL0     H12134  -0.478   9.488  10.312  0.3105 -2.2571 -0.2553
   90MOL0     H12135  -0.249   9.432  10.255 -2.2408 -0.2749 -0.8144
   90MOL0     H12136   1.591   9.204  10.960  0.0145 -0.2954 -1.6195
   90MOL0     H12137   1.838   9.244  10.964 -0.3340  0.0027  0.0526
   90MOL0     H12138   2.197   9.643  11.098  0.7039  1.9342  0.4464
   90MOL0     H12139   2.446   9.687  11.049 -1.3831  1.6400  0.0417
   90MOL0     H12140   2.632   9.428  10.732 -0.0266  0.4039 -2.2689
   90MOL0     H12141   2.606   9.590  10.653 -0.2331 -1.0616 -0.7737
   90MOL0     H12142   2.854   9.505  10.806 -0.2666  0.6277 -0.2443
   90MOL0     H12143   2.796   9.677  10.764 -1.7663  0.4869 -0.3430
   90MOL0     H12144   2.840   9.601  10.520  1.9200 -3.1340 -1.9428
   90MOL0     H12145   2.872   9.444  10.570 -1.3111 -0.3569 -0.3652
   90MOL0     H12146   3.061   9.544  10.716 -0.7718  1.3791  0.6064
   90MOL0     H12147   3.033   9.694  10.647  1.4255 -0.4699  1.6246
   90MOL0     H12148   3.250   9.542  10.333  0.1622 -1.4941  1.4397
   90MOL0     H12149   2.415   9.461  10.696 -1.9303  1.1482 -1.5186
   90MOL0     H12150   2.161   9.450  10.722 -0.0253 -2.8353  2.6800
   91MOL0     O12151   8.342   9.859   1.351  0.0549  0.2418 -0.3145
   91MOL0     C12152   8.445   9.797   1.330  0.2797  0.9506  0.2522
   91MOL0     O12153   8.458   9.707   1.226  0.2734  0.3363 -1.1755
   91MOL0     C12154   8.338   9.671   1.168 -0.3369 -0.2772 -0.1356
   91MOL0     C12155   8.264   9.563   1.211  0.4213  0.3909 -0.3185
   91MOL0     C12156   8.145   9.513   1.154 -0.3624 -0.9577 -0.3998
   91MOL0     C12157   8.097   9.587   1.043  0.1193 -0.3882 -0.3127
   91MOL0     O12158   7.970   9.560   0.981  0.5389  0.0850 -0.1797
   91MOL0     C12159   7.918   9.436   1.021  0.4467  0.4334  0.0434
   91MOL0     C12160   7.812   9.381   0.929 -0.2307 -0.1795 -0.2637
   91MOL0     C12161   7.719   9.280   0.985  0.2434 -0.2156  0.2909
   91MOL0     C12162   7.777   9.141   0.992 -0.3546 -0.1663 -0.3577
   91MOL0     C12163   7.684   9.050   1.073 -0.0934  0.1304 -0.2745
   91MOL0     C12164   7.732   8.903   1.058  0.3328  0.1310 -0.0034
   91MOL0     C12165   7.655   8.819   1.156 -0.1458 -0.4049 -0.5983
   91MOL0     C12166   7.678   8.678   1.157  0.5548  0.3146 -0.2817
   91MOL0     N12167   7.596   8.614   1.260  0.3347  0.3289 -0.1056
   91MOL0     C12168   7.636   8.572   1.382 -1.4364 -0.1862  0.4089
   91MOL0     C12169   7.527   8.519   1.439  0.6276 -0.4388  0.0791
   91MOL0     C12170   7.534   8.432   1.563 -0.1360  0.7194  0.0811
   91MOL0     C12171   7.445   8.297   1.544 -0.1890 -1.0072  0.2838
   91MOL0     C12172   7.455   8.236   1.406 -0.0669 -0.8263  0.9459
   91MOL0     C12173   7.371   8.106   1.381 -0.2256 -0.6976 -0.2243
   91MOL0     O12174   7.234   8.117   1.365 -0.5310 -0.1286 -0.1162
   91MOL0     C12175   7.148   8.002   1.371  0.3007  0.1798  0.3536
   91MOL0     C12176   7.195   7.868   1.391 -0.0856 -0.6233 -0.8182
   91MOL0     C12177   7.106   7.752   1.390  1.4019 -0.4178  0.0197
   91MOL0     C12178   7.167   7.613   1.425 -0.6049  0.1672  0.3630
   91MOL0     C12179   6.961   7.774   1.379  0.2918  0.3016 -0.5478
   91MOL0     C12180   6.857   7.668   1.399  0.2787 -0.2911  1.1836
   91MOL0     O12181   6.728   7.711   1.399  0.7656  0.3420  0.7493
   91MOL0     C12182   6.635   7.617   1.420  0.3359  1.3697 -0.2770
   91MOL0     C12183   6.526   7.647   1.496  0.6988  0.4553 -0.1914
   91MOL0     C12184   6.420   7.554   1.506 -0.0127 -0.7910 -0.0213
   91MOL0     C12185   6.418   7.426   1.445  0.1495 -1.2439  1.6177
   91MOL0     O12186   6.311   7.346   1.477  0.1292 -0.2650 -0.1484
   91MOL0     C12187   6.326   7.211   1.422  0.1495  0.4994 -0.0111
   91MOL0     C12188   6.202   7.121   1.456 -0.7655  0.7611  0.9168
   91MOL0     C12189   6.175   7.112   1.610 -0.1733 -0.0595 -0.7998
   91MOL0     C12190   6.069   7.002   1.643 -0.3866  0.7875 -0.9729
   91MOL0     C12191   6.001   7.023   1.774  0.2203 -1.1607 -0.4270
   91MOL0     C12192   5.909   6.901   1.793  0.1529  0.1084  0.2366
   91MOL0     C12193   5.814   6.916   1.914 -1.2107  0.1104 -0.6230
   91MOL0     C12194   5.702   6.816   1.933  0.3120 -1.3102  0.2525
   91MOL0    Cl12195   5.577   6.840   2.059 -0.4555  0.2027  0.3184
   91MOL0     C12196   6.524   7.405   1.351  0.5543  0.8567 -0.7784
   91MOL0     C12197   6.630   7.496   1.338 -0.1274  0.3524  0.4680
   91MOL0     O12198   6.893   7.558   1.421  0.5987 -0.2141  0.0864
   91MOL0     C12199   6.916   7.905   1.357  0.7846  0.8775 -0.8547
   91MOL0     C12200   7.009   8.008   1.360  1.3364 -0.0582 -0.2725
   91MOL0     N12201   7.417   8.558   1.363  0.0925  0.3800 -0.3987
   91MOL0     N12202   7.461   8.601   1.244 -0.0510  0.0772 -0.2284
   91MOL0     C12203   8.173   9.703   0.992  0.6031 -0.2926  0.2338
   91MOL0     C12204   8.299   9.736   1.049 -0.2998 -1.3990 -0.2442
   91MOL0     C12205   8.566   9.823   1.415  0.2406 -0.4922  0.2226
   91MOL0     C12206   8.575   9.937   1.492 -0.1862  0.9575  0.1238
   91MOL0     C12207   8.686   9.955   1.575 -0.6558  0.2171 -0.2446
   91MOL0     C12208   8.789   9.863   1.583  0.1110 -0.2761  0.2212
   91MOL0     O12209   8.893   9.886   1.676 -0.5974 -0.9819 -0.0916
   91MOL0     C12210   9.017   9.804   1.666 -0.3843  0.3362 -0.1027
   91MOL0     C12211   9.091   9.803   1.799  0.1155 -0.7056 -0.9198
   91MOL0     C12212   9.191   9.689   1.815 -0.2367  0.1166  0.0907
   91MOL0     C12213   9.312   9.680   1.720  0.4587  0.3019 -0.3124
   91MOL0     C12214   9.387   9.804   1.706 -0.5306 -0.3583  0.3953
   91MOL0     C12215   9.435   9.913   1.677 -0.0700  0.3877  0.7189
   91MOL0     C12216   8.780   9.745   1.507 -0.1634 -0.0286  0.7921
   91MOL0     C12217   8.666   9.723   1.426  0.2116  0.8373 -0.2120
   91MOL0     H12218   8.319   9.522   1.295 -0.5396 -1.8309 -0.6869
   91MOL0     H12219   8.103   9.433   1.213  1.1618 -2.0783 -0.7623
   91MOL0     H12220   7.997   9.360   1.022  1.6570  1.5368  3.4310
   91MOL0     H12221   7.881   9.443   1.123  0.9803  2.2539  0.1534
   91MOL0     H12222   7.753   9.466   0.894  2.9967  1.0461 -3.3300
   91MOL0     H12223   7.857   9.340   0.838 -0.2400 -2.3295  0.6306
   91MOL0     H12224   7.685   9.296   1.087 -3.5813 -1.4275 -0.6365
   91MOL0     H12225   7.630   9.287   0.921 -0.8257  0.1919  1.7827
   91MOL0     H12226   7.785   9.100   0.891  3.1418 -0.4313 -0.0923
   91MOL0     H12227   7.878   9.141   1.033 -0.4079 -1.1543 -0.2043
   91MOL0     H12228   7.678   9.085   1.176  2.4518  1.9008 -0.6177
   91MOL0     H12229   7.581   9.059   1.037 -0.6476  0.2168  1.2837
   91MOL0     H12230   7.714   8.883   0.952 -0.3071  1.1123 -0.0919
   91MOL0     H12231   7.838   8.890   1.078  0.7384  2.3561 -0.4194
   91MOL0     H12232   7.672   8.861   1.255 -1.3321 -0.3422 -0.4084
   91MOL0     H12233   7.551   8.834   1.123 -0.1766 -2.3068 -1.4855
   91MOL0     H12234   7.784   8.654   1.173  0.5083  0.6768  0.6204
   91MOL0     H12235   7.654   8.633   1.060  3.9112 -1.0369 -0.6298
   91MOL0     H12236   7.735   8.585   1.423 -0.7059  0.9947 -1.5835
   91MOL0     H12237   7.636   8.408   1.592 -0.8335 -1.2100  1.0911
   91MOL0     H12238   7.485   8.490   1.641 -2.4092 -0.0750 -0.6733
   91MOL0     H12239   7.340   8.328   1.555  0.4286  1.6092 -0.4324
   91MOL0     H12240   7.472   8.227   1.623  0.9151  0.0701  0.8963
   91MOL0     H12241   7.558   8.215   1.378 -0.9560 -1.6678 -2.0644
   91MOL0     H12242   7.410   8.302   1.332  1.1301 -0.9457  0.0855
   91MOL0     H12243   7.404   8.047   1.467  0.6434  0.1538  0.0463
   91MOL0     H12244   7.409   8.051   1.294  0.3743 -0.8501  0.1287
   91MOL0     H12245   7.301   7.850   1.405  0.9242  3.2240 -2.3483
   91MOL0     H12246   7.120   7.547   1.351  1.1407  0.4907 -1.1101
   91MOL0     H12247   7.276   7.609   1.420 -0.5646 -1.3729  1.8536
   91MOL0     H12248   7.139   7.587   1.527 -0.7008 -2.8673 -0.3531
   91MOL0     H12249   6.522   7.737   1.556  1.6199  0.2815  0.1384
   91MOL0     H12250   6.335   7.579   1.568  0.9419  1.4972  0.4564
   91MOL0     H12251   6.332   7.217   1.313  2.7049 -1.4357 -0.0564
   91MOL0     H12252   6.421   7.171   1.460 -0.5283 -0.3904  0.7977
   91MOL0     H12253   6.114   7.162   1.406 -0.8178  0.6472  0.9162
   91MOL0     H12254   6.214   7.016   1.431  0.4097  0.8371  1.1319
   91MOL0     H12255   6.141   7.209   1.646  0.8238 -0.7229  2.2267
   91MOL0     H12256   6.259   7.085   1.675 -0.1747  2.0231  0.1553
   91MOL0     H12257   5.986   7.007   1.572 -0.8338  0.0369 -0.5129
   91MOL0     H12258   6.109   6.901   1.632 -0.9410  0.5891 -1.2052
   91MOL0     H12259   5.949   7.119   1.773  0.6811 -0.9104 -0.6711
   91MOL0     H12260   6.059   7.036   1.866  1.3061  0.1510 -1.2692
   91MOL0     H12261   5.852   6.877   1.703  0.3702  0.0568  0.1122
   91MOL0     H12262   5.966   6.808   1.803 -0.1350 -0.2926 -1.5369
   91MOL0     H12263   5.770   7.016   1.912  0.6842  1.0859  1.4438
   91MOL0     H12264   5.874   6.909   2.005 -1.6396 -3.4603 -0.5056
   91MOL0     H12265   5.753   6.720   1.943  0.7997 -1.0995 -0.1780
   91MOL0     H12266   5.655   6.809   1.835 -2.3505 -2.7583  1.4994
   91MOL0     H12267   6.530   7.310   1.299 -0.8716 -0.3413  1.0796
   91MOL0     H12268   6.707   7.475   1.265  0.2388 -1.4632  1.3355
   91MOL0     H12269   6.812   7.929   1.339  0.7435  0.1057 -1.7218
   91MOL0     H12270   6.974   8.106   1.331  0.2042 -0.8480 -1.7483
   91MOL0     H12271   8.137   9.761   0.907  0.4075 -0.0594  0.4727
   91MOL0     H12272   8.367   9.806   1.000  2.5742 -0.0371  5.0049
   91MOL0     H12273   8.493  10.008   1.490 -1.7755 -0.7550  1.5791
   91MOL0     H12274   8.697  10.044   1.636 -0.0238 -0.7896  1.1510
   91MOL0     H12275   8.990   9.698   1.654  1.5817 -0.0957 -1.2316
   91MOL0     H12276   9.084   9.835   1.584 -0.9080 -2.9996 -1.9863
   91MOL0     H12277   9.017   9.778   1.876  1.3170  3.1198  1.7837
   91MOL0     H12278   9.130   9.900   1.829 -2.8184  0.5148 -0.6986
   91MOL0     H12279   9.134   9.596   1.818 -2.6812  1.5064 -0.7879
   91MOL0     H12280   9.234   9.695   1.916 -0.5155  0.5472  0.1858
   91MOL0     H12281   9.280   9.651   1.619 -1.3059 -3.4700  1.1220
   91MOL0     H12282   9.375   9.596   1.750  1.1537  1.5920  2.0523
   91MOL0     H12283   9.474  10.010   1.652  2.0062 -0.6369 -0.1995
   91MOL0     H12284   8.849   9.661   1.509 -2.0169 -1.8269 -2.3307
   91MOL0     H12285   8.647   9.626   1.380  0.7367  1.5653 -2.0721
   92MOL0     O12286   6.452   3.123   7.595  0.2880 -0.2827  0.0139
   92MOL0     C12287   6.525   3.040   7.644 -0.8823 -0.3622  0.6396
   92MOL0     O12288   6.502   2.908   7.658  0.2055  0.5196  0.0634
   92MOL0     C12289   6.389   2.855   7.605  0.8108  0.0687 -0.3456
   92MOL0     C12290   6.272   2.906   7.654 -0.6350  0.5492  0.2434
   92MOL0     C12291   6.155   2.874   7.596 -0.1985  0.2747  1.0675
   92MOL0     C12292   6.152   2.780   7.485  0.4622  0.0376 -0.5651
   92MOL0     O12293   6.035   2.747   7.419 -0.3247  0.3445 -0.4107
   92MOL0     C12294   5.925   2.839   7.439 -0.6061 -0.0570  0.3786
   92MOL0     C12295   5.797   2.771   7.382  0.2454  0.2402 -0.3702
   92MOL0     C12296   5.809   2.745   7.234  0.1257  0.1626  0.4338
   92MOL0     C12297   5.695   2.797   7.155  0.4491 -0.0652  1.0613
   92MOL0     C12298   5.734   2.827   7.011  0.5115 -0.4151 -0.0096
   92MOL0     C12299   5.619   2.875   6.931  0.6007 -0.2756 -0.1559
   92MOL0     C12300   5.652   2.916   6.789 -0.5778 -0.1990  1.0624
   92MOL0     C12301   5.659   2.794   6.686 -0.3668  0.5095  0.1742
   92MOL0     N12302   5.540   2.711   6.675  0.1680 -0.6589 -0.3692
   92MOL0     C12303   5.427   2.757   6.620  0.5650 -0.3442  0.0273
   92MOL0     C12304   5.342   2.649   6.604 -0.0711  0.3121  0.0298
   92MOL0     C12305   5.211   2.647   6.537  0.2973  0.6278 -0.1693
   92MOL0     C12306   5.126   2.760   6.595  0.7999  0.1659 -0.2875
   92MOL0     C12307   5.003   2.762   6.505 -0.2943 -0.1408 -0.5614
   92MOL0     C12308   4.922   2.879   6.544 -0.7461 -0.3703  0.6371
   92MOL0     O12309   4.801   2.875   6.470 -0.5780  0.1788  0.5615
   92MOL0     C12310   4.688   2.802   6.509 -0.0442 -0.0408 -0.5690
   92MOL0     C12311   4.599   2.771   6.409  0.6645  0.6985  0.2798
   92MOL0     C12312   4.479   2.699   6.426 -0.1790 -1.3147 -0.1044
   92MOL0     C12313   4.386   2.682   6.311  0.6345 -0.3907  0.5606
   92MOL0     C12314   4.442   2.672   6.564  0.0939  1.2483  0.4756
   92MOL0     C12315   4.324   2.597   6.601  0.7518  0.5042  1.0350
   92MOL0     O12316   4.338   2.529   6.711 -0.3130  0.9333 -0.1133
   92MOL0     C12317   4.228   2.449   6.743  0.3316  0.5637 -0.0160
   92MOL0     C12318   4.229   2.319   6.691 -1.2466  0.3853 -0.1077
   92MOL0     C12319   4.118   2.239   6.712  0.1353  0.8132  0.9050
   92MOL0     C12320   4.017   2.281   6.794  0.0240 -0.4347  0.8533
   92MOL0     O12321   3.912   2.198   6.818 -0.1576 -0.0321 -0.6636
   92MOL0     C12322   3.781   2.260   6.806  0.1007 -0.2606  0.8881
   92MOL0     C12323   3.675   2.147   6.788 -0.0050 -0.0304  0.0383
   92MOL0     C12324   3.535   2.213   6.763 -0.0161  1.7522  0.6680
   92MOL0     C12325   3.426   2.120   6.702 -1.0124 -0.7264  0.3394
   92MOL0     C12326   3.288   2.188   6.722 -0.0536  0.1267  0.0775
   92MOL0     C12327   3.177   2.106   6.644 -0.1866  0.2205 -0.2504
   92MOL0     C12328   3.043   2.151   6.693 -0.3982  0.4541 -0.3102
   92MOL0     C12329   2.920   2.107   6.611  0.1601 -0.3734 -0.2583
   92MOL0    Cl12330   2.765   2.152   6.697  0.1570  0.3338  0.3000
   92MOL0     C12331   4.019   2.410   6.851  0.1199 -0.2277 -0.8976
   92MOL0     C12332   4.122   2.487   6.823 -0.0138 -0.5433  0.6238
   92MOL0     O12333   4.218   2.601   6.529  0.2103  0.2199 -0.1616
   92MOL0     C12334   4.531   2.702   6.662 -0.3778 -0.1062 -0.4907
   92MOL0     C12335   4.655   2.766   6.634  0.2154 -0.1331 -0.4096
   92MOL0     N12336   5.409   2.543   6.657  0.4567  0.4398  0.2545
   92MOL0     N12337   5.528   2.581   6.695  0.3201 -0.2461  0.5108
   92MOL0     C12338   6.270   2.723   7.442  0.3247  0.5431  0.4036
   92MOL0     C12339   6.390   2.770   7.500 -0.8181 -0.2858  0.6129
   92MOL0     C12340   6.660   3.079   7.667 -0.5203 -0.1236 -0.4041
   92MOL0     C12341   6.695   3.213   7.703  0.1888  0.6651 -0.4132
   92MOL0     C12342   6.822   3.258   7.734 -0.4166 -0.2821  0.2994
   92MOL0     C12343   6.925   3.165   7.744 -0.7849  0.2629  0.0021
   92MOL0     O12344   7.048   3.207   7.772  0.8176 -0.1335 -0.2204
   92MOL0     C12345   7.156   3.164   7.687  0.8666  0.7883  0.0216
   92MOL0     C12346   7.269   3.249   7.741  0.8226  1.0120 -0.1980
   92MOL0     C12347   7.272   3.394   7.701 -0.2513 -0.6681  0.1063
   92MOL0     C12348   7.407   3.465   7.715 -0.0898 -0.4063  0.2525
   92MOL0     C12349   7.400   3.593   7.641 -0.0273  0.3605  0.6053
   92MOL0     C12350   7.408   3.673   7.553 -0.0896 -0.0269  0.1235
   92MOL0     C12351   6.896   3.030   7.715 -0.5054  0.1497 -0.1925
   92MOL0     C12352   6.768   2.993   7.671 -0.1421  0.7811 -0.1931
   92MOL0     H12353   6.272   2.977   7.737 -0.7862 -0.9824  1.6010
   92MOL0     H12354   6.068   2.919   7.641 -0.4241  0.9284  0.0164
   92MOL0     H12355   5.903   2.864   7.544 -3.7721  0.0555 -0.2062
   92MOL0     H12356   5.955   2.927   7.381  2.9533 -1.4962 -0.1555
   92MOL0     H12357   5.780   2.679   7.439 -0.1650  0.0541 -0.7888
   92MOL0     H12358   5.707   2.828   7.407 -1.3810 -1.5047 -1.9338
   92MOL0     H12359   5.907   2.789   7.210  0.4411 -0.1447  1.1267
   92MOL0     H12360   5.796   2.637   7.225 -1.3334  0.4436 -1.5019
   92MOL0     H12361   5.607   2.733   7.152 -1.6141  2.5570  1.1297
   92MOL0     H12362   5.657   2.895   7.187 -0.6804 -0.1478  0.0466
   92MOL0     H12363   5.817   2.898   7.009 -0.4937  0.8073  0.4795
   92MOL0     H12364   5.776   2.733   6.973 -1.0788 -1.3888  0.5349
   92MOL0     H12365   5.550   2.790   6.933 -0.5021  0.5878  0.2314
   92MOL0     H12366   5.571   2.961   6.980 -0.8578 -0.4657 -1.1767
   92MOL0     H12367   5.575   2.977   6.741 -0.2836 -2.6320 -3.0265
   92MOL0     H12368   5.745   2.972   6.798 -0.6496  0.1530 -0.2458
   92MOL0     H12369   5.738   2.725   6.719 -0.7299 -0.4022 -0.7973
   92MOL0     H12370   5.694   2.833   6.591  3.6000 -1.0288  0.8083
   92MOL0     H12371   5.399   2.859   6.596 -0.0233 -0.9076 -1.8954
   92MOL0     H12372   5.226   2.655   6.429  1.7189 -0.3700 -0.0696
   92MOL0     H12373   5.155   2.553   6.547  1.2766 -0.2737 -2.4355
   92MOL0     H12374   5.161   2.864   6.593 -0.4297  0.5827 -1.3526
   92MOL0     H12375   5.102   2.741   6.700  3.0237 -3.5651 -0.2852
   92MOL0     H12376   4.944   2.670   6.515  2.4935 -1.8636  1.7513
   92MOL0     H12377   5.032   2.769   6.400 -1.0405 -0.8683 -0.8252
   92MOL0     H12378   4.971   2.972   6.514 -2.5758  0.6049  0.5033
   92MOL0     H12379   4.908   2.893   6.652  0.1070  0.8885  0.6044
   92MOL0     H12380   4.621   2.815   6.313  0.5831 -0.2138 -0.1659
   92MOL0     H12381   4.337   2.584   6.306 -0.1812  0.0678 -1.2430
   92MOL0     H12382   4.317   2.766   6.307  0.5885 -0.4631 -0.4800
   92MOL0     H12383   4.448   2.683   6.221  0.7779 -2.3637  0.5981
   92MOL0     H12384   4.311   2.301   6.623  0.4077  0.1445  1.8795
   92MOL0     H12385   4.089   2.154   6.652 -3.5936  1.4592  1.5390
   92MOL0     H12386   3.759   2.293   6.909  3.1386  2.9120  0.7156
   92MOL0     H12387   3.774   2.335   6.727  1.5652 -0.6583  0.3568
   92MOL0     H12388   3.709   2.095   6.698 -2.2303 -2.0268  0.2676
   92MOL0     H12389   3.666   2.077   6.872  0.5969  0.0532  0.1820
   92MOL0     H12390   3.534   2.291   6.687  3.1508  0.7512 -0.5504
   92MOL0     H12391   3.514   2.249   6.864 -0.7666 -0.4979  1.3729
   92MOL0     H12392   3.459   2.093   6.601 -1.5474 -0.1413 -0.0031
   92MOL0     H12393   3.413   2.031   6.763 -1.9879 -0.6440  0.2788
   92MOL0     H12394   3.282   2.289   6.681 -0.5204 -1.3540 -3.9658
   92MOL0     H12395   3.254   2.185   6.826 -1.9413  0.7098 -0.4870
   92MOL0     H12396   3.199   2.115   6.537  0.5917  0.6368 -0.0622
   92MOL0     H12397   3.189   2.001   6.671  2.4965  0.7651  0.8911
   92MOL0     H12398   3.048   2.258   6.716  0.3373  0.1347  1.1015
   92MOL0     H12399   3.020   2.113   6.792 -1.5124  1.2965 -0.2198
   92MOL0     H12400   2.932   2.002   6.584 -3.6195 -1.0536  0.1003
   92MOL0     H12401   2.914   2.162   6.516 -1.0547  0.8302  0.4678
   92MOL0     H12402   3.942   2.459   6.910  1.3264  2.0867 -1.1562
   92MOL0     H12403   4.123   2.593   6.847 -0.9870  0.1975 -2.1266
   92MOL0     H12404   4.506   2.688   6.766  1.0476 -1.7702 -0.3305
   92MOL0     H12405   4.723   2.787   6.716  2.8973 -0.8277 -2.2956
   92MOL0     H12406   6.253   2.653   7.360 -1.4659  1.6840 -0.2562
   92MOL0     H12407   6.485   2.744   7.454  0.0241  2.7221  0.4411
   92MOL0     H12408   6.621   3.292   7.697  2.0267  2.5055 -0.3000
   92MOL0     H12409   6.835   3.365   7.750 -0.4098 -0.0414 -1.1601
   92MOL0     H12410   7.174   3.057   7.707 -0.7207  1.0020  3.1379
   92MOL0     H12411   7.136   3.170   7.580 -0.5400  0.8731  0.2712
   92MOL0     H12412   7.362   3.198   7.713 -0.8584 -1.1142 -2.3757
   92MOL0     H12413   7.271   3.259   7.849  2.0718  1.4894 -0.2449
   92MOL0     H12414   7.198   3.445   7.764 -0.0965 -3.0936  2.3941
   92MOL0     H12415   7.248   3.376   7.596  4.7372 -3.7424 -0.8582
   92MOL0     H12416   7.487   3.400   7.678 -0.7220 -1.4496  0.6567
   92MOL0     H12417   7.432   3.487   7.819 -1.0673 -1.8158  0.8108
   92MOL0     H12418   7.422   3.755   7.485 -0.8482 -0.0220 -0.0451
   92MOL0     H12419   6.980   2.963   7.704  0.4977  1.5239 -1.2214
   92MOL0     H12420   6.748   2.896   7.627 -0.2380 -0.8109  3.0756
   93MOL0     O12421   9.874   9.594   9.956 -0.3815  0.1865  0.3026
   93MOL0     C12422   9.934   9.644  10.055 -0.3191  0.3465  0.6656
   93MOL0     O12423   9.873   9.676  10.174 -0.4229 -0.1295  0.0511
   93MOL0     C12424   9.741   9.655  10.186 -0.3047 -0.5631  0.2662
   93MOL0     C12425   9.653   9.771  10.176  0.1035 -0.0761  0.6533
   93MOL0     C12426   9.511   9.742  10.175 -0.4806 -0.2189 -0.3779
   93MOL0     C12427   9.464   9.611  10.181  0.1137  0.1753 -0.2260
   93MOL0     O12428   9.326   9.581  10.166  0.4767  0.0459 -0.3852
   93MOL0     C12429   9.295   9.521  10.043  0.4434  0.1327 -0.0128
   93MOL0     C12430   9.151   9.465  10.026  0.5228  0.2959  0.2116
   93MOL0     C12431   9.035   9.570  10.032 -0.8700 -0.3840 -0.5631
   93MOL0     C12432   8.940   9.559   9.915 -0.3192 -0.3884  0.1672
   93MOL0     C12433   8.806   9.636   9.946  0.0869 -0.5312  0.5114
   93MOL0     C12434   8.725   9.554  10.036  1.1535 -0.0801 -0.3488
   93MOL0     C12435   8.570   9.579  10.036  0.5939 -0.2824  0.6757
   93MOL0     C12436   8.547   9.701  10.128  0.0052 -0.2488 -0.4500
   93MOL0     N12437   8.399   9.724  10.134 -0.7180 -0.5493 -1.0661
   93MOL0     C12438   8.331   9.835  10.080 -1.1688  0.5102 -0.1152
   93MOL0     C12439   8.220   9.837  10.153  1.0067  0.5845  0.6519
   93MOL0     C12440   8.121   9.945  10.144  0.9084  0.8437 -0.0723
   93MOL0     C12441   8.027   9.960  10.264  0.6112  0.1829  0.3176
   93MOL0     C12442   8.082  10.014  10.396 -0.2134  0.3287  0.2839
   93MOL0     C12443   7.972  10.057  10.483  0.2056 -0.3125  0.1229
   93MOL0     O12444   7.898  10.173  10.434 -1.2577 -0.2580  0.0100
   93MOL0     C12445   7.783  10.206  10.503 -0.1172  0.5070  0.1738
   93MOL0     C12446   7.657  10.214  10.444 -0.1007 -0.1866  0.8835
   93MOL0     C12447   7.542  10.241  10.518  0.3955 -0.0269 -0.0318
   93MOL0     C12448   7.411  10.239  10.442 -0.3491  0.2430 -0.5881
   93MOL0     C12449   7.555  10.282  10.658 -0.6060 -0.0968 -0.2794
   93MOL0     C12450   7.440  10.312  10.757  1.1172  0.3640  0.2458
   93MOL0     O12451   7.483  10.335  10.886 -0.0114  0.2003 -0.8238
   93MOL0     C12452   7.405  10.378  10.991 -0.3509 -0.9760 -0.1668
   93MOL0     C12453   7.413  10.317  11.119  0.1858 -0.0136 -0.0183
   93MOL0     C12454   7.332  10.369  11.216 -0.0615 -0.2713 -0.3741
   93MOL0     C12455   7.251  10.482  11.187 -0.2194 -0.3491 -0.0811
   93MOL0     O12456   7.184  10.550  11.285 -0.2156  0.2092 -0.8332
   93MOL0     C12457   7.117  10.489  11.397 -0.1074  0.2373 -0.1811
   93MOL0     C12458   7.051  10.589  11.479 -0.0722  0.2058  0.0664
   93MOL0     C12459   6.939  10.651  11.392 -1.2216 -0.1409 -0.0859
   93MOL0     C12460   6.806  10.571  11.392  0.3447  0.1749 -0.4671
   93MOL0     C12461   6.727  10.594  11.524  0.3957  0.0459 -0.6856
   93MOL0     C12462   6.662  10.728  11.529  0.2996 -0.8747 -0.2434
   93MOL0     C12463   6.612  10.759  11.678 -0.1632 -0.4847 -0.1586
   93MOL0     C12464   6.564  10.910  11.691  0.1648 -0.1312  0.0127
   93MOL0    Cl12465   6.504  10.941  11.864 -0.1924 -0.4672  0.0177
   93MOL0     C12466   7.241  10.537  11.063  0.2190  0.3968 -0.2109
   93MOL0     C12467   7.322  10.492  10.967 -0.7704 -0.3186  0.3251
   93MOL0     O12468   7.322  10.296  10.719 -0.0040  0.1950  0.3650
   93MOL0     C12469   7.682  10.285  10.718  0.5936  0.1170  0.0709
   93MOL0     C12470   7.793  10.235  10.643 -0.2075  0.9170  0.2381
   93MOL0     N12471   8.216   9.728  10.245  0.0168  0.2422  0.3098
   93MOL0     N12472   8.328   9.668  10.231  0.5954  0.6096  0.1311
   93MOL0     C12473   9.557   9.508  10.196  0.1777  0.7420  0.6771
   93MOL0     C12474   9.693   9.523  10.202 -0.6400 -0.2686 -0.2120
   93MOL0     C12475  10.078   9.655  10.029  0.8918 -0.8262  0.1042
   93MOL0     C12476  10.161   9.661  10.140  0.4424  0.3349 -0.0126
   93MOL0     C12477  10.304   9.676  10.125 -0.8390 -0.2315 -0.1193
   93MOL0     C12478  10.370   9.680   9.999 -0.2806  0.0996 -0.2061
   93MOL0     O12479  10.509   9.684   9.970  0.0963 -0.4538 -0.0890
   93MOL0     C12480  10.598   9.698  10.088 -0.1198 -0.4977 -0.9290
   93MOL0     C12481  10.740   9.690  10.048 -0.8076  0.1330  0.5229
   93MOL0     C12482  10.783   9.552  10.006 -0.8178  0.2403 -1.1622
   93MOL0     C12483  10.897   9.559   9.913  0.0578  0.2197 -1.0807
   93MOL0     C12484  11.018   9.622   9.975  0.4562  0.4008  0.4774
   93MOL0     C12485  11.130   9.659  10.012 -0.1867  0.4072  0.4179
   93MOL0     C12486  10.281   9.681   9.889 -0.0971  0.0403  0.0121
   93MOL0     C12487  10.144   9.660   9.898 -0.4091 -0.4271 -0.4833
   93MOL0     H12488   9.696   9.867  10.149  1.2695 -0.9549 -0.8093
   93MOL0     H12489   9.439   9.824  10.166 -1.5990 -0.9373  1.5167
   93MOL0     H12490   9.315   9.583   9.955  0.6166 -0.5180 -0.4413
   93MOL0     H12491   9.363   9.436  10.035 -1.1885 -1.5623  2.7404
   93MOL0     H12492   9.145   9.420   9.927 -1.0653 -1.7935  1.2023
   93MOL0     H12493   9.136   9.384  10.098  1.6839 -1.4233 -1.3873
   93MOL0     H12494   8.989   9.545  10.128 -1.5626  0.1590 -0.7405
   93MOL0     H12495   9.078   9.670  10.034 -0.9096 -0.3738 -0.1624
   93MOL0     H12496   8.994   9.600   9.829  0.6308 -1.4289  0.2368
   93MOL0     H12497   8.924   9.456   9.881  0.8456  0.0793 -1.9635
   93MOL0     H12498   8.821   9.735   9.991 -1.8630 -0.9369  2.2127
   93MOL0     H12499   8.737   9.660   9.864 -2.1002  3.6561  3.2091
   93MOL0     H12500   8.727   9.446  10.019  0.9900  0.3552 -3.5712
   93MOL0     H12501   8.769   9.561  10.136  0.9738 -0.1032 -0.2662
   93MOL0     H12502   8.544   9.614   9.936  2.4180 -2.6446 -0.7148
   93MOL0     H12503   8.509   9.493  10.064 -1.1911 -0.3269 -2.8624
   93MOL0     H12504   8.601   9.790  10.095  2.2208 -1.1163  0.6415
   93MOL0     H12505   8.587   9.672  10.225  2.2687 -0.8375 -1.5089
   93MOL0     H12506   8.379   9.903  10.011 -1.1375  1.7474  1.0663
   93MOL0     H12507   8.172  10.041  10.134  0.8595  1.4426  3.8624
   93MOL0     H12508   8.068   9.930  10.049  0.1582  1.0659  0.3069
   93MOL0     H12509   7.982   9.860  10.265  2.2741 -0.5919  0.3420
   93MOL0     H12510   7.941  10.019  10.231 -0.5013 -1.8514 -0.6741
   93MOL0     H12511   8.147  10.096  10.365  3.0948 -2.4005 -0.5940
   93MOL0     H12512   8.146   9.940  10.446  0.6979  0.8142 -0.1374
   93MOL0     H12513   8.009  10.081  10.583  1.9185 -3.4869  0.3886
   93MOL0     H12514   7.897   9.978  10.500 -1.0359  1.1307  1.7077
   93MOL0     H12515   7.658  10.195  10.337 -2.8301  0.7511  0.5985
   93MOL0     H12516   7.421  10.229  10.333 -1.8594  0.3740 -0.7621
   93MOL0     H12517   7.348  10.156  10.476  0.2606 -1.0713 -2.5037
   93MOL0     H12518   7.365  10.335  10.470  0.8043  0.7313 -0.3305
   93MOL0     H12519   7.470  10.228  11.146 -1.1423 -0.5550  1.1850
   93MOL0     H12520   7.343  10.340  11.320 -1.2160  0.9726  0.1207
   93MOL0     H12521   7.045  10.415  11.362  0.0192 -0.2867  0.6483
   93MOL0     H12522   7.194  10.445  11.461 -0.5063 -1.2406 -0.6756
   93MOL0     H12523   7.009  10.542  11.568  0.2820  2.8495  1.7467
   93MOL0     H12524   7.129  10.661  11.508  0.2812 -0.5555  1.0642
   93MOL0     H12525   6.975  10.672  11.291  1.3143  0.4414  0.8740
   93MOL0     H12526   6.920  10.751  11.431 -1.4938  0.1155 -0.8655
   93MOL0     H12527   6.742  10.616  11.315 -0.2448  0.2403  0.0531
   93MOL0     H12528   6.828  10.465  11.378  0.3710  0.0870  0.2136
   93MOL0     H12529   6.799  10.590  11.607 -0.4371  4.4981  0.5206
   93MOL0     H12530   6.649  10.517  11.531  3.1657 -2.8363  2.4021
   93MOL0     H12531   6.728  10.811  11.500 -0.5953  0.4594  1.3400
   93MOL0     H12532   6.579  10.738  11.458  1.2588 -0.3012 -1.3261
   93MOL0     H12533   6.698  10.749  11.746 -1.2203  4.4694  2.3365
   93MOL0     H12534   6.525  10.701  11.709 -1.2367  1.6390  0.9640
   93MOL0     H12535   6.488  10.936  11.616 -1.1651  0.3892  1.4893
   93MOL0     H12536   6.653  10.972  11.683 -0.0055  0.1091 -0.0023
   93MOL0     H12537   7.165  10.610  11.034 -0.0350 -1.1423 -4.0001
   93MOL0     H12538   7.312  10.545  10.874  1.5855  1.3715  0.9453
   93MOL0     H12539   7.694  10.313  10.822 -2.0426 -0.3674  0.5842
   93MOL0     H12540   7.881  10.225  10.706 -0.3673  0.1279  0.3390
   93MOL0     H12541   9.517   9.407  10.201  0.0563  0.7714  0.2968
   93MOL0     H12542   9.762   9.440  10.212 -2.9666 -2.2187  0.7752
   93MOL0     H12543  10.120   9.663  10.241 -3.1847  0.8997 -1.3417
   93MOL0     H12544  10.371   9.670  10.211  1.0217 -1.0291 -1.5589
   93MOL0     H12545  10.582   9.795  10.134 -2.0209 -0.5538 -1.4136
   93MOL0     H12546  10.573   9.625  10.165  0.0803 -1.6817 -1.9458
   93MOL0     H12547  10.807   9.715  10.131 -0.7448 -0.7489  0.7476
   93MOL0     H12548  10.768   9.769   9.978 -0.6723  0.7395  1.2427
   93MOL0     H12549  10.703   9.508   9.945 -1.2091 -0.5294 -0.1358
   93MOL0     H12550  10.810   9.491  10.093  0.2776  0.2384 -1.4884
   93MOL0     H12551  10.863   9.616   9.826 -0.8491 -0.5099 -1.2243
   93MOL0     H12552  10.926   9.460   9.875  1.8388  0.9417 -1.6958
   93MOL0     H12553  11.234   9.679  10.026  0.9844 -1.9571 -3.2171
   93MOL0     H12554  10.330   9.673   9.792  3.8985 -2.2733  1.9910
   93MOL0     H12555  10.084   9.660   9.808 -0.8519 -2.5608 -0.2165
   94MOL0     O12556   1.116   6.598   5.538  0.0730 -0.2951  0.2703
   94MOL0     C12557   1.149   6.631   5.653 -0.3087  0.1314  0.3097
   94MOL0     O12558   1.079   6.599   5.767 -0.7563 -0.5784  1.4305
   94MOL0     C12559   0.964   6.531   5.748 -0.3170 -0.3066 -0.3048
   94MOL0     C12560   0.976   6.394   5.718  0.3994  0.3490  0.1259
   94MOL0     C12561   0.854   6.315   5.699 -0.2887  0.0014  0.3650
   94MOL0     C12562   0.734   6.381   5.695  0.0324  0.0230  0.5350
   94MOL0     O12563   0.612   6.313   5.677 -0.1823 -0.6569  0.0349
   94MOL0     C12564   0.543   6.379   5.572  1.2364 -0.3376 -0.2377
   94MOL0     C12565   0.429   6.288   5.528  1.1266  0.5608  0.1047
   94MOL0     C12566   0.315   6.253   5.628  1.0778  0.1701 -0.5056
   94MOL0     C12567   0.210   6.161   5.564 -0.4975  0.6150  0.2820
   94MOL0     C12568   0.072   6.217   5.574  0.5073 -0.1991 -0.5896
   94MOL0     C12569  -0.025   6.138   5.495  0.0484  0.0555  0.2799
   94MOL0     C12570  -0.171   6.164   5.547 -0.2369  0.1086 -0.5538
   94MOL0     C12571  -0.207   6.078   5.667  0.3830  0.3404  0.3262
   94MOL0     N12572  -0.333   6.134   5.725  0.2320  0.2336 -0.1079
   94MOL0     C12573  -0.457   6.150   5.669  0.7038 -0.1275  0.2631
   94MOL0     C12574  -0.533   6.204   5.766  0.4717  0.0936 -0.7090
   94MOL0     C12575  -0.670   6.263   5.738 -0.2924 -0.9214 -0.5885
   94MOL0     C12576  -0.776   6.155   5.717  0.3016 -0.2573 -0.2275
   94MOL0     C12577  -0.908   6.177   5.796  0.6001 -0.4702 -0.4625
   94MOL0     C12578  -0.985   6.305   5.744 -0.8592 -0.2170 -0.2115
   94MOL0     O12579  -1.086   6.362   5.831 -0.5684 -0.5320 -0.0794
   94MOL0     C12580  -1.209   6.312   5.832  0.4725 -0.6349 -0.6094
   94MOL0     C12581  -1.289   6.355   5.937  0.1600  0.0208 -0.1632
   94MOL0     C12582  -1.424   6.312   5.958 -0.4431  0.2531 -0.8112
   94MOL0     C12583  -1.502   6.372   6.072  0.3647 -0.5674  0.3351
   94MOL0     C12584  -1.474   6.222   5.869  0.9418  0.8921  0.8187
   94MOL0     C12585  -1.615   6.182   5.871  0.0670  0.1139 -0.0825
   94MOL0     O12586  -1.688   6.209   5.763  0.0472 -0.0632 -0.3705
   94MOL0     C12587  -1.824   6.183   5.765 -0.1879 -0.0318 -0.2059
   94MOL0     C12588  -1.922   6.231   5.864 -0.0885 -0.0253  0.3215
   94MOL0     C12589  -2.052   6.191   5.848 -0.5801 -0.4034 -0.4035
   94MOL0     C12590  -2.106   6.126   5.740 -0.4153 -0.0759  0.6193
   94MOL0     O12591  -2.242   6.108   5.726 -0.2776 -0.0900 -0.9442
   94MOL0     C12592  -2.330   6.205   5.785  0.0257  0.0386  0.3870
   94MOL0     C12593  -2.453   6.220   5.693  0.7903  0.2408  0.5696
   94MOL0     C12594  -2.524   6.088   5.695  0.2647 -0.0048  0.1185
   94MOL0     C12595  -2.655   6.102   5.614 -0.6664  0.2878 -0.6310
   94MOL0     C12596  -2.733   5.974   5.615  0.0759 -0.0462 -1.3814
   94MOL0     C12597  -2.670   5.881   5.509 -0.3845  0.7433  0.3845
   94MOL0     C12598  -2.704   5.736   5.543  0.1316 -0.0727  0.2843
   94MOL0     C12599  -2.849   5.704   5.537  0.1762 -0.1283  0.3421
   94MOL0    Cl12600  -2.907   5.720   5.365  0.1679  0.1069 -0.0581
   94MOL0     C12601  -2.018   6.089   5.635 -0.2648  0.4020  0.1077
   94MOL0     C12602  -1.877   6.129   5.651  0.3981  0.5850 -0.1283
   94MOL0     O12603  -1.655   6.131   5.972 -0.3745  0.5597  0.4237
   94MOL0     C12604  -1.401   6.182   5.757 -1.0222 -0.4746  0.8390
   94MOL0     C12605  -1.269   6.225   5.744 -0.5121 -0.1264  0.1689
   94MOL0     N12606  -0.458   6.217   5.878  0.8242 -0.4574  0.1792
   94MOL0     N12607  -0.343   6.169   5.855 -0.0448  0.3066 -0.2717
   94MOL0     C12608   0.725   6.521   5.723  0.1446  0.8347 -0.9766
   94MOL0     C12609   0.841   6.596   5.738 -0.3530 -0.2369  0.1846
   94MOL0     C12610   1.286   6.684   5.679 -1.0921 -0.1871 -0.2697
   94MOL0     C12611   1.381   6.676   5.579  1.3148 -0.9214 -0.1027
   94MOL0     C12612   1.509   6.728   5.606 -0.2033  0.4507  0.2511
   94MOL0     C12613   1.550   6.775   5.734 -0.1350  0.1283  0.3164
   94MOL0     O12614   1.685   6.820   5.744  0.3938  0.1417  0.3529
   94MOL0     C12615   1.721   6.859   5.877  0.0740  0.1586 -0.1622
   94MOL0     C12616   1.865   6.912   5.877 -0.5088  0.1289  0.7552
   94MOL0     C12617   1.980   6.819   5.828  0.7668 -0.4793 -0.4871
   94MOL0     C12618   2.051   6.748   5.934 -0.9952  0.9084 -0.2667
   94MOL0     C12619   1.957   6.650   5.994 -0.1218  1.0343  0.9619
   94MOL0     C12620   1.901   6.561   6.054 -0.1335 -0.1795  0.5022
   94MOL0     C12621   1.449   6.768   5.840  0.3053  0.1922  1.5706
   94MOL0     C12622   1.321   6.727   5.810  0.0506  0.0908 -0.1089
   94MOL0     H12623   1.079   6.358   5.722  2.4915  4.5983 -4.2900
   94MOL0     H12624   0.872   6.208   5.701 -1.9109 -0.4143 -2.0975
   94MOL0     H12625   0.503   6.468   5.623  2.6104 -0.5644  1.3417
   94MOL0     H12626   0.604   6.397   5.483  1.6034  0.9529  0.2436
   94MOL0     H12627   0.373   6.348   5.456 -0.0251  0.5546  0.9630
   94MOL0     H12628   0.471   6.199   5.481  1.5511  1.7021 -1.7742
   94MOL0     H12629   0.358   6.215   5.721 -1.2929  1.1460  1.0990
   94MOL0     H12630   0.267   6.349   5.651 -1.2093 -0.6637 -1.5271
   94MOL0     H12631   0.238   6.146   5.460  0.2008  2.2214  0.2150
   94MOL0     H12632   0.208   6.072   5.628  2.9240  2.4031  3.2320
   94MOL0     H12633   0.045   6.216   5.681  2.0012 -2.2563 -0.1628
   94MOL0     H12634   0.081   6.321   5.542 -0.3730  0.1963  0.3852
   94MOL0     H12635  -0.006   6.163   5.390  3.7652  1.8862  1.2414
   94MOL0     H12636  -0.002   6.035   5.520  2.5938  1.0579  2.4709
   94MOL0     H12637  -0.178   6.272   5.562  1.1349  0.1027  0.3216
   94MOL0     H12638  -0.235   6.154   5.459  1.4774  1.4732 -2.0216
   94MOL0     H12639  -0.134   6.070   5.748 -0.1858 -6.3292  0.7116
   94MOL0     H12640  -0.224   5.974   5.636 -1.1166  0.3418  1.0335
   94MOL0     H12641  -0.484   6.139   5.565  0.6920  1.1259  0.1170
   94MOL0     H12642  -0.695   6.327   5.823  1.9211  0.1774 -0.6998
   94MOL0     H12643  -0.664   6.334   5.654  1.5323  1.2243  1.2411
   94MOL0     H12644  -0.725   6.064   5.749 -1.1198 -0.3365  2.0266
   94MOL0     H12645  -0.794   6.153   5.609 -0.0416 -0.1250 -0.1727
   94MOL0     H12646  -0.900   6.178   5.905 -0.3157  0.8565 -0.3810
   94MOL0     H12647  -0.975   6.093   5.777 -1.0747  0.4394  1.0773
   94MOL0     H12648  -1.032   6.273   5.651  2.0761 -0.4083 -1.7372
   94MOL0     H12649  -0.915   6.388   5.728 -1.6174  1.4082  3.6526
   94MOL0     H12650  -1.248   6.433   6.000  2.1846 -0.8270 -0.3650
   94MOL0     H12651  -1.435   6.401   6.153 -0.5853 -0.0704  0.9555
   94MOL0     H12652  -1.558   6.456   6.031 -1.1372 -2.7857 -2.5079
   94MOL0     H12653  -1.578   6.310   6.120  0.3034  1.9421  3.8448
   94MOL0     H12654  -1.899   6.286   5.954 -1.0716 -1.0684  1.2307
   94MOL0     H12655  -2.119   6.223   5.927 -0.6958  2.3987 -1.5318
   94MOL0     H12656  -2.351   6.177   5.888  1.1429  0.8521  0.8509
   94MOL0     H12657  -2.269   6.296   5.789  2.6981 -1.5483 -1.4152
   94MOL0     H12658  -2.527   6.291   5.731 -2.0823 -1.3619 -1.6074
   94MOL0     H12659  -2.423   6.255   5.594  0.3060  0.4383  0.4864
   94MOL0     H12660  -2.547   6.069   5.801 -0.8682 -0.1837 -0.1489
   94MOL0     H12661  -2.465   6.010   5.648 -0.2840 -1.1047  1.2101
   94MOL0     H12662  -2.714   6.186   5.653  0.9970  1.4004 -0.4106
   94MOL0     H12663  -2.622   6.120   5.511 -1.6013 -2.6543 -1.5444
   94MOL0     H12664  -2.840   5.991   5.600 -0.6906 -2.1765  0.9794
   94MOL0     H12665  -2.724   5.933   5.716  3.2369  2.6192 -0.4088
   94MOL0     H12666  -2.702   5.906   5.408 -0.5857 -1.8424 -0.2630
   94MOL0     H12667  -2.561   5.884   5.500 -0.3397 -3.0681 -3.2187
   94MOL0     H12668  -2.677   5.722   5.648 -1.0640 -0.0844  0.6003
   94MOL0     H12669  -2.653   5.666   5.476 -0.6551 -0.7527  0.3822
   94MOL0     H12670  -2.915   5.764   5.600  1.5526 -0.5220  2.2323
   94MOL0     H12671  -2.867   5.603   5.576 -1.1205 -0.0657 -0.0316
   94MOL0     H12672  -2.070   6.057   5.545 -0.5077  2.3102 -0.4785
   94MOL0     H12673  -1.804   6.100   5.576  0.6534 -0.9243  0.6628
   94MOL0     H12674  -1.453   6.112   5.692 -2.1646  0.6099  0.5438
   94MOL0     H12675  -1.205   6.183   5.667 -0.1573  1.3533 -0.3677
   94MOL0     H12676   0.628   6.568   5.732  0.9901  3.0360 -2.5061
   94MOL0     H12677   0.824   6.700   5.761 -2.5513 -0.8921  1.7997
   94MOL0     H12678   1.365   6.631   5.481  0.4479 -1.4593  0.2770
   94MOL0     H12679   1.585   6.729   5.529 -0.1508 -0.9920  0.2602
   94MOL0     H12680   1.665   6.950   5.901 -0.2272  0.2020 -0.9912
   94MOL0     H12681   1.707   6.782   5.953  0.2874  1.2103  0.9890
   94MOL0     H12682   1.888   6.947   5.978  2.3574  1.2040 -0.1673
   94MOL0     H12683   1.880   7.005   5.820  0.7614 -1.2194 -1.2313
   94MOL0     H12684   2.051   6.879   5.769 -2.8971  2.3571 -2.3886
   94MOL0     H12685   1.935   6.751   5.755 -2.1735 -1.3062  1.9100
   94MOL0     H12686   2.096   6.817   6.006  1.0383  1.1853 -1.6931
   94MOL0     H12687   2.133   6.691   5.888 -1.6250 -0.0136 -0.2572
   94MOL0     H12688   1.851   6.488   6.115 -2.1567 -0.9517 -1.8910
   94MOL0     H12689   1.465   6.796   5.944 -1.6842  0.5518  1.8207
   94MOL0     H12690   1.242   6.725   5.885 -0.7102 -0.1113 -0.8886
   95MOL0     O12691   7.576   0.165   2.937  0.0061  0.0207  0.0713
   95MOL0     C12692   7.587   0.095   3.042  0.5933 -0.6218  0.3136
   95MOL0     O12693   7.494   0.013   3.095 -0.2915  0.0855  0.1830
   95MOL0     C12694   7.370   0.009   3.040  0.6339 -0.1371  0.5861
   95MOL0     C12695   7.272   0.096   3.101 -0.2561  0.4441  0.0928
   95MOL0     C12696   7.137   0.077   3.071  0.0908 -0.4580 -0.1470
   95MOL0     C12697   7.085  -0.008   2.972 -0.2222 -0.1603 -0.6001
   95MOL0     O12698   6.957  -0.002   2.958  0.6866 -0.3539 -0.5808
   95MOL0     C12699   6.874  -0.057   2.857  0.1085 -0.3125  0.1990
   95MOL0     C12700   6.742  -0.066   2.921  0.1510  0.1959  0.5829
   95MOL0     C12701   6.675   0.072   2.941  0.2129 -0.4158  0.0128
   95MOL0     C12702   6.532   0.063   2.983 -0.1169  0.6796  0.7099
   95MOL0     C12703   6.456   0.200   2.979  0.2797  0.3301 -0.8743
   95MOL0     C12704   6.311   0.182   3.032  0.0315  0.1596  0.4615
   95MOL0     C12705   6.312   0.149   3.183  0.0344 -0.0372  0.2070
   95MOL0     C12706   6.170   0.170   3.236  0.0281 -0.3400 -0.0891
   95MOL0     N12707   6.198   0.154   3.373  0.0605  0.3356  0.1529
   95MOL0     C12708   6.271   0.238   3.456 -0.2818  0.0627  0.0298
   95MOL0     C12709   6.287   0.161   3.565 -0.7275 -0.8146 -0.3492
   95MOL0     C12710   6.358   0.202   3.683  0.3246 -0.9851 -1.1980
   95MOL0     C12711   6.515   0.213   3.659  1.0533  0.1117  0.1119
   95MOL0     C12712   6.587   0.280   3.768  0.2397  0.5312  0.1455
   95MOL0     C12713   6.733   0.243   3.796  0.5349 -0.1701  0.0365
   95MOL0     O12714   6.795   0.361   3.857  0.3810  0.0773  0.2748
   95MOL0     C12715   6.932   0.375   3.874 -0.1566  0.5561  0.3228
   95MOL0     C12716   6.995   0.498   3.890 -0.5498  0.3696  0.0898
   95MOL0     C12717   7.133   0.505   3.906 -0.3121  0.2954 -0.0239
   95MOL0     C12718   7.187   0.635   3.951 -0.2650  0.3477 -1.0392
   95MOL0     C12719   7.216   0.388   3.898 -0.3491  0.7791  0.1429
   95MOL0     C12720   7.363   0.379   3.919  0.5008 -0.9655 -0.0534
   95MOL0     O12721   7.423   0.255   3.894 -0.4616  0.2987 -0.2879
   95MOL0     C12722   7.554   0.247   3.915  0.7160  0.3485 -0.7168
   95MOL0     C12723   7.647   0.302   3.816  0.2671  0.1704  0.4078
   95MOL0     C12724   7.777   0.318   3.848 -0.1005 -0.1357  0.1637
   95MOL0     C12725   7.826   0.296   3.981  0.5207 -0.5308  0.4228
   95MOL0     O12726   7.958   0.322   4.005 -0.7021  0.7949 -0.2383
   95MOL0     C12727   8.043   0.229   4.075  0.0435 -0.1038  0.5784
   95MOL0     C12728   8.189   0.247   4.031  0.1902  0.6112  0.5953
   95MOL0     C12729   8.289   0.140   4.082  0.4588 -0.1803 -0.2377
   95MOL0     C12730   8.401   0.114   3.975  0.4343 -0.3089  0.2755
   95MOL0     C12731   8.485  -0.008   4.007  0.3350  0.5342  0.2998
   95MOL0     C12732   8.585  -0.028   3.891  0.1386 -0.9099 -0.1110
   95MOL0     C12733   8.634  -0.177   3.887 -0.6255  0.2530  0.0204
   95MOL0     C12734   8.736  -0.186   3.774 -0.3490  0.2946  0.0802
   95MOL0    Cl12735   8.914  -0.176   3.804 -0.0646  0.1893  0.7432
   95MOL0     C12736   7.739   0.245   4.075 -0.0769  0.2442 -0.1310
   95MOL0     C12737   7.603   0.215   4.044  0.0058 -0.5078 -0.4440
   95MOL0     O12738   7.419   0.478   3.979  1.1211  0.1029 -0.2092
   95MOL0     C12739   7.144   0.265   3.876  0.2453 -0.2789 -0.2715
   95MOL0     C12740   7.006   0.259   3.862 -0.2496 -0.7704 -0.1723
   95MOL0     N12741   6.234   0.029   3.554  0.6819 -0.9533  0.0843
   95MOL0     N12742   6.176   0.034   3.437  0.3258  0.5355 -0.0303
   95MOL0     C12743   7.181  -0.092   2.906 -0.4505 -0.4231  0.1417
   95MOL0     C12744   7.319  -0.093   2.949  0.7656 -0.0105  0.2481
   95MOL0     C12745   7.724   0.096   3.104  0.0919 -0.3475 -0.0978
   95MOL0     C12746   7.816   0.201   3.082  0.1801 -0.5090  0.1664
   95MOL0     C12747   7.948   0.201   3.131 -0.7680  0.7134 -0.1558
   95MOL0     C12748   7.997   0.081   3.209  0.2407  0.0741  0.3909
   95MOL0     O12749   8.122   0.057   3.250 -0.1852  0.7700 -0.2236
   95MOL0     C12750   8.205   0.177   3.248  0.6258  0.6322  0.0622
   95MOL0     C12751   8.340   0.154   3.330 -0.0732 -0.3621 -0.2294
   95MOL0     C12752   8.320   0.075   3.469  0.0188 -0.1705 -0.1341
   95MOL0     C12753   8.447   0.069   3.549  0.0098  0.0916  0.7064
   95MOL0     C12754   8.492   0.204   3.586 -0.6028 -0.1640 -0.3843
   95MOL0     C12755   8.554   0.296   3.629 -0.2845 -0.7327 -0.0323
   95MOL0     C12756   7.905  -0.025   3.223  0.0158  0.0167 -1.1888
   95MOL0     C12757   7.765  -0.018   3.180 -0.3175  0.6828  0.3337
   95MOL0     H12758   7.302   0.165   3.180  2.2082  0.1240 -0.4920
   95MOL0     H12759   7.069   0.146   3.122  2.7995  2.5278 -0.2501
   95MOL0     H12760   6.849   0.008   2.772 -2.8971 -2.8846 -1.0932
   95MOL0     H12761   6.911  -0.157   2.832 -2.0775 -0.5079 -2.7412
   95MOL0     H12762   6.679  -0.133   2.862  0.3008 -0.6317  1.3321
   95MOL0     H12763   6.757  -0.115   3.018  0.0780 -1.3545 -0.1683
   95MOL0     H12764   6.718   0.130   3.023 -1.1654 -0.9586  1.1683
   95MOL0     H12765   6.676   0.137   2.853 -4.0435  4.0853  2.7943
   95MOL0     H12766   6.470   0.006   2.913 -0.4084  1.0461  0.6654
   95MOL0     H12767   6.532   0.025   3.085 -2.0943  0.6811  0.7568
   95MOL0     H12768   6.514   0.270   3.039  1.5971 -1.6659  0.3036
   95MOL0     H12769   6.449   0.242   2.878  2.3344  2.7219 -0.1113
   95MOL0     H12770   6.266   0.279   3.010  1.8640  0.3304 -3.2357
   95MOL0     H12771   6.255   0.105   2.977 -1.5042 -0.2239  2.4313
   95MOL0     H12772   6.344   0.045   3.198 -1.3556 -0.1216  3.3977
   95MOL0     H12773   6.385   0.215   3.231 -1.2797  0.2411  1.9485
   95MOL0     H12774   6.103   0.095   3.191  1.7993  0.4231 -4.4866
   95MOL0     H12775   6.133   0.271   3.218  1.8196  0.9361  2.6629
   95MOL0     H12776   6.312   0.337   3.437 -3.6639  1.4081 -1.0919
   95MOL0     H12777   6.318   0.293   3.729 -2.0898 -3.4460  2.0951
   95MOL0     H12778   6.342   0.136   3.769 -1.5872  0.6610 -0.1870
   95MOL0     H12779   6.529   0.267   3.565  0.5982  0.8882  0.4852
   95MOL0     H12780   6.539   0.106   3.650  1.3956 -0.2694  3.7981
   95MOL0     H12781   6.538   0.245   3.859  1.3608  0.4199  0.7217
   95MOL0     H12782   6.560   0.386   3.776  1.0886  0.8879 -1.4300
   95MOL0     H12783   6.779   0.213   3.701  0.9702 -0.3448  0.3008
   95MOL0     H12784   6.739   0.161   3.867  1.0318  0.1717  0.3878
   95MOL0     H12785   6.941   0.592   3.883 -1.0094  0.0978 -0.0968
   95MOL0     H12786   7.268   0.680   3.894 -2.0452  2.8349 -1.7902
   95MOL0     H12787   7.112   0.715   3.947  0.2575  0.8410 -1.0124
   95MOL0     H12788   7.221   0.617   4.054  2.0563 -3.6064 -2.2937
   95MOL0     H12789   7.609   0.324   3.717 -2.8330  0.3627  1.5086
   95MOL0     H12790   7.840   0.358   3.770  0.6222  3.7950  2.4861
   95MOL0     H12791   8.025   0.251   4.180  1.3410  1.9086  0.4423
   95MOL0     H12792   8.015   0.125   4.053 -2.4546  0.4394  0.9771
   95MOL0     H12793   8.181   0.257   3.923 -0.2940  0.9801  0.6599
   95MOL0     H12794   8.224   0.345   4.067  0.6815 -0.2835  2.7319
   95MOL0     H12795   8.236   0.046   4.095  1.6000 -1.0895 -1.8448
   95MOL0     H12796   8.324   0.168   4.182 -1.3770 -1.3292  0.7816
   95MOL0     H12797   8.345   0.096   3.882  0.8447 -1.7769  0.2874
   95MOL0     H12798   8.474   0.195   3.964 -0.0933  0.1808  0.3056
   95MOL0     H12799   8.416  -0.092   4.001  0.6655  0.3016 -0.3387
   95MOL0     H12800   8.539   0.012   4.100  0.4106  1.2688  0.1063
   95MOL0     H12801   8.547   0.005   3.793 -0.7550 -2.9815 -0.5178
   95MOL0     H12802   8.671   0.030   3.925 -0.7285 -0.6231  1.7085
   95MOL0     H12803   8.551  -0.245   3.861  2.2659 -3.4776 -0.3440
   95MOL0     H12804   8.664  -0.215   3.985 -1.0283 -0.8915 -0.2799
   95MOL0     H12805   8.705  -0.106   3.706 -3.1016  0.3124  1.1868
   95MOL0     H12806   8.713  -0.281   3.724  0.1228  1.8786 -3.4164
   95MOL0     H12807   7.776   0.206   4.169 -0.5043 -1.6576 -0.7051
   95MOL0     H12808   7.539   0.169   4.119 -0.6918  1.5457  0.2909
   95MOL0     H12809   7.203   0.174   3.870  1.9656  0.7843 -0.3135
   95MOL0     H12810   6.977   0.158   3.835 -3.3248  0.0651 -0.3678
   95MOL0     H12811   7.134  -0.170   2.847  0.4662 -1.0852  0.2714
   95MOL0     H12812   7.383  -0.177   2.922 -1.4201 -1.5144 -0.5274
   95MOL0     H12813   7.796   0.279   3.009 -1.5227 -0.7785  0.3084
   95MOL0     H12814   8.017   0.283   3.116 -0.8245  0.6570 -0.7210
   95MOL0     H12815   8.220   0.221   3.150  1.8164  0.9746  0.3841
   95MOL0     H12816   8.153   0.239   3.322  0.7930  0.0370  0.6879
   95MOL0     H12817   8.391   0.247   3.355  0.6896 -0.6478 -0.6958
   95MOL0     H12818   8.417   0.113   3.264 -0.8748 -0.4352 -1.1458
   95MOL0     H12819   8.270  -0.022   3.460  0.2257 -0.1822 -1.2446
   95MOL0     H12820   8.254   0.136   3.531 -1.3034  0.1297 -1.7611
   95MOL0     H12821   8.529   0.026   3.491 -1.3056 -1.0140 -0.3957
   95MOL0     H12822   8.431  -0.003   3.629  2.2563 -2.0419 -0.6222
   95MOL0     H12823   8.590   0.384   3.678  1.5372 -1.1699 -0.4876
   95MOL0     H12824   7.942  -0.117   3.267  2.2395  1.2441 -0.3834
   95MOL0     H12825   7.702  -0.106   3.188 -0.3931  0.5038 -1.6378
   96MOL0     O12826   4.045  10.635   9.993 -0.4933  0.0447  0.0449
   96MOL0     C12827   4.040  10.648   9.874 -0.2380  0.1564  0.0901
   96MOL0     O12828   4.151  10.680   9.796  0.1867  0.4931  0.0183
   96MOL0     C12829   4.279  10.666   9.852  0.3161 -0.3509  0.7689
   96MOL0     C12830   4.317  10.736   9.975 -0.2630 -0.1038  1.3751
   96MOL0     C12831   4.448  10.728  10.019  0.3562  0.9867  0.1741
   96MOL0     C12832   4.539  10.641   9.960  0.6494 -0.0752  0.1694
   96MOL0     O12833   4.660  10.623  10.017  0.1013  0.2139 -0.3406
   96MOL0     C12834   4.755  10.522   9.966  0.0941 -0.5043  0.8183
   96MOL0     C12835   4.872  10.506  10.068  0.4668 -0.7384  0.1952
   96MOL0     C12836   5.004  10.448  10.007 -0.1208  0.0047  1.0446
   96MOL0     C12837   5.115  10.456  10.110  0.2409  0.6791  0.0623
   96MOL0     C12838   5.253  10.432  10.040  0.0705  0.5362  0.7792
   96MOL0     C12839   5.244  10.309   9.944  0.0634 -0.0940  0.3795
   96MOL0     C12840   5.379  10.289   9.870  0.4489 -0.1081  0.2914
   96MOL0     C12841   5.428  10.395   9.763  0.1529  0.1781 -0.3393
   96MOL0     N12842   5.337  10.407   9.646  0.0279  0.3327  0.7339
   96MOL0     C12843   5.296  10.528   9.595 -0.5532  0.0721  0.3999
   96MOL0     C12844   5.223  10.488   9.484 -0.6954 -0.1058 -0.1453
   96MOL0     C12845   5.134  10.567   9.402  0.1032  0.4443  1.3557
   96MOL0     C12846   4.991  10.560   9.447 -0.5743 -0.1951  0.0743
   96MOL0     C12847   4.915  10.429   9.403 -0.1072 -0.6190  0.0424
   96MOL0     C12848   4.765  10.441   9.426  0.0155 -0.4238  0.3931
   96MOL0     O12849   4.711  10.554   9.350 -0.9156 -0.0225 -0.5106
   96MOL0     C12850   4.569  10.578   9.360  0.0809  0.3751 -0.7878
   96MOL0     C12851   4.482  10.484   9.420  0.3584 -0.2446 -0.2312
   96MOL0     C12852   4.342  10.494   9.409 -0.0390  0.9228 -0.8535
   96MOL0     C12853   4.269  10.387   9.498  0.4934  0.3199  0.7156
   96MOL0     C12854   4.280  10.609   9.357  0.4995  0.2259 -0.4053
   96MOL0     C12855   4.129  10.635   9.349 -0.4262  1.2470  0.1629
   96MOL0     O12856   4.088  10.758   9.298 -0.5305  0.4723  0.3480
   96MOL0     C12857   3.964  10.776   9.253  0.6317  0.7193 -0.1358
   96MOL0     C12858   3.846  10.754   9.327  0.3257 -0.3381 -0.1467
   96MOL0     C12859   3.724  10.787   9.279  0.0550 -0.7383  0.0187
   96MOL0     C12860   3.708  10.845   9.158  0.2213  0.2384 -0.0579
   96MOL0     O12861   3.583  10.857   9.107  0.0498  0.6420  0.2088
   96MOL0     C12862   3.555  10.945   8.986  0.7033 -0.1190 -0.0872
   96MOL0     C12863   3.406  10.927   8.928  0.3198  0.5978 -0.7179
   96MOL0     C12864   3.378  10.815   8.830  0.1486 -0.1204 -0.5078
   96MOL0     C12865   3.234  10.841   8.786  0.7473  0.1847  0.1181
   96MOL0     C12866   3.200  10.742   8.669  0.7839  0.5276  0.4354
   96MOL0     C12867   3.057  10.770   8.634  0.4634 -0.0435 -0.4297
   96MOL0     C12868   2.995  10.683   8.536 -0.1281 -0.3314 -0.1124
   96MOL0     C12869   2.843  10.698   8.534 -0.0096 -0.1428  0.0311
   96MOL0    Cl12870   2.780  10.613   8.681 -0.1007 -0.0124 -0.2143
   96MOL0     C12871   3.817  10.876   9.085 -0.6715  0.0350 -0.3369
   96MOL0     C12872   3.946  10.851   9.133 -0.7748 -0.3917 -0.4536
   96MOL0     O12873   4.054  10.538   9.365 -0.0336 -0.2306  0.0155
   96MOL0     C12874   4.370  10.697   9.286  0.3750 -0.9514 -0.5644
   96MOL0     C12875   4.511  10.682   9.287 -0.4078 -0.4389 -0.5322
   96MOL0     N12876   5.236  10.349   9.469 -0.7995 -1.1166 -0.3689
   96MOL0     N12877   5.296  10.306   9.568 -0.4488  0.7247 -0.2488
   96MOL0     C12878   4.502  10.572   9.844  0.1390 -0.0986 -0.4406
   96MOL0     C12879   4.376  10.592   9.788 -0.5597 -0.3122  0.9062
   96MOL0     C12880   3.906  10.643   9.816 -0.2213 -0.5699 -0.1528
   96MOL0     C12881   3.879  10.636   9.683  0.3394 -0.1103 -0.2730
   96MOL0     C12882   3.745  10.616   9.643  0.8381 -0.4673 -0.6023
   96MOL0     C12883   3.641  10.634   9.728  1.3275 -0.0310  0.1500
   96MOL0     O12884   3.510  10.625   9.681  0.4589 -0.0712  0.2104
   96MOL0     C12885   3.422  10.738   9.710  0.2102 -0.0766 -0.0477
   96MOL0     C12886   3.368  10.793   9.584  1.0895  0.1871  1.0063
   96MOL0     C12887   3.304  10.680   9.492  0.2371  0.1809  0.3562
   96MOL0     C12888   3.152  10.669   9.537  0.0642  1.0930 -0.1557
   96MOL0     C12889   3.072  10.788   9.505 -0.0171 -0.9334 -0.2151
   96MOL0     C12890   2.984  10.868   9.481  0.8688 -0.7794 -0.4241
   96MOL0     C12891   3.668  10.630   9.865 -0.3430  0.4351 -0.5186
   96MOL0     C12892   3.798  10.631   9.906  0.6442 -0.0722 -0.0903
   96MOL0     H12893   4.246  10.795  10.031 -1.5085 -0.0250 -0.2160
   96MOL0     H12894   4.480  10.770  10.115  2.7077 -0.0956 -0.0542
   96MOL0     H12895   4.708  10.424   9.954  0.8622 -0.8425  0.5852
   96MOL0     H12896   4.787  10.541   9.863  1.1752 -0.5202  1.1411
   96MOL0     H12897   4.892  10.608  10.101 -2.5902 -0.0530  0.1766
   96MOL0     H12898   4.837  10.455  10.159  1.5834 -0.0282  1.0497
   96MOL0     H12899   4.992  10.350   9.959  0.1276  0.7996 -0.7078
   96MOL0     H12900   5.034  10.517   9.928 -1.0421  0.2330  0.8793
   96MOL0     H12901   5.122  10.556  10.153  0.6103  0.9006 -0.4978
   96MOL0     H12902   5.102  10.387  10.193  0.8123 -0.6238 -0.8862
   96MOL0     H12903   5.277  10.516   9.975 -0.3630 -0.4525 -0.7017
   96MOL0     H12904   5.334  10.414  10.112 -0.4948  1.5060  1.6852
   96MOL0     H12905   5.217  10.214   9.992 -1.0650 -1.1750 -2.2173
   96MOL0     H12906   5.166  10.337   9.873 -1.1260  0.3682  1.7976
   96MOL0     H12907   5.451  10.267   9.949  2.2880  3.3079 -0.2350
   96MOL0     H12908   5.367  10.203   9.804  2.0910  0.1855 -0.4539
   96MOL0     H12909   5.530  10.373   9.728  0.2154  0.7464 -0.5275
   96MOL0     H12910   5.438  10.493   9.811  1.1255  0.4363 -1.0364
   96MOL0     H12911   5.320  10.627   9.633 -1.9346  0.4096  0.4421
   96MOL0     H12912   5.162  10.673   9.405 -0.6807  0.7858 -1.0865
   96MOL0     H12913   5.136  10.541   9.296 -3.5785  0.7907  1.0630
   96MOL0     H12914   4.931  10.649   9.423 -1.3890 -0.6752  0.2656
   96MOL0     H12915   5.004  10.566   9.556 -0.2947 -0.0366  0.0314
   96MOL0     H12916   4.968  10.342   9.442  1.6784 -0.1910 -1.3280
   96MOL0     H12917   4.927  10.427   9.295 -3.6166  0.0215 -0.4801
   96MOL0     H12918   4.741  10.449   9.533 -3.1439 -0.1856 -0.2320
   96MOL0     H12919   4.719  10.349   9.388  0.0173  0.7319 -2.7077
   96MOL0     H12920   4.533  10.401   9.470  3.1155  1.5014  0.0707
   96MOL0     H12921   4.230  10.308   9.434 -2.7297  1.3142  1.2895
   96MOL0     H12922   4.334  10.338   9.571  2.7899 -0.1449 -1.4756
   96MOL0     H12923   4.175  10.422   9.541  0.0327  0.7173 -0.5686
   96MOL0     H12924   3.856  10.713   9.426 -0.0117 -0.6974 -0.2583
   96MOL0     H12925   3.635  10.772   9.338  1.3892  0.4662  2.5101
   96MOL0     H12926   3.573  11.050   9.014 -1.7185 -0.1902  2.1376
   96MOL0     H12927   3.620  10.921   8.902 -0.4458  2.5369 -1.8690
   96MOL0     H12928   3.338  10.929   9.014  2.8249 -1.6052  1.4621
   96MOL0     H12929   3.378  11.018   8.873  0.3946  1.9718  1.3993
   96MOL0     H12930   3.391  10.716   8.875  1.9119 -0.9788 -2.7388
   96MOL0     H12931   3.441  10.823   8.741  0.5527  1.1971 -0.1220
   96MOL0     H12932   3.163  10.820   8.867  0.3239  0.7816 -0.0896
   96MOL0     H12933   3.214  10.944   8.756 -1.6251  1.1937  4.2743
   96MOL0     H12934   3.212  10.636   8.691  1.2427  0.1844 -1.3082
   96MOL0     H12935   3.254  10.757   8.575 -0.8475 -0.7556 -0.7639
   96MOL0     H12936   2.998  10.762   8.726  0.3146 -1.7895 -0.6467
   96MOL0     H12937   3.043  10.872   8.597  0.4017 -0.7681 -2.4833
   96MOL0     H12938   3.019  10.576   8.543 -1.1839 -0.6646 -1.2833
   96MOL0     H12939   3.027  10.715   8.437 -2.1779 -2.4811 -1.5856
   96MOL0     H12940   2.794  10.670   8.440  1.7546  2.7920 -1.9043
   96MOL0     H12941   2.831  10.807   8.532 -1.2151 -0.2474 -2.6743
   96MOL0     H12942   3.804  10.921   8.987 -0.7629 -1.2500 -0.9366
   96MOL0     H12943   4.037  10.885   9.083 -0.9845  0.4116 -0.3069
   96MOL0     H12944   4.322  10.776   9.230  0.3727 -0.7478 -0.2764
   96MOL0     H12945   4.571  10.750   9.228  0.9896 -1.5022 -0.3890
   96MOL0     H12946   4.576  10.510   9.794  0.1985 -1.1624  0.9245
   96MOL0     H12947   4.334  10.535   9.706 -0.2492 -0.1429  0.6260
   96MOL0     H12948   3.957  10.624   9.608 -1.0553  0.9674 -1.9927
   96MOL0     H12949   3.711  10.601   9.541  0.8656  1.4140 -0.9285
   96MOL0     H12950   3.335  10.717   9.773 -0.6680  0.7463 -0.9720
   96MOL0     H12951   3.474  10.819   9.763 -0.9516 -0.6798  2.1759
   96MOL0     H12952   3.457  10.839   9.540  1.6085 -1.2345  0.5200
   96MOL0     H12953   3.304  10.881   9.592  0.5751 -0.0235 -0.4099
   96MOL0     H12954   3.354  10.583   9.505  2.2552  1.4083  2.5105
   96MOL0     H12955   3.322  10.712   9.389  0.2557  0.2689  0.3860
   96MOL0     H12956   3.155  10.666   9.647  3.0326  4.7799  0.0519
   96MOL0     H12957   3.106  10.577   9.502 -0.5646  0.1992  2.7180
   96MOL0     H12958   2.909  10.923   9.428 -0.5601 -0.8671  1.4220
   96MOL0     H12959   3.600  10.615   9.948  1.3633 -3.9899  0.3893
   96MOL0     H12960   3.811  10.645  10.012 -0.8616 -3.8628  0.7382
   97MOL0     O12961   6.765   1.113   5.280  0.2465  0.1241  0.4411
   97MOL0     C12962   6.785   1.182   5.181  0.3206 -0.7172  0.5168
   97MOL0     O12963   6.688   1.241   5.101  0.6665  0.4480  0.3407
   97MOL0     C12964   6.559   1.186   5.110  0.8112 -0.2858 -0.0752
   97MOL0     C12965   6.474   1.247   5.198 -0.5542 -0.8290 -0.3657
   97MOL0     C12966   6.348   1.199   5.219 -0.5830  0.2365  0.1031
   97MOL0     C12967   6.295   1.101   5.135  0.9326  0.5307  0.7272
   97MOL0     O12968   6.163   1.070   5.146  0.1796  0.3746 -0.1017
   97MOL0     C12969   6.083   1.011   5.037 -0.0239 -0.1897 -0.3822
   97MOL0     C12970   5.941   0.983   5.097 -0.6463  0.2124  1.2468
   97MOL0     C12971   5.860   1.121   5.122  0.0120 -0.0307  0.3552
   97MOL0     C12972   5.730   1.095   5.197  0.3570 -0.7952  0.4720
   97MOL0     C12973   5.668   1.234   5.234  0.0724  0.0856  0.0597
   97MOL0     C12974   5.528   1.210   5.305 -0.1733  0.1573  0.2145
   97MOL0     C12975   5.442   1.335   5.298  0.7175  0.1985  0.7248
   97MOL0     C12976   5.311   1.304   5.369 -0.3364 -0.4795 -0.0591
   97MOL0     N12977   5.212   1.412   5.358 -0.3840  0.7392 -0.6766
   97MOL0     C12978   5.172   1.470   5.244 -0.4768 -0.4346 -0.7453
   97MOL0     C12979   5.090   1.576   5.285 -0.1119  1.0697  0.1349
   97MOL0     C12980   5.001   1.668   5.194  0.1563  0.4122  0.2344
   97MOL0     C12981   4.860   1.642   5.231  0.6501  0.6068  0.1873
   97MOL0     C12982   4.764   1.739   5.167  0.2918 -0.1121 -0.3162
   97MOL0     C12983   4.613   1.726   5.198  0.4962  0.1086 -0.3892
   97MOL0     O12984   4.567   1.586   5.222 -0.4922  0.1360 -0.2171
   97MOL0     C12985   4.435   1.573   5.272 -0.9810  0.5570 -0.7719
   97MOL0     C12986   4.396   1.446   5.335  0.8073 -0.1215 -0.1834
   97MOL0     C12987   4.261   1.428   5.367  0.9324  0.0214  0.7380
   97MOL0     C12988   4.232   1.279   5.396  0.2740 -0.9699 -0.2782
   97MOL0     C12989   4.165   1.529   5.365  0.2085 -0.2499 -0.0740
   97MOL0     C12990   4.021   1.513   5.401  0.5048  0.4784  0.4077
   97MOL0     O12991   3.946   1.621   5.380  0.4457 -0.0154 -0.7018
   97MOL0     C12992   3.810   1.614   5.411  0.0736  0.7737 -0.7654
   97MOL0     C12993   3.755   1.685   5.514  0.4487 -0.5714  0.1656
   97MOL0     C12994   3.618   1.668   5.552  0.6434 -0.2441  0.5878
   97MOL0     C12995   3.533   1.581   5.483  0.0964 -0.0088  0.8874
   97MOL0     O12996   3.396   1.562   5.507 -0.2667  0.7556 -0.4348
   97MOL0     C12997   3.355   1.549   5.640 -0.7044 -0.2275 -0.3457
   97MOL0     C12998   3.259   1.666   5.671  0.3005  0.5149  0.5427
   97MOL0     C12999   3.246   1.706   5.816 -0.4520  0.6139  0.4118
   97MOL0     C13000   3.182   1.847   5.831  0.2573 -0.1697 -0.2716
   97MOL0     C13001   3.034   1.842   5.781 -0.0963  0.0884 -0.0142
   97MOL0     C13002   2.962   1.980   5.792  0.4164  0.5961 -0.7153
   97MOL0     C13003   2.814   1.986   5.762  0.0713  0.5131 -0.2736
   97MOL0     C13004   2.762   2.123   5.706  0.1619 -0.9929  0.3303
   97MOL0    Cl13005   2.585   2.121   5.686  0.1612 -0.1275 -0.1082
   97MOL0     C13006   3.588   1.513   5.373  0.0013  0.5540  0.2854
   97MOL0     C13007   3.722   1.531   5.342 -0.4255 -0.4523  0.3576
   97MOL0     O13008   3.980   1.402   5.444  1.2420 -0.5345  0.0101
   97MOL0     C13009   4.207   1.657   5.313  1.4898 -0.1513 -0.2734
   97MOL0     C13010   4.339   1.670   5.275 -0.5222 -0.7150 -1.2335
   97MOL0     N13011   5.092   1.577   5.426  0.3973 -0.1493  0.3195
   97MOL0     N13012   5.169   1.484   5.467 -0.0685 -0.1094 -0.1398
   97MOL0     C13013   6.382   1.048   5.035  0.0572  0.1320  0.4597
   97MOL0     C13014   6.520   1.079   5.030 -0.4991  0.2841  0.3458
   97MOL0     C13015   6.927   1.221   5.144  0.4121  0.5499 -0.4905
   97MOL0     C13016   6.952   1.338   5.075  0.3246 -0.0414  0.1140
   97MOL0     C13017   7.087   1.375   5.035  0.3377  0.5714  0.0307
   97MOL0     C13018   7.192   1.286   5.068  0.1076 -0.4732 -0.1111
   97MOL0     O13019   7.321   1.311   5.023 -0.8400 -0.4892  0.5255
   97MOL0     C13020   7.338   1.416   4.925 -0.5828  0.6426  0.2389
   97MOL0     C13021   7.458   1.409   4.833 -0.6493 -0.7308  0.3441
   97MOL0     C13022   7.580   1.484   4.884  0.1146 -0.6912  0.0203
   97MOL0     C13023   7.683   1.411   4.967 -0.1367  0.2900  0.9029
   97MOL0     C13024   7.628   1.359   5.091  0.4218  1.2758  0.1908
   97MOL0     C13025   7.587   1.301   5.187 -0.6023  0.3113  0.1905
   97MOL0     C13026   7.161   1.165   5.138 -0.1872  0.0636 -0.4028
   97MOL0     C13027   7.036   1.135   5.182 -0.8064  0.4271  0.6446
   97MOL0     H13028   6.487   1.334   5.262 -3.5883  0.9356 -1.8668
   97MOL0     H13029   6.277   1.243   5.289 -1.8682 -3.1669  1.1843
   97MOL0     H13030   6.073   1.081   4.954  2.1988 -1.4619 -1.8601
   97MOL0     H13031   6.128   0.921   4.993  0.2775 -0.0584 -0.3408
   97MOL0     H13032   5.876   0.928   5.027 -2.6801  1.7044  1.8521
   97MOL0     H13033   5.938   0.920   5.186  0.1895  2.6057  3.0665
   97MOL0     H13034   5.926   1.195   5.168  0.6658  0.8287 -1.8466
   97MOL0     H13035   5.820   1.168   5.032 -1.2801  1.7357  1.7653
   97MOL0     H13036   5.671   1.023   5.140  2.4661 -1.5791 -0.8358
   97MOL0     H13037   5.756   1.039   5.288  2.6253 -1.8991 -0.7856
   97MOL0     H13038   5.738   1.291   5.297  0.2656  2.0139 -1.7889
   97MOL0     H13039   5.651   1.297   5.147  0.0331 -0.5994 -0.4348
   97MOL0     H13040   5.471   1.130   5.256  0.9530  0.3716 -1.5119
   97MOL0     H13041   5.543   1.176   5.408 -1.7526  0.4125  0.5640
   97MOL0     H13042   5.499   1.418   5.340  2.5565  0.6645 -2.3881
   97MOL0     H13043   5.428   1.363   5.193 -2.3421 -1.1058  0.6922
   97MOL0     H13044   5.329   1.274   5.473 -1.1145 -3.3174 -0.6530
   97MOL0     H13045   5.262   1.222   5.316  1.6756 -0.7953 -1.5929
   97MOL0     H13046   5.199   1.448   5.141  1.8988  1.6758 -0.6951
   97MOL0     H13047   5.027   1.773   5.212  3.0147  0.2256 -1.9384
   97MOL0     H13048   5.019   1.646   5.088  1.1815  3.1080 -0.2400
   97MOL0     H13049   4.851   1.664   5.338  0.1361 -2.5983  0.9062
   97MOL0     H13050   4.843   1.538   5.201  0.2911  1.5781 -3.4638
   97MOL0     H13051   4.767   1.731   5.058  0.1793  1.4403 -0.4570
   97MOL0     H13052   4.793   1.840   5.198 -2.8312  0.8397 -0.1306
   97MOL0     H13053   4.561   1.755   5.106  2.7742 -0.1899 -1.8657
   97MOL0     H13054   4.587   1.801   5.273  1.3737 -0.8709  0.9498
   97MOL0     H13055   4.457   1.358   5.356 -2.2228 -2.0442  1.1964
   97MOL0     H13056   4.211   1.260   5.501 -2.9416 -0.5381 -0.7253
   97MOL0     H13057   4.138   1.248   5.349 -2.1358  1.2706  2.6689
   97MOL0     H13058   4.308   1.209   5.360  0.5350 -0.5466 -0.5633
   97MOL0     H13059   3.806   1.743   5.589  0.0944 -2.4568  1.9757
   97MOL0     H13060   3.574   1.727   5.632 -0.8279  2.2426 -1.8733
   97MOL0     H13061   3.301   1.457   5.666 -2.1824  0.9028  0.8022
   97MOL0     H13062   3.441   1.548   5.708  0.7096 -1.2246 -2.0927
   97MOL0     H13063   3.310   1.749   5.622 -0.2695  0.7069  0.2622
   97MOL0     H13064   3.163   1.646   5.623  0.6984 -1.2852  0.4224
   97MOL0     H13065   3.339   1.694   5.873  1.4750  1.6878 -2.3094
   97MOL0     H13066   3.175   1.632   5.855 -0.9277 -1.1861 -3.4216
   97MOL0     H13067   3.182   1.890   5.932 -1.1594  0.7913 -0.6540
   97MOL0     H13068   3.241   1.919   5.774 -0.6795 -0.3541 -1.5183
   97MOL0     H13069   2.985   1.764   5.841  0.0098 -1.8237 -2.2875
   97MOL0     H13070   3.021   1.812   5.677  0.5889 -2.0673  0.4840
   97MOL0     H13071   2.969   2.023   5.893 -1.3684  6.0564 -2.5724
   97MOL0     H13072   3.016   2.045   5.724  2.3962 -0.9019 -0.6636
   97MOL0     H13073   2.757   1.957   5.851  1.1362 -0.7940  0.0243
   97MOL0     H13074   2.784   1.910   5.689 -0.6359 -0.4280  0.9606
   97MOL0     H13075   2.793   2.139   5.603 -0.9886  0.4814  0.1864
   97MOL0     H13076   2.787   2.210   5.768  1.2074 -1.1014  0.0785
   97MOL0     H13077   3.525   1.452   5.309  1.6339 -0.8755 -0.0471
   97MOL0     H13078   3.765   1.479   5.256 -1.4808 -1.9901  0.7176
   97MOL0     H13079   4.143   1.745   5.312 -2.0771 -2.4997 -0.2765
   97MOL0     H13080   4.364   1.772   5.249 -1.5310 -0.1857 -0.2134
   97MOL0     H13081   6.342   0.976   4.964 -0.3198  1.2575 -0.4838
   97MOL0     H13082   6.577   1.037   4.948  0.0791 -0.4454  1.1142
   97MOL0     H13083   6.879   1.403   5.026  2.1681 -0.1264 -3.0381
   97MOL0     H13084   7.105   1.471   4.988  0.0356  0.8869  0.5523
   97MOL0     H13085   7.262   1.402   4.848  0.6211 -0.5187 -0.7772
   97MOL0     H13086   7.327   1.519   4.962 -1.2639  0.4111  0.7186
   97MOL0     H13087   7.422   1.462   4.745 -2.1504  0.7439  1.7773
   97MOL0     H13088   7.495   1.311   4.801 -0.4368 -0.6752  0.4149
   97MOL0     H13089   7.542   1.569   4.942 -0.3328  0.0934 -1.3663
   97MOL0     H13090   7.618   1.530   4.792 -1.3118 -0.3693 -0.4424
   97MOL0     H13091   7.764   1.482   4.985 -0.6736  1.5233 -1.2454
   97MOL0     H13092   7.718   1.327   4.906  1.2825  1.2649  0.3322
   97MOL0     H13093   7.558   1.245   5.274  4.1919 -1.3318  1.0634
   97MOL0     H13094   7.240   1.094   5.162  0.7605  1.4487  0.7721
   97MOL0     H13095   7.018   1.040   5.230  1.4070 -1.6205 -2.2276
   98MOL0     O13096  10.666   5.237   6.987  0.2158 -0.3106  0.7998
   98MOL0     C13097  10.773   5.188   7.019  0.2403  0.0480  0.0085
   98MOL0     O13098  10.792   5.052   7.048  0.7246 -0.9557  0.5062
   98MOL0     C13099  10.677   4.982   7.062 -1.0532  1.1496  0.6678
   98MOL0     C13100  10.615   4.973   7.189 -0.4102 -0.0631 -0.6204
   98MOL0     C13101  10.490   4.906   7.213  0.2401  0.2055  0.7919
   98MOL0     C13102  10.425   4.856   7.101 -0.0287 -0.0221 -0.2016
   98MOL0     O13103  10.301   4.798   7.106 -0.7698  0.2970 -0.3346
   98MOL0     C13104  10.236   4.779   7.232 -0.1190  0.3331  0.0101
   98MOL0     C13105  10.106   4.718   7.186  0.0831  0.3562 -2.1208
   98MOL0     C13106  10.031   4.812   7.094  0.2883 -0.0127  0.2910
   98MOL0     C13107   9.874   4.778   7.083  0.6807  0.2879  0.2268
   98MOL0     C13108   9.826   4.640   7.047  0.9486 -0.4291 -0.7464
   98MOL0     C13109   9.668   4.644   7.057  0.1387  0.1041 -0.3293
   98MOL0     C13110   9.625   4.603   7.203 -0.4738  0.9219 -0.6254
   98MOL0     C13111   9.490   4.656   7.256  0.3416  0.3061  0.3091
   98MOL0     N13112   9.366   4.612   7.187 -0.1491 -0.2218 -0.3558
   98MOL0     C13113   9.347   4.641   7.053  0.0662 -0.0112 -0.7304
   98MOL0     C13114   9.219   4.594   7.037 -0.6929 -0.3347  0.0769
   98MOL0     C13115   9.128   4.611   6.922  0.4228 -0.1387  0.1940
   98MOL0     C13116   9.090   4.468   6.861 -1.0406  0.1068  1.3526
   98MOL0     C13117   8.994   4.376   6.940  0.0554 -0.3366  0.5883
   98MOL0     C13118   8.963   4.249   6.857  0.4140  0.8676 -0.4100
   98MOL0     O13119   8.894   4.145   6.932  0.3243 -0.2048  0.1831
   98MOL0     C13120   8.774   4.173   6.989  0.1851  0.5457  0.8017
   98MOL0     C13121   8.686   4.273   6.943  0.7559  0.2690 -0.2105
   98MOL0     C13122   8.564   4.296   7.002 -0.2637  0.4063 -0.1113
   98MOL0     C13123   8.461   4.386   6.936 -0.4781 -0.0136  0.8255
   98MOL0     C13124   8.528   4.224   7.120  0.9879  0.4648  1.2386
   98MOL0     C13125   8.397   4.246   7.196  0.3015 -0.4440  0.1925
   98MOL0     O13126   8.283   4.295   7.133 -0.4511 -0.1971 -0.2412
   98MOL0     C13127   8.157   4.283   7.194  0.5728 -0.7467  0.5953
   98MOL0     C13128   8.056   4.370   7.161 -0.7859 -0.5326  0.3816
   98MOL0     C13129   7.924   4.364   7.203  0.0974 -0.2481  0.3568
   98MOL0     C13130   7.887   4.259   7.294  0.0531  0.0974  0.1606
   98MOL0     O13131   7.765   4.236   7.357  0.8378 -0.6322  0.6352
   98MOL0     C13132   7.656   4.331   7.339 -0.3838  0.7743 -0.0830
   98MOL0     C13133   7.545   4.269   7.420 -0.7789  0.8723 -0.0396
   98MOL0     C13134   7.471   4.162   7.345 -0.9923 -0.0301  0.4064
   98MOL0     C13135   7.350   4.117   7.415  1.0268 -0.8011 -0.3702
   98MOL0     C13136   7.266   4.031   7.321  0.3913 -0.9871  0.0866
   98MOL0     C13137   7.169   3.950   7.411  0.4646  0.5280  0.8950
   98MOL0     C13138   7.082   3.850   7.320 -1.0602 -0.3875 -0.4958
   98MOL0     C13139   6.996   3.760   7.408 -0.0379  0.2185  0.3619
   98MOL0    Cl13140   7.086   3.615   7.476  0.0277  0.0605  0.0110
   98MOL0     C13141   7.983   4.167   7.331 -0.5493 -0.2201  0.5664
   98MOL0     C13142   8.112   4.176   7.271  0.9749 -0.4871  1.1073
   98MOL0     O13143   8.408   4.223   7.317  0.0334 -0.6517 -0.7631
   98MOL0     C13144   8.625   4.132   7.175  0.1429 -0.2817 -0.0615
   98MOL0     C13145   8.744   4.106   7.112  0.0400  0.2297  0.3372
   98MOL0     N13146   9.164   4.544   7.156  0.0957  0.8191  0.1965
   98MOL0     N13147   9.256   4.555   7.247 -0.6443  0.1549 -0.0598
   98MOL0     C13148  10.486   4.862   6.979 -0.1356 -0.2252 -0.2156
   98MOL0     C13149  10.609   4.933   6.953 -0.5111  0.1932  0.4332
   98MOL0     C13150  10.889   5.278   7.052  0.1117  0.0042  1.1901
   98MOL0     C13151  11.021   5.235   7.043  0.1209  0.1019 -0.3693
   98MOL0     C13152  11.126   5.324   7.074  1.1559  0.3138 -0.2171
   98MOL0     C13153  11.099   5.462   7.106 -0.7523 -1.5142 -0.8056
   98MOL0     O13154  11.198   5.561   7.118  0.1253  0.0060  0.3277
   98MOL0     C13155  11.336   5.520   7.131  0.1080 -0.6817  0.4257
   98MOL0     C13156  11.387   5.528   7.273  0.3017 -0.3500 -0.0980
   98MOL0     C13157  11.283   5.484   7.381  0.2478 -0.8102  0.6808
   98MOL0     C13158  11.343   5.493   7.527  0.3214  0.2077 -0.4129
   98MOL0     C13159  11.246   5.466   7.639 -0.4808  0.2861  0.4590
   98MOL0     C13160  11.162   5.459   7.726  0.8259 -0.1581 -0.3102
   98MOL0     C13161  10.970   5.505   7.109 -0.6136 -0.1585 -0.6419
   98MOL0     C13162  10.866   5.415   7.081 -0.0199 -0.5615 -0.8145
   98MOL0     H13163  10.662   5.025   7.271 -0.5443 -0.2999 -0.3923
   98MOL0     H13164  10.456   4.909   7.316  1.8060 -0.6665  1.3807
   98MOL0     H13165  10.289   4.721   7.309  0.1828 -0.8792 -1.0652
   98MOL0     H13166  10.210   4.880   7.264 -3.3481  0.7547 -3.2349
   98MOL0     H13167  10.123   4.618   7.145  2.9055  0.1112 -0.5822
   98MOL0     H13168  10.040   4.707   7.273 -1.1094  2.2976 -2.7011
   98MOL0     H13169  10.051   4.913   7.132  1.3391  0.2238 -0.8328
   98MOL0     H13170  10.072   4.810   6.992 -0.9527  2.2827 -0.3517
   98MOL0     H13171   9.828   4.803   7.179  0.0174  0.5659 -0.1601
   98MOL0     H13172   9.835   4.849   7.010  1.0669 -0.3756 -0.6350
   98MOL0     H13173   9.859   4.616   6.946  2.1144  3.2537 -1.3891
   98MOL0     H13174   9.852   4.558   7.114 -0.4470 -0.4350 -0.1667
   98MOL0     H13175   9.620   4.739   7.031 -2.3898 -1.5013 -1.9753
   98MOL0     H13176   9.630   4.570   6.985 -0.7247 -1.7116  1.8791
   98MOL0     H13177   9.621   4.495   7.216 -1.3333  1.2528  2.8808
   98MOL0     H13178   9.696   4.644   7.276 -1.8666 -2.4389  2.9901
   98MOL0     H13179   9.497   4.764   7.270 -0.2435  0.3362  0.3697
   98MOL0     H13180   9.478   4.613   7.356 -1.3136 -0.1539 -0.0641
   98MOL0     H13181   9.414   4.693   6.985 -0.2150  0.0133 -0.9939
   98MOL0     H13182   9.035   4.658   6.958 -0.8147 -1.8966 -0.5627
   98MOL0     H13183   9.178   4.667   6.842  1.1591  0.4729  1.0678
   98MOL0     H13184   9.188   4.422   6.845 -0.4465  1.0257  2.2681
   98MOL0     H13185   9.048   4.485   6.762  1.0455  0.7423  0.5217
   98MOL0     H13186   8.898   4.427   6.952 -1.2100 -1.8088 -2.1480
   98MOL0     H13187   9.030   4.337   7.035  0.3071 -3.0759 -0.5102
   98MOL0     H13188   9.057   4.199   6.834 -0.0792  0.1184 -0.8443
   98MOL0     H13189   8.919   4.285   6.763 -2.9510  2.6855  1.6660
   98MOL0     H13190   8.700   4.336   6.856 -0.6308 -0.8981 -1.3158
   98MOL0     H13191   8.439   4.470   7.003  1.5864  0.2163  1.2926
   98MOL0     H13192   8.501   4.435   6.847  1.8353  1.0308  2.3435
   98MOL0     H13193   8.372   4.331   6.904 -1.6318  2.3844 -0.2685
   98MOL0     H13194   8.086   4.444   7.088  1.0524 -1.0287  0.5929
   98MOL0     H13195   7.852   4.442   7.179 -0.6394 -1.3750 -1.3932
   98MOL0     H13196   7.675   4.427   7.388  0.7141  0.4432  0.1622
   98MOL0     H13197   7.625   4.346   7.236 -1.0367  1.0575  0.1502
   98MOL0     H13198   7.581   4.219   7.511  0.6021 -0.0631 -1.0710
   98MOL0     H13199   7.478   4.353   7.441 -2.6016 -0.5663  0.2227
   98MOL0     H13200   7.532   4.073   7.324 -0.5235  0.7894 -1.9584
   98MOL0     H13201   7.462   4.209   7.247  2.0874  0.5910  0.3248
   98MOL0     H13202   7.370   4.060   7.506 -1.7301 -0.6249  0.4248
   98MOL0     H13203   7.294   4.208   7.438 -0.1303 -1.0895 -1.9492
   98MOL0     H13204   7.331   3.960   7.268  0.7161 -1.0768  0.6044
   98MOL0     H13205   7.208   4.085   7.245  3.0410 -1.6965 -2.6600
   98MOL0     H13206   7.214   3.881   7.483  0.5332 -1.4017 -0.9300
   98MOL0     H13207   7.096   4.016   7.458 -1.9135  0.1875 -2.0356
   98MOL0     H13208   7.148   3.791   7.256 -0.2977  3.1165 -3.3276
   98MOL0     H13209   7.019   3.910   7.254 -0.1611  1.5362  0.3115
   98MOL0     H13210   6.918   3.721   7.342 -1.2566  0.5519  1.5612
   98MOL0     H13211   6.943   3.823   7.480 -0.9836  1.2372 -1.1410
   98MOL0     H13212   7.958   4.082   7.394 -1.2806 -0.4515 -0.0277
   98MOL0     H13213   8.175   4.091   7.294 -1.2664 -2.1936  1.3561
   98MOL0     H13214   8.604   4.082   7.268  1.9046 -1.0384 -0.0262
   98MOL0     H13215   8.830   4.048   7.142  0.8587  0.5986 -1.2010
   98MOL0     H13216  10.433   4.815   6.898  1.4582  1.2402 -2.2333
   98MOL0     H13217  10.654   4.946   6.855 -1.8407  0.2501 -0.2039
   98MOL0     H13218  11.044   5.132   7.020 -0.8591 -0.8538  2.5072
   98MOL0     H13219  11.226   5.281   7.074 -0.9349 -5.5752  0.8396
   98MOL0     H13220  11.352   5.420   7.088 -0.1264  0.2361 -1.9568
   98MOL0     H13221  11.389   5.593   7.069 -0.3768  0.1429  0.9637
   98MOL0     H13222  11.420   5.629   7.299 -1.2996 -0.2750  1.8788
   98MOL0     H13223  11.478   5.467   7.279 -0.7642 -1.9149  1.6448
   98MOL0     H13224  11.267   5.380   7.350  2.2098 -0.5839 -1.3651
   98MOL0     H13225  11.187   5.536   7.368 -0.2267 -1.6210  0.8670
   98MOL0     H13226  11.398   5.585   7.548 -0.6130  0.2386  2.3116
   98MOL0     H13227  11.413   5.409   7.529 -0.2105 -0.3268 -2.0377
   98MOL0     H13228  11.083   5.432   7.793  0.6270 -1.4265 -1.0138
   98MOL0     H13229  10.950   5.610   7.125 -0.1314 -0.5115  3.0653
   98MOL0     H13230  10.762   5.449   7.083  0.3448  1.0834 -3.7107
   99MOL0     O13231   7.895   6.742   0.047 -0.8048  0.2408  0.1329
   99MOL0     C13232   7.941   6.626   0.034 -0.4798 -0.2904 -0.0400
   99MOL0     O13233   7.871   6.509   0.030  0.4502 -1.1718 -0.1646
   99MOL0     C13234   7.735   6.524   0.036 -0.4643 -0.5157  0.6762
   99MOL0     C13235   7.671   6.546   0.161  0.0389 -0.0443 -0.7416
   99MOL0     C13236   7.537   6.568   0.166  0.6895 -0.0908  0.3233
   99MOL0     C13237   7.459   6.572   0.050 -0.2039  0.7171  0.3544
   99MOL0     O13238   7.323   6.593   0.060  0.0187 -0.5199  0.0287
   99MOL0     C13239   7.248   6.630  -0.056 -0.4718 -0.6532  0.7724
   99MOL0     C13240   7.121   6.704  -0.020 -0.4207 -0.1345  0.4936
   99MOL0     C13241   7.034   6.598   0.061  0.4358 -0.0480 -0.3795
   99MOL0     C13242   6.885   6.624   0.043  0.9516 -0.1897  0.2010
   99MOL0     C13243   6.841   6.755   0.105 -0.5116  0.3700 -0.7145
   99MOL0     C13244   6.690   6.771   0.085  0.0031  0.5481  1.2502
   99MOL0     C13245   6.621   6.880   0.157  0.4241 -0.4230  0.0875
   99MOL0     C13246   6.669   7.020   0.125 -0.5944 -0.6869 -0.6111
   99MOL0     N13247   6.646   7.032  -0.027  0.1528  0.3787 -0.3221
   99MOL0     C13248   6.529   7.064  -0.097  0.0710 -0.8900  0.5288
   99MOL0     C13249   6.579   7.081  -0.226  0.6893  0.6283  0.1193
   99MOL0     C13250   6.486   7.111  -0.340 -0.1354  0.4311  0.1749
   99MOL0     C13251   6.416   7.251  -0.318  0.5323 -0.7153  0.1726
   99MOL0     C13252   6.380   7.306  -0.454 -0.0443  0.0438 -0.0331
   99MOL0     C13253   6.277   7.420  -0.459  0.2593 -0.6935 -0.4915
   99MOL0     O13254   6.334   7.538  -0.397  0.0314 -0.3161 -0.5091
   99MOL0     C13255   6.248   7.624  -0.343  0.1043  0.3927  0.0613
   99MOL0     C13256   6.298   7.695  -0.235 -0.5262  0.4245 -0.5466
   99MOL0     C13257   6.232   7.797  -0.172 -0.0549 -0.1714 -0.1875
   99MOL0     C13258   6.287   7.829  -0.034 -0.3138  0.2760 -0.6166
   99MOL0     C13259   6.105   7.833  -0.224  0.3600 -0.3784 -0.5585
   99MOL0     C13260   6.016   7.940  -0.164  0.4482  0.1569  0.7560
   99MOL0     O13261   5.883   7.937  -0.203 -0.4501  0.4223 -0.6649
   99MOL0     C13262   5.798   8.038  -0.169 -0.2894  0.2584 -0.3618
   99MOL0     C13263   5.744   8.121  -0.267  1.1033 -0.0873 -0.5755
   99MOL0     C13264   5.661   8.230  -0.237  0.1860 -0.1628 -0.5204
   99MOL0     C13265   5.644   8.265  -0.098  0.4590  0.1262  0.3238
   99MOL0     O13266   5.561   8.365  -0.068  0.1644 -0.3618  0.0830
   99MOL0     C13267   5.436   8.377  -0.147  0.6536  0.4756  0.1899
   99MOL0     C13268   5.341   8.484  -0.094  0.2044  0.2467  0.1301
   99MOL0     C13269   5.384   8.630  -0.123  0.2860  0.4572  0.0474
   99MOL0     C13270   5.277   8.723  -0.071 -0.1852  0.1658 -0.8070
   99MOL0     C13271   5.321   8.873  -0.079 -0.2485 -0.2105  0.9992
   99MOL0     C13272   5.230   8.994  -0.030 -0.1382 -0.1112 -0.0161
   99MOL0     C13273   5.304   9.125  -0.028 -0.4292 -0.5781  0.0677
   99MOL0     C13274   5.252   9.234   0.062  0.7135 -0.0065  0.1167
   99MOL0    Cl13275   5.378   9.355   0.065 -0.0904  0.0537 -0.3127
   99MOL0     C13276   5.701   8.188   0.002 -1.4732 -0.3585  0.2313
   99MOL0     C13277   5.784   8.074  -0.034  0.2816  0.4999 -0.1568
   99MOL0     O13278   6.065   8.023  -0.086  0.5490 -0.1756  0.6471
   99MOL0     C13279   6.055   7.767  -0.340 -0.0139  0.2716 -0.5184
   99MOL0     C13280   6.116   7.654  -0.393  0.3904 -0.3172  0.0180
   99MOL0     N13281   6.711   7.043  -0.236 -0.6519  0.1653 -0.1786
   99MOL0     N13282   6.756   7.020  -0.111 -0.3181 -0.0707  0.6018
   99MOL0     C13283   7.519   6.550  -0.074  0.2815 -0.1189  0.1315
   99MOL0     C13284   7.652   6.535  -0.080  0.0974 -0.2813 -0.5859
   99MOL0     C13285   8.085   6.625   0.002  0.2771  0.4820  0.4342
   99MOL0     C13286   8.144   6.508  -0.040  0.2726 -0.4140 -0.5467
   99MOL0     C13287   8.277   6.494  -0.069  1.0750 -0.4291  0.7787
   99MOL0     C13288   8.366   6.598  -0.055 -0.6094 -1.1394 -0.2814
   99MOL0     O13289   8.502   6.580  -0.083  0.4011 -0.4618 -0.9880
   99MOL0     C13290   8.598   6.685  -0.064 -0.1692 -0.4752  0.6028
   99MOL0     C13291   8.734   6.646  -0.115 -0.2940 -0.1787 -0.4400
   99MOL0     C13292   8.810   6.543  -0.024 -0.2219  0.5390 -0.0544
   99MOL0     C13293   8.969   6.545  -0.042  0.4315  0.1415 -0.6867
   99MOL0     C13294   9.036   6.667  -0.007  0.4686  0.4521  0.7658
   99MOL0     C13295   9.085   6.777   0.000 -0.3239  0.3619  0.7189
   99MOL0     C13296   8.310   6.718  -0.014 -0.2291 -0.6239  0.6304
   99MOL0     C13297   8.171   6.734   0.014 -0.5229  0.1825 -0.0086
   99MOL0     H13298   7.725   6.545   0.255 -2.6122  0.1796  0.8664
   99MOL0     H13299   7.485   6.578   0.261 -1.5342 -0.7620 -0.7734
   99MOL0     H13300   7.309   6.704  -0.109 -1.5574  0.8933  1.5750
   99MOL0     H13301   7.213   6.548  -0.119 -2.7272  0.5771  0.3310
   99MOL0     H13302   7.144   6.792   0.041  1.5194 -0.6538  0.5921
   99MOL0     H13303   7.084   6.725  -0.120  0.6973  0.0529  0.1030
   99MOL0     H13304   7.054   6.493   0.036  0.0736 -0.5699  1.3380
   99MOL0     H13305   7.051   6.608   0.169  2.8180 -0.1290 -0.7010
   99MOL0     H13306   6.855   6.633  -0.062 -2.8131  0.9931  1.2208
   99MOL0     H13307   6.831   6.542   0.092  1.2399  0.5021  1.7258
   99MOL0     H13308   6.864   6.760   0.212 -2.2114  1.6840 -0.3740
   99MOL0     H13309   6.891   6.838   0.055 -0.6733  1.4906  0.9156
   99MOL0     H13310   6.664   6.764  -0.021 -1.1524  0.6644  1.5083
   99MOL0     H13311   6.644   6.681   0.125  1.0377 -0.4331  0.3206
   99MOL0     H13312   6.514   6.874   0.133  0.2263  0.0107  0.7956
   99MOL0     H13313   6.613   6.863   0.265 -1.8960  2.3793  0.4999
   99MOL0     H13314   6.776   7.035   0.140 -0.2732 -1.8368 -1.6690
   99MOL0     H13315   6.613   7.101   0.173  0.6774 -1.1158  1.7550
   99MOL0     H13316   6.426   7.078  -0.068  0.0545 -0.3677  0.2263
   99MOL0     H13317   6.561   7.115  -0.419  1.6415 -1.1273  1.6826
   99MOL0     H13318   6.412   7.034  -0.363  0.6370  0.5999 -3.3571
   99MOL0     H13319   6.472   7.333  -0.273 -2.9292  3.1438 -1.8362
   99MOL0     H13320   6.322   7.229  -0.266 -0.6392 -1.6189 -2.1648
   99MOL0     H13321   6.341   7.223  -0.514 -0.1067  2.3887 -3.5515
   99MOL0     H13322   6.477   7.337  -0.495 -0.1417  1.9405  1.0503
   99MOL0     H13323   6.183   7.383  -0.417 -1.0970  0.1153 -2.6552
   99MOL0     H13324   6.255   7.438  -0.565  1.2349 -1.3203 -0.8243
   99MOL0     H13325   6.399   7.669  -0.207 -1.7409 -2.0774  1.9759
   99MOL0     H13326   6.375   7.894  -0.040  0.2150 -0.5170 -1.9839
   99MOL0     H13327   6.214   7.875   0.033  0.3652 -0.3513  0.5908
   99MOL0     H13328   6.319   7.734   0.010  2.0402  0.9025 -0.8218
   99MOL0     H13329   5.754   8.095  -0.372  0.3822 -0.9981 -0.4364
   99MOL0     H13330   5.612   8.268  -0.327 -1.4737  1.1873  0.8684
   99MOL0     H13331   5.457   8.390  -0.253 -0.4999  2.3764  0.1457
   99MOL0     H13332   5.375   8.287  -0.133  1.7915 -0.2559  0.5886
   99MOL0     H13333   5.244   8.473  -0.144  0.8934 -0.8696 -1.0085
   99MOL0     H13334   5.326   8.477   0.014 -0.4092  0.7648  0.0839
   99MOL0     H13335   5.394   8.649  -0.230 -3.0450 -1.0936 -0.6861
   99MOL0     H13336   5.481   8.642  -0.075  0.5618 -2.6814  0.5005
   99MOL0     H13337   5.182   8.710  -0.123  0.7096 -3.1274 -1.8516
   99MOL0     H13338   5.254   8.701   0.034  0.1576 -0.0663 -0.7804
   99MOL0     H13339   5.343   8.895  -0.184  1.0369  1.8395  1.6316
   99MOL0     H13340   5.419   8.883  -0.032  0.7625 -0.2243 -1.0040
   99MOL0     H13341   5.141   9.004  -0.092 -0.1204  4.5545  0.3978
   99MOL0     H13342   5.193   8.985   0.073  0.5304  0.9728  0.3372
   99MOL0     H13343   5.307   9.172  -0.127 -2.0225 -1.6299 -0.5327
   99MOL0     H13344   5.407   9.106   0.000 -0.1752 -0.5575 -0.8195
   99MOL0     H13345   5.231   9.196   0.163  1.9525 -3.3106 -0.7356
   99MOL0     H13346   5.161   9.281   0.023  1.3892  1.5546  0.3721
   99MOL0     H13347   5.683   8.213   0.106 -1.5630  2.0782 -0.3239
   99MOL0     H13348   5.836   8.023   0.047 -0.7796 -0.3841 -0.0065
   99MOL0     H13349   5.952   7.775  -0.375 -0.6359 -0.6090  1.0062
   99MOL0     H13350   6.072   7.601  -0.477  0.4036  4.1399 -3.1636
   99MOL0     H13351   7.465   6.553  -0.168  0.7557 -0.6384 -0.1680
   99MOL0     H13352   7.709   6.521  -0.171 -0.7421 -2.0764 -0.8915
   99MOL0     H13353   8.086   6.416  -0.038  1.7530 -1.3821  0.8633
   99MOL0     H13354   8.309   6.394  -0.097 -0.4909 -1.0554  1.1262
   99MOL0     H13355   8.562   6.773  -0.119  0.7422 -1.1176 -1.1027
   99MOL0     H13356   8.612   6.702   0.043 -1.3672  0.4042  0.6445
   99MOL0     H13357   8.798   6.734  -0.126  1.1528 -0.9396  1.3348
   99MOL0     H13358   8.721   6.604  -0.215  1.1334 -3.0902  0.4682
   99MOL0     H13359   8.773   6.442  -0.044  1.1061 -0.0730  0.4894
   99MOL0     H13360   8.794   6.568   0.082  1.7825 -0.0502  0.4117
   99MOL0     H13361   8.994   6.520  -0.146  0.1922 -0.6485 -0.5633
   99MOL0     H13362   9.007   6.465   0.022 -1.4349  0.4415  0.8569
   99MOL0     H13363   9.098   6.879   0.030  0.6141  0.9070 -1.3410
   99MOL0     H13364   8.373   6.803   0.007  1.0623 -0.6062 -2.7417
   99MOL0     H13365   8.144   6.828   0.062 -1.6829 -1.6222  3.2149
  100MOL0     O13366   6.732   4.479  10.954  0.6397 -0.2019  0.8009
  100MOL0     C13367   6.771   4.381  10.888 -0.7805  0.3027 -0.5214
  100MOL0     O13368   6.692   4.281  10.834  0.5957 -0.5945  0.0141
  100MOL0     C13369   6.559   4.271  10.858  0.3102  0.3432 -0.3664
  100MOL0     C13370   6.494   4.282  10.981  1.0941 -0.0935 -0.1655
  100MOL0     C13371   6.352   4.273  10.990  0.0097 -0.2159 -0.5080
  100MOL0     C13372   6.277   4.235  10.878  0.3554 -0.4995 -0.4232
  100MOL0     O13373   6.141   4.210  10.895  0.3638 -0.4979  0.4605
  100MOL0     C13374   6.079   4.101  10.825 -0.0429  0.1386  0.2557
  100MOL0     C13375   5.940   4.075  10.882  0.5855 -0.6350  0.7186
  100MOL0     C13376   5.958   4.060  11.039  0.7312 -0.2895  0.6199
  100MOL0     C13377   5.821   4.091  11.109  1.4901  0.6273  0.5781
  100MOL0     C13378   5.702   3.995  11.070 -0.7092 -0.1189 -0.3162
  100MOL0     C13379   5.564   4.035  11.116 -0.9809 -0.2376  0.2597
  100MOL0     C13380   5.459   3.925  11.083  0.1274 -0.0419 -0.2584
  100MOL0     C13381   5.326   3.957  11.148  0.2573  0.5627 -0.0162
  100MOL0     N13382   5.284   4.089  11.112  0.0456 -0.2543 -0.0321
  100MOL0     C13383   5.223   4.109  10.990 -0.0256  0.4958  0.5047
  100MOL0     C13384   5.220   4.244  10.978 -0.1352  0.9499  0.7475
  100MOL0     C13385   5.161   4.316  10.860 -0.9539 -0.2967  0.0027
  100MOL0     C13386   5.018   4.348  10.879 -0.4038  0.7712 -0.2059
  100MOL0     C13387   5.003   4.452  10.990 -0.6405  0.9966  0.0333
  100MOL0     C13388   4.854   4.486  10.987 -0.3735  0.0350  0.4791
  100MOL0     O13389   4.836   4.599  11.069 -0.5207 -0.5918  0.8256
  100MOL0     C13390   4.719   4.669  11.064 -0.1526  0.9500  0.0099
  100MOL0     C13391   4.603   4.627  10.996  0.8378 -0.0228  0.1093
  100MOL0     C13392   4.490   4.713  10.999  0.8392  0.1648  0.4095
  100MOL0     C13393   4.361   4.676  10.918 -0.1255  0.8519  0.3359
  100MOL0     C13394   4.497   4.836  11.073  0.7441  0.7696 -0.3304
  100MOL0     C13395   4.377   4.920  11.090 -0.2723 -1.3616 -0.2456
  100MOL0     O13396   4.264   4.861  11.133 -0.0694  0.2355 -0.6968
  100MOL0     C13397   4.144   4.925  11.149 -0.0155 -0.6787 -0.2647
  100MOL0     C13398   4.033   4.844  11.139  0.2426  0.1592  0.0727
  100MOL0     C13399   3.903   4.903  11.153  1.1938  0.1240 -0.1652
  100MOL0     C13400   3.882   5.034  11.192  0.4430 -0.3866  0.3745
  100MOL0     O13401   3.754   5.070  11.225 -0.0252  0.2770  0.6929
  100MOL0     C13402   3.716   5.195  11.163  0.0950 -0.2145 -0.7781
  100MOL0     C13403   3.654   5.280  11.275  0.7884  0.6782 -0.4963
  100MOL0     C13404   3.535   5.223  11.353  0.1994  0.1111 -0.5205
  100MOL0     C13405   3.409   5.231  11.269 -0.4087 -0.5846 -0.8105
  100MOL0     C13406   3.293   5.178  11.360  1.3814 -0.6185  0.0096
  100MOL0     C13407   3.164   5.184  11.275 -0.4544  1.2324 -0.8156
  100MOL0     C13408   3.030   5.167  11.355  0.8250 -0.0143  0.3057
  100MOL0     C13409   2.948   5.050  11.320  0.1507 -0.2244  1.1293
  100MOL0    Cl13410   3.031   4.889  11.307 -0.3543 -0.7169  0.0396
  100MOL0     C13411   3.997   5.119  11.199  0.0134 -0.7765 -0.0901
  100MOL0     C13412   4.121   5.067  11.176 -0.0354  0.2009  0.1166
  100MOL0     O13413   4.394   5.043  11.078 -0.4599  0.4516 -0.6116
  100MOL0     C13414   4.616   4.871  11.140 -0.2967 -0.2916 -0.8088
  100MOL0     C13415   4.719   4.787  11.140 -0.6794  0.0733 -0.0864
  100MOL0     N13416   5.267   4.307  11.093 -0.3299  0.1513 -0.0163
  100MOL0     N13417   5.298   4.209  11.176  0.1568 -0.7379 -0.0964
  100MOL0     C13418   6.343   4.212  10.759 -0.2985 -0.8553 -0.1362
  100MOL0     C13419   6.485   4.226  10.749 -0.3770 -0.1940 -0.3298
  100MOL0     C13420   6.914   4.382  10.857 -0.6792 -0.7631  0.3178
  100MOL0     C13421   6.961   4.295  10.752  0.4145 -0.0537 -0.2220
  100MOL0     C13422   7.094   4.302  10.717 -1.1917 -0.2503 -0.7026
  100MOL0     C13423   7.188   4.389  10.780 -0.0221  0.2022  1.2711
  100MOL0     O13424   7.323   4.378  10.746  0.3051 -0.3505 -0.3877
  100MOL0     C13425   7.428   4.410  10.851  0.1008  0.0439 -0.4068
  100MOL0     C13426   7.507   4.287  10.896 -0.1765 -0.3997 -0.0308
  100MOL0     C13427   7.429   4.159  10.926 -0.2430 -0.4213  1.3621
  100MOL0     C13428   7.416   4.068  10.800 -0.0001  0.8191 -0.5920
  100MOL0     C13429   7.287   4.003  10.801  0.6092 -0.1551 -0.6034
  100MOL0     C13430   7.167   3.974  10.801  0.6973 -0.6855  0.6260
  100MOL0     C13431   7.137   4.474  10.874  0.8648 -0.4300  0.4036
  100MOL0     C13432   7.004   4.464  10.923 -0.4685 -0.5482 -0.9305
  100MOL0     H13433   6.558   4.304  11.066  3.4428  0.2989 -1.9054
  100MOL0     H13434   6.310   4.278  11.090 -0.3415 -2.2190 -0.4972
  100MOL0     H13435   6.071   4.121  10.718  1.2714 -1.1866 -0.1291
  100MOL0     H13436   6.139   4.010  10.830  1.5983  1.0478 -1.3488
  100MOL0     H13437   5.880   4.163  10.856 -1.0052 -2.1483 -1.0189
  100MOL0     H13438   5.902   3.984  10.835 -0.5558 -0.6511  1.6388
  100MOL0     H13439   5.981   3.954  11.052 -1.8577 -1.4800 -2.9705
  100MOL0     H13440   6.038   4.119  11.086  2.0079 -0.2047 -1.5085
  100MOL0     H13441   5.833   4.091  11.218 -1.6438  2.2333  1.0477
  100MOL0     H13442   5.797   4.196  11.091  0.2034  0.5059  1.4753
  100MOL0     H13443   5.705   3.989  10.961 -0.2812  1.9896 -0.4546
  100MOL0     H13444   5.733   3.898  11.112  0.7841  0.6494  0.4572
  100MOL0     H13445   5.561   4.048  11.225 -2.5685 -0.9373  0.3179
  100MOL0     H13446   5.536   4.127  11.064  0.3916  2.1786  3.4536
  100MOL0     H13447   5.451   3.911  10.975  1.6777 -1.6970 -0.1957
  100MOL0     H13448   5.492   3.827  11.120  1.2581  0.8707  1.2814
  100MOL0     H13449   5.325   3.948  11.257  1.4720  1.1303  0.0657
  100MOL0     H13450   5.258   3.884  11.104  2.7982 -1.3269 -1.0893
  100MOL0     H13451   5.190   4.035  10.918  2.5819  0.3509 -0.6356
  100MOL0     H13452   5.216   4.403  10.825 -2.0969 -0.1368 -1.5227
  100MOL0     H13453   5.167   4.251  10.772  1.1183  0.7985 -0.7288
  100MOL0     H13454   4.964   4.258  10.909 -0.6197  1.2353  0.8207
  100MOL0     H13455   4.972   4.371  10.782 -0.5100 -0.3468 -0.4336
  100MOL0     H13456   5.057   4.544  10.965  1.9720 -0.0471  1.3985
  100MOL0     H13457   5.041   4.421  11.088 -1.5305  1.4515  0.5392
  100MOL0     H13458   4.797   4.404  11.032  0.7564 -0.5478  0.8830
  100MOL0     H13459   4.818   4.506  10.886 -3.0485  0.2112  1.3923
  100MOL0     H13460   4.603   4.533  10.941  0.2491 -0.8796  1.5270
  100MOL0     H13461   4.285   4.640  10.989 -1.6839  3.7157  0.2784
  100MOL0     H13462   4.327   4.761  10.859  0.5233 -0.3146 -1.8321
  100MOL0     H13463   4.389   4.591  10.854  1.0798  0.0095  1.9100
  100MOL0     H13464   4.026   4.737  11.119 -3.2478  0.6617 -2.3873
  100MOL0     H13465   3.812   4.846  11.138  2.6584 -2.2892 -0.2809
  100MOL0     H13466   3.790   5.262  11.117  0.1678  1.3847  1.4934
  100MOL0     H13467   3.635   5.180  11.092  0.5225 -3.1512 -0.7518
  100MOL0     H13468   3.740   5.300  11.340 -0.7643  0.4323  1.7591
  100MOL0     H13469   3.620   5.374  11.232  1.4804  0.9558 -0.4543
  100MOL0     H13470   3.519   5.274  11.449 -2.5868 -0.7468 -0.4265
  100MOL0     H13471   3.548   5.119  11.384 -1.8644 -0.5780 -1.7551
  100MOL0     H13472   3.392   5.332  11.232  1.0460 -0.2758 -0.7051
  100MOL0     H13473   3.427   5.162  11.186  1.1776 -1.4010  0.1646
  100MOL0     H13474   3.278   5.231  11.455  0.9426 -3.0085  1.3574
  100MOL0     H13475   3.298   5.075  11.396 -0.7808 -1.1102 -0.9175
  100MOL0     H13476   3.162   5.275  11.216  0.1477  2.9063  1.5906
  100MOL0     H13477   3.170   5.097  11.209 -2.4926 -1.1063  1.8153
  100MOL0     H13478   2.973   5.259  11.340 -0.8447 -1.3151 -1.7767
  100MOL0     H13479   3.055   5.158  11.461 -0.0458  2.1531  0.7554
  100MOL0     H13480   2.882   5.072  11.236 -1.8710  1.2069  2.9797
  100MOL0     H13481   2.872   5.044  11.398 -1.3262  3.2266  0.1416
  100MOL0     H13482   3.981   5.224  11.223  2.2658 -0.1905 -0.8358
  100MOL0     H13483   4.208   5.130  11.194 -0.4029  0.8659 -0.3918
  100MOL0     H13484   4.628   4.970  11.182  1.2004 -0.5839 -0.5141
  100MOL0     H13485   4.808   4.822  11.190 -0.3622 -2.0996  0.9980
  100MOL0     H13486   6.287   4.176  10.673  0.2643  0.4309 -1.0891
  100MOL0     H13487   6.536   4.215  10.654  2.9376  2.4275  0.9317
  100MOL0     H13488   6.905   4.228  10.687  1.7979  2.1801 -4.1187
  100MOL0     H13489   7.134   4.231  10.645  0.3488  0.5559 -0.6658
  100MOL0     H13490   7.490   4.495  10.821 -0.3479  0.8125  0.7741
  100MOL0     H13491   7.386   4.461  10.938  2.4726  1.0292  0.2540
  100MOL0     H13492   7.550   4.320  10.991 -0.4697  0.6570 -0.2507
  100MOL0     H13493   7.586   4.270  10.822 -0.4423  2.6002 -1.1692
  100MOL0     H13494   7.327   4.180  10.960  0.4098  3.4149  1.3809
  100MOL0     H13495   7.482   4.098  11.000  0.6381 -1.5530 -0.1399
  100MOL0     H13496   7.494   3.991  10.793 -0.2784  0.6421 -1.8624
  100MOL0     H13497   7.427   4.125  10.708 -0.3536  3.4258  0.8819
  100MOL0     H13498   7.064   3.942  10.796  0.6350 -0.2562 -2.5218
  100MOL0     H13499   7.204   4.547  10.919  2.1498  0.0766 -2.1688
  100MOL0     H13500   6.961   4.527  11.000  2.6549 -0.6879  1.0904
  101MOL0     O13501   2.927   1.029  11.049  0.2719  0.1375 -0.1170
  101MOL0     C13502   2.877   1.095  10.956 -0.5380  0.0748  0.0535
  101MOL0     O13503   2.771   1.183  10.961  0.0526 -0.0445 -0.0115
  101MOL0     C13504   2.744   1.228  11.086 -0.2180 -0.4852 -0.5797
  101MOL0     C13505   2.808   1.347  11.131 -0.1332  0.0973  0.3139
  101MOL0     C13506   2.786   1.391  11.262 -0.3461 -0.8213  0.5790
  101MOL0     C13507   2.695   1.327  11.352 -1.7537 -0.0777  0.2019
  101MOL0     O13508   2.679   1.369  11.480  0.0563  0.2935 -0.0038
  101MOL0     C13509   2.619   1.502  11.498 -0.7600  0.5139 -0.0814
  101MOL0     C13510   2.480   1.511  11.555 -0.3544  0.0749 -1.0353
  101MOL0     C13511   2.377   1.453  11.450  0.0636 -0.0688 -0.4510
  101MOL0     C13512   2.236   1.475  11.495  0.2372  0.0211 -1.0245
  101MOL0     C13513   2.129   1.409  11.407  0.1935 -0.4585  0.2180
  101MOL0     C13514   1.992   1.468  11.428 -0.2358 -0.3970 -0.2718
  101MOL0     C13515   1.896   1.395  11.322  0.6234  0.2940 -0.1725
  101MOL0     C13516   1.746   1.417  11.351  0.4044 -0.3595  0.1928
  101MOL0     N13517   1.703   1.556  11.324 -0.7159  0.2587 -0.0093
  101MOL0     C13518   1.743   1.626  11.214 -0.2522 -0.5244 -0.2770
  101MOL0     C13519   1.692   1.750  11.238 -0.8471  0.1574  1.1131
  101MOL0     C13520   1.719   1.872  11.143 -0.1739 -0.4819  1.0322
  101MOL0     C13521   1.703   2.002  11.208 -0.5327 -0.7308  0.5683
  101MOL0     C13522   1.774   2.112  11.120  1.1551 -0.5480 -0.2047
  101MOL0     C13523   1.737   2.252  11.172  0.0846 -0.3179 -0.2086
  101MOL0     O13524   1.806   2.279  11.294  0.2018  0.6552 -0.1180
  101MOL0     C13525   1.746   2.324  11.409  0.0956  0.9920 -0.2799
  101MOL0     C13526   1.808   2.314  11.534  0.2976  0.1622 -1.0016
  101MOL0     C13527   1.755   2.357  11.655  0.5736 -0.8291 -0.4332
  101MOL0     C13528   1.839   2.341  11.781  0.6617  0.5255 -0.7733
  101MOL0     C13529   1.626   2.422  11.644  1.0447 -0.3754 -0.1485
  101MOL0     C13530   1.556   2.455  11.770 -0.0779 -0.3954 -0.2558
  101MOL0     O13531   1.449   2.536  11.746  0.4990 -0.2151  1.1552
  101MOL0     C13532   1.350   2.565  11.835  0.1071 -0.9028 -0.7117
  101MOL0     C13533   1.365   2.577  11.972 -0.2538  0.4529  0.8276
  101MOL0     C13534   1.247   2.603  12.046  0.9656 -0.1291 -1.0002
  101MOL0     C13535   1.120   2.624  11.984 -0.1560 -0.5053  0.0998
  101MOL0     O13536   1.002   2.659  12.056 -0.4713  0.2611  0.0443
  101MOL0     C13537   1.011   2.751  12.167  0.0138  0.3310  0.4430
  101MOL0     C13538   1.025   2.673  12.297 -0.1858  0.6031 -0.4424
  101MOL0     C13539   0.875   2.653  12.343 -0.2067 -0.4797 -0.1156
  101MOL0     C13540   0.867   2.547  12.462 -0.0574 -0.5990 -0.0420
  101MOL0     C13541   0.718   2.496  12.468  0.0938 -0.1817 -0.0016
  101MOL0     C13542   0.619   2.596  12.528 -0.2790 -0.2196  0.1569
  101MOL0     C13543   0.471   2.556  12.526  0.8593  0.4526 -0.2571
  101MOL0     C13544   0.421   2.553  12.386 -0.1602  0.4846  0.2582
  101MOL0    Cl13545   0.244   2.584  12.396 -0.2362 -0.3116  0.3038
  101MOL0     C13546   1.106   2.604  11.850  0.0609 -0.0453 -0.2571
  101MOL0     C13547   1.225   2.577  11.779 -0.1396  0.0225  0.0249
  101MOL0     O13548   1.586   2.399  11.875 -0.1367 -0.3835 -0.8044
  101MOL0     C13549   1.567   2.434  11.521  0.0205 -0.4127  1.4585
  101MOL0     C13550   1.623   2.385  11.406  0.9765  0.7351 -0.3853
  101MOL0     N13551   1.619   1.750  11.356 -0.0441 -0.1673 -0.3059
  101MOL0     N13552   1.623   1.634  11.403  0.2237  0.2763 -0.1565
  101MOL0     C13553   2.637   1.216  11.307 -0.2485  0.7750 -0.9090
  101MOL0     C13554   2.653   1.169  11.172  0.6759  0.3076 -0.0304
  101MOL0     C13555   2.924   1.062  10.820  0.0036 -0.2296  1.4747
  101MOL0     C13556   2.841   1.093  10.705  0.1895  0.3491 -0.5219
  101MOL0     C13557   2.877   1.051  10.582 -0.1747 -0.8090 -0.8742
  101MOL0     C13558   2.997   0.982  10.556  0.5532 -0.3635  0.4839
  101MOL0     O13559   3.034   0.948  10.425  0.7206  0.4106 -0.0170
  101MOL0     C13560   3.162   0.898  10.388  0.1081  0.0133 -0.9386
  101MOL0     C13561   3.152   0.814  10.269  0.2402  0.0035  0.2299
  101MOL0     C13562   3.078   0.876  10.150  1.0234  0.0516 -0.0057
  101MOL0     C13563   3.135   1.005  10.092 -0.0732  0.8251 -0.3942
  101MOL0     C13564   3.272   0.977  10.064  0.0772 -0.4911 -0.1318
  101MOL0     C13565   3.387   0.965  10.040  0.2958 -1.0689 -0.3740
  101MOL0     C13566   3.076   0.944  10.668  0.6409 -0.9706  0.2139
  101MOL0     C13567   3.037   0.987  10.800 -0.6498 -0.1839 -0.8465
  101MOL0     H13568   2.872   1.408  11.069 -0.8311 -0.4272 -0.9611
  101MOL0     H13569   2.832   1.478  11.307 -2.4561  0.3181  0.6511
  101MOL0     H13570   2.684   1.547  11.574 -0.2992 -1.4135  0.7149
  101MOL0     H13571   2.629   1.561  11.406 -2.6194  0.1509 -0.5627
  101MOL0     H13572   2.471   1.454  11.648  1.2529 -1.2091 -1.6131
  101MOL0     H13573   2.458   1.616  11.578 -0.3364 -0.1512  0.0964
  101MOL0     H13574   2.384   1.491  11.348 -0.5977 -0.8016 -0.7824
  101MOL0     H13575   2.379   1.344  11.446 -0.7672 -0.1361  0.4751
  101MOL0     H13576   2.224   1.446  11.599 -1.1567  2.1239 -0.5200
  101MOL0     H13577   2.227   1.584  11.498  1.2214  0.1100  2.0340
  101MOL0     H13578   2.152   1.435  11.303  2.3517  1.8601  1.1615
  101MOL0     H13579   2.125   1.301  11.421 -1.1962 -0.5443 -0.6273
  101MOL0     H13580   1.968   1.425  11.526  1.0495 -1.7604 -0.5248
  101MOL0     H13581   1.979   1.577  11.430 -1.8629 -0.4097  5.2980
  101MOL0     H13582   1.924   1.416  11.219  2.2441  1.9943  0.5517
  101MOL0     H13583   1.901   1.287  11.340  1.1399  0.5852  1.6309
  101MOL0     H13584   1.717   1.393  11.454 -0.4291  0.9556  0.2882
  101MOL0     H13585   1.687   1.364  11.276  0.9260  2.3041 -2.2630
  101MOL0     H13586   1.789   1.594  11.122 -0.2193 -0.2177 -0.3659
  101MOL0     H13587   1.816   1.865  11.093 -1.1133  2.7457 -1.6306
  101MOL0     H13588   1.649   1.879  11.059 -0.5340 -0.3997  1.3381
  101MOL0     H13589   1.750   1.996  11.307  0.6640 -1.7793 -0.0345
  101MOL0     H13590   1.600   2.029  11.234 -0.2908 -0.7821  1.6573
  101MOL0     H13591   1.743   2.107  11.016  2.9186  0.2820 -0.8136
  101MOL0     H13592   1.883   2.098  11.125  0.9031 -2.7964  4.2424
  101MOL0     H13593   1.629   2.262  11.181 -0.1785  0.4505 -3.1402
  101MOL0     H13594   1.766   2.318  11.090 -1.9159 -1.7006 -2.1304
  101MOL0     H13595   1.902   2.263  11.546  0.6018  0.8911 -0.1882
  101MOL0     H13596   1.867   2.430  11.838  3.2989  0.1496 -1.3720
  101MOL0     H13597   1.790   2.268  11.846 -3.1814  3.3447 -0.1182
  101MOL0     H13598   1.940   2.306  11.757  2.0551  1.1094  3.3674
  101MOL0     H13599   1.462   2.567  12.020  1.2958  1.4616 -1.8848
  101MOL0     H13600   1.262   2.621  12.151 -1.0958  0.8837 -0.8206
  101MOL0     H13601   1.101   2.811  12.145  0.3695 -0.5363 -0.5515
  101MOL0     H13602   0.923   2.815  12.174  1.7901  2.8200  1.7230
  101MOL0     H13603   1.079   2.580  12.278  2.2934  1.6896  0.8406
  101MOL0     H13604   1.080   2.723  12.377 -0.8144 -0.4453  0.6819
  101MOL0     H13605   0.815   2.616  12.259 -1.3863  2.7285 -0.8419
  101MOL0     H13606   0.836   2.754  12.358 -0.3955 -0.7409  1.2566
  101MOL0     H13607   0.924   2.460  12.429 -3.0247 -1.1876 -4.4644
  101MOL0     H13608   0.886   2.585  12.563 -3.3993  3.3723 -0.6339
  101MOL0     H13609   0.721   2.415  12.542  0.5203  0.6342  0.9039
  101MOL0     H13610   0.676   2.464  12.373 -1.8664  1.6466  0.1597
  101MOL0     H13611   0.646   2.609  12.633 -0.5434 -2.2817  0.5233
  101MOL0     H13612   0.627   2.694  12.480  0.5857  0.3844  1.4582
  101MOL0     H13613   0.426   2.643  12.574 -3.8909 -2.4590  1.2960
  101MOL0     H13614   0.450   2.466  12.584  1.1243  2.2398  2.8250
  101MOL0     H13615   0.448   2.464  12.328  0.8658  0.9457  0.0053
  101MOL0     H13616   0.455   2.638  12.325  0.0521  0.1215 -0.1394
  101MOL0     H13617   1.015   2.609  11.791  1.2320  3.0935 -2.0363
  101MOL0     H13618   1.221   2.561  11.672  0.4347  0.5847 -0.0921
  101MOL0     H13619   1.467   2.474  11.510  0.0547 -0.7754 -0.4947
  101MOL0     H13620   1.561   2.403  11.319  0.9097 -1.0495 -0.7486
  101MOL0     H13621   2.569   1.159  11.371  1.6262 -3.0280 -1.9744
  101MOL0     H13622   2.597   1.085  11.135  0.4470  0.1644  0.6214
  101MOL0     H13623   2.745   1.144  10.704 -0.6642 -1.1789 -1.0869
  101MOL0     H13624   2.829   1.078  10.488 -1.7237  0.9036  0.3300
  101MOL0     H13625   3.218   0.990  10.371 -1.1863  0.7343 -1.3753
  101MOL0     H13626   3.217   0.837  10.461  0.9150  2.2813  0.4546
  101MOL0     H13627   3.094   0.723  10.286 -0.4140  0.2715 -0.5079
  101MOL0     H13628   3.248   0.779  10.230 -0.6960  0.2115 -2.4694
  101MOL0     H13629   2.973   0.901  10.168  0.7569 -1.8535  1.3186
  101MOL0     H13630   3.085   0.810  10.063 -0.7039 -1.1772  0.7484
  101MOL0     H13631   3.124   1.085  10.166 -2.5028  0.3966 -0.2064
  101MOL0     H13632   3.078   1.034  10.003 -2.5780 -0.4708  0.6669
  101MOL0     H13633   3.488   0.936  10.018  1.6589  0.1896  3.4723
  101MOL0     H13634   3.169   0.890  10.658  1.8413  0.6759  1.8151
  101MOL0     H13635   3.096   0.958  10.886 -0.8116 -1.6883 -1.2120
  102MOL0     O13636   4.042   9.720   4.766  0.0230  0.0424 -0.1103
  102MOL0     C13637   4.092   9.687   4.663 -0.0462  1.0034 -0.5519
  102MOL0     O13638   4.044   9.587   4.583  0.3758 -0.3841  0.2689
  102MOL0     C13639   3.909   9.557   4.570 -0.3702 -0.1795  0.1345
  102MOL0     C13640   3.802   9.603   4.652 -0.1724 -0.9350  0.0651
  102MOL0     C13641   3.675   9.548   4.634  0.7725  0.5613 -0.0372
  102MOL0     C13642   3.661   9.433   4.543  0.3679 -0.0838 -0.4963
  102MOL0     O13643   3.550   9.361   4.513 -0.4418  1.0860  0.3370
  102MOL0     C13644   3.430   9.385   4.592  0.3473  0.0111 -0.1004
  102MOL0     C13645   3.315   9.323   4.507  0.5488  0.2075 -0.2465
  102MOL0     C13646   3.319   9.165   4.508  0.0688 -0.2389 -0.3011
  102MOL0     C13647   3.205   9.095   4.449 -0.1584 -0.7179  0.4066
  102MOL0     C13648   3.134   9.016   4.556  0.3261  0.6667  0.1345
  102MOL0     C13649   2.988   8.980   4.523 -0.9234  0.2027  0.5480
  102MOL0     C13650   2.973   8.934   4.378  0.4223 -0.2111  0.6879
  102MOL0     C13651   2.837   8.855   4.369  0.0650  0.1447  0.6398
  102MOL0     N13652   2.722   8.943   4.394 -0.0628  0.3031  0.1791
  102MOL0     C13653   2.667   9.031   4.308  0.2389 -0.0449  0.3027
  102MOL0     C13654   2.568   9.095   4.378 -0.2120 -0.2472  0.7542
  102MOL0     C13655   2.483   9.215   4.342  0.2292  0.1117  1.3194
  102MOL0     C13656   2.349   9.174   4.279  0.4696 -0.6677 -0.1126
  102MOL0     C13657   2.245   9.142   4.386  0.5529  0.1252 -0.1326
  102MOL0     C13658   2.226   8.992   4.402  0.8922  0.5126  0.5533
  102MOL0     O13659   2.182   8.919   4.292 -0.8790  0.1342  0.2360
  102MOL0     C13660   2.050   8.888   4.273 -0.7350  0.4557  0.0282
  102MOL0     C13661   2.030   8.814   4.159  0.2450 -1.1796 -0.4004
  102MOL0     C13662   1.900   8.779   4.116  0.4519  0.2482  1.0786
  102MOL0     C13663   1.884   8.731   3.971 -0.0233  0.4819 -0.2162
  102MOL0     C13664   1.791   8.803   4.206 -0.0636 -0.3413  0.6139
  102MOL0     C13665   1.650   8.762   4.176  0.3719 -0.0663 -0.3304
  102MOL0     O13666   1.569   8.774   4.280 -0.3171  0.9959  0.0741
  102MOL0     C13667   1.452   8.708   4.296  0.8508  0.6677  0.2543
  102MOL0     C13668   1.433   8.569   4.266  0.1003  0.3253 -0.4251
  102MOL0     C13669   1.308   8.504   4.291 -0.3649  0.6207 -0.4087
  102MOL0     C13670   1.198   8.568   4.345  0.2445 -0.1145 -0.0354
  102MOL0     O13671   1.078   8.513   4.396  0.5927  0.5932 -0.3243
  102MOL0     C13672   1.024   8.400   4.329 -0.2593  0.9147  0.3099
  102MOL0     C13673   0.880   8.381   4.358  0.4161 -0.9229  0.5146
  102MOL0     C13674   0.836   8.237   4.321  0.2786  0.3891 -0.3497
  102MOL0     C13675   0.684   8.225   4.323 -0.8832  0.1911 -0.6188
  102MOL0     C13676   0.627   8.279   4.187 -0.1581  0.5922  0.4162
  102MOL0     C13677   0.484   8.229   4.184 -0.4951  0.4527 -0.3510
  102MOL0     C13678   0.413   8.280   4.056  0.0552 -0.8207 -0.1729
  102MOL0     C13679   0.268   8.232   4.046 -0.5812  0.5247  0.6385
  102MOL0    Cl13680   0.185   8.313   3.916  0.4846  0.2565  0.1365
  102MOL0     C13681   1.224   8.701   4.384  1.0564  0.3171 -0.6230
  102MOL0     C13682   1.344   8.775   4.351  0.7557  0.3537  0.1469
  102MOL0     O13683   1.616   8.730   4.065  0.7835 -0.0528  0.4513
  102MOL0     C13684   1.817   8.875   4.321  0.0453 -0.5071 -0.0443
  102MOL0     C13685   1.938   8.926   4.360 -0.4892  0.6370  1.0634
  102MOL0     N13686   2.559   9.032   4.514  0.5867 -0.0904 -0.0688
  102MOL0     N13687   2.649   8.937   4.509 -0.3590 -0.6725  0.1352
  102MOL0     C13688   3.765   9.400   4.456 -0.3810  0.5532 -0.0214
  102MOL0     C13689   3.892   9.456   4.476  0.4454 -0.0299  0.1658
  102MOL0     C13690   4.210   9.759   4.620 -0.3313  0.3668  0.0993
  102MOL0     C13691   4.290   9.828   4.707  0.2874  0.5373  0.1287
  102MOL0     C13692   4.393   9.906   4.653  0.1435 -0.4072 -0.2778
  102MOL0     C13693   4.432   9.903   4.516 -0.2068 -0.5324 -0.1449
  102MOL0     O13694   4.541   9.981   4.486 -0.1508  0.2746  0.3578
  102MOL0     C13695   4.605   9.958   4.365 -0.4569 -0.5157  0.1677
  102MOL0     C13696   4.704   9.839   4.369 -0.8781  0.1594 -1.4565
  102MOL0     C13697   4.815   9.864   4.471 -0.5868 -0.3178  0.8960
  102MOL0     C13698   4.886   9.739   4.511  0.0768  0.1526 -0.1580
  102MOL0     C13699   5.028   9.772   4.532  0.6015 -0.3703  0.4277
  102MOL0     C13700   5.143   9.798   4.552 -0.3562 -0.0257 -0.4865
  102MOL0     C13701   4.357   9.821   4.428 -0.2219 -0.5270 -1.1057
  102MOL0     C13702   4.247   9.751   4.484  0.0723 -0.1762  0.1123
  102MOL0     H13703   3.810   9.681   4.726  1.1194 -0.1984 -0.8074
  102MOL0     H13704   3.588   9.581   4.690 -1.1062 -1.0283 -1.8422
  102MOL0     H13705   3.445   9.349   4.694  0.6236 -2.0754 -0.8426
  102MOL0     H13706   3.402   9.491   4.601  2.0790  0.3607  2.0242
  102MOL0     H13707   3.218   9.349   4.550  0.8632  2.2813 -0.6697
  102MOL0     H13708   3.311   9.365   4.406 -4.1106  2.6714  0.6872
  102MOL0     H13709   3.410   9.136   4.454  1.2010  0.2284  1.2857
  102MOL0     H13710   3.339   9.128   4.609 -1.0094  0.2016  0.0879
  102MOL0     H13711   3.128   9.167   4.419  0.6864  1.6205  3.2801
  102MOL0     H13712   3.238   9.038   4.362 -1.1480 -0.6894 -0.0010
  102MOL0     H13713   3.190   8.925   4.579  2.3635  1.3836 -1.6883
  102MOL0     H13714   3.140   9.080   4.645  0.2170 -0.3740  0.9078
  102MOL0     H13715   2.975   8.893   4.589  2.5136  1.9157  3.9294
  102MOL0     H13716   2.923   9.065   4.544 -0.8610 -0.2345  2.8392
  102MOL0     H13717   2.975   9.004   4.294 -4.6519  0.5904  0.9310
  102MOL0     H13718   3.049   8.861   4.351  1.1886  0.5237  0.7966
  102MOL0     H13719   2.838   8.776   4.444  0.2460 -1.6977 -1.2301
  102MOL0     H13720   2.831   8.806   4.272 -0.7340  0.3850  0.5588
  102MOL0     H13721   2.705   9.055   4.209 -1.1688 -1.8166 -0.7406
  102MOL0     H13722   2.473   9.286   4.424  0.8422  0.4175  1.1324
  102MOL0     H13723   2.538   9.259   4.258  1.1176 -1.7423  0.8731
  102MOL0     H13724   2.356   9.085   4.215 -2.4613 -1.7852  0.9447
  102MOL0     H13725   2.305   9.256   4.222 -0.4980 -2.4603 -2.0920
  102MOL0     H13726   2.150   9.192   4.366  0.0007 -1.4337 -1.6628
  102MOL0     H13727   2.272   9.194   4.479 -2.2281  2.9119 -0.7153
  102MOL0     H13728   2.159   8.976   4.487  1.2034 -2.7129  0.3157
  102MOL0     H13729   2.319   8.939   4.425  1.7148  0.0416 -3.2394
  102MOL0     H13730   2.114   8.788   4.095  1.3806 -1.5179  1.1877
  102MOL0     H13731   1.829   8.800   3.907  0.6622 -0.5176 -1.9590
  102MOL0     H13732   1.975   8.721   3.910 -1.9397  0.3022 -3.2387
  102MOL0     H13733   1.826   8.638   3.971 -0.8586  0.9938  0.0150
  102MOL0     H13734   1.517   8.512   4.227  3.0894  3.4465  0.9279
  102MOL0     H13735   1.297   8.399   4.269  0.2269  1.1595 -3.8525
  102MOL0     H13736   1.033   8.396   4.220  1.7287 -0.0605  0.4722
  102MOL0     H13737   1.077   8.311   4.363  2.4160  1.6136 -1.7573
  102MOL0     H13738   0.855   8.381   4.465  0.3337 -2.3565  0.5114
  102MOL0     H13739   0.827   8.459   4.302 -1.2238 -0.4839  2.5344
  102MOL0     H13740   0.876   8.166   4.392 -3.0986 -1.2017  0.1671
  102MOL0     H13741   0.869   8.218   4.218 -0.3754 -0.7350 -0.3697
  102MOL0     H13742   0.659   8.121   4.344 -2.3791  0.9539  1.7235
  102MOL0     H13743   0.634   8.288   4.397 -0.1139  0.9733 -0.7459
  102MOL0     H13744   0.680   8.243   4.099 -1.5535 -1.6220  0.3919
  102MOL0     H13745   0.632   8.388   4.190  0.7614  0.5421  2.3691
  102MOL0     H13746   0.495   8.120   4.179 -1.7478  0.1821  1.7193
  102MOL0     H13747   0.422   8.249   4.272  1.6681  3.1160  0.7147
  102MOL0     H13748   0.468   8.246   3.968 -1.8050  0.1115 -1.7513
  102MOL0     H13749   0.417   8.389   4.055 -0.0766 -0.8182 -1.4392
  102MOL0     H13750   0.217   8.258   4.139 -0.0775 -0.5184  1.2242
  102MOL0     H13751   0.283   8.125   4.030 -0.5890  0.4699  0.9949
  102MOL0     H13752   1.146   8.746   4.444 -1.0744  1.3491 -3.8866
  102MOL0     H13753   1.359   8.882   4.367 -1.2309  0.9103 -1.2731
  102MOL0     H13754   1.736   8.890   4.392 -1.4561 -1.7751 -1.4258
  102MOL0     H13755   1.949   8.988   4.449 -3.5968  1.3229  1.0913
  102MOL0     H13756   3.742   9.313   4.396 -3.5425  1.3764 -0.1876
  102MOL0     H13757   3.973   9.416   4.416  1.3890  2.6002 -0.4149
  102MOL0     H13758   4.285   9.823   4.815  1.9919 -1.6240  0.1872
  102MOL0     H13759   4.458   9.953   4.725 -0.8442 -2.9415  2.4956
  102MOL0     H13760   4.531   9.948   4.285 -1.9947  0.9598  1.3203
  102MOL0     H13761   4.657  10.053   4.347 -3.2182  1.2669  0.9008
  102MOL0     H13762   4.746   9.822   4.269  0.0236  3.0122 -1.6704
  102MOL0     H13763   4.647   9.754   4.406 -0.6460  0.1020 -1.2248
  102MOL0     H13764   4.779   9.919   4.557  0.1164  0.8455  0.4665
  102MOL0     H13765   4.883   9.926   4.412 -1.1448 -0.8231 -0.3201
  102MOL0     H13766   4.878   9.662   4.434 -2.0139  2.1038 -2.0481
  102MOL0     H13767   4.834   9.711   4.603 -3.3906  0.2344 -1.9321
  102MOL0     H13768   5.238   9.844   4.566 -1.0725  0.9340  1.6560
  102MOL0     H13769   4.378   9.814   4.322 -0.1017 -1.7692 -1.0251
  102MOL0     H13770   4.189   9.696   4.410  1.8578 -1.0334 -0.7096
  103MOL0     O13771   3.185   6.479  10.449  0.5576  0.2682  0.0251
  103MOL0     C13772   3.124   6.417  10.367  0.5589  0.0705  1.3735
  103MOL0     O13773   3.001   6.452  10.312 -0.1790 -0.7927  0.5074
  103MOL0     C13774   2.934   6.565  10.369 -0.7837 -0.1608  0.1924
  103MOL0     C13775   2.925   6.680  10.294  0.0764  0.6591  1.1430
  103MOL0     C13776   2.828   6.780  10.334  0.9425  0.1527  0.8070
  103MOL0     C13777   2.751   6.766  10.456 -0.4202 -0.5497 -0.2362
  103MOL0     O13778   2.673   6.867  10.501 -0.9580 -0.1047 -0.0126
  103MOL0     C13779   2.578   6.847  10.610 -0.4637  0.5327  0.2108
  103MOL0     C13780   2.526   6.987  10.650  0.8813 -1.0106 -0.6369
  103MOL0     C13781   2.421   7.036  10.554 -0.2243  0.0006  0.8792
  103MOL0     C13782   2.308   6.934  10.534  0.0190 -0.2330  0.0984
  103MOL0     C13783   2.172   7.002  10.490  0.5999  0.7687 -0.8264
  103MOL0     C13784   2.124   7.090  10.608  0.4956  0.3140 -0.0817
  103MOL0     C13785   1.994   7.178  10.571 -0.2108  0.0061  1.2543
  103MOL0     C13786   1.940   7.263  10.688  0.4273 -0.6290 -0.6968
  103MOL0     N13787   1.829   7.346  10.655  0.2421  0.2840  0.0569
  103MOL0     C13788   1.701   7.315  10.695  0.5027 -0.4989 -0.3553
  103MOL0     C13789   1.623   7.419  10.650 -0.3427 -1.1279  0.3868
  103MOL0     C13790   1.480   7.442  10.680 -0.9020 -1.1089 -0.3487
  103MOL0     C13791   1.380   7.390  10.581 -0.4519  0.0193  0.6319
  103MOL0     C13792   1.392   7.469  10.452 -0.1559 -0.3446  0.2691
  103MOL0     C13793   1.264   7.461  10.373 -0.6127 -0.4760 -0.6736
  103MOL0     O13794   1.210   7.334  10.352 -1.1003  0.1493 -0.4388
  103MOL0     C13795   1.268   7.270  10.244  0.1245  0.0610 -0.1567
  103MOL0     C13796   1.201   7.269  10.121  0.0100  0.8508  0.0890
  103MOL0     C13797   1.246   7.197  10.007  0.4333  0.8307 -0.6727
  103MOL0     C13798   1.172   7.206   9.875 -0.3157  0.0236 -0.3767
  103MOL0     C13799   1.371   7.122  10.010  0.1405 -0.5063  0.0945
  103MOL0     C13800   1.414   7.027   9.905  0.7915  0.2630 -0.5229
  103MOL0     O13801   1.489   6.924   9.948 -0.4719  0.5027  0.0541
  103MOL0     C13802   1.583   6.876   9.863  0.6784  0.2707  0.9692
  103MOL0     C13803   1.560   6.747   9.815  0.1538  0.0488 -0.6948
  103MOL0     C13804   1.661   6.686   9.742  0.5462  0.3925  0.1232
  103MOL0     C13805   1.775   6.759   9.693  0.1501 -0.3016 -0.1854
  103MOL0     O13806   1.881   6.711   9.617 -0.3839  0.1241  0.3129
  103MOL0     C13807   1.866   6.581   9.571 -0.2209 -0.3369  0.4403
  103MOL0     C13808   1.968   6.545   9.466 -0.0126 -0.8695  0.2329
  103MOL0     C13809   1.963   6.621   9.332 -0.8127  0.2203  0.0526
  103MOL0     C13810   1.833   6.608   9.262  1.0433 -0.6654  0.1410
  103MOL0     C13811   1.801   6.463   9.206  0.3916  0.0713 -0.4927
  103MOL0     C13812   1.688   6.456   9.101 -0.3921 -0.2607  0.7008
  103MOL0     C13813   1.552   6.486   9.163 -0.0867  0.4052  0.0521
  103MOL0     C13814   1.432   6.433   9.081  0.2009 -0.6522  1.0082
  103MOL0    Cl13815   1.295   6.391   9.177  0.3850 -0.0643 -0.3486
  103MOL0     C13816   1.785   6.895   9.731 -0.6404 -0.3001 -0.3733
  103MOL0     C13817   1.691   6.951   9.819 -0.1382  0.1862 -0.0336
  103MOL0     O13818   1.408   7.067   9.796  0.5173 -0.1022  0.6494
  103MOL0     C13819   1.431   7.120  10.137  0.0369 -1.0318 -0.5740
  103MOL0     C13820   1.387   7.188  10.256  0.1088 -0.3258  0.0503
  103MOL0     N13821   1.704   7.511  10.581 -0.4586  0.3867 -0.9747
  103MOL0     N13822   1.830   7.464  10.586 -0.1073 -0.4586 -0.1844
  103MOL0     C13823   2.769   6.648  10.527 -0.0954  0.1734  0.2585
  103MOL0     C13824   2.863   6.552  10.488  0.0956 -0.0090  0.6775
  103MOL0     C13825   3.190   6.303  10.308 -0.0305  0.5086 -0.2546
  103MOL0     C13826   3.310   6.257  10.369 -0.4627  0.0952  0.0521
  103MOL0     C13827   3.383   6.154  10.314  0.2167 -0.2155 -1.3801
  103MOL0     C13828   3.340   6.087  10.200 -0.1923  0.0068 -0.0334
  103MOL0     O13829   3.398   5.977  10.137 -0.0633 -0.3570  0.5761
  103MOL0     C13830   3.540   5.945  10.149  1.0159 -0.4436  0.7717
  103MOL0     C13831   3.627   6.028  10.055  0.4244  0.9954  0.5071
  103MOL0     C13832   3.758   5.949  10.038 -0.8249  0.2536 -0.1645
  103MOL0     C13833   3.837   6.002   9.916 -0.4016  0.3327 -0.1979
  103MOL0     C13834   3.970   5.939   9.898  0.5066  0.2501  0.5249
  103MOL0     C13835   4.080   5.895   9.874  0.3200  0.9011 -0.0598
  103MOL0     C13836   3.228   6.134  10.141  0.5765 -0.3374  1.0761
  103MOL0     C13837   3.158   6.251  10.186  0.5370 -0.6406 -0.1456
  103MOL0     H13838   2.979   6.691  10.201  0.5722  0.5168  1.4099
  103MOL0     H13839   2.818   6.869  10.272 -0.5235 -0.1675  0.5646
  103MOL0     H13840   2.499   6.785  10.566  0.7138 -0.8958  0.0270
  103MOL0     H13841   2.611   6.803  10.704 -1.6703  0.7170  0.7236
  103MOL0     H13842   2.470   6.985  10.744 -1.1265  1.9558 -1.6254
  103MOL0     H13843   2.595   7.072  10.659 -0.8849  0.4015  0.3164
  103MOL0     H13844   2.373   7.131  10.581 -1.4315  0.1228 -1.4698
  103MOL0     H13845   2.475   7.059  10.462  0.9939 -0.8630  1.3552
  103MOL0     H13846   2.341   6.861  10.459  0.7556  0.6931 -0.5111
  103MOL0     H13847   2.302   6.884  10.631  3.0634  2.9344  2.1266
  103MOL0     H13848   2.178   7.046  10.390 -1.8862 -0.1579 -1.4793
  103MOL0     H13849   2.100   6.920  10.482 -0.4185  1.2646  2.0501
  103MOL0     H13850   2.103   7.024  10.693  1.4316 -1.4088 -1.1297
  103MOL0     H13851   2.198   7.163  10.643  1.0473 -0.4331  0.3302
  103MOL0     H13852   2.023   7.240  10.486  0.9874 -3.1060 -0.7739
  103MOL0     H13853   1.913   7.110  10.545  0.7032 -0.9558  0.8732
  103MOL0     H13854   2.023   7.325  10.722 -0.6723  0.2521  0.4518
  103MOL0     H13855   1.905   7.192  10.764  1.2446 -1.2920 -0.9128
  103MOL0     H13856   1.670   7.233  10.760 -0.2042  0.9879  1.2468
  103MOL0     H13857   1.463   7.399  10.779  2.8349 -1.5479  0.2180
  103MOL0     H13858   1.457   7.548  10.691 -0.2339 -0.9887 -0.1138
  103MOL0     H13859   1.284   7.399  10.632 -0.1040 -2.7047  1.9465
  103MOL0     H13860   1.385   7.283  10.560  0.3463  0.3328 -0.9028
  103MOL0     H13861   1.477   7.424  10.398  1.5345  1.0191  1.6861
  103MOL0     H13862   1.424   7.572  10.470  0.5292  0.1020 -2.8615
  103MOL0     H13863   1.281   7.506  10.275  0.6697 -3.3506 -1.8958
  103MOL0     H13864   1.199   7.525  10.433 -0.7825 -1.4681  0.2384
  103MOL0     H13865   1.129   7.346  10.095  1.2389  2.7658  2.0417
  103MOL0     H13866   1.144   7.108   9.835 -0.0824 -0.4942  0.6921
  103MOL0     H13867   1.080   7.263   9.888 -1.1292 -1.2303 -0.4563
  103MOL0     H13868   1.237   7.237   9.792  0.0911  1.6776  0.5150
  103MOL0     H13869   1.469   6.701   9.851 -0.2804  0.7303 -0.9117
  103MOL0     H13870   1.651   6.581   9.719  0.8749  0.3430  0.2060
  103MOL0     H13871   1.876   6.510   9.653  0.6690 -0.4056  0.2831
  103MOL0     H13872   1.771   6.556   9.524  1.3447  1.0220 -3.9781
  103MOL0     H13873   2.067   6.573   9.504  2.1534 -0.8526 -4.6215
  103MOL0     H13874   1.969   6.436   9.461 -0.8467 -0.8202 -2.5111
  103MOL0     H13875   2.052   6.596   9.274 -0.1408  2.5230 -0.0111
  103MOL0     H13876   1.985   6.727   9.349  0.3079  0.0502 -0.2566
  103MOL0     H13877   1.755   6.642   9.331 -0.1270  1.3055 -1.9874
  103MOL0     H13878   1.833   6.658   9.165 -1.7218 -3.8866 -1.7382
  103MOL0     H13879   1.777   6.388   9.281 -2.5056  0.6136 -0.7542
  103MOL0     H13880   1.893   6.426   9.160 -0.5838 -0.3120 -2.2152
  103MOL0     H13881   1.702   6.528   9.019  0.7123 -2.8055 -1.5253
  103MOL0     H13882   1.692   6.356   9.057  1.4882 -0.0954  0.3981
  103MOL0     H13883   1.545   6.595   9.177  0.8817  0.3962  0.7583
  103MOL0     H13884   1.544   6.439   9.262 -1.6204 -4.6389 -2.1597
  103MOL0     H13885   1.468   6.344   9.028  0.7527  1.3033 -2.1221
  103MOL0     H13886   1.401   6.505   9.005 -3.0474  0.3533  3.0943
  103MOL0     H13887   1.876   6.945   9.698 -1.6255 -0.1099 -3.0360
  103MOL0     H13888   1.706   7.051   9.858 -1.9310 -0.9571  4.2056
  103MOL0     H13889   1.513   7.051  10.156 -0.0528 -0.8861  0.4292
  103MOL0     H13890   1.425   7.180  10.357 -0.7704  1.8083  0.6165
  103MOL0     H13891   2.711   6.630  10.617 -0.0819 -0.1801  0.1977
  103MOL0     H13892   2.863   6.461  10.547 -3.5387 -2.0243 -1.9585
  103MOL0     H13893   3.356   6.313  10.449 -0.7438  1.8583 -0.9618
  103MOL0     H13894   3.476   6.118  10.358 -1.5786 -2.0279  1.2553
  103MOL0     H13895   3.581   5.946  10.251 -0.2352 -0.9464  1.3017
  103MOL0     H13896   3.542   5.843  10.108  1.6384  0.5774 -1.9373
  103MOL0     H13897   3.647   6.123  10.104 -0.0889  0.4933  1.7172
  103MOL0     H13898   3.578   6.043   9.958 -1.4846 -0.3265  1.2077
  103MOL0     H13899   3.748   5.841  10.029 -2.3146  0.2817  0.7466
  103MOL0     H13900   3.815   5.968  10.129 -2.3359 -2.1607  1.4065
  103MOL0     H13901   3.854   6.110   9.919  1.9353 -0.0004  0.8345
  103MOL0     H13902   3.777   5.971   9.830 -0.5969 -1.9988  0.7060
  103MOL0     H13903   4.182   5.860   9.868 -0.9849 -3.2996 -0.9454
  103MOL0     H13904   3.194   6.086  10.049 -0.8312 -0.3620  1.5793
  103MOL0     H13905   3.078   6.293  10.126  0.4300  0.8200  0.9578
  104MOL0     O13906   1.778   3.071   9.000  0.1853 -0.2452  0.1367
  104MOL0     C13907   1.822   3.187   9.027 -0.7831  0.4726 -0.0626
  104MOL0     O13908   1.758   3.275   9.103 -0.4147  0.0138  0.1648
  104MOL0     C13909   1.633   3.257   9.162 -0.3555  0.3977  0.4696
  104MOL0     C13910   1.543   3.144   9.165 -0.0819 -0.1104  0.2332
  104MOL0     C13911   1.425   3.162   9.238 -0.6712  0.2170 -1.1284
  104MOL0     C13912   1.383   3.285   9.293  0.0168  0.7362  0.5916
  104MOL0     O13913   1.255   3.296   9.346 -0.0015 -0.1068  0.3573
  104MOL0     C13914   1.198   3.428   9.335  0.1869 -0.9375 -0.2543
  104MOL0     C13915   1.058   3.414   9.384 -0.0080 -0.7909  0.1708
  104MOL0     C13916   0.995   3.554   9.410  0.2174  0.2531  0.2447
  104MOL0     C13917   0.848   3.533   9.433  1.0823  0.9494  0.3195
  104MOL0     C13918   0.764   3.655   9.466 -0.7217 -0.9017 -0.0362
  104MOL0     C13919   0.737   3.744   9.343  0.5053  0.7554  0.4358
  104MOL0     C13920   0.623   3.844   9.364 -0.6067  0.7014  0.1522
  104MOL0     C13921   0.585   3.911   9.239 -0.0492 -0.0611  0.5021
  104MOL0     N13922   0.475   4.000   9.260  0.5199 -0.7691  0.1010
  104MOL0     C13923   0.339   3.974   9.280  0.5707  0.6314 -0.3128
  104MOL0     C13924   0.291   4.094   9.324 -0.1667  0.0451  0.2844
  104MOL0     C13925   0.143   4.110   9.338  0.9728  0.1359 -0.9138
  104MOL0     C13926   0.081   4.173   9.214  0.3560  0.3012 -0.2612
  104MOL0     C13927  -0.071   4.180   9.228  0.0763  0.0123 -0.1505
  104MOL0     C13928  -0.153   4.145   9.103 -0.5107 -0.7420  0.0695
  104MOL0     O13929  -0.116   4.019   9.053  0.3615  0.1274 -0.6020
  104MOL0     C13930  -0.187   3.984   8.940 -0.2058  0.6795 -0.1295
  104MOL0     C13931  -0.217   3.851   8.924  0.1758 -0.1536  0.1296
  104MOL0     C13932  -0.290   3.804   8.816  0.6069 -0.3429  0.6930
  104MOL0     C13933  -0.303   3.652   8.818 -0.5754 -0.4232  0.3477
  104MOL0     C13934  -0.346   3.896   8.722  0.4245  0.1933 -0.3920
  104MOL0     C13935  -0.423   3.861   8.606 -1.0176 -0.2002  0.0475
  104MOL0     O13936  -0.373   3.919   8.494  0.0741  0.4183  0.3033
  104MOL0     C13937  -0.454   3.890   8.385 -0.3475  0.3904 -0.7172
  104MOL0     C13938  -0.583   3.951   8.375 -0.2760 -0.1535  0.0206
  104MOL0     C13939  -0.668   3.929   8.268  0.6737  0.6893  0.3659
  104MOL0     C13940  -0.630   3.844   8.166  0.1853 -0.1774 -0.0833
  104MOL0     O13941  -0.730   3.816   8.081  0.6564  0.4150 -0.5487
  104MOL0     C13942  -0.700   3.740   7.965  0.1125 -0.4774 -0.3065
  104MOL0     C13943  -0.832   3.691   7.907 -0.2815 -0.6913  0.0748
  104MOL0     C13944  -0.900   3.588   7.992  0.5631  0.8398 -0.0278
  104MOL0     C13945  -1.005   3.510   7.898 -0.5558 -0.4866  0.2887
  104MOL0     C13946  -1.110   3.459   7.989 -0.0236  0.3138 -0.4501
  104MOL0     C13947  -1.198   3.366   7.898 -0.7435  0.1856 -0.4591
  104MOL0     C13948  -1.304   3.301   7.982 -0.7925  0.3594  1.4219
  104MOL0     C13949  -1.247   3.174   8.054  1.0016 -0.5511  0.1981
  104MOL0    Cl13950  -1.399   3.071   8.062 -0.5579 -0.1263 -0.6138
  104MOL0     C13951  -0.508   3.778   8.183 -0.4803  0.1106  0.0750
  104MOL0     C13952  -0.413   3.807   8.289  0.7225 -0.3985  0.7176
  104MOL0     O13953  -0.518   3.779   8.611  0.6728 -0.2865 -0.7067
  104MOL0     C13954  -0.315   4.039   8.741 -0.5247  0.2309 -0.0884
  104MOL0     C13955  -0.230   4.074   8.841  0.1413 -0.6180  0.5318
  104MOL0     N13956   0.393   4.190   9.318  0.6436 -0.0468  0.1011
  104MOL0     N13957   0.501   4.133   9.278  0.8763 -1.0752  0.2902
  104MOL0     C13958   1.484   3.382   9.301  0.6324  0.3004  0.6303
  104MOL0     C13959   1.607   3.360   9.242  0.2581 -0.1158  0.3736
  104MOL0     C13960   1.957   3.223   8.983 -0.2117  0.5138 -0.6630
  104MOL0     C13961   2.026   3.337   9.027 -0.1763  0.5376 -0.1332
  104MOL0     C13962   2.156   3.369   8.991  0.5892 -0.3505 -1.4180
  104MOL0     C13963   2.224   3.277   8.901 -0.5877 -0.3607  0.1065
  104MOL0     O13964   2.355   3.304   8.858 -0.1551 -0.2156  0.5936
  104MOL0     C13965   2.448   3.384   8.938 -0.0242  0.0070 -0.1359
  104MOL0     C13966   2.452   3.529   8.906 -0.0659 -0.9391  0.2500
  104MOL0     C13967   2.560   3.606   8.992  0.2442 -1.0713 -0.1076
  104MOL0     C13968   2.687   3.618   8.908 -0.5615 -0.9097  0.6501
  104MOL0     C13969   2.799   3.697   8.972  0.8077  0.8293 -0.0300
  104MOL0     C13970   2.885   3.756   9.026 -0.3329  0.1839 -0.8868
  104MOL0     C13971   2.159   3.167   8.858 -0.0705 -0.2399 -0.0519
  104MOL0     C13972   2.030   3.139   8.895  0.1341 -0.1468  0.8888
  104MOL0     H13973   1.558   3.044   9.126  1.5270  0.5805 -1.0383
  104MOL0     H13974   1.350   3.085   9.255 -2.1703  1.9215  0.4704
  104MOL0     H13975   1.252   3.498   9.400 -1.3868 -0.1260  0.2560
  104MOL0     H13976   1.200   3.464   9.232  0.2709  0.2178  0.1403
  104MOL0     H13977   1.006   3.366   9.300 -0.6480 -0.9885  0.6669
  104MOL0     H13978   1.054   3.355   9.476 -0.2462 -1.0622 -0.0113
  104MOL0     H13979   1.043   3.591   9.501 -0.4741  1.1717  0.2494
  104MOL0     H13980   1.021   3.623   9.329  1.3345  0.6493  0.9153
  104MOL0     H13981   0.798   3.479   9.353  1.0720 -2.8552  2.6521
  104MOL0     H13982   0.841   3.466   9.519 -0.5238 -0.2172 -0.6687
  104MOL0     H13983   0.675   3.627   9.523 -0.6326 -2.0531 -0.4304
  104MOL0     H13984   0.828   3.717   9.528 -0.5698  0.0547 -1.1154
  104MOL0     H13985   0.826   3.796   9.307 -0.7936  1.8891 -1.2946
  104MOL0     H13986   0.703   3.672   9.267  2.5120 -1.0709  1.1682
  104MOL0     H13987   0.538   3.795   9.413 -0.2361  0.2065  0.3050
  104MOL0     H13988   0.658   3.924   9.431 -2.5146 -1.8180  4.6132
  104MOL0     H13989   0.544   3.840   9.167 -2.3524 -1.3731  2.9127
  104MOL0     H13990   0.673   3.959   9.196  0.1362  1.0562  2.0431
  104MOL0     H13991   0.284   3.882   9.263 -0.5150  1.4218 -1.1414
  104MOL0     H13992   0.102   4.013   9.367  0.0574  1.3385  2.1999
  104MOL0     H13993   0.140   4.181   9.421 -0.7031  0.8173 -1.5197
  104MOL0     H13994   0.100   4.106   9.130  0.3175  1.9726 -1.6611
  104MOL0     H13995   0.127   4.270   9.193 -0.3131  1.1912  2.0604
  104MOL0     H13996  -0.106   4.268   9.284  0.1571 -0.3461  0.4702
  104MOL0     H13997  -0.099   4.100   9.297 -0.4964  0.4612  0.1508
  104MOL0     H13998  -0.127   4.221   9.029 -1.8509  0.4952  0.8303
  104MOL0     H13999  -0.257   4.161   9.131 -1.4318 -1.4496 -2.5751
  104MOL0     H14000  -0.184   3.780   9.000  0.9269  1.6001  1.5139
  104MOL0     H14001  -0.211   3.600   8.847 -0.6096 -0.9031 -0.3809
  104MOL0     H14002  -0.385   3.621   8.883 -0.9843  0.3064  0.1960
  104MOL0     H14003  -0.322   3.625   8.714 -3.9082 -0.7781  0.9568
  104MOL0     H14004  -0.626   4.018   8.448 -0.8294 -0.6479  0.1594
  104MOL0     H14005  -0.767   3.975   8.273  0.1177 -0.5697  1.8631
  104MOL0     H14006  -0.648   3.795   7.887 -0.7746  2.3293  0.9609
  104MOL0     H14007  -0.640   3.654   7.997  1.6127  0.2851 -0.9594
  104MOL0     H14008  -0.882   3.786   7.885  0.4946 -0.2721  0.0978
  104MOL0     H14009  -0.818   3.641   7.811 -0.5747  0.3210 -0.5100
  104MOL0     H14010  -0.943   3.627   8.085  0.4579  0.5360  0.0533
  104MOL0     H14011  -0.828   3.509   8.016 -1.9661 -1.2784  1.1693
  104MOL0     H14012  -1.054   3.584   7.834  0.9278 -1.4740 -2.1701
  104MOL0     H14013  -0.955   3.435   7.835  0.3703  0.1961  0.1804
  104MOL0     H14014  -1.168   3.537   8.039  0.7934 -0.6990  2.2443
  104MOL0     H14015  -1.061   3.402   8.069  2.2680  0.0671 -1.9349
  104MOL0     H14016  -1.248   3.432   7.826 -1.0969 -1.0828 -1.4073
  104MOL0     H14017  -1.137   3.294   7.844 -0.1506 -0.3200  0.8416
  104MOL0     H14018  -1.370   3.271   7.900  0.2815 -0.4432  0.8213
  104MOL0     H14019  -1.350   3.371   8.052  0.3866 -0.3821  3.0038
  104MOL0     H14020  -1.220   3.219   8.150 -1.6524  1.1677  0.2340
  104MOL0     H14021  -1.165   3.124   8.001  1.0346  0.6588 -0.9395
  104MOL0     H14022  -0.472   3.703   8.113  1.1097  0.4686  0.4663
  104MOL0     H14023  -0.323   3.747   8.285  0.9759  0.0284 -2.8258
  104MOL0     H14024  -0.356   4.113   8.673  0.0501 -0.2300 -0.9567
  104MOL0     H14025  -0.189   4.174   8.832 -0.9898 -0.2936 -1.6564
  104MOL0     H14026   1.471   3.471   9.361  0.8252  0.0288  1.0833
  104MOL0     H14027   1.683   3.434   9.264 -0.2930  0.2739  0.9798
  104MOL0     H14028   1.979   3.412   9.090 -0.3136  0.6130 -0.3279
  104MOL0     H14029   2.198   3.460   9.032 -2.9057  0.4750  0.7624
  104MOL0     H14030   2.427   3.375   9.045  0.4058 -0.1398 -0.0620
  104MOL0     H14031   2.546   3.337   8.925 -0.1199 -0.6384  1.2997
  104MOL0     H14032   2.355   3.570   8.939 -0.2114 -1.7428  0.8732
  104MOL0     H14033   2.472   3.553   8.802 -0.6002 -2.1193 -0.1387
  104MOL0     H14034   2.583   3.558   9.087 -0.6550 -2.2083 -0.4326
  104MOL0     H14035   2.528   3.709   9.007 -0.8708 -1.3537 -0.4061
  104MOL0     H14036   2.666   3.681   8.821  2.4171  0.8314  1.0451
  104MOL0     H14037   2.729   3.522   8.878  0.0880 -1.3768  2.8842
  104MOL0     H14038   2.949   3.805   9.096  0.0466  0.2764 -1.2919
  104MOL0     H14039   2.201   3.097   8.786  0.0515  0.1689 -0.3800
  104MOL0     H14040   1.979   3.056   8.847  2.8804 -0.5297 -1.6279
  105MOL0     O14041   3.621   2.751  10.432 -0.0910 -0.5143 -0.3790
  105MOL0     C14042   3.560   2.740  10.535 -0.2456 -0.2961 -0.7729
  105MOL0     O14043   3.428   2.708  10.546  0.2665  0.1109  0.0892
  105MOL0     C14044   3.346   2.686  10.440 -0.0496  0.9271  0.7192
  105MOL0     C14045   3.215   2.630  10.463 -0.3621 -0.0599 -0.1849
  105MOL0     C14046   3.135   2.600  10.350  0.6799  0.4065  0.3101
  105MOL0     C14047   3.171   2.614  10.217  0.5980  0.7220  0.9830
  105MOL0     O14048   3.080   2.574  10.125 -0.7688 -0.4543  0.4456
  105MOL0     C14049   3.097   2.631   9.997 -0.0304  0.0385  0.5752
  105MOL0     C14050   2.983   2.605   9.893  0.4479 -0.0792  0.2112
  105MOL0     C14051   2.864   2.670   9.966 -0.3537  0.6368  0.1481
  105MOL0     C14052   2.751   2.693   9.861  0.3481  0.2600  0.1909
  105MOL0     C14053   2.695   2.566   9.800 -0.5138  0.2572  0.1065
  105MOL0     C14054   2.584   2.574   9.697 -0.6017  0.0688  1.1466
  105MOL0     C14055   2.538   2.431   9.666 -0.1445 -0.1561  0.4070
  105MOL0     C14056   2.404   2.434   9.594 -0.4696  0.1681  0.0342
  105MOL0     N14057   2.368   2.302   9.530  0.5376  0.7303 -0.2849
  105MOL0     C14058   2.345   2.179   9.595 -0.2297 -0.9241 -0.3682
  105MOL0     C14059   2.329   2.096   9.489 -0.0786  0.7296 -0.7330
  105MOL0     C14060   2.303   1.946   9.500 -0.5550 -0.6886  0.1503
  105MOL0     C14061   2.227   1.897   9.369 -0.8100  0.6041 -1.5668
  105MOL0     C14062   2.225   1.742   9.368 -0.7905  0.2065 -0.0221
  105MOL0     C14063   2.179   1.687   9.504 -0.4330 -0.1311  0.2454
  105MOL0     O14064   2.048   1.740   9.537  0.7042 -0.1454  0.5708
  105MOL0     C14065   1.931   1.714   9.478  0.3373  0.0969  0.5575
  105MOL0     C14066   1.837   1.811   9.512  0.0017  0.4325 -0.1815
  105MOL0     C14067   1.707   1.820   9.457  0.1029  0.4460 -1.1638
  105MOL0     C14068   1.616   1.928   9.513  0.7225  0.7254  0.4666
  105MOL0     C14069   1.669   1.710   9.369 -0.0453 -0.8488  0.1306
  105MOL0     C14070   1.530   1.699   9.308 -0.0170  0.8722  0.2644
  105MOL0     O14071   1.448   1.808   9.295 -0.1238 -0.4146  0.1277
  105MOL0     C14072   1.335   1.820   9.215  0.1674  0.6901  0.1200
  105MOL0     C14073   1.242   1.918   9.227 -0.5143  0.1802 -0.7752
  105MOL0     C14074   1.127   1.928   9.151  0.2894 -0.6759 -0.0962
  105MOL0     C14075   1.089   1.837   9.051 -0.2902  0.4343  0.5326
  105MOL0     O14076   0.982   1.846   8.965  0.0953  0.0311 -0.8313
  105MOL0     C14077   0.890   1.960   8.979  0.4900  0.2449  1.0128
  105MOL0     C14078   0.798   1.947   9.104 -0.3720  0.5048 -0.0850
  105MOL0     C14079   0.678   1.860   9.052 -0.4739 -0.5040 -0.6605
  105MOL0     C14080   0.562   1.863   9.150  0.2116  0.2135  0.6228
  105MOL0     C14081   0.454   1.776   9.083 -0.3711 -0.1106 -0.5132
  105MOL0     C14082   0.468   1.619   9.101  0.2244 -0.3121 -0.3163
  105MOL0     C14083   0.359   1.549   9.019  0.4450 -0.1860  0.2613
  105MOL0     C14084   0.215   1.589   9.064  0.3007  0.1877  0.6506
  105MOL0    Cl14085   0.095   1.503   8.974  0.4897 -0.0884  0.0573
  105MOL0     C14086   1.186   1.732   9.036 -0.6408 -0.0141  0.8006
  105MOL0     C14087   1.306   1.724   9.112 -0.2443 -0.0680  0.4789
  105MOL0     O14088   1.501   1.583   9.275  0.1851 -0.1174 -1.4471
  105MOL0     C14089   1.764   1.616   9.327  0.5711  0.3261 -1.4438
  105MOL0     C14090   1.899   1.621   9.385 -0.0937  0.2505  0.5784
  105MOL0     N14091   2.358   2.161   9.375 -0.1060  0.3424 -0.4483
  105MOL0     N14092   2.375   2.286   9.395  1.0506  0.1425 -0.0889
  105MOL0     C14093   3.296   2.681  10.193  0.0792  0.1090 -0.0247
  105MOL0     C14094   3.374   2.719  10.302 -0.4708 -0.6099 -0.5454
  105MOL0     C14095   3.628   2.761  10.668 -0.3134 -0.1951  0.3185
  105MOL0     C14096   3.560   2.732  10.785  0.3594 -0.8884  0.8958
  105MOL0     C14097   3.613   2.762  10.907  0.0788  0.3467  0.3087
  105MOL0     C14098   3.731   2.831  10.918  0.5228  0.0021 -0.2002
  105MOL0     O14099   3.778   2.871  11.045  0.4699  0.0925 -0.0076
  105MOL0     C14100   3.728   3.001  11.095 -0.3091  0.1604 -0.5101
  105MOL0     C14101   3.620   2.976  11.195  0.7681 -0.7330  0.1834
  105MOL0     C14102   3.676   2.898  11.311 -0.4473 -0.0603  0.2889
  105MOL0     C14103   3.576   2.868  11.429  0.9827  0.0404 -0.4251
  105MOL0     C14104   3.520   2.981  11.511  0.8519  0.3236  0.5657
  105MOL0     C14105   3.486   3.052  11.596 -0.4206 -0.5045 -0.9214
  105MOL0     C14106   3.804   2.851  10.798  0.2964  0.5578  0.3218
  105MOL0     C14107   3.754   2.811  10.671  0.3570 -0.0543 -0.6965
  105MOL0     H14108   3.185   2.601  10.563  0.2832  1.0560  0.3575
  105MOL0     H14109   3.035   2.560  10.367 -0.2198  2.2113 -0.4878
  105MOL0     H14110   3.115   2.739  10.002 -2.7998  0.5722  0.4776
  105MOL0     H14111   3.187   2.581   9.959 -0.9487 -3.1741  2.2300
  105MOL0     H14112   3.004   2.654   9.798  0.5459 -1.4689 -0.5121
  105MOL0     H14113   2.962   2.498   9.879 -2.5372  0.4599 -0.0315
  105MOL0     H14114   2.828   2.606  10.047 -0.5618 -1.4247 -1.4610
  105MOL0     H14115   2.890   2.770  10.001 -4.0590  0.9031  2.7307
  105MOL0     H14116   2.671   2.743   9.915 -0.6467 -0.4294 -0.6193
  105MOL0     H14117   2.791   2.762   9.786  0.7467  2.0314  1.9533
  105MOL0     H14118   2.773   2.503   9.757 -1.7716 -1.3333  0.0676
  105MOL0     H14119   2.650   2.503   9.877 -1.6022  0.9499  0.0523
  105MOL0     H14120   2.502   2.643   9.719  0.1832  1.6955 -0.7529
  105MOL0     H14121   2.633   2.614   9.608  3.1215 -1.9362  2.0799
  105MOL0     H14122   2.610   2.375   9.607 -1.7171 -0.9798 -0.8306
  105MOL0     H14123   2.532   2.381   9.763  0.7028 -1.7688 -0.3455
  105MOL0     H14124   2.400   2.515   9.521 -1.7584  2.4720  2.4642
  105MOL0     H14125   2.332   2.463   9.672  0.7386 -1.1117  1.7070
  105MOL0     H14126   2.339   2.154   9.701  3.4474 -1.8751 -0.2504
  105MOL0     H14127   2.400   1.896   9.509  0.5133  1.2074 -0.4235
  105MOL0     H14128   2.246   1.934   9.593  2.4728 -3.6276  1.8441
  105MOL0     H14129   2.271   1.926   9.273  2.0451 -2.1240 -1.2545
  105MOL0     H14130   2.124   1.935   9.366 -1.5463 -0.4310  3.0371
  105MOL0     H14131   2.327   1.705   9.355  0.0409  2.1131  0.5555
  105MOL0     H14132   2.161   1.716   9.283  0.8671 -0.1386 -1.2203
  105MOL0     H14133   2.255   1.707   9.580  0.2638  0.2490 -0.5396
  105MOL0     H14134   2.165   1.578   9.501 -0.3105 -0.1332 -1.4276
  105MOL0     H14135   1.866   1.889   9.581  1.1504 -0.6403  0.5879
  105MOL0     H14136   1.661   1.997   9.585  0.5825  3.7215 -2.1411
  105MOL0     H14137   1.599   1.994   9.428  2.7031 -0.2657 -0.7767
  105MOL0     H14138   1.525   1.884   9.554  0.2666  0.1882 -1.0766
  105MOL0     H14139   1.251   2.003   9.294  1.1864 -1.5992  1.3991
  105MOL0     H14140   1.062   2.013   9.166  0.5853 -0.3751 -0.5137
  105MOL0     H14141   0.945   2.054   8.985 -0.3061  0.9904 -1.9145
  105MOL0     H14142   0.840   1.979   8.884 -2.0613  0.2314  2.2428
  105MOL0     H14143   0.845   1.899   9.191  1.2649  2.5888  0.2448
  105MOL0     H14144   0.764   2.047   9.131 -0.3521  1.2427 -2.5630
  105MOL0     H14145   0.723   1.760   9.054 -0.1356 -0.3557  1.7089
  105MOL0     H14146   0.643   1.879   8.950  0.8658 -3.3766 -1.7855
  105MOL0     H14147   0.583   1.824   9.250 -0.2596  1.5860  1.2792
  105MOL0     H14148   0.536   1.968   9.162  2.5695  1.5441 -3.7812
  105MOL0     H14149   0.417   1.805   8.984 -0.6559 -2.0213 -1.0065
  105MOL0     H14150   0.364   1.802   9.139 -2.4955 -0.0137 -3.7104
  105MOL0     H14151   0.565   1.591   9.058 -0.4113  0.2915 -2.2485
  105MOL0     H14152   0.457   1.602   9.209 -1.5615  1.3215 -0.1852
  105MOL0     H14153   0.376   1.441   9.027 -4.2132 -1.1970 -0.6638
  105MOL0     H14154   0.373   1.557   8.911  1.0217 -2.1508  0.1462
  105MOL0     H14155   0.194   1.696   9.053  0.2085  0.3722  2.3393
  105MOL0     H14156   0.199   1.566   9.170  1.0385 -2.6420  0.2271
  105MOL0     H14157   1.181   1.663   8.952  0.8687  0.8459 -0.0375
  105MOL0     H14158   1.381   1.649   9.087  0.2040  0.6509 -0.3725
  105MOL0     H14159   1.744   1.548   9.244 -2.0443 -2.4902  1.2285
  105MOL0     H14160   1.975   1.551   9.352 -0.5778  0.7449 -1.7830
  105MOL0     H14161   3.331   2.693  10.091  0.7406 -0.8267  0.0786
  105MOL0     H14162   3.458   2.784  10.281  1.3203 -2.2055  1.2962
  105MOL0     H14163   3.469   2.675  10.774  1.0436 -1.7055 -0.8829
  105MOL0     H14164   3.549   2.751  10.994 -1.8042 -0.9241 -1.1737
  105MOL0     H14165   3.816   3.042  11.143  0.1663 -0.2136 -1.0492
  105MOL0     H14166   3.688   3.072  11.022  3.5536  4.1034  0.8001
  105MOL0     H14167   3.537   2.916  11.157  0.3994 -0.6233  0.8085
  105MOL0     H14168   3.591   3.074  11.234  0.8762 -1.9991  3.7631
  105MOL0     H14169   3.757   2.957  11.356 -0.5383 -1.4090  2.4096
  105MOL0     H14170   3.721   2.802  11.286 -0.9221 -0.5075  1.1087
  105MOL0     H14171   3.634   2.804  11.495  1.1745 -1.1273 -1.6671
  105MOL0     H14172   3.495   2.806  11.390  0.8473 -0.8896  1.2568
  105MOL0     H14173   3.456   3.125  11.669 -2.1611  0.3622 -2.4339
  105MOL0     H14174   3.905   2.890  10.805  1.0706 -1.1730 -0.6524
  105MOL0     H14175   3.814   2.820  10.581 -1.4927  0.9697 -1.9128
  106MOL0     O14176   5.150   7.396  11.284  0.5271 -0.0950 -0.2858
  106MOL0     C14177   5.202   7.401  11.176  0.0946  0.1524 -0.7958
  106MOL0     O14178   5.156   7.463  11.073 -0.1057 -0.1299 -0.4498
  106MOL0     C14179   5.031   7.521  11.065 -0.2228  0.2207  0.2527
  106MOL0     C14180   4.972   7.599  11.157 -0.3559  0.7655 -0.5120
  106MOL0     C14181   4.863   7.679  11.132 -0.0666 -0.6411  0.1284
  106MOL0     C14182   4.794   7.662  11.006 -0.4857  0.0162 -0.9962
  106MOL0     O14183   4.680   7.731  10.983  0.1342 -0.2308  0.4563
  106MOL0     C14184   4.600   7.697  10.869  0.2824  0.1653 -0.1710
  106MOL0     C14185   4.466   7.754  10.880  0.0922  0.1187  0.4392
  106MOL0     C14186   4.460   7.910  10.875 -0.4058 -0.7241  0.4721
  106MOL0     C14187   4.321   7.961  10.883 -0.2109 -0.7693  0.0073
  106MOL0     C14188   4.312   8.112  10.845 -0.3720 -0.2717 -0.5022
  106MOL0     C14189   4.170   8.162  10.860  0.1911 -0.2010 -0.5265
  106MOL0     C14190   4.152   8.306  10.838  0.3103 -1.0233 -0.1286
  106MOL0     C14191   4.145   8.348  10.685 -0.2209  0.5931 -0.4705
  106MOL0     N14192   4.086   8.483  10.657  0.4792 -0.4584 -0.5328
  106MOL0     C14193   4.138   8.603  10.701 -0.4279 -1.0528 -0.1213
  106MOL0     C14194   4.074   8.705  10.641 -0.0485 -0.5456  0.2220
  106MOL0     C14195   4.096   8.858  10.641 -0.0233  0.5291  0.1269
  106MOL0     C14196   4.112   8.907  10.785  0.6611 -0.9857  0.8420
  106MOL0     C14197   3.982   8.877  10.859  0.2480  0.5205 -0.3596
  106MOL0     C14198   3.981   8.944  10.998  0.3479 -0.0066 -0.5589
  106MOL0     O14199   3.843   8.972  11.038 -0.3132 -0.0464 -0.1017
  106MOL0     C14200   3.824   9.054  11.153 -0.2173 -0.1043  0.0990
  106MOL0     C14201   3.932   9.113  11.228  0.4495  0.4492 -0.0503
  106MOL0     C14202   3.903   9.209  11.331 -0.4670  0.0194 -0.6569
  106MOL0     C14203   4.023   9.274  11.408 -0.4966  0.4037  0.0702
  106MOL0     C14204   3.765   9.235  11.373 -0.3764  0.6849 -0.3205
  106MOL0     C14205   3.729   9.321  11.493  0.5872 -0.4581  0.2543
  106MOL0     O14206   3.597   9.312  11.531 -0.9648 -0.8530  0.1074
  106MOL0     C14207   3.570   9.393  11.634 -0.0405  0.5265  0.2619
  106MOL0     C14208   3.516   9.524  11.619 -0.1178  0.1654 -0.0445
  106MOL0     C14209   3.501   9.601  11.737 -0.4269 -0.4078 -0.4016
  106MOL0     C14210   3.535   9.550  11.864  0.0036 -0.3408 -0.4453
  106MOL0     O14211   3.496   9.632  11.964 -0.5842 -0.0980 -0.3046
  106MOL0     C14212   3.526   9.594  12.099 -0.3569  0.0660 -0.5819
  106MOL0     C14213   3.440   9.680  12.196  0.2641  0.2610 -0.6365
  106MOL0     C14214   3.288   9.662  12.179 -0.0069  0.8988 -0.0159
  106MOL0     C14215   3.204   9.749  12.261 -0.4076  0.2278 -0.2561
  106MOL0     C14216   3.188   9.888  12.196  0.3583 -0.0969 -0.2034
  106MOL0     C14217   3.067   9.947  12.271 -0.6260 -0.3273  0.6755
  106MOL0     C14218   3.050  10.092  12.213 -0.3313  0.2882  0.1953
  106MOL0     C14219   2.914  10.145  12.259  0.1775 -0.4705 -0.0115
  106MOL0    Cl14220   2.848  10.283  12.155  0.0878 -0.0669  0.0754
  106MOL0     C14221   3.576   9.420  11.876  0.7383 -0.5410  0.0246
  106MOL0     C14222   3.583   9.340  11.759  0.0292  0.2965 -0.0268
  106MOL0     O14223   3.812   9.359  11.568  0.1409  0.1296 -0.0465
  106MOL0     C14224   3.666   9.167  11.305 -0.0580  0.0601 -0.1911
  106MOL0     C14225   3.696   9.093  11.186 -0.2830  0.6700 -0.0380
  106MOL0     N14226   3.972   8.644  10.574 -0.9307  0.2286 -0.4871
  106MOL0     N14227   3.980   8.516  10.584 -0.3024 -0.3569 -0.4379
  106MOL0     C14228   4.846   7.577  10.909 -0.5678  0.1414 -0.8184
  106MOL0     C14229   4.965   7.503  10.939  0.4860 -0.0871 -0.2377
  106MOL0     C14230   5.329   7.330  11.160  1.7504 -0.3692  0.5547
  106MOL0     C14231   5.342   7.206  11.226 -0.1963  0.4622  0.3637
  106MOL0     C14232   5.461   7.131  11.214  0.1332  0.1302  0.7856
  106MOL0     C14233   5.563   7.180  11.127  0.6488 -0.0275 -0.5458
  106MOL0     O14234   5.680   7.103  11.129  0.3826 -0.1544  0.4174
  106MOL0     C14235   5.770   7.120  11.020 -0.9271 -0.0190 -0.1208
  106MOL0     C14236   5.851   6.995  11.009 -0.7223 -0.1991  0.5280
  106MOL0     C14237   5.924   6.964  11.133 -0.4406 -0.2280  0.2154
  106MOL0     C14238   6.041   7.058  11.176 -0.7841  0.1529  0.4907
  106MOL0     C14239   6.113   6.990  11.285  0.6606  0.3450 -0.1231
  106MOL0     C14240   6.182   6.950  11.376  0.2457  0.4162 -1.0690
  106MOL0     C14241   5.550   7.298  11.063  2.0517  0.1228  0.6178
  106MOL0     C14242   5.428   7.373  11.070 -0.0597 -1.1953 -0.2276
  106MOL0     H14243   5.014   7.616  11.256  0.6981 -0.1665 -0.7740
  106MOL0     H14244   4.823   7.743  11.210  0.4982 -0.2472  0.0973
  106MOL0     H14245   4.652   7.742  10.784  0.6465 -1.1170 -0.6608
  106MOL0     H14246   4.589   7.588  10.859  3.5484 -0.7253  3.5649
  106MOL0     H14247   4.413   7.718  10.792 -2.9418 -0.0181  2.1861
  106MOL0     H14248   4.411   7.707  10.963  0.2765 -2.3404 -0.7587
  106MOL0     H14249   4.529   7.955  10.947 -0.2763  0.3855 -0.3209
  106MOL0     H14250   4.488   7.945  10.775 -1.5172 -0.9621  0.0591
  106MOL0     H14251   4.247   7.905  10.826 -0.3341  1.9458 -2.7994
  106MOL0     H14252   4.287   7.945  10.985  0.5034 -2.1080  0.0656
  106MOL0     H14253   4.377   8.170  10.911 -0.8590  2.5608 -2.3290
  106MOL0     H14254   4.345   8.125  10.742  1.4000 -1.8805 -0.1731
  106MOL0     H14255   4.104   8.102  10.796  0.7182 -0.2546 -1.0274
  106MOL0     H14256   4.149   8.135  10.964 -1.7187  1.2838 -0.4746
  106MOL0     H14257   4.052   8.322  10.881  0.6191 -2.2259  1.0859
  106MOL0     H14258   4.227   8.364  10.892  1.1384 -0.6602 -1.6208
  106MOL0     H14259   4.090   8.279  10.621  0.0301  0.9752 -1.1032
  106MOL0     H14260   4.249   8.350  10.653  0.5460 -4.4535  0.8348
  106MOL0     H14261   4.229   8.600  10.761 -0.0885 -1.0402 -0.6288
  106MOL0     H14262   4.182   8.887  10.581  1.4420 -0.1797  1.7879
  106MOL0     H14263   4.005   8.896  10.594  0.6106  3.2183  0.9038
  106MOL0     H14264   4.125   9.015  10.788 -0.4936 -0.6328 -2.4746
  106MOL0     H14265   4.204   8.870  10.832  0.9829 -0.7002  0.4401
  106MOL0     H14266   3.983   8.769  10.872  1.9993  0.4195 -1.0673
  106MOL0     H14267   3.903   8.912  10.793  1.8515  3.3693 -0.9290
  106MOL0     H14268   4.021   9.045  10.999  0.1090  0.2369  3.6258
  106MOL0     H14269   4.036   8.900  11.081 -0.2226  0.2100 -0.0582
  106MOL0     H14270   4.032   9.102  11.186 -0.2336 -3.3253 -1.0619
  106MOL0     H14271   4.044   9.218  11.500  0.3388 -0.4340 -0.6092
  106MOL0     H14272   4.110   9.280  11.342  0.7625 -1.6349  1.4075
  106MOL0     H14273   4.006   9.380  11.428  1.4327  0.9677 -0.9543
  106MOL0     H14274   3.489   9.557  11.519 -0.4240  0.8215  0.2457
  106MOL0     H14275   3.458   9.700  11.726 -0.2924  0.0616  2.4124
  106MOL0     H14276   3.495   9.491  12.119  0.5028 -0.2371 -0.7209
  106MOL0     H14277   3.633   9.611  12.115 -0.5931 -0.2910  1.5993
  106MOL0     H14278   3.457   9.653  12.300 -0.2326  0.5571 -0.4762
  106MOL0     H14279   3.467   9.784  12.173  3.0260 -0.4958 -1.1454
  106MOL0     H14280   3.267   9.555  12.174 -0.9583  1.1191 -1.1949
  106MOL0     H14281   3.277   9.680  12.072 -2.1395 -3.8578 -0.8224
  106MOL0     H14282   3.108   9.697  12.257  0.2833 -1.0420 -1.1696
  106MOL0     H14283   3.228   9.753  12.368 -1.0658 -2.3946  0.0552
  106MOL0     H14284   3.162   9.877  12.090 -0.3929 -1.0886  0.0669
  106MOL0     H14285   3.279   9.946  12.215  0.4473 -0.6207  1.0625
  106MOL0     H14286   2.969   9.903  12.248 -1.2122  0.4926  1.5077
  106MOL0     H14287   3.075   9.952  12.380  1.5580 -0.6350  0.5725
  106MOL0     H14288   3.042  10.084  12.104 -1.1474  0.9993  0.1893
  106MOL0     H14289   3.134  10.159  12.237  0.4051  0.6840 -3.0069
  106MOL0     H14290   2.922  10.177  12.363  1.9851  2.3645 -0.9178
  106MOL0     H14291   2.847  10.059  12.249 -0.4359  0.0852 -0.8118
  106MOL0     H14292   3.605   9.377  11.972 -0.5287  2.1978  1.7588
  106MOL0     H14293   3.592   9.233  11.775  2.2861  0.7535  2.3856
  106MOL0     H14294   3.559   9.177  11.318 -0.5914 -2.9853 -1.2469
  106MOL0     H14295   3.614   9.057  11.124 -0.1051 -0.6295  0.4537
  106MOL0     H14296   4.814   7.569  10.806  0.0632 -0.9215 -0.9431
  106MOL0     H14297   5.010   7.446  10.858 -0.0987  0.5640 -1.0379
  106MOL0     H14298   5.262   7.169  11.290 -0.7904  2.6371  0.9966
  106MOL0     H14299   5.471   7.036  11.265 -2.1438 -0.6670 -0.1349
  106MOL0     H14300   5.707   7.132  10.931  0.1717 -0.0814 -0.9397
  106MOL0     H14301   5.838   7.204  11.033  0.6277 -1.1361 -0.6326
  106MOL0     H14302   5.923   7.017  10.929 -2.9344  2.3645 -0.9358
  106MOL0     H14303   5.794   6.907  10.977  1.2896 -1.7288  0.9552
  106MOL0     H14304   5.955   6.860  11.121  2.0169  0.2037  2.0778
  106MOL0     H14305   5.858   6.957  11.220  1.4977 -5.1603  1.6657
  106MOL0     H14306   6.014   7.162  11.195 -2.2840 -0.4547  1.9782
  106MOL0     H14307   6.112   7.060  11.092 -2.2693 -3.1872 -1.0154
  106MOL0     H14308   6.226   6.943  11.474 -2.5148 -2.8464  0.1287
  106MOL0     H14309   5.627   7.335  10.995  0.5261 -1.7658 -2.3527
  106MOL0     H14310   5.419   7.455  11.001 -0.6840 -0.7150  0.4093
  107MOL0     O14311   0.104   7.240  11.056  0.3024  0.2104  0.6357
  107MOL0     C14312   0.149   7.157  10.971 -0.4002  0.0859 -0.4572
  107MOL0     O14313   0.111   7.136  10.840 -0.7962  0.1596 -0.8670
  107MOL0     C14314   0.003   7.216  10.800  0.0127 -0.1394  0.0129
  107MOL0     C14315  -0.118   7.153  10.785  1.0961 -0.6444 -0.5608
  107MOL0     C14316  -0.229   7.212  10.724  0.3022 -0.8748 -0.0726
  107MOL0     C14317  -0.218   7.345  10.683  0.4319 -0.3674  0.4822
  107MOL0     O14318  -0.309   7.425  10.626  0.0898  0.0073  0.3258
  107MOL0     C14319  -0.442   7.376  10.615  0.4169  0.5039 -0.0137
  107MOL0     C14320  -0.541   7.478  10.556  0.1303  0.0323  0.1541
  107MOL0     C14321  -0.671   7.408  10.525  0.4587 -0.1986 -0.1639
  107MOL0     C14322  -0.791   7.501  10.536  0.4599  0.9372  0.1109
  107MOL0     C14323  -0.925   7.429  10.554  0.1544 -0.1063 -0.2344
  107MOL0     C14324  -0.972   7.363  10.431 -0.6952 -0.6063 -0.1690
  107MOL0     C14325  -1.123   7.343  10.431 -0.2781 -0.0346 -0.2305
  107MOL0     C14326  -1.154   7.299  10.286 -1.0170 -0.3113 -0.4963
  107MOL0     N14327  -1.305   7.289  10.275  0.3961 -0.0984  0.9138
  107MOL0     C14328  -1.388   7.333  10.169 -0.0446  0.6512 -0.4240
  107MOL0     C14329  -1.514   7.322  10.225 -0.7313 -0.4190 -0.1465
  107MOL0     C14330  -1.646   7.362  10.155 -0.1411  0.1698  0.2015
  107MOL0     C14331  -1.661   7.296  10.019  0.1774  0.4525 -0.3065
  107MOL0     C14332  -1.704   7.148  10.020  0.3679  0.1946 -0.3810
  107MOL0     C14333  -1.752   7.111   9.887  0.0713 -0.3474 -0.3499
  107MOL0     O14334  -1.846   7.199   9.825 -0.3322 -0.3411 -0.3520
  107MOL0     C14335  -1.978   7.189   9.871 -0.3432 -0.6877  0.2799
  107MOL0     C14336  -2.058   7.080   9.882 -0.1952  0.4897 -0.1164
  107MOL0     C14337  -2.190   7.079   9.918 -0.1559  0.3588 -0.0578
  107MOL0     C14338  -2.252   6.948   9.958  0.2195  0.0969 -0.1937
  107MOL0     C14339  -2.255   7.199   9.944  0.8820 -0.2772 -0.7293
  107MOL0     C14340  -2.393   7.221   9.998  1.0055 -1.1690 -0.3584
  107MOL0     O14341  -2.479   7.108   9.997 -0.8387 -0.1652  0.5817
  107MOL0     C14342  -2.618   7.126   9.992 -0.3002  0.7007  0.7900
  107MOL0     C14343  -2.685   7.007  10.031  1.0266  0.3454  0.1505
  107MOL0     C14344  -2.817   7.007  10.034  1.0323 -0.0732  0.3772
  107MOL0     C14345  -2.897   7.115   9.989 -0.6903 -0.1543 -0.3543
  107MOL0     O14346  -3.035   7.129   9.984 -0.2091 -1.0060 -1.0087
  107MOL0     C14347  -3.115   7.029  10.051 -0.6630 -0.7551  0.9154
  107MOL0     C14348  -3.260   7.082  10.072  0.4900  0.2559  0.6207
  107MOL0     C14349  -3.338   7.121   9.946 -0.2328 -0.2187  0.4784
  107MOL0     C14350  -3.479   7.157   9.980  0.0668  0.1329 -0.1979
  107MOL0     C14351  -3.566   7.185   9.857  0.4418  0.3634  0.0444
  107MOL0     C14352  -3.706   7.226   9.898  0.0432 -0.7287  0.1521
  107MOL0     C14353  -3.790   7.239   9.769 -0.5428 -0.2926  0.2642
  107MOL0     C14354  -3.904   7.337   9.780 -0.5767 -0.4625  0.5588
  107MOL0    Cl14355  -4.011   7.298   9.913  0.2642  0.2236  0.2602
  107MOL0     C14356  -2.831   7.229   9.943  0.0482  0.8762  0.0189
  107MOL0     C14357  -2.696   7.232   9.947  0.3634 -0.1402  0.0627
  107MOL0     O14358  -2.429   7.336  10.032 -0.0239 -0.2729 -0.0317
  107MOL0     C14359  -2.182   7.319   9.927  0.1535 -0.2119  0.2178
  107MOL0     C14360  -2.045   7.313   9.885  1.7821 -0.0317  0.4006
  107MOL0     N14361  -1.506   7.260  10.346 -0.1225  0.3211  0.4259
  107MOL0     N14362  -1.384   7.249  10.379  0.0135 -0.1415  0.4773
  107MOL0     C14363  -0.089   7.412  10.702 -0.1432 -0.2963 -0.3444
  107MOL0     C14364   0.021   7.347  10.761  0.0945  0.0664  0.0909
  107MOL0     C14365   0.261   7.071  11.030 -0.4938 -0.0429 -0.2581
  107MOL0     C14366   0.363   7.027  10.955 -1.0276  0.5477  0.7197
  107MOL0     C14367   0.473   6.967  11.019  0.8501 -0.1697  0.2105
  107MOL0     C14368   0.478   6.940  11.154 -0.5512  0.1700 -0.5374
  107MOL0     O14369   0.598   6.894  11.199  0.0487 -0.5133  0.3735
  107MOL0     C14370   0.619   6.875  11.337  0.1425 -0.1112  0.3428
  107MOL0     C14371   0.642   7.002  11.418  0.2126  0.0743 -0.4665
  107MOL0     C14372   0.752   7.086  11.352 -0.1578 -0.0384 -0.3567
  107MOL0     C14373   0.787   7.215  11.424  0.2447  0.3728 -0.0247
  107MOL0     C14374   0.841   7.190  11.561  0.5628 -1.2580 -0.0695
  107MOL0     C14375   0.879   7.183  11.672  0.3453 -0.0597 -0.3117
  107MOL0     C14376   0.359   6.968  11.226  0.2161  0.4850 -0.8923
  107MOL0     C14377   0.254   7.034  11.170 -0.0695  0.5018 -0.0225
  107MOL0     H14378  -0.113   7.053  10.826 -0.8830 -0.3948  0.4113
  107MOL0     H14379  -0.318   7.154  10.701  0.3181 -1.4071  1.1441
  107MOL0     H14380  -0.442   7.296  10.540 -3.4819 -0.9167  1.2204
  107MOL0     H14381  -0.480   7.329  10.706  3.0546 -0.8573  0.4784
  107MOL0     H14382  -0.557   7.558  10.628 -0.7065  0.8652 -0.9345
  107MOL0     H14383  -0.504   7.529  10.467 -0.9588  0.7888  0.1147
  107MOL0     H14384  -0.681   7.378  10.420  2.6904  0.8950 -0.7511
  107MOL0     H14385  -0.681   7.320  10.589  1.5406 -0.7298 -0.7152
  107MOL0     H14386  -0.789   7.566  10.624 -0.8781 -0.0733  0.9173
  107MOL0     H14387  -0.803   7.560  10.445 -4.0525  0.4953  0.2165
  107MOL0     H14388  -0.926   7.363  10.641  0.8584  1.4973  1.0511
  107MOL0     H14389  -0.997   7.505  10.585 -0.1010 -1.0403  1.6063
  107MOL0     H14390  -0.938   7.428  10.349  0.3372  1.0184  1.4774
  107MOL0     H14391  -0.917   7.269  10.424 -0.0764 -0.1409 -2.5198
  107MOL0     H14392  -1.151   7.263  10.499  0.2340  0.2726  0.3512
  107MOL0     H14393  -1.176   7.438  10.445 -0.4131  0.2182 -2.1627
  107MOL0     H14394  -1.097   7.209  10.261  2.7354  1.5088  0.6941
  107MOL0     H14395  -1.116   7.376  10.218 -0.3171  0.9454  1.2235
  107MOL0     H14396  -1.363   7.382  10.076 -2.2113  0.5970 -1.0962
  107MOL0     H14397  -1.730   7.341  10.222 -0.1974 -2.2576 -0.5550
  107MOL0     H14398  -1.641   7.468  10.126 -0.2387 -0.5376 -2.7552
  107MOL0     H14399  -1.571   7.310   9.959 -0.6469  0.2636 -1.6216
  107MOL0     H14400  -1.733   7.354   9.961  0.3132  2.1847  1.1527
  107MOL0     H14401  -1.783   7.127  10.093 -0.7530 -0.2798 -1.7004
  107MOL0     H14402  -1.609   7.095  10.036  0.8776  0.8085 -1.2606
  107MOL0     H14403  -1.802   7.014   9.898 -2.2735  0.6433 -1.6793
  107MOL0     H14404  -1.675   7.097   9.811 -0.4390  0.3382 -0.9991
  107MOL0     H14405  -2.016   6.980   9.877  0.3430  0.6585  0.8067
  107MOL0     H14406  -2.193   6.863   9.925  0.5704  0.4142 -0.3780
  107MOL0     H14407  -2.256   6.943  10.068 -0.4294  0.4957 -0.1885
  107MOL0     H14408  -2.350   6.930   9.912  0.1590 -1.1062  0.3701
  107MOL0     H14409  -2.644   6.915  10.072 -1.3402 -2.8765 -3.9061
  107MOL0     H14410  -2.862   6.912  10.060 -1.5062  0.7823 -0.6094
  107MOL0     H14411  -3.117   6.939   9.990  3.1535 -0.7006  0.4475
  107MOL0     H14412  -3.070   7.010  10.149 -1.4984 -0.2418  1.4096
  107MOL0     H14413  -3.308   7.000  10.126  0.9894 -1.3526 -1.2521
  107MOL0     H14414  -3.255   7.168  10.139 -2.0661  0.8227  0.1920
  107MOL0     H14415  -3.340   7.033   9.880 -3.0923  0.6564 -0.7694
  107MOL0     H14416  -3.282   7.196   9.889 -0.9732 -0.7776 -1.0298
  107MOL0     H14417  -3.519   7.077  10.044  0.9350  0.9415  1.4146
  107MOL0     H14418  -3.484   7.247  10.042 -0.1632  2.7464 -3.7195
  107MOL0     H14419  -3.561   7.097   9.792  1.3560 -2.0351  3.1027
  107MOL0     H14420  -3.526   7.267   9.795  1.4241 -1.1199 -1.3911
  107MOL0     H14421  -3.738   7.143   9.963  0.8720  0.5336  2.2969
  107MOL0     H14422  -3.693   7.317   9.957 -1.9169  0.2057 -0.7894
  107MOL0     H14423  -3.822   7.141   9.734  0.2797 -0.0180 -1.3711
  107MOL0     H14424  -3.730   7.281   9.687 -0.4212 -0.8091  0.0857
  107MOL0     H14425  -3.960   7.343   9.686  0.3506 -0.0315  0.0186
  107MOL0     H14426  -3.856   7.433   9.800 -0.3651 -0.0330 -1.7513
  107MOL0     H14427  -2.885   7.319   9.918 -1.3698  0.3341  0.9825
  107MOL0     H14428  -2.652   7.330   9.927 -0.4822  0.3979  0.7449
  107MOL0     H14429  -2.227   7.413   9.956 -1.3066 -0.7393 -0.2124
  107MOL0     H14430  -1.988   7.405   9.875  0.3288  0.6878 -2.0989
  107MOL0     H14431  -0.070   7.508  10.655 -2.0652  1.4241  2.0622
  107MOL0     H14432   0.116   7.397  10.774 -0.6790  2.1925 -1.8836
  107MOL0     H14433   0.369   7.050  10.848  3.1737  1.2735  0.9166
  107MOL0     H14434   0.564   6.939  10.967  0.8881  0.5387 -0.1147
  107MOL0     H14435   0.536   6.812  11.371  0.4824 -2.3206 -2.5755
  107MOL0     H14436   0.713   6.819  11.326  0.0618 -0.0981 -0.4218
  107MOL0     H14437   0.663   6.975  11.522  3.6401  0.9802 -0.8112
  107MOL0     H14438   0.552   7.064  11.410  0.8582  1.3556  1.4800
  107MOL0     H14439   0.737   7.104  11.246 -0.2254  1.1046 -0.1705
  107MOL0     H14440   0.837   7.019  11.362 -0.0721  0.0635 -0.4009
  107MOL0     H14441   0.697   7.278  11.430 -0.0006 -0.0421  0.7272
  107MOL0     H14442   0.864   7.269  11.369 -0.6911 -0.0378 -1.8047
  107MOL0     H14443   0.925   7.165  11.767  1.0699 -1.2531 -0.8720
  107MOL0     H14444   0.363   6.939  11.330 -1.6715 -0.9630 -1.1662
  107MOL0     H14445   0.171   7.064  11.234 -0.5297 -0.5736 -0.1066
  108MOL0     O14446   2.381   5.621   9.742  0.4247  0.6795 -0.3317
  108MOL0     C14447   2.493   5.668   9.755  0.2561 -0.1429  0.4665
  108MOL0     O14448   2.522   5.802   9.777 -0.0210  0.2320  0.7144
  108MOL0     C14449   2.420   5.889   9.773 -0.6863  0.3078  0.7248
  108MOL0     C14450   2.357   5.954   9.888 -0.7450  0.0291  0.5613
  108MOL0     C14451   2.233   6.009   9.872  0.1062 -1.0806 -0.5335
  108MOL0     C14452   2.182   6.039   9.741 -0.0458  0.3684  0.4438
  108MOL0     O14453   2.073   6.116   9.724 -0.2292 -0.5936  0.4759
  108MOL0     C14454   1.955   6.078   9.798  0.5927 -0.4801  0.6696
  108MOL0     C14455   1.830   6.131   9.727  0.6525 -0.7228 -0.5247
  108MOL0     C14456   1.824   6.111   9.578  0.2580  0.7033 -0.5493
  108MOL0     C14457   1.705   6.179   9.507 -0.3986  0.1526 -0.4533
  108MOL0     C14458   1.572   6.132   9.569 -0.0715  0.6702  0.5007
  108MOL0     C14459   1.457   6.175   9.482  0.1769  0.2543 -0.4985
  108MOL0     C14460   1.324   6.123   9.546 -0.3597 -1.0141 -1.2986
  108MOL0     C14461   1.301   6.197   9.684 -0.4592  0.4608  0.7811
  108MOL0     N14462   1.300   6.342   9.662 -0.3384 -0.6084  1.0821
  108MOL0     C14463   1.232   6.427   9.571  0.6616 -1.3079 -1.1058
  108MOL0     C14464   1.249   6.554   9.616 -0.1057  0.2645  0.6094
  108MOL0     C14465   1.192   6.686   9.550  0.0853  1.1391  0.2120
  108MOL0     C14466   1.078   6.752   9.628 -0.2890 -0.2790  0.2921
  108MOL0     C14467   1.119   6.801   9.773  0.3559  1.2353 -0.2722
  108MOL0     C14468   1.009   6.852   9.862 -0.1322 -0.2259  0.9099
  108MOL0     O14469   0.893   6.764   9.861  0.5430  0.4729 -0.2193
  108MOL0     C14470   0.772   6.822   9.891 -0.1644  0.2935 -0.4488
  108MOL0     C14471   0.756   6.946   9.946  0.1889  0.4085  0.1729
  108MOL0     C14472   0.633   7.001   9.973  0.4874 -0.2274  0.0357
  108MOL0     C14473   0.632   7.146  10.017 -0.0829  0.4567  0.5742
  108MOL0     C14474   0.514   6.914   9.958  0.0081 -0.7565  0.9360
  108MOL0     C14475   0.377   6.956   9.989 -0.0559 -1.1993 -0.4529
  108MOL0     O14476   0.276   6.873   9.946  0.0761 -0.1765  0.4172
  108MOL0     C14477   0.177   6.842  10.034  0.2368 -0.6351 -0.7417
  108MOL0     C14478   0.052   6.830   9.969  0.5435 -0.0474 -0.3270
  108MOL0     C14479  -0.060   6.795  10.047 -0.2857 -0.4159  0.0020
  108MOL0     C14480  -0.050   6.788  10.189  0.6386 -0.2278  0.6834
  108MOL0     O14481  -0.157   6.764  10.274  0.4388 -0.5393  0.5065
  108MOL0     C14482  -0.292   6.765  10.218  0.1200 -0.1335  0.0962
  108MOL0     C14483  -0.385   6.746  10.338 -0.3282  0.1948  0.4896
  108MOL0     C14484  -0.394   6.594  10.356 -0.3794  0.3523  0.1187
  108MOL0     C14485  -0.432   6.541  10.495  0.5138  0.2350 -0.5352
  108MOL0     C14486  -0.585   6.566  10.515 -0.4361  0.0335 -0.5064
  108MOL0     C14487  -0.619   6.510  10.648  0.4831 -0.4100 -0.5105
  108MOL0     C14488  -0.769   6.534  10.670 -0.3718 -0.4814  0.0249
  108MOL0     C14489  -0.843   6.487  10.790 -0.1705  0.5813  0.9725
  108MOL0    Cl14490  -0.820   6.313  10.807 -0.1064 -0.1099  0.2824
  108MOL0     C14491   0.073   6.796  10.253 -0.4443 -0.7880  0.0805
  108MOL0     C14492   0.189   6.824  10.174  0.0174 -0.0222 -0.5530
  108MOL0     O14493   0.353   7.058  10.060  0.0709  0.0222 -0.6106
  108MOL0     C14494   0.529   6.789   9.903 -0.2663 -0.4314  0.1514
  108MOL0     C14495   0.658   6.740   9.871 -0.1718 -0.1826  0.0107
  108MOL0     N14496   1.335   6.545   9.710 -0.2441  0.0060  0.1597
  108MOL0     N14497   1.362   6.427   9.741 -0.4341  0.9652  0.2070
  108MOL0     C14498   2.257   6.001   9.626  0.4141  0.6562  0.2184
  108MOL0     C14499   2.374   5.918   9.645  0.5157  0.2894 -0.3738
  108MOL0     C14500   2.622   5.587   9.757  0.4032  0.2850  0.3723
  108MOL0     C14501   2.622   5.446   9.725  0.4987  0.8200  0.2149
  108MOL0     C14502   2.742   5.375   9.712  1.2022 -0.2718  0.1322
  108MOL0     C14503   2.861   5.444   9.711 -0.6623 -0.8096  0.5060
  108MOL0     O14504   2.976   5.376   9.675 -0.6309 -0.2851  0.8149
  108MOL0     C14505   3.089   5.452   9.620  0.2919  1.0076 -0.3232
  108MOL0     C14506   3.051   5.527   9.491  0.1657  0.5527  0.2687
  108MOL0     C14507   3.023   5.427   9.371 -0.7113 -0.1494 -0.2666
  108MOL0     C14508   2.884   5.361   9.379  0.3495  0.1030  0.2799
  108MOL0     C14509   2.826   5.357   9.247 -0.4549  0.4180 -0.5766
  108MOL0     C14510   2.796   5.362   9.128 -0.1819 -0.2880 -0.7331
  108MOL0     C14511   2.858   5.575   9.760 -0.0192  0.4056  1.3651
  108MOL0     C14512   2.742   5.650   9.774 -1.0201  0.3478 -0.0878
  108MOL0     H14513   2.407   5.940   9.983 -0.3971 -0.3110  0.3344
  108MOL0     H14514   2.182   6.062   9.951  2.9859 -0.8430  1.3169
  108MOL0     H14515   1.952   5.968   9.797  3.7381 -0.6765  1.4326
  108MOL0     H14516   1.964   6.121   9.899  3.0858  1.0466 -0.1171
  108MOL0     H14517   1.735   6.096   9.770  1.0994 -1.4943 -0.1457
  108MOL0     H14518   1.831   6.239   9.747  1.2730 -1.2196  2.7426
  108MOL0     H14519   1.918   6.151   9.538  1.0029  0.4593  0.8793
  108MOL0     H14520   1.814   6.005   9.556  0.9165  0.1665  1.5121
  108MOL0     H14521   1.705   6.288   9.510 -0.2608  0.2486 -2.3337
  108MOL0     H14522   1.709   6.153   9.400  0.0574  0.1867 -0.4435
  108MOL0     H14523   1.578   6.023   9.577  2.2082  0.3671 -2.9118
  108MOL0     H14524   1.570   6.183   9.666 -0.1349 -0.0262  0.8761
  108MOL0     H14525   1.465   6.284   9.477 -0.3762  0.5455  2.9465
  108MOL0     H14526   1.468   6.122   9.387  0.6677  2.1710 -1.5599
  108MOL0     H14527   1.238   6.138   9.480 -0.8405  1.6222 -0.1704
  108MOL0     H14528   1.319   6.015   9.565 -2.0958 -0.8889 -0.8446
  108MOL0     H14529   1.379   6.175   9.758  1.9156  1.3429 -1.2942
  108MOL0     H14530   1.204   6.169   9.724 -0.9657 -0.2489 -0.8537
  108MOL0     H14531   1.170   6.394   9.489 -1.7549  1.0796 -0.3884
  108MOL0     H14532   1.281   6.750   9.543 -0.0902  1.3394 -0.2093
  108MOL0     H14533   1.158   6.652   9.452  0.5358  1.6957 -0.1470
  108MOL0     H14534   0.994   6.682   9.635 -0.0123 -0.7921 -1.0211
  108MOL0     H14535   1.060   6.842   9.568  0.1403  0.2596  0.9636
  108MOL0     H14536   1.208   6.865   9.777  2.2981 -1.2730 -0.1217
  108MOL0     H14537   1.161   6.714   9.825 -1.7959 -0.2717 -0.9404
  108MOL0     H14538   0.972   6.944   9.816 -4.1405 -1.6093  0.9496
  108MOL0     H14539   1.041   6.870   9.965 -1.6084 -1.4752  1.6287
  108MOL0     H14540   0.842   7.011   9.956  0.9888 -0.8736  2.3653
  108MOL0     H14541   0.735   7.179  10.030  0.1642 -0.8320  2.1688
  108MOL0     H14542   0.584   7.202   9.936  1.8679 -0.9129 -1.6384
  108MOL0     H14543   0.587   7.150  10.116 -0.8963  1.7002  0.1716
  108MOL0     H14544   0.048   6.842   9.861  0.4004 -0.5710 -0.3824
  108MOL0     H14545  -0.151   6.799   9.988 -0.7979 -2.3436  0.5932
  108MOL0     H14546  -0.316   6.860  10.169 -1.2426 -0.7491 -0.4842
  108MOL0     H14547  -0.308   6.681  10.150 -1.1817 -0.5102  0.8250
  108MOL0     H14548  -0.354   6.791  10.433 -2.9342  1.7326  0.7145
  108MOL0     H14549  -0.480   6.791  10.306 -0.8009 -1.2098 -0.1742
  108MOL0     H14550  -0.295   6.551  10.339 -0.2849  0.4891  0.3169
  108MOL0     H14551  -0.466   6.564  10.280  1.7197 -0.2402 -1.7311
  108MOL0     H14552  -0.415   6.434  10.503  0.4523  0.3451  1.3692
  108MOL0     H14553  -0.378   6.606  10.565 -2.5267  0.5301  1.7305
  108MOL0     H14554  -0.637   6.519  10.432  0.5344  0.7781 -1.5758
  108MOL0     H14555  -0.615   6.671  10.514 -1.9988 -0.3162  1.4969
  108MOL0     H14556  -0.596   6.405  10.667  0.0088 -0.1452  1.8827
  108MOL0     H14557  -0.558   6.572  10.715  1.4760 -0.1977 -1.5870
  108MOL0     H14558  -0.821   6.497  10.581  2.5078 -2.6643 -0.8964
  108MOL0     H14559  -0.791   6.640  10.653 -2.4791 -0.6954  1.0596
  108MOL0     H14560  -0.950   6.506  10.789 -0.2649  0.3603 -1.6652
  108MOL0     H14561  -0.793   6.538  10.872 -1.1699 -1.1069  2.7214
  108MOL0     H14562   0.079   6.799  10.361  3.7416 -0.0318 -0.0058
  108MOL0     H14563   0.282   6.837  10.228 -0.0185  0.4388 -0.6011
  108MOL0     H14564   0.450   6.715   9.890  0.9486 -1.8794  0.6596
  108MOL0     H14565   0.654   6.639   9.831 -0.1932  0.2209 -1.0606
  108MOL0     H14566   2.224   6.024   9.525  0.4506  2.2102  0.5259
  108MOL0     H14567   2.431   5.877   9.562  0.6736 -0.3253  0.0273
  108MOL0     H14568   2.539   5.378   9.711  1.3273 -1.5019  4.5726
  108MOL0     H14569   2.745   5.267   9.707 -0.6530 -0.4533  1.6973
  108MOL0     H14570   3.127   5.519   9.698  0.7191 -0.2715  0.6169
  108MOL0     H14571   3.158   5.376   9.582 -1.7223 -1.3352  0.3949
  108MOL0     H14572   3.130   5.600   9.473  0.2674  0.9444  2.1001
  108MOL0     H14573   2.960   5.585   9.503 -0.9823 -1.2384  0.5122
  108MOL0     H14574   3.103   5.352   9.367 -0.4124  0.1994 -1.0343
  108MOL0     H14575   3.039   5.475   9.274 -0.8438 -2.7233 -1.6578
  108MOL0     H14576   2.812   5.408   9.445 -0.9772  0.0952 -1.1037
  108MOL0     H14577   2.890   5.260   9.419 -2.4185 -0.0524  0.4334
  108MOL0     H14578   2.760   5.359   9.028 -1.1615  2.4517 -0.5516
  108MOL0     H14579   2.943   5.640   9.775  0.0162  0.6469  0.1829
  108MOL0     H14580   2.753   5.754   9.803  1.3707  0.5645 -1.5558
  109MOL0     O14581   8.491  10.567   1.718  0.1586 -0.1514 -0.2287
  109MOL0     C14582   8.565  10.552   1.623  0.0126 -0.9158 -0.3274
  109MOL0     O14583   8.551  10.597   1.496 -0.5531  0.4071  0.2326
  109MOL0     C14584   8.434  10.633   1.435 -0.3322 -0.6010  0.0521
  109MOL0     C14585   8.300  10.627   1.489 -1.0063  0.5345  0.9640
  109MOL0     C14586   8.187  10.659   1.411 -0.2101 -0.0590 -0.5518
  109MOL0     C14587   8.207  10.698   1.282  0.2974 -0.3694 -1.4910
  109MOL0     O14588   8.109  10.751   1.212 -0.5433 -0.3881  0.0463
  109MOL0     C14589   8.021  10.655   1.160 -1.0680  0.1540  1.2257
  109MOL0     C14590   7.878  10.680   1.215 -1.2831 -0.0103  0.5375
  109MOL0     C14591   7.773  10.607   1.142 -0.1639 -0.0371 -0.7084
  109MOL0     C14592   7.651  10.585   1.233  1.1241  0.0252 -0.7560
  109MOL0     C14593   7.531  10.534   1.156  1.0531  0.2057 -0.8197
  109MOL0     C14594   7.391  10.542   1.224 -0.3777 -0.4227 -0.0232
  109MOL0     C14595   7.282  10.513   1.123 -0.3507 -0.7133 -0.8186
  109MOL0     C14596   7.141  10.538   1.174  0.2040  0.0102  0.1195
  109MOL0     N14597   7.106  10.679   1.152  0.6216  0.3469 -0.7961
  109MOL0     C14598   7.103  10.758   1.263 -0.4375  0.2473 -0.1020
  109MOL0     C14599   7.083  10.878   1.213 -0.4636 -1.0802 -0.0200
  109MOL0     C14600   7.090  11.009   1.299 -0.1440 -0.7225 -0.3823
  109MOL0     C14601   7.211  11.100   1.293  0.2740 -0.6627 -0.6021
  109MOL0     C14602   7.340  11.032   1.286 -0.5945 -0.2269 -0.2445
  109MOL0     C14603   7.393  10.975   1.154 -0.3771  0.6675 -0.1799
  109MOL0     O14604   7.536  10.971   1.155  0.4321 -0.5359  0.4887
  109MOL0     C14605   7.600  10.940   1.038  0.4221 -0.1843  0.0786
  109MOL0     C14606   7.734  10.966   1.026  0.3873 -0.8852  0.1316
  109MOL0     C14607   7.806  10.953   0.906  0.5146  0.0764 -0.3863
  109MOL0     C14608   7.956  10.971   0.908  0.9833 -0.7551 -0.1203
  109MOL0     C14609   7.739  10.905   0.794  0.7128  0.2417 -0.4660
  109MOL0     C14610   7.804  10.895   0.657 -0.1099  1.1015 -0.6148
  109MOL0     O14611   7.742  10.813   0.561 -0.2112  0.0989  0.2920
  109MOL0     C14612   7.787  10.817   0.433  0.0472 -0.4219 -0.2003
  109MOL0     C14613   7.911  10.763   0.398 -0.5096 -0.4885  0.1813
  109MOL0     C14614   7.967  10.779   0.272  0.3778 -0.6259  0.5949
  109MOL0     C14615   7.890  10.840   0.167 -0.7575 -0.6694 -0.5420
  109MOL0     O14616   7.936  10.863   0.041  0.3942 -0.8496  0.0914
  109MOL0     C14617   8.067  10.820  -0.001 -0.2289  0.5095  0.0802
  109MOL0     C14618   8.079  10.851  -0.151  0.7050 -0.5911 -0.8547
  109MOL0     C14619   8.212  10.816  -0.215 -0.8752  0.9363  0.8094
  109MOL0     C14620   8.217  10.855  -0.362  0.5782  0.0983 -0.4745
  109MOL0     C14621   8.350  10.814  -0.416  0.3603 -0.6955 -0.3214
  109MOL0     C14622   8.361  10.820  -0.571 -0.1256 -0.5657  0.5739
  109MOL0     C14623   8.502  10.786  -0.617  0.7357 -0.3941  0.5211
  109MOL0     C14624   8.531  10.805  -0.764  0.2134 -0.2202  0.0267
  109MOL0    Cl14625   8.440  10.693  -0.867  0.0338  0.1163 -0.0731
  109MOL0     C14626   7.764  10.892   0.200 -0.4245  0.5875 -0.0199
  109MOL0     C14627   7.712  10.881   0.331  0.0801 -0.0625 -0.7396
  109MOL0     O14628   7.900  10.960   0.636 -0.5195  0.1337 -0.3210
  109MOL0     C14629   7.600  10.879   0.803 -0.4100  0.4134 -0.0487
  109MOL0     C14630   7.536  10.894   0.925 -0.1844  0.4082  0.7496
  109MOL0     N14631   7.083  10.868   1.070  0.2879 -0.2007 -0.0176
  109MOL0     N14632   7.108  10.745   1.033  0.3043  0.2727 -0.1318
  109MOL0     C14633   8.334  10.710   1.225  0.2245 -0.1715  0.6242
  109MOL0     C14634   8.439  10.684   1.308  0.1261  0.2439 -0.2687
  109MOL0     C14635   8.691  10.482   1.658 -0.1974  0.2035  1.0119
  109MOL0     C14636   8.680  10.370   1.742 -0.0890  0.1154  0.6278
  109MOL0     C14637   8.791  10.284   1.766 -0.3370  0.1872  0.7468
  109MOL0     C14638   8.911  10.308   1.696  0.3897 -0.2780 -0.1921
  109MOL0     O14639   9.019  10.229   1.719  0.1562  0.4462  0.1884
  109MOL0     C14640   9.147  10.268   1.687  0.1533 -0.1822  0.7996
  109MOL0     C14641   9.255  10.192   1.758  0.0948  0.2349 -0.7325
  109MOL0     C14642   9.254  10.206   1.909 -0.6020  0.4497  0.2330
  109MOL0     C14643   9.337  10.099   1.979 -0.2243 -0.0020  0.0071
  109MOL0     C14644   9.479  10.098   1.952 -0.3589  0.7187 -0.1054
  109MOL0     C14645   9.602  10.085   1.936  0.1853 -0.6398  0.4354
  109MOL0     C14646   8.916  10.409   1.605  0.6777  0.3550  0.5297
  109MOL0     C14647   8.805  10.493   1.580 -0.2225 -0.1813 -0.5803
  109MOL0     H14648   8.274  10.608   1.593 -1.0091 -0.3410  0.8061
  109MOL0     H14649   8.094  10.642   1.464  0.8969 -1.3327  1.0478
  109MOL0     H14650   8.026  10.681   1.054 -3.5390 -0.5574  0.8616
  109MOL0     H14651   8.048  10.549   1.166 -1.9527 -0.4999 -3.0600
  109MOL0     H14652   7.877  10.638   1.316 -0.0295  3.5657  2.2211
  109MOL0     H14653   7.856  10.786   1.228 -0.0305  0.4342 -0.7910
  109MOL0     H14654   7.755  10.681   1.063 -0.0978  0.7849  0.0386
  109MOL0     H14655   7.800  10.506   1.108  1.3636  0.1444 -0.1068
  109MOL0     H14656   7.672  10.520   1.319 -0.8630 -0.3942 -0.5404
  109MOL0     H14657   7.624  10.687   1.263  0.9237  0.9234 -3.7079
  109MOL0     H14658   7.526  10.591   1.063 -0.6032  2.0743  0.3286
  109MOL0     H14659   7.556  10.435   1.118 -1.5158 -0.3779 -1.1297
  109MOL0     H14660   7.388  10.468   1.305  0.4158 -1.8629 -1.2608
  109MOL0     H14661   7.382  10.638   1.275  0.3486 -0.8077  0.8705
  109MOL0     H14662   7.290  10.573   1.032 -1.1748 -1.4803 -1.4164
  109MOL0     H14663   7.284  10.408   1.093 -0.4980 -0.6717 -0.9740
  109MOL0     H14664   7.125  10.519   1.281 -4.4185  0.2456 -0.3322
  109MOL0     H14665   7.068  10.479   1.118 -0.0262  1.1270 -0.8030
  109MOL0     H14666   7.131  10.740   1.367  2.3490 -0.7267 -0.9257
  109MOL0     H14667   7.004  11.070   1.271 -0.4712 -1.0578 -0.1104
  109MOL0     H14668   7.066  10.986   1.403  2.3250 -0.7530  0.2466
  109MOL0     H14669   7.222  11.153   1.388 -0.4594  0.8102 -1.2915
  109MOL0     H14670   7.185  11.184   1.226  1.0428  0.5168  0.5371
  109MOL0     H14671   7.361  10.957   1.362  1.1203 -0.1561 -0.6017
  109MOL0     H14672   7.408  11.113   1.315 -2.1656  0.6915  1.0392
  109MOL0     H14673   7.357  11.024   1.063  0.7380 -0.5096 -1.3078
  109MOL0     H14674   7.360  10.870   1.155  0.5029  0.3809  0.6207
  109MOL0     H14675   7.780  11.002   1.117  0.2241  1.6583 -0.7316
  109MOL0     H14676   7.981  11.053   0.841 -0.0013 -1.1185 -0.9598
  109MOL0     H14677   7.993  11.002   1.006 -1.0585  0.8489  0.2083
  109MOL0     H14678   8.022  10.890   0.875  3.4349  1.7317 -1.7783
  109MOL0     H14679   7.958  10.723   0.488  0.8192 -0.0977 -0.3128
  109MOL0     H14680   8.072  10.748   0.270  1.2446  1.9272  2.1293
  109MOL0     H14681   8.146  10.864   0.060 -0.0079 -0.7169  0.7131
  109MOL0     H14682   8.069  10.711   0.008 -0.9534  0.3928 -1.0736
  109MOL0     H14683   7.998  10.798  -0.202  0.2436 -0.4427 -0.2912
  109MOL0     H14684   8.056  10.958  -0.149  1.1062 -0.4855 -1.6386
  109MOL0     H14685   8.218  10.707  -0.211 -1.8298  0.8684  0.6109
  109MOL0     H14686   8.297  10.857  -0.160  1.8041 -0.8460 -1.7458
  109MOL0     H14687   8.137  10.810  -0.422 -1.2606 -0.1984  2.0667
  109MOL0     H14688   8.196  10.962  -0.370 -1.8303 -0.2500  0.3468
  109MOL0     H14689   8.366  10.709  -0.389 -1.2735 -1.3218 -1.6558
  109MOL0     H14690   8.434  10.875  -0.379  1.5766 -1.8948 -1.0092
  109MOL0     H14691   8.286  10.760  -0.623  0.7809 -1.5707  0.3797
  109MOL0     H14692   8.333  10.924  -0.591 -1.9072 -0.9616  0.8286
  109MOL0     H14693   8.520  10.682  -0.589 -0.7287 -0.6303  0.6411
  109MOL0     H14694   8.564  10.860  -0.565  3.7831 -1.8490 -0.7773
  109MOL0     H14695   8.640  10.804  -0.769  0.2155  1.4896 -0.8663
  109MOL0     H14696   8.513  10.905  -0.804  1.0090 -0.7630 -1.8124
  109MOL0     H14697   7.705  10.941   0.124 -1.0149  0.1701  0.1531
  109MOL0     H14698   7.619  10.937   0.334  0.3365  0.3999 -1.2616
  109MOL0     H14699   7.543  10.860   0.712  1.1605  1.3777 -1.2903
  109MOL0     H14700   7.430  10.873   0.917  0.1297 -0.7618 -1.0403
  109MOL0     H14701   8.354  10.758   1.130  3.9050 -1.0624  0.8125
  109MOL0     H14702   8.535  10.685   1.258 -0.4167  1.8899 -1.3957
  109MOL0     H14703   8.587  10.358   1.797  0.8032 -1.1971  1.9186
  109MOL0     H14704   8.777  10.207   1.841  1.6338 -2.3734 -1.3498
  109MOL0     H14705   9.165  10.252   1.580 -0.2658 -3.6064  1.1411
  109MOL0     H14706   9.161  10.372   1.717  1.6237  1.5154 -4.5887
  109MOL0     H14707   9.352  10.233   1.728 -1.1215  1.7580 -2.9268
  109MOL0     H14708   9.234  10.089   1.729  0.0065  0.1837 -0.4870
  109MOL0     H14709   9.149  10.192   1.932 -1.1984  1.7502 -1.4126
  109MOL0     H14710   9.289  10.304   1.944  1.0608 -0.3874  1.0333
  109MOL0     H14711   9.294   9.999   1.971 -1.2124 -0.0154  3.6318
  109MOL0     H14712   9.317  10.119   2.084  0.8843  1.0662  0.0320
  109MOL0     H14713   9.708  10.098   1.932  0.4355 -2.7045 -1.5719
  109MOL0     H14714   8.999  10.421   1.537  0.3653  0.5360  0.1806
  109MOL0     H14715   8.805  10.564   1.498  0.0503 -1.8772 -2.1239
  110MOL0     O14716   1.318   9.385   7.800 -0.1382 -0.2504  0.3526
  110MOL0     C14717   1.276   9.269   7.796  0.1958  0.5478  0.1535
  110MOL0     O14718   1.347   9.149   7.790 -0.1212  0.2158 -0.0166
  110MOL0     C14719   1.475   9.149   7.812 -0.1601  0.1694 -0.1071
  110MOL0     C14720   1.567   9.226   7.729  1.1878 -0.2910  0.2574
  110MOL0     C14721   1.701   9.220   7.768  0.8776 -0.4683  0.1989
  110MOL0     C14722   1.748   9.134   7.868 -0.2832 -0.2429 -0.1216
  110MOL0     O14723   1.883   9.119   7.897 -0.7812  0.4418  0.3022
  110MOL0     C14724   1.983   9.148   7.799  0.1575  0.1659  0.0119
  110MOL0     C14725   2.123   9.115   7.848 -0.2911 -0.4429  0.5520
  110MOL0     C14726   2.233   9.179   7.777  0.4875 -0.1832 -0.1292
  110MOL0     C14727   2.366   9.130   7.836 -0.0369  0.2930  0.0478
  110MOL0     C14728   2.477   9.215   7.772  0.3147  0.1135  1.1780
  110MOL0     C14729   2.612   9.179   7.847  0.6560 -0.5318 -0.3653
  110MOL0     C14730   2.726   9.213   7.761 -0.6415 -0.3394  0.9615
  110MOL0     C14731   2.857   9.178   7.827  0.1354 -0.1587 -0.2021
  110MOL0     N14732   2.959   9.272   7.780 -0.4874 -0.3449 -0.0943
  110MOL0     C14733   2.953   9.412   7.790  0.5412 -0.4600  0.0262
  110MOL0     C14734   3.050   9.463   7.725  0.7758 -0.2738  0.8829
  110MOL0     C14735   3.056   9.609   7.688  0.7519 -0.0644 -0.5753
  110MOL0     C14736   2.911   9.651   7.644  0.2597 -0.2410  0.4512
  110MOL0     C14737   2.922   9.789   7.568 -0.5018 -0.6236  0.5983
  110MOL0     C14738   2.791   9.828   7.513 -0.0046  0.2704  0.4216
  110MOL0     O14739   2.795   9.967   7.503 -0.4472  0.1956  0.1297
  110MOL0     C14740   2.688  10.031   7.442  0.0697  0.2499 -0.4055
  110MOL0     C14741   2.572   9.970   7.404 -0.4810 -1.1958  0.0712
  110MOL0     C14742   2.479  10.041   7.329 -0.0032  0.4988 -0.5032
  110MOL0     C14743   2.345   9.981   7.294 -0.4105 -0.2671  0.2697
  110MOL0     C14744   2.505  10.174   7.283  0.1964 -0.5738 -0.3710
  110MOL0     C14745   2.415  10.245   7.189  1.0645 -0.0050 -0.5572
  110MOL0     O14746   2.366  10.176   7.076 -0.1100 -0.4718 -0.0626
  110MOL0     C14747   2.295  10.253   6.982  0.0297 -0.8155 -1.1501
  110MOL0     C14748   2.172  10.320   7.009  0.1521  0.6122 -0.0504
  110MOL0     C14749   2.103  10.391   6.919  0.5004 -0.1999 -0.2903
  110MOL0     C14750   2.163  10.418   6.790  0.7783  0.0887 -0.1785
  110MOL0     O14751   2.099  10.513   6.708 -0.1520  0.1781 -0.5312
  110MOL0     C14752   2.171  10.545   6.589  0.1643  0.7833  0.1776
  110MOL0     C14753   2.110  10.465   6.473  0.0837  0.3366 -0.5416
  110MOL0     C14754   1.956  10.454   6.482  0.8602  0.9043 -0.0964
  110MOL0     C14755   1.892  10.386   6.354  0.2390 -0.5033  0.6862
  110MOL0     C14756   1.736  10.387   6.367  0.0875  0.7088  0.5085
  110MOL0     C14757   1.666  10.296   6.259  0.6589 -0.6116 -0.8616
  110MOL0     C14758   1.707  10.330   6.109  0.4309  1.2021  0.2445
  110MOL0     C14759   1.618  10.248   6.004 -0.4760 -0.5579 -0.0369
  110MOL0    Cl14760   1.689  10.090   5.986 -0.3562 -0.5396  0.2049
  110MOL0     C14761   2.283  10.341   6.757 -0.2119 -0.7608 -0.4776
  110MOL0     C14762   2.350  10.269   6.859  0.1108  0.3042  0.6258
  110MOL0     O14763   2.408  10.362   7.213  0.5470 -0.2625 -0.1844
  110MOL0     C14764   2.627  10.236   7.323 -0.3942  0.2151 -0.8195
  110MOL0     C14765   2.712  10.164   7.405 -0.6823  0.1098 -0.0549
  110MOL0     N14766   3.119   9.351   7.664 -0.7365  0.5688  0.3054
  110MOL0     N14767   3.063   9.235   7.700 -0.2975 -0.3856 -0.3112
  110MOL0     C14768   1.655   9.065   7.947  0.2147  0.7786  0.4865
  110MOL0     C14769   1.516   9.078   7.928 -0.1700  0.5702 -0.3386
  110MOL0     C14770   1.138   9.246   7.820 -0.0563  0.7822  0.3415
  110MOL0     C14771   1.094   9.117   7.862  0.0317  0.2144 -1.1490
  110MOL0     C14772   0.963   9.112   7.906  0.7713  0.5766 -0.7935
  110MOL0     C14773   0.863   9.216   7.893  0.6884  0.4039 -0.5165
  110MOL0     O14774   0.724   9.199   7.913 -0.4276 -0.2256 -0.1177
  110MOL0     C14775   0.701   9.109   8.018  0.3729  0.7696  0.0799
  110MOL0     C14776   0.548   9.085   8.033  0.4646  0.0389  0.7819
  110MOL0     C14777   0.461   9.206   8.056 -0.5179  0.3972 -0.5226
  110MOL0     C14778   0.317   9.160   8.079  0.7837 -0.7136  0.1192
  110MOL0     C14779   0.230   9.283   8.116 -0.4107 -0.5182 -0.2615
  110MOL0     C14780   0.176   9.390   8.137 -0.2925 -0.4693  0.3548
  110MOL0     C14781   0.912   9.334   7.847 -0.4214  0.2190 -0.7765
  110MOL0     C14782   1.048   9.351   7.816 -0.2625  0.7217 -0.4990
  110MOL0     H14783   1.538   9.284   7.642 -0.8618  1.0842  1.7681
  110MOL0     H14784   1.774   9.280   7.715 -0.0813  0.4323 -0.1403
  110MOL0     H14785   1.968   9.100   7.702  0.5707 -0.0764  0.0631
  110MOL0     H14786   1.979   9.254   7.775 -0.8269 -0.8839 -6.0258
  110MOL0     H14787   2.117   9.157   7.948  0.2998  2.8755 -0.6806
  110MOL0     H14788   2.142   9.008   7.863 -2.4036 -0.9640 -0.1394
  110MOL0     H14789   2.230   9.161   7.669 -0.4398  1.4708 -0.4035
  110MOL0     H14790   2.217   9.284   7.801 -2.9965 -0.9710  1.6299
  110MOL0     H14791   2.358   9.147   7.944  0.4841  0.1643  0.1099
  110MOL0     H14792   2.384   9.023   7.818 -2.1144 -0.4607  1.9785
  110MOL0     H14793   2.482   9.178   7.669  0.6401 -1.1689  1.6259
  110MOL0     H14794   2.460   9.323   7.780  0.5038  0.2048  0.3911
  110MOL0     H14795   2.606   9.233   7.941  2.1805  0.9310 -1.0615
  110MOL0     H14796   2.615   9.072   7.870 -2.1195 -0.2427  2.0177
  110MOL0     H14797   2.716   9.153   7.671  3.0025 -0.8574  0.7738
  110MOL0     H14798   2.719   9.315   7.721  2.5850  0.3242  1.7769
  110MOL0     H14799   2.870   9.071   7.809 -3.2620 -0.6917 -0.1208
  110MOL0     H14800   2.846   9.191   7.935 -2.5011 -1.2044 -0.2667
  110MOL0     H14801   2.868   9.463   7.833  0.1909  0.0826 -1.2410
  110MOL0     H14802   3.096   9.664   7.773  2.3296 -1.9212 -0.0546
  110MOL0     H14803   3.130   9.610   7.608  0.6837 -1.9462 -0.7035
  110MOL0     H14804   2.851   9.650   7.736 -0.3089  0.3131  0.0875
  110MOL0     H14805   2.874   9.570   7.581  1.5453 -1.3679  1.0645
  110MOL0     H14806   2.991   9.776   7.484  0.6912 -0.0386  1.4492
  110MOL0     H14807   2.958   9.867   7.636 -1.1782 -1.4380  1.9251
  110MOL0     H14808   2.724   9.808   7.597  3.0311  0.8482  3.1749
  110MOL0     H14809   2.773   9.777   7.418 -0.6010 -0.3409  0.8593
  110MOL0     H14810   2.555   9.864   7.415  0.7477 -1.3525  0.6653
  110MOL0     H14811   2.331   9.959   7.188 -1.2710  0.9376  0.1077
  110MOL0     H14812   2.321   9.885   7.341 -0.1908  0.7255  2.5522
  110MOL0     H14813   2.262  10.049   7.316 -0.3931  1.5699 -4.1975
  110MOL0     H14814   2.137  10.307   7.111  3.0095 -0.6564  0.8578
  110MOL0     H14815   2.014  10.435   6.963  1.6611  0.3943  1.5964
  110MOL0     H14816   2.140  10.647   6.565  1.6881  0.7359 -2.3279
  110MOL0     H14817   2.280  10.538   6.584  0.0838 -0.6147 -0.1270
  110MOL0     H14818   2.130  10.515   6.379 -7.1563  2.6560 -1.5176
  110MOL0     H14819   2.144  10.361   6.470  1.0436  0.5482  1.2866
  110MOL0     H14820   1.913  10.555   6.492  0.1955  0.6086  0.1067
  110MOL0     H14821   1.929  10.393   6.568 -0.2916  0.0337 -1.0363
  110MOL0     H14822   1.918  10.446   6.267 -0.9889 -1.2063 -0.2017
  110MOL0     H14823   1.922  10.281   6.348 -2.2146 -1.2980  1.0579
  110MOL0     H14824   1.697  10.489   6.357 -1.2334  0.0876 -1.3106
  110MOL0     H14825   1.720  10.351   6.469 -1.8081  0.7762  0.2747
  110MOL0     H14826   1.694  10.193   6.280 -1.5432 -1.4289 -1.6189
  110MOL0     H14827   1.558  10.304   6.276  0.6156  0.0966 -1.3907
  110MOL0     H14828   1.813  10.311   6.089 -0.2011 -0.5474 -1.7198
  110MOL0     H14829   1.687  10.437   6.098  2.2865  1.4878 -0.6084
  110MOL0     H14830   1.627  10.311   5.915  2.1709  1.6109  1.6516
  110MOL0     H14831   1.517  10.239   6.046  0.2408  4.7142  3.5827
  110MOL0     H14832   2.329  10.351   6.659 -0.4214 -1.3531 -0.6398
  110MOL0     H14833   2.436  10.208   6.831  0.4149  1.0782 -0.2004
  110MOL0     H14834   2.656  10.335   7.289 -2.4259  0.4651 -2.0156
  110MOL0     H14835   2.799  10.207   7.455 -0.9039  0.6687 -0.1336
  110MOL0     H14836   1.690   8.999   8.026  0.2831 -1.8766 -1.6278
  110MOL0     H14837   1.447   9.020   7.989 -0.8821 -0.5684 -2.1424
  110MOL0     H14838   1.162   9.034   7.874 -0.3300 -0.0500 -0.9133
  110MOL0     H14839   0.935   9.011   7.933 -0.9854  0.9820 -0.9665
  110MOL0     H14840   0.761   9.017   8.023  1.1032  1.2075  5.1214
  110MOL0     H14841   0.725   9.163   8.110 -0.2422  1.3475 -0.0986
  110MOL0     H14842   0.525   9.019   8.118  0.3834 -0.3654  0.4512
  110MOL0     H14843   0.514   9.046   7.937  0.4562  1.5649  0.1491
  110MOL0     H14844   0.464   9.275   7.971  1.6614  0.2912 -0.5935
  110MOL0     H14845   0.502   9.257   8.144 -0.0851 -0.9649  0.0838
  110MOL0     H14846   0.300   9.086   8.158 -1.4721  0.0662  0.4331
  110MOL0     H14847   0.257   9.110   8.003 -1.4143 -0.1746  1.3933
  110MOL0     H14848   0.145   9.492   8.133 -0.8721 -0.5790  1.4139
  110MOL0     H14849   0.841   9.414   7.828 -1.4250 -0.4099  0.1706
  110MOL0     H14850   1.079   9.453   7.793  1.4101  0.2058 -0.6750
  111MOL0     O14851   0.090   2.003  10.410 -0.1653  0.1097 -0.1088
  111MOL0     C14852   0.142   2.091  10.481 -0.8723  0.5865  0.1275
  111MOL0     O14853   0.085   2.178  10.567  1.0839 -0.5123 -0.5267
  111MOL0     C14854  -0.055   2.193  10.554  0.4512 -0.5418 -0.0550
  111MOL0     C14855  -0.146   2.177  10.667 -0.4663  0.4851  0.3302
  111MOL0     C14856  -0.285   2.197  10.654 -1.3935 -0.1636 -0.7182
  111MOL0     C14857  -0.325   2.256  10.540 -0.6028  0.0205 -0.4690
  111MOL0     O14858  -0.457   2.299  10.538  0.6391  0.4482 -0.9089
  111MOL0     C14859  -0.529   2.285  10.418  0.1830 -0.5630  0.2798
  111MOL0     C14860  -0.680   2.282  10.445  0.3416 -0.2298  0.7172
  111MOL0     C14861  -0.755   2.236  10.319  0.0517 -0.4916 -0.2497
  111MOL0     C14862  -0.902   2.220  10.364 -0.3408 -0.5944  0.0353
  111MOL0     C14863  -0.978   2.151  10.248  0.1695  0.3581  1.1684
  111MOL0     C14864  -1.107   2.083  10.297  0.5851 -0.0236  0.9039
  111MOL0     C14865  -1.240   2.168  10.275  0.1799 -0.0623 -0.6609
  111MOL0     C14866  -1.353   2.108  10.363 -0.2535  0.4644  0.4897
  111MOL0     N14867  -1.482   2.171  10.335 -0.4078  0.5006  0.1809
  111MOL0     C14868  -1.574   2.127  10.250 -0.3759 -0.6197  0.6092
  111MOL0     C14869  -1.677   2.216  10.256  0.1649 -0.3979 -0.0988
  111MOL0     C14870  -1.804   2.220  10.172  0.2898  0.4568 -0.7306
  111MOL0     C14871  -1.918   2.293  10.231 -1.1233  0.1718 -0.0711
  111MOL0     C14872  -2.036   2.303  10.141 -0.4467 -0.1288 -0.3715
  111MOL0     C14873  -2.123   2.417  10.196 -0.9060 -0.5026 -0.8034
  111MOL0     O14874  -2.164   2.391  10.327 -0.6421 -0.0252  0.0756
  111MOL0     C14875  -2.287   2.447  10.347 -0.8366  0.4180  0.1410
  111MOL0     C14876  -2.291   2.571  10.413 -0.6243 -0.4451  0.4038
  111MOL0     C14877  -2.403   2.643  10.421  0.7359  0.4361 -0.5987
  111MOL0     C14878  -2.396   2.782  10.476 -0.3141  0.2775 -1.1269
  111MOL0     C14879  -2.526   2.587  10.374 -0.6252 -0.0238  0.8844
  111MOL0     C14880  -2.659   2.659  10.376  0.1344  0.3869  0.3469
  111MOL0     O14881  -2.681   2.751  10.467  0.0868 -0.4075 -0.8721
  111MOL0     C14882  -2.806   2.810  10.464  0.6566 -0.2214 -0.2139
  111MOL0     C14883  -2.907   2.747  10.535 -0.1668 -0.4516  0.4574
  111MOL0     C14884  -3.033   2.804  10.547  0.4693 -1.0872 -0.9005
  111MOL0     C14885  -3.051   2.926  10.479 -1.3263 -0.2022 -0.0077
  111MOL0     O14886  -3.175   2.983  10.490  0.6055 -0.8305  0.7487
  111MOL0     C14887  -3.268   2.922  10.410  0.3252 -0.8884 -0.2338
  111MOL0     C14888  -3.404   2.961  10.454  0.7558  0.4629  0.3940
  111MOL0     C14889  -3.413   3.115  10.470  0.6852 -0.0030  0.1640
  111MOL0     C14890  -3.560   3.148  10.492 -0.0148  0.8808 -0.0259
  111MOL0     C14891  -3.592   3.292  10.515  0.2184 -0.1244 -0.1213
  111MOL0     C14892  -3.748   3.309  10.536 -0.4971  0.8768  0.3785
  111MOL0     C14893  -3.787   3.453  10.547 -0.5034  0.3122 -0.6642
  111MOL0     C14894  -3.918   3.471  10.624 -0.1123 -0.0524  0.2404
  111MOL0    Cl14895  -3.982   3.639  10.579 -0.1471 -0.0374 -0.3364
  111MOL0     C14896  -2.950   2.991  10.408  0.5493  0.3589 -0.0330
  111MOL0     C14897  -2.822   2.935  10.404  0.2122  0.4294 -0.3355
  111MOL0     O14898  -2.745   2.606  10.306  0.0396 -0.2504  0.0017
  111MOL0     C14899  -2.520   2.464  10.309  0.0973  0.7618  1.3049
  111MOL0     C14900  -2.403   2.398  10.291 -0.1743 -0.3987 -0.2057
  111MOL0     N14901  -1.636   2.316  10.341 -0.2899 -0.3084  0.4057
  111MOL0     N14902  -1.523   2.278  10.396 -0.3320 -0.1386 -0.5450
  111MOL0     C14903  -0.237   2.288  10.427 -0.1580 -0.2753 -0.7351
  111MOL0     C14904  -0.106   2.256  10.440  0.4551  0.0288 -0.0094
  111MOL0     C14905   0.280   2.095  10.472  0.2925 -0.0037 -0.6133
  111MOL0     C14906   0.355   2.004  10.403  0.2362 -0.0595  0.8897
  111MOL0     C14907   0.490   2.010  10.387  0.6453 -0.1794  0.2581
  111MOL0     C14908   0.560   2.108  10.456  1.0181 -0.6248 -1.1570
  111MOL0     O14909   0.696   2.115  10.446  0.1935  0.4796  0.1601
  111MOL0     C14910   0.745   2.034  10.549 -0.5430 -0.4764  0.8007
  111MOL0     C14911   0.901   2.023  10.523 -0.5679 -0.6296 -0.1719
  111MOL0     C14912   0.965   2.163  10.545  0.3927  0.8592 -0.8258
  111MOL0     C14913   1.111   2.145  10.582 -0.4471 -0.0351 -0.1751
  111MOL0     C14914   1.175   2.272  10.606 -0.3022 -0.2140  0.2440
  111MOL0     C14915   1.206   2.392  10.628 -0.0361  0.2455  0.0496
  111MOL0     C14916   0.488   2.204  10.536 -0.0929 -0.1492  0.2148
  111MOL0     C14917   0.346   2.199  10.545 -0.0324  0.6776  0.6919
  111MOL0     H14918  -0.117   2.128  10.759  1.1566 -0.2427 -0.5285
  111MOL0     H14919  -0.359   2.170  10.729 -0.1020 -1.1366  0.2649
  111MOL0     H14920  -0.506   2.354  10.336 -0.3665  0.5921  1.0746
  111MOL0     H14921  -0.499   2.188  10.376 -2.3104 -1.1041 -0.3998
  111MOL0     H14922  -0.703   2.217  10.530  0.4709 -2.8007 -1.0852
  111MOL0     H14923  -0.710   2.384  10.469 -0.2520 -0.5980  1.6115
  111MOL0     H14924  -0.739   2.305  10.235 -0.7550 -3.1162 -2.7519
  111MOL0     H14925  -0.717   2.143  10.276 -0.2074 -0.7043 -0.0174
  111MOL0     H14926  -0.904   2.160  10.456 -2.9567  0.4727  0.7520
  111MOL0     H14927  -0.942   2.320  10.381  0.3456  0.5992 -4.0892
  111MOL0     H14928  -0.991   2.232  10.175  0.6459 -1.7222 -1.3670
  111MOL0     H14929  -0.917   2.066  10.216  1.2361  0.4496  2.8054
  111MOL0     H14930  -1.120   1.990  10.239  0.7131  0.5548 -0.0818
  111MOL0     H14931  -1.097   2.059  10.403 -2.0042 -0.1490  1.1735
  111MOL0     H14932  -1.219   2.265  10.322  0.5825 -0.6349  0.3704
  111MOL0     H14933  -1.262   2.171  10.168  1.8450 -1.2643 -1.0656
  111MOL0     H14934  -1.312   2.107  10.464 -1.1054 -0.4379  0.8411
  111MOL0     H14935  -1.361   2.001  10.339  0.5260  0.5291 -0.0956
  111MOL0     H14936  -1.566   2.038  10.189 -0.7137 -0.7744  0.7930
  111MOL0     H14937  -1.772   2.253  10.073  2.4763  2.3827  0.5139
  111MOL0     H14938  -1.842   2.117  10.169  2.1440 -0.2539 -1.9039
  111MOL0     H14939  -1.875   2.384  10.273 -1.5391  0.1091  0.4963
  111MOL0     H14940  -1.941   2.230  10.317 -1.8888  1.6859  0.8798
  111MOL0     H14941  -2.090   2.208  10.154  0.9588 -0.9375 -0.2659
  111MOL0     H14942  -2.002   2.312  10.038  1.2745 -0.8329  0.1020
  111MOL0     H14943  -2.201   2.432  10.121 -1.4318 -3.3570 -0.9305
  111MOL0     H14944  -2.064   2.509  10.200  1.7576 -2.0132 -2.4715
  111MOL0     H14945  -2.195   2.612  10.443 -1.4156  1.3305  0.5966
  111MOL0     H14946  -2.291   2.808  10.490  0.1944 -1.0323 -2.2867
  111MOL0     H14947  -2.438   2.844  10.395 -3.0184 -1.2380 -1.0096
  111MOL0     H14948  -2.458   2.793  10.566  0.4284 -1.4239 -0.3585
  111MOL0     H14949  -2.880   2.664  10.600 -1.3089 -1.7338 -0.6554
  111MOL0     H14950  -3.114   2.774  10.613 -0.5498  0.6475 -1.3059
  111MOL0     H14951  -3.259   2.947  10.304  2.6085 -0.4406  0.0171
  111MOL0     H14952  -3.274   2.817  10.438 -1.5195 -0.4934  1.0523
  111MOL0     H14953  -3.477   2.921  10.382  0.1719 -1.0140  1.7429
  111MOL0     H14954  -3.433   2.921  10.551  1.1450  0.2339  0.4202
  111MOL0     H14955  -3.374   3.162  10.379  3.1055 -0.6622  0.7755
  111MOL0     H14956  -3.355   3.157  10.552  0.4062  0.6525  0.0283
  111MOL0     H14957  -3.621   3.125  10.405  0.9728  4.1616 -1.7478
  111MOL0     H14958  -3.592   3.093  10.580  3.0995  1.7276  1.8106
  111MOL0     H14959  -3.572   3.340  10.418 -2.4264  0.3111 -0.5146
  111MOL0     H14960  -3.539   3.342  10.596  2.5026 -2.0958 -0.2576
  111MOL0     H14961  -3.784   3.267  10.442 -2.3932 -0.0473  1.4562
  111MOL0     H14962  -3.788   3.244  10.614 -2.9984 -1.0527 -2.3025
  111MOL0     H14963  -3.797   3.506  10.452 -0.9870  1.2849 -0.0822
  111MOL0     H14964  -3.708   3.504  10.604  0.2491 -0.7001 -0.7595
  111MOL0     H14965  -3.897   3.460  10.731 -2.2437 -0.5148  0.6669
  111MOL0     H14966  -3.989   3.394  10.592 -0.0780 -0.1827  0.4746
  111MOL0     H14967  -2.976   3.087  10.365  0.3428  0.2387 -0.1781
  111MOL0     H14968  -2.749   2.992  10.346  0.3384 -2.8917 -3.8608
  111MOL0     H14969  -2.614   2.419  10.280  0.5909  0.0944  0.7138
  111MOL0     H14970  -2.409   2.308  10.229 -0.6527 -1.2792  1.0761
  111MOL0     H14971  -0.275   2.333  10.336  0.1532  1.4757 -0.0319
  111MOL0     H14972  -0.041   2.285  10.358 -0.3520  1.1502 -0.2745
  111MOL0     H14973   0.295   1.937  10.342 -0.2384  0.1367  1.1352
  111MOL0     H14974   0.553   1.949  10.323  2.1646  2.8760 -1.3673
  111MOL0     H14975   0.719   2.070  10.649 -1.6291 -2.9544  1.4871
  111MOL0     H14976   0.720   1.928  10.546  2.6736 -1.3421 -1.0463
  111MOL0     H14977   0.936   2.003  10.421  1.1137  0.8198  0.0710
  111MOL0     H14978   0.940   1.956  10.599  0.3867 -0.9400 -0.9157
  111MOL0     H14979   0.913   2.222  10.620 -0.1142  0.8464 -1.1595
  111MOL0     H14980   0.952   2.223  10.454 -1.1928  1.5796 -0.1549
  111MOL0     H14981   1.158   2.096  10.496  1.2023  0.6974  0.2789
  111MOL0     H14982   1.137   2.080  10.666  1.9537  2.1584  0.9169
  111MOL0     H14983   1.244   2.492  10.639  1.7163 -0.3614 -0.2407
  111MOL0     H14984   0.541   2.291  10.574 -2.0477  0.6833  1.1847
  111MOL0     H14985   0.294   2.267  10.612  1.8770  0.1031  2.8906
  112MOL0     O14986   3.609   4.280   4.786 -0.1174  0.7745  0.0096
  112MOL0     C14987   3.651   4.352   4.706  0.0543 -0.2704 -0.0094
  112MOL0     O14988   3.570   4.436   4.630 -0.1690  0.4749  0.5843
  112MOL0     C14989   3.434   4.447   4.668 -0.6286 -0.1277  0.3492
  112MOL0     C14990   3.334   4.399   4.591 -0.6342 -0.8617  0.6074
  112MOL0     C14991   3.204   4.392   4.642  0.1628  0.4946 -0.4295
  112MOL0     C14992   3.161   4.457   4.752 -0.9902 -0.5279  0.3948
  112MOL0     O14993   3.033   4.445   4.800 -0.0752  0.0968  0.1855
  112MOL0     C14994   2.948   4.342   4.743  0.1644  1.2734 -0.7333
  112MOL0     C14995   2.823   4.305   4.844 -0.0959  0.5504  0.6023
  112MOL0     C14996   2.868   4.258   4.984 -0.6969  0.2587  0.3989
  112MOL0     C14997   2.926   4.116   4.971  0.3239  0.0121  0.1251
  112MOL0     C14998   2.929   4.039   5.101  0.7269 -0.2067  0.0998
  112MOL0     C14999   2.784   4.000   5.150 -0.8610 -1.0770  0.1486
  112MOL0     C15000   2.797   3.893   5.259  0.0638  0.1835 -0.5500
  112MOL0     C15001   2.653   3.859   5.313 -0.4025 -0.0165  0.6678
  112MOL0     N15002   2.588   3.773   5.216  0.7090 -0.3854  0.8232
  112MOL0     C15003   2.618   3.645   5.168 -0.2788 -1.2951  1.3492
  112MOL0     C15004   2.499   3.600   5.125 -0.3450  0.2986 -0.1777
  112MOL0     C15005   2.472   3.457   5.086 -0.3207  0.0619  0.1219
  112MOL0     C15006   2.584   3.386   5.000  0.5069  0.0103  0.5948
  112MOL0     C15007   2.524   3.245   4.981 -0.7233 -0.3555 -0.0362
  112MOL0     C15008   2.623   3.143   4.917  0.5613 -0.9082 -0.1366
  112MOL0     O15009   2.684   3.206   4.801  0.0107 -0.3230  0.3782
  112MOL0     C15010   2.627   3.196   4.674  0.7860  0.0561 -0.0036
  112MOL0     C15011   2.509   3.130   4.638  0.4603  0.2364 -0.2108
  112MOL0     C15012   2.443   3.145   4.515 -0.2350  0.2337  0.5505
  112MOL0     C15013   2.317   3.064   4.494  0.4368 -1.1495 -0.1457
  112MOL0     C15014   2.508   3.227   4.409  0.0431  0.5939  0.6315
  112MOL0     C15015   2.450   3.250   4.271  0.3636 -0.5420 -0.0919
  112MOL0     O15016   2.313   3.243   4.263 -0.5731 -0.4410  0.0947
  112MOL0     C15017   2.240   3.216   4.148  0.4503  0.0889  0.3922
  112MOL0     C15018   2.140   3.304   4.103 -0.7345 -0.1081  1.5817
  112MOL0     C15019   2.062   3.263   3.989  0.3362  0.5681  0.1533
  112MOL0     C15020   2.083   3.153   3.916 -0.6264  0.1763 -0.1652
  112MOL0     O15021   2.017   3.116   3.806 -0.0554 -0.3589  0.7916
  112MOL0     C15022   1.898   3.204   3.789  0.9065  0.0196  0.1892
  112MOL0     C15023   1.808   3.150   3.682 -0.3739 -1.2675  1.1559
  112MOL0     C15024   1.866   3.175   3.541  0.0412  1.0901  0.3402
  112MOL0     C15025   1.781   3.103   3.432 -0.1455 -0.3739  0.0287
  112MOL0     C15026   1.822   3.171   3.296 -0.4141 -0.5490 -0.2779
  112MOL0     C15027   1.784   3.082   3.180  0.1461 -1.3309 -0.3251
  112MOL0     C15028   1.638   3.064   3.154 -0.1826  0.0572  0.0497
  112MOL0     C15029   1.612   3.034   3.002 -0.2457 -0.1613  0.7648
  112MOL0    Cl15030   1.434   3.030   2.975  0.1503  0.2689 -0.3178
  112MOL0     C15031   2.194   3.074   3.961  0.3731  0.8823  0.7381
  112MOL0     C15032   2.276   3.098   4.072 -0.6971 -2.3727  0.3661
  112MOL0     O15033   2.518   3.267   4.169  0.2150 -0.1503 -0.0224
  112MOL0     C15034   2.628   3.291   4.444 -0.2578  0.3954  0.0642
  112MOL0     C15035   2.687   3.271   4.578  0.4097 -0.7368  0.5616
  112MOL0     N15036   2.396   3.691   5.146 -0.8431  0.6166  0.1837
  112MOL0     N15037   2.455   3.786   5.189  0.1377 -0.0048 -0.5079
  112MOL0     C15038   3.257   4.521   4.833 -0.1000 -0.3176 -0.0517
  112MOL0     C15039   3.391   4.515   4.783  0.4088  0.5596 -0.3138
  112MOL0     C15040   3.793   4.362   4.673 -0.5935  0.0271  0.2769
  112MOL0     C15041   3.843   4.410   4.544  0.1503  0.7889  0.1169
  112MOL0     C15042   3.976   4.437   4.529 -0.6804 -0.0992  0.8710
  112MOL0     C15043   4.064   4.422   4.635 -0.5773 -0.5170  0.3815
  112MOL0     O15044   4.203   4.457   4.625  0.3455  0.1927 -1.0333
  112MOL0     C15045   4.294   4.359   4.564 -0.5794 -0.1363  0.9765
  112MOL0     C15046   4.302   4.385   4.407 -0.1834 -0.0840 -0.7843
  112MOL0     C15047   4.442   4.327   4.354  0.1540  0.8293  0.6427
  112MOL0     C15048   4.568   4.404   4.402 -0.3526 -0.7045 -0.1870
  112MOL0     C15049   4.700   4.350   4.350  0.4767  0.0990 -0.1973
  112MOL0     C15050   4.814   4.312   4.316  0.6639 -0.1807 -0.0245
  112MOL0     C15051   4.026   4.383   4.756  0.5093  0.0779  0.3913
  112MOL0     C15052   3.888   4.356   4.776 -0.5706 -0.6295  0.0523
  112MOL0     H15053   3.364   4.367   4.492 -2.0110 -0.1736 -0.0500
  112MOL0     H15054   3.136   4.342   4.575  0.1154 -1.1578  0.7788
  112MOL0     H15055   2.911   4.378   4.647  0.1987 -0.5320 -1.4522
  112MOL0     H15056   2.998   4.245   4.734 -0.8445  0.7456 -0.7920
  112MOL0     H15057   2.758   4.392   4.859 -1.9347 -0.7447  0.4283
  112MOL0     H15058   2.766   4.227   4.792  1.9334 -1.0468  0.6505
  112MOL0     H15059   2.954   4.318   5.015  0.7899 -0.3525 -2.2137
  112MOL0     H15060   2.791   4.271   5.059 -2.2751  1.4541 -1.3363
  112MOL0     H15061   2.862   4.069   4.896 -0.7814  1.9625 -0.2256
  112MOL0     H15062   3.024   4.117   4.923 -0.5388 -2.0505 -1.8473
  112MOL0     H15063   2.992   3.955   5.069  0.9381  1.0776 -3.3238
  112MOL0     H15064   2.984   4.094   5.177 -0.6278  0.4534  0.6384
  112MOL0     H15065   2.727   4.088   5.182 -0.1775 -0.9848  1.2006
  112MOL0     H15066   2.725   3.964   5.066  2.0421  0.3081 -2.7261
  112MOL0     H15067   2.853   3.806   5.225 -0.3611 -0.9679  1.5343
  112MOL0     H15068   2.857   3.926   5.345  1.8635 -0.7722 -1.3822
  112MOL0     H15069   2.595   3.952   5.318  0.6716  0.6366  1.5787
  112MOL0     H15070   2.645   3.811   5.411  0.8075 -1.3222  0.1609
  112MOL0     H15071   2.714   3.594   5.164  1.1188  1.2618 -0.7974
  112MOL0     H15072   2.471   3.400   5.179  0.7333 -0.8067 -0.3746
  112MOL0     H15073   2.376   3.445   5.035 -0.9200  1.0692  0.9873
  112MOL0     H15074   2.678   3.374   5.054  0.3226  1.6647  1.3441
  112MOL0     H15075   2.601   3.433   4.903  1.1650 -0.0139  0.6895
  112MOL0     H15076   2.438   3.255   4.915 -0.2731  0.9657 -0.4669
  112MOL0     H15077   2.491   3.204   5.076  1.8372 -0.9726  0.6646
  112MOL0     H15078   2.566   3.055   4.886  0.5602 -0.9785  0.0662
  112MOL0     H15079   2.697   3.120   4.994  0.0827  2.4414  1.4923
  112MOL0     H15080   2.455   3.066   4.707  0.9742  2.8893  2.8548
  112MOL0     H15081   2.299   2.984   4.566 -2.2190 -1.1386 -0.6788
  112MOL0     H15082   2.228   3.127   4.508 -0.1250 -2.0723  0.5496
  112MOL0     H15083   2.324   3.029   4.390 -0.6640  1.8542 -1.3579
  112MOL0     H15084   2.113   3.386   4.169 -1.2845  0.2528  0.9263
  112MOL0     H15085   1.995   3.338   3.948  0.3244 -0.8926 -2.6833
  112MOL0     H15086   1.834   3.202   3.877  0.2574 -0.6321 -0.2831
  112MOL0     H15087   1.937   3.299   3.751 -2.5375  1.4856 -0.0009
  112MOL0     H15088   1.787   3.044   3.702 -0.1932 -0.9586  3.2472
  112MOL0     H15089   1.708   3.194   3.696 -1.3432 -2.5858 -1.1637
  112MOL0     H15090   1.966   3.130   3.536  0.9208  3.1142 -1.7899
  112MOL0     H15091   1.884   3.281   3.521  0.8532  1.0487  0.7912
  112MOL0     H15092   1.805   2.996   3.433 -0.4532 -0.5017 -1.9667
  112MOL0     H15093   1.675   3.111   3.456 -0.5134 -3.9637  0.2377
  112MOL0     H15094   1.931   3.178   3.302 -0.4925 -0.3686  2.9051
  112MOL0     H15095   1.790   3.276   3.289 -0.3342 -0.6339 -2.7670
  112MOL0     H15096   1.833   3.116   3.089  0.3399 -2.5575 -0.7043
  112MOL0     H15097   1.828   2.985   3.207 -0.5577 -1.0784  1.9552
  112MOL0     H15098   1.601   3.167   3.160 -0.4359 -0.0992  1.4776
  112MOL0     H15099   1.588   2.994   3.221 -0.8914 -0.1744 -0.7081
  112MOL0     H15100   1.666   2.948   2.961 -1.6727 -0.0792 -1.4288
  112MOL0     H15101   1.646   3.117   2.938 -0.2772 -0.7038  0.0374
  112MOL0     H15102   2.211   2.989   3.896 -0.6290  1.8120 -0.7947
  112MOL0     H15103   2.361   3.038   4.103  0.7358  0.0760  1.5154
  112MOL0     H15104   2.672   3.357   4.369 -2.4729  1.3728 -0.4351
  112MOL0     H15105   2.782   3.317   4.604 -0.5725  0.9851  1.3237
  112MOL0     H15106   3.234   4.565   4.930 -1.3813  2.5207 -1.5227
  112MOL0     H15107   3.467   4.567   4.841 -1.1744  2.2034  0.3732
  112MOL0     H15108   3.786   4.411   4.452  0.9553 -0.9753 -0.4329
  112MOL0     H15109   4.019   4.472   4.436  1.8653  0.6488  2.2282
  112MOL0     H15110   4.392   4.374   4.611  1.1924  0.3847 -2.4981
  112MOL0     H15111   4.260   4.256   4.581 -0.2992 -0.3211  0.4498
  112MOL0     H15112   4.287   4.489   4.376  0.4589 -0.4594 -2.5049
  112MOL0     H15113   4.214   4.334   4.367 -2.7316  2.0641  1.6713
  112MOL0     H15114   4.444   4.324   4.245 -1.2070 -2.2739  0.6132
  112MOL0     H15115   4.452   4.225   4.392 -0.0986  0.5334 -0.0706
  112MOL0     H15116   4.582   4.402   4.511 -0.3783 -0.6673 -0.1835
  112MOL0     H15117   4.561   4.510   4.377 -1.1725 -0.6813  0.1121
  112MOL0     H15118   4.909   4.273   4.285 -0.1045 -1.3275 -1.0595
  112MOL0     H15119   4.092   4.367   4.841 -1.3885 -3.4380  1.4303
  112MOL0     H15120   3.865   4.356   4.882  1.8873  0.6569  0.6809
  113MOL0     O15121  11.107   0.778   6.125  1.0115 -0.5054  0.7049
  113MOL0     C15122  11.196   0.853   6.081 -0.8320  0.4124 -0.1678
  113MOL0     O15123  11.177   0.982   6.038 -0.9264  0.1724  0.0764
  113MOL0     C15124  11.058   1.037   6.053  0.9007 -0.0567 -0.0159
  113MOL0     C15125  10.999   1.062   5.939  0.5367 -0.3174  0.1013
  113MOL0     C15126  10.858   1.097   5.937  0.3806  0.3579 -0.2398
  113MOL0     C15127  10.790   1.111   6.060 -0.5056 -0.1581 -0.2220
  113MOL0     O15128  10.655   1.134   6.072  0.4326  0.0462 -0.0587
  113MOL0     C15129  10.587   1.177   5.957  0.3379  0.0969 -0.6157
  113MOL0     C15130  10.439   1.198   6.012 -0.5438  0.0714  0.5469
  113MOL0     C15131  10.343   1.246   5.900  0.5499 -0.4925  0.5570
  113MOL0     C15132  10.225   1.332   5.964 -1.0968  0.6735  0.3293
  113MOL0     C15133  10.126   1.358   5.857  0.7917 -0.1562  0.4045
  113MOL0     C15134  10.000   1.435   5.913  0.2441  0.1120  0.4447
  113MOL0     C15135   9.901   1.471   5.803 -0.4721 -0.4489 -0.1735
  113MOL0     C15136   9.938   1.599   5.734 -0.3557  0.2248 -0.6857
  113MOL0     N15137   9.943   1.710   5.829 -0.3164 -0.0901 -0.8085
  113MOL0     C15138   9.837   1.772   5.901 -0.2095 -0.7338 -0.3909
  113MOL0     C15139   9.892   1.886   5.957  0.6557 -0.0253 -0.0005
  113MOL0     C15140   9.832   1.981   6.057  0.3450 -0.2444  0.0020
  113MOL0     C15141   9.684   2.017   6.029  0.2455  0.0254 -0.7446
  113MOL0     C15142   9.579   1.913   6.075 -0.4694  1.1286  0.1013
  113MOL0     C15143   9.446   1.966   6.080  0.3318 -0.0175 -0.9377
  113MOL0     O15144   9.412   1.979   5.940 -0.0129  0.7678 -0.3509
  113MOL0     C15145   9.278   2.009   5.912 -1.1400 -0.4337  0.2675
  113MOL0     C15146   9.186   2.045   6.010  0.7428 -0.6896  0.2670
  113MOL0     C15147   9.055   2.070   5.967 -0.4110  0.3876 -0.6628
  113MOL0     C15148   8.955   2.107   6.072 -0.0429 -0.0857  0.3941
  113MOL0     C15149   9.027   2.068   5.833  0.9820  0.0494  0.1111
  113MOL0     C15150   8.892   2.126   5.773  0.7260 -0.1668 -1.0010
  113MOL0     O15151   8.872   2.128   5.635 -0.0235 -0.2180 -0.2972
  113MOL0     C15152   8.771   2.212   5.593 -1.1387  0.2979  0.7450
  113MOL0     C15153   8.810   2.329   5.527 -0.0973  0.7219 -0.4854
  113MOL0     C15154   8.721   2.421   5.483  0.2483  0.4618 -0.0389
  113MOL0     C15155   8.584   2.392   5.498 -0.1460  0.2388 -0.3744
  113MOL0     O15156   8.482   2.464   5.452 -0.9844  0.2698  0.4999
  113MOL0     C15157   8.471   2.457   5.310  0.2691  0.1350 -0.6963
  113MOL0     C15158   8.368   2.566   5.276 -0.7234 -0.2225  0.4290
  113MOL0     C15159   8.440   2.699   5.233  0.8185  0.2205 -0.0919
  113MOL0     C15160   8.501   2.771   5.356 -0.6246 -0.2782  0.6808
  113MOL0     C15161   8.588   2.889   5.325 -0.1095  0.1742  0.0185
  113MOL0     C15162   8.720   2.853   5.249  0.0151 -0.1096  0.1453
  113MOL0     C15163   8.803   2.749   5.321 -0.4455 -0.2770  0.3386
  113MOL0     C15164   8.950   2.737   5.265  0.2331  0.4768  0.4458
  113MOL0    Cl15165   9.032   2.597   5.347  0.0398 -0.2890  0.0694
  113MOL0     C15166   8.544   2.279   5.565  0.6111  0.0989 -0.1744
  113MOL0     C15167   8.635   2.187   5.617 -0.3356 -0.4509  0.5107
  113MOL0     O15168   8.806   2.169   5.847  0.2553 -0.0145  0.2186
  113MOL0     C15169   9.118   2.039   5.741 -0.3281  0.2855  0.3752
  113MOL0     C15170   9.244   2.008   5.780 -0.5986  0.2821 -0.4672
  113MOL0     N15171  10.023   1.897   5.913 -0.1749 -0.1737  0.7293
  113MOL0     N15172  10.052   1.791   5.839  0.0686 -1.0817  1.3106
  113MOL0     C15173  10.859   1.096   6.180  0.7765 -0.4223 -0.4091
  113MOL0     C15174  10.996   1.056   6.177  0.8660  0.9469 -0.7515
  113MOL0     C15175  11.335   0.801   6.055  0.6201  0.4194  0.6698
  113MOL0     C15176  11.370   0.674   6.102  0.1944  0.1319  0.1685
  113MOL0     C15177  11.499   0.626   6.089 -0.0376 -0.9985 -0.0133
  113MOL0     C15178  11.604   0.702   6.023 -0.0770  0.5127 -1.4700
  113MOL0     O15179  11.724   0.640   6.026 -0.2128 -0.0704  0.5412
  113MOL0     C15180  11.834   0.707   5.959  1.2596  0.8320  0.0280
  113MOL0     C15181  11.939   0.610   5.925 -0.2935  0.2950 -1.7384
  113MOL0     C15182  11.967   0.509   6.043 -0.0574  0.9594  0.7587
  113MOL0     C15183  12.027   0.571   6.176  0.2447 -0.0935 -1.2300
  113MOL0     C15184  12.079   0.462   6.261 -0.4676 -0.5139  0.1351
  113MOL0     C15185  12.109   0.371   6.332  0.8871  0.7052  0.3465
  113MOL0     C15186  11.563   0.824   5.979  0.7529 -0.2634 -0.2879
  113MOL0     C15187  11.431   0.867   5.978 -0.6685 -0.4655 -0.2345
  113MOL0     H15188  11.048   1.036   5.846 -0.2953 -0.6288 -0.2684
  113MOL0     H15189  10.794   1.099   5.849 -0.0586  1.6681  0.0878
  113MOL0     H15190  10.620   1.274   5.918 -0.2609 -0.2326 -2.0175
  113MOL0     H15191  10.585   1.107   5.873  3.5819  0.4853 -1.1397
  113MOL0     H15192  10.392   1.108   6.052 -2.7475  1.7588  1.9981
  113MOL0     H15193  10.449   1.271   6.092  1.3590  0.3900  0.0684
  113MOL0     H15194  10.399   1.306   5.828  0.7861 -0.6827  0.5799
  113MOL0     H15195  10.304   1.155   5.854 -0.1320 -1.6990  3.2976
  113MOL0     H15196  10.186   1.275   6.049 -0.4930 -0.5507 -0.1856
  113MOL0     H15197  10.277   1.417   6.008 -0.7771  0.0364  1.2223
  113MOL0     H15198  10.168   1.416   5.775  0.3056  1.9312  1.5682
  113MOL0     H15199  10.110   1.258   5.814  1.1460 -0.8286  1.7594
  113MOL0     H15200   9.945   1.369   5.980 -1.0773 -1.0086 -1.6100
  113MOL0     H15201  10.037   1.522   5.967  2.9513 -0.9474  0.4214
  113MOL0     H15202   9.917   1.392   5.730  4.4154 -0.8406  1.0067
  113MOL0     H15203   9.798   1.479   5.841  0.1365  2.4084  1.1488
  113MOL0     H15204   9.863   1.618   5.657 -0.2970  0.6662 -0.6348
  113MOL0     H15205  10.040   1.592   5.693 -0.2778 -4.5614 -0.1829
  113MOL0     H15206   9.738   1.732   5.920 -1.0122  1.9901  2.0515
  113MOL0     H15207   9.855   1.934   6.152  2.1924 -0.8790 -0.7137
  113MOL0     H15208   9.892   2.072   6.061  0.0409  0.1236 -2.3267
  113MOL0     H15209   9.683   2.034   5.921 -1.3618 -0.5147 -0.8497
  113MOL0     H15210   9.676   2.113   6.079 -0.0629  1.0064 -2.5942
  113MOL0     H15211   9.596   1.884   6.179 -1.5214  0.0025 -0.0214
  113MOL0     H15212   9.582   1.822   6.014  1.4696  3.3615 -3.5036
  113MOL0     H15213   9.447   2.059   6.137 -1.1181  0.1866 -1.1865
  113MOL0     H15214   9.379   1.893   6.127 -0.7492 -0.5982 -3.2605
  113MOL0     H15215   9.217   2.062   6.113  0.8692  2.7831 -0.2192
  113MOL0     H15216   8.985   2.085   6.175  3.1444 -0.6144 -0.5360
  113MOL0     H15217   8.935   2.215   6.063  1.9114  0.2869 -0.0199
  113MOL0     H15218   8.872   2.039   6.052  0.0180 -0.8803  2.5487
  113MOL0     H15219   8.911   2.368   5.527  0.2827 -0.2277  0.6235
  113MOL0     H15220   8.749   2.523   5.461 -2.0183  0.8982 -1.2426
  113MOL0     H15221   8.565   2.457   5.254  1.2408  4.0192  0.6219
  113MOL0     H15222   8.428   2.358   5.293 -1.0985 -0.4620  4.5274
  113MOL0     H15223   8.306   2.526   5.195 -0.4262  1.6864 -0.8133
  113MOL0     H15224   8.305   2.587   5.362 -1.3705  1.6638 -0.4361
  113MOL0     H15225   8.365   2.759   5.179  1.2209 -0.3836 -1.3769
  113MOL0     H15226   8.513   2.682   5.154 -0.2569 -0.8252 -0.8957
  113MOL0     H15227   8.423   2.812   5.421  0.7626  0.6382  1.8416
  113MOL0     H15228   8.558   2.705   5.422  0.7504 -1.6360 -1.7372
  113MOL0     H15229   8.617   2.949   5.411  0.2143 -1.2412  0.9276
  113MOL0     H15230   8.532   2.956   5.259  0.3429  2.3349  1.7369
  113MOL0     H15231   8.702   2.810   5.150 -0.1775 -1.3524  0.7156
  113MOL0     H15232   8.769   2.951   5.240 -1.8673  0.9164  0.3359
  113MOL0     H15233   8.762   2.651   5.294 -0.2130  0.3819 -2.8060
  113MOL0     H15234   8.811   2.765   5.429 -0.3635  0.2237  0.2606
  113MOL0     H15235   9.009   2.825   5.293  0.4855  0.1799  0.8668
  113MOL0     H15236   8.949   2.724   5.157 -2.3874 -0.3320  0.5135
  113MOL0     H15237   8.439   2.259   5.584  0.7356  2.4715  4.6053
  113MOL0     H15238   8.607   2.094   5.666  1.9340 -1.4519  0.0498
  113MOL0     H15239   9.100   2.044   5.634  0.8356 -0.4911  0.1293
  113MOL0     H15240   9.322   1.972   5.713  0.4623  0.8120  0.4455
  113MOL0     H15241  10.802   1.095   6.273  0.4017 -0.9938 -0.6392
  113MOL0     H15242  11.048   1.030   6.268  0.3208  2.0220 -0.1196
  113MOL0     H15243  11.297   0.614   6.156  0.5954 -0.8727 -0.3946
  113MOL0     H15244  11.523   0.528   6.128  1.3760 -1.5925 -2.2525
  113MOL0     H15245  11.798   0.747   5.864 -0.5257  2.0233  1.1417
  113MOL0     H15246  11.853   0.789   6.029  1.1722  0.5641  0.3726
  113MOL0     H15247  12.022   0.676   5.896 -0.7101  1.0309 -1.2895
  113MOL0     H15248  11.908   0.548   5.840  1.1914 -2.8867 -0.1092
  113MOL0     H15249  12.042   0.442   5.999 -1.6899  1.0101 -2.4233
  113MOL0     H15250  11.879   0.446   6.056  0.8926 -0.3597  0.9636
  113MOL0     H15251  11.952   0.613   6.244  2.4681 -0.7758  1.8698
  113MOL0     H15252  12.094   0.657   6.164 -2.1737  1.7438 -2.3213
  113MOL0     H15253  12.149   0.289   6.388 -0.4909 -0.4232 -0.2747
  113MOL0     H15254  11.633   0.887   5.925 -1.5660  2.2317 -0.6034
  113MOL0     H15255  11.412   0.968   5.943  0.6451  0.2370  0.9586
  114MOL0     O15256   9.157   6.461   4.321 -0.2710 -0.5678  0.4183
  114MOL0     C15257   9.165   6.472   4.199  0.3240  1.1974 -0.4817
  114MOL0     O15258   9.268   6.529   4.138  0.2319 -0.2839  0.5467
  114MOL0     C15259   9.374   6.564   4.214 -0.2137 -0.4675  0.5265
  114MOL0     C15260   9.495   6.514   4.161  0.1905  0.5903 -0.1687
  114MOL0     C15261   9.619   6.550   4.220  0.0240  0.5355  0.1352
  114MOL0     C15262   9.615   6.637   4.333  0.2062  1.0443  0.0512
  114MOL0     O15263   9.727   6.681   4.385 -0.3048 -0.9946 -0.1864
  114MOL0     C15264   9.785   6.592   4.482  0.3966  0.1500  0.7049
  114MOL0     C15265   9.873   6.656   4.589 -0.3196 -0.0569  0.4923
  114MOL0     C15266   9.800   6.760   4.665  0.8575 -0.2118 -0.1484
  114MOL0     C15267   9.769   6.886   4.588 -0.6348 -0.1709  0.5018
  114MOL0     C15268   9.735   7.016   4.671 -0.0245  0.1123  0.1398
  114MOL0     C15269   9.692   7.142   4.587 -1.0265  0.2879 -0.4415
  114MOL0     C15270   9.783   7.260   4.627  0.6149 -0.0014 -0.1899
  114MOL0     C15271   9.762   7.371   4.515  0.3860  1.3838  0.3507
  114MOL0     N15272   9.623   7.412   4.479  0.2503  0.3252 -0.0351
  114MOL0     C15273   9.555   7.513   4.550  0.4499  0.2817  0.8299
  114MOL0     C15274   9.447   7.528   4.475 -0.6403  0.6911  0.2775
  114MOL0     C15275   9.329   7.618   4.501 -0.4944 -0.4884 -0.6008
  114MOL0     C15276   9.233   7.637   4.384  0.7579  0.3927  0.0909
  114MOL0     C15277   9.115   7.737   4.419  0.1607 -0.2102  0.1579
  114MOL0     C15278   8.992   7.697   4.341  0.5986  1.0111  0.7559
  114MOL0     O15279   8.879   7.774   4.384 -0.5595  0.4428  0.6051
  114MOL0     C15280   8.760   7.759   4.330  0.6703 -0.0425  0.1462
  114MOL0     C15281   8.724   7.652   4.243  0.2661  0.0333 -0.4293
  114MOL0     C15282   8.594   7.645   4.195  0.4246  0.0149  0.2301
  114MOL0     C15283   8.546   7.531   4.116 -0.4703  0.0330  1.5882
  114MOL0     C15284   8.505   7.753   4.211  0.0891  0.5615  0.2926
  114MOL0     C15285   8.368   7.768   4.158  0.5493  0.1425 -0.5981
  114MOL0     O15286   8.303   7.890   4.194  0.4360  0.4765  0.5333
  114MOL0     C15287   8.169   7.908   4.200  0.1161  1.0929  0.5729
  114MOL0     C15288   8.111   8.041   4.196  1.2212 -0.1566  0.6359
  114MOL0     C15289   7.974   8.064   4.199 -0.0425 -0.2934  0.4160
  114MOL0     C15290   7.879   7.955   4.190  0.1827  0.9904  0.5487
  114MOL0     O15291   7.744   7.971   4.188 -0.2476 -0.3247  0.3799
  114MOL0     C15292   7.684   8.105   4.193 -0.4640 -0.1188  0.2177
  114MOL0     C15293   7.532   8.104   4.145 -0.0535 -0.0810 -0.9712
  114MOL0     C15294   7.490   8.237   4.093 -0.5676  0.1220 -0.9805
  114MOL0     C15295   7.360   8.202   4.024 -0.6206  0.4501 -0.0696
  114MOL0     C15296   7.261   8.311   3.999  0.1572 -1.3282  0.4780
  114MOL0     C15297   7.120   8.277   4.022 -0.4897  0.3773  0.1142
  114MOL0     C15298   7.024   8.391   4.000 -0.2412 -0.8879 -0.6698
  114MOL0     C15299   6.884   8.331   3.999 -0.0258 -0.4137  0.2158
  114MOL0    Cl15300   6.757   8.464   4.010 -0.3551  0.3152 -0.6016
  114MOL0     C15301   7.937   7.832   4.200 -0.4309  0.2142 -0.6351
  114MOL0     C15302   8.076   7.805   4.203  0.3044 -0.7934  0.7473
  114MOL0     O15303   8.309   7.678   4.098  0.1553  0.3733 -0.0375
  114MOL0     C15304   8.547   7.862   4.291  0.7489  0.4664  0.1734
  114MOL0     C15305   8.667   7.858   4.354  0.4260  0.2462  0.0168
  114MOL0     N15306   9.453   7.437   4.364 -0.0468 -0.2961 -1.0272
  114MOL0     N15307   9.560   7.368   4.367 -0.1006 -0.9273 -0.4750
  114MOL0     C15308   9.492   6.684   4.383  0.4175  0.0186  0.4963
  114MOL0     C15309   9.372   6.660   4.314  0.4493 -0.1580  0.1099
  114MOL0     C15310   9.042   6.436   4.130 -0.8683  0.4745  0.8541
  114MOL0     C15311   9.054   6.412   3.999 -0.3081  0.7828 -0.1799
  114MOL0     C15312   8.936   6.392   3.927  0.6057 -0.5491  0.1115
  114MOL0     C15313   8.809   6.386   3.999 -1.1140  0.8957  0.7238
  114MOL0     O15314   8.697   6.344   3.944  0.2318  0.3342  0.5011
  114MOL0     C15315   8.696   6.238   3.852  0.2160  0.4805  0.1880
  114MOL0     C15316   8.560   6.160   3.863  0.2309  1.3988 -0.8698
  114MOL0     C15317   8.551   6.040   3.768 -0.6723  0.7481  0.5435
  114MOL0     C15318   8.412   5.982   3.758 -0.3078 -0.1665  0.3802
  114MOL0     C15319   8.424   5.856   3.685  0.8629  0.2223 -0.0233
  114MOL0     C15320   8.423   5.751   3.629 -0.2796 -0.5394  0.5627
  114MOL0     C15321   8.799   6.421   4.126  0.4261 -0.2834  0.5865
  114MOL0     C15322   8.918   6.455   4.195 -0.2827 -0.4439 -0.9993
  114MOL0     H15323   9.491   6.445   4.077  0.7672  0.9655 -0.5077
  114MOL0     H15324   9.706   6.515   4.164  1.6773  3.0480  0.9400
  114MOL0     H15325   9.706   6.535   4.530  0.2023 -0.2126 -0.0193
  114MOL0     H15326   9.840   6.522   4.417 -2.0668  0.4384 -1.8806
  114MOL0     H15327   9.903   6.576   4.657  0.6013 -0.1281  0.0127
  114MOL0     H15328   9.963   6.691   4.538  0.6231 -2.2886  0.5123
  114MOL0     H15329   9.704   6.721   4.699  2.0141 -2.7198  0.5035
  114MOL0     H15330   9.844   6.796   4.759 -3.3322  0.6792  1.6911
  114MOL0     H15331   9.856   6.915   4.529 -0.8602  3.6756  1.7373
  114MOL0     H15332   9.691   6.857   4.517  0.3157  0.3250 -0.7777
  114MOL0     H15333   9.662   6.998   4.751  0.5853 -0.0706  0.6587
  114MOL0     H15334   9.829   7.031   4.725 -0.5200  0.5150  0.9134
  114MOL0     H15335   9.701   7.126   4.480  0.0392  2.2854 -0.7061
  114MOL0     H15336   9.589   7.167   4.613 -2.3674 -1.6579 -3.3821
  114MOL0     H15337   9.752   7.289   4.728 -4.4005 -1.2817 -1.0682
  114MOL0     H15338   9.888   7.229   4.632  0.0629 -2.0285  4.7433
  114MOL0     H15339   9.808   7.325   4.427  0.1236  2.5051 -0.3831
  114MOL0     H15340   9.818   7.462   4.539  2.7716  0.4500 -1.3244
  114MOL0     H15341   9.579   7.568   4.641  1.6638  1.8372 -0.3770
  114MOL0     H15342   9.272   7.573   4.582 -2.4150  0.1132 -1.5557
  114MOL0     H15343   9.369   7.714   4.535 -0.0917 -0.4622 -1.1399
  114MOL0     H15344   9.200   7.547   4.331 -0.6955  2.5078 -2.9036
  114MOL0     H15345   9.285   7.701   4.311  1.7215 -1.5926 -1.0295
  114MOL0     H15346   9.144   7.838   4.391  1.4944 -0.5411  0.2850
  114MOL0     H15347   9.089   7.733   4.525 -0.0335 -0.8161  0.0928
  114MOL0     H15348   8.960   7.593   4.356  1.6947  0.4807 -0.4409
  114MOL0     H15349   9.006   7.716   4.234 -1.2569  2.5864  0.7326
  114MOL0     H15350   8.794   7.571   4.220 -0.5586 -1.1880  1.2022
  114MOL0     H15351   8.630   7.461   4.110  1.4877  2.1219  3.1355
  114MOL0     H15352   8.466   7.475   4.166 -0.4105  0.8389  2.6080
  114MOL0     H15353   8.507   7.564   4.019 -2.0549 -0.3547  2.0657
  114MOL0     H15354   8.178   8.125   4.183  1.1532  0.0327  1.4453
  114MOL0     H15355   7.928   8.160   4.223 -2.4155 -1.8680  2.7253
  114MOL0     H15356   7.690   8.149   4.293  2.5041 -0.7416  0.4066
  114MOL0     H15357   7.742   8.172   4.129 -1.2445  0.5662  0.2063
  114MOL0     H15358   7.514   8.023   4.074 -1.4585 -0.1886 -0.5288
  114MOL0     H15359   7.482   8.087   4.241 -0.0275  1.9356 -0.5617
  114MOL0     H15360   7.567   8.276   4.026 -0.8966  0.3332 -1.2382
  114MOL0     H15361   7.473   8.309   4.174  1.8348  0.8534 -1.0369
  114MOL0     H15362   7.378   8.141   3.935 -0.8337 -2.2665  1.6391
  114MOL0     H15363   7.309   8.131   4.090  1.8602 -1.7761 -0.4008
  114MOL0     H15364   7.259   8.334   3.892 -2.7690 -2.6102  0.1823
  114MOL0     H15365   7.289   8.401   4.056  1.2602 -0.7648 -0.8825
  114MOL0     H15366   7.105   8.195   3.952  0.9070  1.4019 -1.4601
  114MOL0     H15367   7.102   8.231   4.119  1.4936 -2.7678 -0.8733
  114MOL0     H15368   7.038   8.456   3.913  0.6549  1.3346  1.0271
  114MOL0     H15369   7.044   8.446   4.093 -0.9981 -5.0035  2.2194
  114MOL0     H15370   6.875   8.271   4.089 -1.4686  0.1099  0.4524
  114MOL0     H15371   6.857   8.264   3.917 -0.4952 -1.5653  1.2791
  114MOL0     H15372   7.861   7.755   4.208 -0.4494  0.2771 -0.1302
  114MOL0     H15373   8.105   7.701   4.215  1.0955 -0.5985  0.6309
  114MOL0     H15374   8.489   7.947   4.327 -0.2730  0.0495 -0.4536
  114MOL0     H15375   8.702   7.933   4.424  2.3757  0.3851 -1.0514
  114MOL0     H15376   9.504   6.756   4.463  1.7333 -0.5753  0.8653
  114MOL0     H15377   9.286   6.709   4.357 -0.1618 -0.9290 -0.2053
  114MOL0     H15378   9.142   6.393   3.939 -1.4266  1.3044 -2.0769
  114MOL0     H15379   8.953   6.358   3.826 -0.6857 -1.5776  0.2173
  114MOL0     H15380   8.717   6.271   3.750  2.8854  2.3191  1.2103
  114MOL0     H15381   8.775   6.166   3.875 -0.4132  0.2522  1.7581
  114MOL0     H15382   8.470   6.223   3.863 -0.4588  0.4628  0.4171
  114MOL0     H15383   8.557   6.119   3.965 -0.2406  0.6928 -1.1537
  114MOL0     H15384   8.628   5.970   3.801 -0.3158  1.0407  0.3487
  114MOL0     H15385   8.581   6.081   3.671  0.6444 -0.3814  0.4318
  114MOL0     H15386   8.355   6.057   3.701  1.3178 -0.9452 -2.4621
  114MOL0     H15387   8.382   5.960   3.861 -1.3526  0.1358  0.1552
  114MOL0     H15388   8.423   5.664   3.566 -2.5933  0.9546 -1.7179
  114MOL0     H15389   8.707   6.427   4.182  0.7553 -1.5855  1.3087
  114MOL0     H15390   8.920   6.478   4.301  2.0115 -3.2025 -0.3067
  115MOL0     O15391  11.038   7.358   4.278 -0.5549 -0.1403 -0.0853
  115MOL0     C15392  11.086   7.256   4.221  0.5194  0.3420 -0.2957
  115MOL0     O15393  11.021   7.176   4.133  0.2193 -0.2235 -0.6137
  115MOL0     C15394  10.891   7.189   4.103 -0.9928 -0.3120  0.0336
  115MOL0     C15395  10.787   7.174   4.195 -0.2994  0.3822 -1.1269
  115MOL0     C15396  10.657   7.197   4.157 -0.7646  1.1735 -0.4080
  115MOL0     C15397  10.618   7.227   4.032  0.1666  0.6687  0.4195
  115MOL0     O15398  10.492   7.247   3.996  0.5843 -0.1076  0.5352
  115MOL0     C15399  10.418   7.139   3.934 -0.7665 -0.5424  1.2504
  115MOL0     C15400  10.327   7.201   3.827 -0.6291 -0.0880  0.3028
  115MOL0     C15401  10.205   7.112   3.777  0.2386  0.4243 -0.1364
  115MOL0     C15402  10.173   7.134   3.632  0.4940 -0.3808 -0.3707
  115MOL0     C15403  10.030   7.081   3.571  0.6266  0.2882  0.0605
  115MOL0     C15404   9.903   7.145   3.639  0.2365  0.5248  0.7115
  115MOL0     C15405   9.779   7.072   3.585  0.1351 -0.4003  0.8382
  115MOL0     C15406   9.648   7.126   3.634  0.8831  0.5831  0.2059
  115MOL0     N15407   9.524   7.031   3.616  0.0846 -0.6866  1.0148
  115MOL0     C15408   9.412   7.039   3.699  0.3938  0.2820 -0.4734
  115MOL0     C15409   9.317   6.963   3.641  0.5467  0.8090  0.0191
  115MOL0     C15410   9.179   6.945   3.691 -0.2362 -0.4226  0.0437
  115MOL0     C15411   9.162   6.879   3.826  0.7250  0.2112  0.4202
  115MOL0     C15412   9.009   6.864   3.851  0.2277  0.6300 -0.4090
  115MOL0     C15413   8.977   6.847   4.001 -0.1845  0.2990  1.0045
  115MOL0     O15414   8.846   6.892   4.032  0.1633 -0.1008 -0.3959
  115MOL0     C15415   8.739   6.840   3.965 -0.1930  0.1334 -1.1311
  115MOL0     C15416   8.721   6.721   3.894  0.6159  0.3366 -0.5798
  115MOL0     C15417   8.607   6.682   3.828  0.1538 -0.2406 -0.2609
  115MOL0     C15418   8.612   6.561   3.744 -0.4059  0.1492  0.2182
  115MOL0     C15419   8.491   6.765   3.839 -1.0352 -0.1455  0.9336
  115MOL0     C15420   8.363   6.741   3.775  0.8776 -0.4010  0.1304
  115MOL0     O15421   8.292   6.854   3.746  0.1693 -0.3056 -0.4003
  115MOL0     C15422   8.159   6.843   3.720 -0.7689 -0.3835  0.2983
  115MOL0     C15423   8.065   6.830   3.819 -0.1436 -0.4557 -0.4309
  115MOL0     C15424   7.927   6.816   3.784 -0.5844  0.5322 -0.0699
  115MOL0     C15425   7.894   6.804   3.647 -0.0980 -0.0665  0.3172
  115MOL0     O15426   7.769   6.766   3.621 -0.1079  0.0294  0.1047
  115MOL0     C15427   7.711   6.772   3.486 -0.9551  0.4792  0.1354
  115MOL0     C15428   7.567   6.828   3.501 -1.2762  0.1961  0.4665
  115MOL0     C15429   7.496   6.805   3.376 -0.7013 -0.0975 -0.3919
  115MOL0     C15430   7.344   6.822   3.392  0.3057 -0.5662 -0.2852
  115MOL0     C15431   7.253   6.828   3.271 -0.3634 -0.2103 -0.2685
  115MOL0     C15432   7.270   6.701   3.196 -0.2645 -0.3742  0.3666
  115MOL0     C15433   7.159   6.692   3.095  0.7052  0.0930  0.9852
  115MOL0     C15434   7.162   6.562   3.005 -0.1994 -0.2791  0.0772
  115MOL0    Cl15435   6.992   6.513   2.944  0.0285 -0.2177  0.3764
  115MOL0     C15436   7.993   6.804   3.553 -0.7847 -0.4174 -0.2150
  115MOL0     C15437   8.119   6.834   3.590  0.5540 -0.1308  0.7775
  115MOL0     O15438   8.315   6.628   3.769 -0.7990  0.8011  0.6055
  115MOL0     C15439   8.504   6.881   3.915  0.5211  1.1538 -0.8318
  115MOL0     C15440   8.628   6.920   3.972 -0.2354  0.5639  0.3239
  115MOL0     N15441   9.365   6.922   3.523  0.0091 -0.4396 -0.6091
  115MOL0     N15442   9.487   6.955   3.510 -0.2702  0.0643 -0.5168
  115MOL0     C15443  10.713   7.224   3.933  0.5743  0.7118  0.7118
  115MOL0     C15444  10.850   7.222   3.970 -0.2956 -0.4723  0.4173
  115MOL0     C15445  11.213   7.210   4.257  0.1725  0.3857 -0.2704
  115MOL0     C15446  11.287   7.122   4.176 -0.2933 -0.5185  0.7571
  115MOL0     C15447  11.413   7.072   4.221 -0.8399  0.7895  0.2317
  115MOL0     C15448  11.463   7.103   4.346  0.0544  0.4531 -0.9829
  115MOL0     O15449  11.584   7.051   4.376 -0.2208  0.8755  0.7977
  115MOL0     C15450  11.603   7.047   4.518  0.4584  1.1160 -1.2579
  115MOL0     C15451  11.738   6.974   4.554 -0.3154 -0.1570 -0.0960
  115MOL0     C15452  11.777   6.983   4.698  0.3923  0.6750 -0.4536
  115MOL0     C15453  11.891   7.079   4.712 -0.6375 -0.0013 -0.8589
  115MOL0     C15454  12.021   7.018   4.663  0.2339  0.0483 -0.1642
  115MOL0     C15455  12.123   6.956   4.631 -0.8098  0.3223 -0.2408
  115MOL0     C15456  11.393   7.185   4.426  0.1145 -0.3948 -0.3100
  115MOL0     C15457  11.271   7.235   4.380  0.5823 -0.4917 -0.3136
  115MOL0     H15458  10.808   7.146   4.298 -0.8159 -2.0437 -1.6174
  115MOL0     H15459  10.576   7.174   4.225 -1.5325  2.9994 -0.6416
  115MOL0     H15460  10.477   7.060   3.886 -0.7814 -1.5931  2.8867
  115MOL0     H15461  10.371   7.084   4.016  0.7717 -1.0757  1.8208
  115MOL0     H15462  10.286   7.296   3.865  1.2390  0.1762  1.8014
  115MOL0     H15463  10.385   7.242   3.744  1.9805  0.7521  2.3906
  115MOL0     H15464  10.226   7.008   3.803  0.4913  0.9029  1.7246
  115MOL0     H15465  10.120   7.145   3.837 -0.4125  0.7273 -1.1910
  115MOL0     H15466  10.194   7.240   3.616  0.3956 -0.4730 -1.1807
  115MOL0     H15467  10.251   7.082   3.576  1.8329 -0.3771  1.4040
  115MOL0     H15468  10.020   7.086   3.462 -1.1255  0.7117  0.2183
  115MOL0     H15469  10.028   6.976   3.601  2.5265  0.0563 -0.5056
  115MOL0     H15470   9.889   7.138   3.748 -4.7734 -2.6063  0.1489
  115MOL0     H15471   9.911   7.252   3.615 -1.0702  0.7119  1.0567
  115MOL0     H15472   9.779   7.075   3.476 -2.1690  3.2122  0.7477
  115MOL0     H15473   9.792   6.965   3.602 -1.9526 -1.5369 -3.3646
  115MOL0     H15474   9.614   7.221   3.592 -0.6320  1.5999  3.4506
  115MOL0     H15475   9.668   7.139   3.741  1.3369  0.2752  0.1608
  115MOL0     H15476   9.417   7.079   3.799 -0.9852 -1.2044  0.2237
  115MOL0     H15477   9.134   7.044   3.689  1.0827  0.2083 -1.8174
  115MOL0     H15478   9.122   6.887   3.617  1.0056 -0.4150 -0.9622
  115MOL0     H15479   9.213   6.942   3.899  2.6890 -2.3580  1.4094
  115MOL0     H15480   9.215   6.787   3.852 -0.1318 -0.5351 -0.4025
  115MOL0     H15481   8.968   6.783   3.788  1.0219  2.6502 -3.7683
  115MOL0     H15482   8.963   6.959   3.823 -2.2575 -0.0177  1.1168
  115MOL0     H15483   9.048   6.894   4.068 -0.3023  1.1978  0.5097
  115MOL0     H15484   8.982   6.739   4.020  1.0128  0.4557  1.6551
  115MOL0     H15485   8.797   6.648   3.921 -1.8284 -1.1742  2.9567
  115MOL0     H15486   8.555   6.477   3.786  1.1451 -1.7947 -1.3870
  115MOL0     H15487   8.569   6.573   3.644  1.5050 -2.7235 -1.0897
  115MOL0     H15488   8.711   6.517   3.738  0.5308  2.0051  1.2060
  115MOL0     H15489   8.093   6.847   3.923  0.6856 -0.5558 -0.6264
  115MOL0     H15490   7.847   6.808   3.857 -1.4511  0.9696 -0.9456
  115MOL0     H15491   7.764   6.834   3.413  0.3392 -3.0490 -2.1657
  115MOL0     H15492   7.710   6.671   3.446  0.2474 -0.6427  2.6727
  115MOL0     H15493   7.513   6.782   3.585 -1.1367  0.4723  0.7116
  115MOL0     H15494   7.563   6.937   3.517 -1.5731  0.7485 -2.6902
  115MOL0     H15495   7.519   6.708   3.330  0.7590  0.7308 -1.4842
  115MOL0     H15496   7.524   6.877   3.299 -1.5736 -1.2363 -1.8336
  115MOL0     H15497   7.310   6.748   3.466 -0.3456 -1.5217 -1.4971
  115MOL0     H15498   7.342   6.922   3.436  1.1013 -0.7907  0.2928
  115MOL0     H15499   7.274   6.917   3.210 -4.1094  0.3453 -1.0208
  115MOL0     H15500   7.145   6.829   3.287 -0.9096  0.9509 -3.3196
  115MOL0     H15501   7.371   6.702   3.155  0.3699  3.6518  1.5822
  115MOL0     H15502   7.256   6.614   3.262 -3.4641  0.5864  1.1379
  115MOL0     H15503   7.162   6.777   3.025 -0.7468 -0.3913  0.2860
  115MOL0     H15504   7.065   6.698   3.151  1.1615 -0.7375  1.8619
  115MOL0     H15505   7.203   6.476   3.060  1.2073  0.9031  0.9479
  115MOL0     H15506   7.228   6.577   2.919  0.3478 -0.7437  0.4031
  115MOL0     H15507   7.971   6.779   3.450 -2.0139 -2.2962  0.4563
  115MOL0     H15508   8.191   6.842   3.510 -1.2303  1.5853 -0.7736
  115MOL0     H15509   8.418   6.945   3.932 -1.2620 -1.9218  4.5288
  115MOL0     H15510   8.628   7.006   4.038  1.1749 -0.5999  1.9494
  115MOL0     H15511  10.677   7.245   3.833 -2.0040 -1.8798  0.9368
  115MOL0     H15512  10.918   7.252   3.892 -1.9413 -0.3440 -1.0356
  115MOL0     H15513  11.236   7.098   4.083 -0.8496  1.0870  0.6225
  115MOL0     H15514  11.467   7.003   4.156 -1.2120 -2.1217  2.7747
  115MOL0     H15515  11.615   7.153   4.543  3.1826  0.9895 -1.7629
  115MOL0     H15516  11.521   7.012   4.581 -1.0704  1.9595 -2.7119
  115MOL0     H15517  11.814   7.012   4.485  2.1753 -2.5762  1.1168
  115MOL0     H15518  11.728   6.867   4.533 -1.9608 -0.3669  1.5270
  115MOL0     H15519  11.801   6.880   4.727  0.8205  0.1377 -2.5358
  115MOL0     H15520  11.697   7.001   4.771  1.2217  1.2666  0.3367
  115MOL0     H15521  11.898   7.110   4.817 -1.0047 -0.2912 -0.7465
  115MOL0     H15522  11.864   7.163   4.647 -3.9731 -0.2986 -0.0269
  115MOL0     H15523  12.218   6.917   4.602  0.0225  1.4105  0.8955
  115MOL0     H15524  11.421   7.230   4.521  0.0550 -0.1821 -0.3918
  115MOL0     H15525  11.203   7.287   4.446  1.4224  1.7531 -1.1098
  116MOL0     O15526  10.767   8.049   1.175  0.2159  0.0476  0.1253
  116MOL0     C15527  10.706   8.017   1.067 -0.2882  0.7635 -0.4558
  116MOL0     O15528  10.565   8.015   1.056  0.8081  0.0357  0.4627
  116MOL0     C15529  10.482   8.071   1.144 -0.3670  0.3614 -0.7180
  116MOL0     C15530  10.384   7.993   1.207  0.2929 -0.2452 -0.0421
  116MOL0     C15531  10.298   8.046   1.306  0.0416 -0.0607 -0.1401
  116MOL0     C15532  10.305   8.186   1.322 -0.2103  0.1160  0.4762
  116MOL0     O15533  10.217   8.255   1.400  0.0388  0.5156  0.5809
  116MOL0     C15534  10.083   8.272   1.342  0.7302  0.0063 -0.6901
  116MOL0     C15535   9.988   8.178   1.413 -0.1696  0.7488 -0.3495
  116MOL0     C15536   9.978   8.219   1.558  0.6910 -0.1090 -0.9051
  116MOL0     C15537   9.864   8.143   1.638  0.0467 -1.2726 -0.4682
  116MOL0     C15538   9.894   8.158   1.794 -0.1682  0.3963 -0.9689
  116MOL0     C15539   9.771   8.161   1.891  0.3117 -0.0636 -0.2945
  116MOL0     C15540   9.715   8.021   1.886 -0.0654 -0.7273  0.7414
  116MOL0     C15541   9.559   8.039   1.898 -0.9527  0.6145 -0.2935
  116MOL0     N15542   9.504   7.909   1.880 -0.4312  0.2859 -0.3353
  116MOL0     C15543   9.485   7.806   1.973  0.3730 -1.7588 -0.4290
  116MOL0     C15544   9.430   7.707   1.915 -0.4199  0.6290  0.3566
  116MOL0     C15545   9.398   7.566   1.954  0.2905  0.4171 -0.3129
  116MOL0     C15546   9.251   7.547   1.979 -0.2603 -0.3011  0.6787
  116MOL0     C15547   9.221   7.508   2.123 -0.2747  0.1449 -0.6507
  116MOL0     C15548   9.074   7.528   2.145  0.3671  0.1766  0.8543
  116MOL0     O15549   9.057   7.674   2.153  0.0395 -0.0791  0.3856
  116MOL0     C15550   8.930   7.731   2.157 -0.2001 -0.0014  0.3185
  116MOL0     C15551   8.920   7.872   2.151  0.0973  0.0383  0.4871
  116MOL0     C15552   8.800   7.943   2.168  0.2616  0.1370 -0.4582
  116MOL0     C15553   8.810   8.098   2.168 -0.0183 -0.3993  0.6053
  116MOL0     C15554   8.679   7.869   2.181  0.2002  0.2548  0.5226
  116MOL0     C15555   8.547   7.923   2.190  0.3876  0.5717 -0.2651
  116MOL0     O15556   8.445   7.835   2.205  0.0087  0.1078 -0.8775
  116MOL0     C15557   8.325   7.867   2.265  0.7985  0.0016 -0.4578
  116MOL0     C15558   8.236   7.760   2.254 -0.1649  0.1982 -0.3391
  116MOL0     C15559   8.102   7.776   2.285 -0.0051 -0.6344 -0.4468
  116MOL0     C15560   8.056   7.893   2.357  0.0739 -0.3165 -0.3714
  116MOL0     O15561   7.925   7.912   2.372 -0.3688 -0.9946  0.7725
  116MOL0     C15562   7.826   7.829   2.318 -0.2468 -0.3179  0.4337
  116MOL0     C15563   7.687   7.887   2.319 -0.2792  0.0123 -0.5008
  116MOL0     C15564   7.637   7.892   2.460  0.7501  0.2123  0.0955
  116MOL0     C15565   7.488   7.939   2.478 -0.3322  0.1438 -0.2830
  116MOL0     C15566   7.445   7.914   2.628 -0.3185  0.6893 -0.2838
  116MOL0     C15567   7.310   7.968   2.658 -0.2045 -0.1139 -0.0251
  116MOL0     C15568   7.239   7.924   2.788  0.1349  0.0274  0.2705
  116MOL0     C15569   7.128   8.013   2.823 -0.3970  1.1908  0.1609
  116MOL0    Cl15570   7.002   8.016   2.684 -0.0566 -0.5178  0.0380
  116MOL0     C15571   8.151   7.996   2.379  0.3346  0.2713  0.0388
  116MOL0     C15572   8.284   7.988   2.326  0.7838 -0.8888  0.1467
  116MOL0     O15573   8.526   8.043   2.162 -0.5597  0.3447  0.3452
  116MOL0     C15574   8.698   7.730   2.210  0.3071 -0.2155 -0.2872
  116MOL0     C15575   8.818   7.664   2.186  0.0587  0.1037  0.7356
  116MOL0     N15576   9.409   7.754   1.781  0.0409  0.2085  0.4649
  116MOL0     N15577   9.444   7.876   1.766 -0.0485  0.5057 -0.0385
  116MOL0     C15578  10.407   8.256   1.260 -0.1116 -0.1182 -0.0849
  116MOL0     C15579  10.506   8.197   1.181  0.2455  0.2262  0.0545
  116MOL0     C15580  10.784   7.938   0.969  0.7332  0.1776 -0.6439
  116MOL0     C15581  10.920   7.970   0.940  0.3225  0.2959  0.1006
  116MOL0     C15582  10.990   7.897   0.840  0.2983  0.0085  0.4689
  116MOL0     C15583  10.937   7.778   0.784  1.0166 -0.6464  1.2101
  116MOL0     O15584  10.994   7.689   0.700 -0.5778  0.4070 -0.3836
  116MOL0     C15585  11.134   7.696   0.678  0.8714 -1.2214 -0.7466
  116MOL0     C15586  11.172   7.561   0.615 -0.6464  0.0640  0.6652
  116MOL0     C15587  11.318   7.517   0.638  0.4028 -0.3261 -0.5415
  116MOL0     C15588  11.354   7.400   0.545  0.2915  0.1830  0.3203
  116MOL0     C15589  11.484   7.327   0.576  0.5355  0.0524  0.2102
  116MOL0     C15590  11.584   7.257   0.585  0.2952  0.0207  0.0664
  116MOL0     C15591  10.814   7.738   0.829 -0.3902 -0.2252 -0.0869
  116MOL0     C15592  10.740   7.812   0.912  0.2508  1.2998  0.2720
  116MOL0     H15593  10.383   7.885   1.198  2.0748 -0.2451 -0.5749
  116MOL0     H15594  10.219   7.990   1.355  1.7512 -1.9504  0.5410
  116MOL0     H15595  10.051   8.376   1.354 -4.0382 -1.3392  0.6837
  116MOL0     H15596  10.077   8.246   1.236 -2.3671  1.6297 -1.0289
  116MOL0     H15597   9.888   8.188   1.368 -1.0116  2.7096  1.7864
  116MOL0     H15598  10.023   8.075   1.398 -2.1228 -0.3143  1.7649
  116MOL0     H15599  10.072   8.194   1.608  1.0094 -1.0447 -1.9473
  116MOL0     H15600   9.963   8.326   1.572  0.0701 -0.2130 -0.7414
  116MOL0     H15601   9.765   8.185   1.618  0.2409 -0.6208 -0.0999
  116MOL0     H15602   9.859   8.038   1.611 -2.6742 -1.6402  1.0938
  116MOL0     H15603   9.967   8.081   1.820 -1.9029 -2.0198 -2.8445
  116MOL0     H15604   9.948   8.252   1.811  0.6564 -0.6257  3.2064
  116MOL0     H15605   9.817   8.194   1.985  1.6679  4.0527 -2.1877
  116MOL0     H15606   9.695   8.230   1.854 -1.8495 -1.6163  0.9868
  116MOL0     H15607   9.739   7.968   1.794 -1.0267 -1.5205  0.9245
  116MOL0     H15608   9.764   7.955   1.958  4.0466  0.4368 -0.7374
  116MOL0     H15609   9.522   8.095   1.812 -0.7480  1.8445  0.3904
  116MOL0     H15610   9.525   8.083   1.993  0.1151 -1.0347  0.9090
  116MOL0     H15611   9.517   7.808   2.077  4.6101  0.3914 -1.5128
  116MOL0     H15612   9.443   7.503   1.877 -0.7385  0.4790 -0.9810
  116MOL0     H15613   9.449   7.556   2.050 -1.3539  4.2542  1.1423
  116MOL0     H15614   9.211   7.477   1.906  1.8570 -1.9287  0.9856
  116MOL0     H15615   9.210   7.643   1.946  2.3777 -0.0742 -2.3664
  116MOL0     H15616   9.274   7.575   2.191 -1.6488 -0.3252  0.9553
  116MOL0     H15617   9.245   7.403   2.144  1.1280  0.7613  1.0736
  116MOL0     H15618   9.048   7.475   2.237  1.3692 -2.4973 -0.3070
  116MOL0     H15619   9.012   7.479   2.070  1.6379 -0.6267  0.2990
  116MOL0     H15620   9.006   7.936   2.134 -1.6835  3.0025  1.9228
  116MOL0     H15621   8.742   8.147   2.239  2.3380  0.6026  2.2789
  116MOL0     H15622   8.909   8.113   2.212  1.8222 -0.1878 -3.2403
  116MOL0     H15623   8.798   8.132   2.065  0.8284  1.7744  1.1624
  116MOL0     H15624   8.260   7.669   2.201 -2.4577 -0.9075  0.3834
  116MOL0     H15625   8.035   7.694   2.261  1.0971 -2.0141  0.9707
  116MOL0     H15626   7.854   7.803   2.216 -0.2859  0.8187  0.1168
  116MOL0     H15627   7.822   7.740   2.381 -0.8424 -0.6913 -0.1227
  116MOL0     H15628   7.699   7.988   2.279  0.1132  0.8517  1.5633
  116MOL0     H15629   7.616   7.832   2.258 -3.7324 -0.1651  3.2572
  116MOL0     H15630   7.710   7.950   2.518 -0.1598  1.4746  0.0250
  116MOL0     H15631   7.646   7.789   2.496  2.4409 -0.8776 -3.0461
  116MOL0     H15632   7.490   8.045   2.452  3.1029  1.0591  2.9540
  116MOL0     H15633   7.418   7.885   2.413  0.0278 -1.2364  0.4407
  116MOL0     H15634   7.503   7.960   2.708 -1.7344  0.8903  0.6540
  116MOL0     H15635   7.442   7.811   2.665 -2.6633  1.3347  1.5614
  116MOL0     H15636   7.309   8.077   2.658  1.0372 -0.0983  0.3305
  116MOL0     H15637   7.250   7.936   2.571  0.2782 -1.9176  0.2518
  116MOL0     H15638   7.310   7.921   2.872 -0.2604  0.6612  0.6383
  116MOL0     H15639   7.197   7.824   2.776 -2.0102  0.6829  1.7257
  116MOL0     H15640   7.169   8.113   2.842 -0.1008  1.2603 -0.7930
  116MOL0     H15641   7.080   7.987   2.918  0.6922  2.0151  0.9587
  116MOL0     H15642   8.110   8.091   2.411 -2.0919  0.0076 -2.0131
  116MOL0     H15643   8.347   8.076   2.315 -1.7694  1.3198  1.9049
  116MOL0     H15644   8.618   7.663   2.241 -0.5033 -0.0905 -1.9841
  116MOL0     H15645   8.826   7.556   2.196 -4.2047 -0.6054 -1.4805
  116MOL0     H15646  10.420   8.361   1.280  3.5697  0.1336 -2.7322
  116MOL0     H15647  10.582   8.268   1.147 -0.8438  0.9302 -0.9845
  116MOL0     H15648  10.975   8.052   0.986  1.7866  0.5906 -2.0115
  116MOL0     H15649  11.092   7.921   0.811  0.3110  0.8656  1.2023
  116MOL0     H15650  11.164   7.770   0.603  0.1023  0.9836  1.0061
  116MOL0     H15651  11.190   7.695   0.772 -0.1448  1.0869 -0.0484
  116MOL0     H15652  11.150   7.560   0.508  0.6015  2.9655  0.2881
  116MOL0     H15653  11.126   7.476   0.666  1.0998 -0.4263  1.5300
  116MOL0     H15654  11.345   7.498   0.742  2.6481  4.8272  0.1809
  116MOL0     H15655  11.379   7.605   0.611  0.0791 -0.6036 -2.3037
  116MOL0     H15656  11.368   7.433   0.441  1.4768 -0.1576  0.3543
  116MOL0     H15657  11.278   7.322   0.553  1.4341 -1.2034 -1.5675
  116MOL0     H15658  11.669   7.191   0.582  1.1970  1.0589  1.7699
  116MOL0     H15659  10.780   7.643   0.789 -0.0953  0.4364 -2.0297
  116MOL0     H15660  10.647   7.768   0.945 -0.2343  0.3064 -2.2027
  117MOL0     O15661  10.038   9.304   5.164  0.0222  0.4295 -0.9524
  117MOL0     C15662  10.070   9.392   5.084  0.3729 -0.2250 -0.0204
  117MOL0     O15663   9.988   9.485   5.029 -0.4663 -0.6612  0.6603
  117MOL0     C15664   9.855   9.480   5.065  1.1854  0.4875  0.4720
  117MOL0     C15665   9.808   9.545   5.185  0.5529 -0.0386  0.5653
  117MOL0     C15666   9.684   9.533   5.231  0.3976  0.1810  0.5534
  117MOL0     C15667   9.594   9.456   5.146 -0.6018 -0.4236  0.2390
  117MOL0     O15668   9.471   9.422   5.200 -0.2731 -0.0414  0.0673
  117MOL0     C15669   9.376   9.348   5.119  0.1414  0.4705 -0.1415
  117MOL0     C15670   9.231   9.380   5.173  0.7780 -0.2571  0.2639
  117MOL0     C15671   9.122   9.300   5.108 -0.6973  0.2888 -0.8585
  117MOL0     C15672   9.080   9.356   4.967  0.9592 -0.2570 -0.0973
  117MOL0     C15673   8.981   9.469   4.990  0.2921 -0.6031 -0.0674
  117MOL0     C15674   8.900   9.517   4.866 -0.5088  0.1663 -0.0631
  117MOL0     C15675   8.784   9.427   4.814  0.1983 -0.3276 -0.4233
  117MOL0     C15676   8.829   9.332   4.705 -0.4908 -0.1036 -0.5019
  117MOL0     N15677   8.724   9.236   4.669  0.4350  0.3574 -0.4341
  117MOL0     C15678   8.614   9.252   4.588 -0.2499  0.0256  0.2272
  117MOL0     C15679   8.560   9.125   4.576 -0.2989 -1.2514 -0.8424
  117MOL0     C15680   8.455   9.076   4.487 -0.2961  0.1670  0.5938
  117MOL0     C15681   8.319   9.086   4.557 -0.4958  0.3928 -0.7108
  117MOL0     C15682   8.211   9.131   4.462 -0.2862  0.1390  1.1597
  117MOL0     C15683   8.093   9.195   4.537 -0.3816  0.4440  0.0078
  117MOL0     O15684   8.140   9.304   4.623 -0.2032  0.3910 -0.1484
  117MOL0     C15685   8.044   9.348   4.715 -0.3344 -0.1287 -0.4727
  117MOL0     C15686   8.074   9.391   4.844 -0.1695  0.6986  0.6013
  117MOL0     C15687   7.971   9.433   4.940 -0.4178 -0.0657 -0.6337
  117MOL0     C15688   8.023   9.459   5.074  0.6906  0.4144 -0.3099
  117MOL0     C15689   7.835   9.431   4.901  0.2203 -0.1823  0.3142
  117MOL0     C15690   7.724   9.459   4.992 -0.1093  0.9881 -0.5979
  117MOL0     O15691   7.600   9.463   4.937  0.1647 -1.0661 -0.0003
  117MOL0     C15692   7.485   9.479   5.011  0.1276 -0.3994  0.0220
  117MOL0     C15693   7.473   9.564   5.122  0.2837 -0.7576  0.5026
  117MOL0     C15694   7.349   9.567   5.195 -0.1620 -0.9878  0.8604
  117MOL0     C15695   7.239   9.501   5.154 -0.2520  0.0417  0.6379
  117MOL0     O15696   7.117   9.503   5.213  0.1963  0.1763 -0.4223
  117MOL0     C15697   7.107   9.597   5.323  0.8008  0.1270  0.1493
  117MOL0     C15698   6.963   9.590   5.380 -0.0560  0.2222 -0.1286
  117MOL0     C15699   6.846   9.603   5.285  0.5781 -0.5224  1.0509
  117MOL0     C15700   6.707   9.622   5.351 -0.1944 -0.3734 -0.0206
  117MOL0     C15701   6.588   9.641   5.259  0.6997  0.7432 -0.8452
  117MOL0     C15702   6.571   9.528   5.165 -0.2035 -1.0234  1.0215
  117MOL0     C15703   6.457   9.560   5.069 -0.0818 -0.0352  0.1397
  117MOL0     C15704   6.504   9.633   4.952 -1.2316  0.4552  1.4719
  117MOL0    Cl15705   6.572   9.522   4.831 -0.1243 -0.5299 -0.5114
  117MOL0     C15706   7.250   9.410   5.053  0.4315 -0.2101 -0.1190
  117MOL0     C15707   7.372   9.406   4.970  0.2778  0.7955 -0.2863
  117MOL0     O15708   7.749   9.467   5.110 -0.1504  0.1987  0.3142
  117MOL0     C15709   7.812   9.397   4.761 -0.3692  0.7210  0.0791
  117MOL0     C15710   7.916   9.362   4.672  0.2769 -0.1773 -0.4656
  117MOL0     N15711   8.634   9.036   4.640 -0.4674  0.0162 -0.3695
  117MOL0     N15712   8.736   9.101   4.689  0.6196 -0.4539 -0.5977
  117MOL0     C15713   9.635   9.409   5.022  0.1044  0.7188 -0.4705
  117MOL0     C15714   9.762   9.421   4.981  0.9465  0.8595 -0.1914
  117MOL0     C15715  10.207   9.382   5.039 -0.0764 -0.6774  0.4122
  117MOL0     C15716  10.304   9.367   5.134 -0.3301 -0.0291 -1.0082
  117MOL0     C15717  10.441   9.380   5.085 -0.0630  0.3401  0.5087
  117MOL0     C15718  10.468   9.408   4.951 -0.3205 -0.7279 -0.1677
  117MOL0     O15719  10.592   9.449   4.914 -0.9741 -0.0898 -0.0851
  117MOL0     C15720  10.632   9.371   4.795  0.2620 -0.0048  0.1615
  117MOL0     C15721  10.766   9.422   4.752 -0.5982  0.6666 -0.6461
  117MOL0     C15722  10.862   9.378   4.866  0.0466 -0.4637  0.3219
  117MOL0     C15723  10.999   9.384   4.809 -0.2203  0.9625  0.2678
  117MOL0     C15724  11.056   9.520   4.811  0.1998  0.1781  0.0499
  117MOL0     C15725  11.115   9.630   4.818  0.2972 -0.3237 -1.7051
  117MOL0     C15726  10.364   9.415   4.860  0.2098 -0.8474 -0.6131
  117MOL0     C15727  10.232   9.408   4.903  0.5759  0.4549 -0.0157
  117MOL0     H15728   9.867   9.616   5.242  1.3850 -1.1140  1.0710
  117MOL0     H15729   9.652   9.566   5.329 -0.5790 -0.5855  0.5057
  117MOL0     H15730   9.366   9.387   5.017 -3.2683  0.1860 -0.0243
  117MOL0     H15731   9.397   9.241   5.119  0.6659  0.5695 -0.1453
  117MOL0     H15732   9.242   9.364   5.280  2.7098 -0.2091  0.1171
  117MOL0     H15733   9.217   9.487   5.157 -1.2345 -0.3433  1.2093
  117MOL0     H15734   9.161   9.198   5.099 -3.4389 -0.8679 -0.6253
  117MOL0     H15735   9.041   9.294   5.182  0.2113  1.5067  0.2760
  117MOL0     H15736   9.165   9.377   4.902 -0.6046  0.2918 -2.0516
  117MOL0     H15737   9.029   9.279   4.909  0.0557  0.0500  0.2718
  117MOL0     H15738   8.906   9.444   5.066  0.3049 -0.0197  0.1462
  117MOL0     H15739   9.030   9.553   5.039 -1.9195  0.8641 -0.2120
  117MOL0     H15740   8.852   9.613   4.886 -0.7028 -0.1019  0.8027
  117MOL0     H15741   8.965   9.536   4.781 -1.7128 -0.7162 -1.2116
  117MOL0     H15742   8.733   9.371   4.893 -1.8765 -0.1326 -1.5469
  117MOL0     H15743   8.706   9.495   4.779 -0.2745 -0.7099 -0.1224
  117MOL0     H15744   8.913   9.270   4.740  0.2878  1.8503  1.2963
  117MOL0     H15745   8.867   9.379   4.614  0.7600 -1.1884 -0.5770
  117MOL0     H15746   8.580   9.340   4.534  0.7783  1.0706  1.2318
  117MOL0     H15747   8.464   9.141   4.400  1.5356  0.6078  1.0612
  117MOL0     H15748   8.470   8.969   4.468 -3.1057 -1.2881  4.9798
  117MOL0     H15749   8.318   9.153   4.644 -3.5525 -0.0241 -0.3376
  117MOL0     H15750   8.289   8.987   4.592 -1.5792  0.7264 -0.6791
  117MOL0     H15751   8.182   9.039   4.410  0.7990  1.0793 -1.2285
  117MOL0     H15752   8.253   9.201   4.390  1.2861  0.9661  2.8155
  117MOL0     H15753   8.037   9.120   4.593 -0.6084  2.0206  2.0500
  117MOL0     H15754   8.026   9.232   4.459 -1.1941  3.2863  1.8890
  117MOL0     H15755   8.176   9.372   4.874 -0.7447 -3.8374  0.3517
  117MOL0     H15756   8.130   9.478   5.073  1.0965 -1.6255 -0.0387
  117MOL0     H15757   7.976   9.556   5.094 -2.3916 -0.2541 -3.2870
  117MOL0     H15758   7.995   9.375   5.138  0.4961 -0.2348 -1.2231
  117MOL0     H15759   7.553   9.632   5.150 -1.7351  1.9131  0.2310
  117MOL0     H15760   7.349   9.645   5.271 -2.7395  0.3610 -0.4163
  117MOL0     H15761   7.174   9.577   5.408  0.0880  2.7127  1.4352
  117MOL0     H15762   7.122   9.703   5.301  0.7339  0.0563 -0.2422
  117MOL0     H15763   6.952   9.494   5.431  0.8744  1.1189  1.8274
  117MOL0     H15764   6.947   9.668   5.455 -0.6671  0.4516 -0.4824
  117MOL0     H15765   6.835   9.505   5.239 -0.1218 -1.4226  3.0058
  117MOL0     H15766   6.866   9.673   5.204  1.1122 -2.5417 -0.6562
  117MOL0     H15767   6.692   9.529   5.407  1.1207 -1.6874 -1.7075
  117MOL0     H15768   6.704   9.691   5.436 -0.0557  1.7826 -1.6775
  117MOL0     H15769   6.618   9.730   5.203  0.9647  1.2018 -0.0060
  117MOL0     H15770   6.496   9.653   5.317  0.1156 -2.1840 -0.9908
  117MOL0     H15771   6.664   9.517   5.109 -0.0504 -0.6562  1.2050
  117MOL0     H15772   6.543   9.435   5.216 -2.5270 -0.4309  0.9279
  117MOL0     H15773   6.371   9.603   5.121  0.0689 -1.0424  1.2386
  117MOL0     H15774   6.416   9.469   5.024 -1.7336  1.8892 -2.6525
  117MOL0     H15775   6.559   9.726   4.967 -2.2081  1.2825  0.1483
  117MOL0     H15776   6.410   9.677   4.917 -1.6214 -1.3744  0.0654
  117MOL0     H15777   7.164   9.345   5.038  0.5448 -0.5027  0.4740
  117MOL0     H15778   7.373   9.330   4.892 -2.1456  0.5321 -0.1659
  117MOL0     H15779   7.709   9.404   4.728 -0.8404  0.6319  1.5067
  117MOL0     H15780   7.896   9.349   4.566 -0.2677 -2.3584 -0.1464
  117MOL0     H15781   9.570   9.353   4.955 -0.0998  1.3964 -0.8485
  117MOL0     H15782   9.777   9.378   4.883 -0.9638  0.5448 -0.3945
  117MOL0     H15783  10.279   9.344   5.237  1.3375 -3.4570 -1.2320
  117MOL0     H15784  10.525   9.358   5.151 -0.4679 -2.5881  0.1821
  117MOL0     H15785  10.642   9.265   4.818  0.9688  0.6983  3.6138
  117MOL0     H15786  10.555   9.377   4.718 -2.0801 -3.7020  1.9873
  117MOL0     H15787  10.766   9.531   4.762 -1.0318  0.5742  0.6322
  117MOL0     H15788  10.790   9.384   4.653 -3.2770 -1.6011 -0.5531
  117MOL0     H15789  10.847   9.274   4.897  0.8815 -0.1965  1.7264
  117MOL0     H15790  10.837   9.439   4.953  4.3723  1.7201  0.2802
  117MOL0     H15791  10.996   9.347   4.706  1.6734 -0.7608  0.7586
  117MOL0     H15792  11.072   9.316   4.855  1.3479  2.1820 -0.3519
  117MOL0     H15793  11.168   9.722   4.804  1.6429 -1.0840 -1.7961
  117MOL0     H15794  10.375   9.454   4.759 -2.6105  0.9765 -0.3217
  117MOL0     H15795  10.156   9.438   4.830 -0.1018 -0.6065  0.2232
  118MOL0     O15796   8.211   8.910   6.667  0.2711 -0.5818  0.0705
  118MOL0     C15797   8.155   8.807   6.629 -0.4285 -0.6077 -0.5148
  118MOL0     O15798   8.019   8.796   6.607 -0.8141 -0.1312  0.3628
  118MOL0     C15799   7.936   8.903   6.638  0.4918  0.0592 -0.1391
  118MOL0     C15800   7.920   8.935   6.773  0.4414  0.0261  0.0587
  118MOL0     C15801   7.836   9.046   6.800 -0.0624 -0.4627  0.0926
  118MOL0     C15802   7.773   9.119   6.703  0.3338  0.1632  0.0232
  118MOL0     O15803   7.692   9.227   6.738 -0.5536  0.6587 -0.6056
  118MOL0     C15804   7.593   9.262   6.638 -0.2900  0.5146 -0.3867
  118MOL0     C15805   7.533   9.387   6.697 -0.3259 -0.2861 -0.6550
  118MOL0     C15806   7.471   9.360   6.833 -0.2144 -0.2149 -0.3952
  118MOL0     C15807   7.393   9.482   6.885 -0.0589  1.0253 -0.2089
  118MOL0     C15808   7.308   9.453   7.008  0.3224 -0.2192  0.5669
  118MOL0     C15809   7.317   9.568   7.119  0.4835 -0.2803 -0.7278
  118MOL0     C15810   7.224   9.520   7.235 -0.0483 -0.5862 -0.1656
  118MOL0     C15811   7.233   9.608   7.358  0.2836 -0.8131 -0.0883
  118MOL0     N15812   7.163   9.738   7.348 -0.2594  0.1685 -0.9094
  118MOL0     C15813   7.030   9.771   7.360  1.0396 -0.2168 -0.1602
  118MOL0     C15814   7.016   9.904   7.331  0.8173 -0.1508  0.6921
  118MOL0     C15815   6.890   9.992   7.338  1.0970 -0.4188  0.5219
  118MOL0     C15816   6.916  10.125   7.405 -0.1882  0.1478 -0.5202
  118MOL0     C15817   6.800  10.226   7.385 -0.0296  0.6618  0.1461
  118MOL0     C15818   6.659  10.173   7.420 -0.8140  0.5594  0.2320
  118MOL0     O15819   6.661  10.116   7.551 -0.6212  0.5588  0.4335
  118MOL0     C15820   6.529  10.070   7.583 -0.3717  0.7325 -0.7131
  118MOL0     C15821   6.473   9.960   7.524 -0.0913 -0.6072 -0.6358
  118MOL0     C15822   6.347   9.914   7.566 -0.0698  0.1436  0.4152
  118MOL0     C15823   6.291   9.795   7.494 -0.7515  0.1125 -0.2697
  118MOL0     C15824   6.274   9.981   7.672  0.2025 -0.2583  0.7974
  118MOL0     C15825   6.133   9.943   7.701 -0.4210  0.0281  0.2462
  118MOL0     O15826   6.096   9.964   7.827  0.0355  0.9172  0.2658
  118MOL0     C15827   5.969   9.916   7.864 -0.1880  0.1461 -0.0626
  118MOL0     C15828   5.894   9.998   7.958  0.7638 -0.5780 -0.3882
  118MOL0     C15829   5.762   9.958   7.989  0.5367 -0.6205 -0.4779
  118MOL0     C15830   5.699   9.843   7.938 -0.0692  0.2383  0.0135
  118MOL0     O15831   5.576   9.796   7.968  0.4675 -0.3065 -1.0636
  118MOL0     C15832   5.471   9.892   7.999  0.1590 -0.6838 -0.0333
  118MOL0     C15833   5.337   9.828   7.991 -0.7430  0.2638  0.0563
  118MOL0     C15834   5.325   9.700   8.087  0.5344 -0.3756 -0.0704
  118MOL0     C15835   5.187   9.640   8.079 -0.4867 -0.4742 -0.1848
  118MOL0     C15836   5.111   9.699   8.191  0.2454 -0.4632  0.8004
  118MOL0     C15837   4.963   9.663   8.179 -1.0431  0.3504 -0.0936
  118MOL0     C15838   4.884   9.778   8.117  0.0832  0.1826  0.6929
  118MOL0     C15839   4.741   9.733   8.081 -0.9650  0.4797 -0.1955
  118MOL0    Cl15840   4.645   9.698   8.227 -0.2453  0.2778 -0.2182
  118MOL0     C15841   5.777   9.762   7.860 -0.2233 -0.1591 -0.3817
  118MOL0     C15842   5.911   9.800   7.817  0.3320 -0.9239 -0.4992
  118MOL0     O15843   6.058   9.914   7.607 -0.4490  0.2058 -0.2434
  118MOL0     C15844   6.339  10.085   7.739 -0.1464 -0.4945  0.2869
  118MOL0     C15845   6.467  10.128   7.694  0.0484 -0.0055  0.3304
  118MOL0     N15846   7.144   9.947   7.287  0.4582 -0.0791  0.5159
  118MOL0     N15847   7.226   9.846   7.307 -0.4198 -0.4377  0.1913
  118MOL0     C15848   7.795   9.082   6.565 -0.0246  0.0585  0.0013
  118MOL0     C15849   7.877   8.972   6.536  0.0423 -0.6024 -0.3038
  118MOL0     C15850   8.236   8.678   6.600  0.5659 -0.9560 -0.9959
  118MOL0     C15851   8.176   8.578   6.521  0.0979  0.5060 -0.1866
  118MOL0     C15852   8.244   8.451   6.511 -0.0175 -0.0918  0.3399
  118MOL0     C15853   8.369   8.431   6.564  0.4817 -0.1224 -0.5112
  118MOL0     O15854   8.422   8.303   6.544 -0.2616 -0.2842  0.1671
  118MOL0     C15855   8.565   8.294   6.531  0.5282  0.1479 -0.7423
  118MOL0     C15856   8.585   8.192   6.422 -0.4354  0.0789  0.5617
  118MOL0     C15857   8.721   8.126   6.411  0.2804  0.4797  0.0173
  118MOL0     C15858   8.742   8.047   6.280 -0.4646  0.1625 -0.1444
  118MOL0     C15859   8.885   8.017   6.266  0.0476  0.1864 -0.4717
  118MOL0     C15860   8.987   7.960   6.241  0.3502 -0.7321  0.1030
  118MOL0     C15861   8.431   8.540   6.622 -0.8895 -0.0771  0.6798
  118MOL0     C15862   8.363   8.658   6.648 -0.7757 -0.0289 -0.2499
  118MOL0     H15863   7.965   8.878   6.854 -1.0224 -1.4696 -0.1166
  118MOL0     H15864   7.818   9.075   6.903 -0.7768  3.5921 -0.9762
  118MOL0     H15865   7.642   9.295   6.546 -0.3087  2.2240  0.1817
  118MOL0     H15866   7.527   9.177   6.620  2.9894 -1.7013 -3.3534
  118MOL0     H15867   7.603   9.470   6.713 -0.3720 -0.8201  3.1455
  118MOL0     H15868   7.455   9.428   6.632 -1.3605  0.1917  0.8414
  118MOL0     H15869   7.403   9.276   6.820 -0.6881  0.1944 -0.5606
  118MOL0     H15870   7.535   9.322   6.914  0.6420  1.2671 -0.3207
  118MOL0     H15871   7.469   9.558   6.906 -0.2697  2.1629 -3.1508
  118MOL0     H15872   7.337   9.530   6.805 -0.4141  2.0409  0.6263
  118MOL0     H15873   7.204   9.441   6.976 -0.0786 -2.5813  2.4723
  118MOL0     H15874   7.339   9.357   7.049 -2.0015 -0.9951  0.6789
  118MOL0     H15875   7.418   9.576   7.159 -0.0363  2.1240  0.2773
  118MOL0     H15876   7.280   9.659   7.071 -0.2379 -1.2583 -2.0898
  118MOL0     H15877   7.124   9.507   7.194 -0.2347 -3.9433  1.0525
  118MOL0     H15878   7.249   9.417   7.262  0.7017 -1.2229 -2.9587
  118MOL0     H15879   7.338   9.627   7.381  0.6294 -1.5569 -0.9572
  118MOL0     H15880   7.188   9.553   7.442 -2.2178 -0.0630 -0.8417
  118MOL0     H15881   6.943   9.708   7.379  0.6087  0.7179  1.1534
  118MOL0     H15882   6.843  10.023   7.244 -0.2785 -1.3867  0.8639
  118MOL0     H15883   6.809   9.938   7.387  0.2439 -1.3996 -1.8611
  118MOL0     H15884   7.004  10.173   7.361 -0.2264  1.1356  0.4192
  118MOL0     H15885   6.926  10.112   7.513  1.4045  1.9141 -0.3983
  118MOL0     H15886   6.800  10.244   7.277  2.3480  0.0059 -0.0146
  118MOL0     H15887   6.827  10.315   7.441  0.9415  0.3737  0.1498
  118MOL0     H15888   6.629  10.094   7.351 -0.5741  0.4257  0.2786
  118MOL0     H15889   6.587  10.255   7.413 -1.9353 -0.4119  0.1278
  118MOL0     H15890   6.530   9.912   7.445  3.2326  1.5061  0.2736
  118MOL0     H15891   6.372   9.746   7.440  2.3746  2.7568  1.6328
  118MOL0     H15892   6.239   9.731   7.566  0.2282 -0.4201 -0.0190
  118MOL0     H15893   6.225   9.823   7.411 -1.1111  2.2910  0.6927
  118MOL0     H15894   5.936  10.090   7.998 -1.9432  0.6426 -0.1836
  118MOL0     H15895   5.702  10.015   8.060  0.0109 -3.1129  1.1900
  118MOL0     H15896   5.484   9.925   8.102 -0.0694  1.7754 -0.7363
  118MOL0     H15897   5.487   9.974   7.929  0.0337 -0.8885 -0.3053
  118MOL0     H15898   5.260   9.902   8.010  1.0218  2.3007 -0.3121
  118MOL0     H15899   5.315   9.807   7.886  1.8321  2.6752 -1.1104
  118MOL0     H15900   5.349   9.729   8.189  1.8723  1.9862 -0.9646
  118MOL0     H15901   5.392   9.624   8.046 -2.5444 -3.1188 -0.3772
  118MOL0     H15902   5.146   9.664   7.981  2.4433  1.8290 -1.0139
  118MOL0     H15903   5.198   9.535   8.106  3.8415 -0.0785  0.4549
  118MOL0     H15904   5.131   9.806   8.186  2.1304 -0.7753  0.9973
  118MOL0     H15905   5.148   9.667   8.288  1.5570 -1.5729 -0.0207
  118MOL0     H15906   4.952   9.573   8.118  0.5240 -0.5057  0.8279
  118MOL0     H15907   4.921   9.642   8.278 -0.5985 -3.1353 -0.5374
  118MOL0     H15908   4.944   9.803   8.029  0.3903 -1.2046  0.4740
  118MOL0     H15909   4.879   9.861   8.188 -3.8106  1.5602 -0.9366
  118MOL0     H15910   4.754   9.637   8.030 -1.9715  0.5825 -0.6857
  118MOL0     H15911   4.696   9.806   8.012 -1.8722  0.1619  0.0510
  118MOL0     H15912   5.747   9.679   7.797 -0.5537  1.0263 -1.8389
  118MOL0     H15913   5.966   9.734   7.751  0.1143 -2.1195  0.4886
  118MOL0     H15914   6.303  10.147   7.821 -1.2501 -0.3768 -0.2690
  118MOL0     H15915   6.520  10.215   7.731  0.1119 -0.2146  0.7338
  118MOL0     H15916   7.757   9.122   6.472  1.1349 -3.7406 -2.3482
  118MOL0     H15917   7.903   8.954   6.432  0.8290 -0.0573 -0.2139
  118MOL0     H15918   8.075   8.593   6.483  0.1658 -0.9176 -1.0270
  118MOL0     H15919   8.191   8.370   6.462  2.3442  0.6181 -3.8751
  118MOL0     H15920   8.615   8.388   6.508 -1.0390  0.7276 -2.0223
  118MOL0     H15921   8.613   8.260   6.623 -1.3046  1.7930  0.9316
  118MOL0     H15922   8.567   8.248   6.330  2.7464 -0.1173 -0.3065
  118MOL0     H15923   8.505   8.117   6.432 -1.9527  1.1838 -2.2486
  118MOL0     H15924   8.743   8.059   6.495  1.6490 -0.7189 -1.2283
  118MOL0     H15925   8.801   8.199   6.422  3.5690 -2.6498 -0.8966
  118MOL0     H15926   8.703   8.095   6.190 -1.0800 -1.8060 -0.9850
  118MOL0     H15927   8.697   7.948   6.286 -2.3845  1.0266  0.6318
  118MOL0     H15928   9.083   7.915   6.223 -0.1547 -1.0953 -1.9656
  118MOL0     H15929   8.533   8.525   6.654 -0.3685  0.2669 -0.7189
  118MOL0     H15930   8.421   8.729   6.706 -1.7294 -0.1650  0.8954
  119MOL0     O15931   9.773   5.834   1.866 -0.2057 -0.7931 -0.0791
  119MOL0     C15932   9.852   5.846   1.957 -0.2310 -1.6261 -0.1989
  119MOL0     O15933   9.822   5.854   2.088 -0.1884  0.0960 -0.0778
  119MOL0     C15934   9.695   5.854   2.136 -0.2546  0.5057 -0.4207
  119MOL0     C15935   9.663   5.948   2.227 -0.2752 -0.2049 -0.8844
  119MOL0     C15936   9.535   5.952   2.278 -0.3828 -0.5389  0.5072
  119MOL0     C15937   9.431   5.877   2.224  0.4184  0.4361  0.5164
  119MOL0     O15938   9.303   5.884   2.254  0.6614  0.3736  0.3905
  119MOL0     C15939   9.233   6.011   2.218  0.0101  0.9714 -0.5980
  119MOL0     C15940   9.090   5.988   2.171 -0.2138 -0.0946 -0.3918
  119MOL0     C15941   8.993   5.949   2.287 -0.4996 -0.3607 -0.1230
  119MOL0     C15942   8.866   5.882   2.219  0.1087  1.2100 -0.8245
  119MOL0     C15943   8.764   5.844   2.322  0.0122 -0.1265 -0.6744
  119MOL0     C15944   8.642   5.776   2.252 -0.4434  0.3796  0.3728
  119MOL0     C15945   8.535   5.740   2.357  0.0399 -0.0764 -0.0161
  119MOL0     C15946   8.417   5.693   2.287 -0.1142  0.0850  0.2824
  119MOL0     N15947   8.348   5.807   2.218 -0.0948 -0.2745 -0.3708
  119MOL0     C15948   8.252   5.898   2.269 -1.3221 -0.2542  0.1127
  119MOL0     C15949   8.218   5.977   2.166  0.0320  0.4599  1.4932
  119MOL0     C15950   8.117   6.084   2.177 -1.1158 -0.4889  0.3756
  119MOL0     C15951   8.013   6.070   2.060 -0.5152  0.9010  0.1040
  119MOL0     C15952   7.896   6.163   2.080  0.0727  0.7157 -0.1091
  119MOL0     C15953   7.793   6.158   1.974  0.2210 -0.5059 -0.2862
  119MOL0     O15954   7.753   6.028   1.955  0.3391  0.7295 -0.0941
  119MOL0     C15955   7.627   6.000   1.901 -0.4167 -0.4180 -0.2104
  119MOL0     C15956   7.581   5.865   1.893  0.0151 -0.1211 -0.0626
  119MOL0     C15957   7.445   5.834   1.851 -0.2193 -0.8598 -0.2186
  119MOL0     C15958   7.398   5.688   1.840 -1.2639  0.3690 -0.0311
  119MOL0     C15959   7.363   5.937   1.798  0.1690 -0.3741  0.3919
  119MOL0     C15960   7.221   5.918   1.751  0.5383  0.0157 -0.5165
  119MOL0     O15961   7.139   5.851   1.829 -0.0750 -0.0959 -0.5205
  119MOL0     C15962   7.006   5.846   1.803 -0.2369  0.5480  1.3835
  119MOL0     C15963   6.964   5.753   1.710 -0.6526 -0.3447 -0.5161
  119MOL0     C15964   6.824   5.730   1.681 -0.6803 -0.3411  0.2337
  119MOL0     C15965   6.732   5.817   1.728  0.2905  1.0571 -0.3496
  119MOL0     O15966   6.599   5.796   1.708  0.6601  1.1764 -0.0380
  119MOL0     C15967   6.552   5.703   1.605  0.1550  0.9904 -0.2133
  119MOL0     C15968   6.395   5.719   1.593 -0.5895  0.1807 -0.4811
  119MOL0     C15969   6.315   5.693   1.722 -0.9305 -0.1686  0.1308
  119MOL0     C15970   6.170   5.715   1.691 -0.7514  0.1503  0.4170
  119MOL0     C15971   6.060   5.654   1.768 -0.2208 -0.2613 -0.2991
  119MOL0     C15972   6.068   5.509   1.800 -0.9511 -0.4796  0.1685
  119MOL0     C15973   5.933   5.449   1.836  0.1808  0.1373  0.3591
  119MOL0     C15974   5.947   5.299   1.870  0.7531 -0.4747 -0.7214
  119MOL0    Cl15975   5.784   5.226   1.908 -0.0475 -0.1364 -0.3598
  119MOL0     C15976   6.775   5.928   1.809 -0.5838  0.6464 -0.3458
  119MOL0     C15977   6.916   5.943   1.846 -0.1943  0.2611  0.2572
  119MOL0     O15978   7.188   5.993   1.656 -0.2314  0.2527 -0.1775
  119MOL0     C15979   7.419   6.065   1.790 -0.1978 -0.1177 -0.5269
  119MOL0     C15980   7.544   6.099   1.840  0.2971  0.0475  0.0585
  119MOL0     N15981   8.294   5.942   2.054  0.2153 -0.4189 -0.0754
  119MOL0     N15982   8.366   5.839   2.087 -0.3198 -0.1053  0.7564
  119MOL0     C15983   9.462   5.780   2.128  0.3091  0.2791 -1.6940
  119MOL0     C15984   9.594   5.766   2.092  0.7629 -0.0163  0.5941
  119MOL0     C15985   9.993   5.829   1.929 -0.3693  0.0441 -0.1451
  119MOL0     C15986  10.039   5.806   1.797 -1.3863  0.0376  0.4086
  119MOL0     C15987  10.181   5.777   1.763  0.4991  0.2240 -0.1084
  119MOL0     C15988  10.277   5.778   1.861  0.7010  0.8634  0.0061
  119MOL0     O15989  10.408   5.738   1.821  0.0834 -1.1224  0.8094
  119MOL0     C15990  10.520   5.740   1.910  0.5523 -0.5081 -0.3465
  119MOL0     C15991  10.556   5.891   1.932  0.4893 -0.5157 -0.2570
  119MOL0     C15992  10.672   5.893   2.026  0.2383  0.1032 -0.0520
  119MOL0     C15993  10.713   6.033   2.064  0.3305  0.8711  0.1575
  119MOL0     C15994  10.831   6.026   2.158 -0.3684 -0.7869 -0.1019
  119MOL0     C15995  10.928   6.037   2.232  0.6313  0.0891  0.5148
  119MOL0     C15996  10.230   5.803   1.991 -0.0237  0.0509  0.3862
  119MOL0     C15997  10.096   5.827   2.020  0.6687 -0.7183 -0.6736
  119MOL0     H15998   9.740   6.014   2.266 -0.8498 -0.8176  1.4606
  119MOL0     H15999   9.513   6.035   2.345 -0.4861  1.5961 -2.0137
  119MOL0     H16000   9.245   6.094   2.288 -2.2752  0.9592 -0.1171
  119MOL0     H16001   9.275   6.049   2.125 -0.8321  0.0422 -1.3871
  119MOL0     H16002   9.069   6.084   2.124  3.3940  0.3753 -1.3021
  119MOL0     H16003   9.100   5.909   2.096 -0.7856  0.8880 -1.5391
  119MOL0     H16004   9.045   5.877   2.352  1.2350  1.0783  0.1506
  119MOL0     H16005   8.965   6.035   2.349  0.0843 -2.9868  4.2141
  119MOL0     H16006   8.821   5.938   2.136 -0.5638  3.5704  1.0419
  119MOL0     H16007   8.894   5.784   2.179 -1.7563  1.5988 -3.3073
  119MOL0     H16008   8.811   5.770   2.387 -2.6072 -2.0008 -0.7603
  119MOL0     H16009   8.733   5.930   2.383 -0.3711 -1.4433  1.0418
  119MOL0     H16010   8.614   5.846   2.173  2.7267  2.6136  1.0305
  119MOL0     H16011   8.684   5.683   2.210  1.1244  0.8934  0.7320
  119MOL0     H16012   8.583   5.665   2.420  1.0901  0.5284 -0.0643
  119MOL0     H16013   8.514   5.836   2.405  0.5026  0.9624 -1.7993
  119MOL0     H16014   8.352   5.658   2.368 -1.4083 -0.5680 -0.9838
  119MOL0     H16015   8.444   5.610   2.220 -1.4926  0.5351 -0.9054
  119MOL0     H16016   8.222   5.922   2.371  3.4913  4.0029  0.9745
  119MOL0     H16017   8.066   6.068   2.272 -1.5238 -0.8095  0.1029
  119MOL0     H16018   8.170   6.180   2.175  0.6983 -1.4106  1.6621
  119MOL0     H16019   7.975   5.968   2.057 -0.2542  0.8021  0.0920
  119MOL0     H16020   8.061   6.070   1.962  0.4545 -1.9426  0.4781
  119MOL0     H16021   7.927   6.268   2.081 -2.1320  1.5683  4.2606
  119MOL0     H16022   7.851   6.139   2.177  2.7591 -0.0629  1.0158
  119MOL0     H16023   7.842   6.205   1.889  0.4828 -1.7080 -0.8201
  119MOL0     H16024   7.706   6.212   2.012  0.2623 -1.7207  1.7530
  119MOL0     H16025   7.654   5.790   1.922  1.6108  0.9709 -1.0472
  119MOL0     H16026   7.326   5.662   1.762 -0.3534 -1.7235 -0.2527
  119MOL0     H16027   7.475   5.612   1.821 -1.1340  0.2744  0.8094
  119MOL0     H16028   7.338   5.664   1.928 -3.2977  1.8281 -0.9662
  119MOL0     H16029   7.033   5.688   1.658 -2.0185 -0.4404 -2.3237
  119MOL0     H16030   6.795   5.651   1.614 -1.4628  0.4243 -0.3505
  119MOL0     H16031   6.598   5.730   1.510  0.1792  3.0800  0.3534
  119MOL0     H16032   6.571   5.600   1.638 -1.5026  0.9374  0.6971
  119MOL0     H16033   6.370   5.815   1.548  1.4745  0.6461 -0.7096
  119MOL0     H16034   6.366   5.652   1.511  2.4932 -0.9410 -0.7632
  119MOL0     H16035   6.349   5.771   1.790 -1.0410 -0.3913  0.4455
  119MOL0     H16036   6.335   5.596   1.770  2.0198  0.7351  0.8763
  119MOL0     H16037   6.159   5.823   1.701 -1.1894  0.2887 -1.2851
  119MOL0     H16038   6.163   5.686   1.586  1.0034  0.1070  0.2818
  119MOL0     H16039   5.970   5.674   1.708  1.0836  3.2793 -1.3501
  119MOL0     H16040   6.053   5.701   1.866 -0.6936  0.3843 -0.6311
  119MOL0     H16041   6.114   5.461   1.714 -0.1429  1.3701 -0.4725
  119MOL0     H16042   6.143   5.500   1.880  1.2927 -0.3555 -1.8230
  119MOL0     H16043   5.859   5.458   1.756 -0.9595  0.2359  1.4039
  119MOL0     H16044   5.897   5.506   1.922 -2.3455 -0.8856  0.0552
  119MOL0     H16045   5.995   5.307   1.968 -3.5330  0.7292  1.5745
  119MOL0     H16046   6.000   5.237   1.798  3.2228 -1.6595  1.9356
  119MOL0     H16047   6.711   6.006   1.849 -0.2466 -0.1971  1.9679
  119MOL0     H16048   6.953   6.017   1.915 -0.8418 -0.5975  1.5779
  119MOL0     H16049   7.355   6.146   1.757 -2.0313 -1.3791 -0.2352
  119MOL0     H16050   7.572   6.204   1.844  0.2038  0.0997 -0.6074
  119MOL0     H16051   9.380   5.721   2.089  1.0319 -1.4856 -0.6662
  119MOL0     H16052   9.619   5.690   2.019  0.7341 -1.1661  1.7390
  119MOL0     H16053   9.967   5.795   1.716  0.7177  0.5978 -1.6291
  119MOL0     H16054  10.204   5.758   1.658 -0.2453  2.1667 -0.6735
  119MOL0     H16055  10.488   5.697   2.005 -3.0699  1.0982 -0.6902
  119MOL0     H16056  10.605   5.681   1.875  2.2596  2.1502 -0.9927
  119MOL0     H16057  10.469   5.942   1.974  0.5334 -0.0056 -0.7841
  119MOL0     H16058  10.575   5.938   1.835  0.3933 -1.0742 -0.5514
  119MOL0     H16059  10.755   5.829   1.995 -2.1923 -3.1284 -0.5047
  119MOL0     H16060  10.647   5.842   2.119  1.9918  1.4327  1.1964
  119MOL0     H16061  10.625   6.074   2.115 -0.0578  0.3528 -0.0989
  119MOL0     H16062  10.721   6.105   1.982 -0.0574  2.0024  1.0708
  119MOL0     H16063  10.992   6.044   2.318 -1.8009 -1.2576  2.5516
  119MOL0     H16064  10.303   5.804   2.071  0.4885  2.1534 -0.0289
  119MOL0     H16065  10.069   5.854   2.121  0.9493  0.2304 -0.8441
  120MOL0     O16066  10.235  10.412   9.819 -0.7691 -0.2018 -0.1534
  120MOL0     C16067  10.253  10.376   9.708 -0.0889 -0.9324  0.0648
  120MOL0     O16068  10.155  10.366   9.613 -0.1264 -0.1559 -0.0315
  120MOL0     C16069  10.017  10.368   9.647 -0.6016  1.2743 -0.4103
  120MOL0     C16070   9.956  10.473   9.723  0.3415 -0.6973  0.4475
  120MOL0     C16071   9.815  10.474   9.747  0.1726 -0.2457 -0.1579
  120MOL0     C16072   9.728  10.386   9.682 -0.1088  0.4132  0.2427
  120MOL0     O16073   9.591  10.376   9.699  0.0283 -0.3437  0.2904
  120MOL0     C16074   9.516  10.496   9.741 -0.2924  0.0590 -0.1694
  120MOL0     C16075   9.426  10.514   9.616  0.3932  0.5436  0.6092
  120MOL0     C16076   9.353  10.651   9.617 -0.2832  0.1307  0.1816
  120MOL0     C16077   9.273  10.677   9.744 -0.4342 -0.7459 -0.0223
  120MOL0     C16078   9.153  10.768   9.714  0.3476  0.4317 -0.0077
  120MOL0     C16079   9.041  10.699   9.637  1.0171  0.9969 -0.4460
  120MOL0     C16080   8.935  10.806   9.611 -0.4718  0.4336  0.8192
  120MOL0     C16081   8.849  10.838   9.735 -0.7279 -0.1018  0.6319
  120MOL0     N16082   8.714  10.878   9.700  0.5825 -1.0491 -0.1108
  120MOL0     C16083   8.671  10.994   9.638  0.0414 -0.4144 -0.5377
  120MOL0     C16084   8.534  11.007   9.666 -0.9615  0.1978 -0.5842
  120MOL0     C16085   8.440  11.116   9.628 -0.1782 -0.7769  0.3321
  120MOL0     C16086   8.445  11.228   9.726 -1.1124  0.7493  0.8581
  120MOL0     C16087   8.340  11.220   9.839  0.5994  0.0923  0.4630
  120MOL0     C16088   8.373  11.322   9.941  0.6503 -0.2664 -0.2970
  120MOL0     O16089   8.260  11.333  10.027 -0.3529  0.7935  0.3602
  120MOL0     C16090   8.185  11.446  10.009 -1.1027  0.1744  0.5971
  120MOL0     C16091   8.083  11.455   9.916  0.2771  0.2586  0.2117
  120MOL0     C16092   8.018  11.577   9.889  0.4086  0.4284  0.1822
  120MOL0     C16093   7.931  11.585   9.762  0.0668 -0.4681  0.2175
  120MOL0     C16094   8.046  11.698   9.972  0.4742 -0.4280 -0.3786
  120MOL0     C16095   7.975  11.828   9.944  0.1160 -0.0870 -0.8164
  120MOL0     O16096   8.007  11.930  10.029  0.6903  0.4962 -0.1661
  120MOL0     C16097   7.957  12.056  10.000  0.1699 -0.1336 -0.1912
  120MOL0     C16098   7.939  12.103   9.872  0.0641  0.1622  0.4985
  120MOL0     C16099   7.929  12.237   9.854  0.6068 -0.3216 -0.0847
  120MOL0     C16100   7.904  12.325   9.963 -0.1150 -0.1525 -0.2152
  120MOL0     O16101   7.911  12.459   9.927  0.3575 -0.3315 -0.5781
  120MOL0     C16102   7.838  12.556  10.017 -0.5172  0.5380  1.0699
  120MOL0     C16103   7.793  12.678   9.936  0.7176  0.6033 -0.1201
  120MOL0     C16104   7.765  12.804  10.020 -0.0572 -0.0686 -0.5173
  120MOL0     C16105   7.634  12.788  10.089  0.3896  0.7970  0.2761
  120MOL0     C16106   7.565  12.911  10.148 -0.6998  0.2545 -0.1594
  120MOL0     C16107   7.432  12.873  10.227  0.0145 -0.3928  1.5036
  120MOL0     C16108   7.387  13.000  10.299  0.1452 -0.0371  0.4733
  120MOL0     C16109   7.239  13.013  10.315  0.4779 -0.4132 -0.3406
  120MOL0    Cl16110   7.190  13.184  10.345  0.0489  0.7416 -0.0765
  120MOL0     C16111   7.926  12.271  10.090 -0.2747 -0.5403  0.1990
  120MOL0     C16112   7.951  12.139  10.114 -0.4400  0.0769 -0.1069
  120MOL0     O16113   7.878  11.830   9.859 -0.0630 -0.3009 -0.2944
  120MOL0     C16114   8.147  11.681  10.075  0.4983 -1.3341  0.0180
  120MOL0     C16115   8.208  11.558  10.094  0.8193  0.7755  0.2354
  120MOL0     N16116   8.503  10.887   9.731  0.3871  0.8919 -0.3150
  120MOL0     N16117   8.602  10.809   9.745  0.0766 -0.5161 -0.3978
  120MOL0     C16118   9.794  10.281   9.621 -0.3910  0.8239 -0.2396
  120MOL0     C16119   9.933  10.266   9.599 -0.4616 -0.0063  0.2688
  120MOL0     C16120  10.387  10.347   9.667 -0.9267 -0.6368 -0.8376
  120MOL0     C16121  10.494  10.407   9.733  0.3345  0.1201  0.1892
  120MOL0     C16122  10.622  10.392   9.680  0.2587  0.4957  0.1137
  120MOL0     C16123  10.650  10.306   9.573  0.7466  1.4033  0.9520
  120MOL0     O16124  10.771  10.260   9.524  0.0829  0.0705 -0.7210
  120MOL0     C16125  10.899  10.304   9.574  0.2714  0.0077 -0.0631
  120MOL0     C16126  11.014  10.237   9.492  0.6369  0.3735 -0.2567
  120MOL0     C16127  11.040  10.298   9.354 -0.5645  0.1534 -0.0401
  120MOL0     C16128  11.164  10.245   9.279  0.2269 -0.3422  0.8143
  120MOL0     C16129  11.282  10.308   9.342  0.0333 -0.2535 -0.0362
  120MOL0     C16130  11.390  10.338   9.390 -0.8038  0.6784 -0.7707
  120MOL0     C16131  10.541  10.242   9.507  0.9156 -0.3601  0.5270
  120MOL0     C16132  10.406  10.275   9.545 -0.5404  0.4258  0.2056
  120MOL0     H16133  10.015  10.544   9.779  0.5554  0.8887 -1.6985
  120MOL0     H16134   9.775  10.545   9.819 -0.2680 -1.0033  0.3455
  120MOL0     H16135   9.455  10.481   9.830 -1.4286 -0.7532 -1.0611
  120MOL0     H16136   9.578  10.584   9.761 -1.7635  1.4401 -1.4748
  120MOL0     H16137   9.479  10.508   9.520 -1.0714 -2.1280 -0.1220
  120MOL0     H16138   9.347  10.440   9.611 -1.0138  1.9390  1.3852
  120MOL0     H16139   9.426  10.731   9.611  0.0190 -0.0121  1.4915
  120MOL0     H16140   9.294  10.660   9.525  0.7046 -0.7980 -0.5621
  120MOL0     H16141   9.225  10.582   9.770 -1.2715 -0.9577 -2.1134
  120MOL0     H16142   9.342  10.722   9.816 -2.9539  4.6251 -0.5122
  120MOL0     H16143   9.121  10.817   9.807 -1.7572  4.3864 -2.5498
  120MOL0     H16144   9.186  10.852   9.653  3.0341 -1.5720 -1.5098
  120MOL0     H16145   9.077  10.666   9.539  3.0376  1.0046  0.2463
  120MOL0     H16146   8.997  10.609   9.682 -1.9017  3.0511  1.1202
  120MOL0     H16147   8.993  10.894   9.582  1.3028 -0.4762  1.4922
  120MOL0     H16148   8.865  10.779   9.531 -0.7156  0.3031  1.0727
  120MOL0     H16149   8.887  10.920   9.797 -2.1229 -1.2504  3.1696
  120MOL0     H16150   8.854  10.749   9.798  0.4952  0.2689  1.0905
  120MOL0     H16151   8.732  11.061   9.577 -0.3642  2.3218  1.8395
  120MOL0     H16152   8.459  11.157   9.529 -1.0599  0.9441  0.8281
  120MOL0     H16153   8.338  11.075   9.629 -1.0079  1.1527 -0.2515
  120MOL0     H16154   8.437  11.320   9.667  0.5105  1.7472  2.1120
  120MOL0     H16155   8.547  11.228   9.765 -0.7956 -0.8976  0.1141
  120MOL0     H16156   8.337  11.126   9.894 -4.5039  0.6831  1.7080
  120MOL0     H16157   8.242  11.226   9.791  0.4471 -1.7697  0.4676
  120MOL0     H16158   8.391  11.417   9.890 -0.5806  1.1352  1.7244
  120MOL0     H16159   8.459  11.293  10.001  0.4567 -0.4628 -0.1119
  120MOL0     H16160   8.062  11.368   9.855 -3.8828  2.0259 -1.2349
  120MOL0     H16161   7.972  11.644   9.679  0.3206 -1.9596 -0.7743
  120MOL0     H16162   7.923  11.481   9.728  2.5428 -0.2929 -1.1953
  120MOL0     H16163   7.832  11.622   9.790  0.8077  2.0553 -0.2636
  120MOL0     H16164   7.945  12.042   9.782 -1.6785 -2.7393  2.1910
  120MOL0     H16165   7.941  12.273   9.752 -0.5289  0.7153  0.1234
  120MOL0     H16166   7.758  12.500  10.065 -0.9068  0.5685  0.4710
  120MOL0     H16167   7.914  12.593  10.087  0.6978  0.3727 -0.1075
  120MOL0     H16168   7.864  12.718   9.862 -1.9278  2.3452 -1.9469
  120MOL0     H16169   7.706  12.652   9.875 -0.4167  1.4863  1.0586
  120MOL0     H16170   7.764  12.897   9.963 -1.9706 -0.9064 -1.9724
  120MOL0     H16171   7.843  12.821  10.095 -1.1094 -0.4963  0.7145
  120MOL0     H16172   7.561  12.737  10.026 -1.0894  2.7419  0.2940
  120MOL0     H16173   7.649  12.723  10.176 -0.9732  0.3154  0.1799
  120MOL0     H16174   7.545  12.987  10.071  0.1640  1.5502  0.8554
  120MOL0     H16175   7.640  12.957  10.213  1.0150 -1.1907 -1.0378
  120MOL0     H16176   7.357  12.838  10.155  1.8121 -1.8464  0.2590
  120MOL0     H16177   7.453  12.788  10.293 -0.0318 -1.2145  0.4788
  120MOL0     H16178   7.418  13.084  10.234  3.3283 -2.2828 -1.2012
  120MOL0     H16179   7.430  13.011  10.399  0.7273  1.3929  0.0988
  120MOL0     H16180   7.211  12.949  10.400  0.7462 -3.8452 -2.6337
  120MOL0     H16181   7.185  12.976  10.227 -0.6870 -2.5269  1.1542
  120MOL0     H16182   7.902  12.332  10.177 -0.6962 -0.5478  0.0928
  120MOL0     H16183   7.972  12.097  10.212  2.3724 -0.6073 -0.9083
  120MOL0     H16184   8.179  11.767  10.132  1.0570 -0.3732 -1.6706
  120MOL0     H16185   8.275  11.538  10.177 -0.6279 -0.9592  1.0484
  120MOL0     H16186   9.726  10.204   9.586  1.0687  0.2912 -2.0192
  120MOL0     H16187   9.972  10.182   9.542 -3.2717 -1.4582  0.3050
  120MOL0     H16188  10.476  10.451   9.830 -3.7711 -0.0613 -0.3305
  120MOL0     H16189  10.701  10.440   9.736  0.2404  2.7783 -1.6610
  120MOL0     H16190  10.914  10.412   9.569  0.6954 -0.0307  0.3677
  120MOL0     H16191  10.906  10.264   9.675 -3.3031 -1.0029 -0.0741
  120MOL0     H16192  11.001  10.130   9.476  1.7195  0.2810 -0.6251
  120MOL0     H16193  11.105  10.253   9.551 -0.0281 -1.3863  1.3756
  120MOL0     H16194  11.059  10.405   9.365 -2.3826  0.6780 -1.4528
  120MOL0     H16195  10.946  10.285   9.299  0.2762  0.6826 -1.6744
  120MOL0     H16196  11.158  10.268   9.172  1.0367 -2.4104  0.2727
  120MOL0     H16197  11.165  10.136   9.283  1.1167 -0.4963 -1.7118
  120MOL0     H16198  11.479  10.371   9.440 -0.7788 -0.1643 -0.2414
  120MOL0     H16199  10.558  10.172   9.426  1.4415 -0.2738  0.5655
  120MOL0     H16200  10.320  10.227   9.500 -0.1385 -0.7061  0.6118
  121MOL0     O16201   3.315   2.980   8.383  0.2468 -0.0276  0.0062
  121MOL0     C16202   3.370   3.074   8.440  1.1672  0.6280  0.4963
  121MOL0     O16203   3.326   3.148   8.546 -0.0916  0.0267 -0.4462
  121MOL0     C16204   3.225   3.098   8.613 -0.0103  1.0473  0.8658
  121MOL0     C16205   3.099   3.078   8.548  0.1053 -0.2854 -0.5680
  121MOL0     C16206   2.983   3.035   8.624  0.1338 -0.1420  0.0428
  121MOL0     C16207   2.995   3.012   8.763  0.6548 -0.0994  0.5083
  121MOL0     O16208   2.894   2.945   8.828 -0.6776 -0.1598 -0.4374
  121MOL0     C16209   2.933   2.851   8.925  0.7029 -0.3038  0.1200
  121MOL0     C16210   2.816   2.756   8.932  0.1067  0.1655 -0.0775
  121MOL0     C16211   2.757   2.738   9.072 -0.7102 -0.2859 -0.4056
  121MOL0     C16212   2.638   2.647   9.071 -0.6386  0.6385 -0.7365
  121MOL0     C16213   2.577   2.618   9.202 -0.0701 -0.3245 -0.4754
  121MOL0     C16214   2.481   2.735   9.239 -0.6254 -0.1262  0.6184
  121MOL0     C16215   2.349   2.729   9.157 -0.2778 -0.0330  0.5404
  121MOL0     C16216   2.217   2.778   9.214 -0.1546 -0.2212 -0.0997
  121MOL0     N16217   2.167   2.681   9.320 -0.8861 -0.5008  0.1865
  121MOL0     C16218   2.106   2.565   9.299  0.0666 -0.0663  0.0094
  121MOL0     C16219   2.091   2.504   9.424 -0.4405  0.1101 -0.1398
  121MOL0     C16220   2.014   2.378   9.467  0.2918 -0.6562  0.0652
  121MOL0     C16221   1.871   2.431   9.485  0.4046 -0.4559  0.2703
  121MOL0     C16222   1.781   2.339   9.558 -0.6874  0.1742 -0.9980
  121MOL0     C16223   1.633   2.374   9.555  0.0220 -0.3719  0.2105
  121MOL0     O16224   1.562   2.264   9.601 -0.1880  0.5769 -0.4557
  121MOL0     C16225   1.427   2.279   9.583  0.1582  0.1968  0.1918
  121MOL0     C16226   1.364   2.397   9.540 -0.2717 -0.3279 -0.1486
  121MOL0     C16227   1.226   2.394   9.508 -0.3002 -0.2353 -0.6995
  121MOL0     C16228   1.165   2.514   9.439  0.2165 -0.3148 -0.1431
  121MOL0     C16229   1.152   2.275   9.509 -0.1253 -0.0501  0.5845
  121MOL0     C16230   1.020   2.263   9.458 -0.0269  1.1675 -0.6452
  121MOL0     O16231   0.924   2.266   9.551  0.4639 -0.3488 -0.3973
  121MOL0     C16232   0.795   2.251   9.511 -0.7215 -0.6102  0.0426
  121MOL0     C16233   0.737   2.337   9.410 -0.0881  0.6098  0.8705
  121MOL0     C16234   0.610   2.309   9.375  0.0907  0.3674  0.3854
  121MOL0     C16235   0.532   2.204   9.422 -0.3298  0.9888  0.1854
  121MOL0     O16236   0.400   2.191   9.374 -0.6110  0.2046  0.4246
  121MOL0     C16237   0.319   2.082   9.430 -0.0761  0.0057  0.9338
  121MOL0     C16238   0.201   2.053   9.345  0.4714  0.4610  0.9744
  121MOL0     C16239   0.122   1.941   9.413  0.1855 -0.0181  0.6029
  121MOL0     C16240   0.035   1.867   9.308 -0.4675 -0.3434  0.2043
  121MOL0     C16241  -0.029   1.736   9.360 -0.7469 -0.3354 -1.1982
  121MOL0     C16242  -0.109   1.663   9.251 -0.1049  0.3554 -0.4087
  121MOL0     C16243  -0.205   1.567   9.319  0.1805 -0.0216  0.0017
  121MOL0     C16244  -0.300   1.492   9.223  0.9725 -0.3091  0.0347
  121MOL0    Cl16245  -0.204   1.364   9.136 -0.0887  0.3576 -0.5837
  121MOL0     C16246   0.590   2.133   9.527  0.2998 -0.5302  0.2339
  121MOL0     C16247   0.719   2.157   9.578 -0.0326  0.3424  0.6161
  121MOL0     O16248   1.010   2.225   9.340  0.7920 -0.3445  0.4010
  121MOL0     C16249   1.216   2.164   9.558 -0.3746  0.1643  0.9457
  121MOL0     C16250   1.354   2.161   9.596 -0.5410  0.3960  0.3194
  121MOL0     N16251   2.145   2.593   9.515 -0.0059 -0.4604  0.3757
  121MOL0     N16252   2.196   2.695   9.447  0.6343 -0.1004 -0.2821
  121MOL0     C16253   3.128   3.032   8.819  0.0214 -0.6021 -0.8723
  121MOL0     C16254   3.236   3.067   8.751  0.4328 -0.4817 -0.1570
  121MOL0     C16255   3.495   3.112   8.382 -0.0693 -0.0655  0.8218
  121MOL0     C16256   3.562   3.224   8.431  0.2256 -0.8466  0.1805
  121MOL0     C16257   3.698   3.248   8.398 -0.0681  0.0863  1.2105
  121MOL0     C16258   3.759   3.168   8.295 -0.1340  0.2498 -0.7658
  121MOL0     O16259   3.889   3.172   8.254  0.0972 -0.7010 -0.5746
  121MOL0     C16260   3.977   3.278   8.298 -1.1421 -0.4938 -0.3890
  121MOL0     C16261   4.091   3.266   8.200  0.1709 -0.3434 -0.6768
  121MOL0     C16262   4.038   3.298   8.062  0.1392  0.1361  0.1737
  121MOL0     C16263   4.151   3.261   7.957 -1.1080  0.6534 -0.1256
  121MOL0     C16264   4.278   3.341   7.962  0.6325  0.4491  0.3970
  121MOL0     C16265   4.375   3.409   7.946 -0.5517 -0.9211 -0.4144
  121MOL0     C16266   3.686   3.062   8.236  0.0940  1.7289  0.3184
  121MOL0     C16267   3.561   3.022   8.288 -0.2712 -0.3676 -0.3565
  121MOL0     H16268   3.094   3.107   8.444 -1.3963  2.2748  0.1500
  121MOL0     H16269   2.883   3.038   8.582  0.7247  0.5255 -1.3599
  121MOL0     H16270   3.010   2.788   8.880  0.9988 -0.8596  1.3714
  121MOL0     H16271   2.970   2.900   9.015 -3.2340  1.6999  0.8620
  121MOL0     H16272   2.735   2.797   8.870  1.3284  3.0786  0.0756
  121MOL0     H16273   2.844   2.655   8.902  1.6524 -0.5857  3.4185
  121MOL0     H16274   2.831   2.702   9.144  0.1630 -1.1757 -1.7158
  121MOL0     H16275   2.730   2.833   9.120 -0.5057 -1.2818  1.8074
  121MOL0     H16276   2.559   2.675   9.001 -0.2347  0.1143 -1.4156
  121MOL0     H16277   2.678   2.549   9.045 -0.7522  0.4658 -0.2680
  121MOL0     H16278   2.528   2.522   9.215  1.3705 -0.9178  0.8516
  121MOL0     H16279   2.657   2.618   9.277 -0.7114  1.8557  0.2795
  121MOL0     H16280   2.459   2.731   9.346 -1.5283 -0.5745  0.4278
  121MOL0     H16281   2.533   2.830   9.230  0.6062 -0.8639 -0.4852
  121MOL0     H16282   2.382   2.792   9.073  2.8285 -1.5501  0.4692
  121MOL0     H16283   2.326   2.631   9.116 -0.3154 -0.0428  0.5855
  121MOL0     H16284   2.143   2.784   9.133  1.9247 -2.0452 -2.2760
  121MOL0     H16285   2.234   2.878   9.254  0.3861 -1.7390  3.8785
  121MOL0     H16286   2.069   2.531   9.203  1.2394  1.0556 -0.8732
  121MOL0     H16287   2.020   2.296   9.395 -0.8883 -1.1984  0.5694
  121MOL0     H16288   2.059   2.346   9.562  4.1779  0.9994 -1.0072
  121MOL0     H16289   1.828   2.454   9.388  2.2538  1.3164 -0.2185
  121MOL0     H16290   1.857   2.525   9.540 -1.5670 -2.0370  2.6932
  121MOL0     H16291   1.818   2.322   9.659  0.0370  0.2573 -1.2461
  121MOL0     H16292   1.794   2.245   9.503 -0.1558  0.4421 -1.3368
  121MOL0     H16293   1.614   2.395   9.449 -0.9001 -2.7632 -0.1562
  121MOL0     H16294   1.614   2.466   9.612  1.0190 -0.7379  1.1516
  121MOL0     H16295   1.409   2.494   9.522 -1.1321 -0.2658 -2.1263
  121MOL0     H16296   1.153   2.595   9.512 -2.3382 -0.9740  0.2662
  121MOL0     H16297   1.214   2.559   9.352  1.4594  0.7589  1.0688
  121MOL0     H16298   1.062   2.490   9.409  0.2937 -3.8036  1.9086
  121MOL0     H16299   0.803   2.411   9.367  0.2062 -0.0702  0.1219
  121MOL0     H16300   0.561   2.367   9.297  1.2690  1.9751  0.7808
  121MOL0     H16301   0.377   1.990   9.438 -1.0509 -0.7995 -0.6808
  121MOL0     H16302   0.282   2.110   9.529 -0.8110  2.2748  0.1099
  121MOL0     H16303   0.133   2.138   9.348 -0.7107 -0.3808 -0.8744
  121MOL0     H16304   0.242   2.029   9.247  0.4497 -2.5624  1.6266
  121MOL0     H16305   0.056   1.984   9.489 -2.2699  4.2835 -3.3899
  121MOL0     H16306   0.186   1.861   9.452 -1.1594 -2.1333 -1.2481
  121MOL0     H16307  -0.039   1.942   9.277  1.2443  1.0787 -0.5668
  121MOL0     H16308   0.089   1.851   9.215 -1.1960  2.4197 -0.8208
  121MOL0     H16309  -0.083   1.744   9.455  0.2590 -4.8898  0.0159
  121MOL0     H16310   0.054   1.670   9.387 -1.4753 -2.0521 -2.9260
  121MOL0     H16311  -0.164   1.737   9.193  0.5484  1.5819  0.4955
  121MOL0     H16312  -0.039   1.607   9.188  1.9094 -0.1418  2.0731
  121MOL0     H16313  -0.272   1.631   9.378  0.7303  1.0163 -0.4687
  121MOL0     H16314  -0.149   1.500   9.383  0.3693 -0.6645 -0.8200
  121MOL0     H16315  -0.343   1.557   9.147 -0.0774  0.7992  1.5054
  121MOL0     H16316  -0.375   1.444   9.286  0.1002  1.8062  0.6868
  121MOL0     H16317   0.537   2.047   9.568  0.0923 -2.5610 -3.8439
  121MOL0     H16318   0.773   2.096   9.650  1.8034 -1.3499 -2.0128
  121MOL0     H16319   1.147   2.081   9.569 -0.1715  0.0110  1.1054
  121MOL0     H16320   1.398   2.072   9.640  2.4693  1.1866 -0.8510
  121MOL0     H16321   3.149   3.007   8.922  0.3846 -0.0440 -0.8076
  121MOL0     H16322   3.328   3.074   8.808 -1.7591  1.3639  3.5276
  121MOL0     H16323   3.510   3.292   8.498 -0.9226  0.3440 -1.7874
  121MOL0     H16324   3.745   3.335   8.441  0.8465  0.0404  0.3394
  121MOL0     H16325   3.935   3.379   8.306  3.0003  1.3736  0.4373
  121MOL0     H16326   4.016   3.257   8.398 -0.3001 -0.2648 -0.6631
  121MOL0     H16327   4.140   3.168   8.195  1.1420  0.1743 -2.0859
  121MOL0     H16328   4.173   3.333   8.229  0.2341  0.0476 -1.7013
  121MOL0     H16329   4.006   3.402   8.047  1.6284  0.3750 -1.8139
  121MOL0     H16330   3.952   3.235   8.038 -2.5258  2.5620  2.6263
  121MOL0     H16331   4.110   3.248   7.856  1.0875 -0.8226 -0.9047
  121MOL0     H16332   4.184   3.162   7.989 -0.4624  0.3194 -1.7140
  121MOL0     H16333   4.457   3.478   7.944  0.4099 -1.9651  1.1631
  121MOL0     H16334   3.724   2.990   8.164 -0.0164  0.6451  1.3276
  121MOL0     H16335   3.504   2.932   8.264 -2.6182  0.7902  0.5769
  122MOL0     O16336   1.816   9.013   3.051 -0.0912 -0.7486 -0.1906
  122MOL0     C16337   1.728   8.937   3.095  0.1848 -0.6207 -0.0909
  122MOL0     O16338   1.590   8.962   3.103 -0.5605 -0.0716 -0.2905
  122MOL0     C16339   1.539   9.079   3.039 -0.1053  0.7593 -0.0271
  122MOL0     C16340   1.594   9.210   3.055 -0.4000  0.0579 -0.1385
  122MOL0     C16341   1.524   9.317   2.998 -0.5470  0.1308  0.5022
  122MOL0     C16342   1.396   9.299   2.932  0.3956 -0.1994 -0.0004
  122MOL0     O16343   1.337   9.419   2.885 -0.2297  0.5380  0.0579
  122MOL0     C16344   1.198   9.416   2.835  0.5716 -0.0877 -0.0374
  122MOL0     C16345   1.202   9.489   2.699  0.0126 -0.0208  0.1497
  122MOL0     C16346   1.064   9.493   2.632 -0.0944 -0.4705 -0.9238
  122MOL0     C16347   1.063   9.584   2.508 -0.5418  0.1933 -0.7858
  122MOL0     C16348   0.933   9.582   2.422  0.1450  0.7117  0.4661
  122MOL0     C16349   0.960   9.663   2.291  0.2817  0.2153 -0.4757
  122MOL0     C16350   0.827   9.693   2.218  0.3287 -0.0818 -0.3964
  122MOL0     C16351   0.857   9.787   2.100 -0.9442  0.2057  0.7005
  122MOL0     N16352   0.743   9.855   2.047  0.4737 -0.0021  0.4083
  122MOL0     C16353   0.671   9.799   1.944  0.3560  0.0891 -0.1574
  122MOL0     C16354   0.550   9.864   1.939  0.3674 -0.2834  0.6899
  122MOL0     C16355   0.441   9.828   1.836 -0.2346 -0.4673  0.1271
  122MOL0     C16356   0.363   9.714   1.911 -0.2790  0.0864  0.5068
  122MOL0     C16357   0.262   9.765   2.016 -0.1981  0.9326  0.7554
  122MOL0     C16358   0.145   9.811   1.938  0.3219 -0.2179 -0.3119
  122MOL0     O16359   0.102   9.936   1.990 -0.4047 -0.0246 -0.5366
  122MOL0     C16360  -0.016  10.002   1.967 -0.9496  0.7237 -0.1113
  122MOL0     C16361  -0.106   9.940   1.877  0.8273 -0.4132  0.5481
  122MOL0     C16362  -0.225  10.002   1.840 -0.6532 -0.0034  0.7056
  122MOL0     C16363  -0.324   9.927   1.751 -1.1798 -0.7974 -0.5626
  122MOL0     C16364  -0.246  10.134   1.897  0.1519  0.6537  0.6760
  122MOL0     C16365  -0.374  10.216   1.871 -0.4197  0.6590 -0.1632
  122MOL0     O16366  -0.390  10.336   1.933 -0.0067  0.1123 -0.8477
  122MOL0     C16367  -0.503  10.403   1.922  0.6297  0.1454  0.0934
  122MOL0     C16368  -0.532  10.471   1.808 -0.3802 -0.4892  0.1295
  122MOL0     C16369  -0.657  10.541   1.799 -0.2600 -0.5321 -0.5703
  122MOL0     C16370  -0.754  10.531   1.898  0.2023  0.9717 -0.3266
  122MOL0     O16371  -0.883  10.588   1.904  0.4022  0.0921 -0.8743
  122MOL0     C16372  -0.916  10.657   1.781 -0.3680  0.0470 -0.3214
  122MOL0     C16373  -1.052  10.715   1.794  0.5804  0.0342  0.3305
  122MOL0     C16374  -1.161  10.607   1.749 -0.9621 -0.2527  0.0813
  122MOL0     C16375  -1.301  10.649   1.789  1.0435 -0.7456  0.2174
  122MOL0     C16376  -1.392  10.525   1.768 -0.3560  0.3441 -0.2649
  122MOL0     C16377  -1.544  10.564   1.764  0.3913 -0.7967 -0.2909
  122MOL0     C16378  -1.620  10.451   1.831 -0.2556 -0.2086 -0.0374
  122MOL0     C16379  -1.766  10.473   1.834 -0.1246  0.0806 -0.6018
  122MOL0    Cl16380  -1.819  10.449   1.659  0.1502 -0.1693 -0.0162
  122MOL0     C16381  -0.726  10.465   2.018 -0.0238 -0.0680  0.2647
  122MOL0     C16382  -0.599  10.407   2.023 -0.1925 -0.4629  0.1516
  122MOL0     O16383  -0.461  10.171   1.802  0.0471 -0.1531  0.3492
  122MOL0     C16384  -0.156  10.193   1.989  0.2593 -0.0324 -0.6313
  122MOL0     C16385  -0.042  10.129   2.024 -0.1800  0.4053 -0.8261
  122MOL0     N16386   0.563   9.969   2.033 -0.4443 -0.7127 -0.1106
  122MOL0     N16387   0.685   9.968   2.083 -0.2904  0.1597  0.1930
  122MOL0     C16388   1.342   9.171   2.931  0.0490  0.6379 -0.7129
  122MOL0     C16389   1.414   9.060   2.985  0.4023 -0.1467 -0.0337
  122MOL0     C16390   1.771   8.798   3.127  0.2618 -0.8106  0.2442
  122MOL0     C16391   1.686   8.711   3.202 -0.7896 -0.8330 -0.0434
  122MOL0     C16392   1.733   8.583   3.249 -0.4163 -0.7061  0.0665
  122MOL0     C16393   1.865   8.531   3.213  0.3930 -0.8470 -0.5644
  122MOL0     O16394   1.906   8.413   3.272 -0.5272 -0.7269 -0.0858
  122MOL0     C16395   2.031   8.413   3.345 -0.6495 -0.2935  0.2861
  122MOL0     C16396   2.131   8.351   3.246  0.5073 -0.0568  0.2083
  122MOL0     C16397   2.276   8.372   3.298 -0.0594  0.2618  0.0724
  122MOL0     C16398   2.362   8.299   3.197  0.1589  0.7824  0.1686
  122MOL0     C16399   2.490   8.273   3.251 -0.5542 -0.8903  0.3339
  122MOL0     C16400   2.603   8.265   3.292  0.3401  0.1914  0.3651
  122MOL0     C16401   1.942   8.617   3.139 -1.1465 -0.2120 -0.3201
  122MOL0     C16402   1.903   8.741   3.094  0.5301  0.4455  0.1042
  122MOL0     H16403   1.693   9.208   3.100 -1.3645 -0.8171  2.0836
  122MOL0     H16404   1.568   9.416   3.005  1.9981 -1.0275  2.4322
  122MOL0     H16405   1.172   9.310   2.824  0.6454 -0.0385 -0.7813
  122MOL0     H16406   1.145   9.468   2.915  0.7280 -2.8052  1.9857
  122MOL0     H16407   1.249   9.587   2.709  1.5234 -0.3467 -2.5915
  122MOL0     H16408   1.268   9.432   2.632 -0.6516  0.3700 -0.8625
  122MOL0     H16409   1.041   9.392   2.599 -1.7670 -1.0817  1.8354
  122MOL0     H16410   0.990   9.531   2.704  1.1485  2.6858 -1.1335
  122MOL0     H16411   1.078   9.690   2.532 -1.2345  0.0733  0.1953
  122MOL0     H16412   1.147   9.542   2.451 -1.1710  0.3661 -1.8682
  122MOL0     H16413   0.902   9.478   2.409  0.8046  0.3553  1.6624
  122MOL0     H16414   0.853   9.634   2.475 -1.2494 -2.1005  1.2753
  122MOL0     H16415   0.995   9.763   2.319 -1.7659  0.5250  1.2925
  122MOL0     H16416   1.025   9.619   2.215 -1.3402 -1.6650 -0.8573
  122MOL0     H16417   0.786   9.600   2.177  1.7098 -0.2673 -1.3907
  122MOL0     H16418   0.764   9.744   2.292  0.8078  1.8650 -1.2620
  122MOL0     H16419   0.896   9.730   2.015 -0.5885 -0.6143  1.3889
  122MOL0     H16420   0.927   9.865   2.131 -0.7398  0.3551 -0.1207
  122MOL0     H16421   0.705   9.723   1.874  2.0332  0.5133  0.1636
  122MOL0     H16422   0.389   9.914   1.794  0.0286 -1.4378 -2.3398
  122MOL0     H16423   0.496   9.784   1.753 -0.3160  0.6596 -0.5332
  122MOL0     H16424   0.438   9.658   1.967  2.6700  1.7174 -1.5025
  122MOL0     H16425   0.305   9.651   1.844 -0.5692 -1.0673  1.7985
  122MOL0     H16426   0.301   9.843   2.081 -2.8813  0.1843  3.4586
  122MOL0     H16427   0.237   9.683   2.083 -0.9398  0.1435 -0.4378
  122MOL0     H16428   0.060   9.744   1.956  0.6559 -0.0651  2.2248
  122MOL0     H16429   0.171   9.832   1.834 -0.8992 -3.0220 -1.2943
  122MOL0     H16430  -0.076   9.845   1.832  1.8275 -0.3360  1.0196
  122MOL0     H16431  -0.287   9.824   1.760  0.9679  0.0388  1.1408
  122MOL0     H16432  -0.430   9.933   1.777 -0.7785  0.5487  0.9062
  122MOL0     H16433  -0.311   9.963   1.648 -0.5499  2.0604  0.4354
  122MOL0     H16434  -0.462  10.462   1.726 -1.9241 -4.3503 -0.9707
  122MOL0     H16435  -0.675  10.606   1.714 -1.4345  0.9965  0.7814
  122MOL0     H16436  -0.844  10.733   1.749  2.1983 -2.1521 -0.1124
  122MOL0     H16437  -0.908  10.582   1.702  1.2844 -2.3387  1.9896
  122MOL0     H16438  -1.064  10.741   1.899  0.2283 -0.2083  0.3516
  122MOL0     H16439  -1.069  10.810   1.741 -0.4849  0.4222  1.3210
  122MOL0     H16440  -1.138  10.516   1.806  0.4622  0.6125  0.9248
  122MOL0     H16441  -1.161  10.582   1.642 -2.5623 -0.5122  0.1161
  122MOL0     H16442  -1.298  10.685   1.892  0.0410  0.9396 -0.2874
  122MOL0     H16443  -1.344  10.734   1.735 -0.1634  0.2092  2.5444
  122MOL0     H16444  -1.373  10.453   1.848  0.8596  1.1800  0.2273
  122MOL0     H16445  -1.368  10.478   1.672 -0.6691  1.8260 -1.0933
  122MOL0     H16446  -1.564  10.659   1.815 -1.4280 -1.4553  0.2904
  122MOL0     H16447  -1.574  10.577   1.660 -0.0151  0.3618 -0.0427
  122MOL0     H16448  -1.590  10.448   1.936 -3.6153 -1.6757  1.0127
  122MOL0     H16449  -1.590  10.354   1.792 -0.6557 -0.7665  1.0074
  122MOL0     H16450  -1.779  10.576   1.869  1.4959  0.4806 -1.1036
  122MOL0     H16451  -1.802  10.394   1.901  5.9388 -2.1995  0.5843
  122MOL0     H16452  -0.795  10.475   2.102 -0.9058 -1.4436 -0.2654
  122MOL0     H16453  -0.586  10.365   2.123 -0.3887  1.7771  1.1761
  122MOL0     H16454  -0.180  10.286   2.040 -1.7346 -1.4252  1.1266
  122MOL0     H16455   0.025  10.184   2.089 -1.0869  1.8917 -1.1028
  122MOL0     H16456   1.251   9.141   2.881  0.6659  0.6908 -1.9183
  122MOL0     H16457   1.370   8.961   2.979 -4.3099  1.7505 -0.8541
  122MOL0     H16458   1.593   8.751   3.242  1.3253  1.8816  2.5927
  122MOL0     H16459   1.665   8.516   3.302  0.1647  0.6113  2.6056
  122MOL0     H16460   2.057   8.509   3.391 -0.7773 -0.0005 -0.2439
  122MOL0     H16461   2.032   8.360   3.441  3.0452  0.3395  0.7335
  122MOL0     H16462   2.129   8.388   3.143  1.8243 -0.5330 -0.0070
  122MOL0     H16463   2.116   8.243   3.232  0.4756  0.1002 -1.0668
  122MOL0     H16464   2.277   8.313   3.390 -0.8961 -2.3937 -1.5178
  122MOL0     H16465   2.309   8.475   3.312 -3.8738  1.4478  1.8766
  122MOL0     H16466   2.378   8.364   3.110 -0.6165 -0.9116 -1.3104
  122MOL0     H16467   2.322   8.204   3.162  1.4557  0.4883 -0.5569
  122MOL0     H16468   2.706   8.265   3.321  0.5560  0.5457 -0.3768
  122MOL0     H16469   2.041   8.587   3.106 -1.2995  1.0800 -2.1100
  122MOL0     H16470   1.954   8.798   3.017 -1.9539  0.9810 -1.2694
  123MOL0     O16471   2.701   2.321   8.321  0.6762 -0.0393  0.8650
  123MOL0     C16472   2.699   2.316   8.197 -0.4380  0.7133  0.2606
  123MOL0     O16473   2.589   2.324   8.117 -0.4079 -0.2292  0.1476
  123MOL0     C16474   2.474   2.362   8.177 -0.6801 -0.0322  0.5012
  123MOL0     C16475   2.365   2.270   8.184  0.0875 -0.4368  0.1287
  123MOL0     C16476   2.239   2.326   8.227 -0.0602  0.6128  0.2862
  123MOL0     C16477   2.223   2.459   8.270 -1.1801  0.4751 -0.1473
  123MOL0     O16478   2.107   2.516   8.299 -0.1189 -0.7257  0.0134
  123MOL0     C16479   1.986   2.504   8.228 -0.0473 -1.5748 -0.4479
  123MOL0     C16480   1.893   2.415   8.309  0.2284 -0.6353 -0.4327
  123MOL0     C16481   1.741   2.465   8.304 -0.6376  0.0598 -0.2544
  123MOL0     C16482   1.656   2.404   8.423  0.0472 -0.2827  0.0448
  123MOL0     C16483   1.507   2.430   8.420 -0.5004  0.8036 -0.0637
  123MOL0     C16484   1.470   2.575   8.392 -0.8880  0.4152  0.2398
  123MOL0     C16485   1.326   2.633   8.425  0.6011  0.1964  0.1557
  123MOL0     C16486   1.284   2.624   8.568  0.7801 -0.9397 -0.7734
  123MOL0     N16487   1.157   2.697   8.592  0.0981  0.6161  0.0897
  123MOL0     C16488   1.127   2.781   8.692 -1.6761 -0.1282 -0.5675
  123MOL0     C16489   0.998   2.810   8.691 -0.9274  0.1306  0.4363
  123MOL0     C16490   0.927   2.901   8.779  0.1723 -0.3803  0.1701
  123MOL0     C16491   0.921   3.049   8.723 -0.0457  0.6739 -0.8045
  123MOL0     C16492   0.846   3.152   8.796  0.1388 -1.5996 -0.5834
  123MOL0     C16493   0.696   3.124   8.819  0.1315  0.5455 -0.7939
  123MOL0     O16494   0.624   3.183   8.709 -0.9116  0.5929 -0.1882
  123MOL0     C16495   0.596   3.101   8.600  0.1172 -0.2624  0.0902
  123MOL0     C16496   0.604   2.956   8.597 -0.1457  0.9231  0.7455
  123MOL0     C16497   0.576   2.882   8.478  0.2633 -0.4247 -1.1275
  123MOL0     C16498   0.577   2.735   8.493  0.0076  0.3997 -0.0627
  123MOL0     C16499   0.529   2.947   8.363 -0.1932 -0.5540 -0.7034
  123MOL0     C16500   0.461   2.888   8.239 -0.4948 -0.1865  0.2644
  123MOL0     O16501   0.416   2.977   8.136 -0.0845  0.2998 -0.0946
  123MOL0     C16502   0.360   2.919   8.021  0.6530 -0.0209 -0.1514
  123MOL0     C16503   0.378   2.992   7.910 -0.2683 -0.1427  0.0011
  123MOL0     C16504   0.314   2.949   7.790 -0.3750 -0.3896  0.7160
  123MOL0     C16505   0.219   2.845   7.792 -0.4139  0.2449  0.5760
  123MOL0     O16506   0.154   2.836   7.675  0.5839  0.2718  0.2792
  123MOL0     C16507   0.061   2.730   7.657  0.6188 -0.1697  0.1611
  123MOL0     C16508   0.140   2.596   7.637  0.0369  0.6882 -0.0798
  123MOL0     C16509   0.050   2.492   7.569  0.0976  0.4146  0.4064
  123MOL0     C16510   0.143   2.361   7.532  0.4043  0.2252  0.1327
  123MOL0     C16511   0.054   2.260   7.459  0.3801 -0.8015  0.4547
  123MOL0     C16512   0.147   2.137   7.428  0.7772 -0.4672 -0.4224
  123MOL0     C16513   0.074   2.010   7.405 -0.3150  0.2961 -0.1816
  123MOL0     C16514   0.117   1.893   7.497 -0.4153  0.3571 -0.0034
  123MOL0    Cl16515  -0.006   1.759   7.492  0.5285  0.0631  0.5236
  123MOL0     C16516   0.200   2.777   7.921  0.0943  0.1549 -0.2648
  123MOL0     C16517   0.263   2.820   8.035  0.7327  0.2036  0.5941
  123MOL0     O16518   0.462   2.766   8.234  0.1245 -0.6398 -0.4262
  123MOL0     C16519   0.528   3.083   8.365  0.6821  0.2478 -0.1609
  123MOL0     C16520   0.553   3.163   8.484  0.3093 -0.0761  0.4475
  123MOL0     N16521   0.954   2.751   8.573 -0.1969  0.5963  0.5099
  123MOL0     N16522   1.045   2.676   8.524  0.1116  0.4720 -0.3003
  123MOL0     C16523   2.341   2.544   8.271 -0.3192  0.3745  0.7156
  123MOL0     C16524   2.460   2.495   8.233 -0.1511 -0.8333  0.2696
  123MOL0     C16525   2.838   2.290   8.133 -0.2238 -0.5626 -0.5089
  123MOL0     C16526   2.953   2.297   8.205 -0.0580  0.0383 -0.1254
  123MOL0     C16527   3.071   2.262   8.138  0.6849  1.1963  1.6744
  123MOL0     C16528   3.077   2.228   8.004 -0.2152  0.1775 -0.0037
  123MOL0     O16529   3.201   2.215   7.947 -0.1563  0.0867 -0.3033
  123MOL0     C16530   3.211   2.109   7.852  0.1656  0.4919 -0.3984
  123MOL0     C16531   3.358   2.109   7.821 -0.1897  0.6036  0.2921
  123MOL0     C16532   3.452   2.081   7.935  0.0643 -0.1463 -0.0645
  123MOL0     C16533   3.427   1.944   7.988  0.7649  0.4756  0.5561
  123MOL0     C16534   3.521   1.897   8.084 -0.3688 -0.8570 -0.4624
  123MOL0     C16535   3.606   1.877   8.162 -0.1649  0.6174 -0.2515
  123MOL0     C16536   2.956   2.210   7.940  0.6032  0.0214 -0.1266
  123MOL0     C16537   2.837   2.248   8.002  0.3760 -0.4633  0.2101
  123MOL0     H16538   2.383   2.178   8.129  2.9722  0.6180 -0.9152
  123MOL0     H16539   2.145   2.273   8.237 -1.9823  3.2373 -2.1649
  123MOL0     H16540   1.954   2.608   8.231  1.8030 -0.9401  3.0579
  123MOL0     H16541   1.995   2.474   8.123 -2.2167 -0.6160 -0.9776
  123MOL0     H16542   1.904   2.312   8.273  1.2816  0.2503 -2.8610
  123MOL0     H16543   1.920   2.407   8.414  1.0406 -1.1629 -0.6689
  123MOL0     H16544   1.733   2.574   8.315 -2.5653 -0.0269 -0.3083
  123MOL0     H16545   1.702   2.440   8.205  0.7573 -1.7617 -0.3920
  123MOL0     H16546   1.671   2.296   8.420  2.1694 -0.0601  0.6524
  123MOL0     H16547   1.694   2.435   8.521  1.3377 -1.2229 -0.1299
  123MOL0     H16548   1.461   2.364   8.345 -0.2633 -0.6577  1.0314
  123MOL0     H16549   1.457   2.397   8.511 -2.8746  1.0113 -1.2084
  123MOL0     H16550   1.547   2.632   8.444  0.5084 -1.7438  0.6497
  123MOL0     H16551   1.495   2.589   8.286  2.3392 -3.4482  0.2781
  123MOL0     H16552   1.323   2.740   8.404 -1.4693 -0.1005 -1.3784
  123MOL0     H16553   1.245   2.584   8.371 -3.0327  1.4837  3.8569
  123MOL0     H16554   1.362   2.678   8.622 -0.0966  0.7928 -1.1474
  123MOL0     H16555   1.276   2.520   8.599 -0.9015 -0.6764 -0.2288
  123MOL0     H16556   1.202   2.817   8.761 -0.1076  1.1542 -2.7856
  123MOL0     H16557   0.823   2.870   8.779  0.9800 -3.4854  0.9755
  123MOL0     H16558   0.978   2.899   8.877  3.0113 -0.2272 -1.1882
  123MOL0     H16559   0.885   3.036   8.621 -0.0258 -1.5723 -0.5881
  123MOL0     H16560   1.021   3.090   8.707  0.6950 -0.1191  1.3362
  123MOL0     H16561   0.856   3.251   8.750 -1.9445  0.9888  3.8456
  123MOL0     H16562   0.902   3.170   8.889 -1.0009 -1.9871  0.2054
  123MOL0     H16563   0.650   3.169   8.907  0.9683  0.0927 -0.1111
  123MOL0     H16564   0.680   3.017   8.833  5.4464 -0.2737  1.3918
  123MOL0     H16565   0.634   2.889   8.677  0.8080 -2.0645 -1.9179
  123MOL0     H16566   0.649   2.691   8.424 -2.0555 -5.5328  0.9699
  123MOL0     H16567   0.608   2.707   8.594  0.6898 -1.1073 -0.6567
  123MOL0     H16568   0.481   2.687   8.474 -0.1283  1.0576 -1.1207
  123MOL0     H16569   0.431   3.086   7.925  1.7817 -1.3408  0.7651
  123MOL0     H16570   0.326   3.008   7.700  0.7803 -2.4006 -0.5414
  123MOL0     H16571  -0.017   2.727   7.734 -2.4441  0.9126 -2.6760
  123MOL0     H16572   0.006   2.757   7.567  2.3861  1.0416 -0.6115
  123MOL0     H16573   0.232   2.610   7.579 -0.3368  1.9182 -0.4172
  123MOL0     H16574   0.165   2.555   7.735  2.1804  1.9347 -0.0297
  123MOL0     H16575   0.011   2.535   7.476  0.3791 -0.8276 -0.3114
  123MOL0     H16576  -0.027   2.459   7.638 -0.0592  0.0568  0.0630
  123MOL0     H16577   0.228   2.394   7.473  1.3405  0.9103  1.7805
  123MOL0     H16578   0.175   2.326   7.631  1.8349  4.5141  1.4373
  123MOL0     H16579   0.013   2.299   7.366  0.7711 -0.8043  0.2777
  123MOL0     H16580  -0.026   2.224   7.525 -0.2065  0.4080  0.4306
  123MOL0     H16581   0.208   2.174   7.346 -0.9601  0.6576 -1.2786
  123MOL0     H16582   0.218   2.103   7.503 -1.2207 -1.3398  1.1666
  123MOL0     H16583   0.072   1.986   7.299 -0.7190 -0.4922  0.0014
  123MOL0     H16584  -0.031   2.031   7.426  0.4384  2.5987  1.7353
  123MOL0     H16585   0.124   1.926   7.601 -1.1809 -0.7092  0.4092
  123MOL0     H16586   0.211   1.849   7.463  0.9400  2.9023  0.2439
  123MOL0     H16587   0.144   2.686   7.935 -0.0127 -0.1085 -2.1279
  123MOL0     H16588   0.245   2.780   8.134  3.5115 -0.7699  0.7898
  123MOL0     H16589   0.490   3.143   8.283 -1.0052  0.2460  0.5827
  123MOL0     H16590   0.532   3.269   8.485  1.7225  0.2875  3.8277
  123MOL0     H16591   2.329   2.647   8.300 -3.0097  0.4668 -0.4039
  123MOL0     H16592   2.537   2.571   8.238 -0.0490 -0.3521 -4.3599
  123MOL0     H16593   2.948   2.333   8.307 -0.2568  1.1125 -0.5026
  123MOL0     H16594   3.170   2.272   8.182  1.0853  1.1041  0.8219
  123MOL0     H16595   3.189   2.011   7.897  0.4176 -2.0224 -5.1223
  123MOL0     H16596   3.157   2.124   7.759 -1.5063  1.8132  0.7320
  123MOL0     H16597   3.389   2.206   7.781 -1.0304  0.8853  0.3153
  123MOL0     H16598   3.365   2.031   7.745 -0.6375  0.1176  0.7467
  123MOL0     H16599   3.443   2.150   8.019 -1.1736  0.2478 -0.5069
  123MOL0     H16600   3.556   2.095   7.905  0.4088  0.0311  1.1600
  123MOL0     H16601   3.429   1.875   7.903  1.4542  0.1787  0.8041
  123MOL0     H16602   3.326   1.934   8.028  0.6134 -2.6372 -0.3105
  123MOL0     H16603   3.673   1.842   8.237 -2.7131  1.8870  2.8389
  123MOL0     H16604   2.956   2.172   7.838  3.9944  0.9437 -0.5892
  123MOL0     H16605   2.743   2.228   7.951  0.0914  0.6172  0.2888
  124MOL0     O16606   7.472   6.027  10.906  0.3158 -0.3475  0.5926
  124MOL0     C16607   7.555   5.958  10.845  0.9577  0.1843  0.2820
  124MOL0     O16608   7.523   5.846  10.762 -0.2794  0.2671  0.5458
  124MOL0     C16609   7.389   5.807  10.751  0.6334  1.6814 -0.5836
  124MOL0     C16610   7.316   5.770  10.864 -0.6580 -0.3079  0.5927
  124MOL0     C16611   7.186   5.725  10.848 -0.3491 -0.3696  0.3593
  124MOL0     C16612   7.123   5.726  10.722 -0.0765 -1.0329 -0.8717
  124MOL0     O16613   6.996   5.696  10.701  0.2291 -0.6665  0.2255
  124MOL0     C16614   6.908   5.658  10.815  0.3197  0.0990  0.2540
  124MOL0     C16615   6.773   5.603  10.756 -0.0279  0.0059 -0.9850
  124MOL0     C16616   6.701   5.541  10.872  0.3151  0.4723  0.1016
  124MOL0     C16617   6.545   5.530  10.854  0.7674 -0.7645 -0.3324
  124MOL0     C16618   6.506   5.433  10.739  0.0219  1.5160 -0.0811
  124MOL0     C16619   6.353   5.424  10.726 -0.6280  1.1792 -0.4673
  124MOL0     C16620   6.340   5.300  10.631  0.4962  0.4489 -0.4840
  124MOL0     C16621   6.196   5.282  10.603  0.1326  0.1497 -0.6398
  124MOL0     N16622   6.116   5.248  10.719  0.2637  0.3912  0.2053
  124MOL0     C16623   6.107   5.117  10.763 -0.0032 -0.0523  0.2284
  124MOL0     C16624   6.007   5.124  10.857  0.2629 -0.2918  0.4774
  124MOL0     C16625   5.969   5.008  10.949 -0.7954 -0.0733 -0.4051
  124MOL0     C16626   5.864   5.050  11.062 -0.1616  0.5933  0.5212
  124MOL0     C16627   5.829   4.925  11.140  0.2960  0.2447 -0.8340
  124MOL0     C16628   5.936   4.890  11.242  0.3418 -0.1121 -0.2199
  124MOL0     O16629   5.962   4.993  11.340  0.4574 -0.6108 -0.6370
  124MOL0     C16630   5.860   5.026  11.425 -0.9727 -0.5141 -0.7633
  124MOL0     C16631   5.869   5.147  11.486 -0.4405 -0.2851 -0.5219
  124MOL0     C16632   5.768   5.206  11.570 -0.0620  0.3820 -0.2842
  124MOL0     C16633   5.805   5.337  11.630  0.1275 -1.4024 -0.4808
  124MOL0     C16634   5.651   5.132  11.602 -0.6451 -0.4266 -0.2316
  124MOL0     C16635   5.535   5.166  11.702 -0.3527  0.0645  0.1551
  124MOL0     O16636   5.447   5.065  11.728 -0.1879 -0.2311 -0.1513
  124MOL0     C16637   5.317   5.091  11.752 -0.6619  0.0243 -0.3104
  124MOL0     C16638   5.239   5.211  11.742  0.2065  0.4736 -0.7208
  124MOL0     C16639   5.100   5.217  11.771 -0.2398 -0.3075 -0.2096
  124MOL0     C16640   5.027   5.105  11.806  0.3420  0.1690 -0.2724
  124MOL0     O16641   4.892   5.095  11.827  0.4133 -0.2390  0.1713
  124MOL0     C16642   4.832   5.217  11.861  0.0034  0.6945 -0.2203
  124MOL0     C16643   4.690   5.193  11.922  0.2520 -1.1192 -0.1879
  124MOL0     C16644   4.629   5.319  11.986  0.1373 -0.5733  0.0670
  124MOL0     C16645   4.497   5.282  12.053  0.1543 -0.2271 -0.2031
  124MOL0     C16646   4.448   5.401  12.135 -0.2163 -0.3656 -0.3243
  124MOL0     C16647   4.328   5.361  12.228 -0.3744 -0.6976  0.4426
  124MOL0     C16648   4.303   5.451  12.345  1.2482 -0.3175 -0.6200
  124MOL0     C16649   4.164   5.422  12.410 -0.1930 -0.3304 -0.4513
  124MOL0    Cl16650   4.142   5.529  12.547  0.4935  0.4533  0.1555
  124MOL0     C16651   5.092   4.983  11.800 -0.3876 -0.5237  0.1461
  124MOL0     C16652   5.234   4.978  11.775  0.0045  0.1177  0.3931
  124MOL0     O16653   5.517   5.283  11.735 -0.0949  0.8990  0.8547
  124MOL0     C16654   5.654   5.003  11.537  0.3623 -0.2669  0.4622
  124MOL0     C16655   5.750   4.950  11.453 -0.2360  0.9601  0.1919
  124MOL0     N16656   5.962   5.255  10.856  0.1498  0.3908 -0.7116
  124MOL0     N16657   6.028   5.327  10.778 -0.0436  0.3962 -0.5529
  124MOL0     C16658   7.196   5.746  10.608 -0.6591 -0.5444  0.4371
  124MOL0     C16659   7.330   5.791  10.627 -0.4164  0.5135 -0.3820
  124MOL0     C16660   7.696   5.985  10.875 -0.1914  0.0033  0.7691
  124MOL0     C16661   7.810   5.916  10.817  0.2214 -1.1261  0.0189
  124MOL0     C16662   7.942   5.946  10.867  0.5804  0.2170 -0.1133
  124MOL0     C16663   7.966   6.032  10.974  0.0973 -0.0726  0.1522
  124MOL0     O16664   8.089   6.049  11.027 -0.2292  1.0005 -0.3016
  124MOL0     C16665   8.198   6.082  10.936  0.3926 -0.5581 -0.6989
  124MOL0     C16666   8.322   6.146  11.012  0.1054  0.0210 -0.1683
  124MOL0     C16667   8.409   6.225  10.912  0.0232  0.8461 -0.1390
  124MOL0     C16668   8.519   6.315  10.973  0.6476 -0.2852  0.3788
  124MOL0     C16669   8.590   6.259  11.086 -0.9360  0.4136  0.3605
  124MOL0     C16670   8.640   6.206  11.175 -0.9192 -1.0548  0.0465
  124MOL0     C16671   7.854   6.096  11.022  0.0148 -0.1748 -0.1028
  124MOL0     C16672   7.728   6.085  10.966 -0.2337  0.6073 -0.0971
  124MOL0     H16673   7.354   5.782  10.965 -1.7650 -0.3707  1.0329
  124MOL0     H16674   7.123   5.706  10.935 -3.7673 -0.6790 -1.9543
  124MOL0     H16675   6.956   5.571  10.861  0.2052 -1.2120 -1.9522
  124MOL0     H16676   6.892   5.735  10.890  1.0660 -0.8389  1.4152
  124MOL0     H16677   6.725   5.697  10.724 -0.2815 -0.5254 -2.2504
  124MOL0     H16678   6.784   5.539  10.668  1.9202  0.9293 -1.4810
  124MOL0     H16679   6.732   5.437  10.886 -2.7482 -0.6405 -0.5105
  124MOL0     H16680   6.725   5.584  10.969  0.4327  0.1205  0.2316
  124MOL0     H16681   6.504   5.488  10.946 -1.3280 -2.6308 -2.0115
  124MOL0     H16682   6.503   5.631  10.843  1.3261  0.2694  4.6176
  124MOL0     H16683   6.552   5.464  10.644  3.9044 -2.1905  0.2549
  124MOL0     H16684   6.562   5.341  10.757 -0.7447  0.6572 -1.7548
  124MOL0     H16685   6.305   5.399  10.821  0.2339 -0.8077 -0.4857
  124MOL0     H16686   6.320   5.517  10.679  0.2772  1.9990  0.4823
  124MOL0     H16687   6.390   5.316  10.535  1.3407  3.3153  0.3431
  124MOL0     H16688   6.371   5.208  10.681 -1.2509  1.5305  2.8961
  124MOL0     H16689   6.193   5.205  10.525  1.3697  1.9443 -2.5676
  124MOL0     H16690   6.160   5.376  10.560 -4.1266 -0.9694 -0.0416
  124MOL0     H16691   6.168   5.029  10.748 -0.3134 -1.0082  3.6825
  124MOL0     H16692   5.925   4.929  10.887 -1.6606  0.3439 -0.3324
  124MOL0     H16693   6.058   4.959  10.991 -1.2922 -2.5640 -2.0115
  124MOL0     H16694   5.777   5.097  11.015 -1.0137  0.0161  1.4755
  124MOL0     H16695   5.905   5.125  11.130  0.6040 -1.5758  2.5890
  124MOL0     H16696   5.814   4.841  11.071  0.6192  1.3920 -2.3640
  124MOL0     H16697   5.733   4.946  11.188  1.9269  2.7463  1.6265
  124MOL0     H16698   6.031   4.872  11.191  1.2004  1.0102  0.9147
  124MOL0     H16699   5.904   4.800  11.295 -0.0603 -0.4755 -1.0559
  124MOL0     H16700   5.960   5.200  11.458 -1.5689  1.6096 -0.8432
  124MOL0     H16701   5.722   5.405  11.608  1.3415  0.7249  1.0421
  124MOL0     H16702   5.827   5.325  11.737 -1.6781 -0.3888  0.0431
  124MOL0     H16703   5.893   5.387  11.588 -0.2856 -2.1437 -2.3304
  124MOL0     H16704   5.293   5.303  11.720  2.9336 -1.1412 -1.3486
  124MOL0     H16705   5.056   5.316  11.760 -1.4830 -0.4525  2.4967
  124MOL0     H16706   4.891   5.269  11.938  3.6476 -0.1662 -2.1819
  124MOL0     H16707   4.829   5.277  11.769 -0.9169  3.4174  1.4715
  124MOL0     H16708   4.626   5.173  11.835  2.4459  0.4839 -2.3187
  124MOL0     H16709   4.696   5.122  12.005  1.8837 -0.1718  0.5545
  124MOL0     H16710   4.635   5.393  11.906  3.0864 -1.6813 -0.8387
  124MOL0     H16711   4.700   5.353  12.061  0.6502 -2.3926  0.4413
  124MOL0     H16712   4.420   5.253  11.981  0.0471  0.5155 -0.3982
  124MOL0     H16713   4.509   5.195  12.119 -0.1285 -1.7680 -2.0888
  124MOL0     H16714   4.430   5.490  12.073  0.1585 -1.3373 -1.8665
  124MOL0     H16715   4.533   5.421  12.202  0.8488 -2.1704 -1.0758
  124MOL0     H16716   4.243   5.351  12.161  1.0983  1.2770 -1.8702
  124MOL0     H16717   4.340   5.260  12.271 -0.9891 -0.2929  1.5986
  124MOL0     H16718   4.309   5.556  12.312 -0.3074 -0.3806 -1.1961
  124MOL0     H16719   4.374   5.437  12.426  1.3771  0.5704 -0.5668
  124MOL0     H16720   4.146   5.325  12.457  0.5960  0.9227  2.6818
  124MOL0     H16721   4.089   5.435  12.331 -1.4397  1.0410  0.8957
  124MOL0     H16722   5.034   4.895  11.826 -0.6770 -0.7415 -1.1477
  124MOL0     H16723   5.282   4.881  11.767  1.6523  1.0319 -2.1437
  124MOL0     H16724   5.560   4.951  11.538  1.0050 -1.4632  1.8823
  124MOL0     H16725   5.737   4.853  11.406  0.4839  0.0618  1.7461
  124MOL0     H16726   7.162   5.745  10.505  1.2261  1.0298 -0.2513
  124MOL0     H16727   7.381   5.831  10.540 -0.5533  1.3052 -0.0990
  124MOL0     H16728   7.790   5.836  10.748 -0.7059 -0.5544 -0.3877
  124MOL0     H16729   8.023   5.892  10.818 -0.2245  0.1519 -1.4054
  124MOL0     H16730   8.226   6.000  10.869  2.4407  0.0245 -0.6079
  124MOL0     H16731   8.167   6.161  10.866  2.2126  0.3877 -0.5055
  124MOL0     H16732   8.367   6.061  11.064 -1.5761  0.7017  2.6194
  124MOL0     H16733   8.292   6.224  11.083 -2.3897 -1.0810  0.0829
  124MOL0     H16734   8.356   6.282  10.835  0.6173 -1.1518 -2.1243
  124MOL0     H16735   8.460   6.154  10.847 -0.0483 -0.5951  1.3078
  124MOL0     H16736   8.464   6.405  11.003  1.3075  0.5440 -0.7830
  124MOL0     H16737   8.586   6.350  10.893 -1.1099  0.9133 -0.6520
  124MOL0     H16738   8.686   6.156  11.258  3.8222  1.4972 -0.6981
  124MOL0     H16739   7.861   6.176  11.096  0.2303 -1.1554  0.9607
  124MOL0     H16740   7.657   6.158  11.004 -0.6756 -0.4234  1.1635
  125MOL0     O16741   6.149   3.771   0.690 -0.1768 -0.2565  0.5409
  125MOL0     C16742   6.198   3.703   0.773  1.1611 -0.2566  0.0375
  125MOL0     O16743   6.130   3.669   0.886 -0.2226  0.3879 -0.3862
  125MOL0     C16744   6.005   3.716   0.918 -0.3146 -0.1349  0.5797
  125MOL0     C16745   5.962   3.836   0.892  0.6679  0.6797  0.0396
  125MOL0     C16746   5.827   3.877   0.918  0.1330  0.0885  0.0447
  125MOL0     C16747   5.741   3.786   0.978  0.1226 -1.0266  0.2327
  125MOL0     O16748   5.617   3.841   1.015  0.2006  0.4692  0.2751
  125MOL0     C16749   5.571   3.828   1.158 -0.2071 -0.1657  0.4920
  125MOL0     C16750   5.610   3.955   1.229  0.0245 -0.0492  0.8292
  125MOL0     C16751   5.555   3.957   1.370 -0.4270 -0.6766  0.3590
  125MOL0     C16752   5.607   4.084   1.450 -0.0365  0.0442  0.2442
  125MOL0     C16753   5.539   4.110   1.577  0.0575  0.5699  0.9886
  125MOL0     C16754   5.383   4.135   1.563 -0.3803  0.1429  0.7204
  125MOL0     C16755   5.320   4.187   1.689 -0.5085 -0.9614  0.4734
  125MOL0     C16756   5.165   4.179   1.693 -0.3964 -0.0588  0.4616
  125MOL0     N16757   5.094   4.227   1.569  0.2015 -0.2992  0.1205
  125MOL0     C16758   5.104   4.350   1.512 -0.1476  0.7783 -0.1692
  125MOL0     C16759   5.014   4.350   1.416  0.5682 -0.4772  0.7074
  125MOL0     C16760   4.998   4.465   1.317 -0.0800 -0.3357  1.1600
  125MOL0     C16761   4.851   4.524   1.326  0.3231  0.8596  0.5726
  125MOL0     C16762   4.820   4.615   1.441  0.3172 -0.6648  0.0504
  125MOL0     C16763   4.677   4.669   1.443  1.2010  0.5279  0.2940
  125MOL0     O16764   4.583   4.560   1.477 -0.2453 -0.6725  0.8061
  125MOL0     C16765   4.453   4.587   1.500  0.2220 -0.7434  0.5609
  125MOL0     C16766   4.392   4.712   1.469  0.1941  0.5149  0.6651
  125MOL0     C16767   4.249   4.726   1.483 -0.0003 -0.4918 -1.1874
  125MOL0     C16768   4.186   4.849   1.441  0.0722 -0.0525  0.5726
  125MOL0     C16769   4.171   4.615   1.534  0.3420 -1.2706  1.3825
  125MOL0     C16770   4.023   4.620   1.546  0.9650  0.2768  0.0319
  125MOL0     O16771   3.976   4.724   1.619 -0.8371 -0.0655  0.4291
  125MOL0     C16772   3.840   4.744   1.628  0.1359 -0.3444  0.1994
  125MOL0     C16773   3.748   4.670   1.712  0.3260  0.3307  0.3136
  125MOL0     C16774   3.614   4.706   1.725  0.1828  0.8492 -0.1336
  125MOL0     C16775   3.568   4.821   1.661 -0.9861  0.5115  0.3550
  125MOL0     O16776   3.437   4.866   1.659 -0.6709  0.1626  0.3146
  125MOL0     C16777   3.352   4.843   1.764 -0.3359  1.3579  0.3143
  125MOL0     C16778   3.235   4.939   1.741 -0.5340 -0.4123  0.8466
  125MOL0     C16779   3.124   4.886   1.654  1.2664  0.1057 -0.5057
  125MOL0     C16780   3.006   4.985   1.658  0.3661  1.1305 -0.4617
  125MOL0     C16781   2.887   4.930   1.571 -0.3853  0.7398  0.5328
  125MOL0     C16782   2.763   5.020   1.598 -0.6325 -0.1723  0.0261
  125MOL0     C16783   2.634   4.972   1.535 -0.1450 -0.0158  0.0621
  125MOL0     C16784   2.524   5.077   1.543  0.1682  0.0855 -0.5180
  125MOL0    Cl16785   2.372   5.010   1.469 -0.6307 -0.0278  0.3264
  125MOL0     C16786   3.664   4.896   1.583  0.4833  0.0898  0.0853
  125MOL0     C16787   3.792   4.856   1.566  0.1815  0.9956 -0.3518
  125MOL0     O16788   3.959   4.520   1.514 -1.2035 -0.0828 -0.0941
  125MOL0     C16789   4.239   4.497   1.581  0.1102 -0.0545  0.3024
  125MOL0     C16790   4.372   4.480   1.542 -0.1661  0.5462 -1.1447
  125MOL0     N16791   4.947   4.225   1.411 -0.3055 -0.5414  0.9148
  125MOL0     N16792   4.991   4.157   1.503  0.1317 -0.0910 -0.5997
  125MOL0     C16793   5.789   3.663   1.014 -0.0430  0.8080 -0.3282
  125MOL0     C16794   5.925   3.627   0.989  0.1397 -0.4618 -0.6445
  125MOL0     C16795   6.334   3.659   0.753 -0.0216  0.3761 -0.6581
  125MOL0     C16796   6.407   3.669   0.635  0.3969  0.4707 -0.4319
  125MOL0     C16797   6.538   3.614   0.620  1.0335  0.7644  0.5157
  125MOL0     C16798   6.593   3.537   0.727 -0.8910  0.6911 -0.6705
  125MOL0     O16799   6.721   3.473   0.720 -0.4699 -0.2132 -0.8826
  125MOL0     C16800   6.793   3.480   0.601  0.3060 -0.3168 -0.6968
  125MOL0     C16801   6.899   3.378   0.601 -0.2958 -0.8921  0.1100
  125MOL0     C16802   7.009   3.417   0.718 -0.0038  0.7405 -0.0604
  125MOL0     C16803   7.135   3.321   0.705  0.2328  0.0668 -0.1657
  125MOL0     C16804   7.219   3.345   0.589  0.0289  0.6887 -0.1110
  125MOL0     C16805   7.298   3.363   0.497 -0.7909 -0.5267 -0.0294
  125MOL0     C16806   6.515   3.517   0.842  0.3076  0.1859  0.8992
  125MOL0     C16807   6.387   3.577   0.858 -0.1977  0.3597  0.8995
  125MOL0     H16808   6.011   3.901   0.821  0.6913 -0.8062 -1.3805
  125MOL0     H16809   5.797   3.980   0.899 -1.2000 -0.1450  0.7749
  125MOL0     H16810   5.463   3.816   1.156 -0.1602 -0.5371 -0.6285
  125MOL0     H16811   5.613   3.746   1.217 -1.1093 -0.5590  0.5961
  125MOL0     H16812   5.718   3.967   1.233  0.1985 -1.2231  0.2113
  125MOL0     H16813   5.569   4.029   1.160  0.7302 -2.2448 -2.1234
  125MOL0     H16814   5.445   3.962   1.368 -0.5297 -1.1190  2.3362
  125MOL0     H16815   5.580   3.867   1.428 -0.0547 -0.1160  1.0834
  125MOL0     H16816   5.714   4.073   1.471 -0.2085 -1.9183  0.2568
  125MOL0     H16817   5.605   4.174   1.387 -0.4911 -0.1339  0.0022
  125MOL0     H16818   5.555   4.021   1.637  0.7811  0.3747  0.5160
  125MOL0     H16819   5.593   4.198   1.615  2.2409  1.2699 -3.1369
  125MOL0     H16820   5.354   4.205   1.485 -1.3937 -0.5097  0.5013
  125MOL0     H16821   5.336   4.041   1.534  2.0678 -0.4381 -1.7427
  125MOL0     H16822   5.354   4.139   1.781  1.2481 -0.2749  0.2265
  125MOL0     H16823   5.350   4.292   1.698 -0.8712 -0.8190  0.0578
  125MOL0     H16824   5.133   4.233   1.782 -0.4117 -0.0016  0.4212
  125MOL0     H16825   5.148   4.073   1.718  2.1885 -0.6282  0.1546
  125MOL0     H16826   5.158   4.435   1.553 -2.6492  1.8006  1.2373
  125MOL0     H16827   5.079   4.535   1.339  0.8485 -0.7176 -0.8744
  125MOL0     H16828   5.013   4.425   1.216 -2.3045 -0.9372  1.0119
  125MOL0     H16829   4.780   4.441   1.338  2.1649 -0.6324  1.7588
  125MOL0     H16830   4.837   4.575   1.230  0.5874  0.0839  0.1116
  125MOL0     H16831   4.891   4.698   1.432 -0.5684  0.0749 -0.1488
  125MOL0     H16832   4.833   4.557   1.533  0.4436 -0.8624 -0.0901
  125MOL0     H16833   4.661   4.702   1.339  1.5911 -1.2267 -0.3466
  125MOL0     H16834   4.668   4.760   1.503 -3.1533  3.2364 -3.7087
  125MOL0     H16835   4.447   4.798   1.432  2.4643 -0.6058  1.2391
  125MOL0     H16836   4.247   4.913   1.377 -0.8302 -0.2415 -0.5080
  125MOL0     H16837   4.103   4.817   1.377  0.0182  0.1021  0.5668
  125MOL0     H16838   4.144   4.900   1.529  1.4406 -0.9949  1.8245
  125MOL0     H16839   3.802   4.592   1.765  0.2692 -0.9990 -1.4999
  125MOL0     H16840   3.561   4.643   1.795  0.1805  0.8310 -0.1516
  125MOL0     H16841   3.329   4.738   1.744 -0.9481  0.9711  2.7306
  125MOL0     H16842   3.394   4.860   1.863 -0.9935 -3.0205  1.5483
  125MOL0     H16843   3.193   4.985   1.832  0.3088  1.5661  0.2961
  125MOL0     H16844   3.280   5.029   1.697  1.4685 -1.2534  1.0739
  125MOL0     H16845   3.082   4.793   1.694 -1.3802  1.3741 -0.1118
  125MOL0     H16846   3.149   4.866   1.550  1.0320  2.7672 -1.1455
  125MOL0     H16847   2.973   4.994   1.762 -1.1807 -0.0397 -0.8088
  125MOL0     H16848   3.045   5.080   1.622 -1.6991  1.9853 -0.6249
  125MOL0     H16849   2.872   4.822   1.585 -2.3110  0.9537  0.4821
  125MOL0     H16850   2.911   4.950   1.466 -0.3677  0.5679  0.5041
  125MOL0     H16851   2.734   5.024   1.704 -1.9901 -2.9310 -0.1525
  125MOL0     H16852   2.793   5.118   1.561 -1.2626  0.0921  0.2010
  125MOL0     H16853   2.594   4.884   1.585 -0.1722  0.5747  1.1027
  125MOL0     H16854   2.652   4.949   1.429  3.2008  2.5753 -0.1140
  125MOL0     H16855   2.545   5.172   1.492  0.4429  0.4056  0.1730
  125MOL0     H16856   2.497   5.109   1.645 -1.2225 -1.6946 -0.2915
  125MOL0     H16857   3.625   4.986   1.536 -1.7558 -1.0579 -0.3529
  125MOL0     H16858   3.859   4.914   1.505  0.7448 -0.3033 -0.9999
  125MOL0     H16859   4.181   4.418   1.629  0.7979 -1.9213 -1.7966
  125MOL0     H16860   4.411   4.379   1.548  0.0671  0.5921 -1.7580
  125MOL0     H16861   5.719   3.599   1.066  3.1797 -2.0937  0.8426
  125MOL0     H16862   5.967   3.530   1.014  1.7035 -0.3498 -2.5461
  125MOL0     H16863   6.368   3.733   0.556  1.4696 -0.7457 -2.0133
  125MOL0     H16864   6.586   3.644   0.527 -2.1987  1.8869 -0.9824
  125MOL0     H16865   6.724   3.446   0.523 -0.2790 -1.6698  0.3687
  125MOL0     H16866   6.843   3.575   0.582 -1.5079  0.9702  0.6674
  125MOL0     H16867   6.947   3.388   0.503 -1.4358  2.5689 -0.2395
  125MOL0     H16868   6.852   3.283   0.627 -1.1933 -0.4134  0.2589
  125MOL0     H16869   6.966   3.410   0.819  2.8692 -1.0689  1.1561
  125MOL0     H16870   7.037   3.519   0.693  0.5542  0.8045  0.7877
  125MOL0     H16871   7.099   3.217   0.706  2.3632 -0.7530 -1.3773
  125MOL0     H16872   7.198   3.329   0.794 -4.3163  1.2593  3.3146
  125MOL0     H16873   7.372   3.371   0.421  1.1137 -0.5386  1.7367
  125MOL0     H16874   6.546   3.451   0.922  0.3469  0.7750  1.3737
  125MOL0     H16875   6.340   3.566   0.955 -0.3866  1.2583  0.9187
  126MOL0     O16876   4.746   2.593   1.948  0.0883 -0.3875 -1.0900
  126MOL0     C16877   4.806   2.698   1.947  0.4826 -0.5350 -0.5556
  126MOL0     O16878   4.782   2.805   2.040  0.0270 -0.7851  0.2127
  126MOL0     C16879   4.681   2.790   2.131 -0.4320  0.2378 -0.0469
  126MOL0     C16880   4.698   2.725   2.253  0.3309  0.1332  0.5547
  126MOL0     C16881   4.588   2.709   2.337  0.5510  0.8830 -0.1524
  126MOL0     C16882   4.457   2.736   2.291 -0.6830  0.6852 -0.1790
  126MOL0     O16883   4.353   2.703   2.373 -0.6860 -0.3300  0.5425
  126MOL0     C16884   4.215   2.716   2.343  0.0842  0.3782 -0.0146
  126MOL0     C16885   4.164   2.611   2.250  0.9414 -0.6998  0.8549
  126MOL0     C16886   4.005   2.606   2.237  0.0034  0.6935 -1.3323
  126MOL0     C16887   3.935   2.548   2.358 -0.3766 -0.6445 -0.1669
  126MOL0     C16888   3.791   2.513   2.333 -0.1517  0.9388  0.5214
  126MOL0     C16889   3.749   2.438   2.464 -0.4688 -0.0631 -0.6510
  126MOL0     C16890   3.612   2.379   2.459 -0.1624  0.2054 -0.3185
  126MOL0     C16891   3.605   2.253   2.373  0.0012 -0.9279 -0.3206
  126MOL0     N16892   3.467   2.229   2.332 -0.4088  0.4196 -0.4729
  126MOL0     C16893   3.378   2.301   2.260 -0.1452 -0.9768 -0.0496
  126MOL0     C16894   3.282   2.214   2.214 -0.5967  0.5540 -0.6973
  126MOL0     C16895   3.169   2.248   2.118 -0.1203  0.0125  0.5219
  126MOL0     C16896   3.039   2.175   2.144 -0.3209  1.3894 -0.5985
  126MOL0     C16897   2.982   2.174   2.287 -0.1468  0.2807  0.6102
  126MOL0     C16898   2.970   2.314   2.346 -0.4197 -0.8947  0.7435
  126MOL0     O16899   2.872   2.384   2.268 -0.3159  1.2005  0.6409
  126MOL0     C16900   2.745   2.381   2.316  0.0904  0.1200 -0.2797
  126MOL0     C16901   2.638   2.329   2.238  0.3621 -0.3580 -0.5530
  126MOL0     C16902   2.504   2.352   2.279  0.6085 -0.1721 -0.0035
  126MOL0     C16903   2.403   2.295   2.197  1.4950  0.5340 -0.3383
  126MOL0     C16904   2.474   2.426   2.393  0.1787  0.0841  0.3775
  126MOL0     C16905   2.334   2.478   2.432 -0.1758  0.1324 -0.3287
  126MOL0     O16906   2.322   2.557   2.546  0.2479 -0.6362  0.1281
  126MOL0     C16907   2.211   2.629   2.587  0.2332  0.3386  0.0592
  126MOL0     C16908   2.147   2.714   2.493 -0.7293 -0.5032  0.1945
  126MOL0     C16909   2.035   2.787   2.529  0.4724  0.4098  0.0875
  126MOL0     C16910   1.992   2.776   2.664  0.6263 -0.6152 -1.0219
  126MOL0     O16911   1.893   2.858   2.712  0.1993 -0.6242  0.0079
  126MOL0     C16912   1.759   2.806   2.688 -0.7039  0.2824 -0.4237
  126MOL0     C16913   1.698   2.879   2.565  0.0617  0.1529  0.4984
  126MOL0     C16914   1.557   2.837   2.525  0.2711 -0.6081 -0.4192
  126MOL0     C16915   1.444   2.921   2.583 -0.8421 -0.8624  0.0072
  126MOL0     C16916   1.309   2.855   2.565 -0.1794  0.3936  0.1812
  126MOL0     C16917   1.199   2.924   2.656 -0.1554  0.1898  0.2056
  126MOL0     C16918   1.062   2.847   2.631 -0.1184 -0.3734  0.1025
  126MOL0     C16919   0.955   2.930   2.712  0.1834  0.3370 -0.4172
  126MOL0    Cl16920   0.815   2.817   2.728 -0.1330 -0.0602  0.4256
  126MOL0     C16921   2.043   2.693   2.755 -0.4118  0.9930  0.2440
  126MOL0     C16922   2.160   2.627   2.713 -0.5665 -0.2756  0.6038
  126MOL0     O16923   2.247   2.458   2.354 -0.1216  0.2543  0.2618
  126MOL0     C16924   2.580   2.458   2.473  0.1117 -0.3930  0.0247
  126MOL0     C16925   2.716   2.431   2.437 -1.3895 -1.1188  0.0957
  126MOL0     N16926   3.302   2.099   2.282 -0.4887 -0.0064  0.6588
  126MOL0     N16927   3.413   2.099   2.352 -0.1228 -1.2075 -0.3521
  126MOL0     C16928   4.446   2.789   2.161 -0.0515  0.5442  0.7488
  126MOL0     C16929   4.560   2.822   2.089  0.9576 -0.1068  0.8115
  126MOL0     C16930   4.903   2.722   1.838  0.3763 -0.3704  0.4189
  126MOL0     C16931   4.970   2.844   1.842  0.2373 -1.2413 -0.2639
  126MOL0     C16932   5.057   2.882   1.745 -0.8099  0.2882 -0.7126
  126MOL0     C16933   5.086   2.793   1.643  0.2184 -0.4841 -0.3489
  126MOL0     O16934   5.183   2.820   1.544 -0.0753  0.5297  0.4332
  126MOL0     C16935   5.162   2.942   1.459  0.0313  0.4528 -0.5774
  126MOL0     C16936   5.258   3.044   1.500  0.0019  0.4985  1.5028
  126MOL0     C16937   5.400   3.047   1.433  0.9774  0.0549  0.3675
  126MOL0     C16938   5.501   2.957   1.505 -0.8548  0.3701  0.7945
  126MOL0     C16939   5.637   2.971   1.436  0.5276  0.2475  0.1622
  126MOL0     C16940   5.741   2.980   1.384 -1.2085 -0.5515 -0.4715
  126MOL0     C16941   5.021   2.666   1.637 -0.0012  0.0556  0.1076
  126MOL0     C16942   4.940   2.631   1.740 -0.5423 -0.0231  0.0939
  126MOL0     H16943   4.790   2.687   2.297  0.7821  0.7928  0.2064
  126MOL0     H16944   4.618   2.665   2.431  0.5863  1.3189  0.0418
  126MOL0     H16945   4.161   2.695   2.436 -3.5786  0.0153 -2.0309
  126MOL0     H16946   4.191   2.819   2.313  1.1041 -0.0043 -2.3017
  126MOL0     H16947   4.202   2.643   2.152  0.3024 -2.0190  0.1495
  126MOL0     H16948   4.208   2.514   2.275  0.8996 -0.7933  0.5810
  126MOL0     H16949   3.961   2.703   2.210 -0.1734  1.8193  2.4175
  126MOL0     H16950   4.002   2.527   2.162  0.4907  0.8567 -1.5288
  126MOL0     H16951   3.986   2.455   2.385  0.0353 -0.7852 -1.3850
  126MOL0     H16952   3.946   2.617   2.442 -1.4677 -2.0216  1.1711
  126MOL0     H16953   3.728   2.598   2.306 -2.1435 -0.6154  0.1191
  126MOL0     H16954   3.794   2.441   2.251 -0.4321  2.0246 -0.4628
  126MOL0     H16955   3.819   2.357   2.482 -2.2533 -1.6865 -0.7200
  126MOL0     H16956   3.759   2.504   2.551  0.6810 -0.2993 -0.5974
  126MOL0     H16957   3.577   2.358   2.560  0.6293  1.2027  0.1712
  126MOL0     H16958   3.552   2.462   2.421  1.4800  0.8132 -1.6996
  126MOL0     H16959   3.649   2.170   2.429 -0.3223 -2.1867 -1.8369
  126MOL0     H16960   3.668   2.241   2.285 -1.7643 -3.6270 -1.3557
  126MOL0     H16961   3.397   2.402   2.225 -1.4209  0.0253  1.9838
  126MOL0     H16962   3.153   2.357   2.117  2.0218  0.3720 -1.1082
  126MOL0     H16963   3.199   2.224   2.016 -0.5086 -0.5135  0.5312
  126MOL0     H16964   3.053   2.070   2.117 -0.6115  0.6859  1.7551
  126MOL0     H16965   2.964   2.220   2.078  0.4243  3.7367  0.0462
  126MOL0     H16966   3.048   2.112   2.348  0.3586 -0.4875 -0.6842
  126MOL0     H16967   2.893   2.111   2.294  0.9546 -1.5957 -1.1505
  126MOL0     H16968   3.061   2.373   2.352 -1.1392  0.1455  2.0202
  126MOL0     H16969   2.930   2.299   2.447  0.4217  0.4038  1.2927
  126MOL0     H16970   2.675   2.280   2.149  0.8928  3.2218 -2.4964
  126MOL0     H16971   2.338   2.230   2.255  0.6373  2.8492  1.4641
  126MOL0     H16972   2.350   2.377   2.147 -1.0310 -1.1818 -0.6248
  126MOL0     H16973   2.455   2.241   2.117 -2.1476 -2.4198 -0.9592
  126MOL0     H16974   2.180   2.733   2.391 -0.1624  2.2280  0.8004
  126MOL0     H16975   1.977   2.850   2.462 -2.6145  0.7743  2.8636
  126MOL0     H16976   1.754   2.699   2.667  0.1505  0.0486  0.5117
  126MOL0     H16977   1.704   2.837   2.777 -0.5032  0.5859 -0.4011
  126MOL0     H16978   1.711   2.984   2.595  2.2578  0.5598 -1.5680
  126MOL0     H16979   1.763   2.856   2.481  1.5842 -1.8920  2.1168
  126MOL0     H16980   1.544   2.735   2.564 -1.0390  0.1586  1.2905
  126MOL0     H16981   1.551   2.841   2.416  0.4996 -2.4797 -0.5338
  126MOL0     H16982   1.465   2.923   2.691 -0.4984 -0.8146 -0.0586
  126MOL0     H16983   1.451   3.024   2.547  3.9380 -0.9622 -0.0566
  126MOL0     H16984   1.326   2.751   2.595 -0.3863  0.8804  2.1265
  126MOL0     H16985   1.277   2.855   2.461 -0.9571 -1.9358  0.3524
  126MOL0     H16986   1.237   2.906   2.757  1.1600  0.4599 -0.2177
  126MOL0     H16987   1.194   3.032   2.638 -0.3594  0.0268 -0.7807
  126MOL0     H16988   1.066   2.746   2.671  0.9583 -1.0281 -1.5531
  126MOL0     H16989   1.029   2.839   2.527 -0.0163  2.6480 -0.2515
  126MOL0     H16990   0.924   3.023   2.663 -0.5198 -0.1829 -0.9744
  126MOL0     H16991   0.990   2.956   2.813  0.2511 -0.8096 -0.1392
  126MOL0     H16992   2.011   2.689   2.859 -0.0791 -0.8717  0.3148
  126MOL0     H16993   2.214   2.566   2.785 -1.1288  0.2579  1.4967
  126MOL0     H16994   2.554   2.508   2.566  0.3170 -1.3423  0.6053
  126MOL0     H16995   2.800   2.461   2.498 -0.3604  1.0773 -2.2035
  126MOL0     H16996   4.351   2.812   2.113 -0.7819 -1.8861  0.8662
  126MOL0     H16997   4.540   2.869   1.993 -0.6858  0.5086  1.4063
  126MOL0     H16998   4.953   2.911   1.925 -1.1031 -3.7947  1.6344
  126MOL0     H16999   5.118   2.970   1.762  3.1199 -2.1947 -0.7038
  126MOL0     H17000   5.171   2.914   1.354  2.1146 -4.0544  0.5681
  126MOL0     H17001   5.065   2.990   1.477  0.7591  1.9748 -0.5469
  126MOL0     H17002   5.275   3.027   1.606 -0.1375 -2.8379  1.1111
  126MOL0     H17003   5.204   3.138   1.484 -0.4305 -0.0625 -0.6978
  126MOL0     H17004   5.445   3.146   1.439 -1.5217  1.5038 -2.1177
  126MOL0     H17005   5.389   3.013   1.329 -3.3518  1.4761  0.1574
  126MOL0     H17006   5.465   2.854   1.490 -2.5507  1.0437 -0.0791
  126MOL0     H17007   5.501   2.975   1.612 -0.6579  2.5913  0.4727
  126MOL0     H17008   5.839   2.996   1.345 -1.5017 -0.5206 -1.2069
  126MOL0     H17009   5.060   2.591   1.569 -0.0393 -1.7338  1.9573
  126MOL0     H17010   4.891   2.534   1.748 -2.3426  0.8924  0.6760
  127MOL0     O17011   9.900   8.919   6.403  1.1617 -0.1732 -0.4145
  127MOL0     C17012   9.864   9.033   6.442 -0.3954 -0.6780 -0.2599
  127MOL0     O17013   9.745   9.064   6.510 -0.5588 -0.7182  0.2916
  127MOL0     C17014   9.675   8.964   6.571 -0.1987  0.5675  0.4973
  127MOL0     C17015   9.535   8.966   6.552  0.4730  0.0784 -1.2337
  127MOL0     C17016   9.462   8.858   6.600 -0.6355  0.4844  0.0534
  127MOL0     C17017   9.525   8.759   6.676 -0.0242  0.5005 -0.2860
  127MOL0     O17018   9.475   8.644   6.729  0.1043  0.2236 -0.4544
  127MOL0     C17019   9.341   8.610   6.706  0.2216 -0.0870 -0.7308
  127MOL0     C17020   9.243   8.681   6.810  0.1786  0.2159  0.3710
  127MOL0     C17021   9.100   8.670   6.754  0.0985  0.3140 -0.1290
  127MOL0     C17022   8.988   8.708   6.851 -0.2364 -0.0822 -0.7467
  127MOL0     C17023   8.853   8.676   6.779  0.1923 -1.2308  0.0361
  127MOL0     C17024   8.728   8.712   6.856 -0.2890 -0.1363  0.3015
  127MOL0     C17025   8.715   8.638   6.988 -0.5755  0.1086 -1.2424
  127MOL0     C17026   8.721   8.489   6.968  0.2956 -0.3174 -0.2352
  127MOL0     N17027   8.676   8.409   7.085 -0.1696  0.0081  0.0874
  127MOL0     C17028   8.739   8.401   7.207  0.3531  0.2807 -0.7378
  127MOL0     C17029   8.651   8.339   7.291  1.0780  0.4148  0.1952
  127MOL0     C17030   8.664   8.311   7.440 -0.0465  1.1795 -0.3031
  127MOL0     C17031   8.686   8.434   7.525  0.2492  0.1473  0.8013
  127MOL0     C17032   8.574   8.539   7.526  0.3956  0.2985  0.1389
  127MOL0     C17033   8.429   8.480   7.519  0.0092  0.0380  0.4785
  127MOL0     O17034   8.352   8.597   7.524  0.3217  0.1837 -0.0187
  127MOL0     C17035   8.226   8.557   7.562  0.1845 -0.2476 -0.6946
  127MOL0     C17036   8.194   8.539   7.697  0.6301 -0.3674  0.1176
  127MOL0     C17037   8.074   8.512   7.745  0.5628 -0.4098  0.6134
  127MOL0     C17038   8.053   8.493   7.901 -0.0080  0.9868  0.9984
  127MOL0     C17039   7.969   8.492   7.649  0.4555 -0.2883 -0.5175
  127MOL0     C17040   7.826   8.445   7.678 -0.5686  0.4481 -0.3647
  127MOL0     O17041   7.743   8.439   7.573  0.7764 -0.4327 -0.2503
  127MOL0     C17042   7.610   8.416   7.599 -1.1033  0.1350  0.0805
  127MOL0     C17043   7.541   8.324   7.525 -0.7890  0.0330 -0.1218
  127MOL0     C17044   7.403   8.314   7.538  0.8552  0.4836  0.3177
  127MOL0     C17045   7.331   8.392   7.631 -0.6085  0.3484 -0.3530
  127MOL0     O17046   7.196   8.403   7.648 -1.0329 -0.0852 -0.0164
  127MOL0     C17047   7.103   8.322   7.574 -0.4205 -0.2503 -0.5982
  127MOL0     C17048   6.957   8.366   7.588  0.4613 -0.5474 -0.4476
  127MOL0     C17049   6.866   8.305   7.473 -0.2995 -0.1172 -0.5964
  127MOL0     C17050   6.723   8.350   7.497 -0.5385  0.5085 -0.3501
  127MOL0     C17051   6.640   8.287   7.386  1.2048  0.0576 -0.1438
  127MOL0     C17052   6.504   8.369   7.361 -0.6179 -0.8232  0.7556
  127MOL0     C17053   6.380   8.359   7.457 -0.1868  0.0624 -0.1970
  127MOL0     C17054   6.260   8.428   7.400 -0.0397 -0.6941  0.4981
  127MOL0    Cl17055   6.250   8.609   7.425  0.3709 -0.4065 -0.0227
  127MOL0     C17056   7.410   8.477   7.713  0.8560 -0.3737  0.4492
  127MOL0     C17057   7.542   8.499   7.687 -0.5811 -0.2047  0.6207
  127MOL0     O17058   7.805   8.400   7.795  0.2253 -0.1578 -0.0853
  127MOL0     C17059   7.996   8.499   7.506 -0.1125  0.3263 -0.4558
  127MOL0     C17060   8.127   8.542   7.466  0.2207 -0.0287  0.2716
  127MOL0     N17061   8.533   8.318   7.230 -0.1807 -0.6497  0.1412
  127MOL0     N17062   8.546   8.354   7.101 -0.5148 -0.4872  0.7473
  127MOL0     C17063   9.664   8.768   6.705  0.1359  0.1094  0.0100
  127MOL0     C17064   9.734   8.869   6.653 -0.3242 -0.2022 -0.2653
  127MOL0     C17065   9.939   9.158   6.392 -1.0072  0.3703  0.1786
  127MOL0     C17066  10.079   9.157   6.363 -0.4924  0.9497 -0.5844
  127MOL0     C17067  10.166   9.263   6.378  0.5029 -0.4723 -0.2145
  127MOL0     C17068  10.109   9.389   6.410 -0.2440 -0.8586 -0.0416
  127MOL0     O17069  10.187   9.508   6.415  0.8277  0.2531 -0.0350
  127MOL0     C17070  10.302   9.501   6.501 -0.2748 -0.1484 -0.1757
  127MOL0     C17071  10.290   9.548   6.646  0.0325  0.0688  0.0161
  127MOL0     C17072  10.160   9.494   6.726 -1.2082  0.0440 -0.0018
  127MOL0     C17073  10.136   9.558   6.865 -0.3181 -0.6083 -0.4589
  127MOL0     C17074  10.247   9.527   6.954 -0.1478 -0.4916 -0.6175
  127MOL0     C17075  10.346   9.493   7.020 -0.8283  0.2717  0.4307
  127MOL0     C17076   9.973   9.398   6.425 -0.4936  0.4992  0.1116
  127MOL0     C17077   9.889   9.288   6.419  0.2424 -0.4132  0.4731
  127MOL0     H17078   9.474   9.046   6.509 -0.6775  0.3826  0.8408
  127MOL0     H17079   9.355   8.851   6.584 -0.6937  1.8952 -0.3123
  127MOL0     H17080   9.305   8.642   6.608 -0.7865  4.3178  0.8577
  127MOL0     H17081   9.338   8.500   6.710  1.9234 -0.1256  0.7156
  127MOL0     H17082   9.240   8.635   6.910  0.0051  0.2016  0.3601
  127MOL0     H17083   9.265   8.786   6.831 -1.8618  1.0629 -1.3998
  127MOL0     H17084   9.078   8.723   6.661 -0.8136 -1.6774 -1.1208
  127MOL0     H17085   9.087   8.569   6.712  1.5031 -0.0047  0.1330
  127MOL0     H17086   8.987   8.652   6.945  1.0132  1.3261  0.1481
  127MOL0     H17087   9.006   8.815   6.863  1.0865 -0.1870 -1.6270
  127MOL0     H17088   8.855   8.742   6.692 -2.8066 -1.1204 -0.0773
  127MOL0     H17089   8.846   8.570   6.754  0.3307 -1.4739  0.9638
  127MOL0     H17090   8.726   8.820   6.875  0.2911 -0.2920  1.3312
  127MOL0     H17091   8.647   8.687   6.788 -0.9702  1.5677  0.4379
  127MOL0     H17092   8.800   8.659   7.053 -2.4667 -2.4495  2.4070
  127MOL0     H17093   8.626   8.675   7.039 -0.2557 -3.4290  2.3213
  127MOL0     H17094   8.821   8.456   6.936 -0.1648 -1.7517 -0.2578
  127MOL0     H17095   8.653   8.476   6.884  0.4552 -1.1865 -0.2359
  127MOL0     H17096   8.841   8.429   7.229  0.9409 -1.5547 -0.9975
  127MOL0     H17097   8.576   8.256   7.474  0.3215  0.7960  0.0509
  127MOL0     H17098   8.753   8.248   7.444 -1.0063 -0.1785  0.5547
  127MOL0     H17099   8.767   8.494   7.480  1.1492 -1.7517 -0.2260
  127MOL0     H17100   8.714   8.411   7.628 -3.0572  0.9804  2.0091
  127MOL0     H17101   8.572   8.604   7.438 -2.4323 -1.6119 -1.3664
  127MOL0     H17102   8.572   8.589   7.623 -1.1134 -0.3162  0.4502
  127MOL0     H17103   8.415   8.431   7.616 -1.7240  1.8171  1.1979
  127MOL0     H17104   8.395   8.419   7.435 -1.2284  3.4331 -1.6800
  127MOL0     H17105   8.272   8.552   7.772  0.4752  2.6348 -0.1201
  127MOL0     H17106   8.048   8.385   7.920  0.2732  0.7704 -0.0635
  127MOL0     H17107   8.143   8.523   7.955  0.5070 -1.7681  1.8160
  127MOL0     H17108   7.964   8.540   7.943  0.9834  2.4841  1.5043
  127MOL0     H17109   7.593   8.261   7.453 -1.3897  0.9012 -1.3473
  127MOL0     H17110   7.345   8.255   7.468  0.1794 -0.9826  2.0236
  127MOL0     H17111   7.130   8.330   7.468 -1.2248 -0.4786 -0.8300
  127MOL0     H17112   7.099   8.220   7.613 -0.4969 -0.1436 -0.3297
  127MOL0     H17113   6.912   8.334   7.683 -1.1912  0.4576 -0.8441
  127MOL0     H17114   6.939   8.474   7.589  0.3630 -0.5430  1.3242
  127MOL0     H17115   6.869   8.196   7.471 -0.1719 -0.1038 -1.2593
  127MOL0     H17116   6.908   8.342   7.379 -1.1291  1.8180 -0.2509
  127MOL0     H17117   6.673   8.320   7.590 -1.9707 -0.4183 -1.3731
  127MOL0     H17118   6.720   8.458   7.479  0.9655  0.6035 -0.1396
  127MOL0     H17119   6.619   8.183   7.414  1.1979  0.4236  1.2830
  127MOL0     H17120   6.684   8.285   7.286  1.3677 -2.0794 -0.0871
  127MOL0     H17121   6.528   8.471   7.332 -0.3529 -1.5574 -1.8610
  127MOL0     H17122   6.470   8.331   7.264 -2.6410  2.2193  0.1456
  127MOL0     H17123   6.398   8.406   7.554  0.4644  1.0526 -0.7868
  127MOL0     H17124   6.361   8.252   7.471 -0.2375  0.1662  0.6293
  127MOL0     H17125   6.173   8.379   7.444 -2.4306  0.0462 -2.9846
  127MOL0     H17126   6.255   8.400   7.295 -0.1244  0.5080  0.1640
  127MOL0     H17127   7.352   8.540   7.779  0.6084 -0.9365  0.7740
  127MOL0     H17128   7.593   8.584   7.733  0.9817 -0.5872 -0.3243
  127MOL0     H17129   7.925   8.472   7.429 -1.6889 -1.5684  1.5347
  127MOL0     H17130   8.145   8.557   7.360 -1.4970  0.9762  0.0903
  127MOL0     H17131   9.720   8.691   6.759  0.4964  1.4134  1.5716
  127MOL0     H17132   9.838   8.878   6.681 -0.9950  1.7477  1.9207
  127MOL0     H17133  10.132   9.064   6.347 -1.4121  0.4217 -0.6137
  127MOL0     H17134  10.270   9.269   6.348  0.0964  2.6827 -1.3314
  127MOL0     H17135  10.345   9.401   6.502 -0.2557 -0.1463 -0.5437
  127MOL0     H17136  10.375   9.567   6.452 -1.0201  0.6865 -0.1836
  127MOL0     H17137  10.267   9.653   6.629 -4.3989 -0.9077 -1.3500
  127MOL0     H17138  10.379   9.548   6.710 -0.4975  0.9174  0.7663
  127MOL0     H17139  10.173   9.385   6.732  1.1543  0.3233  1.0234
  127MOL0     H17140  10.068   9.511   6.669 -0.8317 -0.4181 -0.7557
  127MOL0     H17141  10.034   9.541   6.901 -0.7480  1.3898 -0.6469
  127MOL0     H17142  10.144   9.666   6.850  1.1773 -0.7368 -0.7660
  127MOL0     H17143  10.443   9.469   7.061 -0.2191 -1.1711 -1.6605
  127MOL0     H17144   9.930   9.497   6.436  1.1903  1.3700 -0.7789
  127MOL0     H17145   9.785   9.309   6.441  0.2230 -0.7545  0.7096
  128MOL0     O17146   3.420   7.908   2.022 -0.9280  0.2277  0.2843
  128MOL0     C17147   3.401   8.027   2.050 -0.0636  0.0491  0.2398
  128MOL0     O17148   3.283   8.099   2.032 -0.3971 -0.2709  0.2768
  128MOL0     C17149   3.164   8.031   1.998 -0.6786 -0.4993 -0.6489
  128MOL0     C17150   3.127   8.008   1.867  0.3275 -0.5406 -0.3132
  128MOL0     C17151   3.018   7.937   1.832  0.5402 -1.1406 -0.0006
  128MOL0     C17152   2.929   7.896   1.928  0.8401 -0.4475 -0.6120
  128MOL0     O17153   2.808   7.834   1.905  0.2188 -0.7087  0.8990
  128MOL0     C17154   2.784   7.749   1.792  0.1665 -0.0700 -0.1229
  128MOL0     C17155   2.653   7.801   1.725  0.1126  0.6196 -0.1279
  128MOL0     C17156   2.533   7.741   1.795 -0.1407 -0.2601 -0.2738
  128MOL0     C17157   2.412   7.783   1.720 -0.3079 -0.0058  0.8112
  128MOL0     C17158   2.286   7.718   1.779 -0.0039 -0.3271  0.0214
  128MOL0     C17159   2.154   7.766   1.708 -0.6661  0.2620 -0.1161
  128MOL0     C17160   2.032   7.718   1.781  0.2440 -1.0373  0.2357
  128MOL0     C17161   1.910   7.774   1.706 -0.4848 -0.0222  0.8251
  128MOL0     N17162   1.780   7.741   1.769 -0.6249 -0.8556  0.4830
  128MOL0     C17163   1.686   7.838   1.814 -0.3371 -0.0307  0.9341
  128MOL0     C17164   1.593   7.761   1.884 -0.1539 -0.7449  0.2482
  128MOL0     C17165   1.469   7.828   1.942  0.2040  0.3234 -0.1509
  128MOL0     C17166   1.376   7.852   1.825  0.4061 -0.2226  0.6501
  128MOL0     C17167   1.232   7.869   1.881  0.0035 -0.9027  1.0797
  128MOL0     C17168   1.139   7.880   1.754 -0.7997  0.4515 -1.1259
  128MOL0     O17169   1.015   7.938   1.793  0.6194 -0.1464  0.1147
  128MOL0     C17170   0.904   7.929   1.710 -0.5528 -0.2842 -0.4436
  128MOL0     C17171   0.909   7.883   1.585 -0.3432 -0.1554  0.3032
  128MOL0     C17172   0.794   7.877   1.501  0.1712  0.6529 -0.0557
  128MOL0     C17173   0.814   7.799   1.369 -0.1567  0.2241  0.3775
  128MOL0     C17174   0.674   7.939   1.546 -0.5903 -1.1338 -0.2391
  128MOL0     C17175   0.537   7.952   1.471 -0.1526  0.1620  0.5994
  128MOL0     O17176   0.437   8.024   1.533  0.7993  0.0882  0.1656
  128MOL0     C17177   0.311   8.035   1.469 -0.2427 -0.3215 -0.3175
  128MOL0     C17178   0.242   8.149   1.493 -0.9145 -0.2965  0.7532
  128MOL0     C17179   0.109   8.163   1.449  0.4137  0.3911 -0.2755
  128MOL0     C17180   0.053   8.069   1.363 -0.5218  0.4974 -1.4501
  128MOL0     O17181  -0.069   8.077   1.305 -0.0927 -0.3330 -0.0592
  128MOL0     C17182  -0.178   8.093   1.401 -0.2894  0.0664 -0.3859
  128MOL0     C17183  -0.306   8.038   1.342 -0.7448  0.4257  0.4870
  128MOL0     C17184  -0.317   7.884   1.340  0.5171 -0.9033 -0.0069
  128MOL0     C17185  -0.371   7.822   1.468 -0.1552 -0.5776 -0.4616
  128MOL0     C17186  -0.532   7.816   1.468  0.2528 -0.5908  0.2469
  128MOL0     C17187  -0.594   7.718   1.379  0.4369  0.2615 -0.2646
  128MOL0     C17188  -0.749   7.728   1.395  0.4521  0.2259 -0.4325
  128MOL0     C17189  -0.821   7.628   1.306  1.1003  0.3021  0.2969
  128MOL0    Cl17190  -0.993   7.648   1.364  0.3114  0.1978 -0.0014
  128MOL0     C17191   0.137   7.962   1.324  0.5714  0.4885 -0.2008
  128MOL0     C17192   0.260   7.939   1.378 -0.0437 -0.4318  0.5716
  128MOL0     O17193   0.538   7.916   1.356  0.4405  0.6316  0.2695
  128MOL0     C17194   0.681   8.008   1.678  0.3209  1.2941 -0.4903
  128MOL0     C17195   0.791   7.995   1.755  0.0811  0.0482 -0.2711
  128MOL0     N17196   1.629   7.634   1.880 -0.1401  0.3719  0.3096
  128MOL0     N17197   1.738   7.617   1.807  0.0824 -0.1870 -0.2359
  128MOL0     C17198   2.972   7.907   2.064 -0.3725 -0.0739  0.7206
  128MOL0     C17199   3.087   7.980   2.097 -0.4087  0.2487 -0.2431
  128MOL0     C17200   3.527   8.108   2.069 -0.5041 -0.5214  0.2078
  128MOL0     C17201   3.518   8.246   2.100 -0.5968 -0.5888  0.1258
  128MOL0     C17202   3.641   8.316   2.132 -0.2893  0.3358  0.0262
  128MOL0     C17203   3.763   8.262   2.115 -0.0410  0.0682 -0.5670
  128MOL0     O17204   3.873   8.335   2.159  0.5218  0.0318  0.0079
  128MOL0     C17205   4.003   8.287   2.117  0.1633 -0.3827  0.1113
  128MOL0     C17206   4.102   8.408   2.115  0.0698  0.3235 -0.0918
  128MOL0     C17207   4.249   8.352   2.101  0.1022 -1.0386  0.4045
  128MOL0     C17208   4.311   8.286   2.218  0.5815 -0.3655  0.6076
  128MOL0     C17209   4.450   8.249   2.194 -0.0325  0.4565  0.4184
  128MOL0     C17210   4.563   8.218   2.178  0.0760 -0.5483  1.0603
  128MOL0     C17211   3.772   8.128   2.083  0.1691 -0.6635 -0.3277
  128MOL0     C17212   3.657   8.053   2.067 -0.1272  0.8841 -0.3524
  128MOL0     H17213   3.189   8.045   1.787  3.4392 -1.6477  1.4145
  128MOL0     H17214   2.994   7.930   1.727  2.7917  2.7377 -0.9914
  128MOL0     H17215   2.863   7.747   1.717 -1.2546  2.2022 -1.8602
  128MOL0     H17216   2.758   7.645   1.814 -2.6616  0.4100 -0.7384
  128MOL0     H17217   2.629   7.907   1.723 -1.5613  0.3562  1.9406
  128MOL0     H17218   2.663   7.765   1.622 -0.6478 -0.9971  0.3253
  128MOL0     H17219   2.547   7.633   1.787 -2.0208 -0.4845 -1.1684
  128MOL0     H17220   2.531   7.777   1.899 -1.3149 -1.3597  0.1082
  128MOL0     H17221   2.400   7.892   1.718  0.6379  0.2368 -4.0625
  128MOL0     H17222   2.420   7.757   1.614  1.6868  0.5731  0.7835
  128MOL0     H17223   2.289   7.611   1.756 -1.5295 -1.3530  3.8134
  128MOL0     H17224   2.291   7.736   1.887 -0.6393  2.0514 -0.2697
  128MOL0     H17225   2.158   7.875   1.712  3.9831  0.2871 -0.7230
  128MOL0     H17226   2.153   7.732   1.604  1.5856  0.8420 -0.3695
  128MOL0     H17227   2.038   7.609   1.785 -1.9848 -1.1888  0.1946
  128MOL0     H17228   2.022   7.760   1.881  0.0069  2.2202 -1.0182
  128MOL0     H17229   1.917   7.727   1.608  2.5089  0.6865  0.6073
  128MOL0     H17230   1.912   7.883   1.697 -1.7327 -0.0527 -0.1223
  128MOL0     H17231   1.698   7.945   1.800  2.4626 -0.1971  1.4896
  128MOL0     H17232   1.432   7.761   2.020  1.2098  0.9910  0.9346
  128MOL0     H17233   1.503   7.923   1.984  0.4145 -0.4111  1.3840
  128MOL0     H17234   1.386   7.768   1.755  2.5954  0.7832 -0.3522
  128MOL0     H17235   1.414   7.939   1.771 -0.6217  0.6130  1.2551
  128MOL0     H17236   1.234   7.961   1.940 -2.1392  0.2411 -0.5186
  128MOL0     H17237   1.198   7.795   1.954 -0.8109 -1.7042 -0.0771
  128MOL0     H17238   1.124   7.780   1.712 -2.3709 -0.7040  1.8962
  128MOL0     H17239   1.190   7.941   1.679 -1.1645  0.9150 -1.0053
  128MOL0     H17240   1.001   7.841   1.544  0.3794 -1.8503  3.3944
  128MOL0     H17241   0.916   7.768   1.343 -0.2174  0.9501 -0.8154
  128MOL0     H17242   0.748   7.713   1.382 -0.0759  0.5506  3.8069
  128MOL0     H17243   0.795   7.868   1.287  3.1008  0.6169 -0.1937
  128MOL0     H17244   0.284   8.218   1.566 -0.6007 -0.6091  0.8702
  128MOL0     H17245   0.048   8.242   1.492  2.9386  1.8875  0.8036
  128MOL0     H17246  -0.160   8.053   1.501  1.9949  1.3727 -0.2085
  128MOL0     H17247  -0.186   8.202   1.413  2.2377  0.2917 -0.3165
  128MOL0     H17248  -0.393   8.087   1.387 -0.3121  0.6622  1.0738
  128MOL0     H17249  -0.308   8.078   1.240  2.0608  1.5282  0.7667
  128MOL0     H17250  -0.222   7.840   1.310  0.5270  0.1506 -1.6506
  128MOL0     H17251  -0.391   7.855   1.265 -1.0636  0.6340  0.8748
  128MOL0     H17252  -0.328   7.722   1.466  3.2173  0.7071  0.4198
  128MOL0     H17253  -0.339   7.862   1.565  1.9242 -0.5170 -1.1271
  128MOL0     H17254  -0.572   7.917   1.462  2.0521  0.1570 -0.0167
  128MOL0     H17255  -0.554   7.781   1.570 -1.3570  1.3668  0.6138
  128MOL0     H17256  -0.573   7.743   1.274  0.6661  2.8623  0.3217
  128MOL0     H17257  -0.560   7.616   1.395 -1.9155 -0.7574 -1.2446
  128MOL0     H17258  -0.779   7.833   1.386 -2.0131 -0.2773  1.0818
  128MOL0     H17259  -0.783   7.702   1.495 -1.1199  1.1483 -0.6907
  128MOL0     H17260  -0.789   7.524   1.322 -1.4099 -0.7080 -0.7220
  128MOL0     H17261  -0.812   7.654   1.200  0.5461 -0.2946  0.0958
  128MOL0     H17262   0.095   7.886   1.257  0.2601 -0.3547  0.9241
  128MOL0     H17263   0.305   7.845   1.349  2.2319  1.1611 -1.4913
  128MOL0     H17264   0.598   8.067   1.714 -1.5928 -2.1363  1.2828
  128MOL0     H17265   0.793   8.040   1.854  4.7361  0.4372 -0.3284
  128MOL0     H17266   2.907   7.867   2.140 -0.4657  0.6177  1.0171
  128MOL0     H17267   3.122   8.000   2.197 -0.6441  1.8587 -0.4458
  128MOL0     H17268   3.420   8.292   2.110 -0.0715  0.3803  0.9932
  128MOL0     H17269   3.647   8.416   2.173 -3.5688  0.0789  1.4786
  128MOL0     H17270   4.034   8.208   2.186 -1.4544 -2.2970 -1.2400
  128MOL0     H17271   4.001   8.238   2.020 -1.8803  0.3737 -0.2940
  128MOL0     H17272   4.097   8.453   2.214  1.5329 -0.9170  0.5811
  128MOL0     H17273   4.076   8.488   2.044  0.1816  0.5680  0.1419
  128MOL0     H17274   4.310   8.438   2.069 -1.3978 -0.9815 -2.6817
  128MOL0     H17275   4.243   8.271   2.028 -1.7053  0.5193 -1.3151
  128MOL0     H17276   4.250   8.202   2.252 -1.9288  0.3031 -1.8892
  128MOL0     H17277   4.306   8.352   2.306  0.4693  1.4589 -0.7030
  128MOL0     H17278   4.664   8.186   2.164  0.2083 -0.7726  2.3779
  128MOL0     H17279   3.873   8.089   2.071  0.6483  0.8844 -1.8083
  128MOL0     H17280   3.655   7.945   2.057 -0.5735  0.7625  0.9116
  129MOL0     O17281   5.844   4.423   2.645  0.0341  0.0125 -0.2762
  129MOL0     C17282   5.899   4.529   2.677 -0.1607 -0.3545 -0.4619
  129MOL0     O17283   5.840   4.656   2.662 -0.7833 -0.7532 -0.5536
  129MOL0     C17284   5.711   4.659   2.618  0.7372 -0.1617  0.0156
  129MOL0     C17285   5.611   4.719   2.700  0.4494 -0.0737  0.0672
  129MOL0     C17286   5.483   4.740   2.642  0.7081 -0.2092  0.4461
  129MOL0     C17287   5.463   4.721   2.502  1.0125  0.5016 -0.3851
  129MOL0     O17288   5.347   4.733   2.431 -0.7310 -0.1628 -0.9251
  129MOL0     C17289   5.234   4.797   2.496 -0.9353 -0.7812  0.5541
  129MOL0     C17290   5.140   4.815   2.377  0.4144 -0.6473  1.0292
  129MOL0     C17291   5.057   4.695   2.357 -0.3571  0.0713  0.4029
  129MOL0     C17292   4.958   4.725   2.240 -0.4398 -0.0015  0.4063
  129MOL0     C17293   4.824   4.796   2.283 -0.3745  0.8092 -0.0784
  129MOL0     C17294   4.734   4.700   2.371 -0.8731 -0.6194  0.7995
  129MOL0     C17295   4.592   4.721   2.349 -0.9047  0.3572  0.4892
  129MOL0     C17296   4.523   4.627   2.449  0.2791  0.9218 -0.0908
  129MOL0     N17297   4.384   4.607   2.405  0.3389  0.3337 -0.4425
  129MOL0     C17298   4.336   4.503   2.327 -0.2093  0.1517 -0.0972
  129MOL0     C17299   4.211   4.545   2.299 -0.8001 -0.2124 -0.9432
  129MOL0     C17300   4.116   4.489   2.200 -0.1391 -0.1688 -0.7351
  129MOL0     C17301   4.085   4.585   2.080  0.1502 -0.0555 -0.0686
  129MOL0     C17302   4.051   4.510   1.953  1.1239 -0.3150  0.5793
  129MOL0     C17303   3.961   4.388   1.967 -0.3689 -0.3802 -0.4487
  129MOL0     O17304   3.827   4.441   1.991 -0.1036 -0.3544  0.2069
  129MOL0     C17305   3.710   4.388   1.932 -0.0890  0.4045  0.3701
  129MOL0     C17306   3.595   4.444   1.989 -0.7674 -1.1855  0.2935
  129MOL0     C17307   3.470   4.396   1.952 -0.1944 -0.4985  0.0978
  129MOL0     C17308   3.354   4.474   2.006 -0.6146 -0.9007 -0.4804
  129MOL0     C17309   3.453   4.290   1.865 -0.8301  0.0283 -0.5494
  129MOL0     C17310   3.320   4.231   1.831 -0.1830  0.0318 -0.4957
  129MOL0     O17311   3.301   4.142   1.726  0.2193 -0.4423 -0.6304
  129MOL0     C17312   3.172   4.119   1.682  0.1244  0.5416 -0.1741
  129MOL0     C17313   3.152   3.999   1.610  0.4646  0.6865 -0.1637
  129MOL0     C17314   3.031   3.962   1.556 -0.0678 -0.4795 -0.4998
  129MOL0     C17315   2.923   4.046   1.566  0.3817  0.6003 -0.0638
  129MOL0     O17316   2.797   4.026   1.506 -0.1556  0.9182 -0.0937
  129MOL0     C17317   2.757   3.885   1.492  0.6709 -0.6746  0.1036
  129MOL0     C17318   2.615   3.892   1.425 -0.3882 -1.3756 -0.0842
  129MOL0     C17319   2.593   3.761   1.351  0.3386 -0.4744  0.3368
  129MOL0     C17320   2.447   3.758   1.301  0.3226  0.0646  0.8432
  129MOL0     C17321   2.427   3.685   1.163  0.8066  0.9461 -0.1841
  129MOL0     C17322   2.280   3.636   1.142 -0.2033 -0.4027  0.3962
  129MOL0     C17323   2.263   3.551   1.016 -0.7499 -0.0402  0.8198
  129MOL0     C17324   2.247   3.635   0.888 -0.3003  0.1571  0.7913
  129MOL0    Cl17325   2.087   3.717   0.927 -0.4875 -0.4464  0.5376
  129MOL0     C17326   2.941   4.176   1.610 -0.7739 -0.6108 -0.7641
  129MOL0     C17327   3.066   4.212   1.675  0.1078  0.8807 -0.7864
  129MOL0     O17328   3.230   4.256   1.911 -0.1286 -0.1664  0.2388
  129MOL0     C17329   3.571   4.235   1.814 -0.2199  0.4379  0.5470
  129MOL0     C17330   3.705   4.283   1.839 -0.0437  0.9126  0.6660
  129MOL0     N17331   4.176   4.660   2.375 -0.0821 -0.6019 -0.0739
  129MOL0     N17332   4.291   4.694   2.432 -0.0191  0.4471 -0.5843
  129MOL0     C17333   5.562   4.659   2.421 -1.0610 -0.2942 -0.1494
  129MOL0     C17334   5.685   4.628   2.487  0.3656 -0.9900 -0.6586
  129MOL0     C17335   6.041   4.520   2.722  0.2491  0.2070 -0.9394
  129MOL0     C17336   6.107   4.398   2.748 -1.0537  0.3196  0.3182
  129MOL0     C17337   6.248   4.396   2.772  0.6148 -0.4892  0.3514
  129MOL0     C17338   6.318   4.515   2.766  0.0515 -0.6938 -1.2911
  129MOL0     O17339   6.453   4.523   2.791  0.2831 -0.1219  0.6405
  129MOL0     C17340   6.526   4.482   2.677  0.2860 -0.1394  0.8615
  129MOL0     C17341   6.658   4.564   2.665 -0.3689 -0.4203 -0.0935
  129MOL0     C17342   6.727   4.542   2.528 -0.4900 -0.0896  0.0581
  129MOL0     C17343   6.819   4.656   2.490 -0.2324 -0.3687  0.6419
  129MOL0     C17344   6.879   4.628   2.363  0.0487 -0.2665  0.3031
  129MOL0     C17345   6.940   4.606   2.260  0.0161 -0.0901  0.3743
  129MOL0     C17346   6.255   4.638   2.733 -0.0027 -0.0169 -0.5200
  129MOL0     C17347   6.124   4.636   2.711  0.2925  0.0939 -0.3100
  129MOL0     H17348   5.646   4.732   2.802  1.9018 -3.1916  0.0777
  129MOL0     H17349   5.405   4.773   2.709 -0.5711 -0.2830 -0.9481
  129MOL0     H17350   5.190   4.742   2.579 -2.7900  0.3598  0.3795
  129MOL0     H17351   5.274   4.895   2.524 -0.2816 -0.0751 -2.4188
  129MOL0     H17352   5.086   4.910   2.382 -0.4733 -0.8901 -1.8449
  129MOL0     H17353   5.195   4.845   2.287 -0.5919  1.1774  0.9759
  129MOL0     H17354   5.123   4.613   2.326  1.7141  1.5179  0.8224
  129MOL0     H17355   5.010   4.660   2.449 -1.2408 -1.8931 -0.7263
  129MOL0     H17356   5.005   4.781   2.158 -1.3735 -2.0809 -1.6465
  129MOL0     H17357   4.941   4.629   2.190  2.2466 -0.2632 -0.1540
  129MOL0     H17358   4.849   4.883   2.344 -1.1281  1.0260 -0.0573
  129MOL0     H17359   4.772   4.823   2.190 -1.1248 -0.5946 -0.1066
  129MOL0     H17360   4.754   4.597   2.341 -3.5105 -1.1228  0.5245
  129MOL0     H17361   4.766   4.719   2.474 -3.1099  0.7573  1.3108
  129MOL0     H17362   4.548   4.819   2.369 -0.1966  0.8092 -0.1072
  129MOL0     H17363   4.573   4.688   2.246 -2.5698 -2.4800  1.5769
  129MOL0     H17364   4.524   4.656   2.554  0.0337  0.3468  0.0738
  129MOL0     H17365   4.573   4.531   2.437 -0.4302  0.7244 -1.8558
  129MOL0     H17366   4.381   4.411   2.291 -4.9590 -2.0605 -1.1617
  129MOL0     H17367   4.153   4.396   2.155  0.3292 -0.3881  0.0908
  129MOL0     H17368   4.026   4.454   2.250  1.7692 -0.8641  2.5175
  129MOL0     H17369   4.170   4.650   2.058  0.6510 -1.2298 -1.8567
  129MOL0     H17370   3.996   4.638   2.112  0.0400 -0.7624  0.8524
  129MOL0     H17371   4.142   4.467   1.910  1.0147 -1.5926  1.5703
  129MOL0     H17372   3.997   4.580   1.889  1.7426 -0.6249 -0.3041
  129MOL0     H17373   3.983   4.311   2.042  1.1722 -0.7435 -1.2393
  129MOL0     H17374   3.958   4.329   1.875  1.8181 -0.7806 -0.3187
  129MOL0     H17375   3.611   4.523   2.063 -0.4349  0.9903 -1.9667
  129MOL0     H17376   3.390   4.567   2.051 -0.3284 -0.6125 -1.2949
  129MOL0     H17377   3.278   4.496   1.930 -0.3774 -3.1834 -1.4601
  129MOL0     H17378   3.319   4.413   2.091  1.8375 -1.0617  0.5042
  129MOL0     H17379   3.232   3.929   1.592  0.0540  0.8256 -3.1257
  129MOL0     H17380   3.029   3.863   1.511 -0.6695 -0.1672 -1.1851
  129MOL0     H17381   2.829   3.833   1.429  0.9238 -0.3913  0.1533
  129MOL0     H17382   2.755   3.829   1.586 -3.1250 -0.0223  0.5880
  129MOL0     H17383   2.546   3.897   1.509 -0.4854 -3.9334  0.0591
  129MOL0     H17384   2.612   3.981   1.360 -1.3177 -0.8740  0.6136
  129MOL0     H17385   2.629   3.682   1.416 -1.2211 -1.7657 -0.2929
  129MOL0     H17386   2.651   3.771   1.259  1.5641  1.3409  1.2576
  129MOL0     H17387   2.399   3.699   1.380 -1.7699  0.6270  0.0632
  129MOL0     H17388   2.406   3.860   1.296 -4.2967 -1.5618  0.4755
  129MOL0     H17389   2.486   3.593   1.155 -1.7241 -0.6824 -1.0489
  129MOL0     H17390   2.465   3.744   1.079  1.9899  0.2339 -0.1735
  129MOL0     H17391   2.243   3.563   1.214  1.3465 -0.1028  1.5456
  129MOL0     H17392   2.214   3.723   1.151 -2.5460 -1.8156 -1.5900
  129MOL0     H17393   2.180   3.483   1.036 -0.7990  0.4221  2.2836
  129MOL0     H17394   2.358   3.498   0.999  0.2159  1.8258  0.1556
  129MOL0     H17395   2.233   3.561   0.809 -3.9822  0.5272  0.9173
  129MOL0     H17396   2.334   3.700   0.882  0.8148 -1.3580 -0.0529
  129MOL0     H17397   2.854   4.240   1.605  0.2953  0.9568  0.0971
  129MOL0     H17398   3.090   4.304   1.726  0.2304  1.0788 -1.1978
  129MOL0     H17399   3.562   4.144   1.755 -0.8203  0.7214  0.1840
  129MOL0     H17400   3.797   4.232   1.813  0.1417  0.5993  1.8974
  129MOL0     H17401   5.540   4.643   2.316  0.9668 -0.0941 -0.6553
  129MOL0     H17402   5.762   4.582   2.427  0.2963  1.0015 -2.3712
  129MOL0     H17403   6.051   4.305   2.756  0.3414 -0.5955 -0.2231
  129MOL0     H17404   6.313   4.312   2.792  2.3166  1.3037  2.8417
  129MOL0     H17405   6.548   4.375   2.690 -3.1348 -1.1983 -0.9253
  129MOL0     H17406   6.465   4.506   2.589  0.2700  0.8834  1.1361
  129MOL0     H17407   6.726   4.533   2.745 -1.9623  0.2955  1.6353
  129MOL0     H17408   6.635   4.671   2.673  0.7865 -0.1831  0.2536
  129MOL0     H17409   6.650   4.527   2.451  0.5628  0.7513 -1.2034
  129MOL0     H17410   6.789   4.452   2.539 -0.2243 -0.1465 -1.5980
  129MOL0     H17411   6.898   4.661   2.565 -0.6517 -2.2629  1.2432
  129MOL0     H17412   6.771   4.754   2.477 -0.9809 -0.9534 -1.6275
  129MOL0     H17413   6.984   4.573   2.168  0.3393  2.1364 -0.3238
  129MOL0     H17414   6.312   4.729   2.720  0.1584  0.0798  0.7303
  129MOL0     H17415   6.077   4.730   2.682 -0.1972 -0.1103 -0.1879
  130MOL0     O17416   7.342  11.059   6.817  0.1668 -0.3222 -0.3227
  130MOL0     C17417   7.381  11.133   6.725 -0.7881  0.8482 -0.1495
  130MOL0     O17418   7.300  11.204   6.641 -0.9067 -0.3257 -0.0186
  130MOL0     C17419   7.168  11.205   6.660  0.3080  0.3397 -0.9476
  130MOL0     C17420   7.085  11.169   6.768  0.1559 -0.1275  0.3615
  130MOL0     C17421   6.949  11.142   6.758  0.2530 -0.0417 -0.1634
  130MOL0     C17422   6.879  11.184   6.646  0.4250  0.2398  0.1938
  130MOL0     O17423   6.743  11.187   6.640 -0.5220  0.6623 -0.3556
  130MOL0     C17424   6.689  11.247   6.758  0.1913 -0.1519 -0.1091
  130MOL0     C17425   6.559  11.314   6.712  0.0162 -0.5649 -0.6501
  130MOL0     C17426   6.594  11.426   6.616  0.3894  0.1582 -0.3794
  130MOL0     C17427   6.470  11.512   6.578  0.0349 -0.1655 -0.5891
  130MOL0     C17428   6.497  11.586   6.440  0.9135  0.5596 -0.5538
  130MOL0     C17429   6.598  11.703   6.467 -0.5032 -0.1606  0.1308
  130MOL0     C17430   6.608  11.817   6.357  0.9574  0.3321  0.4594
  130MOL0     C17431   6.664  11.954   6.406 -0.6385  0.7496 -0.3471
  130MOL0     N17432   6.579  12.013   6.508 -0.0878 -0.2248  0.3953
  130MOL0     C17433   6.471  12.087   6.486  0.0364 -0.5046  0.3624
  130MOL0     C17434   6.419  12.103   6.607  0.6522 -0.9913 -0.6066
  130MOL0     C17435   6.291  12.177   6.638 -0.3218  0.2619 -0.6312
  130MOL0     C17436   6.182  12.076   6.695  0.7001  0.5862  0.2910
  130MOL0     C17437   6.152  11.949   6.614 -0.0256 -0.3430 -0.0588
  130MOL0     C17438   6.017  11.971   6.534 -0.4193  0.2581  0.3397
  130MOL0     O17439   6.013  12.107   6.480 -0.4967  1.0239  0.7436
  130MOL0     C17440   5.896  12.157   6.428 -0.1399  0.2388  0.0149
  130MOL0     C17441   5.765  12.119   6.462 -0.2963 -0.8075 -0.5175
  130MOL0     C17442   5.642  12.166   6.397  0.0373  0.7061 -0.0574
  130MOL0     C17443   5.503  12.116   6.441  0.1572  0.9906  0.2118
  130MOL0     C17444   5.667  12.275   6.304  0.6162 -0.0935  0.6491
  130MOL0     C17445   5.556  12.352   6.233 -0.9583  0.1496  0.1946
  130MOL0     O17446   5.438  12.346   6.297 -0.1110  0.5599  1.0058
  130MOL0     C17447   5.317  12.410   6.265  0.1140  0.1097 -0.1882
  130MOL0     C17448   5.215  12.410   6.361  0.8126 -0.8874 -0.0297
  130MOL0     C17449   5.086  12.465   6.335 -0.1518  0.4303  0.0276
  130MOL0     C17450   5.063  12.532   6.212  0.0587  0.0970 -0.2108
  130MOL0     O17451   4.937  12.588   6.191 -0.1118  0.5151  0.9270
  130MOL0     C17452   4.918  12.656   6.070  0.9630 -0.0928  1.0216
  130MOL0     C17453   4.777  12.705   6.071  0.6387 -0.4022 -0.2510
  130MOL0     C17454   4.742  12.821   6.161 -0.0050 -0.1881  0.3122
  130MOL0     C17455   4.598  12.852   6.156 -0.4678  0.6543 -0.3357
  130MOL0     C17456   4.560  12.948   6.265  0.3331 -0.0747  0.7085
  130MOL0     C17457   4.413  12.962   6.302 -0.4695  0.6153  1.3753
  130MOL0     C17458   4.331  12.998   6.184  0.6340 -0.3777  0.5964
  130MOL0     C17459   4.211  13.087   6.231  0.0092  0.4925  0.8971
  130MOL0    Cl17460   4.134  13.153   6.086 -0.1664  0.4996  0.3794
  130MOL0     C17461   5.170  12.527   6.117  0.7323  1.2096  0.0670
  130MOL0     C17462   5.291  12.464   6.138  0.3182  0.7228  0.1583
  130MOL0     O17463   5.593  12.425   6.138  0.0867  0.8649 -0.2860
  130MOL0     C17464   5.798  12.308   6.265 -0.5486 -0.3814 -0.4462
  130MOL0     C17465   5.909  12.250   6.325  0.4701  0.6439  0.8538
  130MOL0     N17466   6.510  12.061   6.697 -0.4093  0.2570 -0.4361
  130MOL0     N17467   6.612  12.012   6.640 -0.1609  0.3070 -0.2779
  130MOL0     C17468   6.952  11.226   6.538 -0.2138 -0.0130  0.2942
  130MOL0     C17469   7.097  11.229   6.548  0.5566 -0.0443 -0.0842
  130MOL0     C17470   7.519  11.154   6.702 -0.4337 -0.1535  0.3359
  130MOL0     C17471   7.562  11.250   6.597  0.4587 -0.0851  0.0974
  130MOL0     C17472   7.704  11.270   6.574  0.8521  0.3227  0.7871
  130MOL0     C17473   7.801  11.194   6.635 -0.4367  0.0246 -1.0131
  130MOL0     O17474   7.937  11.200   6.609  0.6114  0.7636 -0.1528
  130MOL0     C17475   7.963  11.242   6.473 -0.0171 -0.2280 -0.1093
  130MOL0     C17476   8.097  11.175   6.447 -0.0516  0.2092  0.0974
  130MOL0     C17477   8.139  11.184   6.295 -1.1249  0.2457 -0.5931
  130MOL0     C17478   8.263  11.089   6.271  0.2726 -0.3165  0.2269
  130MOL0     C17479   8.385  11.151   6.342 -0.1969 -0.4001 -1.2158
  130MOL0     C17480   8.490  11.199   6.389 -0.3831  0.0556 -0.7214
  130MOL0     C17481   7.757  11.097   6.735  0.7713 -0.0011 -0.8102
  130MOL0     C17482   7.624  11.081   6.762  0.3026 -0.0669  0.8444
  130MOL0     H17483   7.133  11.140   6.861  0.5518 -0.5379  0.0277
  130MOL0     H17484   6.894  11.111   6.846 -0.1272 -1.6333 -0.9281
  130MOL0     H17485   6.669  11.178   6.841  1.7830  0.1189  0.5503
  130MOL0     H17486   6.756  11.324   6.799  1.5057 -1.1285 -0.3614
  130MOL0     H17487   6.503  11.242   6.652  0.6191 -1.8112  0.2417
  130MOL0     H17488   6.499  11.354   6.795 -0.0453  0.3915 -1.1350
  130MOL0     H17489   6.669  11.492   6.659 -1.1318  1.6556  0.0813
  130MOL0     H17490   6.630  11.373   6.528  0.3844 -1.4906  0.5633
  130MOL0     H17491   6.389  11.442   6.558 -0.6511  0.9111 -1.6932
  130MOL0     H17492   6.439  11.576   6.661 -3.5811 -0.2146 -1.7235
  130MOL0     H17493   6.527  11.512   6.365  2.0415 -0.3540  0.7444
  130MOL0     H17494   6.401  11.628   6.408 -0.5931 -1.0755  1.5751
  130MOL0     H17495   6.561  11.751   6.559 -0.0327 -2.0048  1.3497
  130MOL0     H17496   6.697  11.661   6.484 -0.2904  1.0813  2.2468
  130MOL0     H17497   6.677  11.780   6.281  0.3734  3.9267 -2.0498
  130MOL0     H17498   6.516  11.829   6.301  1.2678  0.5310 -0.0115
  130MOL0     H17499   6.672  12.034   6.332  0.0894  2.8301  1.8586
  130MOL0     H17500   6.768  11.943   6.438 -1.1372  1.0448  1.4409
  130MOL0     H17501   6.422  12.109   6.392  0.9494 -1.5970 -0.3944
  130MOL0     H17502   6.315  12.266   6.697 -1.0489  1.8079 -2.5743
  130MOL0     H17503   6.243  12.217   6.548  0.4898  0.1243 -1.1338
  130MOL0     H17504   6.096  12.143   6.705 -0.9302 -0.9934 -2.0455
  130MOL0     H17505   6.227  12.040   6.788 -1.2679  0.9156  1.4281
  130MOL0     H17506   6.120  11.869   6.681 -1.3072 -0.0104 -0.2489
  130MOL0     H17507   6.232  11.915   6.549 -0.7137 -2.8561  0.3084
  130MOL0     H17508   5.933  11.956   6.602  1.4093 -2.2321  2.2583
  130MOL0     H17509   6.008  11.897   6.455  1.8473  1.1151 -0.8344
  130MOL0     H17510   5.758  12.047   6.543 -1.3829 -0.2210 -0.0696
  130MOL0     H17511   5.521  12.029   6.505  0.1809  0.8327 -0.0055
  130MOL0     H17512   5.457  12.199   6.496 -1.2210  0.2879  0.1782
  130MOL0     H17513   5.439  12.088   6.356  1.8990 -0.2432 -0.7638
  130MOL0     H17514   5.221  12.375   6.463  0.1689  1.9956  1.1180
  130MOL0     H17515   5.009  12.472   6.411 -1.5230  0.2219 -1.2972
  130MOL0     H17516   4.993  12.735   6.059  1.7658 -0.8494  0.9151
  130MOL0     H17517   4.929  12.584   5.988 -2.2351 -1.5893  1.7667
  130MOL0     H17518   4.770  12.734   5.965  1.4409  0.3945 -0.0910
  130MOL0     H17519   4.710  12.620   6.086  0.6737 -0.1539  1.4137
  130MOL0     H17520   4.802  12.906   6.128 -0.8586 -0.8049 -3.2211
  130MOL0     H17521   4.775  12.803   6.264 -2.3903 -2.0403  0.8363
  130MOL0     H17522   4.580  12.892   6.056  0.7971  1.4010 -0.2838
  130MOL0     H17523   4.546  12.757   6.174 -0.1479  0.8192  1.6035
  130MOL0     H17524   4.604  13.038   6.222  1.6307 -0.3482  1.4097
  130MOL0     H17525   4.614  12.935   6.360  4.3086  2.9229 -0.8741
  130MOL0     H17526   4.383  12.861   6.331  0.4136  0.3887  1.5416
  130MOL0     H17527   4.413  13.042   6.377  0.3050  2.7679 -0.7735
  130MOL0     H17528   4.296  12.907   6.134  2.4963 -1.1998  0.7418
  130MOL0     H17529   4.392  13.060   6.118  0.8668 -0.1406  1.0322
  130MOL0     H17530   4.245  13.167   6.296  1.0177  0.2628  0.6616
  130MOL0     H17531   4.141  13.026   6.289 -1.3782  1.5345  0.3716
  130MOL0     H17532   5.161  12.551   6.011  3.8895 -1.5019 -1.0085
  130MOL0     H17533   5.372  12.462   6.065  1.0289  1.8538  0.8895
  130MOL0     H17534   5.814  12.375   6.182 -2.0602  0.3948 -0.1611
  130MOL0     H17535   6.007  12.271   6.285  0.6921 -0.0018  1.0493
  130MOL0     H17536   6.896  11.249   6.447 -2.3405 -2.0554  0.9961
  130MOL0     H17537   7.140  11.259   6.453  0.3893  3.9239  0.9473
  130MOL0     H17538   7.494  11.310   6.538 -0.8305 -0.5100  1.1123
  130MOL0     H17539   7.727  11.348   6.502  4.2178  1.1446  2.5503
  130MOL0     H17540   7.891  11.190   6.409  0.7967 -0.9386 -0.4844
  130MOL0     H17541   7.966  11.351   6.466  4.7970  0.0508  2.2274
  130MOL0     H17542   8.090  11.068   6.471  0.0867 -0.7524 -3.5030
  130MOL0     H17543   8.177  11.225   6.503 -0.4077  0.1946  0.6284
  130MOL0     H17544   8.156  11.291   6.278 -1.4421  0.3631 -0.1874
  130MOL0     H17545   8.057  11.149   6.232 -0.9493 -1.4550  0.0786
  130MOL0     H17546   8.294  11.071   6.168  0.9258 -2.0563  0.6967
  130MOL0     H17547   8.234  10.993   6.316 -1.4100  0.0552 -0.0267
  130MOL0     H17548   8.584  11.244   6.415 -0.7355  0.4184 -0.0365
  130MOL0     H17549   7.827  11.034   6.788  1.4650  1.4644  0.0796
  130MOL0     H17550   7.588  11.012   6.839  1.7869  1.9782  3.5488
  131MOL0     O17551   0.828   4.336   0.878 -0.5319  0.0147 -0.1601
  131MOL0     C17552   0.739   4.272   0.821  0.6453 -0.1515  0.0533
  131MOL0     O17553   0.752   4.158   0.751 -0.1379 -0.0073 -1.2224
  131MOL0     C17554   0.874   4.133   0.694 -0.2312 -0.4065  0.5022
  131MOL0     C17555   0.956   4.238   0.646 -0.4374 -0.1989  0.0213
  131MOL0     C17556   1.080   4.208   0.593  0.1754  0.4609 -0.1957
  131MOL0     C17557   1.125   4.077   0.580 -0.7497 -1.0696  0.3914
  131MOL0     O17558   1.255   4.047   0.544  0.3075 -0.7098  0.2941
  131MOL0     C17559   1.331   4.144   0.472 -0.3215 -0.4326 -0.1930
  131MOL0     C17560   1.434   4.074   0.388  0.5057  0.8475 -0.0373
  131MOL0     C17561   1.499   4.171   0.289  0.1955  0.1313 -0.0186
  131MOL0     C17562   1.588   4.269   0.361  0.0811  0.4061  0.2920
  131MOL0     C17563   1.678   4.344   0.262  0.5278  0.7626 -0.0911
  131MOL0     C17564   1.781   4.436   0.341  0.3498  0.2568  0.6097
  131MOL0     C17565   1.871   4.522   0.254  0.3210  1.3700 -0.3717
  131MOL0     C17566   2.005   4.449   0.234 -0.4511  0.1786  0.3491
  131MOL0     N17567   2.097   4.522   0.151 -0.0365  0.3399 -0.4102
  131MOL0     C17568   2.134   4.483   0.032 -0.1711 -0.0809 -0.3066
  131MOL0     C17569   2.231   4.573  -0.004  0.9901  0.6497 -0.1545
  131MOL0     C17570   2.306   4.573  -0.134 -0.8364  0.4543  0.2403
  131MOL0     C17571   2.271   4.706  -0.202 -0.1922  0.0407  0.2497
  131MOL0     C17572   2.133   4.700  -0.249  0.0345 -0.1928  0.4235
  131MOL0     C17573   2.122   4.653  -0.393  0.1502  0.0930 -1.1801
  131MOL0     O17574   1.991   4.664  -0.439 -0.4417  0.7350  0.4998
  131MOL0     C17575   1.889   4.606  -0.358 -0.1614 -0.2692  0.2357
  131MOL0     C17576   1.905   4.466  -0.327 -0.3878  1.0034  0.2223
  131MOL0     C17577   1.811   4.414  -0.233 -0.9340  0.4375 -1.0510
  131MOL0     C17578   1.829   4.266  -0.215 -0.3920  1.0057 -0.1062
  131MOL0     C17579   1.711   4.500  -0.177  0.5638  0.2022  0.3280
  131MOL0     C17580   1.602   4.447  -0.083 -0.5843  0.5970  0.5007
  131MOL0     O17581   1.486   4.518  -0.077  0.5483 -0.1668  0.5487
  131MOL0     C17582   1.375   4.457  -0.019  0.0782 -0.4419  0.1484
  131MOL0     C17583   1.293   4.362  -0.082  0.8952  0.7418 -0.1668
  131MOL0     C17584   1.192   4.298  -0.017  0.7486  0.6192 -0.7109
  131MOL0     C17585   1.161   4.334   0.113 -0.1400 -0.9626 -0.4343
  131MOL0     O17586   1.036   4.291   0.162 -0.5116  0.0859 -0.3189
  131MOL0     C17587   1.029   4.146   0.183  0.2942 -0.1310  0.3792
  131MOL0     C17588   0.916   4.091   0.275  0.7975  0.3153  0.7264
  131MOL0     C17589   0.775   4.081   0.220 -0.4031 -0.0475  0.1480
  131MOL0     C17590   0.681   3.998   0.314  0.6775 -0.2011 -0.3653
  131MOL0     C17591   0.560   3.942   0.234 -0.0454  0.1578 -0.0668
  131MOL0     C17592   0.476   4.040   0.155  1.1434 -0.5970 -0.5915
  131MOL0     C17593   0.340   3.986   0.127  0.0182  0.7910 -0.2517
  131MOL0     C17594   0.240   4.100   0.083  0.4561 -0.3696  0.6196
  131MOL0    Cl17595   0.127   4.006  -0.019  0.0180 -0.0867  0.5727
  131MOL0     C17596   1.235   4.435   0.182 -1.2237 -1.0173  0.5838
  131MOL0     C17597   1.343   4.489   0.116 -0.9159  0.5414 -0.1484
  131MOL0     O17598   1.617   4.336  -0.032  0.3876 -0.6258 -1.0190
  131MOL0     C17599   1.695   4.630  -0.220 -0.2893 -0.0170  0.9344
  131MOL0     C17600   1.797   4.689  -0.295 -0.6204  0.2141 -0.3261
  131MOL0     N17601   2.262   4.654   0.104  0.8716  0.0813 -0.3253
  131MOL0     N17602   2.172   4.626   0.196  0.3695 -0.1120  0.2484
  131MOL0     C17603   1.035   3.975   0.601 -0.6071  0.7922 -0.0859
  131MOL0     C17604   0.912   4.005   0.665 -0.5338  0.2148  0.2773
  131MOL0     C17605   0.603   4.311   0.833  0.7890 -0.4482  1.0136
  131MOL0     C17606   0.492   4.225   0.819 -0.0994 -0.0100  0.4784
  131MOL0     C17607   0.359   4.271   0.817  0.1040  1.2810 -0.6992
  131MOL0     C17608   0.331   4.402   0.840 -0.7278  0.0665 -0.2963
  131MOL0     O17609   0.200   4.441   0.858  0.0960  0.4026  0.3123
  131MOL0     C17610   0.171   4.583   0.886  0.3602 -0.7226  0.0430
  131MOL0     C17611   0.027   4.591   0.898  0.5937  0.4495  0.8787
  131MOL0     C17612  -0.054   4.567   0.760  0.1011  0.1777 -0.9714
  131MOL0     C17613  -0.208   4.580   0.772  0.4158  1.3034 -0.3039
  131MOL0     C17614  -0.251   4.716   0.800  0.4025 -0.0232  0.0050
  131MOL0     C17615  -0.267   4.828   0.837 -0.0214  0.1339 -0.2915
  131MOL0     C17616   0.445   4.492   0.864 -0.5897  0.3038  0.0237
  131MOL0     C17617   0.576   4.447   0.862  0.1904  0.8431  0.6904
  131MOL0     H17618   0.944   4.344   0.662  0.7076 -0.1038  0.3276
  131MOL0     H17619   1.139   4.297   0.570  0.4989  1.2215  3.0698
  131MOL0     H17620   1.266   4.203   0.406  3.5306 -0.8451 -4.9345
  131MOL0     H17621   1.380   4.207   0.547  0.2847 -2.0432  0.8094
  131MOL0     H17622   1.503   4.029   0.460 -0.7281 -0.9133  0.1341
  131MOL0     H17623   1.396   3.989   0.330  1.3419  2.1897 -2.7122
  131MOL0     H17624   1.561   4.123   0.212  0.0043 -1.1222  0.5816
  131MOL0     H17625   1.419   4.216   0.230  0.6759 -0.7095 -1.3781
  131MOL0     H17626   1.525   4.335   0.421  1.8945  1.1242  1.4992
  131MOL0     H17627   1.650   4.206   0.426 -0.5272 -1.1482 -0.5737
  131MOL0     H17628   1.735   4.267   0.209  1.1671  2.1264 -1.4740
  131MOL0     H17629   1.621   4.411   0.197 -2.3004 -0.5719  0.8596
  131MOL0     H17630   1.721   4.509   0.397 -0.7576  0.9289 -1.3321
  131MOL0     H17631   1.841   4.381   0.414 -0.3834 -1.0488  0.2522
  131MOL0     H17632   1.832   4.543   0.154 -0.9091 -0.2321 -0.2548
  131MOL0     H17633   1.894   4.619   0.300  2.4182  0.3242  0.9706
  131MOL0     H17634   1.988   4.357   0.177 -2.7269  0.5545  0.3269
  131MOL0     H17635   2.054   4.422   0.327  1.8606  1.5242 -0.4054
  131MOL0     H17636   2.100   4.400  -0.028  2.8777  0.4109 -2.9646
  131MOL0     H17637   2.411   4.591  -0.109 -0.5679  2.2479 -1.9207
  131MOL0     H17638   2.287   4.478  -0.185  2.6996 -0.7784  0.9204
  131MOL0     H17639   2.345   4.734  -0.278 -1.8019  2.4516 -0.5500
  131MOL0     H17640   2.276   4.791  -0.133  2.7257  0.4262 -0.3098
  131MOL0     H17641   2.087   4.799  -0.250 -3.3654 -1.6225 -1.5639
  131MOL0     H17642   2.069   4.650  -0.175 -1.9905  1.6249  0.0084
  131MOL0     H17643   2.149   4.547  -0.401  3.9339  0.5740  2.0528
  131MOL0     H17644   2.202   4.699  -0.452  3.0005 -2.4659  0.3771
  131MOL0     H17645   1.974   4.400  -0.378 -1.3524 -0.2750  0.5162
  131MOL0     H17646   1.877   4.256  -0.117  1.5815  1.4077 -0.9624
  131MOL0     H17647   1.732   4.217  -0.215 -0.1899  0.4831  2.6351
  131MOL0     H17648   1.891   4.226  -0.295  0.0312  1.7740 -0.1777
  131MOL0     H17649   1.302   4.338  -0.188  3.6608  0.3899  0.0741
  131MOL0     H17650   1.134   4.223  -0.070  3.4355 -0.6032 -2.1087
  131MOL0     H17651   0.995   4.099   0.090 -0.8232 -1.0259  1.2190
  131MOL0     H17652   1.130   4.118   0.217 -0.5161 -0.9836  2.2259
  131MOL0     H17653   0.954   3.993   0.303  1.4565  0.4707  0.4105
  131MOL0     H17654   0.906   4.159   0.361 -1.4670 -0.3160  1.0233
  131MOL0     H17655   0.770   4.033   0.122 -0.5461  0.1134  0.0761
  131MOL0     H17656   0.732   4.182   0.215  0.6996  0.3882 -2.5067
  131MOL0     H17657   0.727   3.909   0.359  0.0271  0.2972  1.3408
  131MOL0     H17658   0.647   4.067   0.391  0.5765 -1.3543  0.6629
  131MOL0     H17659   0.497   3.883   0.301  0.7754 -5.4706 -3.5873
  131MOL0     H17660   0.585   3.865   0.161  1.5402  0.2612  0.3296
  131MOL0     H17661   0.457   4.129   0.216  2.3908 -0.3522 -0.5324
  131MOL0     H17662   0.524   4.081   0.065 -1.5977  3.4435 -0.4949
  131MOL0     H17663   0.292   3.938   0.213 -3.3186 -0.2683 -2.5136
  131MOL0     H17664   0.359   3.913   0.048  1.2242  0.9847 -0.1642
  131MOL0     H17665   0.289   4.188   0.040  1.4855 -0.2925  1.8653
  131MOL0     H17666   0.185   4.130   0.173  0.8670  2.0164  0.1437
  131MOL0     H17667   1.212   4.466   0.283  0.9397 -3.6803  1.9975
  131MOL0     H17668   1.408   4.560   0.166  0.3213 -0.7920  0.1956
  131MOL0     H17669   1.615   4.691  -0.180 -0.4306  1.7795 -1.8105
  131MOL0     H17670   1.797   4.798  -0.302 -0.2696  0.4273  2.0662
  131MOL0     H17671   1.063   3.871   0.591 -0.1367  0.9079 -0.0257
  131MOL0     H17672   0.847   3.921   0.688 -0.8211 -1.3259 -4.8893
  131MOL0     H17673   0.510   4.121   0.796  1.9586  0.3950  0.1007
  131MOL0     H17674   0.273   4.205   0.806 -1.6527  3.2305  0.5405
  131MOL0     H17675   0.214   4.613   0.983 -1.3323  1.4356  0.2127
  131MOL0     H17676   0.211   4.655   0.814 -0.1482 -0.5790 -0.0940
  131MOL0     H17677   0.001   4.691   0.932 -2.0206 -0.1840  0.9434
  131MOL0     H17678  -0.008   4.517   0.971  1.3199 -2.7990 -1.8373
  131MOL0     H17679  -0.035   4.466   0.725  1.2556  0.2883 -0.7278
  131MOL0     H17680  -0.010   4.634   0.685  2.3039  0.1378  0.1668
  131MOL0     H17681  -0.247   4.509   0.845 -0.6580  0.3859 -1.7271
  131MOL0     H17682  -0.256   4.547   0.680 -1.7818  0.4847  1.0564
  131MOL0     H17683  -0.273   4.932   0.861 -1.2740 -0.2919  1.4216
  131MOL0     H17684   0.420   4.597   0.872  1.2939  1.0413 -2.4435
  131MOL0     H17685   0.664   4.507   0.881  0.8373  0.1693 -0.0918
  132MOL0     O17686   6.646   1.491   5.846 -0.1055 -0.1622  0.4485
  132MOL0     C17687   6.637   1.390   5.778  0.4640 -0.1118 -0.5439
  132MOL0     O17688   6.514   1.330   5.753 -1.1523  0.2086  0.0808
  132MOL0     C17689   6.410   1.415   5.745 -0.9096 -0.6899  0.1098
  132MOL0     C17690   6.408   1.492   5.630  0.0971 -1.3327 -0.1502
  132MOL0     C17691   6.291   1.575   5.609 -0.5469  0.1967 -0.1728
  132MOL0     C17692   6.201   1.606   5.705  0.2718 -0.3265 -1.0793
  132MOL0     O17693   6.097   1.686   5.669  0.6343  0.1276  0.9789
  132MOL0     C17694   6.004   1.717   5.769  0.4656 -0.0278  0.5780
  132MOL0     C17695   5.906   1.597   5.794 -0.7191 -0.1270 -0.1253
  132MOL0     C17696   5.791   1.643   5.881  0.3292  0.5116 -0.1866
  132MOL0     C17697   5.690   1.722   5.804 -0.0767 -0.6372 -0.3922
  132MOL0     C17698   5.614   1.830   5.889  0.3365 -0.4458  0.4445
  132MOL0     C17699   5.698   1.956   5.894 -0.7346  0.0253  0.1604
  132MOL0     C17700   5.645   2.048   6.008 -0.9174  0.4178 -0.0016
  132MOL0     C17701   5.535   2.132   5.950 -0.2082  0.2884  0.4881
  132MOL0     N17702   5.480   2.230   6.053  0.4728  0.7735 -0.0356
  132MOL0     C17703   5.384   2.205   6.139  0.0810  0.1609  0.1228
  132MOL0     C17704   5.331   2.328   6.180 -0.0076  0.9582 -0.3980
  132MOL0     C17705   5.216   2.352   6.279  0.9879  0.2680  1.3050
  132MOL0     C17706   5.076   2.333   6.215  0.5228  0.3223 -0.6105
  132MOL0     C17707   5.054   2.440   6.106 -0.0540 -0.4311  0.6894
  132MOL0     C17708   4.902   2.449   6.068  0.2871  0.2532 -1.1126
  132MOL0     O17709   4.814   2.462   6.179 -0.5440 -0.2695 -0.2233
  132MOL0     C17710   4.679   2.411   6.185 -0.2445  0.2251  1.0190
  132MOL0     C17711   4.608   2.371   6.074  0.5845 -0.1643  0.6604
  132MOL0     C17712   4.481   2.317   6.090  0.3210  0.5214 -0.0858
  132MOL0     C17713   4.411   2.272   5.960 -0.0319  0.1164  0.2842
  132MOL0     C17714   4.414   2.295   6.212 -0.9282 -0.1638  0.0192
  132MOL0     C17715   4.287   2.230   6.226 -0.1962  1.0988  0.1421
  132MOL0     O17716   4.220   2.289   6.330  0.6568  0.8200  0.6662
  132MOL0     C17717   4.085   2.268   6.355  0.2658  0.4989 -0.4204
  132MOL0     C17718   4.011   2.142   6.333  0.4229 -0.9418  0.1808
  132MOL0     C17719   3.877   2.125   6.357 -0.3697 -0.7123  0.5115
  132MOL0     C17720   3.812   2.232   6.414 -0.5167 -0.1279  0.0221
  132MOL0     O17721   3.677   2.222   6.435  0.4481 -0.5089  0.0279
  132MOL0     C17722   3.593   2.210   6.323 -0.0736  0.2479  0.0158
  132MOL0     C17723   3.469   2.286   6.339  0.0516 -1.1480 -0.4975
  132MOL0     C17724   3.492   2.438   6.393 -0.2839  0.6651  0.5971
  132MOL0     C17725   3.349   2.494   6.395 -0.0124  0.5339 -1.0221
  132MOL0     C17726   3.356   2.639   6.409  0.1380  0.9569  0.4040
  132MOL0     C17727   3.207   2.693   6.427  0.0763  0.0272  0.1521
  132MOL0     C17728   3.209   2.846   6.416  0.6408 -0.5462 -0.0183
  132MOL0     C17729   3.075   2.908   6.455  0.8146  0.5626  0.5267
  132MOL0    Cl17730   2.938   2.869   6.353 -0.3633 -0.0130 -0.3863
  132MOL0     C17731   3.877   2.356   6.448  0.2726 -0.1103  0.7396
  132MOL0     C17732   4.008   2.367   6.423  0.0212 -0.4455  0.0228
  132MOL0     O17733   4.248   2.135   6.159 -0.0921  0.1351 -0.3765
  132MOL0     C17734   4.487   2.337   6.326  0.2940 -0.0083 -0.0643
  132MOL0     C17735   4.612   2.398   6.308 -0.3249  0.2576 -0.6634
  132MOL0     N17736   5.390   2.429   6.108 -0.6621 -0.0224 -0.9608
  132MOL0     N17737   5.484   2.367   6.044  0.4330 -0.5659  0.1031
  132MOL0     C17738   6.214   1.532   5.823 -1.0039 -0.9597  0.0925
  132MOL0     C17739   6.311   1.430   5.840 -0.5028  0.5381  0.2177
  132MOL0     C17740   6.750   1.305   5.751 -1.1222 -0.3170  0.5507
  132MOL0     C17741   6.864   1.311   5.839 -0.3403 -0.0850  0.0070
  132MOL0     C17742   6.974   1.236   5.806  0.8334 -0.3697 -0.2945
  132MOL0     C17743   6.973   1.152   5.695 -0.3418 -0.6078 -0.6598
  132MOL0     O17744   7.088   1.082   5.674 -0.2684 -0.2118  0.4120
  132MOL0     C17745   7.116   1.019   5.553 -0.7974  0.3971  0.5800
  132MOL0     C17746   7.260   0.958   5.551 -0.0412  0.1931 -0.2322
  132MOL0     C17747   7.364   1.063   5.518  0.4455 -0.4363 -0.3277
  132MOL0     C17748   7.500   1.015   5.467 -0.3573  0.5251  0.0181
  132MOL0     C17749   7.563   0.940   5.577 -0.1156 -0.3363  0.0411
  132MOL0     C17750   7.621   0.864   5.655 -0.4471  0.5351  0.1100
  132MOL0     C17751   6.857   1.137   5.608 -0.9282 -0.4987  0.0939
  132MOL0     C17752   6.746   1.223   5.637 -0.5976  0.4631 -0.7911
  132MOL0     H17753   6.479   1.465   5.552  0.7790 -1.8851  0.6473
  132MOL0     H17754   6.291   1.612   5.507  3.7153  1.3848  0.0843
  132MOL0     H17755   6.039   1.754   5.866 -1.7085  0.2990  1.2789
  132MOL0     H17756   5.949   1.802   5.729 -1.2836 -1.5702 -0.4659
  132MOL0     H17757   5.866   1.575   5.695 -1.2501  0.3290 -0.0160
  132MOL0     H17758   5.945   1.503   5.834 -1.1235 -0.7917 -1.2650
  132MOL0     H17759   5.738   1.557   5.922 -3.8561  2.5742 -0.7552
  132MOL0     H17760   5.826   1.705   5.963 -1.3276  1.3872 -0.0939
  132MOL0     H17761   5.730   1.769   5.713 -2.8737 -0.0059 -1.3853
  132MOL0     H17762   5.614   1.654   5.764 -1.7269  0.0699  1.3856
  132MOL0     H17763   5.522   1.855   5.836  2.2605  0.7946 -2.6065
  132MOL0     H17764   5.584   1.786   5.984 -0.0141 -2.8673 -0.7060
  132MOL0     H17765   5.805   1.938   5.911 -0.3231  1.2921 -0.9032
  132MOL0     H17766   5.700   2.019   5.804  4.4961  0.4808  0.3094
  132MOL0     H17767   5.598   1.983   6.081  0.4371 -3.2805 -2.1748
  132MOL0     H17768   5.722   2.114   6.051 -1.7568  0.4377  1.5228
  132MOL0     H17769   5.448   2.074   5.917  0.8832 -0.6230 -0.8847
  132MOL0     H17770   5.565   2.189   5.862 -3.2870  1.4213  0.0403
  132MOL0     H17771   5.335   2.109   6.152 -0.1427  0.1778 -0.5601
  132MOL0     H17772   5.236   2.286   6.364  3.4513 -0.6491  0.1277
  132MOL0     H17773   5.234   2.453   6.315  3.3679 -0.4689  2.4123
  132MOL0     H17774   5.000   2.343   6.293  0.0972  3.0461 -1.2662
  132MOL0     H17775   5.064   2.238   6.160  1.9170 -0.9296  1.1270
  132MOL0     H17776   5.102   2.422   6.009  0.6266  1.5495  0.6119
  132MOL0     H17777   5.097   2.538   6.130  2.5406 -0.9432 -1.3654
  132MOL0     H17778   4.862   2.367   6.008 -1.2312 -0.9786  1.4478
  132MOL0     H17779   4.888   2.538   6.005 -0.1821  2.0373  1.3525
  132MOL0     H17780   4.660   2.385   5.980 -0.6055  0.9654  0.1338
  132MOL0     H17781   4.305   2.245   5.961 -0.1850  0.0860 -3.0570
  132MOL0     H17782   4.415   2.352   5.886  1.8229 -1.8817 -1.9956
  132MOL0     H17783   4.476   2.190   5.926  0.6540 -0.3746  2.6144
  132MOL0     H17784   4.073   2.062   6.293  3.1797  0.8649  0.4944
  132MOL0     H17785   3.828   2.030   6.337 -1.5458 -0.0375  0.0377
  132MOL0     H17786   3.643   2.256   6.237 -1.4359 -0.8709 -1.4335
  132MOL0     H17787   3.578   2.105   6.296  4.2170 -0.5787  0.1155
  132MOL0     H17788   3.433   2.297   6.236 -0.1489 -1.6105 -0.4813
  132MOL0     H17789   3.408   2.228   6.410  1.4426 -2.9271 -0.6729
  132MOL0     H17790   3.552   2.504   6.330 -0.8590  1.4346  0.8462
  132MOL0     H17791   3.533   2.441   6.494 -2.0318  1.4747  1.3294
  132MOL0     H17792   3.284   2.466   6.312  0.3356  0.8933 -1.4235
  132MOL0     H17793   3.302   2.447   6.481 -0.1567 -2.8772 -2.8133
  132MOL0     H17794   3.407   2.677   6.320  2.3168  1.7840  1.9198
  132MOL0     H17795   3.417   2.665   6.495  0.8907 -0.2115  0.2447
  132MOL0     H17796   3.148   2.649   6.346  1.1925 -0.6793 -0.3061
  132MOL0     H17797   3.168   2.655   6.522  1.9839  1.6799  1.6983
  132MOL0     H17798   3.230   2.882   6.315  3.2341 -1.2361  0.2083
  132MOL0     H17799   3.273   2.891   6.492 -0.5975  0.8979  0.2253
  132MOL0     H17800   3.080   3.016   6.468 -0.8270  0.4620  2.5236
  132MOL0     H17801   3.053   2.866   6.553  0.7125  0.2898  0.3896
  132MOL0     H17802   3.820   2.438   6.491  1.2626  0.9790 -0.0086
  132MOL0     H17803   4.051   2.461   6.458  1.4018 -0.8408 -0.5357
  132MOL0     H17804   4.448   2.328   6.427  0.2062  0.6159 -0.0386
  132MOL0     H17805   4.671   2.425   6.395 -0.3747  0.9694 -0.8424
  132MOL0     H17806   6.153   1.556   5.909 -3.4161  0.6693 -1.9257
  132MOL0     H17807   6.320   1.372   5.931  0.1119 -0.9270 -0.7436
  132MOL0     H17808   6.863   1.384   5.919  1.8230  3.9994 -3.2978
  132MOL0     H17809   7.067   1.232   5.861  0.4729 -0.8525  0.3077
  132MOL0     H17810   7.052   0.931   5.544 -0.9319  0.5687 -0.2200
  132MOL0     H17811   7.098   1.080   5.464  0.7631  1.0782  0.7046
  132MOL0     H17812   7.262   0.871   5.484  1.0753  1.0548 -1.3847
  132MOL0     H17813   7.286   0.922   5.651 -2.1708  2.5756  1.2903
  132MOL0     H17814   7.363   1.123   5.609 -0.4758 -1.7432  0.5478
  132MOL0     H17815   7.333   1.125   5.433  1.4298  0.7330  0.1263
  132MOL0     H17816   7.562   1.101   5.438 -0.4813  0.7199  0.3268
  132MOL0     H17817   7.492   0.951   5.379 -0.0223  0.3720  0.0938
  132MOL0     H17818   7.661   0.804   5.735  1.4793  1.3089 -0.2105
  132MOL0     H17819   6.856   1.073   5.520  2.8047  0.7392 -1.0261
  132MOL0     H17820   6.655   1.207   5.580  0.0846 -1.4331 -1.3937
  133MOL0     O17821   3.229   0.148   8.000  0.4720 -0.0751  0.2194
  133MOL0     C17822   3.316   0.160   8.084 -0.6136 -0.1888  0.0401
  133MOL0     O17823   3.288   0.204   8.221 -0.2207 -0.1782  0.1771
  133MOL0     C17824   3.159   0.233   8.252 -0.6179  1.1242  0.1066
  133MOL0     C17825   3.055   0.142   8.236 -0.6161  0.4577 -0.2414
  133MOL0     C17826   2.923   0.182   8.272  0.6033 -0.1150 -0.2679
  133MOL0     C17827   2.893   0.316   8.309 -0.4072 -0.4283  0.2840
  133MOL0     O17828   2.765   0.365   8.339 -0.1049  0.6521  0.1168
  133MOL0     C17829   2.660   0.320   8.247 -0.7418  0.5233  0.1755
  133MOL0     C17830   2.583   0.439   8.181 -0.7339  0.4646 -0.2889
  133MOL0     C17831   2.480   0.503   8.278  0.5150 -0.3132 -0.4273
  133MOL0     C17832   2.361   0.574   8.200 -0.8222  0.1075  0.4065
  133MOL0     C17833   2.287   0.676   8.276  0.2123  0.7076  1.0048
  133MOL0     C17834   2.252   0.648   8.426 -0.0510 -1.5034  0.6220
  133MOL0     C17835   2.138   0.549   8.442 -0.5082 -0.1564  0.2448
  133MOL0     C17836   1.999   0.602   8.400 -0.7000 -0.6978  0.4149
  133MOL0     N17837   1.902   0.501   8.431 -0.3464  0.0006  0.4656
  133MOL0     C17838   1.842   0.420   8.338  0.3222  0.4193  0.3923
  133MOL0     C17839   1.771   0.327   8.402 -0.7330 -0.3761 -0.5076
  133MOL0     C17840   1.676   0.222   8.339 -0.7354 -0.3559  0.0179
  133MOL0     C17841   1.734   0.081   8.320 -0.6778  0.8415 -0.6577
  133MOL0     C17842   1.667  -0.002   8.216  0.0268 -0.4471 -0.8141
  133MOL0     C17843   1.538  -0.068   8.274  0.1817 -0.0173  0.4106
  133MOL0     O17844   1.447   0.040   8.300 -0.4688  0.3075 -0.4604
  133MOL0     C17845   1.325   0.002   8.349 -0.5404  0.5724  0.3163
  133MOL0     C17846   1.255  -0.101   8.287  0.1234 -0.3064  0.2624
  133MOL0     C17847   1.124  -0.130   8.322  0.5636 -0.2896 -0.1323
  133MOL0     C17848   1.062  -0.227   8.240 -0.3973 -0.3103 -0.2042
  133MOL0     C17849   1.061  -0.051   8.423 -0.3659  0.1157  1.0708
  133MOL0     C17850   0.927  -0.076   8.478 -0.4262 -0.5703  0.8154
  133MOL0     O17851   0.910  -0.035   8.600 -0.1965 -0.2976 -0.7023
  133MOL0     C17852   0.789  -0.032   8.668 -0.1934  0.9461 -0.0381
  133MOL0     C17853   0.786  -0.032   8.810  0.2794 -0.3520  0.7475
  133MOL0     C17854   0.659  -0.040   8.876  0.3612  0.6517  0.6521
  133MOL0     C17855   0.537  -0.038   8.810 -0.6557 -0.3039  0.4709
  133MOL0     O17856   0.417  -0.033   8.872 -0.4425  0.4015 -0.1754
  133MOL0     C17857   0.403   0.017   9.009  0.0990 -0.4291 -0.6186
  133MOL0     C17858   0.371  -0.101   9.100 -0.2305  0.3283 -0.3003
  133MOL0     C17859   0.252  -0.190   9.051  1.3616  0.4054 -0.0417
  133MOL0     C17860   0.122  -0.109   9.030  0.2366 -0.5445  0.3105
  133MOL0     C17861   0.005  -0.212   9.020 -0.0126  0.0373 -1.0614
  133MOL0     C17862  -0.123  -0.143   9.001 -0.5377  0.0015  0.6036
  133MOL0     C17863  -0.241  -0.226   8.976 -0.4018 -0.0437  0.0681
  133MOL0     C17864  -0.272  -0.322   9.091 -0.2823  0.4972 -0.3209
  133MOL0    Cl17865  -0.328  -0.228   9.236 -0.7894 -0.2294 -0.0036
  133MOL0     C17866   0.537  -0.033   8.671  0.0809  0.1978 -0.2133
  133MOL0     C17867   0.661  -0.029   8.598 -1.1284 -0.3314 -1.0136
  133MOL0     O17868   0.841  -0.132   8.407 -0.4036  0.3687  0.1308
  133MOL0     C17869   1.137   0.057   8.481  0.2139 -0.0781 -1.0675
  133MOL0     C17870   1.263   0.081   8.440 -1.2589 -0.2493 -0.6310
  133MOL0     N17871   1.805   0.335   8.535 -0.5644 -0.0159 -0.2322
  133MOL0     N17872   1.884   0.441   8.554  0.1767  0.5849  0.3514
  133MOL0     C17873   3.000   0.405   8.337  0.0849 -0.0622  0.5238
  133MOL0     C17874   3.134   0.360   8.319  0.7321 -0.5525  1.0273
  133MOL0     C17875   3.448   0.121   8.047 -0.9762 -0.1684 -0.6585
  133MOL0     C17876   3.559   0.179   8.125  0.0172  0.1155 -0.4257
  133MOL0     C17877   3.691   0.136   8.096  0.3834 -0.2291 -0.1132
  133MOL0     C17878   3.729   0.062   7.990 -0.0757 -0.1193 -0.3627
  133MOL0     O17879   3.861   0.014   7.988 -0.2512 -0.0831  0.0733
  133MOL0     C17880   3.886  -0.086   7.889 -0.3072  0.0468 -0.5686
  133MOL0     C17881   4.025  -0.151   7.907  0.3470 -0.4027 -0.4531
  133MOL0     C17882   4.144  -0.066   7.872  0.5095  0.5780  0.2010
  133MOL0     C17883   4.269  -0.096   7.953 -0.1417  0.3034 -0.2244
  133MOL0     C17884   4.344  -0.216   7.912  0.3123  0.6586 -0.0548
  133MOL0     C17885   4.404  -0.317   7.902  1.1351  0.0697  1.2247
  133MOL0     C17886   3.623   0.013   7.906 -0.1363 -0.3239 -0.7083
  133MOL0     C17887   3.492   0.052   7.933  0.2567  0.5176  0.9317
  133MOL0     H17888   3.069   0.039   8.203 -2.1255 -0.0408  0.5921
  133MOL0     H17889   2.843   0.109   8.264  2.5014 -2.2220 -0.7848
  133MOL0     H17890   2.694   0.252   8.169 -1.8293  2.5497 -2.2273
  133MOL0     H17891   2.587   0.250   8.287  1.3323 -2.0503 -0.2883
  133MOL0     H17892   2.657   0.516   8.157 -0.7447  0.5302 -0.1092
  133MOL0     H17893   2.535   0.405   8.088 -0.4771  2.7311 -1.3093
  133MOL0     H17894   2.436   0.429   8.345  2.5789 -1.8341 -0.6487
  133MOL0     H17895   2.537   0.573   8.339  0.7560 -0.8362 -0.0492
  133MOL0     H17896   2.406   0.627   8.116  0.5158 -1.6309 -0.0300
  133MOL0     H17897   2.297   0.492   8.166 -0.7927 -0.3902  1.4848
  133MOL0     H17898   2.354   0.763   8.274  1.2976 -0.0719  2.0424
  133MOL0     H17899   2.203   0.708   8.214  0.7481  0.5567  0.1913
  133MOL0     H17900   2.335   0.593   8.472  1.2593 -1.8351 -1.9857
  133MOL0     H17901   2.233   0.747   8.470  0.6741 -0.6226 -0.9477
  133MOL0     H17902   2.165   0.467   8.375 -3.0917 -0.0052 -1.1209
  133MOL0     H17903   2.130   0.520   8.547  1.3150  0.4296  0.5795
  133MOL0     H17904   2.000   0.627   8.293  1.0265 -1.5483  0.1998
  133MOL0     H17905   1.988   0.691   8.463  1.2766 -1.3330  1.7368
  133MOL0     H17906   1.827   0.433   8.231  2.1318  0.9503  0.1830
  133MOL0     H17907   1.588   0.217   8.404 -0.4590 -2.8519  0.3117
  133MOL0     H17908   1.638   0.258   8.243 -1.1448 -1.1317 -0.1224
  133MOL0     H17909   1.730   0.020   8.411 -0.0936 -0.3390 -1.3906
  133MOL0     H17910   1.836   0.093   8.284 -0.5262  2.1221  0.1454
  133MOL0     H17911   1.748  -0.073   8.194  1.8842  0.5101  2.3024
  133MOL0     H17912   1.653   0.048   8.119 -1.6290 -2.7432 -1.8448
  133MOL0     H17913   1.569  -0.116   8.367  0.6929 -1.0407 -0.2592
  133MOL0     H17914   1.504  -0.144   8.202 -0.1987 -0.9328  1.5278
  133MOL0     H17915   1.302  -0.144   8.199 -2.0132 -1.4167 -0.4005
  133MOL0     H17916   0.979  -0.170   8.195 -0.0129  0.5399  0.1467
  133MOL0     H17917   1.131  -0.262   8.162  2.0182  2.1771  0.6721
  133MOL0     H17918   1.013  -0.311   8.291 -0.5693 -0.5266 -0.7132
  133MOL0     H17919   0.880  -0.041   8.862  1.1388 -6.3780 -0.9643
  133MOL0     H17920   0.659  -0.039   8.984  1.4478 -2.6043  0.7773
  133MOL0     H17921   0.492   0.067   9.050 -0.3055 -1.8575  2.2862
  133MOL0     H17922   0.321   0.089   9.012 -0.2712 -0.7117 -2.6695
  133MOL0     H17923   0.462  -0.160   9.114  0.4174  1.1354 -0.9689
  133MOL0     H17924   0.348  -0.056   9.197  3.2535 -1.1273  1.3837
  133MOL0     H17925   0.237  -0.266   9.129 -0.5356  0.4703 -0.2984
  133MOL0     H17926   0.275  -0.244   8.959 -2.8322  0.0985 -1.1124
  133MOL0     H17927   0.107  -0.030   9.104  0.6324  1.8505 -2.0178
  133MOL0     H17928   0.138  -0.054   8.937 -3.5994  2.3105  1.0715
  133MOL0     H17929   0.006  -0.268   9.114  1.9198  0.4315 -0.7913
  133MOL0     H17930   0.036  -0.285   8.945  0.9990 -1.7349  0.9525
  133MOL0     H17931  -0.145  -0.073   9.082  1.7754  2.0991 -0.4576
  133MOL0     H17932  -0.116  -0.086   8.908 -1.9073 -3.5448 -1.8951
  133MOL0     H17933  -0.238  -0.279   8.880 -5.1245 -1.5929  0.4912
  133MOL0     H17934  -0.327  -0.160   8.970  1.3256  2.3453  0.1925
  133MOL0     H17935  -0.184  -0.381   9.117 -1.1064  0.7437  3.5719
  133MOL0     H17936  -0.359  -0.379   9.058 -1.3449  1.0799  1.3554
  133MOL0     H17937   0.445  -0.030   8.613  0.2751 -0.1113 -0.5453
  133MOL0     H17938   0.650  -0.022   8.491  1.5949 -1.7404 -1.4494
  133MOL0     H17939   1.092   0.111   8.563 -3.5552 -0.7460 -2.4744
  133MOL0     H17940   1.324   0.166   8.470 -1.5010 -0.2905 -0.0259
  133MOL0     H17941   2.982   0.508   8.366 -1.6054  0.6797 -2.6558
  133MOL0     H17942   3.213   0.434   8.319  0.0912  0.2061 -0.7571
  133MOL0     H17943   3.542   0.240   8.213 -0.4854 -2.4824  1.3968
  133MOL0     H17944   3.758   0.179   8.170 -2.9467  1.0073  2.4538
  133MOL0     H17945   3.816  -0.168   7.905  0.3420 -0.4565 -0.2454
  133MOL0     H17946   3.870  -0.044   7.790  0.3352  2.2777  0.2180
  133MOL0     H17947   4.033  -0.241   7.845  0.0993 -1.0606  0.4487
  133MOL0     H17948   4.028  -0.191   8.009  0.2708 -2.6682 -1.2872
  133MOL0     H17949   4.115   0.034   7.904 -1.8975 -1.0802  3.8550
  133MOL0     H17950   4.163  -0.072   7.764  2.0268  1.6900  0.3738
  133MOL0     H17951   4.245  -0.101   8.060 -3.4229 -0.9448 -0.9152
  133MOL0     H17952   4.344  -0.017   7.947  0.9408 -0.4803  1.8764
  133MOL0     H17953   4.450  -0.413   7.891  0.5835 -0.0015 -0.9711
  133MOL0     H17954   3.637  -0.067   7.834  0.9001  0.5706 -1.5253
  133MOL0     H17955   3.417   0.029   7.858  0.3695  3.5868 -0.2773
  134MOL0     O17956   9.817   8.907   0.179 -0.1706  0.1789  0.1692
  134MOL0     C17957   9.918   8.889   0.112  0.0507 -0.6971  0.2472
  134MOL0     O17958   9.932   8.787   0.029 -0.6783  0.2368  0.1668
  134MOL0     C17959   9.856   8.678   0.029  0.1859 -0.2871  0.0242
  134MOL0     C17960   9.927   8.562   0.064  0.2352 -0.3833  1.2699
  134MOL0     C17961   9.866   8.432   0.077 -0.3811  0.0588  0.1193
  134MOL0     C17962   9.721   8.423   0.060 -0.6968  0.1580  0.9149
  134MOL0     O17963   9.653   8.312   0.092  0.0388  0.2234  0.0938
  134MOL0     C17964   9.725   8.192   0.144 -0.2260 -0.7366 -0.4265
  134MOL0     C17965   9.622   8.084   0.184  0.2525  0.0557  0.0004
  134MOL0     C17966   9.519   8.063   0.073  0.1478  0.1799 -0.3091
  134MOL0     C17967   9.419   7.957   0.082 -1.0274 -0.5013 -0.0249
  134MOL0     C17968   9.309   7.952  -0.020 -0.5361  0.0400  0.1816
  134MOL0     C17969   9.238   7.824  -0.005  0.7389  0.2683 -0.7320
  134MOL0     C17970   9.114   7.800  -0.090  0.6506  0.2116 -0.1631
  134MOL0     C17971   9.017   7.922  -0.081 -0.2844 -0.5188 -0.8667
  134MOL0     N17972   8.892   7.895  -0.146  0.3343 -0.6248 -0.7799
  134MOL0     C17973   8.861   7.828  -0.264 -0.0328 -0.4734 -1.2231
  134MOL0     C17974   8.729   7.829  -0.286  0.4383  0.5231  0.3619
  134MOL0     C17975   8.652   7.780  -0.408 -0.0849  0.1428 -0.1791
  134MOL0     C17976   8.506   7.809  -0.403  0.0515  0.1995  0.1026
  134MOL0     C17977   8.451   7.770  -0.538  0.3585  0.7612 -0.1203
  134MOL0     C17978   8.305   7.822  -0.554 -0.1323  0.5805 -0.2234
  134MOL0     O17979   8.258   7.781  -0.676 -0.2616  0.3498 -0.3982
  134MOL0     C17980   8.122   7.804  -0.694 -0.9722 -0.4815  0.2669
  134MOL0     C17981   8.052   7.757  -0.809  0.5910 -1.0926  0.2843
  134MOL0     C17982   7.919   7.787  -0.837 -0.0132  0.0755  0.3047
  134MOL0     C17983   7.860   7.722  -0.955 -0.2166  0.3481  0.2675
  134MOL0     C17984   7.843   7.874  -0.752 -0.1832 -0.4491 -0.9628
  134MOL0     C17985   7.702   7.922  -0.778 -0.5504  0.4793  0.0162
  134MOL0     O17986   7.641   7.916  -0.900 -0.3067  0.0608 -0.0694
  134MOL0     C17987   7.529   7.983  -0.921 -0.3572 -0.5753 -0.2117
  134MOL0     C17988   7.444   7.921  -1.008 -0.2036 -0.3550  0.3490
  134MOL0     C17989   7.337   7.997  -1.059 -0.6598 -1.1206 -1.1559
  134MOL0     C17990   7.308   8.127  -1.014  0.9773  0.4750 -0.0762
  134MOL0     O17991   7.196   8.189  -1.073  0.8363  0.1272 -0.2277
  134MOL0     C17992   7.193   8.332  -1.061 -0.0029 -1.2664  0.2241
  134MOL0     C17993   7.095   8.394  -1.163  0.4069 -0.1216  0.4577
  134MOL0     C17994   6.953   8.337  -1.128 -0.0519  0.1609 -0.1401
  134MOL0     C17995   6.848   8.415  -1.211 -0.2269 -0.1475 -0.4266
  134MOL0     C17996   6.706   8.363  -1.199  0.1384 -0.0835 -0.3997
  134MOL0     C17997   6.605   8.429  -1.299 -0.3817 -0.5333  0.0973
  134MOL0     C17998   6.592   8.580  -1.267 -0.9925  0.9664  0.7933
  134MOL0     C17999   6.475   8.636  -1.348 -0.1375 -0.0766 -0.4110
  134MOL0    Cl18000   6.510   8.622  -1.527  0.1172  0.0861 -0.4477
  134MOL0     C18001   7.394   8.189  -0.925  0.4167 -0.2725 -0.1507
  134MOL0     C18002   7.508   8.116  -0.880 -0.6495  0.0074 -0.3807
  134MOL0     O18003   7.647   7.952  -0.671 -0.4198  0.5138 -0.1336
  134MOL0     C18004   7.912   7.933  -0.643 -0.5643  0.2086 -0.6574
  134MOL0     C18005   8.048   7.894  -0.618  1.0544  0.3061  0.3371
  134MOL0     N18006   8.679   7.902  -0.179  0.8492 -0.2165  0.1840
  134MOL0     N18007   8.769   7.938  -0.098 -0.1143 -1.3738  0.5336
  134MOL0     C18008   9.656   8.543   0.026 -0.3562 -0.0847  0.1617
  134MOL0     C18009   9.721   8.669   0.008  0.3642  0.2015  0.6301
  134MOL0     C18010  10.030   8.989   0.125 -0.3557 -0.1227  0.5277
  134MOL0     C18011  10.157   8.964   0.066 -0.0427 -0.7818  0.1094
  134MOL0     C18012  10.249   9.068   0.058  0.8760  0.2992 -0.1327
  134MOL0     C18013  10.218   9.196   0.114 -0.6437 -0.9798 -0.0213
  134MOL0     O18014  10.302   9.296   0.118 -0.3077 -0.3619 -0.7825
  134MOL0     C18015  10.429   9.296   0.060  0.7359  0.1999 -0.2178
  134MOL0     C18016  10.420   9.338  -0.088  0.4412  0.2143 -0.0206
  134MOL0     C18017  10.348   9.475  -0.100  0.1976 -0.2244  0.6064
  134MOL0     C18018  10.361   9.550  -0.231 -0.1950  0.0528 -0.6047
  134MOL0     C18019  10.486   9.529  -0.306 -0.1257  0.4911  0.1026
  134MOL0     C18020  10.578   9.526  -0.371  0.0886  0.9784 -0.0484
  134MOL0     C18021  10.099   9.214   0.176  0.5422  0.2583  0.8445
  134MOL0     C18022  10.012   9.104   0.191 -0.1188 -0.3957  0.3069
  134MOL0     H18023  10.034   8.569   0.078  0.5509 -0.1591 -0.9505
  134MOL0     H18024   9.929   8.351   0.114 -2.9262 -1.9941  0.3138
  134MOL0     H18025   9.790   8.158   0.064  1.0684  0.3811  0.1211
  134MOL0     H18026   9.785   8.209   0.234  0.5235  0.0268 -1.0637
  134MOL0     H18027   9.671   7.989   0.208  0.0522  0.4758  2.2555
  134MOL0     H18028   9.570   8.110   0.276  1.6078  0.3743  0.7077
  134MOL0     H18029   9.457   8.152   0.062 -1.8017 -0.9695  0.8967
  134MOL0     H18030   9.576   8.057  -0.021  0.6267 -0.3881  0.0168
  134MOL0     H18031   9.475   7.863   0.084  0.6840  0.4316 -1.4134
  134MOL0     H18032   9.364   7.969   0.176 -2.0182  0.5693 -0.7146
  134MOL0     H18033   9.242   8.037  -0.006  0.4306  0.5697  1.9621
  134MOL0     H18034   9.348   7.955  -0.122 -1.2656 -1.0460 -0.1457
  134MOL0     H18035   9.296   7.731  -0.001  0.8071  0.3559  1.4937
  134MOL0     H18036   9.194   7.833   0.094 -1.0173 -1.3102 -1.3039
  134MOL0     H18037   9.148   7.799  -0.194  0.7557  1.6851 -0.1753
  134MOL0     H18038   9.057   7.712  -0.058 -1.3030  1.0067 -1.2783
  134MOL0     H18039   9.053   8.007  -0.139 -2.4057  0.5714 -0.6478
  134MOL0     H18040   9.015   7.949   0.025  3.6585 -1.4943 -0.3833
  134MOL0     H18041   8.928   7.790  -0.340  1.2147 -0.0311 -0.3765
  134MOL0     H18042   8.675   7.841  -0.496 -2.7351  1.4829 -0.0268
  134MOL0     H18043   8.670   7.672  -0.420  0.3007  0.2927 -1.0653
  134MOL0     H18044   8.485   7.914  -0.384  0.1541  0.2708 -0.1747
  134MOL0     H18045   8.470   7.749  -0.319  2.5967 -0.8378  0.5593
  134MOL0     H18046   8.441   7.662  -0.545 -4.0931  1.0606 -1.1385
  134MOL0     H18047   8.509   7.809  -0.623 -1.6145  1.0628 -1.3816
  134MOL0     H18048   8.302   7.932  -0.552  1.8489  0.6655 -0.3842
  134MOL0     H18049   8.242   7.790  -0.471  0.2282 -0.2603 -0.2612
  134MOL0     H18050   8.108   7.692  -0.875  0.6008 -1.0206  0.2217
  134MOL0     H18051   7.761   7.679  -0.936  0.6942 -1.4675  1.1653
  134MOL0     H18052   7.856   7.786  -1.043  0.9848 -0.9556 -0.7813
  134MOL0     H18053   7.938   7.654  -0.991 -0.1692  0.1813  0.6764
  134MOL0     H18054   7.465   7.822  -1.047 -1.3726 -0.7628  0.7118
  134MOL0     H18055   7.281   7.950  -1.139  0.0217 -1.0164 -1.7017
  134MOL0     H18056   7.164   8.359  -0.960  1.4759  0.5923  0.2207
  134MOL0     H18057   7.292   8.369  -1.091 -0.7602  0.3897 -0.3467
  134MOL0     H18058   7.091   8.503  -1.161 -3.6379 -0.1028 -0.2324
  134MOL0     H18059   7.132   8.361  -1.260 -0.2166  4.3612 -1.5143
  134MOL0     H18060   6.941   8.355  -1.020  1.0350  1.2412 -0.1761
  134MOL0     H18061   6.938   8.231  -1.148 -1.2108  0.0964  0.9319
  134MOL0     H18062   6.852   8.520  -1.182  0.3413 -0.0831 -0.7202
  134MOL0     H18063   6.886   8.411  -1.314  0.0807 -0.7494 -0.2970
  134MOL0     H18064   6.673   8.367  -1.095  0.9755  1.0673 -0.1687
  134MOL0     H18065   6.703   8.256  -1.222 -0.7598 -0.1348 -0.1157
  134MOL0     H18066   6.651   8.422  -1.398  1.0051 -0.8418  0.7421
  134MOL0     H18067   6.514   8.371  -1.320 -0.1272 -0.3120 -1.8015
  134MOL0     H18068   6.685   8.631  -1.292  0.1195 -1.1711  0.3409
  134MOL0     H18069   6.572   8.590  -1.160 -2.2324  4.3599  0.3921
  134MOL0     H18070   6.455   8.737  -1.312 -1.5848 -0.8281  1.0260
  134MOL0     H18071   6.380   8.592  -1.317 -0.1044  0.6970  0.8866
  134MOL0     H18072   7.380   8.287  -0.881  0.0876 -0.7278  0.7797
  134MOL0     H18073   7.585   8.176  -0.832 -1.3651 -0.3867  1.3756
  134MOL0     H18074   7.866   8.021  -0.598  2.5441  2.3823 -1.3830
  134MOL0     H18075   8.105   7.941  -0.539  1.3007  2.1809 -0.8717
  134MOL0     H18076   9.550   8.542   0.006 -0.1223 -1.2831 -1.1890
  134MOL0     H18077   9.663   8.755  -0.023  0.1778 -0.2071 -0.1831
  134MOL0     H18078  10.178   8.873   0.012 -2.2942  0.1356 -2.5624
  134MOL0     H18079  10.340   9.049   0.002  0.8158 -0.5686  0.0536
  134MOL0     H18080  10.495   9.370   0.106  2.6008 -2.7347  2.2067
  134MOL0     H18081  10.479   9.199   0.071  0.9904  0.2771 -0.6550
  134MOL0     H18082  10.368   9.255  -0.137  1.8068  0.2647 -1.6531
  134MOL0     H18083  10.517   9.356  -0.135  0.5283  1.3296  0.5585
  134MOL0     H18084  10.386   9.546  -0.025  0.0244 -0.1180  0.5926
  134MOL0     H18085  10.241   9.468  -0.082  0.2635 -0.4963  0.9161
  134MOL0     H18086  10.349   9.655  -0.205  1.0634 -0.0565  0.5527
  134MOL0     H18087  10.276   9.524  -0.295 -1.2484  2.8037 -0.4368
  134MOL0     H18088  10.674   9.527  -0.420  1.1203  3.5441  1.8291
  134MOL0     H18089  10.072   9.311   0.217  0.1801  0.0250  1.1562
  134MOL0     H18090   9.922   9.118   0.250 -0.1927  0.7453 -0.0617
  135MOL0     O18091   9.580   7.392   0.725 -0.3573  0.4457 -0.0468
  135MOL0     C18092   9.496   7.313   0.687  0.0060  0.9230 -0.6159
  135MOL0     O18093   9.368   7.315   0.735  0.5979 -0.4773 -0.7714
  135MOL0     C18094   9.319   7.413   0.820 -0.9902 -0.3699  0.4007
  135MOL0     C18095   9.261   7.365   0.935  0.4726  0.1966 -1.0373
  135MOL0     C18096   9.216   7.449   1.040 -0.4744 -0.1700  0.9030
  135MOL0     C18097   9.224   7.584   1.024 -0.2683  0.3963 -0.1675
  135MOL0     O18098   9.160   7.669   1.114 -0.8670 -0.4345 -0.5729
  135MOL0     C18099   9.183   7.809   1.112 -0.3844 -0.4360  0.1281
  135MOL0     C18100   9.076   7.867   1.209  0.6193 -0.4031  0.2550
  135MOL0     C18101   8.930   7.869   1.151 -0.7288 -0.2144  0.0374
  135MOL0     C18102   8.837   7.953   1.253 -0.4521 -0.4874 -0.2666
  135MOL0     C18103   8.697   7.919   1.207 -0.3129 -0.5465 -0.4429
  135MOL0     C18104   8.584   7.976   1.305 -0.4027  0.2937 -0.2388
  135MOL0     C18105   8.442   7.923   1.257 -0.0434  0.6275 -0.3535
  135MOL0     C18106   8.399   7.992   1.123  0.5711  0.6942  0.2732
  135MOL0     N18107   8.251   7.960   1.086 -0.2041  0.4663 -0.5928
  135MOL0     C18108   8.146   8.044   1.120  1.1595  0.1773 -0.6844
  135MOL0     C18109   8.034   7.971   1.095 -0.2724  0.2856  0.2643
  135MOL0     C18110   7.892   8.014   1.114 -0.2925  0.6691 -0.3634
  135MOL0     C18111   7.796   7.900   1.069 -0.0083  0.1239  0.3883
  135MOL0     C18112   7.647   7.954   1.059 -0.6782  0.3110 -0.3816
  135MOL0     C18113   7.533   7.849   1.043 -0.1255 -1.2570 -0.0955
  135MOL0     O18114   7.417   7.920   1.030  0.5063  0.4430 -0.4049
  135MOL0     C18115   7.293   7.856   1.055  0.0748 -0.0724  0.8941
  135MOL0     C18116   7.277   7.717   1.063  0.2278  0.2459  0.1664
  135MOL0     C18117   7.153   7.659   1.066 -0.2893  0.6465 -0.2716
  135MOL0     C18118   7.141   7.507   1.074  0.3330 -0.0842 -1.3185
  135MOL0     C18119   7.038   7.748   1.069 -0.2730 -0.2510  0.3307
  135MOL0     C18120   6.897   7.704   1.065 -0.5161 -0.2736  0.0953
  135MOL0     O18121   6.796   7.794   1.061  0.3368 -0.2152 -0.0440
  135MOL0     C18122   6.663   7.750   1.033 -0.7244  0.0381 -0.5807
  135MOL0     C18123   6.575   7.798   1.132 -0.6587 -0.2775  0.5098
  135MOL0     C18124   6.437   7.777   1.120  0.2766  0.0931 -0.3842
  135MOL0     C18125   6.382   7.722   1.000  0.5341 -0.3165  0.1333
  135MOL0     O18126   6.252   7.701   0.959  0.2250 -0.1925  0.3442
  135MOL0     C18127   6.158   7.766   1.049 -1.5160  0.4434  0.0277
  135MOL0     C18128   6.021   7.757   0.975 -0.3308 -0.2199  0.4945
  135MOL0     C18129   5.930   7.859   1.030 -0.4044  0.0759  0.2543
  135MOL0     C18130   5.800   7.854   0.944 -0.5059 -0.0444 -0.4348
  135MOL0     C18131   5.704   7.969   0.976  0.0164 -0.0681  0.7969
  135MOL0     C18132   5.597   7.983   0.862  0.6250 -0.7349  0.3802
  135MOL0     C18133   5.498   8.084   0.906  0.0434  0.7116 -0.5478
  135MOL0     C18134   5.397   8.096   0.790  0.5257  0.2768 -0.0511
  135MOL0    Cl18135   5.266   8.216   0.843  0.1640 -0.2280  0.4875
  135MOL0     C18136   6.476   7.674   0.906 -0.4639  0.0009  0.3830
  135MOL0     C18137   6.617   7.688   0.918 -0.3346  0.6134  0.0841
  135MOL0     O18138   6.868   7.586   1.055 -0.4446  0.2665  0.5219
  135MOL0     C18139   7.060   7.888   1.067 -0.8309 -0.6356 -0.4192
  135MOL0     C18140   7.184   7.942   1.053  0.4743 -0.7119 -0.5448
  135MOL0     N18141   8.072   7.859   1.023 -0.4512  0.6098 -0.0420
  135MOL0     N18142   8.205   7.848   1.016  0.8111 -0.4573 -0.4286
  135MOL0     C18143   9.295   7.634   0.919  0.3208 -0.0073  0.1126
  135MOL0     C18144   9.335   7.554   0.809 -0.2988  0.5906 -0.6381
  135MOL0     C18145   9.524   7.206   0.588  0.9939 -0.7377  0.2665
  135MOL0     C18146   9.431   7.098   0.581  0.8040  0.2887 -1.1886
  135MOL0     C18147   9.461   6.993   0.497  0.6661 -0.7346 -0.2012
  135MOL0     C18148   9.572   6.999   0.409 -0.5504 -0.1524 -0.2904
  135MOL0     O18149   9.596   6.896   0.318  0.0551 -0.5672 -0.0825
  135MOL0     C18150   9.724   6.829   0.354  0.3627  0.2611  0.7361
  135MOL0     C18151   9.755   6.702   0.274  0.8465  0.4950  0.5120
  135MOL0     C18152   9.898   6.654   0.267  0.1686 -0.2246 -0.1825
  135MOL0     C18153   9.954   6.602   0.396 -0.2203  0.2141  0.3812
  135MOL0     C18154  10.094   6.591   0.380 -0.8963 -0.6597 -0.0847
  135MOL0     C18155  10.211   6.581   0.362 -0.4070  0.3474 -0.4232
  135MOL0     C18156   9.647   7.125   0.398 -0.3614  0.1589  0.1246
  135MOL0     C18157   9.624   7.222   0.491  0.1477  0.0624 -0.1105
  135MOL0     H18158   9.244   7.259   0.949  0.2328  0.4894  1.1128
  135MOL0     H18159   9.168   7.400   1.124  2.3868 -2.7556  1.1589
  135MOL0     H18160   9.282   7.831   1.151 -1.5563  1.5096  2.2618
  135MOL0     H18161   9.171   7.847   1.010  2.1321  1.6352  0.5164
  135MOL0     H18162   9.074   7.816   1.306  0.1967  0.2220  0.5833
  135MOL0     H18163   9.103   7.969   1.236  0.7665 -0.1144 -0.9377
  135MOL0     H18164   8.921   7.918   1.054 -4.2586  1.8982  1.2085
  135MOL0     H18165   8.893   7.766   1.145 -0.8189 -0.1829  0.0493
  135MOL0     H18166   8.858   7.923   1.356  0.1834  0.7559 -0.0231
  135MOL0     H18167   8.870   8.057   1.245  1.0842 -0.9769 -0.4937
  135MOL0     H18168   8.672   7.955   1.107 -1.8775 -1.2256 -0.3349
  135MOL0     H18169   8.694   7.810   1.196 -0.1315 -0.6530  0.4377
  135MOL0     H18170   8.614   7.956   1.408  1.0468  1.4740 -0.4005
  135MOL0     H18171   8.577   8.084   1.293 -0.8010  0.5156  1.7242
  135MOL0     H18172   8.441   7.816   1.234 -1.1279  0.8912 -1.6140
  135MOL0     H18173   8.357   7.931   1.326 -2.0288 -0.2974 -2.5348
  135MOL0     H18174   8.457   7.935   1.050  0.2801 -1.1979  1.4481
  135MOL0     H18175   8.415   8.100   1.117 -2.8902  1.3215  0.1069
  135MOL0     H18176   8.139   8.140   1.169 -1.0438 -1.5536  2.8289
  135MOL0     H18177   7.876   8.044   1.218 -0.3564  0.3858 -0.2926
  135MOL0     H18178   7.870   8.097   1.046 -3.1003  2.7459  2.7615
  135MOL0     H18179   7.797   7.819   1.143  0.0008  0.0002  0.2554
  135MOL0     H18180   7.826   7.852   0.975  3.3992  0.3574  1.2383
  135MOL0     H18181   7.640   8.011   0.965 -1.1258  0.6105 -0.1695
  135MOL0     H18182   7.621   8.006   1.152 -0.3826 -1.4651  0.7362
  135MOL0     H18183   7.539   7.780   1.128  2.3833 -0.3052  0.5740
  135MOL0     H18184   7.542   7.780   0.959  0.9685 -0.8478 -0.3180
  135MOL0     H18185   7.371   7.664   1.055  0.0166 -0.4474  1.7626
  135MOL0     H18186   7.077   7.466   1.153  1.9327  2.6970  1.6769
  135MOL0     H18187   7.104   7.454   0.986  0.2373 -0.8927 -0.7954
  135MOL0     H18188   7.238   7.461   1.095 -0.2827 -0.4610  1.0436
  135MOL0     H18189   6.623   7.844   1.218 -0.3473  0.4091 -0.0146
  135MOL0     H18190   6.377   7.806   1.206 -1.1583  1.4671 -1.7909
  135MOL0     H18191   6.162   7.719   1.148  1.5605  0.5394  0.0365
  135MOL0     H18192   6.191   7.870   1.046  1.2280 -0.3254 -3.7328
  135MOL0     H18193   6.031   7.789   0.871 -0.7987  1.7160  1.0066
  135MOL0     H18194   5.978   7.657   0.984  1.4333 -1.1296 -0.6529
  135MOL0     H18195   5.975   7.959   1.023 -2.5143  0.9363 -3.7569
  135MOL0     H18196   5.905   7.834   1.134 -1.0602 -2.0607 -0.3731
  135MOL0     H18197   5.826   7.860   0.838  1.8924  2.3406  0.1954
  135MOL0     H18198   5.737   7.765   0.957 -2.8849  0.9633 -3.6917
  135MOL0     H18199   5.765   8.060   0.979  1.0138 -0.7429  1.7281
  135MOL0     H18200   5.648   7.968   1.069 -0.6577 -0.1922  0.3999
  135MOL0     H18201   5.637   8.003   0.762 -0.1419 -3.1071 -0.4905
  135MOL0     H18202   5.545   7.887   0.851  1.2207 -1.1125  0.8304
  135MOL0     H18203   5.535   8.185   0.924 -3.0510  1.7519  0.7468
  135MOL0     H18204   5.449   8.057   1.000  1.0446  1.4560  0.2081
  135MOL0     H18205   5.378   7.993   0.757  1.8537  0.0655 -0.2423
  135MOL0     H18206   5.429   8.133   0.692 -0.4224 -0.7796 -0.7910
  135MOL0     H18207   6.450   7.624   0.814  1.7132  2.1527 -1.5702
  135MOL0     H18208   6.686   7.643   0.848 -3.9963 -0.7908 -2.9320
  135MOL0     H18209   6.974   7.955   1.070 -2.3732 -2.3940  4.1246
  135MOL0     H18210   7.195   8.049   1.037 -2.4790 -0.4887 -1.6511
  135MOL0     H18211   9.303   7.741   0.903 -0.0078 -0.3353 -2.9851
  135MOL0     H18212   9.385   7.601   0.725  0.3337 -1.1607 -1.3030
  135MOL0     H18213   9.348   7.095   0.651  1.4990  0.1935 -0.3462
  135MOL0     H18214   9.392   6.910   0.511 -1.0930  0.5575 -0.8783
  135MOL0     H18215   9.806   6.902   0.345  1.6724 -0.6200  3.9513
  135MOL0     H18216   9.723   6.818   0.463 -1.3370  2.1080  0.9809
  135MOL0     H18217   9.708   6.713   0.176  1.1440 -2.3038 -0.0218
  135MOL0     H18218   9.697   6.620   0.316  3.1508 -1.5749 -0.1230
  135MOL0     H18219   9.942   6.751   0.239 -0.8385  0.7377  1.4185
  135MOL0     H18220   9.910   6.577   0.190 -0.0943 -1.0983  0.6306
  135MOL0     H18221   9.926   6.497   0.412 -0.6970 -0.1743 -2.5215
  135MOL0     H18222   9.922   6.655   0.486 -2.1833 -0.6292  0.2327
  135MOL0     H18223  10.311   6.547   0.344 -0.3589 -0.4481  1.2453
  135MOL0     H18224   9.726   7.133   0.324 -3.1214  1.7417 -2.9464
  135MOL0     H18225   9.699   7.299   0.507  0.3226 -0.4756  1.8679
  136MOL0     O18226   1.907   6.039   3.367  0.0820 -0.8137 -0.1247
  136MOL0     C18227   1.882   6.134   3.433  0.8678 -0.1959  0.4239
  136MOL0     O18228   1.780   6.144   3.521  0.5928  0.6559 -0.5594
  136MOL0     C18229   1.664   6.069   3.516  0.2019  0.7097 -0.1261
  136MOL0     C18230   1.552   6.135   3.469 -0.2312  1.1195 -0.0322
  136MOL0     C18231   1.439   6.061   3.464  0.1757  0.0331 -0.5201
  136MOL0     C18232   1.431   5.924   3.494  0.0459 -0.6634 -0.5490
  136MOL0     O18233   1.317   5.847   3.500 -0.4257 -0.4387 -0.5240
  136MOL0     C18234   1.191   5.919   3.489 -0.6244 -0.4092  0.0207
  136MOL0     C18235   1.142   5.913   3.354 -0.6278 -0.2161 -0.2947
  136MOL0     C18236   1.000   5.974   3.348  0.2294 -0.2076  0.8328
  136MOL0     C18237   0.921   5.920   3.225 -0.0523 -0.0867 -0.1472
  136MOL0     C18238   0.772   5.974   3.212  0.1468  0.5646 -0.1025
  136MOL0     C18239   0.708   5.962   3.070  0.4394  0.0700 -0.0219
  136MOL0     C18240   0.569   6.050   3.056 -0.4765  0.0748  0.1502
  136MOL0     C18241   0.467   5.983   3.142 -0.5120  0.3147 -0.0041
  136MOL0     N18242   0.356   6.075   3.163  0.8992 -0.2414  0.8454
  136MOL0     C18243   0.242   6.066   3.089 -0.8112 -0.0907 -0.7889
  136MOL0     C18244   0.150   6.161   3.143  0.3898 -0.0894  0.6663
  136MOL0     C18245   0.008   6.190   3.091 -0.0960 -0.2513 -0.2450
  136MOL0     C18246  -0.092   6.163   3.202 -0.4630  0.7561  0.1745
  136MOL0     C18247  -0.106   6.007   3.235  0.4978 -0.2204  0.1263
  136MOL0     C18248  -0.195   5.982   3.357 -0.0569 -0.3418 -0.1428
  136MOL0     O18249  -0.310   6.064   3.356 -0.1457 -0.6045  0.0933
  136MOL0     C18250  -0.398   6.073   3.462  0.3886 -0.2892 -0.3131
  136MOL0     C18251  -0.463   6.195   3.471 -0.3934 -0.5435 -0.0191
  136MOL0     C18252  -0.551   6.215   3.574  0.8396 -0.0021  0.3221
  136MOL0     C18253  -0.627   6.341   3.583 -0.6872 -0.5215  0.7581
  136MOL0     C18254  -0.578   6.114   3.669  0.2664 -0.1810  0.4866
  136MOL0     C18255  -0.674   6.129   3.780  0.7196  0.9350  0.7964
  136MOL0     O18256  -0.787   6.049   3.768  0.9828  0.2909  0.2719
  136MOL0     C18257  -0.902   6.067   3.846 -0.0570  0.4166 -0.2141
  136MOL0     C18258  -0.884   6.054   3.982  0.3995 -0.4472 -0.0450
  136MOL0     C18259  -1.002   6.063   4.060 -0.6780 -0.2584  0.7615
  136MOL0     C18260  -1.130   6.076   4.002 -0.3265  0.7308  1.0017
  136MOL0     O18261  -1.242   6.067   4.080  0.1128 -0.0104  0.0959
  136MOL0     C18262  -1.231   6.021   4.213 -0.4163 -0.1029  0.4801
  136MOL0     C18263  -1.361   5.977   4.265 -0.7517  0.0747 -0.3487
  136MOL0     C18264  -1.457   6.093   4.265 -0.0607  0.5987 -1.1413
  136MOL0     C18265  -1.578   6.063   4.350 -0.2150  0.2586 -0.6944
  136MOL0     C18266  -1.678   6.176   4.352  0.1743 -0.6694 -0.5994
  136MOL0     C18267  -1.798   6.157   4.441 -0.2420  0.3197  0.6151
  136MOL0     C18268  -1.897   6.277   4.430 -0.2775  0.8275  0.3406
  136MOL0     C18269  -1.977   6.297   4.553  0.9949  0.5374  0.1694
  136MOL0    Cl18270  -2.101   6.178   4.561 -0.0528 -0.0116 -0.1073
  136MOL0     C18271  -1.144   6.087   3.865 -0.5472  0.1069  0.8393
  136MOL0     C18272  -1.026   6.079   3.787 -0.6101 -0.1431 -0.5092
  136MOL0     O18273  -0.654   6.226   3.857 -0.5249  0.6545 -0.5131
  136MOL0     C18274  -0.513   5.994   3.657 -0.5411  0.1699 -0.7693
  136MOL0     C18275  -0.429   5.972   3.553 -0.0632 -0.1518 -0.9709
  136MOL0     N18276   0.211   6.217   3.255  0.2791  0.4434  0.0390
  136MOL0     N18277   0.326   6.154   3.269 -0.0725  0.0970  0.0847
  136MOL0     C18278   1.541   5.862   3.533 -0.1175  0.3640 -0.7852
  136MOL0     C18279   1.663   5.929   3.542 -0.0777 -0.1211 -0.3936
  136MOL0     C18280   1.970   6.251   3.434  0.0146 -0.0566  0.4409
  136MOL0     C18281   1.920   6.377   3.476 -0.0776 -0.8345 -0.6717
  136MOL0     C18282   2.003   6.483   3.481 -0.4904 -0.1798  0.1949
  136MOL0     C18283   2.134   6.488   3.431  0.0543 -0.5748 -0.5338
  136MOL0     O18284   2.194   6.607   3.446 -0.1169  0.4020 -0.5778
  136MOL0     C18285   2.335   6.617   3.411  0.4255 -0.4646 -0.0838
  136MOL0     C18286   2.388   6.751   3.476 -0.5518 -0.1714  1.1196
  136MOL0     C18287   2.357   6.872   3.381  0.0206 -0.6101 -0.5453
  136MOL0     C18288   2.437   6.996   3.425 -0.2221  0.2326 -0.9426
  136MOL0     C18289   2.580   6.992   3.422  0.2882 -0.1679 -0.7320
  136MOL0     C18290   2.699   6.973   3.416 -0.3184  0.0366 -0.3654
  136MOL0     C18291   2.182   6.371   3.384 -0.6762 -0.0307 -0.4261
  136MOL0     C18292   2.103   6.253   3.381  0.0952  0.3914 -0.2334
  136MOL0     H18293   1.574   6.233   3.430  0.4933  0.6159 -0.9438
  136MOL0     H18294   1.353   6.118   3.431  1.2285  1.7589 -0.4270
  136MOL0     H18295   1.127   5.858   3.553 -1.7390  0.3803 -0.3171
  136MOL0     H18296   1.178   6.024   3.518 -1.1957  0.1542 -2.1070
  136MOL0     H18297   1.215   5.957   3.285 -0.4800 -0.4537 -0.2901
  136MOL0     H18298   1.132   5.808   3.323 -0.4280 -0.3004 -0.0775
  136MOL0     H18299   0.946   5.946   3.438  0.1885 -1.7654  0.3464
  136MOL0     H18300   1.012   6.083   3.343  0.3136 -0.1608  1.8698
  136MOL0     H18301   0.965   5.960   3.133 -0.6656  0.1971 -0.3248
  136MOL0     H18302   0.931   5.812   3.233 -1.1228 -0.1949 -0.1858
  136MOL0     H18303   0.711   5.915   3.282  0.6283 -1.1130 -1.0534
  136MOL0     H18304   0.765   6.080   3.237 -1.8839  0.2885  0.7182
  136MOL0     H18305   0.774   6.000   2.992  0.6708 -2.0647 -0.9413
  136MOL0     H18306   0.688   5.855   3.057  0.5997 -0.1787  1.6187
  136MOL0     H18307   0.596   6.150   3.093  1.3199  0.3395 -1.6955
  136MOL0     H18308   0.543   6.056   2.950  2.1525  1.3757 -0.5009
  136MOL0     H18309   0.519   5.962   3.236 -1.2986  0.8415  0.5585
  136MOL0     H18310   0.427   5.888   3.104 -1.1771  0.0636  1.2667
  136MOL0     H18311   0.231   5.996   3.007  2.1927  1.3909 -2.6486
  136MOL0     H18312  -0.010   6.296   3.069 -0.4252  0.0845  1.5609
  136MOL0     H18313  -0.023   6.130   3.005 -1.3303  2.8370 -2.1248
  136MOL0     H18314  -0.191   6.204   3.181 -0.9509  0.9923  2.7020
  136MOL0     H18315  -0.053   6.219   3.288 -0.6573  2.0206 -0.5268
  136MOL0     H18316  -0.007   5.967   3.258  0.0246 -0.7461  1.3150
  136MOL0     H18317  -0.134   5.960   3.140  2.6131 -1.0590 -0.1589
  136MOL0     H18318  -0.142   6.008   3.449  0.6580  1.8783 -1.1214
  136MOL0     H18319  -0.218   5.875   3.364  2.8279 -0.9322  2.7445
  136MOL0     H18320  -0.441   6.269   3.394  0.4602 -1.0521 -0.2761
  136MOL0     H18321  -0.611   6.391   3.679  0.0368  1.9657 -0.5605
  136MOL0     H18322  -0.606   6.411   3.502 -2.5757 -1.9356 -1.0614
  136MOL0     H18323  -0.730   6.307   3.570 -1.3608  1.0389  1.6928
  136MOL0     H18324  -0.786   6.052   4.029  1.3359  1.8716 -1.7162
  136MOL0     H18325  -0.989   6.060   4.168 -1.9886  1.8596  1.0427
  136MOL0     H18326  -1.154   5.943   4.221  1.5525  1.5630 -0.8577
  136MOL0     H18327  -1.193   6.105   4.271  0.3837 -0.1875  0.0936
  136MOL0     H18328  -1.404   5.890   4.215  1.1194 -3.0429  2.9468
  136MOL0     H18329  -1.341   5.934   4.364 -0.1074  1.3375  0.0897
  136MOL0     H18330  -1.501   6.114   4.167 -2.4593  0.9412 -0.0788
  136MOL0     H18331  -1.404   6.183   4.299  1.7086  0.3939 -3.1576
  136MOL0     H18332  -1.619   5.967   4.319  1.9849 -2.0684  2.9480
  136MOL0     H18333  -1.545   6.051   4.453 -0.0243 -1.1144 -0.9041
  136MOL0     H18334  -1.723   6.192   4.253  1.9380  2.8880 -0.9939
  136MOL0     H18335  -1.626   6.263   4.393  0.8659 -1.4310  0.1591
  136MOL0     H18336  -1.843   6.060   4.415  0.3268 -0.8315  3.5751
  136MOL0     H18337  -1.770   6.143   4.546  1.7076 -0.3189  0.0587
  136MOL0     H18338  -1.967   6.279   4.346 -0.2482 -0.6400  0.2644
  136MOL0     H18339  -1.835   6.368   4.430  0.9357  0.0626  2.2920
  136MOL0     H18340  -2.020   6.397   4.541 -1.9764 -0.7014 -0.4515
  136MOL0     H18341  -1.918   6.289   4.645 -0.7226  1.3931  1.4042
  136MOL0     H18342  -1.241   6.077   3.817  0.0357 -1.7248 -0.0252
  136MOL0     H18343  -1.028   6.067   3.679  2.0077  0.1465 -0.6441
  136MOL0     H18344  -0.524   5.911   3.726 -3.5813 -0.2539 -1.5823
  136MOL0     H18345  -0.373   5.879   3.546 -1.4352 -1.0438 -0.4543
  136MOL0     H18346   1.544   5.755   3.551  1.3205  0.8705  2.8059
  136MOL0     H18347   1.753   5.883   3.582  0.3713  1.8349  1.0052
  136MOL0     H18348   1.818   6.386   3.514 -0.0132 -0.0340 -0.6751
  136MOL0     H18349   1.968   6.582   3.510  0.4316  0.2752 -0.2097
  136MOL0     H18350   2.399   6.538   3.450  3.0255 -0.0013 -2.9783
  136MOL0     H18351   2.341   6.626   3.302 -3.6359 -2.4599 -0.6700
  136MOL0     H18352   2.497   6.742   3.480 -0.1556  1.7586 -2.1695
  136MOL0     H18353   2.342   6.761   3.575 -1.5196 -1.2145  0.8021
  136MOL0     H18354   2.250   6.891   3.395  0.1238 -2.0783  3.7146
  136MOL0     H18355   2.385   6.841   3.280 -0.9271  1.2531 -1.4063
  136MOL0     H18356   2.400   7.020   3.525  4.7169 -3.1481  2.1088
  136MOL0     H18357   2.417   7.088   3.369  2.8295  1.9112  0.4818
  136MOL0     H18358   2.802   6.951   3.395  0.2297  2.2369 -0.2203
  136MOL0     H18359   2.285   6.368   3.348  0.3844  2.4696  1.9683
  136MOL0     H18360   2.149   6.163   3.341  0.9079 -0.1953  1.8411
  137MOL0     O18361   3.137   3.269   9.224 -0.1228  0.2411  0.4768
  137MOL0     C18362   3.135   3.372   9.149 -0.1463  0.5990 -0.4134
  137MOL0     O18363   3.033   3.427   9.088  0.5444 -0.2822 -0.6587
  137MOL0     C18364   2.907   3.372   9.119 -0.0289 -0.7444  0.3235
  137MOL0     C18365   2.826   3.446   9.200 -0.3098 -0.0074 -0.4543
  137MOL0     C18366   2.706   3.399   9.235 -0.1244  0.5189 -0.3257
  137MOL0     C18367   2.661   3.279   9.192  0.7988  0.9870  0.5334
  137MOL0     O18368   2.529   3.229   9.206 -0.4014  0.1826 -0.0231
  137MOL0     C18369   2.447   3.265   9.312 -0.1470 -0.1562 -0.0174
  137MOL0     C18370   2.302   3.207   9.300 -0.1851  0.1830 -0.6977
  137MOL0     C18371   2.205   3.230   9.418  0.1384  0.2521 -0.8103
  137MOL0     C18372   2.068   3.164   9.386 -0.2938 -0.0248  0.4516
  137MOL0     C18373   1.977   3.186   9.509  0.2675 -0.8705 -0.4164
  137MOL0     C18374   1.828   3.142   9.476 -1.2077 -0.3422  0.3774
  137MOL0     C18375   1.746   3.133   9.605 -0.3106  0.0409 -0.5596
  137MOL0     C18376   1.722   3.271   9.672  0.3298 -0.6013  0.3240
  137MOL0     N18377   1.598   3.266   9.750  0.0490  0.3302 -0.7870
  137MOL0     C18378   1.474   3.274   9.693  0.5355 -0.3042 -0.3469
  137MOL0     C18379   1.390   3.263   9.805 -0.5204 -0.5806 -0.1149
  137MOL0     C18380   1.250   3.275   9.828 -0.0323 -0.4159  0.5151
  137MOL0     C18381   1.184   3.164   9.751 -0.5155  0.5409  0.4991
  137MOL0     C18382   1.030   3.167   9.768  0.1052  0.3319  0.7169
  137MOL0     C18383   0.963   3.038   9.730  0.4874  0.8506 -0.0405
  137MOL0     O18384   0.828   3.051   9.766  0.3851 -0.7961  0.0828
  137MOL0     C18385   0.728   2.981   9.701  0.2046  0.7629  0.4490
  137MOL0     C18386   0.756   2.876   9.616  0.1931 -0.6750 -0.4603
  137MOL0     C18387   0.659   2.820   9.535  0.0620 -0.2949  0.1555
  137MOL0     C18388   0.700   2.721   9.431 -0.1778  0.6677  0.8130
  137MOL0     C18389   0.516   2.846   9.557 -1.3367 -0.8465  1.1724
  137MOL0     C18390   0.396   2.787   9.487 -0.1233  1.0159 -0.0514
  137MOL0     O18391   0.405   2.738   9.360 -0.5728  0.1509  0.3586
  137MOL0     C18392   0.297   2.686   9.294 -0.6059  0.0194 -0.1613
  137MOL0     C18393   0.190   2.764   9.250 -0.1279  0.4979 -0.0248
  137MOL0     C18394   0.081   2.707   9.178 -0.3506 -0.6092  0.2121
  137MOL0     C18395   0.085   2.566   9.157  0.9707  0.2124 -0.4639
  137MOL0     O18396   0.004   2.498   9.077  1.0536 -0.2851  0.1462
  137MOL0     C18397  -0.080   2.577   8.993 -0.6600 -0.2722  0.3991
  137MOL0     C18398  -0.176   2.493   8.918  0.5675  0.1360 -0.8472
  137MOL0     C18399  -0.120   2.433   8.787 -0.1650 -0.1899  1.3506
  137MOL0     C18400  -0.209   2.320   8.742 -0.1390  0.5445 -0.3299
  137MOL0     C18401  -0.132   2.231   8.647  0.9380  0.2465 -0.0522
  137MOL0     C18402  -0.232   2.136   8.588 -0.1610 -0.3233 -0.3251
  137MOL0     C18403  -0.179   2.018   8.508 -0.3865  0.2849 -1.1047
  137MOL0     C18404  -0.285   1.912   8.482 -0.1753 -0.3208  0.2362
  137MOL0    Cl18405  -0.317   1.805   8.615  0.4755  0.0973 -0.2358
  137MOL0     C18406   0.186   2.493   9.204 -0.7473  0.5762 -0.2310
  137MOL0     C18407   0.291   2.547   9.284  0.1286 -0.8665 -0.5845
  137MOL0     O18408   0.298   2.772   9.555 -0.6083  0.1873  0.5576
  137MOL0     C18409   0.487   2.945   9.651  0.2924  0.3448 -0.6792
  137MOL0     C18410   0.592   3.014   9.718 -0.1518  0.1722  0.0217
  137MOL0     N18411   1.470   3.261   9.919 -0.3127  0.0012 -0.7446
  137MOL0     N18412   1.598   3.249   9.887  0.1878 -0.5537 -0.2090
  137MOL0     C18413   2.738   3.197   9.105 -0.4559 -0.7143 -0.1244
  137MOL0     C18414   2.865   3.247   9.074 -0.0842  0.1221  0.3685
  137MOL0     C18415   3.252   3.460   9.160  0.7577  0.8713  0.7056
  137MOL0     C18416   3.252   3.589   9.112 -0.5384  0.0947 -0.2737
  137MOL0     C18417   3.360   3.670   9.132 -0.6689 -0.3785 -1.1664
  137MOL0     C18418   3.479   3.624   9.183  0.6584 -0.1629  0.2104
  137MOL0     O18419   3.585   3.714   9.176 -0.1927  0.5255  0.2280
  137MOL0     C18420   3.713   3.658   9.203 -0.3237  0.5043  0.7277
  137MOL0     C18421   3.819   3.772   9.205 -0.0125  0.6703 -0.0261
  137MOL0     C18422   3.955   3.733   9.274  0.0940 -0.0949 -0.0639
  137MOL0     C18423   4.062   3.837   9.248  0.1577 -0.0567 -0.6149
  137MOL0     C18424   4.048   3.968   9.325 -0.4843  0.9148 -0.1254
  137MOL0     C18425   4.032   4.060   9.403  0.9226 -0.0034  0.2601
  137MOL0     C18426   3.483   3.494   9.227 -0.3416  0.5744  0.4625
  137MOL0     C18427   3.369   3.411   9.216  0.4550 -1.3012  0.8318
  137MOL0     H18428   2.857   3.546   9.232 -3.1221  1.1633 -1.1113
  137MOL0     H18429   2.647   3.466   9.296  2.5286  1.8540  0.9286
  137MOL0     H18430   2.496   3.231   9.404 -1.8953 -0.1221  0.9718
  137MOL0     H18431   2.436   3.374   9.311  0.6385 -0.0574  0.8189
  137MOL0     H18432   2.263   3.256   9.211  3.5546  1.4758 -1.8300
  137MOL0     H18433   2.312   3.100   9.276 -1.3180  0.7037 -4.0210
  137MOL0     H18434   2.251   3.197   9.511 -0.9126  1.7203  0.2783
  137MOL0     H18435   2.186   3.338   9.422  0.7739  0.3392  0.3843
  137MOL0     H18436   2.023   3.210   9.298  1.6413  0.5174 -0.3078
  137MOL0     H18437   2.088   3.058   9.369  0.3753 -0.1808  1.9641
  137MOL0     H18438   2.009   3.126   9.594 -0.9477  0.5968  1.1503
  137MOL0     H18439   1.975   3.291   9.540 -1.2104 -0.4304 -1.8440
  137MOL0     H18440   1.783   3.214   9.406 -1.1745  2.3759  2.9577
  137MOL0     H18441   1.833   3.040   9.438  2.1931 -1.8790  4.2392
  137MOL0     H18442   1.649   3.089   9.577 -1.6730  0.3312  3.1054
  137MOL0     H18443   1.799   3.067   9.673  0.0021  2.8366  2.1315
  137MOL0     H18444   1.724   3.353   9.601 -1.3905 -0.5751  0.2647
  137MOL0     H18445   1.809   3.302   9.731 -1.3727  4.0593  0.7567
  137MOL0     H18446   1.442   3.307   9.595 -1.0887  0.5162  0.4044
  137MOL0     H18447   1.228   3.273   9.935  0.4033  1.3759  0.6748
  137MOL0     H18448   1.228   3.375   9.789  0.6871 -0.5236 -0.2014
  137MOL0     H18449   1.208   3.065   9.793 -0.8220  0.6021  0.8260
  137MOL0     H18450   1.213   3.159   9.646 -0.5434 -0.5714  0.5299
  137MOL0     H18451   0.990   3.247   9.706 -0.3103 -1.5979 -1.6822
  137MOL0     H18452   1.004   3.187   9.872  0.5757 -4.5098  2.0324
  137MOL0     H18453   1.003   2.949   9.778 -2.2736 -0.4641  0.0071
  137MOL0     H18454   0.967   3.035   9.621 -0.8999 -0.6666 -0.0829
  137MOL0     H18455   0.853   2.829   9.608 -0.0698 -1.0004 -2.2470
  137MOL0     H18456   0.670   2.617   9.445  0.7366  0.6450  2.9164
  137MOL0     H18457   0.654   2.750   9.336  1.1861 -0.5656 -0.2721
  137MOL0     H18458   0.808   2.729   9.418 -0.1623 -0.4774  0.1389
  137MOL0     H18459   0.189   2.867   9.285  2.5651  0.3224  0.8556
  137MOL0     H18460  -0.006   2.758   9.139 -2.2630 -3.3930  0.4682
  137MOL0     H18461  -0.142   2.642   9.056  0.7225  0.2263  1.2775
  137MOL0     H18462  -0.023   2.639   8.923 -1.6003 -0.5365 -0.6254
  137MOL0     H18463  -0.219   2.420   8.987 -0.5134  0.7755 -0.8105
  137MOL0     H18464  -0.268   2.545   8.888 -0.7057 -2.5720 -1.9456
  137MOL0     H18465  -0.028   2.378   8.808 -1.1217 -3.0359 -1.1986
  137MOL0     H18466  -0.106   2.521   8.724 -0.7301 -0.1187  1.3151
  137MOL0     H18467  -0.241   2.269   8.833 -0.3122  2.1068  0.5129
  137MOL0     H18468  -0.302   2.361   8.703 -3.0808 -3.8938  1.2797
  137MOL0     H18469  -0.046   2.185   8.698  1.1511  1.3517  0.5995
  137MOL0     H18470  -0.099   2.299   8.568 -1.2407  0.0458 -1.2278
  137MOL0     H18471  -0.286   2.094   8.673  0.1648 -3.2871 -1.4600
  137MOL0     H18472  -0.294   2.194   8.518  0.5412  0.4579 -0.3199
  137MOL0     H18473  -0.101   1.986   8.578 -0.7535  0.2648 -0.6999
  137MOL0     H18474  -0.149   2.056   8.410 -0.3774 -0.1739 -1.2842
  137MOL0     H18475  -0.254   1.861   8.390 -0.3782  1.9289 -1.1778
  137MOL0     H18476  -0.379   1.962   8.455 -1.4552 -1.6357  2.0706
  137MOL0     H18477   0.194   2.388   9.179  0.7234  0.9632 -1.5044
  137MOL0     H18478   0.382   2.493   9.311  1.0279  0.4280 -0.9251
  137MOL0     H18479   0.387   2.971   9.684  0.3193 -0.1526 -0.2045
  137MOL0     H18480   0.561   3.098   9.779 -1.4948  0.5648 -1.1636
  137MOL0     H18481   2.700   3.099   9.076 -0.3609 -0.4705 -1.0935
  137MOL0     H18482   2.917   3.180   9.007  0.4361  0.7357  0.1560
  137MOL0     H18483   3.174   3.633   9.050 -2.8625  1.6971  3.4611
  137MOL0     H18484   3.361   3.772   9.096  0.6659  0.7126  1.6236
  137MOL0     H18485   3.721   3.612   9.301 -1.0577  0.8998  0.9800
  137MOL0     H18486   3.746   3.587   9.126  2.0043  2.9854 -0.7389
  137MOL0     H18487   3.765   3.857   9.248  0.5332  1.8385 -1.5267
  137MOL0     H18488   3.834   3.789   9.098 -2.2087  1.1315 -0.3078
  137MOL0     H18489   3.991   3.640   9.229 -0.2114  0.8135 -2.3048
  137MOL0     H18490   3.947   3.713   9.381  1.2251 -0.7075 -0.0699
  137MOL0     H18491   4.074   3.858   9.141 -0.0444  0.2174 -0.5839
  137MOL0     H18492   4.157   3.792   9.281  0.2521  0.4869 -0.1443
  137MOL0     H18493   4.023   4.142   9.471 -0.4850 -0.2821  0.4490
  137MOL0     H18494   3.573   3.456   9.274 -0.9624 -1.0641  0.3883
  137MOL0     H18495   3.369   3.308   9.250 -0.4207 -1.2652  0.9640
  138MOL0     O18496   9.713   1.411   3.752 -0.3511  0.1116 -0.1720
  138MOL0     C18497   9.652   1.309   3.741  1.0616 -0.0486 -0.0268
  138MOL0     O18498   9.540   1.288   3.668 -0.0876  0.2541 -0.5319
  138MOL0     C18499   9.467   1.396   3.607 -0.0769  0.5307 -0.1884
  138MOL0     C18500   9.330   1.381   3.587 -0.0165 -0.1666 -0.2183
  138MOL0     C18501   9.256   1.485   3.531 -0.2688 -0.3511  1.4156
  138MOL0     C18502   9.317   1.599   3.478 -0.0771  0.2462 -0.0298
  138MOL0     O18503   9.252   1.692   3.398  0.2602 -0.5344 -0.2343
  138MOL0     C18504   9.122   1.659   3.344 -0.1119  0.0983  0.0917
  138MOL0     C18505   9.086   1.772   3.257  0.6200  0.1496 -0.5187
  138MOL0     C18506   8.961   1.751   3.168 -0.4195 -0.2249  0.6946
  138MOL0     C18507   8.892   1.882   3.121 -0.0669  0.0512 -0.0121
  138MOL0     C18508   8.766   1.839   3.037 -0.8312 -0.0415 -0.6531
  138MOL0     C18509   8.728   1.962   2.954 -0.2579 -0.0618  0.4392
  138MOL0     C18510   8.633   1.922   2.840 -0.8992  0.2206  0.1414
  138MOL0     C18511   8.488   1.902   2.884 -0.1652 -0.3235 -0.5232
  138MOL0     N18512   8.426   2.032   2.944 -0.3077  0.5320  0.0238
  138MOL0     C18513   8.371   2.131   2.867  0.0150  0.6314  0.8759
  138MOL0     C18514   8.326   2.218   2.951 -0.0872 -0.2022  0.3246
  138MOL0     C18515   8.288   2.354   2.915 -0.6746  0.2911  0.1343
  138MOL0     C18516   8.146   2.377   2.854 -0.3967  0.2042  0.6542
  138MOL0     C18517   8.033   2.384   2.955  0.0071 -0.3784  0.7978
  138MOL0     C18518   7.902   2.388   2.878  1.4818  0.4727 -0.3307
  138MOL0     O18519   7.790   2.393   2.970  1.0457  0.4555 -0.4659
  138MOL0     C18520   7.670   2.328   2.944  0.5484 -0.5220 -0.5763
  138MOL0     C18521   7.622   2.302   2.810 -0.2677 -0.5412 -0.1871
  138MOL0     C18522   7.506   2.224   2.795  0.2247  0.2749 -0.9230
  138MOL0     C18523   7.475   2.182   2.658  0.1458  0.4270  0.2820
  138MOL0     C18524   7.426   2.180   2.912 -0.3545 -0.9807  0.4404
  138MOL0     C18525   7.290   2.124   2.905 -1.5004 -0.1090 -0.1124
  138MOL0     O18526   7.242   2.074   3.021 -0.1899 -0.3135 -0.4635
  138MOL0     C18527   7.123   2.007   3.023  0.0589  0.2020 -0.5082
  138MOL0     C18528   7.004   2.076   3.025  0.4454  0.3976  1.1383
  138MOL0     C18529   6.889   2.004   3.037 -0.0812  0.1222 -0.5950
  138MOL0     C18530   6.885   1.863   3.047 -0.2267  0.8200  0.6823
  138MOL0     O18531   6.776   1.779   3.067 -0.0262  0.5155  0.2151
  138MOL0     C18532   6.647   1.835   3.075  0.0477  0.1020  0.4315
  138MOL0     C18533   6.559   1.741   3.169 -0.4100 -0.8108  1.0254
  138MOL0     C18534   6.423   1.807   3.200  0.1574  0.3644  0.6251
  138MOL0     C18535   6.346   1.728   3.304 -0.4080 -0.1329  0.3354
  138MOL0     C18536   6.272   1.828   3.401 -0.0040  0.3903  0.1505
  138MOL0     C18537   6.141   1.871   3.339  0.8502  0.5457 -0.5499
  138MOL0     C18538   6.067   1.964   3.434 -0.7523  0.6560  0.3061
  138MOL0     C18539   5.949   2.048   3.373  0.0739 -1.0733  0.9518
  138MOL0    Cl18540   6.020   2.182   3.281  0.5210  0.3314  0.0195
  138MOL0     C18541   7.014   1.793   3.054  0.0701 -0.2604  0.3676
  138MOL0     C18542   7.128   1.873   3.047 -0.4238  0.0915 -0.2344
  138MOL0     O18543   7.235   2.124   2.800  0.2290  0.3892  0.1524
  138MOL0     C18544   7.482   2.206   3.036 -0.4322  0.0872  0.0635
  138MOL0     C18545   7.601   2.265   3.055 -0.5379 -0.9427  0.6460
  138MOL0     N18546   8.355   2.175   3.080  0.9892  0.3346  0.5651
  138MOL0     N18547   8.405   2.053   3.076  0.1035 -1.0675  0.6310
  138MOL0     C18548   9.457   1.607   3.493  0.3674 -0.7521 -0.1380
  138MOL0     C18549   9.532   1.507   3.554  0.2904  0.5185  0.7884
  138MOL0     C18550   9.698   1.192   3.819  0.4635 -0.0848 -0.7299
  138MOL0     C18551   9.614   1.077   3.834 -0.7296 -0.3097  0.3193
  138MOL0     C18552   9.665   0.967   3.908 -0.0151 -0.2906 -0.4288
  138MOL0     C18553   9.788   0.958   3.965  0.3989  0.0544  0.6241
  138MOL0     O18554   9.814   0.852   4.047  0.7487  0.1212 -1.0094
  138MOL0     C18555   9.942   0.826   4.107  0.2172  0.5160 -0.4901
  138MOL0     C18556  10.025   0.742   4.006 -0.1666 -0.3745 -0.1441
  138MOL0     C18557  10.139   0.677   4.069 -0.1573  0.5076  0.2145
  138MOL0     C18558  10.213   0.754   4.177  0.1872  0.3779  0.3573
  138MOL0     C18559  10.334   0.680   4.233 -0.2220 -0.1490  0.5471
  138MOL0     C18560  10.440   0.616   4.258  0.2714 -1.4528  0.2141
  138MOL0     C18561   9.871   1.068   3.954 -0.2035  0.2498 -0.2549
  138MOL0     C18562   9.823   1.183   3.881 -0.2764  0.8028 -0.1643
  138MOL0     H18563   9.286   1.288   3.622 -2.1436  0.4862 -0.9937
  138MOL0     H18564   9.147   1.484   3.532 -0.2729 -1.8389  1.2189
  138MOL0     H18565   9.123   1.574   3.275 -0.1892  0.5893 -0.5242
  138MOL0     H18566   9.034   1.664   3.409 -3.6594 -1.9183 -4.0758
  138MOL0     H18567   9.066   1.860   3.319 -1.2660  0.5767 -1.6523
  138MOL0     H18568   9.165   1.798   3.186  2.0103 -1.2433  0.4684
  138MOL0     H18569   8.968   1.678   3.086 -2.3068 -2.1936  2.1933
  138MOL0     H18570   8.892   1.692   3.228 -4.1891  2.8612 -0.2321
  138MOL0     H18571   8.867   1.936   3.213  0.8456  0.7162 -0.1428
  138MOL0     H18572   8.968   1.940   3.067  1.4450  1.2609  3.1467
  138MOL0     H18573   8.786   1.760   2.965  1.6816  2.1029 -2.4664
  138MOL0     H18574   8.685   1.807   3.105 -0.8537  0.5640 -0.3857
  138MOL0     H18575   8.679   2.032   3.022 -1.2883 -0.9210  0.6231
  138MOL0     H18576   8.818   2.003   2.909 -0.7013  2.7024  1.8641
  138MOL0     H18577   8.624   2.004   2.768  2.7694 -0.0243 -0.7954
  138MOL0     H18578   8.661   1.830   2.788  0.8821  0.7800  0.0269
  138MOL0     H18579   8.497   1.825   2.961 -1.4429 -1.7543 -1.7146
  138MOL0     H18580   8.411   1.870   2.813 -4.7016  1.1545  3.2129
  138MOL0     H18581   8.376   2.138   2.759 -2.0517 -1.4858  0.5694
  138MOL0     H18582   8.306   2.421   3.000  1.7960  0.0114 -0.0871
  138MOL0     H18583   8.371   2.374   2.847 -0.3976 -1.8697 -0.2151
  138MOL0     H18584   8.134   2.308   2.770 -0.9219  0.9263  0.1176
  138MOL0     H18585   8.150   2.477   2.809 -1.3676  0.9569  2.1591
  138MOL0     H18586   8.047   2.477   3.010  3.5551 -0.4860  0.3195
  138MOL0     H18587   8.047   2.307   3.032  2.3164  1.0623  1.9291
  138MOL0     H18588   7.897   2.287   2.836 -2.2391  0.7962 -0.9929
  138MOL0     H18589   7.894   2.471   2.806 -0.6071  1.0025  0.4353
  138MOL0     H18590   7.691   2.334   2.732  0.9564  0.9521  1.4215
  138MOL0     H18591   7.400   2.254   2.625 -0.6907  0.2513  1.7088
  138MOL0     H18592   7.562   2.178   2.591 -0.2911  1.6899 -0.3904
  138MOL0     H18593   7.435   2.080   2.662  0.7576  0.1323 -0.7903
  138MOL0     H18594   6.998   2.182   3.005  2.0972  0.2141 -0.5998
  138MOL0     H18595   6.802   2.069   3.041 -1.5492 -1.7366 -0.5793
  138MOL0     H18596   6.648   1.942   3.102  0.5094  0.3080 -0.3742
  138MOL0     H18597   6.603   1.832   2.975  1.2683 -1.7367 -0.0998
  138MOL0     H18598   6.549   1.648   3.112  0.1733 -0.5734  0.5171
  138MOL0     H18599   6.603   1.722   3.267  1.8192 -2.0316 -0.1269
  138MOL0     H18600   6.364   1.823   3.109  2.4380  2.7279 -0.5707
  138MOL0     H18601   6.435   1.912   3.230  2.7220 -0.1010  1.4839
  138MOL0     H18602   6.272   1.670   3.246  0.2255  1.0871 -1.8012
  138MOL0     H18603   6.411   1.660   3.359  0.8942  0.3854 -0.5058
  138MOL0     H18604   6.331   1.915   3.430 -0.5177 -0.2880  3.7439
  138MOL0     H18605   6.251   1.766   3.489  0.2266 -0.3199 -0.2823
  138MOL0     H18606   6.168   1.923   3.246  3.5929 -0.4495 -0.3932
  138MOL0     H18607   6.081   1.781   3.323 -1.5968  1.7540  1.1237
  138MOL0     H18608   6.136   2.034   3.482 -0.9026 -0.9288  3.0774
  138MOL0     H18609   6.033   1.899   3.516  0.8799 -1.0483 -0.2870
  138MOL0     H18610   5.897   2.090   3.460  1.7644  1.1175  0.9971
  138MOL0     H18611   5.892   1.987   3.302  1.7479  0.9290 -2.3663
  138MOL0     H18612   7.019   1.685   3.060  0.2278 -0.2471  0.4705
  138MOL0     H18613   7.212   1.812   3.081 -1.0896  0.3263  2.0299
  138MOL0     H18614   7.430   2.184   3.130 -0.4777 -0.8501 -0.1711
  138MOL0     H18615   7.656   2.287   3.146  2.1572 -0.5829 -0.9533
  138MOL0     H18616   9.509   1.695   3.456 -3.9301  1.3998 -1.7213
  138MOL0     H18617   9.637   1.533   3.561  0.6308  0.0737 -1.7055
  138MOL0     H18618   9.522   1.080   3.778 -1.8231 -0.6886  2.0114
  138MOL0     H18619   9.600   0.884   3.934  1.1877 -1.4621 -1.0715
  138MOL0     H18620   9.991   0.920   4.132 -0.0237  0.9477 -1.6041
  138MOL0     H18621   9.922   0.769   4.198 -1.6397 -1.1959 -1.8705
  138MOL0     H18622  10.051   0.807   3.922 -1.4832 -0.7311 -0.8626
  138MOL0     H18623   9.959   0.665   3.963 -0.1197 -0.7670  0.4753
  138MOL0     H18624  10.207   0.638   3.992  1.7087  1.1265  1.4735
  138MOL0     H18625  10.109   0.585   4.121  0.8635 -1.8137 -2.9566
  138MOL0     H18626  10.152   0.774   4.266  0.9858 -1.6759  1.4629
  138MOL0     H18627  10.248   0.842   4.123 -2.4485  1.9112  1.0138
  138MOL0     H18628  10.531   0.560   4.254 -0.8727 -3.2978 -1.4129
  138MOL0     H18629   9.968   1.084   3.998  0.3475  1.6409 -1.8468
  138MOL0     H18630   9.885   1.272   3.875  0.6370  0.1249 -1.2080
  139MOL0     O18631  11.064   8.389   5.242 -0.5200  0.2433  0.2273
  139MOL0     C18632  11.084   8.511   5.201 -0.1522  0.1660 -0.1632
  139MOL0     O18633  10.985   8.604   5.176  0.3786 -0.6482 -0.6453
  139MOL0     C18634  10.860   8.554   5.191  0.0789 -0.2815  0.5815
  139MOL0     C18635  10.808   8.487   5.079 -0.0756  0.0694  0.8439
  139MOL0     C18636  10.701   8.403   5.094  0.0166 -0.1725  0.6112
  139MOL0     C18637  10.630   8.399   5.220  0.2275  0.2367  0.0820
  139MOL0     O18638  10.516   8.324   5.236 -0.1096  0.5113 -1.0372
  139MOL0     C18639  10.448   8.260   5.126 -0.5478 -0.2286 -0.0881
  139MOL0     C18640  10.311   8.217   5.188  0.2914 -0.0667 -0.7460
  139MOL0     C18641  10.205   8.161   5.080  0.3224 -0.2922  0.6760
  139MOL0     C18642  10.072   8.171   5.145  0.7457  0.2002 -0.5406
  139MOL0     C18643   9.947   8.128   5.055  0.0215 -0.8701 -0.4129
  139MOL0     C18644   9.816   8.187   5.098  0.3910 -0.6291  0.7224
  139MOL0     C18645   9.698   8.125   5.023  0.5806 -0.7701 -0.2292
  139MOL0     C18646   9.566   8.206   5.043  0.8497 -0.2231 -0.0437
  139MOL0     N18647   9.452   8.128   4.988 -0.1858  0.6615  0.0643
  139MOL0     C18648   9.431   8.119   4.854  0.7832  0.4969  0.4280
  139MOL0     C18649   9.329   8.036   4.837  0.4413  0.1142 -0.3492
  139MOL0     C18650   9.261   8.002   4.709 -0.0191 -0.5511  0.8784
  139MOL0     C18651   9.112   8.029   4.713 -0.6044 -0.6332  0.1851
  139MOL0     C18652   9.061   8.175   4.733  1.0381  0.5275 -0.4144
  139MOL0     C18653   8.907   8.185   4.722 -0.2826 -0.1529 -0.1212
  139MOL0     O18654   8.834   8.087   4.798  0.4065  0.0808 -0.8420
  139MOL0     C18655   8.694   8.106   4.804  0.4089  0.0902 -1.1990
  139MOL0     C18656   8.620   8.009   4.878 -0.1244 -0.6580  0.6683
  139MOL0     C18657   8.483   7.991   4.869 -0.3495  0.1922 -0.2104
  139MOL0     C18658   8.435   7.887   4.966  0.5558  0.0112  0.7828
  139MOL0     C18659   8.405   8.081   4.794 -0.3459 -0.4171  0.1584
  139MOL0     C18660   8.261   8.094   4.804  0.1952  0.8844 -0.3530
  139MOL0     O18661   8.208   8.164   4.703  0.6253  0.2775 -0.4684
  139MOL0     C18662   8.077   8.177   4.688  1.0865 -0.2129 -0.9146
  139MOL0     C18663   7.994   8.238   4.790  0.2834  0.5562 -0.4529
  139MOL0     C18664   7.850   8.250   4.772  0.3070  0.3962  0.0256
  139MOL0     C18665   7.793   8.195   4.651  0.4334 -0.0233 -0.5609
  139MOL0     O18666   7.660   8.201   4.622 -0.9784 -0.4975 -0.0043
  139MOL0     C18667   7.571   8.270   4.712 -0.0768  0.2631  0.0176
  139MOL0     C18668   7.433   8.262   4.647 -0.2686 -0.5297  0.0389
  139MOL0     C18669   7.415   8.390   4.555 -0.0670  0.7929  0.0613
  139MOL0     C18670   7.293   8.385   4.450 -0.3168  0.0259  0.1176
  139MOL0     C18671   7.284   8.514   4.369  0.1998  1.1005 -0.5023
  139MOL0     C18672   7.183   8.612   4.447 -0.0096  0.2309 -0.0203
  139MOL0     C18673   7.184   8.745   4.367 -0.0606  0.1972 -1.0486
  139MOL0     C18674   7.068   8.758   4.269 -0.5810 -0.8149 -0.3165
  139MOL0    Cl18675   7.007   8.929   4.248 -0.2137 -0.1565  0.4543
  139MOL0     C18676   7.873   8.141   4.555  0.2679  0.5442 -0.4869
  139MOL0     C18677   8.012   8.133   4.571 -0.1099 -0.1287  0.1148
  139MOL0     O18678   8.198   8.050   4.905 -0.1343 -0.2544  0.3002
  139MOL0     C18679   8.472   8.185   4.718 -0.4041  0.2147 -0.2080
  139MOL0     C18680   8.616   8.193   4.727 -0.2853 -0.0832 -0.7912
  139MOL0     N18681   9.288   7.984   4.958  0.3152 -0.1023  0.5877
  139MOL0     N18682   9.370   8.030   5.042 -0.5054 -0.5352 -0.3239
  139MOL0     C18683  10.678   8.477   5.327 -0.9990 -0.6764  0.2347
  139MOL0     C18684  10.797   8.548   5.318 -1.2111  0.9629 -0.3834
  139MOL0     C18685  11.220   8.545   5.159 -0.2989  0.7424  0.6786
  139MOL0     C18686  11.327   8.457   5.174  0.2018 -0.2694 -0.1215
  139MOL0     C18687  11.452   8.492   5.126 -0.1912 -0.3072  0.2463
  139MOL0     C18688  11.478   8.623   5.079  0.6686  0.9549  0.4730
  139MOL0     O18689  11.606   8.648   5.035  0.5078 -0.1701  0.1740
  139MOL0     C18690  11.610   8.734   4.920 -0.2242 -0.5552  0.8893
  139MOL0     C18691  11.715   8.698   4.811  0.1090 -0.0852  0.0040
  139MOL0     C18692  11.859   8.739   4.867 -0.0726 -0.0845  0.2217
  139MOL0     C18693  11.979   8.688   4.769 -0.6658 -0.5750 -0.1294
  139MOL0     C18694  12.108   8.742   4.812  0.8367  0.6751  0.0878
  139MOL0     C18695  12.211   8.786   4.856  0.2567  0.3429  0.4077
  139MOL0     C18696  11.367   8.710   5.079 -0.2144  0.3626  0.6425
  139MOL0     C18697  11.244   8.672   5.113  0.8511 -0.1258  0.9389
  139MOL0     H18698  10.864   8.499   4.987  1.2461  1.4799  1.7681
  139MOL0     H18699  10.677   8.344   5.006 -2.0653  0.4555  0.6876
  139MOL0     H18700  10.435   8.336   5.049  1.8959  0.8062  0.4259
  139MOL0     H18701  10.515   8.182   5.089 -0.7675  0.2051 -1.4629
  139MOL0     H18702  10.325   8.131   5.254  3.3772  1.4997  0.7997
  139MOL0     H18703  10.267   8.299   5.244 -0.7054 -3.1741  3.5510
  139MOL0     H18704  10.209   8.224   4.990  1.5569 -0.6520  0.4643
  139MOL0     H18705  10.227   8.056   5.058  1.3769 -0.9041  4.0637
  139MOL0     H18706  10.058   8.099   5.227  3.5145  0.0669 -0.0748
  139MOL0     H18707  10.056   8.269   5.190  1.0141 -1.1056  2.6791
  139MOL0     H18708   9.956   8.162   4.951 -3.4152 -1.3919 -0.9831
  139MOL0     H18709   9.931   8.020   5.066  0.3081 -0.6219  4.7420
  139MOL0     H18710   9.808   8.169   5.205 -1.9826 -1.6695  0.4267
  139MOL0     H18711   9.815   8.295   5.080  3.9576 -0.8509 -1.8190
  139MOL0     H18712   9.714   8.128   4.915 -0.4766  2.2282 -0.3826
  139MOL0     H18713   9.682   8.023   5.059 -0.2319 -0.0725  1.4922
  139MOL0     H18714   9.586   8.299   4.989 -0.6710  0.0793 -0.1315
  139MOL0     H18715   9.543   8.232   5.146 -0.7057 -0.9079 -0.1945
  139MOL0     H18716   9.475   8.164   4.766 -1.0586 -4.0255 -3.1844
  139MOL0     H18717   9.307   8.077   4.643  0.2400 -2.1910 -0.9219
  139MOL0     H18718   9.290   7.901   4.677  0.8805 -1.2216  3.5449
  139MOL0     H18719   9.075   7.985   4.805  0.4692 -0.2453  0.8218
  139MOL0     H18720   9.069   7.985   4.622 -0.8113  0.5267 -0.2960
  139MOL0     H18721   9.099   8.252   4.665  1.7760  0.4541 -0.0888
  139MOL0     H18722   9.084   8.198   4.838  1.2761 -1.7349  0.0764
  139MOL0     H18723   8.875   8.172   4.618 -0.9760  1.4237 -0.1216
  139MOL0     H18724   8.884   8.286   4.757 -2.2633  0.0850 -1.8918
  139MOL0     H18725   8.677   7.955   4.953 -0.9046 -1.4553  0.7046
  139MOL0     H18726   8.344   7.842   4.923  0.1153  2.6947 -1.3896
  139MOL0     H18727   8.510   7.809   4.979  3.0899  2.0474 -0.7087
  139MOL0     H18728   8.413   7.934   5.062 -2.0579  1.1549 -0.2536
  139MOL0     H18729   8.031   8.280   4.883 -0.1263 -0.1367  0.0344
  139MOL0     H18730   7.784   8.291   4.848 -1.6488 -1.3469 -0.6607
  139MOL0     H18731   7.554   8.209   4.802 -2.8409 -0.0997 -0.6348
  139MOL0     H18732   7.615   8.366   4.737  0.3246  0.2126 -0.4832
  139MOL0     H18733   7.424   8.169   4.592  2.5514 -1.8159  1.4996
  139MOL0     H18734   7.360   8.279   4.727 -1.6718 -1.4825 -1.0011
  139MOL0     H18735   7.507   8.405   4.498 -0.7425 -0.1768 -1.3446
  139MOL0     H18736   7.395   8.469   4.628  0.3038 -0.4276  1.5145
  139MOL0     H18737   7.310   8.294   4.392  1.8981  0.8815 -0.6827
  139MOL0     H18738   7.198   8.379   4.504 -1.1106 -2.8352 -1.4157
  139MOL0     H18739   7.254   8.481   4.269  1.0545 -1.3743 -0.0166
  139MOL0     H18740   7.381   8.563   4.369 -0.4571  2.5356  1.7893
  139MOL0     H18741   7.083   8.569   4.457  1.1387 -2.9754 -1.0224
  139MOL0     H18742   7.221   8.636   4.546 -0.1014  0.9869 -0.1625
  139MOL0     H18743   7.275   8.745   4.306  0.2400 -0.3556 -0.6113
  139MOL0     H18744   7.181   8.828   4.438 -1.7147 -0.7359  0.0653
  139MOL0     H18745   6.985   8.690   4.289 -1.6513  0.4100 -0.4625
  139MOL0     H18746   7.092   8.728   4.166  0.0959 -0.0970 -0.3785
  139MOL0     H18747   7.811   8.100   4.477 -1.7514  1.2067  0.6907
  139MOL0     H18748   8.068   8.086   4.491 -1.3123  1.0138 -1.4582
  139MOL0     H18749   8.408   8.255   4.664  0.6151 -0.3324 -2.2290
  139MOL0     H18750   8.674   8.265   4.669  0.1855 -1.3444 -1.9347
  139MOL0     H18751  10.616   8.482   5.416 -0.7465 -2.5628  0.5651
  139MOL0     H18752  10.827   8.597   5.410 -1.2449  1.7617 -0.7903
  139MOL0     H18753  11.308   8.356   5.209 -0.2154 -0.6323 -1.3366
  139MOL0     H18754  11.528   8.415   5.135  1.2274  0.8061 -1.5137
  139MOL0     H18755  11.518   8.731   4.861 -0.1665 -0.4242  0.7916
  139MOL0     H18756  11.622   8.840   4.945  0.0290  0.2869 -2.3103
  139MOL0     H18757  11.702   8.749   4.715  0.8109 -0.7540 -0.4587
  139MOL0     H18758  11.711   8.589   4.801 -0.9357 -0.0721  0.1914
  139MOL0     H18759  11.884   8.713   4.970 -0.0022 -0.9001  0.0043
  139MOL0     H18760  11.863   8.848   4.869  1.0001 -0.0905  3.0511
  139MOL0     H18761  11.947   8.728   4.672  1.0488 -2.3235 -1.5108
  139MOL0     H18762  11.977   8.580   4.781 -0.2182 -0.3324  2.6844
  139MOL0     H18763  12.309   8.817   4.886  0.1869 -0.6352  1.7416
  139MOL0     H18764  11.386   8.812   5.048  2.9817  0.2403  1.7818
  139MOL0     H18765  11.170   8.750   5.124 -0.0178 -1.0812  2.1281
  140MOL0     O18766  10.928   8.868   8.849  0.2275 -0.1649  0.5776
  140MOL0     C18767  10.986   8.929   8.759 -0.2488 -0.2973  0.3203
  140MOL0     O18768  10.933   8.966   8.635 -0.3211  0.0475 -0.6715
  140MOL0     C18769  10.808   8.916   8.622  0.2282  0.8062 -0.2112
  140MOL0     C18770  10.692   8.964   8.682  0.0163 -0.2850 -0.2167
  140MOL0     C18771  10.565   8.914   8.647 -0.0549 -0.1759 -0.5396
  140MOL0     C18772  10.556   8.804   8.575  0.2930  0.0320 -0.1496
  140MOL0     O18773  10.435   8.755   8.527  0.1515 -0.1957  0.1865
  140MOL0     C18774  10.337   8.848   8.479 -0.0795 -0.0208 -0.1372
  140MOL0     C18775  10.233   8.776   8.397 -0.5062 -1.0910  0.1713
  140MOL0     C18776  10.173   8.656   8.471 -0.2205  0.1377 -0.2143
  140MOL0     C18777  10.034   8.626   8.421  0.2483 -0.0697  0.2163
  140MOL0     C18778   9.981   8.500   8.488  0.4367 -0.3922  0.8729
  140MOL0     C18779   9.878   8.429   8.399 -0.3971 -0.6314 -0.4191
  140MOL0     C18780   9.850   8.296   8.470 -0.6950 -0.8206  0.2895
  140MOL0     C18781   9.768   8.213   8.374 -0.1965 -0.2509 -0.3629
  140MOL0     N18782   9.649   8.283   8.336  0.5921 -0.3584 -0.5607
  140MOL0     C18783   9.629   8.353   8.214 -0.4050  0.0424 -0.6636
  140MOL0     C18784   9.504   8.418   8.232 -0.8276  1.4072 -0.3768
  140MOL0     C18785   9.452   8.526   8.141  0.0594  0.3836 -0.1749
  140MOL0     C18786   9.300   8.502   8.114  0.4977 -0.2132  0.3040
  140MOL0     C18787   9.241   8.607   8.023 -0.4440  0.6166  1.4551
  140MOL0     C18788   9.083   8.599   8.014  0.3527  0.4239  1.0408
  140MOL0     O18789   9.043   8.488   7.934  0.8183  0.8751 -0.6165
  140MOL0     C18790   8.905   8.458   7.925 -0.4727  0.1766 -0.0006
  140MOL0     C18791   8.805   8.537   7.983  0.0696  0.1271  1.4731
  140MOL0     C18792   8.674   8.503   7.990  0.1984 -0.2164  0.9625
  140MOL0     C18793   8.575   8.610   8.031 -0.2596 -0.2937 -0.6782
  140MOL0     C18794   8.633   8.376   7.932  0.0254 -0.1984 -0.0430
  140MOL0     C18795   8.499   8.328   7.923  0.2788 -0.1949 -1.2495
  140MOL0     O18796   8.464   8.256   7.819 -0.3831  0.3962 -0.1348
  140MOL0     C18797   8.355   8.177   7.837 -0.2632 -0.5996  0.0142
  140MOL0     C18798   8.249   8.214   7.753  0.8420  0.5184  0.1450
  140MOL0     C18799   8.128   8.139   7.764  0.0128  0.3451  0.2958
  140MOL0     C18800   8.117   8.026   7.841 -0.3078 -0.4197 -0.9536
  140MOL0     O18801   7.998   7.958   7.861 -0.4291  0.4100  0.4331
  140MOL0     C18802   7.998   7.820   7.830  0.1015 -0.0501 -0.2128
  140MOL0     C18803   7.862   7.756   7.839  0.6382 -0.4657  0.3181
  140MOL0     C18804   7.761   7.820   7.746  0.6871  0.3720  0.4131
  140MOL0     C18805   7.800   7.778   7.596  0.1029 -0.9496  0.6641
  140MOL0     C18806   7.694   7.839   7.509  0.2050 -0.4508  0.7548
  140MOL0     C18807   7.557   7.761   7.521 -0.0566 -0.6418  0.1508
  140MOL0     C18808   7.465   7.812   7.412  0.0788  0.1709 -0.3938
  140MOL0     C18809   7.325   7.751   7.427 -0.4960  0.5333 -0.7811
  140MOL0    Cl18810   7.330   7.578   7.401 -0.5294  0.0149 -0.1543
  140MOL0     C18811   8.234   7.975   7.900 -0.5007  0.1552  0.2728
  140MOL0     C18812   8.360   8.047   7.893  0.7771  0.0850  0.1781
  140MOL0     O18813   8.423   8.369   8.009  0.0930  0.3036 -0.0032
  140MOL0     C18814   8.732   8.304   7.866 -0.7545 -0.7382  0.4325
  140MOL0     C18815   8.865   8.340   7.870  0.0968 -0.3995 -0.3881
  140MOL0     N18816   9.450   8.381   8.358 -0.0711 -0.3747 -0.0715
  140MOL0     N18817   9.530   8.298   8.414  0.6090 -0.2990  0.9506
  140MOL0     C18818  10.666   8.749   8.514 -0.1281  0.5810 -0.4771
  140MOL0     C18819  10.796   8.804   8.542 -0.1936 -0.4324  0.1680
  140MOL0     C18820  11.124   8.984   8.800  0.5307  0.3908 -0.6125
  140MOL0     C18821  11.185   9.093   8.739 -0.4048 -0.0059 -0.5478
  140MOL0     C18822  11.306   9.140   8.775 -0.0301 -0.7406 -0.5350
  140MOL0     C18823  11.378   9.079   8.879  0.2255 -0.1491 -0.0760
  140MOL0     O18824  11.504   9.124   8.925  0.4719 -0.0781  0.9882
  140MOL0     C18825  11.578   9.222   8.846  0.3795  0.4305  0.1757
  140MOL0     C18826  11.735   9.218   8.860  0.0416 -0.6188 -0.0005
  140MOL0     C18827  11.789   9.329   8.767  0.3110 -0.7831  0.5041
  140MOL0     C18828  11.942   9.352   8.763  0.6275 -0.5942  0.3629
  140MOL0     C18829  11.998   9.400   8.887 -0.2914  0.2749 -0.2046
  140MOL0     C18830  12.060   9.423   8.988  0.2397  0.2560 -0.7968
  140MOL0     C18831  11.321   8.977   8.949  1.1828 -0.1804 -0.6516
  140MOL0     C18832  11.192   8.939   8.916  0.4910  0.5147  0.4994
  140MOL0     H18833  10.697   9.052   8.745 -1.0422 -0.1457 -0.3043
  140MOL0     H18834  10.479   8.967   8.688 -0.0880 -1.7400  1.5821
  140MOL0     H18835  10.284   8.881   8.569 -0.3639 -1.3775  0.2148
  140MOL0     H18836  10.391   8.928   8.428  2.7558 -1.6798  0.0211
  140MOL0     H18837  10.151   8.843   8.369 -0.6456 -0.8133  1.1768
  140MOL0     H18838  10.278   8.741   8.304  1.8244  1.9524  0.0046
  140MOL0     H18839  10.238   8.569   8.462  0.4877  0.4631  1.4450
  140MOL0     H18840  10.169   8.672   8.579  2.8675  0.8435 -0.1160
  140MOL0     H18841   9.971   8.707   8.459 -1.7056 -1.3651 -0.1207
  140MOL0     H18842  10.025   8.637   8.312 -2.1545  2.1624  0.5280
  140MOL0     H18843  10.071   8.437   8.494  0.5532 -0.2310  0.8369
  140MOL0     H18844   9.941   8.523   8.587  1.3650 -2.1050  1.7048
  140MOL0     H18845   9.783   8.482   8.404 -1.1682 -2.0483  2.9424
  140MOL0     H18846   9.920   8.417   8.299 -1.9175 -1.2272 -1.0048
  140MOL0     H18847   9.945   8.244   8.486  0.2889 -0.4057 -3.2712
  140MOL0     H18848   9.804   8.314   8.567 -1.9777  2.6984 -0.7967
  140MOL0     H18849   9.741   8.120   8.425  3.1968 -2.1878 -1.7552
  140MOL0     H18850   9.840   8.193   8.293 -2.4274  0.8098 -2.7543
  140MOL0     H18851   9.706   8.374   8.141  1.3711 -1.0592  0.8113
  140MOL0     H18852   9.469   8.623   8.189 -1.4839  0.4139  0.3661
  140MOL0     H18853   9.510   8.527   8.048  0.4279 -0.3172  0.0463
  140MOL0     H18854   9.238   8.507   8.204  0.0768  2.7782 -0.0308
  140MOL0     H18855   9.291   8.402   8.072 -2.1976 -1.6662  3.8203
  140MOL0     H18856   9.283   8.602   7.922 -2.9954  1.0636  0.2935
  140MOL0     H18857   9.270   8.703   8.066 -0.4062  1.1947  0.1888
  140MOL0     H18858   9.045   8.687   7.962 -2.1602 -1.3606 -0.3612
  140MOL0     H18859   9.033   8.599   8.111 -1.3500  0.4886  0.1943
  140MOL0     H18860   8.831   8.634   8.026  2.3700 -0.0886  0.7161
  140MOL0     H18861   8.497   8.576   8.099  1.4432  1.8903  2.6621
  140MOL0     H18862   8.636   8.676   8.093 -0.2048 -0.3527 -0.6710
  140MOL0     H18863   8.522   8.659   7.949  0.9867  2.4855  0.0490
  140MOL0     H18864   8.251   8.289   7.675  1.2867  1.1475  0.7532
  140MOL0     H18865   8.047   8.181   7.705 -0.6996 -1.3480  0.0254
  140MOL0     H18866   8.044   7.807   7.732 -1.8035  3.3502 -1.7474
  140MOL0     H18867   8.065   7.767   7.899  0.3331  2.3239  1.5078
  140MOL0     H18868   7.862   7.649   7.817 -0.1148 -0.4455  0.1921
  140MOL0     H18869   7.842   7.768   7.946  1.5705  0.1021  0.4389
  140MOL0     H18870   7.759   7.928   7.763 -1.2535  0.5520 -0.6543
  140MOL0     H18871   7.667   7.774   7.777  0.8987 -0.0583  0.4206
  140MOL0     H18872   7.897   7.822   7.572 -0.6929 -0.5807 -2.2803
  140MOL0     H18873   7.814   7.670   7.594 -0.7886 -1.1448  2.4480
  140MOL0     H18874   7.723   7.826   7.404 -1.2512  1.1838  0.1015
  140MOL0     H18875   7.684   7.945   7.531  0.9363 -0.3898  0.7883
  140MOL0     H18876   7.571   7.657   7.490 -0.8931 -0.1700 -2.0333
  140MOL0     H18877   7.504   7.761   7.617 -1.1511 -1.7680 -0.4169
  140MOL0     H18878   7.505   7.799   7.311  0.8051  0.4245 -0.1416
  140MOL0     H18879   7.459   7.920   7.430 -0.8740 -0.1667  1.5818
  140MOL0     H18880   7.254   7.791   7.355 -1.6736 -1.7419 -0.9775
  140MOL0     H18881   7.279   7.780   7.522 -1.6252 -3.2048 -0.0196
  140MOL0     H18882   8.232   7.877   7.948  0.5325 -1.9425 -3.5938
  140MOL0     H18883   8.448   7.999   7.933  2.0053  0.6696 -1.6650
  140MOL0     H18884   8.694   8.219   7.811  0.4609 -0.2321 -1.2513
  140MOL0     H18885   8.941   8.273   7.832  0.8486 -0.3724  0.9994
  140MOL0     H18886  10.666   8.669   8.441 -2.9596  0.9801 -1.0043
  140MOL0     H18887  10.886   8.755   8.508 -0.1654 -0.0320 -0.3544
  140MOL0     H18888  11.127   9.132   8.656 -1.2990  4.1524  1.7399
  140MOL0     H18889  11.357   9.220   8.721  2.5537 -1.6319  0.4331
  140MOL0     H18890  11.571   9.202   8.738 -1.4472 -0.1176  0.3612
  140MOL0     H18891  11.553   9.325   8.874  0.7131  0.3277  0.8540
  140MOL0     H18892  11.775   9.119   8.834 -1.2726 -0.6083 -2.2436
  140MOL0     H18893  11.756   9.241   8.965 -2.8612 -3.5006  1.3960
  140MOL0     H18894  11.725   9.415   8.788  0.5771 -0.4732  0.0493
  140MOL0     H18895  11.759   9.288   8.670  2.0847 -0.7876 -0.0775
  140MOL0     H18896  11.955   9.433   8.689 -0.4650  0.0006  0.8014
  140MOL0     H18897  11.990   9.259   8.730  0.2268 -0.4961 -0.5327
  140MOL0     H18898  12.108   9.424   9.084  2.8123  2.3590 -1.9483
  140MOL0     H18899  11.360   8.931   9.040  0.0677 -0.7236 -0.4333
  140MOL0     H18900  11.144   8.866   8.981  0.5322  0.9786  1.0621
  141MOL0     O18901  10.449   5.141   2.371 -0.0625 -0.4792  0.7224
  141MOL0     C18902  10.443   5.064   2.465  0.2174  0.7503  0.4977
  141MOL0     O18903  10.333   5.010   2.512  0.3387  0.8546 -0.1722
  141MOL0     C18904  10.257   4.978   2.403  0.1798 -0.0858  0.5259
  141MOL0     C18905  10.161   5.070   2.354  0.6246  0.1634 -0.3479
  141MOL0     C18906  10.082   5.027   2.248 -0.3566 -0.6381  1.1642
  141MOL0     C18907  10.087   4.893   2.184 -0.3043 -0.8581 -0.2175
  141MOL0     O18908  10.000   4.847   2.084 -0.3774 -0.0547 -0.2577
  141MOL0     C18909   9.883   4.919   2.057  0.4698  0.1005 -0.2879
  141MOL0     C18910   9.785   4.817   1.991  0.6729  0.6275 -0.5096
  141MOL0     C18911   9.645   4.876   1.993  0.6735  1.0645 -0.3329
  141MOL0     C18912   9.573   4.924   2.121 -0.3277  0.4952  0.0904
  141MOL0     C18913   9.428   4.980   2.082 -0.6354  0.5980  0.4962
  141MOL0     C18914   9.351   5.025   2.208  0.0863 -0.4193  1.3596
  141MOL0     C18915   9.197   5.037   2.166  0.0264  0.7380  0.4097
  141MOL0     C18916   9.180   5.168   2.090  0.6718 -1.0308  0.2939
  141MOL0     N18917   9.041   5.201   2.063  0.5406 -0.9330 -0.0645
  141MOL0     C18918   8.995   5.306   1.977 -0.0334  0.4096  0.0767
  141MOL0     C18919   8.862   5.282   1.961 -0.1997 -0.7137 -0.2768
  141MOL0     C18920   8.758   5.368   1.882 -0.2274  0.3404  0.1685
  141MOL0     C18921   8.693   5.470   1.981 -0.1677  0.4197  0.3604
  141MOL0     C18922   8.585   5.545   1.918  1.3032 -0.4715 -0.6016
  141MOL0     C18923   8.445   5.484   1.933  0.0503  0.8174 -0.4088
  141MOL0     O18924   8.359   5.577   1.871 -0.4887 -0.2191  0.1430
  141MOL0     C18925   8.224   5.555   1.869 -0.4781  0.2840 -0.7298
  141MOL0     C18926   8.133   5.659   1.860 -0.2026  0.4706  0.2227
  141MOL0     C18927   7.992   5.640   1.835 -0.5524  0.1763  0.9021
  141MOL0     C18928   7.915   5.769   1.819 -0.2500 -0.0843  0.0383
  141MOL0     C18929   7.934   5.513   1.823  0.0320 -0.5496  0.4908
  141MOL0     C18930   7.796   5.479   1.783 -0.1342 -0.0951 -0.7102
  141MOL0     O18931   7.766   5.350   1.753  0.0767 -0.0697  0.2896
  141MOL0     C18932   7.633   5.313   1.738 -0.3170 -0.1497  0.1006
  141MOL0     C18933   7.551   5.315   1.849 -0.1829  0.2253  0.2708
  141MOL0     C18934   7.414   5.292   1.838  0.7850 -0.1713 -0.2495
  141MOL0     C18935   7.353   5.272   1.714  0.1314 -0.1093  0.5956
  141MOL0     O18936   7.215   5.264   1.690  0.6828 -0.1277  0.0250
  141MOL0     C18937   7.129   5.232   1.803  0.7353  0.0297  0.0836
  141MOL0     C18938   7.075   5.363   1.864 -0.5740  0.0914 -0.1007
  141MOL0     C18939   6.979   5.339   1.975  0.5078  0.2157  0.3924
  141MOL0     C18940   6.919   5.479   2.030 -0.4427  0.2618  0.1920
  141MOL0     C18941   6.845   5.459   2.161 -0.0460 -0.2246  0.5682
  141MOL0     C18942   6.792   5.599   2.208  0.6171  0.1517 -0.2017
  141MOL0     C18943   6.752   5.593   2.356  0.0549  0.1966  0.4980
  141MOL0     C18944   6.701   5.736   2.392  0.5564  0.8508  0.6773
  141MOL0    Cl18945   6.533   5.767   2.314 -0.5728  0.2673  0.1268
  141MOL0     C18946   7.436   5.263   1.601  0.6961 -0.3668  0.0889
  141MOL0     C18947   7.577   5.283   1.608  0.1555 -0.2605  0.2977
  141MOL0     O18948   7.713   5.568   1.784 -0.7255  0.1174 -0.1898
  141MOL0     C18949   8.023   5.408   1.853  0.8401  0.1042  0.3085
  141MOL0     C18950   8.164   5.429   1.871  0.8068 -0.0825  0.5341
  141MOL0     N18951   8.831   5.168   2.034 -0.0837  0.5578  0.0303
  141MOL0     N18952   8.932   5.125   2.105  0.0303 -0.5882  0.4558
  141MOL0     C18953  10.188   4.806   2.238  0.2052 -0.6242 -0.0587
  141MOL0     C18954  10.261   4.852   2.344 -0.2357 -0.2251 -0.1713
  141MOL0     C18955  10.570   5.028   2.527 -0.4327 -0.3634 -0.5724
  141MOL0     C18956  10.696   5.051   2.468  0.1028  0.5739  0.2759
  141MOL0     C18957  10.807   4.987   2.519 -0.0755 -0.2670 -0.2192
  141MOL0     C18958  10.798   4.926   2.645  0.2052  0.4243 -0.4518
  141MOL0     O18959  10.911   4.873   2.697 -0.0129  0.5376  0.2935
  141MOL0     C18960  10.921   4.735   2.692  0.1573 -0.1319 -0.6178
  141MOL0     C18961  11.070   4.701   2.730  0.6017  0.5617 -0.6436
  141MOL0     C18962  11.176   4.767   2.644 -0.3440 -0.1257  0.2544
  141MOL0     C18963  11.325   4.739   2.678 -0.0882 -0.6385  0.5736
  141MOL0     C18964  11.341   4.593   2.669  0.8789  0.0723 -0.0905
  141MOL0     C18965  11.349   4.471   2.657 -0.9791 -0.5754  0.0132
  141MOL0     C18966  10.684   4.919   2.717 -1.1624  1.0462  0.1245
  141MOL0     C18967  10.569   4.963   2.654  0.2447 -0.4909  0.6239
  141MOL0     H18968  10.157   5.167   2.403 -2.7017 -1.5553  3.3575
  141MOL0     H18969   9.998   5.087   2.214  1.7981  2.1912  0.5772
  141MOL0     H18970   9.840   4.949   2.153  2.1271  0.1174  0.4891
  141MOL0     H18971   9.903   5.005   1.992 -0.1205  1.4815  1.2845
  141MOL0     H18972   9.812   4.793   1.888 -0.4482 -1.4099 -0.3872
  141MOL0     H18973   9.789   4.721   2.044  0.0729 -0.5373 -2.4846
  141MOL0     H18974   9.655   4.956   1.919 -0.6305  2.0246  0.4840
  141MOL0     H18975   9.571   4.805   1.954 -1.0721  2.8495 -0.4009
  141MOL0     H18976   9.554   4.844   2.193 -3.6926  0.6231 -0.5120
  141MOL0     H18977   9.632   5.002   2.171 -0.2213  1.5421 -1.5621
  141MOL0     H18978   9.439   5.062   2.011  0.9262 -1.0224 -1.2334
  141MOL0     H18979   9.374   4.896   2.036 -1.8051  0.9705  1.1486
  141MOL0     H18980   9.367   4.945   2.281  3.3431 -0.3195  0.9232
  141MOL0     H18981   9.387   5.118   2.251 -0.9463 -0.7992  3.1218
  141MOL0     H18982   9.172   4.948   2.108 -1.6106  0.8358  0.9028
  141MOL0     H18983   9.148   5.045   2.264  1.3094  0.8025  1.0656
  141MOL0     H18984   9.231   5.175   1.993  2.5978  1.0435  1.3588
  141MOL0     H18985   9.232   5.244   2.148  3.2813 -2.6369  0.2154
  141MOL0     H18986   9.060   5.382   1.934 -0.9658  0.6929 -0.8602
  141MOL0     H18987   8.816   5.413   1.801 -2.1837 -1.8890 -2.6457
  141MOL0     H18988   8.686   5.301   1.835 -0.2458 -1.4505  2.5512
  141MOL0     H18989   8.774   5.533   2.018  2.4380 -2.6072  0.2724
  141MOL0     H18990   8.649   5.408   2.061 -3.2819  1.1183 -0.6710
  141MOL0     H18991   8.602   5.565   1.812  0.5018  1.9318 -0.3375
  141MOL0     H18992   8.584   5.643   1.966  1.5871 -0.3777 -0.7860
  141MOL0     H18993   8.406   5.475   2.035 -0.1156  0.6047 -0.4915
  141MOL0     H18994   8.435   5.392   1.875  2.4079  0.9592 -1.1425
  141MOL0     H18995   8.175   5.757   1.882  0.2638  0.0964  1.0678
  141MOL0     H18996   7.986   5.840   1.776  0.8736 -0.7446  0.7446
  141MOL0     H18997   7.838   5.766   1.742  0.5766  1.3631 -0.9039
  141MOL0     H18998   7.874   5.805   1.914 -1.0038 -0.0045 -0.3085
  141MOL0     H18999   7.608   5.335   1.939  0.4398 -2.3659  0.5555
  141MOL0     H19000   7.350   5.309   1.923  0.2394  2.2627 -1.0802
  141MOL0     H19001   7.042   5.171   1.780  0.7489  0.0018  0.1076
  141MOL0     H19002   7.187   5.187   1.884 -0.0263  1.2213  1.3443
  141MOL0     H19003   7.157   5.432   1.884  2.2298 -2.5299 -1.6737
  141MOL0     H19004   7.024   5.421   1.786 -1.7210  0.2134  0.7248
  141MOL0     H19005   7.035   5.284   2.051  3.8799  0.0195 -2.0177
  141MOL0     H19006   6.891   5.281   1.944  1.5266 -1.6372  0.8635
  141MOL0     H19007   7.004   5.542   2.058 -0.0043 -0.4005  0.3724
  141MOL0     H19008   6.871   5.527   1.944  0.4464 -1.7593 -1.5121
  141MOL0     H19009   6.903   5.404   2.235 -0.3678 -0.4880  0.6277
  141MOL0     H19010   6.760   5.396   2.133  1.2295 -1.5282 -0.5713
  141MOL0     H19011   6.876   5.669   2.206 -0.0199  1.0227  1.5770
  141MOL0     H19012   6.704   5.619   2.146 -0.0026 -2.3526 -0.2381
  141MOL0     H19013   6.834   5.568   2.424 -0.4515 -3.1646  0.0343
  141MOL0     H19014   6.668   5.526   2.374 -0.4428  0.1708 -1.6726
  141MOL0     H19015   6.781   5.808   2.375  1.8626 -0.6632  0.1897
  141MOL0     H19016   6.685   5.753   2.498  2.0205 -0.7374  1.1858
  141MOL0     H19017   7.388   5.245   1.506  1.8349 -1.9777 -0.2305
  141MOL0     H19018   7.645   5.285   1.523  0.4679 -2.5680  0.4408
  141MOL0     H19019   7.985   5.306   1.849 -1.6470  0.9976 -0.8137
  141MOL0     H19020   8.218   5.341   1.905  0.9575 -0.2333 -0.0811
  141MOL0     H19021  10.203   4.705   2.201 -0.5408 -0.5199 -0.6719
  141MOL0     H19022  10.327   4.787   2.400  2.0588  2.6102  0.6837
  141MOL0     H19023  10.702   5.104   2.373 -0.3454 -0.2572 -0.2303
  141MOL0     H19024  10.906   5.001   2.476 -0.3403 -0.4518 -0.9050
  141MOL0     H19025  10.844   4.691   2.755 -1.6985  2.7652 -0.6450
  141MOL0     H19026  10.901   4.707   2.588 -1.9890  0.9657 -0.5677
  141MOL0     H19027  11.074   4.592   2.723 -0.2546  0.3127  1.6581
  141MOL0     H19028  11.084   4.719   2.837  0.3025  0.8681 -0.6527
  141MOL0     H19029  11.170   4.872   2.673  1.1953 -0.1716  0.8810
  141MOL0     H19030  11.151   4.771   2.538  1.4375  3.4349 -0.1755
  141MOL0     H19031  11.342   4.765   2.782 -3.0302  0.5738  0.8209
  141MOL0     H19032  11.387   4.791   2.604 -3.0532 -1.7482 -3.0386
  141MOL0     H19033  11.349   4.364   2.665  0.8975 -0.6495 -0.4398
  141MOL0     H19034  10.683   4.874   2.815  2.0984  0.7592  0.1136
  141MOL0     H19035  10.475   4.946   2.706 -0.5085  3.5032  0.9469
  142MOL0     O19036   3.007   3.535   0.855  0.2259  0.1283 -0.4145
  142MOL0     C19037   3.040   3.444   0.933  0.2782  1.0508 -0.3211
  142MOL0     O19038   2.950   3.348   0.983 -0.4377 -0.0710 -0.5270
  142MOL0     C19039   2.824   3.346   0.934 -0.4123 -0.1843  0.2398
  142MOL0     C19040   2.774   3.224   0.874  0.3602  0.1075  0.4155
  142MOL0     C19041   2.650   3.231   0.805 -0.1262 -0.0546 -0.9948
  142MOL0     C19042   2.567   3.345   0.814 -0.4165  0.3639 -0.6340
  142MOL0     O19043   2.439   3.362   0.762 -0.2809  0.5140  0.6899
  142MOL0     C19044   2.371   3.251   0.708 -0.0854  1.0033  1.1754
  142MOL0     C19045   2.232   3.283   0.647 -0.0469  0.5685 -0.1432
  142MOL0     C19046   2.142   3.160   0.640  1.2894 -0.5156  0.9383
  142MOL0     C19047   1.994   3.192   0.626  0.0680 -0.0428 -0.3004
  142MOL0     C19048   1.894   3.112   0.716 -0.8312 -0.6099  0.4497
  142MOL0     C19049   1.875   2.969   0.662 -0.1566 -0.3432  0.3884
  142MOL0     C19050   1.793   2.875   0.750  0.4887  0.0672 -0.3497
  142MOL0     C19051   1.795   2.734   0.691 -0.5542 -0.0953 -0.4572
  142MOL0     N19052   1.755   2.739   0.545 -1.0703 -0.1250 -0.1360
  142MOL0     C19053   1.638   2.793   0.495 -0.4013  0.6083  0.2907
  142MOL0     C19054   1.661   2.811   0.358  1.5981  0.3410 -0.4720
  142MOL0     C19055   1.576   2.866   0.245  0.4511  0.1164 -0.0982
  142MOL0     C19056   1.605   3.011   0.215  0.2338 -0.2557 -0.4858
  142MOL0     C19057   1.559   3.073   0.087  0.0652 -0.9744  0.3132
  142MOL0     C19058   1.408   3.095   0.081  0.0799 -0.4755  0.3698
  142MOL0     O19059   1.350   2.970   0.050 -0.1113  0.3796 -0.7677
  142MOL0     C19060   1.211   2.952   0.018 -0.7099  0.0948 -0.2280
  142MOL0     C19061   1.169   2.818   0.010 -0.5483  0.0162 -0.4361
  142MOL0     C19062   1.046   2.783  -0.044  0.1983 -0.1254 -0.4936
  142MOL0     C19063   1.014   2.641  -0.054  0.6100 -0.4134 -0.4702
  142MOL0     C19064   0.946   2.891  -0.070 -0.5291  0.3534  0.0856
  142MOL0     C19065   0.820   2.873  -0.138  0.4804 -0.2102 -0.6422
  142MOL0     O19066   0.712   2.955  -0.104  0.2512 -0.4232 -0.4534
  142MOL0     C19067   0.594   2.936  -0.169  0.0987 -0.0652  0.0652
  142MOL0     C19068   0.472   2.938  -0.100  1.4317 -0.5916  0.2412
  142MOL0     C19069   0.354   2.933  -0.177 -0.5193  0.7744 -0.2042
  142MOL0     C19070   0.357   2.924  -0.313  0.6902 -0.9779  0.4557
  142MOL0     O19071   0.239   2.925  -0.378  0.2253  0.2707  0.4775
  142MOL0     C19072   0.188   3.052  -0.414 -0.8051  0.0466 -0.3936
  142MOL0     C19073   0.091   3.042  -0.525 -1.0298  0.0391 -0.3134
  142MOL0     C19074   0.073   3.182  -0.575 -0.0090 -0.5975 -0.0554
  142MOL0     C19075  -0.040   3.186  -0.675  0.2580  0.1370  0.3578
  142MOL0     C19076  -0.060   3.327  -0.731  0.3394  0.1239 -0.1806
  142MOL0     C19077  -0.177   3.342  -0.825  0.0343 -0.1497 -0.1758
  142MOL0     C19078  -0.178   3.466  -0.914  0.3896 -0.1634  0.0973
  142MOL0     C19079  -0.298   3.464  -1.003  0.8298 -0.3502  0.9582
  142MOL0    Cl19080  -0.466   3.453  -0.915 -0.1073  0.4719  0.0594
  142MOL0     C19081   0.472   2.933  -0.378 -0.1604  0.1413  0.3977
  142MOL0     C19082   0.589   2.933  -0.309 -0.1914 -0.5403 -0.5893
  142MOL0     O19083   0.817   2.791  -0.225 -0.0118 -0.5220 -1.2032
  142MOL0     C19084   0.993   3.025  -0.050 -0.0332  0.2890  0.3855
  142MOL0     C19085   1.121   3.055  -0.004  0.6995  0.5438 -0.0690
  142MOL0     N19086   1.790   2.773   0.336 -0.2677  0.0854  0.6288
  142MOL0     N19087   1.846   2.737   0.441 -0.3710  0.1073  0.5969
  142MOL0     C19088   2.621   3.458   0.889 -0.1853  0.7221  0.3507
  142MOL0     C19089   2.745   3.455   0.946  0.3737  0.3101  0.5105
  142MOL0     C19090   3.183   3.421   0.951 -0.4729 -0.7478 -0.6976
  142MOL0     C19091   3.240   3.375   1.066  0.8683 -0.0209  0.1977
  142MOL0     C19092   3.380   3.371   1.087  0.4046 -0.1077 -0.0659
  142MOL0     C19093   3.469   3.407   0.989 -0.9570 -0.7287  0.1134
  142MOL0     O19094   3.599   3.407   1.023 -0.1030 -0.3418 -0.6871
  142MOL0     C19095   3.674   3.304   0.947  0.2610  0.2030  0.5205
  142MOL0     C19096   3.826   3.296   0.980  1.2048 -0.0988 -0.2650
  142MOL0     C19097   3.861   3.259   1.118 -0.1975  0.1176 -0.5419
  142MOL0     C19098   4.006   3.262   1.152 -0.1252 -0.1068 -0.2229
  142MOL0     C19099   4.052   3.403   1.162 -0.0824 -0.4864 -0.3883
  142MOL0     C19100   4.096   3.519   1.174  0.6392  0.6967  0.6023
  142MOL0     C19101   3.415   3.444   0.874  1.1760 -0.3924 -0.7744
  142MOL0     C19102   3.280   3.460   0.852  0.0870 -0.1193  0.6313
  142MOL0     H19103   2.844   3.142   0.883 -0.4813 -1.2215 -3.2551
  142MOL0     H19104   2.621   3.142   0.750  5.1195 -2.7507 -0.0354
  142MOL0     H19105   2.432   3.213   0.625 -1.9449 -1.3562  0.7996
  142MOL0     H19106   2.372   3.176   0.787  4.0515 -0.3657  0.0956
  142MOL0     H19107   2.193   3.364   0.708  2.3662  0.7019  1.3690
  142MOL0     H19108   2.235   3.317   0.543 -0.6916  0.4945 -0.1900
  142MOL0     H19109   2.167   3.088   0.562 -0.1603 -0.5937  0.5075
  142MOL0     H19110   2.144   3.123   0.743  0.0182  3.0112  2.3813
  142MOL0     H19111   1.990   3.298   0.656  2.4598  0.0093  0.0054
  142MOL0     H19112   1.975   3.189   0.519  2.6385 -2.2704 -0.7936
  142MOL0     H19113   1.938   3.118   0.817  3.4558 -0.1836 -1.2056
  142MOL0     H19114   1.796   3.160   0.704 -0.3665 -0.0054 -1.1307
  142MOL0     H19115   1.823   2.976   0.566 -0.1423 -0.1873  0.3908
  142MOL0     H19116   1.968   2.915   0.647 -0.4695 -0.9210  0.5169
  142MOL0     H19117   1.828   2.868   0.853  1.1460  1.7995 -0.4188
  142MOL0     H19118   1.691   2.916   0.757 -1.1842 -3.8954  1.5947
  142MOL0     H19119   1.721   2.675   0.746  0.5517 -0.5872  0.5316
  142MOL0     H19120   1.889   2.681   0.700 -0.4984  0.3444  2.5899
  142MOL0     H19121   1.551   2.831   0.549 -1.2809 -0.9086 -0.0070
  142MOL0     H19122   1.591   2.795   0.163  0.0256 -1.5282  1.1949
  142MOL0     H19123   1.470   2.866   0.273  0.4329  1.0453 -0.1336
  142MOL0     H19124   1.714   3.021   0.209  0.2421 -0.6681 -1.1370
  142MOL0     H19125   1.571   3.061   0.306  0.1431  1.5871 -1.4910
  142MOL0     H19126   1.595   3.023  -0.003 -1.6556 -0.8089 -0.5024
  142MOL0     H19127   1.608   3.171   0.084 -0.7207 -0.6039 -2.4265
  142MOL0     H19128   1.377   3.162   0.001  2.5246 -1.7408 -1.7954
  142MOL0     H19129   1.372   3.116   0.182 -1.1215 -2.3998  0.3855
  142MOL0     H19130   1.247   2.750   0.042  2.1582  2.7078 -0.8728
  142MOL0     H19131   0.921   2.614  -0.003  0.7065 -1.0563 -0.6238
  142MOL0     H19132   1.006   2.632  -0.163 -1.2443 -0.6707 -0.3518
  142MOL0     H19133   1.092   2.575  -0.014  1.6795  2.1526  1.9796
  142MOL0     H19134   0.478   2.948   0.007 -0.3482 -2.2960  0.5634
  142MOL0     H19135   0.260   2.949  -0.125 -2.2447  0.1472 -2.9517
  142MOL0     H19136   0.130   3.093  -0.330 -2.2093 -0.8070 -0.9175
  142MOL0     H19137   0.273   3.119  -0.432 -1.4435  1.0236  0.1166
  142MOL0     H19138   0.139   2.986  -0.605 -1.4576 -0.8128  0.0086
  142MOL0     H19139   0.002   2.991  -0.485 -1.6467  1.2223 -0.0939
  142MOL0     H19140   0.160   3.222  -0.627  0.4777 -0.1167  1.1099
  142MOL0     H19141   0.049   3.257  -0.500  4.2380  0.1376  0.8188
  142MOL0     H19142  -0.017   3.110  -0.750 -0.9290 -2.1878  2.2147
  142MOL0     H19143  -0.136   3.150  -0.635 -0.5553  1.3166 -0.4376
  142MOL0     H19144   0.026   3.359  -0.792 -1.4156  0.7646 -2.4749
  142MOL0     H19145  -0.076   3.403  -0.654 -0.6648  1.0927 -1.2969
  142MOL0     H19146  -0.185   3.250  -0.883 -1.6182  1.5842 -2.9045
  142MOL0     H19147  -0.264   3.349  -0.758 -1.4767 -0.6043 -2.0207
  142MOL0     H19148  -0.088   3.464  -0.976  2.6378 -4.7774  2.9692
  142MOL0     H19149  -0.175   3.563  -0.865  0.9560  0.1993 -0.6296
  142MOL0     H19150  -0.292   3.375  -1.065 -0.9474 -0.9277  1.5793
  142MOL0     H19151  -0.297   3.550  -1.071 -0.2937  0.2312  1.6475
  142MOL0     H19152   0.481   2.938  -0.486 -0.4404  0.8665  0.4013
  142MOL0     H19153   0.678   2.936  -0.370 -0.0136  0.0130 -0.3049
  142MOL0     H19154   0.933   3.110  -0.083 -1.0893 -0.0262  1.4470
  142MOL0     H19155   1.145   3.161   0.001  1.0397  0.5113 -0.7855
  142MOL0     H19156   2.560   3.547   0.887  3.0116  3.0631  0.2047
  142MOL0     H19157   2.774   3.533   1.016 -2.2530 -0.6160  2.8014
  142MOL0     H19158   3.173   3.348   1.147  0.4150  0.6677  0.0692
  142MOL0     H19159   3.423   3.332   1.179 -0.7340  1.5820  1.2530
  142MOL0     H19160   3.625   3.209   0.971  0.6644 -0.2542 -0.4284
  142MOL0     H19161   3.667   3.337   0.843  1.1148  1.3046  0.7873
  142MOL0     H19162   3.875   3.388   0.948  0.3508  0.8193  1.0031
  142MOL0     H19163   3.861   3.204   0.931 -0.1833 -0.3487 -0.8415
  142MOL0     H19164   3.812   3.163   1.137  1.7031 -0.4357  2.1100
  142MOL0     H19165   3.815   3.326   1.191  2.3429 -0.5312  1.8340
  142MOL0     H19166   4.059   3.212   1.070 -1.1624  0.7660 -1.4811
  142MOL0     H19167   4.027   3.214   1.248  1.2641 -0.7814 -0.8405
  142MOL0     H19168   4.137   3.617   1.184  1.4342  0.3691  0.6179
  142MOL0     H19169   3.490   3.460   0.797  4.1499 -0.3647  1.9288
  142MOL0     H19170   3.233   3.485   0.757  1.1729 -0.4605 -0.0062
  143MOL0     O19171   3.580  10.138   1.787  0.1674  0.8307 -0.1085
  143MOL0     C19172   3.697  10.173   1.775  0.2494  1.0950 -0.8369
  143MOL0     O19173   3.757  10.290   1.818 -0.4732 -0.2928 -0.0952
  143MOL0     C19174   3.682  10.410   1.854  0.5231  0.2282  0.3376
  143MOL0     C19175   3.750  10.510   1.930  0.1776  0.4181 -0.0983
  143MOL0     C19176   3.676  10.622   1.971  0.4838  0.0132 -0.0877
  143MOL0     C19177   3.544  10.648   1.930 -0.0756 -0.8055 -0.0885
  143MOL0     O19178   3.466  10.764   1.952  0.3984  0.2629  0.2430
  143MOL0     C19179   3.444  10.781   2.091 -0.3818  0.1013  0.7443
  143MOL0     C19180   3.307  10.859   2.120 -0.3010 -0.5301 -0.3437
  143MOL0     C19181   3.195  10.809   2.038  0.9230  0.4049 -0.1276
  143MOL0     C19182   3.060  10.874   2.065  0.8988  0.0831  0.3076
  143MOL0     C19183   2.949  10.824   1.971 -0.1791  0.2647 -0.3023
  143MOL0     C19184   2.809  10.894   1.976 -0.4604 -1.0989  1.1410
  143MOL0     C19185   2.696  10.799   1.924  0.6061 -0.1550  0.0452
  143MOL0     C19186   2.561  10.875   1.927  0.7077 -0.7843  0.3282
  143MOL0     N19187   2.441  10.806   1.873 -0.1010  0.5523  0.6017
  143MOL0     C19188   2.341  10.734   1.937  0.6819  0.4775  0.0402
  143MOL0     C19189   2.259  10.678   1.842 -0.7414 -0.8895 -0.2719
  143MOL0     C19190   2.143  10.588   1.859 -0.2151  0.3233  0.1421
  143MOL0     C19191   2.024  10.649   1.775 -0.0636  0.2799 -0.1339
  143MOL0     C19192   1.895  10.571   1.773 -0.4893  0.8628  0.5408
  143MOL0     C19193   1.776  10.656   1.726 -0.7397 -0.3478 -0.1706
  143MOL0     O19194   1.773  10.771   1.802  0.4726 -1.1521  0.7938
  143MOL0     C19195   1.673  10.866   1.765 -0.2204 -0.0874  0.0741
  143MOL0     C19196   1.687  10.998   1.804 -0.8779 -0.0474 -0.2163
  143MOL0     C19197   1.603  11.099   1.756  1.0515 -0.2814  0.5083
  143MOL0     C19198   1.637  11.248   1.777 -0.3242  0.7118 -0.2320
  143MOL0     C19199   1.489  11.076   1.675  0.1480 -0.3765 -0.7006
  143MOL0     C19200   1.403  11.175   1.604  0.7812  0.4242  0.2976
  143MOL0     O19201   1.270  11.129   1.589 -0.6879  0.2992  0.7618
  143MOL0     C19202   1.181  11.213   1.525 -0.0141  0.2035  0.5055
  143MOL0     C19203   1.088  11.280   1.603  0.2190  0.0134  0.1330
  143MOL0     C19204   0.978  11.345   1.540 -0.1970 -1.2247 -0.0650
  143MOL0     C19205   0.960  11.343   1.400  0.1950  0.4608  0.5465
  143MOL0     O19206   0.842  11.411   1.353 -0.0382  0.5650  0.1134
  143MOL0     C19207   0.799  11.407   1.214  0.2536 -0.9020 -0.4477
  143MOL0     C19208   0.889  11.508   1.143 -0.1710 -0.0858  0.6604
  143MOL0     C19209   0.844  11.538   1.004 -0.2941  0.6767  0.1680
  143MOL0     C19210   0.863  11.421   0.909 -0.4036 -0.4521  0.5631
  143MOL0     C19211   0.764  11.430   0.790  0.0934 -0.0490 -0.0698
  143MOL0     C19212   0.769  11.304   0.706 -0.2775  0.3620  0.8318
  143MOL0     C19213   0.634  11.292   0.636  0.1618 -0.4216 -0.7241
  143MOL0     C19214   0.537  11.220   0.728 -0.2331  0.6905  1.4762
  143MOL0    Cl19215   0.381  11.214   0.646  0.2951  0.7039  0.2768
  143MOL0     C19216   1.050  11.273   1.322 -0.6316  0.4024 -0.0828
  143MOL0     C19217   1.160  11.207   1.382 -0.7012  0.2681  0.1665
  143MOL0     O19218   1.440  11.288   1.572 -0.5697  0.6407  0.5585
  143MOL0     C19219   1.457  10.937   1.665  0.3388  0.2496  0.3337
  143MOL0     C19220   1.550  10.829   1.707  0.0552 -0.2006  0.7970
  143MOL0     N19221   2.299  10.750   1.730 -0.2215  0.1871 -0.0053
  143MOL0     N19222   2.410  10.813   1.744 -0.3559 -0.2580 -0.1978
  143MOL0     C19223   3.480  10.558   1.850  0.1585 -0.7894 -0.1111
  143MOL0     C19224   3.544  10.438   1.814  0.3249  0.4134 -0.1501
  143MOL0     C19225   3.790  10.086   1.704  0.2174 -0.4716  0.2185
  143MOL0     C19226   3.755   9.954   1.670 -0.4718 -0.1432 -0.8331
  143MOL0     C19227   3.843   9.878   1.592  1.4616  0.2693 -0.6931
  143MOL0     C19228   3.962   9.938   1.547  0.0420  0.2887  0.1978
  143MOL0     O19229   4.026   9.841   1.478 -0.7541 -0.0520  0.4630
  143MOL0     C19230   4.127   9.898   1.388 -0.7975  0.9292 -0.1244
  143MOL0     C19231   4.267   9.875   1.439 -0.8043 -1.3729  0.2308
  143MOL0     C19232   4.300   9.723   1.457  0.0227 -0.0916  0.4631
  143MOL0     C19233   4.452   9.701   1.466 -0.0440 -0.4409  0.4071
  143MOL0     C19234   4.504   9.734   1.597 -0.0637  0.5546 -0.6360
  143MOL0     C19235   4.554   9.749   1.704  0.7243 -0.0364  0.1988
  143MOL0     C19236   4.003  10.064   1.583  0.6437  0.2200 -0.4108
  143MOL0     C19237   3.910  10.147   1.655 -0.1707 -0.1591 -0.1548
  143MOL0     H19238   3.853  10.502   1.960  0.2904  2.5457  0.2871
  143MOL0     H19239   3.735  10.684   2.038 -2.4289 -0.9283  3.6995
  143MOL0     H19240   3.452  10.686   2.145  0.1245 -0.1001  0.3185
  143MOL0     H19241   3.512  10.857   2.130 -1.1250 -0.0313  2.3920
  143MOL0     H19242   3.288  10.839   2.226 -1.2163  2.7745  0.2502
  143MOL0     H19243   3.329  10.966   2.122  1.0158 -0.7864 -0.2745
  143MOL0     H19244   3.215  10.824   1.931 -0.4322 -1.0781 -0.6199
  143MOL0     H19245   3.186  10.700   2.046  0.7678  0.4905  1.1069
  143MOL0     H19246   3.039  10.857   2.171 -0.6565  0.5101  0.0991
  143MOL0     H19247   3.064  10.983   2.052 -0.1614 -0.0806 -1.8859
  143MOL0     H19248   2.988  10.818   1.869 -1.0295  2.2935 -0.7924
  143MOL0     H19249   2.944  10.717   1.994 -1.3079 -0.0692 -1.9133
  143MOL0     H19250   2.791  10.955   2.064 -1.7880 -2.0039  1.5310
  143MOL0     H19251   2.811  10.975   1.903 -2.6793 -1.0850  1.0327
  143MOL0     H19252   2.727  10.769   1.823 -1.5436 -0.3044 -0.6182
  143MOL0     H19253   2.690  10.708   1.985  0.2807 -0.6982 -0.7865
  143MOL0     H19254   2.573  10.970   1.874  4.0560 -0.3148  1.6757
  143MOL0     H19255   2.543  10.915   2.027  2.0689  1.9400 -0.4142
  143MOL0     H19256   2.339  10.699   2.040  0.9654  0.1314 -0.0686
  143MOL0     H19257   2.164  10.490   1.816 -0.3730  1.1614 -1.9686
  143MOL0     H19258   2.131  10.578   1.967  0.1069 -1.8883  0.0199
  143MOL0     H19259   2.065  10.670   1.675  0.3865  0.4547  0.0860
  143MOL0     H19260   2.002  10.753   1.803 -1.9539  0.8928 -3.2504
  143MOL0     H19261   1.871  10.544   1.876  0.6021  1.0276  0.8501
  143MOL0     H19262   1.901  10.476   1.718 -1.9977  0.5238  0.9373
  143MOL0     H19263   1.686  10.594   1.722  0.8115 -2.7215 -0.5051
  143MOL0     H19264   1.795  10.684   1.622 -0.9260  1.0024  0.1486
  143MOL0     H19265   1.776  11.029   1.856 -0.6416  2.7350 -2.0911
  143MOL0     H19266   1.733  11.258   1.827  0.3233 -0.0588 -1.2641
  143MOL0     H19267   1.633  11.305   1.683 -0.1024 -0.1810 -0.7973
  143MOL0     H19268   1.560  11.296   1.838  0.2296  0.0880  0.9758
  143MOL0     H19269   1.105  11.289   1.710  1.4375 -0.7705  0.0182
  143MOL0     H19270   0.914  11.411   1.597  4.2541  2.9173  0.8440
  143MOL0     H19271   0.814  11.308   1.170 -1.7671 -0.7962 -1.4778
  143MOL0     H19272   0.692  11.427   1.208  0.6948  2.0152 -0.2351
  143MOL0     H19273   0.867  11.605   1.190 -2.7868  1.5625 -3.4444
  143MOL0     H19274   0.996  11.492   1.155 -0.3395 -2.6131 -0.6647
  143MOL0     H19275   0.898  11.623   0.962 -0.4942 -0.0932 -1.7536
  143MOL0     H19276   0.741  11.573   1.007  0.1721  2.6990 -3.0663
  143MOL0     H19277   0.964  11.400   0.874 -1.1458 -0.0179 -2.0580
  143MOL0     H19278   0.824  11.333   0.961 -0.9766 -1.9631 -2.2000
  143MOL0     H19279   0.792  11.515   0.727 -1.6305  1.9571  1.7085
  143MOL0     H19280   0.668  11.456   0.835  0.1349  0.1364 -0.0885
  143MOL0     H19281   0.843  11.320   0.627  0.0760 -2.0188  0.6101
  143MOL0     H19282   0.786  11.205   0.749 -0.8758  0.4950  1.4024
  143MOL0     H19283   0.651  11.241   0.541 -1.2229  0.8688 -1.7123
  143MOL0     H19284   0.593  11.391   0.612  0.4189  0.4472  2.1086
  143MOL0     H19285   0.537  11.253   0.832  1.5997  1.2206  1.3454
  143MOL0     H19286   0.568  11.116   0.736 -2.2059 -0.0548  0.2594
  143MOL0     H19287   1.037  11.268   1.214 -2.7744  1.4459  0.0811
  143MOL0     H19288   1.227  11.145   1.323 -1.8620 -1.8761  0.9976
  143MOL0     H19289   1.368  10.904   1.611  0.3178 -1.9603  1.5988
  143MOL0     H19290   1.514  10.729   1.687  2.0209 -1.1707  1.8866
  143MOL0     H19291   3.377  10.574   1.820 -0.8578 -0.2028  3.2126
  143MOL0     H19292   3.486  10.368   1.755 -1.7845  0.7014  1.4872
  143MOL0     H19293   3.660   9.909   1.698 -0.3444 -0.2940 -0.6397
  143MOL0     H19294   3.807   9.782   1.557 -1.0330  1.5025 -1.7324
  143MOL0     H19295   4.110   9.842   1.296 -1.1276  1.8690 -0.6431
  143MOL0     H19296   4.111  10.002   1.359  0.7758  0.5487 -2.6568
  143MOL0     H19297   4.294   9.941   1.522  2.3105  1.3303 -2.6712
  143MOL0     H19298   4.324   9.907   1.352 -0.4772  1.2985  1.3313
  143MOL0     H19299   4.275   9.674   1.363 -1.3657  0.2149  0.6557
  143MOL0     H19300   4.231   9.688   1.534  0.1926  2.5913  1.9504
  143MOL0     H19301   4.500   9.764   1.391 -0.9146  0.7750  0.8316
  143MOL0     H19302   4.476   9.597   1.442  0.2512 -1.9183  5.7522
  143MOL0     H19303   4.589   9.755   1.805  4.4775 -0.6516 -0.8769
  143MOL0     H19304   4.101  10.099   1.552  1.9885 -2.7581  0.1296
  143MOL0     H19305   3.935  10.249   1.681 -0.2108 -0.3548  0.6818
  144MOL0     O19306   0.027   5.870   9.799  0.3441  0.0242 -0.0976
  144MOL0     C19307   0.097   5.971   9.826  0.0314  0.1831  0.2718
  144MOL0     O19308   0.050   6.090   9.884 -0.1857  0.7253  0.0709
  144MOL0     C19309  -0.086   6.088   9.912 -0.3377  0.4533  0.0336
  144MOL0     C19310  -0.179   6.135   9.816 -0.1967  0.1885 -0.3445
  144MOL0     C19311  -0.316   6.132   9.839 -0.7199 -1.0049 -0.1372
  144MOL0     C19312  -0.354   6.101   9.973  0.6619  0.5788  0.2910
  144MOL0     O19313  -0.481   6.100  10.024  0.3341  0.2443 -0.0017
  144MOL0     C19314  -0.588   6.126   9.934  0.0446 -0.0895 -0.3317
  144MOL0     C19315  -0.731   6.107   9.991 -0.8489  0.1990 -0.5898
  144MOL0     C19316  -0.831   6.187   9.908  0.5582  0.2588 -0.8349
  144MOL0     C19317  -0.896   6.303   9.977  0.2861 -0.4407 -0.2750
  144MOL0     C19318  -1.010   6.341   9.878 -0.6562 -0.0442  0.7374
  144MOL0     C19319  -1.091   6.464   9.930 -0.1152 -0.9523 -0.1839
  144MOL0     C19320  -1.200   6.441  10.033  0.2729  0.4345 -0.1282
  144MOL0     C19321  -1.311   6.359   9.963  0.0906  0.1645  0.1307
  144MOL0     N19322  -1.430   6.343  10.048  0.7588 -0.7060 -0.2155
  144MOL0     C19323  -1.438   6.345  10.184  0.2077  0.9292  0.2593
  144MOL0     C19324  -1.567   6.336  10.210 -1.0129  0.3531  0.4251
  144MOL0     C19325  -1.624   6.342  10.345  0.3769 -0.4537  0.5021
  144MOL0     C19326  -1.723   6.461  10.369  0.5191 -0.1289  0.4851
  144MOL0     C19327  -1.650   6.591  10.352 -0.0509  0.0594  0.1422
  144MOL0     C19328  -1.550   6.630  10.461  0.5268  2.0547 -0.2327
  144MOL0     O19329  -1.530   6.768  10.469  0.4442  0.3673 -0.2520
  144MOL0     C19330  -1.402   6.801  10.497  0.0277  0.4574 -0.6198
  144MOL0     C19331  -1.342   6.742  10.614  0.5409 -0.3633  0.2870
  144MOL0     C19332  -1.200   6.771  10.634  0.9748 -0.1628  0.3911
  144MOL0     C19333  -1.141   6.705  10.749  0.4223 -0.4670  0.7843
  144MOL0     C19334  -1.131   6.858  10.547 -0.3501  0.4539 -0.9218
  144MOL0     C19335  -0.984   6.880  10.557 -0.7015 -0.0375  0.1916
  144MOL0     O19336  -0.925   6.911  10.438 -0.4421 -0.5196 -0.6175
  144MOL0     C19337  -0.796   6.952  10.412 -0.7131  0.1279 -0.3749
  144MOL0     C19338  -0.694   6.975  10.510  0.6365  0.2904  0.5406
  144MOL0     C19339  -0.573   7.039  10.478 -0.8062 -0.3415  0.0730
  144MOL0     C19340  -0.557   7.093  10.350  1.5066 -0.1674 -0.5905
  144MOL0     O19341  -0.438   7.151  10.331 -0.1299 -0.0793  0.5357
  144MOL0     C19342  -0.415   7.212  10.198  0.4282 -0.5683  0.2188
  144MOL0     C19343  -0.282   7.300  10.228 -0.2544  0.4110  1.3750
  144MOL0     C19344  -0.165   7.202  10.251 -0.4577 -0.1305  0.6133
  144MOL0     C19345  -0.057   7.268  10.339 -0.2361 -0.0543  0.3400
  144MOL0     C19346   0.085   7.211  10.307  0.0883 -0.7552 -1.2975
  144MOL0     C19347   0.162   7.187  10.441 -0.4787 -0.5754 -0.2309
  144MOL0     C19348   0.316   7.156  10.423  0.0895  0.3221 -0.1647
  144MOL0     C19349   0.400   7.254  10.347 -0.0775 -0.1315  0.4831
  144MOL0    Cl19350   0.409   7.409  10.447 -0.3100  0.2987 -0.2043
  144MOL0     C19351  -0.657   7.075  10.252  0.6450  0.3876 -0.1511
  144MOL0     C19352  -0.765   6.992  10.280 -0.4874  0.9602  0.0453
  144MOL0     O19353  -0.924   6.871  10.664  0.0953  0.6915  0.5385
  144MOL0     C19354  -1.198   6.918  10.444 -0.8650 -0.6843 -0.6156
  144MOL0     C19355  -1.333   6.887  10.410  0.1324 -0.5861 -0.4127
  144MOL0     N19356  -1.641   6.341  10.093  1.0561  0.5588 -0.3923
  144MOL0     N19357  -1.560   6.343  10.000  0.0242  0.6516 -0.2122
  144MOL0     C19358  -0.263   6.066  10.077  1.3179 -0.8272  0.2975
  144MOL0     C19359  -0.130   6.062  10.044  0.6514 -0.2931  0.6865
  144MOL0     C19360   0.238   5.961   9.784  0.1317  0.8511  0.0074
  144MOL0     C19361   0.291   5.836   9.731 -0.5279 -0.2130 -0.5058
  144MOL0     C19362   0.420   5.837   9.687  0.3362  0.2156  0.0823
  144MOL0     C19363   0.488   5.953   9.662 -1.4320 -0.8337 -0.1090
  144MOL0     O19364   0.609   5.966   9.609 -0.9138  0.6138  0.0855
  144MOL0     C19365   0.707   5.858   9.604 -0.3201 -0.1267 -0.0474
  144MOL0     C19366   0.770   5.834   9.468 -0.5351  0.2811 -0.5021
  144MOL0     C19367   0.835   5.696   9.446  0.3448 -0.5526  0.0729
  144MOL0     C19368   0.942   5.648   9.548 -0.1180  0.2920 -0.3731
  144MOL0     C19369   1.082   5.688   9.533 -0.9917 -0.5987 -0.1985
  144MOL0     C19370   1.196   5.745   9.526  0.4003  0.1944 -0.5971
  144MOL0     C19371   0.439   6.080   9.706 -0.0656 -0.0816 -0.3409
  144MOL0     C19372   0.321   6.076   9.773  0.3128  0.3645 -0.1211
  144MOL0     H19373  -0.142   6.167   9.719  3.3986  0.5192  0.9512
  144MOL0     H19374  -0.378   6.156   9.754  2.3809  0.8720 -2.0601
  144MOL0     H19375  -0.580   6.227   9.892 -0.4883 -0.1788 -0.6501
  144MOL0     H19376  -0.569   6.062   9.846  0.4898 -0.2722 -0.1069
  144MOL0     H19377  -0.749   6.000   9.980  0.4966 -0.1556  0.3566
  144MOL0     H19378  -0.737   6.138  10.095  0.8309 -2.7361  0.5003
  144MOL0     H19379  -0.780   6.233   9.822 -0.0585  0.9232 -0.8535
  144MOL0     H19380  -0.914   6.122   9.879 -0.7602  0.7135  1.6700
  144MOL0     H19381  -0.946   6.268  10.068  3.4946 -0.5102  1.6083
  144MOL0     H19382  -0.820   6.378   9.999 -0.1904 -0.2093  0.6148
  144MOL0     H19383  -0.965   6.368   9.783 -0.4299 -0.6772  0.6588
  144MOL0     H19384  -1.071   6.252   9.859  1.4287 -0.9408 -2.3001
  144MOL0     H19385  -1.020   6.539   9.966 -0.8573  0.2399 -1.1709
  144MOL0     H19386  -1.146   6.516   9.852 -2.7603  1.8233  3.2005
  144MOL0     H19387  -1.175   6.391  10.127 -0.4381 -1.9173 -1.0994
  144MOL0     H19388  -1.250   6.534  10.063  0.2253 -0.0359  1.3227
  144MOL0     H19389  -1.279   6.257   9.941  1.2695  0.0056  2.3252
  144MOL0     H19390  -1.339   6.409   9.870  1.0948  0.9541  0.2367
  144MOL0     H19391  -1.362   6.347  10.261 -1.0307 -1.5144  1.6615
  144MOL0     H19392  -1.665   6.242  10.365 -3.3849  0.9006  0.1764
  144MOL0     H19393  -1.542   6.350  10.418  0.4303  0.7838  0.3296
  144MOL0     H19394  -1.781   6.461  10.461 -1.0052 -0.0792 -0.4329
  144MOL0     H19395  -1.801   6.459  10.292 -2.6156  2.7767  3.2446
  144MOL0     H19396  -1.727   6.668  10.349  0.4923  0.5739 -2.1735
  144MOL0     H19397  -1.605   6.606  10.254  0.6347  3.8537  0.9059
  144MOL0     H19398  -1.454   6.579  10.452  0.1438  1.0952  0.8115
  144MOL0     H19399  -1.594   6.589  10.552  1.0987 -0.8252 -1.1497
  144MOL0     H19400  -1.412   6.692  10.679 -2.0280  1.0676 -1.2260
  144MOL0     H19401  -1.060   6.654  10.696 -0.5897 -0.7047 -0.5831
  144MOL0     H19402  -1.108   6.781  10.820  0.8661 -0.4547  0.5686
  144MOL0     H19403  -1.202   6.638  10.810  2.7231 -0.3628  3.4131
  144MOL0     H19404  -0.709   6.939  10.611  0.5255  0.4182  0.5697
  144MOL0     H19405  -0.493   7.048  10.551  1.2740 -3.5331 -1.6125
  144MOL0     H19406  -0.404   7.149  10.109  2.8009 -0.1307  0.1345
  144MOL0     H19407  -0.500   7.278  10.180  1.0594 -0.0158 -0.8599
  144MOL0     H19408  -0.259   7.354  10.136  0.1557 -1.6705  0.1789
  144MOL0     H19409  -0.301   7.379  10.301 -2.7419 -0.5494  1.8527
  144MOL0     H19410  -0.131   7.165  10.154  2.5817  1.4399  0.9595
  144MOL0     H19411  -0.188   7.101  10.289 -0.3390 -0.2514  0.3662
  144MOL0     H19412  -0.049   7.377  10.331  4.0014 -0.2337 -0.6938
  144MOL0     H19413  -0.094   7.260  10.442 -2.4874 -0.1934 -0.4385
  144MOL0     H19414   0.146   7.285  10.255  3.1270 -2.8655 -1.0154
  144MOL0     H19415   0.074   7.115  10.256  0.1394 -0.8251 -1.1772
  144MOL0     H19416   0.149   7.280  10.498  0.1485  0.9032 -2.3742
  144MOL0     H19417   0.119   7.101  10.493 -0.0029  0.4359  1.9668
  144MOL0     H19418   0.323   7.061  10.369  0.0349  0.1087  0.1978
  144MOL0     H19419   0.357   7.142  10.524 -0.5750  0.6915  0.1623
  144MOL0     H19420   0.359   7.266  10.246 -2.2566 -3.0888  0.9067
  144MOL0     H19421   0.503   7.215  10.341  0.7220  1.6446  1.6780
  144MOL0     H19422  -0.655   7.115  10.151 -0.7149  1.3090  0.1539
  144MOL0     H19423  -0.833   6.963  10.200 -4.1268 -0.4046  3.3577
  144MOL0     H19424  -1.161   6.987  10.369 -1.0958  1.5439  1.2212
  144MOL0     H19425  -1.374   6.931  10.320  0.7312  0.6262 -0.1193
  144MOL0     H19426  -0.300   6.037  10.175  0.4455  0.3510  0.3423
  144MOL0     H19427  -0.057   6.032  10.120  1.4801 -1.1073 -0.3914
  144MOL0     H19428   0.229   5.747   9.727 -2.4859  1.1312 -2.2876
  144MOL0     H19429   0.460   5.738   9.667 -1.5580 -0.7035  0.6226
  144MOL0     H19430   0.789   5.879   9.674 -0.6534 -3.1591  1.4393
  144MOL0     H19431   0.660   5.764   9.634 -2.0721  1.2285  1.6625
  144MOL0     H19432   0.847   5.912   9.470 -1.3562  1.4096  5.4434
  144MOL0     H19433   0.705   5.851   9.382 -0.5981  0.5621 -0.4014
  144MOL0     H19434   0.891   5.693   9.352  0.9066 -0.2637  0.3982
  144MOL0     H19435   0.766   5.612   9.432  1.0908 -1.3137  0.8410
  144MOL0     H19436   0.943   5.539   9.548 -0.7627  0.2746 -1.2349
  144MOL0     H19437   0.909   5.681   9.648 -1.8039  3.1743 -1.7277
  144MOL0     H19438   1.295   5.785   9.535 -1.0160  3.5773  1.8953
  144MOL0     H19439   0.503   6.167   9.697 -0.9065  0.8539  2.1905
  144MOL0     H19440   0.290   6.174   9.808 -0.0373 -0.1400  1.0466
  145MOL0     O19441   8.038   7.926   2.001  0.0929 -0.2238 -0.2023
  145MOL0     C19442   8.063   7.878   1.897 -0.2020  0.5725  0.7120
  145MOL0     O19443   7.972   7.817   1.814  0.4280 -0.0030 -0.3991
  145MOL0     C19444   7.836   7.801   1.831 -0.3717 -0.4603 -0.3346
  145MOL0     C19445   7.749   7.873   1.911  0.0587  0.1744 -0.5790
  145MOL0     C19446   7.615   7.823   1.928  0.3899  0.1091  0.5150
  145MOL0     C19447   7.561   7.720   1.859 -0.3797 -0.5288 -0.1437
  145MOL0     O19448   7.425   7.721   1.845  0.3620  0.3780  0.3814
  145MOL0     C19449   7.367   7.586   1.825 -0.9828  0.3602  0.6885
  145MOL0     C19450   7.227   7.587   1.867 -0.4930  0.1449 -0.0524
  145MOL0     C19451   7.165   7.446   1.871 -0.0435 -0.2544  0.5352
  145MOL0     C19452   7.012   7.433   1.851 -0.3521  0.1629  0.3028
  145MOL0     C19453   6.975   7.276   1.839 -0.0074 -1.0740  0.3605
  145MOL0     C19454   6.820   7.252   1.805 -0.3339 -0.8072  0.3194
  145MOL0     C19455   6.780   7.105   1.800 -0.0103 -1.1309  0.3101
  145MOL0     C19456   6.629   7.080   1.759 -0.1944 -0.1727  1.0932
  145MOL0     N19457   6.529   7.140   1.842  0.4577  0.2794 -0.2052
  145MOL0     C19458   6.442   7.239   1.804 -0.2919  0.9202  0.2008
  145MOL0     C19459   6.373   7.283   1.914  0.5277  0.3785  0.3438
  145MOL0     C19460   6.267   7.392   1.918 -0.2650  0.0740  1.2003
  145MOL0     C19461   6.141   7.341   1.982  0.3143  0.4420 -1.3480
  145MOL0     C19462   6.039   7.444   1.962 -0.0255  0.3891  0.5497
  145MOL0     C19463   5.899   7.392   2.018 -1.0030  0.1525 -0.3622
  145MOL0     O19464   5.811   7.336   1.916 -0.2029  0.0072 -0.4267
  145MOL0     C19465   5.691   7.292   1.954 -0.2362 -0.4579 -0.4447
  145MOL0     C19466   5.660   7.241   2.079 -0.1480  0.3401 -1.3112
  145MOL0     C19467   5.535   7.199   2.113  0.3226  1.5433 -0.4029
  145MOL0     C19468   5.518   7.155   2.253  0.0563  0.3510 -0.8916
  145MOL0     C19469   5.437   7.193   2.013  0.2272  0.0253 -0.7076
  145MOL0     C19470   5.308   7.126   2.033  0.1482 -0.2076 -0.3017
  145MOL0     O19471   5.245   7.144   2.149 -0.4690  0.8087 -0.0629
  145MOL0     C19472   5.126   7.087   2.176 -0.3938  0.7660  1.0086
  145MOL0     C19473   5.097   6.951   2.145  0.0949 -0.2709 -0.3675
  145MOL0     C19474   4.979   6.891   2.174 -0.1355 -0.1298 -0.0769
  145MOL0     C19475   4.874   6.968   2.231  0.7435 -1.0286  0.2241
  145MOL0     O19476   4.753   6.918   2.250  0.7053  0.4592 -0.0997
  145MOL0     C19477   4.664   6.940   2.140 -0.4371  0.2494 -0.3808
  145MOL0     C19478   4.680   6.857   2.012 -0.8043  0.1073  0.5200
  145MOL0     C19479   4.561   6.845   1.916 -0.4298 -0.2823 -0.0348
  145MOL0     C19480   4.529   6.975   1.837 -0.1963  0.4186  0.4868
  145MOL0     C19481   4.397   6.944   1.758  1.1300  0.6053 -0.2008
  145MOL0     C19482   4.344   7.067   1.697  0.0174 -0.6052  0.4462
  145MOL0     C19483   4.218   7.039   1.614  0.2832 -0.6820 -0.3183
  145MOL0     C19484   4.092   7.011   1.692 -0.2678 -0.0731  0.1797
  145MOL0    Cl19485   3.950   7.037   1.588  0.9004  0.1380  0.3109
  145MOL0     C19486   4.904   7.104   2.261 -0.4322 -0.0701 -0.7583
  145MOL0     C19487   5.030   7.164   2.235 -0.4529 -0.1613  0.4650
  145MOL0     O19488   5.260   7.065   1.934 -0.0460 -0.8577 -0.3609
  145MOL0     C19489   5.463   7.247   1.890 -1.0678  0.2187  0.6232
  145MOL0     C19490   5.594   7.295   1.854  0.4717  0.4177 -0.3818
  145MOL0     N19491   6.406   7.198   2.021  0.1435  0.1200  0.0743
  145MOL0     N19492   6.503   7.123   1.976 -0.5703  1.3816 -0.4526
  145MOL0     C19493   7.646   7.663   1.760  0.0737  0.6353  0.1515
  145MOL0     C19494   7.779   7.698   1.752 -0.1359 -0.8739  0.4758
  145MOL0     C19495   8.200   7.902   1.841 -0.0535 -0.8874 -0.3302
  145MOL0     C19496   8.287   7.997   1.906  0.3866  0.7843  0.6362
  145MOL0     C19497   8.413   8.035   1.849  0.2736  0.3056  0.2178
  145MOL0     C19498   8.457   7.974   1.729 -0.3036  0.1405 -0.7457
  145MOL0     O19499   8.577   7.992   1.665 -0.2118  0.1681 -0.7447
  145MOL0     C19500   8.668   8.093   1.724  0.8053  0.3579  0.4556
  145MOL0     C19501   8.801   8.075   1.645 -0.2191 -0.9778 -0.0129
  145MOL0     C19502   8.911   8.184   1.654  0.7270  0.7976 -0.2742
  145MOL0     C19503   8.975   8.205   1.793 -0.4370 -0.1086  0.3145
  145MOL0     C19504   9.063   8.100   1.824 -0.5409  0.1832 -0.1009
  145MOL0     C19505   9.128   8.006   1.850 -0.5848 -0.5577  0.3932
  145MOL0     C19506   8.366   7.894   1.664  0.4228 -0.2919 -0.1579
  145MOL0     C19507   8.241   7.866   1.715  0.7000  0.7658  0.1428
  145MOL0     H19508   7.771   7.969   1.957 -3.6175  1.4665 -1.1295
  145MOL0     H19509   7.547   7.880   1.990  0.4748  1.0214 -0.2091
  145MOL0     H19510   7.377   7.546   1.723  2.9842  0.2273  0.9623
  145MOL0     H19511   7.424   7.512   1.881 -2.8578 -3.7127 -2.2370
  145MOL0     H19512   7.217   7.633   1.966  0.7096 -1.6941  0.9845
  145MOL0     H19513   7.171   7.656   1.802 -0.1505  1.0507  0.5921
  145MOL0     H19514   7.212   7.393   1.787  2.1691  2.7529 -0.2927
  145MOL0     H19515   7.193   7.403   1.967  2.0182 -0.9013 -0.2948
  145MOL0     H19516   6.964   7.478   1.938  0.5891  3.5259 -0.7730
  145MOL0     H19517   6.982   7.482   1.758 -2.2791  0.3523  0.9825
  145MOL0     H19518   7.028   7.234   1.753 -1.3426  0.5713 -1.3647
  145MOL0     H19519   7.007   7.225   1.930 -0.5700 -1.9630  0.0662
  145MOL0     H19520   6.759   7.302   1.881  0.2892 -0.8810  0.8833
  145MOL0     H19521   6.792   7.309   1.716 -2.7578 -0.7043  1.0799
  145MOL0     H19522   6.844   7.056   1.726 -1.1812 -2.0919 -0.0966
  145MOL0     H19523   6.791   7.048   1.893  1.2544  0.1578  0.9863
  145MOL0     H19524   6.603   6.974   1.771 -0.3319 -0.7934 -3.1219
  145MOL0     H19525   6.607   7.103   1.654 -3.0543 -2.8691  0.9677
  145MOL0     H19526   6.444   7.274   1.701  2.6699  1.7279  0.4447
  145MOL0     H19527   6.302   7.478   1.976 -1.1300 -0.4829  2.6162
  145MOL0     H19528   6.237   7.423   1.818 -1.3724 -1.2628  1.0820
  145MOL0     H19529   6.143   7.334   2.091 -0.9346  0.1740 -1.3301
  145MOL0     H19530   6.119   7.245   1.934  1.6014 -1.0853  0.9124
  145MOL0     H19531   6.027   7.466   1.856  1.7200  1.1577  0.4696
  145MOL0     H19532   6.053   7.537   2.019 -4.4463  0.2819  2.1850
  145MOL0     H19533   5.857   7.475   2.075 -1.2828 -2.6672  3.9998
  145MOL0     H19534   5.925   7.309   2.085  0.9821 -2.2918 -3.8489
  145MOL0     H19535   5.732   7.234   2.160 -3.6259 -3.0235  1.8681
  145MOL0     H19536   5.529   7.047   2.260 -2.6179 -0.1262 -2.6403
  145MOL0     H19537   5.586   7.203   2.324  0.1918  0.9224 -1.3983
  145MOL0     H19538   5.418   7.183   2.288  1.3753  2.8013  1.3257
  145MOL0     H19539   5.168   6.889   2.091  0.4631 -1.0523  0.9672
  145MOL0     H19540   4.963   6.790   2.137  0.3392  0.2261 -1.2978
  145MOL0     H19541   4.560   6.917   2.164  0.1043 -2.9829 -0.7045
  145MOL0     H19542   4.672   7.048   2.120 -0.2492  0.4551  0.7379
  145MOL0     H19543   4.757   6.895   1.943 -1.1588 -1.2581 -0.6943
  145MOL0     H19544   4.706   6.756   2.047  2.2260  0.3167 -0.7688
  145MOL0     H19545   4.473   6.803   1.966 -0.0023  1.1341  2.0159
  145MOL0     H19546   4.592   6.780   1.834  3.1005  0.1193  0.8359
  145MOL0     H19547   4.519   7.066   1.897 -0.7774  3.0928 -3.3465
  145MOL0     H19548   4.606   6.987   1.760  1.1360 -2.1485  1.2983
  145MOL0     H19549   4.322   6.908   1.829 -0.1014  3.2714 -0.0513
  145MOL0     H19550   4.421   6.874   1.678  2.0973  1.4394 -0.6601
  145MOL0     H19551   4.326   7.143   1.774  1.9589  1.7490 -1.2822
  145MOL0     H19552   4.416   7.114   1.631 -2.6032  1.0383 -1.4273
  145MOL0     H19553   4.219   6.962   1.536 -2.2006  1.0045 -2.1732
  145MOL0     H19554   4.195   7.128   1.555  0.1818 -0.6674 -0.2575
  145MOL0     H19555   4.078   7.085   1.770 -1.1579  0.5361 -0.5385
  145MOL0     H19556   4.094   6.907   1.727 -3.4989 -0.7082 -1.1187
  145MOL0     H19557   4.822   7.145   2.319 -1.1617 -2.1404 -0.2445
  145MOL0     H19558   5.051   7.267   2.262 -2.9386  0.6489 -0.4039
  145MOL0     H19559   5.390   7.258   1.810 -1.0606  1.3028  0.7467
  145MOL0     H19560   5.615   7.338   1.756  2.9407 -0.0596 -0.1416
  145MOL0     H19561   7.599   7.590   1.695  0.7529 -0.0096  0.3695
  145MOL0     H19562   7.829   7.639   1.676 -0.6353 -0.8011  0.0908
  145MOL0     H19563   8.263   8.046   2.000 -2.5668 -0.7955  0.8375
  145MOL0     H19564   8.473   8.099   1.913 -0.0238  0.7758  0.0393
  145MOL0     H19565   8.622   8.191   1.714  1.0031  0.3934 -0.1303
  145MOL0     H19566   8.679   8.085   1.833  0.2535 -0.0505  0.4870
  145MOL0     H19567   8.773   8.084   1.540 -1.1255  0.2453  0.3114
  145MOL0     H19568   8.840   7.975   1.663  0.7418 -0.7317 -0.5804
  145MOL0     H19569   8.855   8.270   1.617 -0.0907  0.7863  0.8626
  145MOL0     H19570   8.986   8.159   1.579  0.1501  0.2235 -0.6668
  145MOL0     H19571   8.904   8.209   1.877  0.7040  0.4327  1.2873
  145MOL0     H19572   9.035   8.296   1.799  2.0412 -1.1195 -4.6085
  145MOL0     H19573   9.181   7.918   1.881 -0.2507  0.2601  2.2753
  145MOL0     H19574   8.396   7.851   1.569  0.2695  1.0971 -0.8670
  145MOL0     H19575   8.165   7.823   1.651  1.3065 -0.3104  0.1193
  146MOL0     O19576   7.856   1.504   8.939  0.4200  0.1349  0.6493
  146MOL0     C19577   7.819   1.415   9.016 -0.2639 -0.7023 -0.2803
  146MOL0     O19578   7.729   1.437   9.119 -0.1375  0.4235 -0.0805
  146MOL0     C19579   7.685   1.565   9.143  0.6286  0.3235 -0.1036
  146MOL0     C19580   7.551   1.587   9.126 -0.3835  0.5328  0.8417
  146MOL0     C19581   7.493   1.708   9.166 -0.7020  0.7460 -0.1291
  146MOL0     C19582   7.571   1.812   9.221  0.6054 -0.0352  0.2399
  146MOL0     O19583   7.507   1.930   9.255 -0.4426  0.0398 -0.0544
  146MOL0     C19584   7.593   2.031   9.314  0.1124 -0.7574 -0.5183
  146MOL0     C19585   7.528   2.174   9.304  0.2679  0.0512  0.2203
  146MOL0     C19586   7.384   2.206   9.345 -0.0198  0.4483  0.1051
  146MOL0     C19587   7.375   2.361   9.345 -0.0532 -0.3715  0.4346
  146MOL0     C19588   7.247   2.417   9.409 -0.3509  0.5881 -0.5823
  146MOL0     C19589   7.121   2.389   9.334 -0.8469 -0.0380  1.0530
  146MOL0     C19590   7.005   2.435   9.413 -0.5550 -0.2611 -0.1903
  146MOL0     C19591   6.896   2.430   9.312  0.0712 -0.2710  0.0863
  146MOL0     N19592   6.776   2.492   9.362  1.0974  0.2037 -0.5266
  146MOL0     C19593   6.671   2.420   9.413  0.6754 -0.0913  0.8814
  146MOL0     C19594   6.567   2.503   9.423 -0.1331 -0.1778  0.4097
  146MOL0     C19595   6.422   2.474   9.456 -0.3861  0.4826  0.1364
  146MOL0     C19596   6.336   2.432   9.339  0.9887  0.2963  0.0080
  146MOL0     C19597   6.195   2.388   9.376 -0.4938 -0.1393 -0.2398
  146MOL0     C19598   6.103   2.506   9.376  0.4566 -0.9777  0.1540
  146MOL0     O19599   5.975   2.461   9.404  0.3265 -0.1277 -0.3157
  146MOL0     C19600   5.865   2.550   9.416 -0.6571 -0.0184  0.2465
  146MOL0     C19601   5.863   2.680   9.370  0.4746  0.7662  0.5762
  146MOL0     C19602   5.749   2.758   9.387 -0.0006 -0.6057  1.0031
  146MOL0     C19603   5.754   2.901   9.335  0.0858 -0.2173 -0.2468
  146MOL0     C19604   5.628   2.700   9.441 -0.0249  0.2128 -0.1598
  146MOL0     C19605   5.506   2.777   9.476 -0.2192  1.0074 -0.1812
  146MOL0     O19606   5.394   2.702   9.486  0.5507  0.0406  0.6330
  146MOL0     C19607   5.280   2.770   9.522 -0.0118  0.2864 -0.3222
  146MOL0     C19608   5.219   2.859   9.434 -0.1039 -0.2249  0.8791
  146MOL0     C19609   5.087   2.909   9.464 -0.5027  0.5955 -0.5734
  146MOL0     C19610   5.034   2.886   9.590 -0.8819  0.2417  0.2926
  146MOL0     O19611   4.919   2.941   9.635 -0.7066  0.1572 -0.4673
  146MOL0     C19612   4.810   2.922   9.548 -0.0421  0.0249  0.4840
  146MOL0     C19613   4.693   2.957   9.640 -0.4061 -0.0643  0.8845
  146MOL0     C19614   4.671   2.861   9.757 -0.2090 -0.1775  0.2456
  146MOL0     C19615   4.540   2.885   9.841  1.2486 -0.0831  0.3891
  146MOL0     C19616   4.522   2.786   9.965  0.5214 -0.5358  1.3213
  146MOL0     C19617   4.404   2.833  10.048  0.0989  0.7808 -0.6358
  146MOL0     C19618   4.261   2.821   9.985 -0.1138 -0.2027 -0.4328
  146MOL0     C19619   4.199   2.684  10.015  0.5236  0.3563  0.7039
  146MOL0    Cl19620   4.027   2.695   9.951  0.2497  0.0326 -0.5524
  146MOL0     C19621   5.101   2.805   9.683  0.1808 -0.3824  0.2426
  146MOL0     C19622   5.216   2.745   9.642  0.5302  0.5375 -0.5118
  146MOL0     O19623   5.506   2.902   9.488  0.2688 -0.1910 -0.7434
  146MOL0     C19624   5.630   2.562   9.487  0.1261 -0.5884 -0.0878
  146MOL0     C19625   5.753   2.493   9.468  0.8922  0.5327 -0.0394
  146MOL0     N19626   6.611   2.622   9.378 -0.9870 -0.1938 -0.4275
  146MOL0     N19627   6.737   2.620   9.341  0.7983 -0.4573  0.4235
  146MOL0     C19628   7.709   1.783   9.233  0.0869 -0.3071  0.3678
  146MOL0     C19629   7.769   1.663   9.186  0.5748  0.3768 -0.3543
  146MOL0     C19630   7.878   1.277   9.008  0.1811  0.0528  0.5544
  146MOL0     C19631   7.868   1.177   9.107 -0.4829  0.1867  0.3689
  146MOL0     C19632   7.925   1.052   9.099  0.3154 -0.4573 -0.1021
  146MOL0     C19633   8.013   1.018   8.997 -0.6156 -0.1869 -0.0607
  146MOL0     O19634   8.076   0.897   9.008  0.0160 -0.5926 -0.0103
  146MOL0     C19635   8.186   0.884   8.912 -0.5318  0.8445  0.1085
  146MOL0     C19636   8.271   0.759   8.959  0.5207  0.2102 -0.4787
  146MOL0     C19637   8.383   0.723   8.870 -0.0277  0.1546 -0.6363
  146MOL0     C19638   8.451   0.599   8.918 -0.9338  0.2151  0.6831
  146MOL0     C19639   8.549   0.640   9.020  0.1131  1.0808  0.3154
  146MOL0     C19640   8.633   0.677   9.095  0.3106 -0.3985 -0.4170
  146MOL0     C19641   8.035   1.123   8.898  0.1219 -0.2366  0.3847
  146MOL0     C19642   7.975   1.247   8.914 -0.1387  0.0046  0.5568
  146MOL0     H19643   7.490   1.506   9.085  2.5931 -1.1084 -0.6745
  146MOL0     H19644   7.386   1.720   9.177 -1.0939 -3.4853  3.8391
  146MOL0     H19645   7.612   2.007   9.419  0.3720  1.4370 -0.0005
  146MOL0     H19646   7.686   2.035   9.257  0.7772  1.7913  0.5980
  146MOL0     H19647   7.591   2.228   9.374  1.6166 -0.3726 -0.6185
  146MOL0     H19648   7.540   2.212   9.202 -1.5530  2.5738  0.8576
  146MOL0     H19649   7.313   2.165   9.273  1.9712 -0.5589 -1.3651
  146MOL0     H19650   7.355   2.172   9.445 -0.4188  0.7601  0.0985
  146MOL0     H19651   7.462   2.406   9.394  0.3405  1.4105 -1.7322
  146MOL0     H19652   7.377   2.387   9.239  3.0680  1.1735  0.7795
  146MOL0     H19653   7.237   2.369   9.507  4.0189  3.1737  1.4334
  146MOL0     H19654   7.263   2.525   9.418  2.1310  0.5328 -2.9770
  146MOL0     H19655   7.134   2.450   9.244 -1.1841 -1.7099 -0.1843
  146MOL0     H19656   7.107   2.284   9.309  0.5076  0.0812 -0.3220
  146MOL0     H19657   6.988   2.373   9.502 -2.1920 -0.9734 -0.9529
  146MOL0     H19658   7.013   2.535   9.458 -2.2518  0.3547 -1.1846
  146MOL0     H19659   6.868   2.331   9.275  1.8750 -1.0809  0.7810
  146MOL0     H19660   6.929   2.499   9.234  2.7688  1.1325  2.2928
  146MOL0     H19661   6.655   2.316   9.437 -0.0863 -0.0407  0.6164
  146MOL0     H19662   6.425   2.393   9.530 -1.9949 -0.2130 -0.5259
  146MOL0     H19663   6.384   2.569   9.493 -1.0881  0.1797  0.2093
  146MOL0     H19664   6.386   2.342   9.303 -0.4727  0.0645 -1.5830
  146MOL0     H19665   6.328   2.509   9.261  0.4036 -0.0767 -0.3088
  146MOL0     H19666   6.212   2.340   9.473  1.4877 -0.2829 -0.6111
  146MOL0     H19667   6.161   2.318   9.299  0.4289  0.9315 -1.6613
  146MOL0     H19668   6.098   2.542   9.273  0.3582 -1.5929 -0.0564
  146MOL0     H19669   6.139   2.588   9.439 -0.1211  0.6269 -1.5235
  146MOL0     H19670   5.948   2.733   9.330  0.3040  1.5528  1.2212
  146MOL0     H19671   5.762   2.967   9.422  1.9516 -0.6866 -0.0080
  146MOL0     H19672   5.846   2.923   9.280 -0.0861 -3.2463 -1.9506
  146MOL0     H19673   5.660   2.928   9.286 -0.4792  0.5547  1.1819
  146MOL0     H19674   5.256   2.874   9.333 -2.1735 -1.6478 -0.1732
  146MOL0     H19675   5.049   2.987   9.399 -3.2252  0.8899  1.2249
  146MOL0     H19676   4.816   2.982   9.456 -1.8155 -0.5197 -0.0480
  146MOL0     H19677   4.788   2.819   9.515 -0.4627  0.5822 -1.1031
  146MOL0     H19678   4.696   3.059   9.681 -0.2543  0.4240 -0.2717
  146MOL0     H19679   4.604   2.952   9.576  0.3098 -2.1503 -0.0458
  146MOL0     H19680   4.758   2.874   9.821  1.0495  1.8072 -1.7143
  146MOL0     H19681   4.669   2.756   9.724 -3.5224 -0.5841  1.3598
  146MOL0     H19682   4.536   2.992   9.866 -2.4898  0.7938 -2.9990
  146MOL0     H19683   4.470   2.854   9.763  1.7439 -0.7438  0.1993
  146MOL0     H19684   4.607   2.787  10.034  0.7600 -1.4018  1.0576
  146MOL0     H19685   4.516   2.680   9.938 -1.2260 -0.2302  0.3916
  146MOL0     H19686   4.406   2.777  10.142 -0.3321  1.1060 -0.4236
  146MOL0     H19687   4.410   2.939  10.074 -3.0198  0.9197 -0.0804
  146MOL0     H19688   4.253   2.841   9.877  0.7533  0.0889 -0.4515
  146MOL0     H19689   4.201   2.901  10.028 -0.9531  0.3035 -2.3978
  146MOL0     H19690   4.193   2.656  10.121 -1.8070  1.9883  1.0734
  146MOL0     H19691   4.244   2.598   9.964  1.1821  0.6200  0.8387
  146MOL0     H19692   5.057   2.786   9.781  1.3543 -1.6285  0.5692
  146MOL0     H19693   5.264   2.676   9.712 -0.7072 -1.2023 -1.3131
  146MOL0     H19694   5.545   2.527   9.545 -0.8532  0.0600 -1.1070
  146MOL0     H19695   5.764   2.392   9.507  0.2160 -0.1732 -1.5693
  146MOL0     H19696   7.775   1.855   9.280 -1.8882  1.6744  0.2415
  146MOL0     H19697   7.876   1.648   9.193  0.4394 -0.0342  1.5304
  146MOL0     H19698   7.806   1.192   9.195 -1.3820 -1.9400  0.1705
  146MOL0     H19699   7.900   0.977   9.173  0.2322 -2.6420 -2.2041
  146MOL0     H19700   8.157   0.874   8.807  2.9837 -3.4842 -0.7442
  146MOL0     H19701   8.249   0.974   8.911 -0.4930  0.9327 -3.9176
  146MOL0     H19702   8.203   0.675   8.947  1.1495 -0.3398 -0.2220
  146MOL0     H19703   8.286   0.786   9.064  1.5964 -2.5348  0.1366
  146MOL0     H19704   8.460   0.800   8.862  1.0105 -0.6007  1.3228
  146MOL0     H19705   8.349   0.696   8.769 -1.1439 -1.4783  0.1308
  146MOL0     H19706   8.507   0.556   8.834 -4.2044 -1.5560 -0.7447
  146MOL0     H19707   8.379   0.530   8.963 -0.7407 -1.2939 -1.2172
  146MOL0     H19708   8.723   0.711   9.142  0.0866  1.7484 -1.4137
  146MOL0     H19709   8.106   1.111   8.817 -0.5314  1.7733 -0.5639
  146MOL0     H19710   8.002   1.312   8.831 -0.0453 -1.6520 -0.7759
  147MOL0     O19711   6.723  10.152   0.178  0.2386 -0.4201  0.4694
  147MOL0     C19712   6.797  10.201   0.267 -0.5588 -0.5974 -0.8174
  147MOL0     O19713   6.751  10.265   0.380  0.2856  0.5226  0.2398
  147MOL0     C19714   6.620  10.288   0.407 -0.4451 -0.3679 -0.4530
  147MOL0     C19715   6.519  10.196   0.410 -0.2948  1.1092  0.1412
  147MOL0     C19716   6.386  10.215   0.445  0.6190 -1.1179  0.2462
  147MOL0     C19717   6.353  10.333   0.500  1.0364  0.6163 -0.1829
  147MOL0     O19718   6.223  10.349   0.536 -0.3636  0.7169  0.0681
  147MOL0     C19719   6.164  10.473   0.570 -0.7269 -0.5888 -0.8595
  147MOL0     C19720   6.026  10.466   0.633  0.9729  0.2188 -0.7313
  147MOL0     C19721   5.953  10.603   0.643  0.6680  0.1088  0.5687
  147MOL0     C19722   5.805  10.593   0.694 -0.0072 -0.2416 -0.0906
  147MOL0     C19723   5.768  10.734   0.745 -0.2177  0.1318  0.4720
  147MOL0     C19724   5.625  10.750   0.799  0.0455 -0.0658 -0.9293
  147MOL0     C19725   5.522  10.742   0.695  0.3768 -0.4611  0.9319
  147MOL0     C19726   5.388  10.793   0.757 -0.1235 -0.1234 -0.2772
  147MOL0     N19727   5.271  10.765   0.662  0.3766  1.1334  1.1519
  147MOL0     C19728   5.231  10.637   0.622 -0.0574  0.1599  0.8969
  147MOL0     C19729   5.155  10.659   0.515 -0.3114 -0.1179  0.1256
  147MOL0     C19730   5.088  10.549   0.435 -0.6175  0.0912 -0.8068
  147MOL0     C19731   4.955  10.514   0.505  0.2147  0.0424 -0.1649
  147MOL0     C19732   4.859  10.624   0.480 -1.2528 -0.0255 -0.4333
  147MOL0     C19733   4.719  10.580   0.517 -0.5319  0.0021  0.1284
  147MOL0     O19734   4.633  10.695   0.542 -0.2930 -0.3296 -0.3279
  147MOL0     C19735   4.500  10.663   0.565  0.2365 -0.4233  1.8304
  147MOL0     C19736   4.417  10.773   0.573  0.2726  1.0483 -0.3221
  147MOL0     C19737   4.283  10.755   0.590 -0.2981  0.2827  0.1162
  147MOL0     C19738   4.214  10.885   0.600 -0.2116 -0.2212  0.6937
  147MOL0     C19739   4.218  10.625   0.589  1.0395 -0.0417  0.2570
  147MOL0     C19740   4.074  10.594   0.594  0.2196  0.2487 -0.3848
  147MOL0     O19741   4.039  10.483   0.670 -0.0436 -0.1813 -0.9111
  147MOL0     C19742   3.907  10.450   0.701 -0.0886 -0.1245 -0.0491
  147MOL0     C19743   3.791  10.518   0.675  0.3423 -0.6004  0.1232
  147MOL0     C19744   3.665  10.455   0.696 -0.8791  0.4315 -0.8501
  147MOL0     C19745   3.659  10.327   0.747  0.2236 -0.2766 -0.0617
  147MOL0     O19746   3.541  10.255   0.762 -0.3908 -0.4717 -0.2503
  147MOL0     C19747   3.543  10.111   0.753  0.4815  0.2324  0.5216
  147MOL0     C19748   3.422  10.063   0.665  0.4201 -0.4615  0.3241
  147MOL0     C19749   3.452  10.114   0.528  0.7624  0.3844  0.4972
  147MOL0     C19750   3.562  10.022   0.463  0.4405 -0.1448  0.4679
  147MOL0     C19751   3.616  10.087   0.331 -0.2008 -0.0456  0.4275
  147MOL0     C19752   3.717  10.190   0.369  0.5275  0.7613 -0.2056
  147MOL0     C19753   3.787  10.244   0.248  0.2417  0.2740 -0.0043
  147MOL0     C19754   3.881  10.351   0.293  0.2787  0.2900  0.1425
  147MOL0    Cl19755   3.967  10.407   0.155  0.1190  0.9411 -0.2061
  147MOL0     C19756   3.777  10.260   0.782 -0.3834  0.1747 -0.9088
  147MOL0     C19757   3.900  10.328   0.767  0.2196 -0.1497 -0.7439
  147MOL0     O19758   3.993  10.668   0.540 -0.1060 -0.3603  0.6303
  147MOL0     C19759   4.308  10.521   0.589  0.4876  0.8782 -1.0643
  147MOL0     C19760   4.444  10.540   0.574  0.9480  0.8812 -0.7004
  147MOL0     N19761   5.149  10.795   0.498 -0.3274  0.2702  0.2989
  147MOL0     N19762   5.217  10.860   0.588  0.6017 -0.2708  0.2399
  147MOL0     C19763   6.445  10.441   0.490 -0.0751  0.6316  0.5451
  147MOL0     C19764   6.574  10.412   0.452 -0.7313  0.2483 -0.3126
  147MOL0     C19765   6.942  10.193   0.260  0.6460  0.0143  0.4952
  147MOL0     C19766   7.011  10.118   0.158 -0.3784  0.2086 -0.6667
  147MOL0     C19767   7.146  10.101   0.158 -0.4876 -0.4561 -0.0503
  147MOL0     C19768   7.227  10.168   0.252  0.3232 -0.3607  0.0351
  147MOL0     O19769   7.366  10.177   0.253  0.1382  1.2618 -0.1436
  147MOL0     C19770   7.453  10.105   0.156  0.0137  0.0236 -0.0394
  147MOL0     C19771   7.592  10.158   0.176 -0.4354 -0.6394  1.4690
  147MOL0     C19772   7.642  10.121   0.314 -0.2761  0.0812  0.2677
  147MOL0     C19773   7.791  10.161   0.318  0.9441  0.2873  0.3248
  147MOL0     C19774   7.814  10.304   0.332 -0.0607 -0.4120  0.1765
  147MOL0     C19775   7.853  10.417   0.343  0.7451 -0.5076  0.9888
  147MOL0     C19776   7.165  10.243   0.353 -0.6400 -0.4071  0.6173
  147MOL0     C19777   7.021  10.246   0.365 -0.0516  0.3443 -0.2316
  147MOL0     H19778   6.560  10.101   0.375  1.5390  2.7896 -2.6850
  147MOL0     H19779   6.304  10.144   0.438 -1.8393  1.6517 -3.0195
  147MOL0     H19780   6.229  10.531   0.638  1.1291 -2.0171 -1.3413
  147MOL0     H19781   6.158  10.532   0.478  1.7333 -0.1415 -0.8268
  147MOL0     H19782   5.962  10.404   0.569  1.8797 -0.6736 -0.7947
  147MOL0     H19783   6.026  10.412   0.728 -1.5798  0.6843 -0.3961
  147MOL0     H19784   6.007  10.668   0.712  2.4868 -1.6838  0.9523
  147MOL0     H19785   5.943  10.635   0.539  0.4231 -2.5431 -0.3208
  147MOL0     H19786   5.735  10.552   0.621 -1.0513  1.2166  0.0739
  147MOL0     H19787   5.811  10.520   0.776 -1.6397 -3.1737 -2.4026
  147MOL0     H19788   5.842  10.754   0.823 -0.8017  3.9011  0.2277
  147MOL0     H19789   5.782  10.810   0.667 -0.9400  0.9924  1.1651
  147MOL0     H19790   5.623  10.666   0.869  0.9801  0.2181 -0.5376
  147MOL0     H19791   5.619  10.841   0.859  0.4117  0.2464 -1.3556
  147MOL0     H19792   5.556  10.806   0.613 -0.7780 -1.5980 -0.4896
  147MOL0     H19793   5.511  10.644   0.646  1.4986  1.0304 -2.6307
  147MOL0     H19794   5.381  10.900   0.781 -0.5639 -0.3987  0.8958
  147MOL0     H19795   5.368  10.728   0.843 -1.2418 -1.3710 -1.4448
  147MOL0     H19796   5.261  10.544   0.671 -0.5973 -0.4893  0.0284
  147MOL0     H19797   5.085  10.579   0.330  0.4473 -0.1688 -0.9228
  147MOL0     H19798   5.145  10.456   0.427 -1.4352 -0.4635 -0.3458
  147MOL0     H19799   4.973  10.492   0.611 -3.5977  2.6061  1.2266
  147MOL0     H19800   4.916  10.422   0.459 -0.2083 -2.0908  3.9975
  147MOL0     H19801   4.867  10.643   0.373 -1.4288  1.9747 -0.1303
  147MOL0     H19802   4.867  10.717   0.538 -2.7813  1.9795 -3.2082
  147MOL0     H19803   4.733  10.526   0.611  0.1527  0.7618  0.4828
  147MOL0     H19804   4.676  10.507   0.449 -0.3707  0.4438 -0.4571
  147MOL0     H19805   4.463  10.871   0.565 -1.4826  2.0673  1.2251
  147MOL0     H19806   4.281  10.971   0.603  0.0220 -0.4224  1.7209
  147MOL0     H19807   4.141  10.907   0.522  0.2169 -1.8634 -0.2350
  147MOL0     H19808   4.157  10.879   0.693 -1.3504  0.7396  0.0777
  147MOL0     H19809   3.784  10.619   0.637 -2.0974 -0.5483  0.5178
  147MOL0     H19810   3.567  10.500   0.683 -0.6722  1.0138 -0.4505
  147MOL0     H19811   3.632  10.058   0.717 -1.2488 -2.1977 -0.4712
  147MOL0     H19812   3.535  10.077   0.856  1.1954 -1.2985  0.1033
  147MOL0     H19813   3.410   9.955   0.655  2.5774 -0.5667 -3.0263
  147MOL0     H19814   3.324  10.105   0.688  0.7868  1.3974 -1.1565
  147MOL0     H19815   3.477  10.221   0.521  0.3045  0.5497  1.2525
  147MOL0     H19816   3.360  10.111   0.467  0.5429  1.4317  0.7587
  147MOL0     H19817   3.645  10.007   0.531  0.2327 -4.6527 -0.0192
  147MOL0     H19818   3.519   9.923   0.449 -1.8362  0.6836  1.0973
  147MOL0     H19819   3.538  10.128   0.267 -0.2899  1.4793  1.4419
  147MOL0     H19820   3.667  10.007   0.278  1.0955  0.2571  1.1711
  147MOL0     H19821   3.667  10.271   0.422  1.0678  0.6052  0.5692
  147MOL0     H19822   3.796  10.152   0.435  3.4179  3.6702 -1.6846
  147MOL0     H19823   3.722  10.284   0.170  0.2369 -0.6834 -0.5091
  147MOL0     H19824   3.840  10.160   0.201  1.6360  1.3960 -0.4964
  147MOL0     H19825   3.961  10.302   0.350 -0.8482  0.4085  1.9306
  147MOL0     H19826   3.828  10.432   0.345 -0.1816 -0.0036  0.1353
  147MOL0     H19827   3.781  10.162   0.830  0.8665  1.4665  1.8382
  147MOL0     H19828   3.989  10.272   0.792 -1.4956 -2.2754  0.9678
  147MOL0     H19829   4.282  10.416   0.595  1.5832  0.6226 -0.5794
  147MOL0     H19830   4.510  10.454   0.568  0.0131 -0.1056  1.6605
  147MOL0     H19831   6.419  10.541   0.523 -2.6608  0.5616 -1.0263
  147MOL0     H19832   6.647  10.492   0.445 -0.9032  0.5075  0.6862
  147MOL0     H19833   6.940  10.063   0.097 -0.7926 -1.8454  1.4814
  147MOL0     H19834   7.204  10.043   0.087  0.6703  0.2613  0.2853
  147MOL0     H19835   7.453   9.999   0.182  0.6733 -0.1457 -0.6816
  147MOL0     H19836   7.425  10.113   0.051 -0.6048  1.0009  0.1900
  147MOL0     H19837   7.595  10.267   0.171  4.2002 -0.4920  3.1605
  147MOL0     H19838   7.655  10.122   0.094 -0.8902  1.3994  0.1533
  147MOL0     H19839   7.629  10.016   0.341  2.2622 -0.2187  0.5809
  147MOL0     H19840   7.586  10.164   0.397 -0.6493  0.2383 -0.0574
  147MOL0     H19841   7.854  10.118   0.240  0.1546  0.0783 -0.2081
  147MOL0     H19842   7.825  10.122   0.414  3.1137 -0.5838 -0.7375
  147MOL0     H19843   7.885  10.516   0.371 -0.1656 -0.2431  1.1285
  147MOL0     H19844   7.225  10.301   0.423 -0.4675  1.9597 -1.3396
  147MOL0     H19845   6.978  10.308   0.442  1.7092  0.5427  0.6576
  148MOL0     O19846   0.877   8.418   4.742 -0.1585  0.1508 -0.4186
  148MOL0     C19847   0.876   8.383   4.860  0.0844  0.2056 -0.3255
  148MOL0     O19848   0.776   8.316   4.918  0.3595 -0.5135  0.0945
  148MOL0     C19849   0.646   8.308   4.861 -1.1863  0.2781 -0.4580
  148MOL0     C19850   0.609   8.296   4.724 -0.4002 -0.1791  0.4791
  148MOL0     C19851   0.476   8.286   4.678 -0.3327 -0.7010 -0.5329
  148MOL0     C19852   0.376   8.293   4.776 -0.7768 -0.4803  0.8946
  148MOL0     O19853   0.247   8.278   4.732 -0.3505 -0.1383  0.7414
  148MOL0     C19854   0.133   8.308   4.821 -0.6783 -0.0312  0.3319
  148MOL0     C19855   0.011   8.332   4.731 -0.1963  0.1231 -0.4024
  148MOL0     C19856  -0.115   8.273   4.790  0.0661  0.5631 -0.8391
  148MOL0     C19857  -0.242   8.307   4.713 -0.7667  0.4077 -0.2278
  148MOL0     C19858  -0.366   8.225   4.767  0.0072 -0.0019  0.4417
  148MOL0     C19859  -0.492   8.257   4.690  0.0895  1.1748 -0.4254
  148MOL0     C19860  -0.556   8.400   4.683 -0.2999  0.1818 -0.0355
  148MOL0     C19861  -0.687   8.411   4.596 -0.7328 -0.1086 -1.0108
  148MOL0     N19862  -0.794   8.324   4.645 -0.5314 -0.0997  0.0120
  148MOL0     C19863  -0.912   8.320   4.581  0.5461 -1.1955 -0.8309
  148MOL0     C19864  -0.994   8.251   4.666  0.4221 -1.3920 -0.4177
  148MOL0     C19865  -1.139   8.217   4.672 -0.4200 -0.5904  0.2099
  148MOL0     C19866  -1.209   8.212   4.540  0.4527 -0.4683  0.0031
  148MOL0     C19867  -1.238   8.350   4.470 -0.6602  0.9229 -0.0699
  148MOL0     C19868  -1.368   8.366   4.394  0.1059  0.0761  0.4647
  148MOL0     O19869  -1.477   8.378   4.490  0.0325 -0.2560  0.4566
  148MOL0     C19870  -1.605   8.388   4.442 -0.5993  1.2543  0.5453
  148MOL0     C19871  -1.636   8.426   4.309  0.0268 -0.5462 -0.0404
  148MOL0     C19872  -1.774   8.432   4.279  0.4262 -0.0251 -0.4481
  148MOL0     C19873  -1.817   8.471   4.133 -0.2061  0.5461  0.3028
  148MOL0     C19874  -1.868   8.404   4.378 -0.0327  0.4661 -0.1782
  148MOL0     C19875  -2.014   8.405   4.350 -0.0430  0.2888 -0.7337
  148MOL0     O19876  -2.078   8.286   4.380  0.1839  0.0009 -0.0295
  148MOL0     C19877  -2.207   8.269   4.347 -0.5210  0.2683 -0.8014
  148MOL0     C19878  -2.302   8.368   4.387  0.0841  0.2237  0.5410
  148MOL0     C19879  -2.439   8.352   4.369 -0.5820 -0.2591 -0.7136
  148MOL0     C19880  -2.487   8.245   4.289  0.6885 -0.8522 -0.8000
  148MOL0     O19881  -2.626   8.236   4.269  0.1752  0.4621  0.3167
  148MOL0     C19882  -2.663   8.174   4.140  0.0603  0.4471  0.5140
  148MOL0     C19883  -2.746   8.257   4.042  0.4141 -0.0572 -0.8452
  148MOL0     C19884  -2.710   8.260   3.895 -0.4321  0.0742 -0.4628
  148MOL0     C19885  -2.629   8.383   3.856 -0.0799  0.1244  0.0851
  148MOL0     C19886  -2.496   8.378   3.926 -0.3804  0.7594  0.3757
  148MOL0     C19887  -2.411   8.502   3.912  0.5221 -0.5261  0.4213
  148MOL0     C19888  -2.278   8.481   3.975 -0.0655  0.3203 -0.3996
  148MOL0     C19889  -2.190   8.593   3.937 -0.7484  0.2209  0.0192
  148MOL0    Cl19890  -2.179   8.609   3.754 -0.3179 -0.3583  0.0248
  148MOL0     C19891  -2.401   8.136   4.264  0.4353 -0.5461 -0.2368
  148MOL0     C19892  -2.261   8.151   4.294 -0.5351  0.9112  0.3704
  148MOL0     O19893  -2.062   8.501   4.288 -0.7444 -0.2072 -0.8543
  148MOL0     C19894  -1.830   8.360   4.501  0.2068 -0.7921 -0.0118
  148MOL0     C19895  -1.699   8.350   4.540 -0.1236 -0.7540 -0.3476
  148MOL0     N19896  -0.921   8.230   4.783  1.1824 -0.4055  0.2437
  148MOL0     N19897  -0.804   8.265   4.770  0.2230 -0.3473 -0.6828
  148MOL0     C19898   0.407   8.294   4.917 -0.5666 -0.9440  0.2451
  148MOL0     C19899   0.541   8.300   4.955 -0.1017  0.4782  0.4930
  148MOL0     C19900   0.998   8.392   4.939 -0.5574  0.2030  0.6544
  148MOL0     C19901   1.005   8.334   5.069  0.2344 -0.5594 -0.3885
  148MOL0     C19902   1.125   8.342   5.145 -0.7003  0.2307 -0.8070
  148MOL0     C19903   1.243   8.393   5.091  0.1743  0.1713  0.3726
  148MOL0     O19904   1.356   8.384   5.171  0.2941 -0.1275  0.2939
  148MOL0     C19905   1.488   8.404   5.117 -0.3319 -1.3429  0.2475
  148MOL0     C19906   1.529   8.542   5.125 -0.7998  0.6146 -0.2702
  148MOL0     C19907   1.682   8.555   5.131 -0.7622  0.2508  0.4621
  148MOL0     C19908   1.702   8.714   5.108 -0.2666  0.2889 -0.5999
  148MOL0     C19909   1.822   8.724   5.033  0.2760 -0.4762 -0.7686
  148MOL0     C19910   1.906   8.724   4.947 -0.2918 -0.1576  0.4169
  148MOL0     C19911   1.241   8.438   4.960  0.2837  0.0465  0.4884
  148MOL0     C19912   1.124   8.434   4.884  0.5447 -0.0856 -0.5089
  148MOL0     H19913   0.688   8.308   4.651  0.1268  0.7796  1.1932
  148MOL0     H19914   0.452   8.287   4.572 -2.0426 -0.2140 -0.1609
  148MOL0     H19915   0.116   8.229   4.894  1.2386 -0.9457 -0.1364
  148MOL0     H19916   0.141   8.399   4.881 -2.3355 -1.8372  3.5573
  148MOL0     H19917   0.001   8.441   4.723  0.9813  0.2378 -0.5003
  148MOL0     H19918   0.008   8.289   4.630 -2.6557 -2.0542  0.4893
  148MOL0     H19919  -0.091   8.166   4.789  2.0754  0.9608  0.0987
  148MOL0     H19920  -0.123   8.320   4.889 -2.4798  2.6663 -1.9224
  148MOL0     H19921  -0.266   8.413   4.722 -0.5921  0.2565  4.6084
  148MOL0     H19922  -0.217   8.288   4.608  2.4255  0.0467  0.4943
  148MOL0     H19923  -0.353   8.117   4.754 -1.6938  0.0394 -2.3424
  148MOL0     H19924  -0.374   8.244   4.874  0.2680 -1.8314  0.8321
  148MOL0     H19925  -0.480   8.220   4.588 -0.0961  1.7352 -0.6565
  148MOL0     H19926  -0.563   8.188   4.736  1.5474  0.4775  0.8309
  148MOL0     H19927  -0.583   8.421   4.787 -0.4801 -0.9417  0.1582
  148MOL0     H19928  -0.487   8.478   4.650  1.4084 -0.0026  2.7501
  148MOL0     H19929  -0.661   8.378   4.495 -0.1359 -0.7770 -0.6555
  148MOL0     H19930  -0.721   8.514   4.595 -1.2443 -0.2101  1.1145
  148MOL0     H19931  -0.933   8.359   4.482 -1.0855 -0.1701 -0.1325
  148MOL0     H19932  -1.138   8.114   4.710  1.1385 -0.6831 -0.0275
  148MOL0     H19933  -1.187   8.280   4.747 -0.1080 -1.4438  1.1379
  148MOL0     H19934  -1.308   8.172   4.563  0.6310  0.3501  2.5498
  148MOL0     H19935  -1.154   8.152   4.467 -1.5711 -1.4021 -0.8305
  148MOL0     H19936  -1.159   8.368   4.397 -0.8597 -2.7742 -1.4395
  148MOL0     H19937  -1.224   8.429   4.544  1.2692  0.2532  0.3516
  148MOL0     H19938  -1.374   8.276   4.332  3.3491  0.1097 -0.1160
  148MOL0     H19939  -1.363   8.457   4.333 -0.7455  0.9109  1.6096
  148MOL0     H19940  -1.563   8.465   4.240 -0.7090  0.0842 -0.4791
  148MOL0     H19941  -1.851   8.574   4.120  2.5008  1.2478 -2.3725
  148MOL0     H19942  -1.730   8.444   4.072  0.1596 -0.0855  1.0903
  148MOL0     H19943  -1.893   8.395   4.108 -0.6805 -0.1768  3.4856
  148MOL0     H19944  -2.263   8.458   4.433 -0.1648  0.5118  0.1913
  148MOL0     H19945  -2.517   8.424   4.395 -1.1145 -1.6852  1.9992
  148MOL0     H19946  -2.582   8.129   4.081 -1.0155  1.0600 -1.5006
  148MOL0     H19947  -2.726   8.085   4.147  0.9110 -0.0811  1.7714
  148MOL0     H19948  -2.850   8.225   4.044  0.9434 -2.6020 -4.5088
  148MOL0     H19949  -2.741   8.362   4.073  1.0003 -0.8704  2.1279
  148MOL0     H19950  -2.805   8.259   3.840 -0.6629 -2.9442 -0.1707
  148MOL0     H19951  -2.653   8.171   3.870 -2.4777 -1.4083 -0.1245
  148MOL0     H19952  -2.613   8.403   3.750 -3.1759  2.8638 -0.0418
  148MOL0     H19953  -2.679   8.476   3.887 -1.1383 -0.5421  0.4570
  148MOL0     H19954  -2.437   8.290   3.898  2.3680  2.0984  1.5485
  148MOL0     H19955  -2.511   8.368   4.034 -1.9280  1.1815  0.2344
  148MOL0     H19956  -2.407   8.514   3.803  1.4107  0.3967  0.5490
  148MOL0     H19957  -2.451   8.597   3.948 -0.3412  0.1087 -1.9991
  148MOL0     H19958  -2.225   8.393   3.937 -1.3315 -0.9817  0.7724
  148MOL0     H19959  -2.299   8.476   4.082  0.3082  0.6883 -0.3066
  148MOL0     H19960  -2.092   8.585   3.984 -1.3565  2.5306  1.8561
  148MOL0     H19961  -2.219   8.686   3.986  0.9153 -0.1869  1.9171
  148MOL0     H19962  -2.430   8.041   4.221 -0.0866  0.2701 -1.7893
  148MOL0     H19963  -2.198   8.064   4.276 -2.1792 -0.2150 -0.2072
  148MOL0     H19964  -1.904   8.339   4.577 -0.2155 -0.0405 -0.2057
  148MOL0     H19965  -1.672   8.299   4.632 -0.4172 -0.3996 -0.0592
  148MOL0     H19966   0.331   8.294   4.993 -0.2999 -2.0506  0.5280
  148MOL0     H19967   0.563   8.314   5.060 -0.9231 -0.1919  0.7633
  148MOL0     H19968   0.919   8.285   5.114  0.2504 -2.1950 -2.0140
  148MOL0     H19969   1.132   8.315   5.249  0.9514  1.4761 -0.5610
  148MOL0     H19970   1.556   8.343   5.178  2.0930  1.0819  0.1641
  148MOL0     H19971   1.493   8.376   5.012  1.2613 -1.0006  0.2068
  148MOL0     H19972   1.485   8.584   5.216  1.1752 -1.0236  1.5189
  148MOL0     H19973   1.488   8.595   5.038 -0.4809  1.2218 -0.0579
  148MOL0     H19974   1.742   8.498   5.059  2.1301 -0.0222  2.8896
  148MOL0     H19975   1.727   8.523   5.225 -0.4446 -1.6778 -0.3015
  148MOL0     H19976   1.708   8.766   5.204 -0.9686 -0.8889  0.1138
  148MOL0     H19977   1.624   8.760   5.047 -3.3413 -1.0846  1.9870
  148MOL0     H19978   1.990   8.713   4.882 -2.2956 -0.6650 -2.2423
  148MOL0     H19979   1.326   8.465   4.898 -0.2631 -1.5618 -1.0414
  148MOL0     H19980   1.130   8.476   4.784  2.6871  1.4178  0.1833
  149MOL0     O19981   5.967   2.791   8.687 -0.5505 -0.1974 -0.3293
  149MOL0     C19982   6.042   2.860   8.618 -1.2579 -0.6260 -0.8717
  149MOL0     O19983   6.008   2.990   8.580 -0.4694  0.4517  0.3323
  149MOL0     C19984   5.894   3.037   8.622  0.1045 -0.7437  0.7395
  149MOL0     C19985   5.801   3.086   8.532  0.0488  0.3415 -0.0986
  149MOL0     C19986   5.668   3.122   8.563 -0.1785  0.6704  0.8378
  149MOL0     C19987   5.624   3.109   8.701  0.0008 -0.5335 -0.0845
  149MOL0     O19988   5.484   3.137   8.727  0.1947  0.1022 -0.1353
  149MOL0     C19989   5.448   3.174   8.864  0.0229  0.6517  0.3466
  149MOL0     C19990   5.400   3.041   8.937 -0.5651 -0.2028 -0.2429
  149MOL0     C19991   5.290   2.972   8.854 -0.3789 -0.2414 -0.4356
  149MOL0     C19992   5.199   2.888   8.943 -0.0491  0.7194 -0.4665
  149MOL0     C19993   5.084   2.958   9.020  0.2725  0.2192  0.3803
  149MOL0     C19994   4.998   3.062   8.938  0.1641  0.7546 -0.1153
  149MOL0     C19995   4.911   2.985   8.833 -1.1456  0.1688  0.1740
  149MOL0     C19996   4.803   3.082   8.783 -0.0846 -0.5104 -0.2216
  149MOL0     N19997   4.683   3.091   8.877 -1.0337  0.2074  0.4315
  149MOL0     C19998   4.555   3.059   8.838 -0.4935 -0.1319  0.1959
  149MOL0     C19999   4.485   3.093   8.949  0.9382  0.3339 -0.4210
  149MOL0     C20000   4.337   3.061   8.978  0.1344  0.2708  0.5997
  149MOL0     C20001   4.309   2.913   8.993 -0.5427  1.0288 -0.1968
  149MOL0     C20002   4.187   2.883   9.078 -1.0652  0.4129 -0.4765
  149MOL0     C20003   4.063   2.945   9.019  0.5613 -0.1986 -0.0651
  149MOL0     O20004   3.939   2.917   9.088  0.4362  0.5385 -0.2560
  149MOL0     C20005   3.896   2.789   9.088  0.9478 -0.3251  0.0364
  149MOL0     C20006   3.839   2.734   9.201  0.3484 -0.2488 -0.5157
  149MOL0     C20007   3.770   2.613   9.208 -0.4059  0.6342 -0.6763
  149MOL0     C20008   3.683   2.588   9.333 -0.0068  0.0541 -0.1236
  149MOL0     C20009   3.773   2.520   9.098  0.3352  0.3874  0.4519
  149MOL0     C20010   3.719   2.379   9.103 -0.0807 -0.4876 -0.0878
  149MOL0     O20011   3.667   2.324   9.208  0.0392 -0.1563 -0.6759
  149MOL0     C20012   3.602   2.200   9.200  0.4355 -0.4835 -0.6015
  149MOL0     C20013   3.543   2.144   9.087  0.0619 -0.2129 -0.0096
  149MOL0     C20014   3.494   2.015   9.086  0.6197  0.7866 -0.2514
  149MOL0     C20015   3.496   1.937   9.194 -0.2967  0.3373  0.0634
  149MOL0     O20016   3.449   1.808   9.193  0.4718  0.4613  0.8358
  149MOL0     C20017   3.311   1.785   9.143  0.0183  0.1862 -0.4400
  149MOL0     C20018   3.246   1.700   9.246 -1.0320 -0.5633 -0.0047
  149MOL0     C20019   3.121   1.636   9.192  0.2260 -0.9076  0.2878
  149MOL0     C20020   3.011   1.739   9.160  0.4496 -0.3909  0.0777
  149MOL0     C20021   2.875   1.680   9.124  0.3106  1.4146 -0.6626
  149MOL0     C20022   2.779   1.801   9.132 -0.2346  0.4225  0.6928
  149MOL0     C20023   2.633   1.747   9.122  0.3231  0.1939 -0.4143
  149MOL0     C20024   2.530   1.849   9.078  0.3017  0.0430  0.4390
  149MOL0    Cl20025   2.374   1.758   9.070  0.0396 -0.0083  0.1549
  149MOL0     C20026   3.547   1.983   9.319 -0.9182 -0.3270  0.5566
  149MOL0     C20027   3.599   2.119   9.321 -0.2093  0.0204  0.2087
  149MOL0     O20028   3.739   2.317   8.997  0.4105 -0.9588 -0.4871
  149MOL0     C20029   3.839   2.571   8.982  0.5117 -0.1900  0.4780
  149MOL0     C20030   3.900   2.703   8.976 -0.0933  0.7176 -0.3240
  149MOL0     N20031   4.567   3.161   9.040 -0.3022 -0.7584  0.2273
  149MOL0     N20032   4.688   3.149   9.001  0.5020  0.2517 -0.1187
  149MOL0     C20033   5.727   3.076   8.792  0.0148  0.2642 -0.4068
  149MOL0     C20034   5.860   3.049   8.758  0.0041 -0.0949  0.2012
  149MOL0     C20035   6.177   2.799   8.569  1.1048 -0.7404 -0.0581
  149MOL0     C20036   6.218   2.677   8.608 -0.7386 -0.1166  0.1432
  149MOL0     C20037   6.336   2.619   8.560  0.0803 -0.0947  0.2179
  149MOL0     C20038   6.426   2.702   8.494 -0.6991  0.0529 -0.4929
  149MOL0     O20039   6.555   2.670   8.446  0.5153  0.5664  0.5028
  149MOL0     C20040   6.615   2.580   8.530  0.0780 -0.0569  0.1338
  149MOL0     C20041   6.767   2.559   8.497  0.1523 -0.4063 -0.6155
  149MOL0     C20042   6.817   2.433   8.557  0.8784 -0.3480  0.1184
  149MOL0     C20043   6.767   2.303   8.485  0.5831  0.0895  0.3010
  149MOL0     C20044   6.781   2.299   8.341  0.2978  1.3655  1.2923
  149MOL0     C20045   6.778   2.299   8.212  0.7231  0.3016 -0.6428
  149MOL0     C20046   6.378   2.826   8.442 -0.3946  0.3943  0.2393
  149MOL0     C20047   6.256   2.875   8.494  0.0115  0.0310 -0.4690
  149MOL0     H20048   5.823   3.077   8.426  0.8818 -0.0318  0.0974
  149MOL0     H20049   5.602   3.146   8.481  1.4683  0.4043 -0.6152
  149MOL0     H20050   5.533   3.225   8.911  0.4627  2.2600 -2.0052
  149MOL0     H20051   5.366   3.246   8.852 -0.5097 -0.0609 -0.4676
  149MOL0     H20052   5.487   2.974   8.943 -0.5097 -0.0190  1.3200
  149MOL0     H20053   5.356   3.062   9.035  3.2830  0.1798  1.5902
  149MOL0     H20054   5.230   3.050   8.807 -1.2814 -0.0289  0.9992
  149MOL0     H20055   5.340   2.913   8.776  2.7632  1.6087 -0.0048
  149MOL0     H20056   5.148   2.814   8.881 -0.3140  1.8796 -1.6549
  149MOL0     H20057   5.269   2.839   9.012 -0.9840  1.6982  1.2563
  149MOL0     H20058   5.010   2.889   9.061 -1.5755 -0.4809 -3.6913
  149MOL0     H20059   5.139   3.019   9.093  1.0385  1.9506 -1.5451
  149MOL0     H20060   4.944   3.110   9.019  1.8187 -1.6693  2.6042
  149MOL0     H20061   5.058   3.132   8.880  0.8256 -0.8751 -1.5134
  149MOL0     H20062   4.964   2.952   8.743 -1.9470  4.3189 -2.1077
  149MOL0     H20063   4.864   2.900   8.882  0.1619  0.0760  1.3179
  149MOL0     H20064   4.780   3.054   8.680  3.6478 -2.1668 -0.7721
  149MOL0     H20065   4.848   3.181   8.774 -0.6730 -0.0070  1.8488
  149MOL0     H20066   4.513   3.010   8.751 -1.6528 -3.2280  2.2973
  149MOL0     H20067   4.312   3.105   9.075 -0.2966 -0.1280  0.6746
  149MOL0     H20068   4.279   3.113   8.902 -0.4742 -1.2320 -0.0176
  149MOL0     H20069   4.395   2.859   9.035 -0.5226 -1.2686 -2.8581
  149MOL0     H20070   4.294   2.867   8.895  2.6181  2.8125 -1.6694
  149MOL0     H20071   4.191   2.917   9.182 -3.3308 -0.7100  0.0406
  149MOL0     H20072   4.170   2.775   9.090 -0.9070  0.4973  0.6180
  149MOL0     H20073   4.050   2.933   8.911 -2.1146 -3.7596  0.4626
  149MOL0     H20074   4.075   3.051   9.042 -1.1494 -0.3154  1.7082
  149MOL0     H20075   3.853   2.805   9.282 -0.6914  1.3573 -1.6789
  149MOL0     H20076   3.649   2.677   9.385 -2.8733 -0.6154 -0.6725
  149MOL0     H20077   3.594   2.532   9.301  0.3854  0.5059 -2.1610
  149MOL0     H20078   3.737   2.516   9.395  2.0277 -2.1908 -4.0720
  149MOL0     H20079   3.540   2.201   8.995  0.6285 -0.3927 -0.1451
  149MOL0     H20080   3.463   1.975   8.990 -2.1208 -1.8531  1.5261
  149MOL0     H20081   3.260   1.882   9.138 -0.6380  0.1774  3.2013
  149MOL0     H20082   3.302   1.739   9.045 -0.9019 -1.1963  0.2558
  149MOL0     H20083   3.316   1.621   9.278 -0.8194 -0.4079 -0.0868
  149MOL0     H20084   3.222   1.765   9.331 -1.3492 -0.0201 -0.5085
  149MOL0     H20085   3.102   1.562   9.271  0.6220 -0.8641  0.4229
  149MOL0     H20086   3.132   1.591   9.093 -0.0602  1.5877 -0.9526
  149MOL0     H20087   3.000   1.792   9.255  0.8373 -1.8227  0.9483
  149MOL0     H20088   3.044   1.809   9.082  0.4793 -0.3876  0.0939
  149MOL0     H20089   2.842   1.611   9.202  1.7989  1.3912 -0.0207
  149MOL0     H20090   2.881   1.624   9.030 -1.8785  1.2693 -0.7589
  149MOL0     H20091   2.791   1.856   9.226  0.0287 -0.9327  1.4692
  149MOL0     H20092   2.797   1.877   9.055 -0.6353  0.4452  0.6143
  149MOL0     H20093   2.605   1.710   9.221 -0.3979  3.4915  0.7573
  149MOL0     H20094   2.643   1.663   9.053  1.5339 -0.9558  1.0790
  149MOL0     H20095   2.561   1.893   8.983  0.3029  3.0860  1.7500
  149MOL0     H20096   2.519   1.936   9.143  0.9355  1.6856 -1.5685
  149MOL0     H20097   3.537   1.911   9.400 -2.5100  0.8385  1.4535
  149MOL0     H20098   3.635   2.161   9.415 -0.5090  0.9059 -0.0529
  149MOL0     H20099   3.845   2.508   8.893  2.4685 -0.3925  0.7269
  149MOL0     H20100   3.945   2.730   8.881  1.6545  0.4050  0.3740
  149MOL0     H20101   5.699   3.065   8.896 -0.0895 -0.2674 -0.4874
  149MOL0     H20102   5.925   3.010   8.835 -2.3368 -2.0101  1.3283
  149MOL0     H20103   6.168   2.614   8.681  1.5539  1.1226  3.0062
  149MOL0     H20104   6.364   2.522   8.599  3.3623  0.5676 -0.1605
  149MOL0     H20105   6.598   2.616   8.632 -2.1734 -1.3185  0.2613
  149MOL0     H20106   6.562   2.485   8.522 -0.2005  0.1889 -1.2601
  149MOL0     H20107   6.814   2.644   8.548 -1.9054  2.1826 -2.6894
  149MOL0     H20108   6.781   2.567   8.389  1.6770  1.8485 -0.3335
  149MOL0     H20109   6.795   2.428   8.664 -2.2273 -0.4188 -0.4335
  149MOL0     H20110   6.927   2.434   8.552  0.8948  0.4701  0.5993
  149MOL0     H20111   6.664   2.285   8.518  0.0515  2.1623 -0.0728
  149MOL0     H20112   6.823   2.222   8.533 -0.8719  0.0231  1.9929
  149MOL0     H20113   6.778   2.296   8.105  3.7565  1.5666 -0.7840
  149MOL0     H20114   6.437   2.887   8.374 -0.0499  1.3775  1.3888
  149MOL0     H20115   6.219   2.967   8.450  0.2788  0.8043  0.8874
  150MOL0     O20116   6.912   3.174   0.287 -0.5402 -0.3273 -0.2946
  150MOL0     C20117   7.026   3.130   0.314 -0.0617  0.1127  0.1147
  150MOL0     O20118   7.142   3.156   0.246  0.4690 -1.0972  0.5213
  150MOL0     C20119   7.140   3.229   0.134 -0.0654 -0.0929  0.1056
  150MOL0     C20120   7.247   3.311   0.103 -0.3859  0.3351  0.1303
  150MOL0     C20121   7.265   3.385  -0.014  0.5950  0.1469  0.8370
  150MOL0     C20122   7.163   3.381  -0.108  0.6100  0.5278  0.7282
  150MOL0     O20123   7.183   3.458  -0.224 -0.0115  0.3174 -0.3396
  150MOL0     C20124   7.074   3.497  -0.311 -0.2653 -0.1865  0.2004
  150MOL0     C20125   7.124   3.584  -0.433  0.5930 -0.3239  0.2364
  150MOL0     C20126   7.000   3.630  -0.511  0.1429  0.0547  0.7427
  150MOL0     C20127   6.910   3.733  -0.441  0.0122 -0.2312 -0.2954
  150MOL0     C20128   6.802   3.772  -0.541  0.6671  0.2997 -0.7641
  150MOL0     C20129   6.703   3.869  -0.474  0.0025  0.7729 -0.3647
  150MOL0     C20130   6.624   3.809  -0.358 -0.0101 -1.6551 -0.7861
  150MOL0     C20131   6.508   3.901  -0.321  0.1426 -0.2732 -0.3986
  150MOL0     N20132   6.435   3.839  -0.215 -0.0555 -0.9913 -0.2953
  150MOL0     C20133   6.324   3.762  -0.243  0.5318  0.4289  0.6199
  150MOL0     C20134   6.263   3.750  -0.123  0.6565 -0.4834 -0.1237
  150MOL0     C20135   6.145   3.659  -0.101 -0.1189  0.1006 -0.1154
  150MOL0     C20136   6.023   3.736  -0.074  0.4211  0.8177 -0.4647
  150MOL0     C20137   5.919   3.643  -0.005 -0.3608 -0.7235  0.4379
  150MOL0     C20138   5.791   3.706   0.013  0.2354  0.4726  0.1439
  150MOL0     O20139   5.678   3.623   0.047 -0.1877 -0.3070  0.0525
  150MOL0     C20140   5.562   3.688   0.086  0.1201  0.9031 -1.0550
  150MOL0     C20141   5.445   3.637   0.023  0.3768 -0.5805 -0.6369
  150MOL0     C20142   5.318   3.687   0.048  0.6178  0.4229  0.2318
  150MOL0     C20143   5.208   3.635  -0.039  0.1920 -0.1680 -0.3491
  150MOL0     C20144   5.308   3.784   0.156 -0.2189  0.3059  0.0703
  150MOL0     C20145   5.178   3.846   0.198 -0.9896  1.2884  0.1834
  150MOL0     O20146   5.175   3.925   0.310 -0.0404  0.2466 -0.1008
  150MOL0     C20147   5.072   3.998   0.356 -0.3988 -0.8374  0.1030
  150MOL0     C20148   5.100   4.120   0.419  0.8277 -0.1721 -0.3385
  150MOL0     C20149   4.990   4.194   0.474 -0.1381 -0.6635  0.0686
  150MOL0     C20150   4.861   4.150   0.456  0.8867  0.3988 -0.0822
  150MOL0     O20151   4.754   4.231   0.481  0.7937  0.1395 -0.3145
  150MOL0     C20152   4.769   4.347   0.568  0.2776 -0.1915  0.1891
  150MOL0     C20153   4.622   4.403   0.586 -1.3933  0.3481 -0.1855
  150MOL0     C20154   4.530   4.305   0.672 -0.0562  0.3272 -0.0671
  150MOL0     C20155   4.395   4.365   0.695 -0.4121  0.6768  0.3088
  150MOL0     C20156   4.314   4.382   0.564 -0.1789  0.3170  0.1216
  150MOL0     C20157   4.179   4.446   0.589 -0.6294  0.3248 -0.0047
  150MOL0     C20158   4.104   4.462   0.458 -0.2026  0.4362  0.0577
  150MOL0     C20159   3.951   4.469   0.470  0.7303 -0.1332  0.0468
  150MOL0    Cl20160   3.880   4.303   0.478  0.3199 -0.2665  0.0362
  150MOL0     C20161   4.843   4.025   0.409 -0.1960  0.2583 -0.5258
  150MOL0     C20162   4.944   3.949   0.349  0.1049 -0.0692 -0.2619
  150MOL0     O20163   5.080   3.821   0.129  0.0804  0.0712 -1.1611
  150MOL0     C20164   5.424   3.821   0.234 -0.4052 -0.0315 -1.1546
  150MOL0     C20165   5.554   3.776   0.199  0.1877  0.2404  0.4239
  150MOL0     N20166   6.336   3.811  -0.025  0.1607  0.3286 -1.1255
  150MOL0     N20167   6.440   3.867  -0.080  0.6985 -0.0894 -0.4227
  150MOL0     C20168   7.056   3.290  -0.086 -0.6559 -0.0756 -0.3298
  150MOL0     C20169   7.041   3.223   0.035  0.1626  0.4606  0.0376
  150MOL0     C20170   7.040   3.054   0.441 -0.4675 -1.1119  0.9956
  150MOL0     C20171   7.160   3.033   0.499  0.1439  0.3694 -0.1209
  150MOL0     C20172   7.176   2.953   0.620  0.0726  0.0450 -0.1139
  150MOL0     C20173   7.067   2.927   0.698  1.0340  0.3160  0.2701
  150MOL0     O20174   7.098   2.864   0.816 -0.1688 -0.4427 -0.0859
  150MOL0     C20175   7.001   2.883   0.919 -0.0295 -0.1410  1.1625
  150MOL0     C20176   7.062   2.847   1.053  0.1752 -0.5361  0.3677
  150MOL0     C20177   7.170   2.943   1.101 -1.2421 -0.1271  0.1018
  150MOL0     C20178   7.219   2.916   1.244 -0.2377 -0.3661  0.9170
  150MOL0     C20179   7.117   2.961   1.337  0.5355  0.2698 -1.1066
  150MOL0     C20180   7.033   2.989   1.418  0.1061  0.0559  0.3528
  150MOL0     C20181   6.935   2.961   0.640 -0.4340  0.0261 -0.3760
  150MOL0     C20182   6.926   3.025   0.515 -0.0872  0.2509  0.9968
  150MOL0     H20183   7.329   3.288   0.170 -1.1638 -2.4519  0.2539
  150MOL0     H20184   7.352   3.448  -0.030 -0.2894  1.0258 -0.7216
  150MOL0     H20185   7.035   3.400  -0.340  1.7551 -1.9742  2.9254
  150MOL0     H20186   7.001   3.551  -0.250  1.5699  0.6678  1.7859
  150MOL0     H20187   7.165   3.678  -0.395  1.6085 -0.1073 -1.3280
  150MOL0     H20188   7.205   3.546  -0.496  0.4442  1.0233 -0.7987
  150MOL0     H20189   7.024   3.663  -0.613 -1.2877  0.0723  0.3834
  150MOL0     H20190   6.931   3.545  -0.520  0.3053  0.0743 -0.9498
  150MOL0     H20191   6.860   3.687  -0.356  0.2208  1.9756  1.0921
  150MOL0     H20192   6.974   3.818  -0.414  1.0226 -1.1603  0.3009
  150MOL0     H20193   6.850   3.823  -0.626 -2.6959 -0.4584 -3.3537
  150MOL0     H20194   6.747   3.684  -0.574 -1.4249  2.3998 -3.4270
  150MOL0     H20195   6.760   3.953  -0.432  2.3059 -2.0895  2.8670
  150MOL0     H20196   6.637   3.890  -0.558  0.5849  1.3984 -0.6836
  150MOL0     H20197   6.589   3.713  -0.397 -0.4436 -2.4897  1.4580
  150MOL0     H20198   6.669   3.793  -0.260  0.9461  2.5049 -0.3409
  150MOL0     H20199   6.433   3.905  -0.401 -0.3198 -1.6042 -0.0561
  150MOL0     H20200   6.530   4.004  -0.290 -2.0362 -0.2081  1.0945
  150MOL0     H20201   6.290   3.714  -0.334 -1.2664  0.2538  1.3534
  150MOL0     H20202   6.130   3.600  -0.191  1.7286  0.3203 -0.6001
  150MOL0     H20203   6.178   3.593  -0.020  0.1068 -1.2929 -1.3101
  150MOL0     H20204   5.977   3.763  -0.170  0.2039 -0.9347 -0.8840
  150MOL0     H20205   6.041   3.827  -0.016  3.3015 -0.4248  0.7359
  150MOL0     H20206   5.965   3.617   0.091  2.3728  1.6061 -0.0861
  150MOL0     H20207   5.911   3.551  -0.064 -2.1212  0.4361 -1.2477
  150MOL0     H20208   5.766   3.766  -0.075 -0.5318  2.7397  1.7881
  150MOL0     H20209   5.805   3.784   0.088  0.5199 -1.7013  2.4791
  150MOL0     H20210   5.464   3.554  -0.044  0.9029 -0.9635 -0.0271
  150MOL0     H20211   5.128   3.590   0.021 -0.0805  2.0852  1.1174
  150MOL0     H20212   5.166   3.716  -0.099 -1.7340 -0.8229  0.0402
  150MOL0     H20213   5.235   3.560  -0.114  1.4129 -0.1514  0.0519
  150MOL0     H20214   5.203   4.153   0.430  0.0329  2.6502 -0.5698
  150MOL0     H20215   5.017   4.284   0.529 -0.4696  0.0307 -0.8951
  150MOL0     H20216   4.815   4.329   0.666 -1.5797 -0.7472  1.0128
  150MOL0     H20217   4.836   4.417   0.519  0.0530  0.1161  0.3186
  150MOL0     H20218   4.641   4.498   0.637  0.4109  1.0322 -2.0041
  150MOL0     H20219   4.585   4.422   0.486  1.8919  1.1692 -1.3851
  150MOL0     H20220   4.574   4.285   0.770  0.5281  3.0856  0.2962
  150MOL0     H20221   4.515   4.211   0.618  1.2719 -0.0659  0.1975
  150MOL0     H20222   4.347   4.300   0.769  2.1752 -3.0796 -1.0200
  150MOL0     H20223   4.400   4.470   0.723 -0.2465  1.1660 -1.4890
  150MOL0     H20224   4.302   4.281   0.524 -0.1505 -1.3845  3.8830
  150MOL0     H20225   4.372   4.444   0.495  1.9472  0.0202  1.5523
  150MOL0     H20226   4.135   4.388   0.670  1.9256 -0.2172  1.0960
  150MOL0     H20227   4.185   4.549   0.627  0.3285  0.7046 -1.1209
  150MOL0     H20228   4.137   4.382   0.391 -0.4923  0.0781  0.3419
  150MOL0     H20229   4.140   4.552   0.408 -0.5732  0.2095 -0.6339
  150MOL0     H20230   3.907   4.527   0.388 -2.2430  0.2588  1.7501
  150MOL0     H20231   3.913   4.526   0.555 -0.6296 -0.1495 -0.5165
  150MOL0     H20232   4.743   3.986   0.389  0.4701 -2.3645  0.8603
  150MOL0     H20233   4.912   3.861   0.294  0.7326  0.2764 -1.1937
  150MOL0     H20234   5.412   3.888   0.318  0.1638 -0.4497 -0.7288
  150MOL0     H20235   5.636   3.830   0.245  1.4427 -0.3347 -1.0755
  150MOL0     H20236   6.969   3.285  -0.151  0.1239  0.2226 -1.4276
  150MOL0     H20237   6.950   3.166   0.050 -0.3013  0.7862 -1.3216
  150MOL0     H20238   7.246   3.065   0.441 -1.0609  1.1006 -1.5728
  150MOL0     H20239   7.277   2.921   0.643 -0.2976  1.3123  4.2346
  150MOL0     H20240   6.982   2.991   0.920 -0.2365 -0.1747  0.9514
  150MOL0     H20241   6.908   2.829   0.899  0.1546  0.3271 -1.3099
  150MOL0     H20242   7.099   2.744   1.043  1.5224 -0.1017  0.7313
  150MOL0     H20243   6.991   2.839   1.136 -2.0517  0.0326 -1.3987
  150MOL0     H20244   7.123   3.042   1.106 -1.7380 -0.3756  0.3605
  150MOL0     H20245   7.249   2.960   1.028 -1.9321 -1.1539 -0.9145
  150MOL0     H20246   7.308   2.979   1.256  2.1328 -3.3930  0.5073
  150MOL0     H20247   7.250   2.815   1.271  1.5442  0.0919  0.7186
  150MOL0     H20248   6.949   3.005   1.482 -0.0933  2.6498 -0.4455
  150MOL0     H20249   6.841   2.936   0.688  0.1937 -0.4897  0.6124
  150MOL0     H20250   6.826   3.066   0.501  0.0119  1.3050  2.9769
  151MOL0     O20251   4.363   7.595   2.377  0.1779 -0.0808  0.1862
  151MOL0     C20252   4.348   7.511   2.285  0.2658 -0.4882  0.0149
  151MOL0     O20253   4.276   7.403   2.292 -0.6685  0.2258  0.0470
  151MOL0     C20254   4.172   7.391   2.379 -0.0582  0.1355 -0.1187
  151MOL0     C20255   4.149   7.256   2.414 -0.2008  0.1782 -0.2904
  151MOL0     C20256   4.044   7.219   2.499 -0.6854  0.4498  1.4476
  151MOL0     C20257   3.963   7.315   2.551  0.2882 -0.0437  0.0937
  151MOL0     O20258   3.871   7.266   2.645 -1.2269  0.6690  0.4867
  151MOL0     C20259   3.803   7.355   2.726  0.8767  0.2989 -0.0407
  151MOL0     C20260   3.684   7.397   2.637  0.5675 -0.0265  0.6780
  151MOL0     C20261   3.624   7.523   2.695  0.3715  0.0249  0.1429
  151MOL0     C20262   3.522   7.516   2.804 -0.2892  0.2098 -0.2488
  151MOL0     C20263   3.383   7.484   2.750 -0.3595 -0.4014 -0.0491
  151MOL0     C20264   3.283   7.447   2.857 -0.7716 -0.4488  0.0724
  151MOL0     C20265   3.252   7.571   2.947  0.8277 -0.1777 -0.3399
  151MOL0     C20266   3.128   7.551   3.041 -0.2284 -0.1643  0.3040
  151MOL0     N20267   3.004   7.529   2.959  0.0595  0.3857 -0.2461
  151MOL0     C20268   2.921   7.628   2.905 -0.7684 -0.3442  0.1269
  151MOL0     C20269   2.814   7.559   2.858 -0.7130  0.2094  0.1890
  151MOL0     C20270   2.701   7.613   2.781 -0.5638  0.4057 -0.0497
  151MOL0     C20271   2.570   7.539   2.801 -0.3295 -0.0125 -0.7527
  151MOL0     C20272   2.479   7.570   2.928 -0.4804  0.3136  0.0351
  151MOL0     C20273   2.350   7.494   2.912 -0.1305  1.1753 -0.1941
  151MOL0     O20274   2.251   7.547   3.002  0.0509  0.3204 -0.2292
  151MOL0     C20275   2.128   7.486   3.014 -0.0941 -1.1889 -0.2763
  151MOL0     C20276   2.086   7.385   2.926 -0.7845  0.6444 -0.3414
  151MOL0     C20277   1.970   7.316   2.938  0.3503  1.5952  0.0258
  151MOL0     C20278   1.945   7.202   2.840  0.7555  0.7785  0.3114
  151MOL0     C20279   1.884   7.347   3.046  0.1430 -0.2119  0.7855
  151MOL0     C20280   1.751   7.285   3.070 -0.2764 -1.5837 -0.6802
  151MOL0     O20281   1.750   7.143   3.055  0.2505  0.4682 -0.1755
  151MOL0     C20282   1.617   7.099   3.054  0.5469 -0.4079  0.5159
  151MOL0     C20283   1.547   7.096   2.936 -0.9103 -0.6259 -0.9423
  151MOL0     C20284   1.417   7.048   2.933 -0.7282 -0.6705  0.1383
  151MOL0     C20285   1.347   7.021   3.055 -0.8648 -0.1586 -0.2828
  151MOL0     O20286   1.217   6.990   3.073 -0.5533  0.5852  0.1869
  151MOL0     C20287   1.141   6.961   2.956 -0.5362 -0.8823 -0.6814
  151MOL0     C20288   0.997   6.917   3.000 -0.2046  0.5395 -0.2972
  151MOL0     C20289   0.903   6.893   2.878  0.6234  0.5555 -0.4129
  151MOL0     C20290   0.760   6.874   2.932 -0.0327 -0.5479 -0.5068
  151MOL0     C20291   0.677   6.797   2.825  0.4939 -0.4389  0.5188
  151MOL0     C20292   0.527   6.793   2.857 -0.3978  0.8573 -0.4174
  151MOL0     C20293   0.429   6.730   2.755  0.1641 -0.1861  0.5660
  151MOL0     C20294   0.475   6.587   2.709 -0.1071 -0.9207 -0.4774
  151MOL0    Cl20295   0.363   6.503   2.602 -0.0694 -0.2669  0.0297
  151MOL0     C20296   1.423   7.018   3.172  0.2464 -0.8141  0.2620
  151MOL0     C20297   1.557   7.055   3.173 -0.1010 -0.0148  0.3526
  151MOL0     O20298   1.654   7.360   3.098 -0.4407 -0.0973  0.1219
  151MOL0     C20299   1.919   7.454   3.130  0.6169  0.5684 -0.5254
  151MOL0     C20300   2.034   7.528   3.111  0.1764 -0.5157  0.2791
  151MOL0     N20301   2.841   7.423   2.873 -0.0018 -0.1576  0.3594
  151MOL0     N20302   2.958   7.407   2.922 -0.3978  0.1682  0.0083
  151MOL0     C20303   3.985   7.453   2.525  0.1451 -0.0639 -0.1559
  151MOL0     C20304   4.089   7.489   2.435 -0.2364  0.3989 -0.2342
  151MOL0     C20305   4.426   7.548   2.163  0.5796 -0.1172  0.0423
  151MOL0     C20306   4.523   7.654   2.169  0.0606 -0.1141  0.3666
  151MOL0     C20307   4.612   7.688   2.059 -0.0184 -0.3232  0.0025
  151MOL0     C20308   4.610   7.612   1.938 -0.6629  0.2384  0.6699
  151MOL0     O20309   4.707   7.653   1.839  0.0735  0.2561  0.0054
  151MOL0     C20310   4.687   7.588   1.705 -0.6830  0.2221 -0.4585
  151MOL0     C20311   4.755   7.650   1.583  1.4843  0.4821  0.5182
  151MOL0     C20312   4.908   7.632   1.613  0.3849 -0.5193 -0.1091
  151MOL0     C20313   4.996   7.714   1.519 -0.5759 -0.0764  0.3646
  151MOL0     C20314   5.131   7.655   1.525  0.5675  0.3430  0.1708
  151MOL0     C20315   5.241   7.599   1.542  0.4742  0.2279 -0.5759
  151MOL0     C20316   4.513   7.498   1.940 -0.6792 -0.0221 -0.8244
  151MOL0     C20317   4.429   7.477   2.048  1.1055 -0.0219 -0.3848
  151MOL0     H20318   4.220   7.179   2.383  2.0039  2.0839 -0.2710
  151MOL0     H20319   4.024   7.114   2.515 -1.7550  0.5863  1.0805
  151MOL0     H20320   3.758   7.302   2.811  2.5832 -0.9145  0.1663
  151MOL0     H20321   3.854   7.439   2.774 -2.5190  0.6035  3.4828
  151MOL0     H20322   3.708   7.432   2.537  2.5165  1.4482  1.6019
  151MOL0     H20323   3.614   7.312   2.642  1.1819 -0.5284  0.8443
  151MOL0     H20324   3.706   7.583   2.736  1.8472 -0.3753 -2.0468
  151MOL0     H20325   3.578   7.574   2.610  2.0814  0.4599 -0.5614
  151MOL0     H20326   3.549   7.430   2.866 -0.2616 -0.5748 -1.3229
  151MOL0     H20327   3.521   7.612   2.858 -0.4390  0.0555  0.0228
  151MOL0     H20328   3.357   7.573   2.692  4.7001  2.2963  1.2148
  151MOL0     H20329   3.400   7.399   2.682  2.9239 -0.8823  1.1744
  151MOL0     H20330   3.197   7.412   2.800 -2.2196  2.0023  0.6308
  151MOL0     H20331   3.323   7.367   2.920  1.8400 -2.3289 -3.5735
  151MOL0     H20332   3.340   7.610   2.999  0.3707  0.7948 -0.2637
  151MOL0     H20333   3.218   7.650   2.880  0.2278  0.0659  0.2349
  151MOL0     H20334   3.124   7.646   3.094  0.1357  1.5498 -2.5237
  151MOL0     H20335   3.143   7.467   3.109  1.3019 -1.0967 -1.0826
  151MOL0     H20336   2.930   7.736   2.916 -1.8126 -0.4933  3.4958
  151MOL0     H20337   2.699   7.722   2.782 -3.0412  0.4201 -0.9484
  151MOL0     H20338   2.731   7.589   2.679  0.2505 -0.4226  0.3639
  151MOL0     H20339   2.597   7.433   2.810 -3.9016 -0.9199  0.9731
  151MOL0     H20340   2.514   7.558   2.709  0.3195 -0.7350 -1.3168
  151MOL0     H20341   2.464   7.678   2.937  1.5816  0.5967  0.5306
  151MOL0     H20342   2.538   7.539   3.015 -1.0972  0.6491  0.5841
  151MOL0     H20343   2.367   7.388   2.933 -1.0439  1.4377  2.1944
  151MOL0     H20344   2.316   7.508   2.809 -2.2600  2.4189  0.6100
  151MOL0     H20345   2.154   7.344   2.851 -1.0943 -1.0677  0.2634
  151MOL0     H20346   2.001   7.211   2.746 -1.4815  4.4045 -0.8756
  151MOL0     H20347   1.988   7.106   2.872  0.9969  0.4521 -0.9057
  151MOL0     H20348   1.838   7.189   2.823  0.9615 -1.1810  0.2416
  151MOL0     H20349   1.595   7.130   2.845  1.0743  3.2385  1.2711
  151MOL0     H20350   1.370   7.039   2.835  1.1432  1.0231 -1.0035
  151MOL0     H20351   1.129   7.043   2.885  0.6042 -2.5765 -2.9238
  151MOL0     H20352   1.192   6.877   2.909  1.3362 -0.2070  0.0759
  151MOL0     H20353   0.999   6.826   3.060  1.9091  1.3747  1.0110
  151MOL0     H20354   0.940   6.985   3.064 -2.6405 -2.0460  0.4917
  151MOL0     H20355   0.934   6.800   2.829  0.6782  0.6075 -0.4775
  151MOL0     H20356   0.903   6.977   2.809  1.3063 -0.0809 -1.2130
  151MOL0     H20357   0.755   6.827   3.031 -0.7415 -0.6191 -0.5669
  151MOL0     H20358   0.725   6.975   2.956 -0.2670 -1.0786  1.6321
  151MOL0     H20359   0.710   6.696   2.800 -0.5371 -0.5871 -0.3345
  151MOL0     H20360   0.684   6.857   2.734 -0.3455  0.6804  1.1569
  151MOL0     H20361   0.504   6.743   2.951  1.4358  2.3854  0.9148
  151MOL0     H20362   0.508   6.900   2.870  0.4251  1.0535 -0.7513
  151MOL0     H20363   0.437   6.783   2.660  1.4799 -0.8796  0.2650
  151MOL0     H20364   0.326   6.737   2.792 -0.7057  0.5990 -1.8174
  151MOL0     H20365   0.483   6.534   2.805 -0.9939  1.2839  0.9067
  151MOL0     H20366   0.572   6.584   2.659 -1.2735  0.8960 -3.0584
  151MOL0     H20367   1.367   6.991   3.261  0.7627 -0.4609  0.6999
  151MOL0     H20368   1.610   7.064   3.266 -1.7788 -3.1332  1.7593
  151MOL0     H20369   1.851   7.475   3.212  0.3292 -0.5259 -0.4589
  151MOL0     H20370   2.058   7.597   3.192 -3.9367  1.6519 -0.0715
  151MOL0     H20371   3.922   7.524   2.578  0.3465 -0.7462  1.0405
  151MOL0     H20372   4.102   7.594   2.412  2.6892 -0.1339 -1.5220
  151MOL0     H20373   4.536   7.703   2.265 -4.7486 -1.7702  2.1615
  151MOL0     H20374   4.682   7.771   2.070  0.1412 -0.3051 -1.0696
  151MOL0     H20375   4.710   7.483   1.726  2.3670  0.6080 -1.4464
  151MOL0     H20376   4.580   7.596   1.682 -1.5708 -2.8966  1.8368
  151MOL0     H20377   4.713   7.751   1.576 -0.9048 -0.4600  0.2947
  151MOL0     H20378   4.730   7.595   1.492 -0.1273  0.8307  0.7213
  151MOL0     H20379   4.934   7.526   1.622 -1.2577 -1.1298 -2.0122
  151MOL0     H20380   4.946   7.667   1.709 -2.7219  0.9081  0.7094
  151MOL0     H20381   4.995   7.818   1.552  1.1112 -0.9100  3.5019
  151MOL0     H20382   4.964   7.702   1.415 -0.7973 -0.2764  0.4526
  151MOL0     H20383   5.330   7.539   1.547 -0.9761 -2.1618 -1.5048
  151MOL0     H20384   4.508   7.431   1.855  1.1293 -1.5458  0.1844
  151MOL0     H20385   4.353   7.399   2.050  0.9338  0.0914 -1.4911
  152MOL0     O20386   3.485   4.623  10.148  0.5215  0.6185  0.8220
  152MOL0     C20387   3.480   4.722  10.073 -1.2625  0.1333  0.4641
  152MOL0     O20388   3.376   4.815  10.060 -0.8472 -0.6303  0.0155
  152MOL0     C20389   3.293   4.828  10.172  0.2357 -0.2779  0.1768
  152MOL0     C20390   3.344   4.825  10.309 -0.2100  0.3609 -0.1254
  152MOL0     C20391   3.264   4.843  10.427 -0.7137 -0.9547  0.8955
  152MOL0     C20392   3.132   4.873  10.410  0.0904  0.4445  0.6962
  152MOL0     O20393   3.052   4.902  10.519 -0.0096 -0.2106 -0.1892
  152MOL0     C20394   2.958   5.006  10.493  0.3955 -0.0057  0.5698
  152MOL0     C20395   2.921   5.061  10.625  0.1320 -0.2544 -0.4685
  152MOL0     C20396   2.809   5.158  10.604 -0.2514  0.2337  0.4813
  152MOL0     C20397   2.668   5.098  10.564  0.0708 -0.8062  0.0717
  152MOL0     C20398   2.558   5.200  10.603  0.1809  0.3788  0.0370
  152MOL0     C20399   2.543   5.311  10.498 -0.0487  0.2691  0.4700
  152MOL0     C20400   2.399   5.359  10.486  0.3947 -1.2366 -0.0184
  152MOL0     C20401   2.372   5.463  10.599  0.7277  0.5815 -0.0044
  152MOL0     N20402   2.254   5.552  10.581 -0.1320  0.1664  0.5346
  152MOL0     C20403   2.128   5.504  10.532 -0.0041  0.2631 -0.1630
  152MOL0     C20404   2.053   5.617  10.525 -0.3146  0.3274  0.1323
  152MOL0     C20405   1.908   5.614  10.482 -0.3380  0.4207 -0.0742
  152MOL0     C20406   1.840   5.564  10.610  0.8495  0.1129 -0.6327
  152MOL0     C20407   1.683   5.554  10.575  0.0797  0.3248  0.4708
  152MOL0     C20408   1.610   5.579  10.703  0.1872 -0.3667 -0.5585
  152MOL0     O20409   1.469   5.577  10.675 -0.3000  0.0569 -0.0021
  152MOL0     C20410   1.377   5.620  10.768 -0.2405 -0.0384  0.2520
  152MOL0     C20411   1.247   5.612  10.729  0.8383  0.1094 -0.0903
  152MOL0     C20412   1.143   5.633  10.828  0.0766  0.7082 -0.4738
  152MOL0     C20413   1.004   5.603  10.781  0.0126 -0.1278 -0.3971
  152MOL0     C20414   1.176   5.667  10.963  0.0302 -0.4806  0.1021
  152MOL0     C20415   1.069   5.699  11.058 -0.1887  0.7929 -0.2633
  152MOL0     O20416   1.102   5.787  11.152  0.0830 -0.6171 -0.5358
  152MOL0     C20417   0.999   5.843  11.223 -1.2171  0.1322  0.2817
  152MOL0     C20418   1.051   5.910  11.330 -0.0536 -0.9075  0.0114
  152MOL0     C20419   0.964   5.996  11.401 -0.0358 -0.0329 -0.5238
  152MOL0     C20420   0.824   6.010  11.373 -0.6992 -0.1332  0.4854
  152MOL0     O20421   0.760   6.109  11.447 -0.4650 -0.0535 -0.0768
  152MOL0     C20422   0.622   6.121  11.428  0.2472  0.5830 -0.2266
  152MOL0     C20423   0.561   6.237  11.520 -1.2297 -0.2421 -0.1037
  152MOL0     C20424   0.415   6.236  11.503  0.4677 -0.4646  0.2413
  152MOL0     C20425   0.366   6.287  11.367 -0.5074 -0.2211 -0.2799
  152MOL0     C20426   0.229   6.360  11.364 -0.4240  0.6565 -0.0923
  152MOL0     C20427   0.116   6.262  11.390 -0.3913 -0.4339 -0.5155
  152MOL0     C20428  -0.016   6.319  11.353 -0.3712 -1.1270 -0.0599
  152MOL0     C20429  -0.137   6.219  11.369  0.0419 -0.6198  0.1625
  152MOL0    Cl20430  -0.287   6.275  11.300 -0.0596  0.1254 -0.3421
  152MOL0     C20431   0.774   5.941  11.263  1.0230  0.0933 -0.5909
  152MOL0     C20432   0.860   5.858  11.195 -0.0271 -0.2869  0.2956
  152MOL0     O20433   0.962   5.635  11.063 -1.0344  0.4468  0.3166
  152MOL0     C20434   1.317   5.683  11.003  1.3380  0.0179 -0.1112
  152MOL0     C20435   1.412   5.650  10.901  0.5034 -0.0908 -0.0577
  152MOL0     N20436   2.126   5.724  10.575 -0.0772 -1.1591 -0.4029
  152MOL0     N20437   2.249   5.685  10.590 -0.9537 -1.5394  0.0881
  152MOL0     C20438   3.083   4.880  10.279  0.2831  0.2651 -0.2161
  152MOL0     C20439   3.157   4.863  10.160 -0.6818 -0.3227 -0.5431
  152MOL0     C20440   3.599   4.740   9.993  0.7869 -1.4398 -0.5780
  152MOL0     C20441   3.592   4.788   9.862  0.4942 -0.3981  0.9806
  152MOL0     C20442   3.701   4.829   9.783 -0.1290  0.7340  0.3891
  152MOL0     C20443   3.828   4.811   9.840  1.0361 -1.6939 -0.0667
  152MOL0     O20444   3.930   4.864   9.766 -0.0163 -0.7637  0.8190
  152MOL0     C20445   4.064   4.831   9.792 -0.8100 -0.8479 -0.8161
  152MOL0     C20446   4.129   4.923   9.897 -0.6159  0.6640 -0.4546
  152MOL0     C20447   4.283   4.903   9.920  0.9051  0.0724  0.4266
  152MOL0     C20448   4.308   4.771   9.983 -0.8005 -0.3771 -0.8627
  152MOL0     C20449   4.445   4.732   9.960  0.1267 -0.3695 -0.7195
  152MOL0     C20450   4.552   4.680   9.936 -0.1072  0.2648  0.1638
  152MOL0     C20451   3.842   4.756   9.969  0.1421  0.0002  0.4660
  152MOL0     C20452   3.731   4.724  10.045  0.9844 -0.8054  0.0522
  152MOL0     H20453   3.445   4.786  10.321  0.0145  0.4425 -1.5730
  152MOL0     H20454   3.321   4.838  10.519 -0.4483  2.2957  1.0222
  152MOL0     H20455   3.000   5.083  10.428 -1.1644 -0.4008 -0.9753
  152MOL0     H20456   2.872   4.964  10.441 -0.0495 -2.3369  2.9696
  152MOL0     H20457   2.886   4.978  10.688  1.2304  2.9598  4.9962
  152MOL0     H20458   3.005   5.116  10.668 -1.5816  2.3625 -0.2510
  152MOL0     H20459   2.796   5.204  10.702 -0.4916 -1.6174  1.3774
  152MOL0     H20460   2.840   5.233  10.531  0.8309 -1.3562 -0.7603
  152MOL0     H20461   2.666   5.068  10.459 -1.7164  1.4492 -0.6237
  152MOL0     H20462   2.652   5.007  10.624  1.2411 -1.8049 -1.0735
  152MOL0     H20463   2.460   5.155  10.623  0.4223 -0.1666  0.0267
  152MOL0     H20464   2.570   5.255  10.697 -1.8641  3.8042 -1.5128
  152MOL0     H20465   2.606   5.398  10.522 -0.1621  1.8483 -3.9678
  152MOL0     H20466   2.571   5.279  10.398  1.5039 -1.4241  1.3912
  152MOL0     H20467   2.381   5.409  10.390  1.0000 -0.0613  0.4659
  152MOL0     H20468   2.331   5.274  10.486 -0.4094 -0.6035 -0.3014
  152MOL0     H20469   2.458   5.531  10.599  0.6346  0.7254 -1.3698
  152MOL0     H20470   2.369   5.410  10.694  0.9629  0.0873 -0.2640
  152MOL0     H20471   2.106   5.399  10.512  3.1929 -0.5128 -0.0994
  152MOL0     H20472   1.866   5.709  10.449  0.9712  0.4969 -1.6259
  152MOL0     H20473   1.886   5.547  10.398  0.3169 -0.1151  0.1711
  152MOL0     H20474   1.871   5.634  10.687  1.8159 -0.0792 -0.8323
  152MOL0     H20475   1.877   5.463  10.629 -1.4737 -0.7031 -0.0218
  152MOL0     H20476   1.656   5.455  10.538  0.0571  0.6400 -0.3757
  152MOL0     H20477   1.655   5.610  10.485  1.5402  1.9157  0.9364
  152MOL0     H20478   1.632   5.676  10.748 -1.1017  0.7480 -2.1861
  152MOL0     H20479   1.639   5.503  10.776 -0.2812  2.1149  2.3915
  152MOL0     H20480   1.213   5.589  10.628  0.6321  3.4307 -0.8875
  152MOL0     H20481   0.928   5.676  10.813  1.6958  2.9102 -2.7857
  152MOL0     H20482   0.994   5.600  10.672 -3.0780  0.5254 -0.2471
  152MOL0     H20483   0.981   5.502  10.817 -1.2453  0.4337  0.4342
  152MOL0     H20484   1.156   5.913  11.359  0.3064  0.3752 -1.2883
  152MOL0     H20485   1.001   6.047  11.489  1.5766 -1.4335 -0.3457
  152MOL0     H20486   0.601   6.150  11.325 -2.5311  1.5378  0.5293
  152MOL0     H20487   0.565   6.029  11.443 -0.1131  0.6887 -0.9035
  152MOL0     H20488   0.586   6.218  11.625  0.7030 -1.5276 -0.7416
  152MOL0     H20489   0.604   6.332  11.487 -2.0457 -0.1071 -0.8276
  152MOL0     H20490   0.373   6.312  11.569  1.2470  1.1502 -1.0704
  152MOL0     H20491   0.370   6.138  11.523  2.0225 -1.4342 -0.7524
  152MOL0     H20492   0.439   6.357  11.326 -0.6544  0.2620  0.2665
  152MOL0     H20493   0.370   6.195  11.308  1.8796 -0.5642  0.3356
  152MOL0     H20494   0.202   6.409  11.269 -1.5660 -0.5296 -0.4069
  152MOL0     H20495   0.233   6.435  11.443  1.1528  0.3456  0.1540
  152MOL0     H20496   0.132   6.166  11.340 -2.2441  0.4601 -2.9741
  152MOL0     H20497   0.109   6.254  11.499 -1.8366  2.1592 -0.3453
  152MOL0     H20498  -0.018   6.341  11.245  2.9815 -1.7220 -0.3645
  152MOL0     H20499  -0.029   6.408  11.415  1.4623 -0.7160 -0.2135
  152MOL0     H20500  -0.161   6.197  11.473 -1.0886  0.1735  0.0843
  152MOL0     H20501  -0.107   6.131  11.311  0.5012  0.5956 -1.5496
  152MOL0     H20502   0.667   5.947  11.246  0.9652  0.9262 -0.0131
  152MOL0     H20503   0.813   5.807  11.111 -0.8135  0.0383  0.5348
  152MOL0     H20504   1.336   5.696  11.109 -3.5276  2.0442  0.7919
  152MOL0     H20505   1.515   5.634  10.930 -0.5351 -3.9859  2.1406
  152MOL0     H20506   2.978   4.906  10.263 -0.4258 -1.9954  0.3524
  152MOL0     H20507   3.109   4.861  10.063 -3.0047 -1.9598  0.5406
  152MOL0     H20508   3.495   4.791   9.812  2.5814 -0.1504 -3.5792
  152MOL0     H20509   3.692   4.879   9.686 -0.5560  0.6992  0.4066
  152MOL0     H20510   4.092   4.728   9.813 -1.1926 -0.7717  0.1054
  152MOL0     H20511   4.123   4.855   9.703 -1.0789 -0.1175 -0.8036
  152MOL0     H20512   4.078   4.916   9.993  1.4898 -1.5993  0.5827
  152MOL0     H20513   4.122   5.027   9.862  0.1983  1.6257  2.0775
  152MOL0     H20514   4.320   4.979   9.990 -0.9690 -1.4791  3.3006
  152MOL0     H20515   4.336   4.916   9.825  2.0093  0.2178  1.0475
  152MOL0     H20516   4.252   4.688   9.939  2.2326 -1.3618 -3.2163
  152MOL0     H20517   4.294   4.789  10.090  4.1282  3.6419 -0.5309
  152MOL0     H20518   4.637   4.621   9.909 -2.3571 -2.7469 -0.8709
  152MOL0     H20519   3.936   4.735  10.020 -0.8765 -1.6121  1.7888
  152MOL0     H20520   3.736   4.682  10.145 -0.1209 -4.5910 -1.2897
  153MOL0     O20521   1.270   8.088  11.219  0.1375 -0.0402 -0.5402
  153MOL0     C20522   1.321   7.976  11.207  0.5432 -0.7912  0.0889
  153MOL0     O20523   1.257   7.855  11.199 -0.1127 -0.4257  0.1790
  153MOL0     C20524   1.128   7.851  11.239  0.3943 -0.1925  0.1176
  153MOL0     C20525   1.046   7.769  11.150 -0.4175  0.6126 -0.8487
  153MOL0     C20526   0.913   7.746  11.188 -0.3420  0.5523 -0.9758
  153MOL0     C20527   0.855   7.805  11.303  0.6677 -0.0071 -0.1562
  153MOL0     O20528   0.719   7.774  11.324  0.4025  0.1501 -0.3423
  153MOL0     C20529   0.674   7.793  11.459  0.4962  0.1056 -0.1321
  153MOL0     C20530   0.538   7.716  11.488 -0.0399  0.2010 -0.2428
  153MOL0     C20531   0.546   7.565  11.455 -0.2315  0.5805  0.0985
  153MOL0     C20532   0.407   7.499  11.478 -0.4452 -0.3447  0.7137
  153MOL0     C20533   0.426   7.343  11.468 -0.7742  0.9167  0.2719
  153MOL0     C20534   0.322   7.246  11.532 -0.1876 -0.1542  0.4779
  153MOL0     C20535   0.186   7.273  11.459  0.6365 -0.5039 -0.6011
  153MOL0     C20536   0.087   7.173  11.525 -0.5849 -0.0402 -0.1344
  153MOL0     N20537  -0.030   7.166  11.441 -0.5114 -0.1975 -0.3759
  153MOL0     C20538  -0.109   7.271  11.403 -1.0291  0.0617  0.1466
  153MOL0     C20539  -0.202   7.216  11.323 -0.2202 -0.4380 -0.3657
  153MOL0     C20540  -0.300   7.301  11.252  1.0778  0.0077 -0.0534
  153MOL0     C20541  -0.444   7.299  11.330  0.5184 -0.6132 -0.7988
  153MOL0     C20542  -0.502   7.161  11.353 -1.5311  0.0929 -0.7826
  153MOL0     C20543  -0.652   7.172  11.400  0.1211 -0.2680  0.2636
  153MOL0     O20544  -0.734   7.077  11.330 -0.2244  0.0995 -0.1254
  153MOL0     C20545  -0.866   7.085  11.365  0.1544  0.2049 -0.3148
  153MOL0     C20546  -0.916   7.019  11.469  0.6117  0.4673 -0.0326
  153MOL0     C20547  -1.054   7.013  11.499  0.8155 -0.2879  0.6766
  153MOL0     C20548  -1.110   6.929  11.610  0.3855 -0.8201  1.2590
  153MOL0     C20549  -1.144   7.090  11.416  0.2708 -0.0279  0.2001
  153MOL0     C20550  -1.291   7.098  11.436  0.5648 -0.0967 -0.2260
  153MOL0     O20551  -1.365   7.116  11.319  0.2625 -0.5820  0.0780
  153MOL0     C20552  -1.500   7.136  11.330  0.3760 -0.5682 -0.3782
  153MOL0     C20553  -1.558   7.269  11.345 -0.2385  0.6403  0.1391
  153MOL0     C20554  -1.695   7.278  11.365  0.0190  0.1819 -0.4064
  153MOL0     C20555  -1.773   7.168  11.357  0.6380  0.5558  0.6037
  153MOL0     O20556  -1.913   7.183  11.371  0.4147 -0.1995 -0.2528
  153MOL0     C20557  -1.981   7.094  11.460 -0.1488 -0.0042 -0.1260
  153MOL0     C20558  -2.118   7.156  11.500  0.1327  0.3661  0.8433
  153MOL0     C20559  -2.173   7.104  11.636 -0.8538 -0.5020  0.1699
  153MOL0     C20560  -2.263   7.208  11.697 -0.3490 -0.4082  0.6523
  153MOL0     C20561  -2.331   7.148  11.817 -1.3819  0.8518 -0.1589
  153MOL0     C20562  -2.391   7.257  11.908 -0.5522  0.2274  0.3081
  153MOL0     C20563  -2.450   7.209  12.039 -0.1978 -0.4212 -0.3489
  153MOL0     C20564  -2.514   7.318  12.118  0.9508 -0.8598  0.0291
  153MOL0    Cl20565  -2.663   7.391  12.029 -0.5718 -0.2639 -0.1921
  153MOL0     C20566  -1.719   7.036  11.360  0.4098 -0.8729 -0.0335
  153MOL0     C20567  -1.579   7.020  11.344 -0.5528 -1.1066  0.8954
  153MOL0     O20568  -1.342   7.078  11.546  0.2865 -0.1933 -0.0653
  153MOL0     C20569  -1.091   7.151  11.296 -1.2122 -0.2420 -1.1588
  153MOL0     C20570  -0.947   7.148  11.277  0.3720  0.3931 -0.1599
  153MOL0     N20571  -0.164   7.082  11.305 -0.0296  0.4584  0.2678
  153MOL0     N20572  -0.065   7.050  11.383 -0.9207 -0.1810 -0.6832
  153MOL0     C20573   0.930   7.903  11.378  0.3128 -1.4290 -0.4498
  153MOL0     C20574   1.068   7.927  11.345  0.5943 -0.3384  0.9344
  153MOL0     C20575   1.468   7.970  11.202  0.1493 -0.3482  0.4083
  153MOL0     C20576   1.544   8.078  11.163  0.5314 -1.0536  0.2045
  153MOL0     C20577   1.686   8.065  11.140  0.1108  0.5045  0.0323
  153MOL0     C20578   1.749   7.940  11.162 -0.1444 -0.6003 -0.0887
  153MOL0     O20579   1.879   7.922  11.133  0.0095  0.2325  0.2283
  153MOL0     C20580   1.974   8.041  11.127 -0.5138 -0.0373 -0.6839
  153MOL0     C20581   2.118   8.002  11.155 -0.0357  0.5911 -0.7126
  153MOL0     C20582   2.219   8.075  11.059  0.6482  0.0324 -0.1503
  153MOL0     C20583   2.370   8.058  11.097 -0.3712  0.5129 -0.1047
  153MOL0     C20584   2.455   8.120  10.999  0.2317  0.0276  0.6026
  153MOL0     C20585   2.531   8.187  10.926 -0.2483  0.1592  0.2630
  153MOL0     C20586   1.669   7.829  11.190  0.5976  0.1080 -0.6247
  153MOL0     C20587   1.534   7.850  11.215 -0.2613  0.4971 -0.7581
  153MOL0     H20588   1.086   7.714  11.066 -1.0011  0.1129 -0.8021
  153MOL0     H20589   0.844   7.679  11.137 -0.0109 -0.1678 -0.5003
  153MOL0     H20590   0.758   7.762  11.523  0.8618  0.1466 -0.5926
  153MOL0     H20591   0.663   7.900  11.477  4.9085  0.8120 -0.4817
  153MOL0     H20592   0.496   7.725  11.588  1.5024 -3.8368  0.9555
  153MOL0     H20593   0.465   7.755  11.416  0.0976  1.3337  0.2030
  153MOL0     H20594   0.569   7.546  11.350 -0.3331 -1.7061  0.4310
  153MOL0     H20595   0.620   7.515  11.518  0.9364  0.6373 -1.1917
  153MOL0     H20596   0.360   7.526  11.573 -2.3438 -0.0089 -0.2730
  153MOL0     H20597   0.345   7.537  11.397  2.0307  0.7880 -0.7880
  153MOL0     H20598   0.431   7.298  11.369  2.8116 -1.1153  1.2222
  153MOL0     H20599   0.522   7.318  11.515  0.0872 -1.1157 -2.3428
  153MOL0     H20600   0.357   7.144  11.514  0.7837 -0.0758  1.7814
  153MOL0     H20601   0.312   7.259  11.640 -0.1195 -2.0157  0.7411
  153MOL0     H20602   0.156   7.377  11.472  1.4667 -0.1057 -1.6943
  153MOL0     H20603   0.191   7.262  11.350  0.4616 -0.1018 -0.6508
  153MOL0     H20604   0.078   7.210  11.628  4.4893  1.4180  0.0885
  153MOL0     H20605   0.125   7.071  11.519 -3.3975 -1.1653 -0.1722
  153MOL0     H20606  -0.110   7.379  11.417 -0.7475  0.1936 -0.7498
  153MOL0     H20607  -0.254   7.400  11.252  1.6196 -0.2348 -0.4749
  153MOL0     H20608  -0.308   7.275  11.146  0.2626  0.1895 -0.0467
  153MOL0     H20609  -0.518   7.358  11.274  2.1720  1.0248 -1.3357
  153MOL0     H20610  -0.419   7.352  11.422  2.9003  1.2666 -2.4184
  153MOL0     H20611  -0.436   7.116  11.428 -1.8654 -2.9882 -2.1616
  153MOL0     H20612  -0.480   7.105  11.261  1.8119 -0.6039  0.3010
  153MOL0     H20613  -0.692   7.272  11.382 -1.0302 -1.1906 -2.8245
  153MOL0     H20614  -0.664   7.150  11.507  0.8644  2.7242  1.0729
  153MOL0     H20615  -0.844   6.968  11.531  0.8572 -1.3637 -1.7048
  153MOL0     H20616  -1.033   6.872  11.662  0.2580 -1.2315  1.0027
  153MOL0     H20617  -1.153   6.995  11.686  0.4793  0.9865 -0.1633
  153MOL0     H20618  -1.186   6.857  11.578 -3.0023  3.0204 -0.3610
  153MOL0     H20619  -1.489   7.352  11.339  1.5201 -0.8415 -3.9435
  153MOL0     H20620  -1.733   7.378  11.382  1.7563  0.8588 -0.3519
  153MOL0     H20621  -1.992   6.996  11.412  3.0888 -0.0478 -1.0290
  153MOL0     H20622  -1.914   7.072  11.544 -1.9079  0.6004  1.4753
  153MOL0     H20623  -2.108   7.265  11.498  1.2689  0.3576 -3.7448
  153MOL0     H20624  -2.194   7.124  11.428  0.3943  0.0462  0.7103
  153MOL0     H20625  -2.098   7.082  11.712 -0.1604  0.3061 -0.2607
  153MOL0     H20626  -2.234   7.016  11.617 -1.9766  0.8590 -3.3495
  153MOL0     H20627  -2.209   7.301  11.718 -0.5590  0.5259 -2.3554
  153MOL0     H20628  -2.340   7.230  11.623 -0.6467  0.6951  1.2694
  153MOL0     H20629  -2.256   7.096  11.878 -1.8297 -0.4805 -0.7049
  153MOL0     H20630  -2.407   7.071  11.800  2.4605 -3.4873  0.1710
  153MOL0     H20631  -2.312   7.330  11.927  0.1266  0.1338 -1.8679
  153MOL0     H20632  -2.470   7.310  11.855 -1.3972  0.2996  1.5991
  153MOL0     H20633  -2.367   7.178  12.103 -0.8120 -0.4987  0.4392
  153MOL0     H20634  -2.526   7.131  12.025 -2.6529  1.6435  0.6569
  153MOL0     H20635  -2.441   7.399  12.125  1.6879 -1.3460 -1.6564
  153MOL0     H20636  -2.546   7.286  12.218  0.9052  1.0244  0.6743
  153MOL0     H20637  -1.788   6.952  11.361 -0.8189  0.0612 -1.8453
  153MOL0     H20638  -1.536   6.921  11.339 -0.4746 -1.0080 -1.6834
  153MOL0     H20639  -1.160   7.210  11.237 -1.5864  1.0795  0.5348
  153MOL0     H20640  -0.899   7.205  11.198 -1.6737  3.4104  0.6022
  153MOL0     H20641   0.878   7.940  11.466 -1.6531 -0.9209 -1.7627
  153MOL0     H20642   1.124   8.004  11.396 -0.5390  0.6839  0.6751
  153MOL0     H20643   1.495   8.172  11.143  0.7302 -1.4180 -2.3145
  153MOL0     H20644   1.750   8.143  11.100  4.0077 -2.2308  0.3670
  153MOL0     H20645   1.979   8.080  11.025  1.0310 -2.6027 -1.7109
  153MOL0     H20646   1.944   8.124  11.191  1.0179 -1.0943  1.5552
  153MOL0     H20647   2.132   7.894  11.148  0.2796  0.6233 -0.6061
  153MOL0     H20648   2.132   8.016  11.263  0.9863 -1.8098 -0.4919
  153MOL0     H20649   2.193   8.182  11.056 -2.0207 -0.5691 -0.8890
  153MOL0     H20650   2.206   8.034  10.958  4.6231 -1.6205 -0.1653
  153MOL0     H20651   2.393   7.951  11.105  1.7526  0.8880 -0.6211
  153MOL0     H20652   2.391   8.115  11.188  0.3277  3.1679 -1.8084
  153MOL0     H20653   2.572   8.250  10.850  3.9148 -0.4957  1.6683
  153MOL0     H20654   1.722   7.734  11.197  1.6988  0.7747  0.7178
  153MOL0     H20655   1.484   7.760  11.250  0.7399 -0.1728 -0.9887
  154MOL0     O20656   3.977   9.945  10.730 -0.1452 -0.4073 -0.3491
  154MOL0     C20657   4.013  10.058  10.700  0.1115 -0.2516  0.6503
  154MOL0     O20658   3.941  10.177  10.690  0.2553  0.0734  0.1314
  154MOL0     C20659   3.807  10.184  10.726  0.4645 -0.1713 -0.4771
  154MOL0     C20660   3.730  10.093  10.807  0.1711 -0.9119 -0.0753
  154MOL0     C20661   3.601  10.118  10.845 -0.3854 -0.2103  0.4109
  154MOL0     C20662   3.528  10.223  10.793 -0.9357 -0.3073  0.4652
  154MOL0     O20663   3.390  10.234  10.799 -0.0935  0.3068 -0.1197
  154MOL0     C20664   3.311  10.119  10.765 -0.6269 -1.3470 -0.3541
  154MOL0     C20665   3.168  10.167  10.778  0.3446  0.8314 -0.3316
  154MOL0     C20666   3.068  10.048  10.797 -0.1699  1.0738 -0.5580
  154MOL0     C20667   2.933  10.093  10.752  0.2146 -0.3299 -0.5934
  154MOL0     C20668   2.830   9.980  10.757 -0.8272 -0.3179  0.4244
  154MOL0     C20669   2.690  10.018  10.717 -0.0649  0.7270 -0.2642
  154MOL0     C20670   2.609   9.893  10.676 -0.2405 -0.0469 -0.3598
  154MOL0     C20671   2.477   9.936  10.618  0.0500 -0.1963 -0.1283
  154MOL0     N20672   2.387   9.994  10.716 -0.3994  0.5992 -0.0167
  154MOL0     C20673   2.286   9.927  10.781  0.1507  0.0911  0.1505
  154MOL0     C20674   2.231  10.030  10.856  0.2745 -0.0481 -0.5874
  154MOL0     C20675   2.129   9.990  10.957 -0.5342 -0.3200  0.1210
  154MOL0     C20676   2.010  10.078  10.951  0.0653  0.1071  0.4269
  154MOL0     C20677   1.906  10.017  11.056 -0.4394 -0.7431 -0.3265
  154MOL0     C20678   1.757  10.046  11.018  1.0970 -0.7981  0.0208
  154MOL0     O20679   1.715   9.965  10.910  1.0170 -0.0727 -0.4085
  154MOL0     C20680   1.588   9.974  10.857 -0.2213 -0.4986  0.7483
  154MOL0     C20681   1.549   9.893  10.746  0.0914 -0.6652  0.5745
  154MOL0     C20682   1.413   9.886  10.693 -0.0233 -1.0599  0.4930
  154MOL0     C20683   1.395   9.786  10.588 -0.7785  0.1587 -0.7586
  154MOL0     C20684   1.313   9.971  10.748 -0.0006 -0.1843 -0.3713
  154MOL0     C20685   1.175   9.988  10.691 -0.5521  0.6409 -0.0556
  154MOL0     O20686   1.098  10.086  10.752  0.0278  0.3032  0.3070
  154MOL0     C20687   0.970  10.123  10.721  0.3715  0.0389  0.3336
  154MOL0     C20688   0.892  10.171  10.823  0.3408 -0.3188 -0.3488
  154MOL0     C20689   0.754  10.199  10.808 -0.5837 -0.4816  0.1840
  154MOL0     C20690   0.689  10.193  10.684  0.7045 -0.6271 -0.0120
  154MOL0     O20691   0.555  10.232  10.674 -0.4744 -0.8182  0.1089
  154MOL0     C20692   0.503  10.266  10.543 -0.7179  0.1284 -0.5098
  154MOL0     C20693   0.391  10.371  10.534 -0.2461  0.4526  0.4503
  154MOL0     C20694   0.285  10.371  10.650 -0.2200 -0.6386 -0.0091
  154MOL0     C20695   0.178  10.478  10.609  0.2107 -0.3656 -0.3945
  154MOL0     C20696   0.049  10.465  10.690 -0.2930  0.4674  0.1632
  154MOL0     C20697  -0.048  10.350  10.651  0.1007 -0.5991  0.2157
  154MOL0     C20698  -0.153  10.347  10.754  0.6974  0.3402 -0.0419
  154MOL0     C20699  -0.263  10.244  10.713 -0.4856  0.2752 -0.2779
  154MOL0    Cl20700  -0.366  10.293  10.575  0.0350  0.0906 -0.1326
  154MOL0     C20701   0.767  10.144  10.582 -0.4658  0.5729 -0.2124
  154MOL0     C20702   0.907  10.108  10.592  0.2028  0.1286 -0.0516
  154MOL0     O20703   1.140   9.923  10.590  0.0542 -0.2375  0.0510
  154MOL0     C20704   1.361  10.056  10.854 -0.5603 -0.6632  0.2933
  154MOL0     C20705   1.489  10.048  10.913 -0.2889  0.4710  0.3881
  154MOL0     N20706   2.291  10.152  10.823  0.4074  0.7866  0.2604
  154MOL0     N20707   2.387  10.129  10.747  0.6540  0.6710  0.6010
  154MOL0     C20708   3.600  10.315  10.719  0.6908 -0.2017 -0.4278
  154MOL0     C20709   3.730  10.294  10.683  0.1544 -0.2626 -0.4113
  154MOL0     C20710   4.159  10.071  10.697  0.2712 -0.8651 -0.5589
  154MOL0     C20711   4.221  10.197  10.672 -0.7472 -0.0396  1.1542
  154MOL0     C20712   4.365  10.208  10.675  0.2596  0.1811  0.0287
  154MOL0     C20713   4.443  10.092  10.693 -0.8458 -0.2040 -0.2238
  154MOL0     O20714   4.583  10.111  10.687 -0.2304  0.0788 -0.7790
  154MOL0     C20715   4.668  10.000  10.723  0.0710 -0.0080 -0.0008
  154MOL0     C20716   4.805  10.047  10.755 -0.7982  0.3070  0.2634
  154MOL0     C20717   4.916   9.930  10.780  0.8630  0.1387 -0.0379
  154MOL0     C20718   5.055   9.975  10.758  0.3241 -0.7432  0.7179
  154MOL0     C20719   5.151   9.922  10.851 -0.6082 -0.3096  0.5725
  154MOL0     C20720   5.245   9.864  10.908 -0.1694 -0.0669 -1.0211
  154MOL0     C20721   4.375   9.965  10.709 -0.1574 -0.1651  0.7626
  154MOL0     C20722   4.238   9.957  10.703  0.0804 -0.5355  0.1702
  154MOL0     H20723   3.775  10.003  10.849 -0.5471 -0.7439  1.0934
  154MOL0     H20724   3.549  10.048  10.910  0.2903 -0.0908  1.1033
  154MOL0     H20725   3.320  10.099  10.657 -0.8476 -2.1229 -0.2377
  154MOL0     H20726   3.324  10.029  10.826 -2.6492 -0.3917  1.5865
  154MOL0     H20727   3.163  10.224  10.871 -3.9989 -0.5611  0.4725
  154MOL0     H20728   3.137  10.226  10.691 -1.1870 -0.6955 -0.8781
  154MOL0     H20729   3.103   9.962  10.740 -1.2998 -1.4669  2.3384
  154MOL0     H20730   3.073  10.027  10.905  2.9755 -0.7291 -0.9437
  154MOL0     H20731   2.895  10.183  10.801 -0.5916 -1.9889  2.0271
  154MOL0     H20732   2.941  10.118  10.646 -4.1645 -2.5567 -1.7074
  154MOL0     H20733   2.859   9.909  10.679  0.7161 -0.0665  0.7239
  154MOL0     H20734   2.835   9.923  10.850  1.1156 -4.3421 -1.8976
  154MOL0     H20735   2.635  10.060  10.802 -0.3948  3.5204 -1.7361
  154MOL0     H20736   2.698  10.089  10.634 -1.5653  0.1520 -0.9455
  154MOL0     H20737   2.667   9.837  10.602  1.5423 -0.7203  1.4573
  154MOL0     H20738   2.607   9.824  10.761  2.1929  0.5966  0.2859
  154MOL0     H20739   2.416   9.852  10.584  1.1349  0.7875 -5.3862
  154MOL0     H20740   2.506  10.000  10.533  0.8919  2.5753  2.0828
  154MOL0     H20741   2.263   9.821  10.785 -2.1592  0.5098 -0.5650
  154MOL0     H20742   2.116   9.881  10.957 -0.1159 -0.3763  0.6658
  154MOL0     H20743   2.172  10.011  11.056  1.5767  1.5898 -1.1082
  154MOL0     H20744   1.970  10.072  10.850  1.3352  0.8226 -0.1404
  154MOL0     H20745   2.030  10.185  10.963  1.6392  0.0163 -1.1427
  154MOL0     H20746   1.928  10.081  11.142 -0.2653 -2.4131  0.9356
  154MOL0     H20747   1.925   9.914  11.088 -4.1087 -1.1333  1.0673
  154MOL0     H20748   1.745  10.150  10.987 -0.2633 -0.2826  2.0373
  154MOL0     H20749   1.687  10.019  11.098 -1.9529 -0.2020 -2.2410
  154MOL0     H20750   1.628   9.837  10.697  0.6405 -0.9414  1.7462
  154MOL0     H20751   1.320   9.719  10.631 -1.9131  0.4732 -2.1841
  154MOL0     H20752   1.367   9.840  10.497 -1.6695 -2.4446 -2.1196
  154MOL0     H20753   1.480   9.718  10.575 -0.2046  0.1841  2.0291
  154MOL0     H20754   0.930  10.174  10.924 -2.8299  0.4477  0.9447
  154MOL0     H20755   0.702  10.225  10.900 -1.4533 -1.0769 -0.1396
  154MOL0     H20756   0.587  10.300  10.481 -1.3170  1.5475 -0.6003
  154MOL0     H20757   0.458  10.182  10.490  1.8434 -0.6785 -1.5312
  154MOL0     H20758   0.446  10.465  10.541 -2.1008  1.7081 -0.8265
  154MOL0     H20759   0.338  10.378  10.438  0.7001  0.6010 -0.0778
  154MOL0     H20760   0.335  10.392  10.745  1.4393  1.4094 -1.2404
  154MOL0     H20761   0.228  10.279  10.659  1.4672 -1.5065  4.0972
  154MOL0     H20762   0.205  10.582  10.628 -1.5949 -0.1859  1.6110
  154MOL0     H20763   0.141  10.466  10.507 -2.4762 -0.4445  0.5213
  154MOL0     H20764  -0.002  10.561  10.675  2.2994  1.7199 -1.3518
  154MOL0     H20765   0.070  10.451  10.796 -3.2476  1.4088  0.9625
  154MOL0     H20766  -0.090  10.376  10.553 -0.3228  3.1860  1.2414
  154MOL0     H20767   0.002  10.252  10.648  1.5059  0.1135 -2.0831
  154MOL0     H20768  -0.196  10.447  10.764  2.5440  1.2338 -0.7037
  154MOL0     H20769  -0.118  10.310  10.851 -0.0674 -2.9613 -0.8760
  154MOL0     H20770  -0.327  10.233  10.801 -2.5225  2.5613 -1.3799
  154MOL0     H20771  -0.212  10.149  10.695 -1.2370 -0.2700  0.4099
  154MOL0     H20772   0.722  10.131  10.484 -0.5971 -2.1089  0.1334
  154MOL0     H20773   0.956  10.063  10.506  0.1943  0.4634 -0.2367
  154MOL0     H20774   1.301  10.140  10.888 -1.5086  0.0945 -2.9061
  154MOL0     H20775   1.514  10.117  10.993  0.0241 -0.5653  1.1966
  154MOL0     H20776   3.547  10.400  10.675 -0.1185 -1.5041 -2.0725
  154MOL0     H20777   3.788  10.374  10.637  1.0093 -0.3873  0.4226
  154MOL0     H20778   4.164  10.286  10.645  3.0168  2.4937  0.7766
  154MOL0     H20779   4.410  10.304  10.652 -2.6662  1.0983 -2.4871
  154MOL0     H20780   4.629   9.951  10.813  1.6526 -0.1625  0.6213
  154MOL0     H20781   4.668   9.923  10.645 -1.1129  0.1149 -0.1521
  154MOL0     H20782   4.811  10.118  10.838 -2.3286 -0.2795  0.9185
  154MOL0     H20783   4.840  10.102  10.668 -0.0647  0.2610  0.5229
  154MOL0     H20784   4.902   9.840  10.719  5.0380  0.4525 -1.7435
  154MOL0     H20785   4.906   9.900  10.885 -1.2627 -1.9207 -0.7313
  154MOL0     H20786   5.075  10.082  10.763  3.6739 -1.2327  0.1910
  154MOL0     H20787   5.075   9.945  10.655 -0.5861  2.8839 -0.6495
  154MOL0     H20788   5.321   9.816  10.966 -1.7851 -1.3182  0.1464
  154MOL0     H20789   4.428   9.870  10.718 -0.9636 -0.4761  2.9527
  154MOL0     H20790   4.192   9.859  10.692  1.3570 -1.2409  0.9360
  155MOL0     O20791   0.331   6.672   5.139  0.3634 -0.6838  0.0060
  155MOL0     C20792   0.406   6.692   5.043 -0.1204  0.3318  1.1866
  155MOL0     O20793   0.369   6.698   4.914 -0.0604 -0.1026 -0.5865
  155MOL0     C20794   0.244   6.684   4.884  0.2905 -0.0773  0.3214
  155MOL0     C20795   0.198   6.554   4.842  0.1318  0.4393  1.0449
  155MOL0     C20796   0.060   6.527   4.812 -0.2414 -0.2282  0.7990
  155MOL0     C20797  -0.030   6.633   4.811 -0.2195  0.0098 -0.4538
  155MOL0     O20798  -0.162   6.604   4.774  0.1161 -0.1695 -0.3756
  155MOL0     C20799  -0.268   6.623   4.868 -0.7532 -0.0389  0.0569
  155MOL0     C20800  -0.384   6.529   4.834 -0.0408  0.7539  0.1514
  155MOL0     C20801  -0.410   6.519   4.680  0.0404 -0.0376  0.0967
  155MOL0     C20802  -0.538   6.448   4.645  0.1625 -0.8796  0.3977
  155MOL0     C20803  -0.533   6.448   4.488  0.1437 -0.5790 -0.4856
  155MOL0     C20804  -0.668   6.392   4.449 -0.0436  0.1524  0.0037
  155MOL0     C20805  -0.668   6.362   4.296 -0.6556 -0.0384 -0.2294
  155MOL0     C20806  -0.800   6.275   4.274 -0.3531 -0.5018 -0.3145
  155MOL0     N20807  -0.925   6.341   4.320  0.7329  0.0670  0.3651
  155MOL0     C20808  -0.993   6.445   4.249 -0.7610  0.9444 -0.2431
  155MOL0     C20809  -1.111   6.446   4.309  0.1219 -0.7211  0.7970
  155MOL0     C20810  -1.219   6.546   4.265 -0.5223  0.6585  0.2038
  155MOL0     C20811  -1.322   6.494   4.167 -0.4310 -0.4355  0.1142
  155MOL0     C20812  -1.265   6.423   4.049 -0.1279  0.1800  0.0271
  155MOL0     C20813  -1.370   6.355   3.962 -0.4528 -0.4320 -0.2474
  155MOL0     O20814  -1.453   6.460   3.906  0.3453  0.1877  0.2932
  155MOL0     C20815  -1.580   6.432   3.870  1.3512 -0.1776  0.3198
  155MOL0     C20816  -1.643   6.552   3.827  1.3783 -0.2602  0.9076
  155MOL0     C20817  -1.778   6.543   3.777 -0.3150 -0.4816  0.3875
  155MOL0     C20818  -1.852   6.667   3.734  0.0776  0.4316 -0.3721
  155MOL0     C20819  -1.840   6.414   3.766  0.0034 -0.3320 -0.4451
  155MOL0     C20820  -1.975   6.395   3.718  1.0304  0.0089  0.6123
  155MOL0     O20821  -2.043   6.488   3.643 -0.5137  0.2053 -0.1785
  155MOL0     C20822  -2.165   6.451   3.592 -0.2164  0.6579  0.1314
  155MOL0     C20823  -2.259   6.553   3.595  0.0304  0.2154 -0.7811
  155MOL0     C20824  -2.388   6.520   3.556 -0.7728 -0.6815  0.0814
  155MOL0     C20825  -2.423   6.400   3.500 -0.7483  0.1913  0.4174
  155MOL0     O20826  -2.554   6.399   3.465  0.9166  0.0052  0.1703
  155MOL0     C20827  -2.606   6.281   3.404 -0.0162 -0.8745 -0.1736
  155MOL0     C20828  -2.754   6.294   3.356 -0.3952  0.6495  0.3749
  155MOL0     C20829  -2.846   6.302   3.474  0.6585 -0.4002 -0.2967
  155MOL0     C20830  -2.990   6.329   3.434 -0.1676  0.6200 -0.4958
  155MOL0     C20831  -3.077   6.331   3.561  0.7126  0.2759 -0.9092
  155MOL0     C20832  -3.217   6.381   3.538  0.1809  0.2813 -0.6202
  155MOL0     C20833  -3.284   6.423   3.666 -0.1570 -0.5398 -0.1273
  155MOL0     C20834  -3.433   6.419   3.646  0.3165 -0.4113 -0.0783
  155MOL0    Cl20835  -3.497   6.255   3.668  0.4394 -0.3073 -0.3868
  155MOL0     C20836  -2.327   6.299   3.491  0.3091  0.0829 -0.2520
  155MOL0     C20837  -2.192   6.324   3.537  0.8489  0.4835  0.1947
  155MOL0     O20838  -2.030   6.295   3.767 -0.5132 -0.2791 -0.2921
  155MOL0     C20839  -1.758   6.302   3.805  0.5875 -0.3658  1.1459
  155MOL0     C20840  -1.635   6.306   3.853  0.4272 -0.9642 -0.6326
  155MOL0     N20841  -1.119   6.347   4.411  0.6422 -0.6219 -0.6134
  155MOL0     N20842  -1.015   6.277   4.401  0.2368 -0.2158 -0.5796
  155MOL0     C20843   0.014   6.759   4.857 -0.3548  0.0632  0.1316
  155MOL0     C20844   0.155   6.786   4.879  0.2894 -1.1167  0.8666
  155MOL0     C20845   0.560   6.713   5.065  0.1554 -0.0502 -0.1945
  155MOL0     C20846   0.635   6.776   4.964 -1.3659 -0.1584  0.4358
  155MOL0     C20847   0.763   6.772   4.973 -1.3100  0.0495  0.1323
  155MOL0     C20848   0.829   6.736   5.093 -0.5204  0.5303  0.6951
  155MOL0     O20849   0.965   6.728   5.083 -0.3110  0.5103 -0.1350
  155MOL0     C20850   1.029   6.655   5.192 -0.0511  0.3920 -0.3831
  155MOL0     C20851   1.188   6.654   5.164  0.9403 -1.1168 -0.2192
  155MOL0     C20852   1.262   6.783   5.207  0.4898  0.0814 -0.8668
  155MOL0     C20853   1.406   6.776   5.146  0.0048  0.6457 -0.7130
  155MOL0     C20854   1.496   6.685   5.214  0.0537  0.7114 -0.1265
  155MOL0     C20855   1.587   6.635   5.269 -0.0749  0.3340 -0.7684
  155MOL0     C20856   0.749   6.692   5.204 -0.6576 -0.4958  1.0110
  155MOL0     C20857   0.618   6.681   5.185 -0.2496  0.5308 -0.5945
  155MOL0     H20858   0.260   6.466   4.829 -1.0421  0.0334 -3.1311
  155MOL0     H20859   0.022   6.426   4.807 -0.4356 -0.1812  1.2675
  155MOL0     H20860  -0.222   6.591   4.962  2.7962  1.1508 -1.1125
  155MOL0     H20861  -0.301   6.727   4.879 -0.9355 -0.2076  1.2136
  155MOL0     H20862  -0.370   6.425   4.863 -2.9930 -0.3355 -1.8364
  155MOL0     H20863  -0.480   6.558   4.876 -1.3063 -2.0001 -0.5763
  155MOL0     H20864  -0.413   6.624   4.651  0.7996  1.7163  5.2461
  155MOL0     H20865  -0.328   6.479   4.619  0.1366  2.1579 -1.2962
  155MOL0     H20866  -0.535   6.346   4.684  2.6536 -1.3170 -0.7358
  155MOL0     H20867  -0.631   6.490   4.686  0.5680 -0.9620  1.4201
  155MOL0     H20868  -0.519   6.549   4.448  0.0344 -0.4516 -0.2050
  155MOL0     H20869  -0.446   6.387   4.461  2.5947  2.8567 -1.1964
  155MOL0     H20870  -0.675   6.296   4.501  0.6013 -0.6384 -1.3132
  155MOL0     H20871  -0.748   6.460   4.481  1.0892  1.1339  0.8471
  155MOL0     H20872  -0.665   6.449   4.229  1.0847  0.8738  0.9482
  155MOL0     H20873  -0.587   6.293   4.272 -1.2150 -1.0704  0.7771
  155MOL0     H20874  -0.785   6.181   4.329  0.2696 -0.2101  0.0257
  155MOL0     H20875  -0.809   6.252   4.168  0.8470  3.4025 -1.4209
  155MOL0     H20876  -0.962   6.502   4.162  3.2976 -1.0537 -0.3365
  155MOL0     H20877  -1.276   6.595   4.344 -0.0531 -0.0502  0.9953
  155MOL0     H20878  -1.159   6.629   4.226  1.6663 -1.5093 -1.4345
  155MOL0     H20879  -1.378   6.580   4.128 -0.1896 -1.2788 -2.2826
  155MOL0     H20880  -1.392   6.429   4.220 -2.7092  0.0570 -2.0869
  155MOL0     H20881  -1.209   6.335   4.081 -0.9948  0.7847  3.6975
  155MOL0     H20882  -1.219   6.501   3.989 -0.6218  0.0652 -0.5082
  155MOL0     H20883  -1.442   6.303   4.026 -1.4638  1.3835  0.1635
  155MOL0     H20884  -1.320   6.292   3.888  1.9386 -0.0499  0.9148
  155MOL0     H20885  -1.613   6.654   3.847  1.0036 -0.4034  2.2979
  155MOL0     H20886  -1.798   6.748   3.785  1.7390 -1.4628  1.0090
  155MOL0     H20887  -1.846   6.695   3.628 -1.7520  0.2552 -0.5585
  155MOL0     H20888  -1.957   6.675   3.765  0.1668  1.7703 -0.3190
  155MOL0     H20889  -2.240   6.640   3.658  0.9330 -0.1050 -0.6007
  155MOL0     H20890  -2.463   6.598   3.566  0.3820  0.9820 -2.8955
  155MOL0     H20891  -2.541   6.256   3.320  1.0891  1.4189 -0.0899
  155MOL0     H20892  -2.599   6.198   3.475 -0.1970 -0.3337  0.4984
  155MOL0     H20893  -2.772   6.384   3.296 -0.6385  0.9453  0.8783
  155MOL0     H20894  -2.762   6.201   3.300 -1.1899 -0.0789  1.6460
  155MOL0     H20895  -2.809   6.380   3.540  0.9710 -0.9404  0.1802
  155MOL0     H20896  -2.841   6.214   3.539 -1.3921  0.7391  1.5348
  155MOL0     H20897  -3.003   6.427   3.387 -3.1592  0.9012  0.6870
  155MOL0     H20898  -3.032   6.261   3.360  0.9241  0.5273 -1.0479
  155MOL0     H20899  -3.033   6.387   3.643 -0.4474  1.3302 -0.9740
  155MOL0     H20900  -3.087   6.235   3.613 -0.1200  1.8099  1.9591
  155MOL0     H20901  -3.229   6.465   3.469  0.8812  0.1461 -0.9174
  155MOL0     H20902  -3.272   6.299   3.490 -0.1315  1.1647 -1.8075
  155MOL0     H20903  -3.259   6.529   3.680 -1.9475  0.2639 -2.3619
  155MOL0     H20904  -3.238   6.364   3.745  2.1911  0.5656 -0.5629
  155MOL0     H20905  -3.467   6.475   3.558  1.9051  2.0253  0.7561
  155MOL0     H20906  -3.476   6.474   3.731 -0.0504 -0.6721 -0.0937
  155MOL0     H20907  -2.357   6.197   3.468  0.7786 -0.8002  2.5874
  155MOL0     H20908  -2.125   6.241   3.520 -0.5227 -0.1832 -2.7407
  155MOL0     H20909  -1.797   6.203   3.786  0.3048 -0.1297  0.4450
  155MOL0     H20910  -1.581   6.218   3.887  1.9324  1.2336  3.2649
  155MOL0     H20911  -0.058   6.839   4.866 -0.5791 -0.2167  0.9602
  155MOL0     H20912   0.186   6.888   4.902 -1.6641 -0.7146  1.9123
  155MOL0     H20913   0.597   6.789   4.863  2.1519  0.3630 -0.9609
  155MOL0     H20914   0.828   6.791   4.888 -0.1959  2.9634  1.4887
  155MOL0     H20915   1.019   6.707   5.288 -2.0589 -0.6994  0.0529
  155MOL0     H20916   0.997   6.551   5.188  1.5972 -0.2683  1.7389
  155MOL0     H20917   1.203   6.644   5.056  1.0353  0.9943 -0.4377
  155MOL0     H20918   1.221   6.565   5.218 -0.7453 -1.1955  0.7471
  155MOL0     H20919   1.267   6.786   5.316 -1.6650 -0.9967 -0.6966
  155MOL0     H20920   1.199   6.869   5.184 -2.4632 -1.0643  2.2201
  155MOL0     H20921   1.452   6.875   5.146 -0.9601  1.1323 -2.0583
  155MOL0     H20922   1.400   6.754   5.039 -0.9569  2.4455 -1.0748
  155MOL0     H20923   1.668   6.602   5.331 -2.5974 -0.5043  2.3583
  155MOL0     H20924   0.793   6.656   5.296  1.9721 -1.3491 -0.4949
  155MOL0     H20925   0.560   6.634   5.264  0.1539 -0.3910 -0.8287
  156MOL0     O20926   4.977   6.322   4.327 -0.0597  0.5078 -0.2390
  156MOL0     C20927   5.048   6.306   4.228  0.2794  0.3095  0.1775
  156MOL0     O20928   5.001   6.312   4.099 -0.2919 -0.1370 -0.4305
  156MOL0     C20929   4.876   6.364   4.083  0.3475  0.1474  0.5667
  156MOL0     C20930   4.765   6.280   4.068 -0.7085 -0.7659 -0.6180
  156MOL0     C20931   4.643   6.336   4.067 -0.0214 -0.4757  0.0298
  156MOL0     C20932   4.616   6.478   4.077 -0.1662  0.1576  0.1505
  156MOL0     O20933   4.485   6.523   4.098 -0.4480 -0.3772  0.2439
  156MOL0     C20934   4.464   6.653   4.045  0.8138  0.1519  0.3681
  156MOL0     C20935   4.312   6.680   4.073  0.0842  0.9862 -0.2417
  156MOL0     C20936   4.261   6.806   4.006  0.1722  0.1778  0.0450
  156MOL0     C20937   4.122   6.850   4.027 -0.2310 -0.0227 -0.2913
  156MOL0     C20938   4.027   6.839   3.910 -0.2700  0.5721 -0.5264
  156MOL0     C20939   3.899   6.913   3.938  0.0344 -0.7752 -1.2913
  156MOL0     C20940   3.810   6.830   4.029 -0.6102 -0.1039 -0.0277
  156MOL0     C20941   3.666   6.890   4.057  0.2248  0.0564 -0.3074
  156MOL0     N20942   3.577   6.893   3.943  0.2113 -0.5833  0.2729
  156MOL0     C20943   3.522   7.002   3.876 -0.7479  0.0138  0.1489
  156MOL0     C20944   3.457   6.943   3.773 -0.7233 -0.8413 -0.1608
  156MOL0     C20945   3.373   7.011   3.674 -0.2574  0.7244 -0.1562
  156MOL0     C20946   3.254   7.077   3.733  0.2984  0.6304 -0.8496
  156MOL0     C20947   3.148   6.960   3.767  0.6088  0.4785  0.5170
  156MOL0     C20948   2.999   7.000   3.753 -0.3145 -0.5239  0.5988
  156MOL0     O20949   2.914   6.904   3.805  0.1057  0.7156 -0.4603
  156MOL0     C20950   2.775   6.930   3.788  0.3602 -0.7342  0.3138
  156MOL0     C20951   2.714   7.053   3.754 -0.1746 -0.5227  0.2581
  156MOL0     C20952   2.573   7.070   3.760 -0.2607 -0.4645 -0.8154
  156MOL0     C20953   2.521   7.207   3.728 -0.5430 -0.4716  0.2777
  156MOL0     C20954   2.495   6.961   3.803 -0.1912  0.1008 -0.3724
  156MOL0     C20955   2.345   6.971   3.818 -0.2458 -0.2814  1.3486
  156MOL0     O20956   2.278   6.880   3.906 -0.4879 -0.3653 -0.0305
  156MOL0     C20957   2.147   6.877   3.936  0.1008 -0.1002  0.8251
  156MOL0     C20958   2.106   6.908   4.063 -0.7762 -0.1539 -0.0613
  156MOL0     C20959   1.970   6.903   4.101 -0.1217  0.0588 -0.1263
  156MOL0     C20960   1.878   6.873   4.013  0.1303 -0.3518  0.1743
  156MOL0     O20961   1.749   6.879   4.062 -0.2674 -0.8720 -0.2123
  156MOL0     C20962   1.643   6.874   3.967 -0.1090 -0.6405  0.4478
  156MOL0     C20963   1.510   6.904   4.041  0.6305  0.1565  0.1780
  156MOL0     C20964   1.388   6.883   3.941  0.2744  0.6356 -0.3741
  156MOL0     C20965   1.251   6.890   4.010 -0.3079 -0.2747  0.1823
  156MOL0     C20966   1.137   6.869   3.913 -0.4863 -0.6234 -0.4041
  156MOL0     C20967   1.142   6.734   3.851  0.6153  0.4354 -0.2299
  156MOL0     C20968   1.010   6.700   3.767  0.1629 -0.5703  0.1326
  156MOL0     C20969   0.912   6.620   3.846 -0.4519 -1.1832  0.0758
  156MOL0    Cl20970   0.786   6.577   3.735 -0.0956  0.2582  0.4243
  156MOL0     C20971   1.918   6.837   3.880 -0.5538  0.1372 -0.2517
  156MOL0     C20972   2.051   6.828   3.841 -0.2827 -0.5026  0.0774
  156MOL0     O20973   2.285   7.048   3.749  0.0985 -0.4447 -0.0785
  156MOL0     C20974   2.555   6.842   3.852 -0.2605 -0.1067 -0.5758
  156MOL0     C20975   2.692   6.831   3.842  1.0531  0.7415 -0.2522
  156MOL0     N20976   3.484   6.809   3.769  0.8853 -0.4604 -0.8324
  156MOL0     N20977   3.550   6.779   3.875  0.4980 -0.5759  0.2392
  156MOL0     C20978   4.731   6.559   4.086  0.2498 -0.0778 -0.1227
  156MOL0     C20979   4.856   6.499   4.094 -0.5592  0.6977  0.0264
  156MOL0     C20980   5.197   6.267   4.250  0.6872  1.2612  0.2545
  156MOL0     C20981   5.288   6.257   4.143  0.0916  0.4488 -0.4513
  156MOL0     C20982   5.428   6.232   4.172 -0.7787 -0.5926  0.7480
  156MOL0     C20983   5.473   6.200   4.298  0.3177  0.0289 -0.2596
  156MOL0     O20984   5.605   6.174   4.321  0.0205 -0.1881 -0.3490
  156MOL0     C20985   5.647   6.181   4.462 -0.7147 -0.4866 -0.4634
  156MOL0     C20986   5.803   6.178   4.472 -0.1326  0.0141  0.6593
  156MOL0     C20987   5.852   6.182   4.617 -0.6666  0.2848 -0.3958
  156MOL0     C20988   6.001   6.155   4.627 -0.0286 -0.1955  0.8268
  156MOL0     C20989   6.049   6.184   4.763  0.2753 -0.5279 -0.3857
  156MOL0     C20990   6.097   6.218   4.869 -0.2121 -0.6653 -0.8217
  156MOL0     C20991   5.374   6.191   4.397  0.0559  0.5132  0.0119
  156MOL0     C20992   5.242   6.233   4.376 -0.1165  0.0790 -0.3511
  156MOL0     H20993   4.777   6.173   4.063 -4.4807 -1.2854 -1.8336
  156MOL0     H20994   4.562   6.266   4.051  0.8834 -1.0709 -2.3258
  156MOL0     H20995   4.515   6.738   4.091  1.1201 -0.4742  1.2008
  156MOL0     H20996   4.490   6.646   3.938 -0.9490 -3.8795  0.0220
  156MOL0     H20997   4.252   6.593   4.044 -0.5373  1.2266  0.2985
  156MOL0     H20998   4.315   6.678   4.183  4.6686 -2.2516 -0.1289
  156MOL0     H20999   4.320   6.886   4.053  1.0119 -2.3618  3.7658
  156MOL0     H21000   4.276   6.809   3.898  1.3638  1.0539  0.2153
  156MOL0     H21001   4.091   6.808   4.123  0.6282  2.0269  0.9454
  156MOL0     H21002   4.133   6.958   4.042  0.2324 -0.3421  1.9842
  156MOL0     H21003   4.067   6.886   3.819  2.4749 -1.3152 -0.4242
  156MOL0     H21004   4.004   6.733   3.895 -0.4221  0.1560  2.2200
  156MOL0     H21005   3.918   7.011   3.983  3.0167 -2.2385  1.0072
  156MOL0     H21006   3.849   6.924   3.841  0.2787 -1.1218 -1.4615
  156MOL0     H21007   3.788   6.732   3.987 -0.9915 -0.5390  1.1537
  156MOL0     H21008   3.858   6.820   4.127  1.4701  2.1649 -0.7149
  156MOL0     H21009   3.672   6.991   4.101 -2.8586 -0.8067  2.5180
  156MOL0     H21010   3.618   6.832   4.136  1.4849  3.2758  3.1581
  156MOL0     H21011   3.529   7.107   3.901  1.5521 -0.3879  1.4851
  156MOL0     H21012   3.443   7.084   3.634  1.8717 -2.1368 -2.0847
  156MOL0     H21013   3.348   6.950   3.586  3.1743 -0.6635 -0.3060
  156MOL0     H21014   3.207   7.140   3.656 -0.4437  1.5087  0.2915
  156MOL0     H21015   3.268   7.140   3.821 -2.7713  0.9400 -0.4660
  156MOL0     H21016   3.174   6.917   3.864 -0.1801 -2.8650 -0.6323
  156MOL0     H21017   3.166   6.879   3.697 -0.2688  0.8706 -0.1822
  156MOL0     H21018   2.969   7.023   3.650 -2.2544 -0.4643  1.1440
  156MOL0     H21019   2.988   7.092   3.811 -0.5360  0.6821 -1.2335
  156MOL0     H21020   2.785   7.128   3.720 -1.1481 -0.0637 -0.8069
  156MOL0     H21021   2.483   7.200   3.626 -0.4430  2.7751 -0.0884
  156MOL0     H21022   2.434   7.240   3.785 -1.7051  0.8417 -2.1120
  156MOL0     H21023   2.595   7.287   3.736 -1.4786  0.5826 -1.1809
  156MOL0     H21024   2.189   6.935   4.128  0.7306 -0.0264 -1.9335
  156MOL0     H21025   1.951   6.918   4.207 -0.5758  3.0694 -0.5476
  156MOL0     H21026   1.669   6.953   3.896 -1.5664 -1.0563 -0.5788
  156MOL0     H21027   1.642   6.777   3.916  2.3311 -0.5693  0.1368
  156MOL0     H21028   1.501   6.822   4.113  1.4123 -2.2648 -2.2807
  156MOL0     H21029   1.516   7.003   4.087 -2.0017 -0.2891  1.7001
  156MOL0     H21030   1.394   6.785   3.893 -2.9048 -0.0968  0.4886
  156MOL0     H21031   1.386   6.954   3.857  1.9455 -0.6046 -1.5427
  156MOL0     H21032   1.248   6.825   4.098 -0.0337  0.3366  0.6512
  156MOL0     H21033   1.238   6.987   4.059  0.0436  0.3850 -0.9933
  156MOL0     H21034   1.143   6.953   3.843  1.1603  1.5512  2.1651
  156MOL0     H21035   1.045   6.869   3.973  0.2292 -4.6873  1.0415
  156MOL0     H21036   1.230   6.720   3.787  0.1662 -2.3554 -0.3632
  156MOL0     H21037   1.158   6.651   3.920  2.0067 -1.7622 -2.9815
  156MOL0     H21038   1.050   6.647   3.680  2.7522  2.4762 -0.7132
  156MOL0     H21039   0.957   6.789   3.730  0.5323 -0.4017  0.0024
  156MOL0     H21040   0.880   6.673   3.937  1.6863  0.4219 -0.0331
  156MOL0     H21041   0.952   6.525   3.881  0.0188 -0.6151  1.1209
  156MOL0     H21042   1.838   6.818   3.810 -1.9825  0.8056  1.1469
  156MOL0     H21043   2.083   6.799   3.742  2.9550 -3.1597  1.6882
  156MOL0     H21044   2.494   6.765   3.897 -1.1271 -0.1741 -1.8029
  156MOL0     H21045   2.733   6.737   3.879 -0.5026 -0.4129 -1.3568
  156MOL0     H21046   4.730   6.665   4.107  1.0309 -0.7003  3.8208
  156MOL0     H21047   4.942   6.564   4.108 -0.4814  0.2325  2.0632
  156MOL0     H21048   5.258   6.274   4.040 -1.1188 -1.2573 -0.4100
  156MOL0     H21049   5.504   6.244   4.095 -0.1079  3.3019  1.7836
  156MOL0     H21050   5.612   6.272   4.511  2.0757 -0.3083  1.4401
  156MOL0     H21051   5.611   6.090   4.511  0.6645 -0.8433 -0.0739
  156MOL0     H21052   5.845   6.262   4.415 -1.4170  0.8127  0.8571
  156MOL0     H21053   5.831   6.083   4.425 -1.7412 -0.3755  0.4254
  156MOL0     H21054   5.802   6.106   4.678 -1.1152  1.6473  0.9867
  156MOL0     H21055   5.825   6.277   4.663 -0.8640  0.6458 -1.2331
  156MOL0     H21056   6.048   6.231   4.564 -1.7052  0.6709  0.5652
  156MOL0     H21057   6.018   6.052   4.595 -0.1648  0.2963 -0.9575
  156MOL0     H21058   6.125   6.259   4.964 -1.9695 -0.7923 -0.2141
  156MOL0     H21059   5.406   6.156   4.494 -0.0334 -0.1266 -0.1883
  156MOL0     H21060   5.173   6.225   4.459 -0.2698  0.2421 -0.4608
  157MOL0     O21061  10.157   4.309   6.815 -0.4327  0.2290  0.5392
  157MOL0     C21062  10.204   4.312   6.925 -0.0509  0.3630 -0.2384
  157MOL0     O21063  10.145   4.290   7.049  1.0507  0.4640  0.0033
  157MOL0     C21064  10.009   4.266   7.064 -0.0142  0.3618 -0.5802
  157MOL0     C21065   9.908   4.308   6.977  0.5564 -0.2794 -0.6151
  157MOL0     C21066   9.772   4.291   7.014  0.3850  0.1237 -0.4405
  157MOL0     C21067   9.732   4.230   7.135 -0.2404  0.5841  0.2896
  157MOL0     O21068   9.604   4.210   7.180  0.3256  0.7053 -0.1433
  157MOL0     C21069   9.503   4.249   7.088  0.7853  0.3240 -0.0376
  157MOL0     C21070   9.371   4.247   7.165  0.2880 -0.1674 -0.4307
  157MOL0     C21071   9.324   4.100   7.187  0.0943  0.1649  0.0260
  157MOL0     C21072   9.176   4.102   7.240 -0.9926  1.1518  0.1282
  157MOL0     C21073   9.102   3.971   7.250 -0.2384  0.3365  0.1220
  157MOL0     C21074   9.079   3.904   7.117  0.0925 -0.1559  0.3546
  157MOL0     C21075   9.001   3.768   7.140 -0.6921  0.4704  0.6079
  157MOL0     C21076   8.975   3.681   7.014 -0.2769  0.1355 -0.2783
  157MOL0     N21077   8.853   3.712   6.942  0.5331  0.1490 -0.4475
  157MOL0     C21078   8.819   3.829   6.887  1.1186 -0.2243  0.1152
  157MOL0     C21079   8.692   3.811   6.839 -0.2893 -0.0219  0.3306
  157MOL0     C21080   8.619   3.908   6.759 -0.4187  0.5373  0.3174
  157MOL0     C21081   8.469   3.902   6.778 -0.6869  0.3604 -0.7366
  157MOL0     C21082   8.431   3.942   6.928  0.2275  0.1483  0.6312
  157MOL0     C21083   8.282   3.975   6.954  0.7695  0.1610  0.2156
  157MOL0     O21084   8.230   4.075   6.876  0.9641  0.5366 -0.3152
  157MOL0     C21085   8.091   4.102   6.894  0.3438  0.0041 -0.2835
  157MOL0     C21086   7.994   4.015   6.940 -0.5484 -0.0800 -0.3347
  157MOL0     C21087   7.862   4.055   6.947  0.3237 -0.4916 -0.2804
  157MOL0     C21088   7.773   3.960   7.025 -0.2645  0.9318 -0.4243
  157MOL0     C21089   7.814   4.178   6.883 -0.9879 -0.0161  0.7048
  157MOL0     C21090   7.676   4.225   6.878  0.7526  0.8670  0.5138
  157MOL0     O21091   7.577   4.125   6.880 -0.5141 -0.4516 -1.0033
  157MOL0     C21092   7.440   4.162   6.873  0.3747  0.8775 -0.2799
  157MOL0     C21093   7.368   4.098   6.775 -0.2849  0.5041  0.5986
  157MOL0     C21094   7.228   4.127   6.763 -0.1209  0.1390 -0.5318
  157MOL0     C21095   7.164   4.218   6.842  0.7097 -0.2274  0.3584
  157MOL0     O21096   7.033   4.250   6.816  0.3218  0.0005 -0.3315
  157MOL0     C21097   6.943   4.215   6.920 -0.3850 -0.2709 -0.8207
  157MOL0     C21098   6.808   4.179   6.861 -0.3322  0.1440  0.2287
  157MOL0     C21099   6.690   4.163   6.954  0.0027  0.3434 -0.3067
  157MOL0     C21100   6.578   4.080   6.886 -0.5429 -0.4186 -0.2523
  157MOL0     C21101   6.468   4.065   6.977 -0.0801  0.4527 -0.1077
  157MOL0     C21102   6.377   3.938   6.946 -0.1934 -0.1268 -0.1643
  157MOL0     C21103   6.448   3.801   6.953 -0.4682  0.1540  0.2630
  157MOL0     C21104   6.354   3.688   6.916  0.2182  0.1441 -0.0151
  157MOL0    Cl21105   6.378   3.620   6.753  0.3257  0.0350  0.3672
  157MOL0     C21106   7.249   4.291   6.935  0.8708  0.4604  0.1619
  157MOL0     C21107   7.385   4.266   6.948 -0.3982 -0.7779  0.0853
  157MOL0     O21108   7.656   4.344   6.866 -0.0840 -0.1757  0.4859
  157MOL0     C21109   7.915   4.266   6.832  0.1535  1.0689 -0.4282
  157MOL0     C21110   8.050   4.226   6.851  0.3248 -0.2567  0.1430
  157MOL0     N21111   8.654   3.687   6.869  0.8906 -0.0316  0.0226
  157MOL0     N21112   8.746   3.626   6.928 -0.3083 -0.4048  0.4687
  157MOL0     C21113   9.835   4.199   7.226 -0.0166  0.2320  0.3109
  157MOL0     C21114   9.970   4.218   7.188  0.1038  0.3740 -0.4564
  157MOL0     C21115  10.339   4.355   6.937  0.3477  0.5664 -0.1819
  157MOL0     C21116  10.426   4.369   6.828 -0.5581  0.1947  0.5337
  157MOL0     C21117  10.544   4.430   6.831  0.1203 -0.0950 -0.8600
  157MOL0     C21118  10.589   4.495   6.948  0.9689  0.2682 -0.6626
  157MOL0     O21119  10.709   4.561   6.933  0.1022  0.1439  0.1759
  157MOL0     C21120  10.782   4.605   7.048  0.2648  0.8092  0.4954
  157MOL0     C21121  10.869   4.490   7.106  0.3802 -0.0621  0.2570
  157MOL0     C21122  10.976   4.452   7.002  0.2821  0.8166  0.7622
  157MOL0     C21123  11.071   4.346   7.063  0.2447  0.3031 -0.0191
  157MOL0     C21124  11.170   4.321   6.969 -0.0806 -0.9794  0.3026
  157MOL0     C21125  11.255   4.317   6.877  0.4121  0.9787 -0.0942
  157MOL0     C21126  10.513   4.481   7.057  1.5232 -0.5200  0.3323
  157MOL0     C21127  10.383   4.423   7.049  0.6593  0.4029  0.3594
  157MOL0     H21128   9.921   4.365   6.885  0.5506  0.0234 -0.4318
  157MOL0     H21129   9.689   4.320   6.950  0.3620 -0.4003 -0.6542
  157MOL0     H21130   9.509   4.350   7.046 -0.7434  0.6290  0.4317
  157MOL0     H21131   9.508   4.187   6.998 -1.9787  0.1955 -0.1762
  157MOL0     H21132   9.385   4.287   7.266  0.8388  0.0926 -0.6013
  157MOL0     H21133   9.291   4.296   7.108  0.5779 -0.1489 -0.8231
  157MOL0     H21134   9.340   4.041   7.096  0.8568 -0.6924  0.6895
  157MOL0     H21135   9.372   4.044   7.267 -0.5441  1.4362  1.3340
  157MOL0     H21136   9.176   4.146   7.340  0.3757 -1.5530  1.4348
  157MOL0     H21137   9.122   4.170   7.174  3.0368  0.9172 -3.9510
  157MOL0     H21138   9.156   3.898   7.311  0.3158 -0.2969 -1.0738
  157MOL0     H21139   9.009   3.996   7.301  0.7773  0.2354  2.1226
  157MOL0     H21140   9.012   3.962   7.054 -1.6192 -0.2366  1.9938
  157MOL0     H21141   9.175   3.891   7.066 -0.3337 -2.3813 -0.0091
  157MOL0     H21142   9.074   3.713   7.200  1.8809  1.9791 -0.9424
  157MOL0     H21143   8.914   3.778   7.205  0.9985 -1.5196  3.3764
  157MOL0     H21144   8.966   3.574   7.037  2.9120  0.0753  1.2477
  157MOL0     H21145   9.062   3.703   6.951 -0.8792  1.4014 -0.7073
  157MOL0     H21146   8.883   3.917   6.875  1.9351 -0.5125  1.9106
  157MOL0     H21147   8.658   4.010   6.770  1.9614 -0.2484 -0.2130
  157MOL0     H21148   8.632   3.883   6.653  0.1930  3.5562 -0.4336
  157MOL0     H21149   8.424   3.805   6.755 -1.1369  0.6240 -0.9863
  157MOL0     H21150   8.425   3.970   6.704  0.0284  0.5384 -1.0076
  157MOL0     H21151   8.498   4.017   6.969  1.1082 -2.4962  4.5337
  157MOL0     H21152   8.459   3.853   6.985  0.7883 -0.4617 -0.5492
  157MOL0     H21153   8.279   4.003   7.060  0.4098 -0.1742  0.2959
  157MOL0     H21154   8.234   3.878   6.939  1.1066 -0.3749  2.2658
  157MOL0     H21155   8.023   3.913   6.964 -3.4264 -1.8018 -3.3866
  157MOL0     H21156   7.700   4.013   7.086 -0.9968 -0.0281 -0.4586
  157MOL0     H21157   7.726   3.896   6.950  0.2342 -0.1628  0.1739
  157MOL0     H21158   7.833   3.885   7.078 -0.8599  1.2079  0.6660
  157MOL0     H21159   7.413   4.012   6.726  0.6527  2.1744 -1.6366
  157MOL0     H21160   7.160   4.071   6.699  0.2488  0.0395 -0.8421
  157MOL0     H21161   6.987   4.124   6.961  1.4886 -0.3134 -2.7422
  157MOL0     H21162   6.949   4.303   6.986 -0.9483  1.4300 -2.9353
  157MOL0     H21163   6.775   4.251   6.786 -3.7764 -0.8238  0.6123
  157MOL0     H21164   6.825   4.082   6.813  3.6672  0.4866  0.6161
  157MOL0     H21165   6.657   4.262   6.985 -0.0776  0.5095 -0.9090
  157MOL0     H21166   6.716   4.114   7.048 -0.0773  0.2331 -0.3425
  157MOL0     H21167   6.541   4.115   6.789  0.8773 -2.0165 -1.4326
  157MOL0     H21168   6.618   3.979   6.870  0.0424 -1.0404  4.0278
  157MOL0     H21169   6.410   4.157   6.966 -2.8751 -0.6713  3.2808
  157MOL0     H21170   6.489   4.062   7.084 -2.4410  1.7422  0.4713
  157MOL0     H21171   6.301   3.942   7.025 -0.6707  0.7924 -0.6388
  157MOL0     H21172   6.320   3.955   6.854 -2.9332 -2.1043  1.0201
  157MOL0     H21173   6.494   3.793   7.051 -0.4958 -0.8152  0.2028
  157MOL0     H21174   6.527   3.801   6.877 -0.4346  0.9140  0.2886
  157MOL0     H21175   6.248   3.711   6.920 -0.1615 -1.4179 -0.3686
  157MOL0     H21176   6.359   3.608   6.991  2.0378  0.7180  0.5349
  157MOL0     H21177   7.191   4.366   6.987 -1.9876 -0.6067 -1.2712
  157MOL0     H21178   7.440   4.319   7.026  3.1271 -0.1501 -2.5657
  157MOL0     H21179   7.897   4.364   6.789  0.6718  0.5956 -1.7800
  157MOL0     H21180   8.113   4.303   6.807 -3.0618  1.6889 -1.7481
  157MOL0     H21181   9.815   4.154   7.323  3.5375 -2.7180 -0.0862
  157MOL0     H21182  10.043   4.212   7.268  1.5732  0.3098 -1.7696
  157MOL0     H21183  10.400   4.322   6.734  0.3186 -0.8695  0.7944
  157MOL0     H21184  10.606   4.431   6.741  3.8201 -2.6943  1.3545
  157MOL0     H21185  10.851   4.689   7.032  0.3634  0.2544 -2.7380
  157MOL0     H21186  10.709   4.642   7.121 -0.9036  0.1012 -0.2777
  157MOL0     H21187  10.796   4.410   7.121  1.3257 -0.5859  2.3571
  157MOL0     H21188  10.915   4.517   7.201  2.0653 -1.5940 -0.0797
  157MOL0     H21189  11.032   4.541   6.971 -1.5594  1.6662 -0.2953
  157MOL0     H21190  10.927   4.416   6.912  0.0630  1.0047  0.8063
  157MOL0     H21191  11.013   4.258   7.095  2.4354 -1.1633  0.1479
  157MOL0     H21192  11.129   4.389   7.145 -0.6818  1.7080 -0.0630
  157MOL0     H21193  11.334   4.315   6.804 -1.7700 -0.0427 -2.5871
  157MOL0     H21194  10.537   4.520   7.156 -1.3240 -0.9564  1.2783
  157MOL0     H21195  10.313   4.432   7.131 -0.1093 -0.7762 -0.1312
  158MOL0     O21196   1.385   0.031   7.748 -0.6807 -0.2845  0.5324
  158MOL0     C21197   1.396   0.132   7.819  1.4708 -0.4870 -0.9995
  158MOL0     O21198   1.291   0.202   7.875 -0.1008  0.5014  1.1698
  158MOL0     C21199   1.160   0.165   7.884  0.0837  0.1168 -0.2522
  158MOL0     C21200   1.059   0.257   7.881  0.0995  0.1281  0.1752
  158MOL0     C21201   0.925   0.220   7.908  0.4969 -0.1629  0.5494
  158MOL0     C21202   0.901   0.086   7.935  0.0382  0.4636  0.3257
  158MOL0     O21203   0.781   0.038   7.986 -0.2523 -0.3600  0.3302
  158MOL0     C21204   0.769  -0.034   8.108 -0.1352 -1.3107  0.1404
  158MOL0     C21205   0.628   0.002   8.162 -0.3565 -0.3354 -0.3387
  158MOL0     C21206   0.514  -0.064   8.079 -0.7937  0.2751 -0.0046
  158MOL0     C21207   0.375  -0.039   8.131 -0.2828  0.4744  0.6210
  158MOL0     C21208   0.271  -0.107   8.031  0.5721  0.3879 -0.3987
  158MOL0     C21209   0.127  -0.084   8.059  1.1373 -0.1799 -0.2364
  158MOL0     C21210   0.028  -0.157   7.965  0.0479 -0.1650 -0.1295
  158MOL0     C21211  -0.105  -0.170   8.029  0.2845  0.6155  0.0029
  158MOL0     N21212  -0.188  -0.256   7.952 -0.1088 -0.4821 -0.1537
  158MOL0     C21213  -0.264  -0.213   7.851  0.0672  0.1131  0.1032
  158MOL0     C21214  -0.344  -0.319   7.833  0.1236  0.7193  0.2744
  158MOL0     C21215  -0.450  -0.333   7.727  0.4683 -0.5192  0.3541
  158MOL0     C21216  -0.519  -0.200   7.714  0.2513 -0.2109 -0.1258
  158MOL0     C21217  -0.655  -0.196   7.636 -0.4673 -0.2932 -0.1942
  158MOL0     C21218  -0.744  -0.066   7.652  0.0271  0.1835 -0.1866
  158MOL0     O21219  -0.804  -0.062   7.785  0.0792  0.2942  0.1454
  158MOL0     C21220  -0.906   0.022   7.813  0.0288 -0.3488 -0.0410
  158MOL0     C21221  -0.978   0.098   7.723  0.2449  0.0829  0.6219
  158MOL0     C21222  -1.108   0.150   7.743  0.2638 -0.4015 -0.2294
  158MOL0     C21223  -1.166   0.256   7.645 -0.1593 -0.0787 -0.5050
  158MOL0     C21224  -1.181   0.117   7.860 -0.2932 -0.9159 -0.7343
  158MOL0     C21225  -1.317   0.171   7.903 -0.3511  0.6705  0.8201
  158MOL0     O21226  -1.365   0.124   8.024 -0.1047 -0.4310  0.7737
  158MOL0     C21227  -1.494   0.132   8.060  0.0228  0.2445 -0.1682
  158MOL0     C21228  -1.532   0.209   8.170  0.7614  0.3202  0.2407
  158MOL0     C21229  -1.662   0.235   8.189 -0.5572  0.3291 -0.2928
  158MOL0     C21230  -1.760   0.180   8.106  0.1098  0.1544 -0.9553
  158MOL0     O21231  -1.888   0.212   8.138  0.3034  0.0255 -0.8073
  158MOL0     C21232  -1.992   0.170   8.051  0.8324  0.9646  0.5306
  158MOL0     C21233  -2.129   0.202   8.115  0.4324 -0.6366  0.0452
  158MOL0     C21234  -2.237   0.193   8.001 -0.6361  0.0061  0.0534
  158MOL0     C21235  -2.368   0.246   8.065 -0.0569 -0.3595 -0.7722
  158MOL0     C21236  -2.494   0.208   7.984 -0.5307 -0.9667  0.6603
  158MOL0     C21237  -2.620   0.239   8.072 -0.6329 -0.3374 -1.0304
  158MOL0     C21238  -2.700   0.106   8.065 -0.6999  0.2750 -0.1918
  158MOL0     C21239  -2.835   0.128   8.142  0.4581 -0.6711  0.1628
  158MOL0    Cl21240  -2.967   0.040   8.052  0.0184  0.0584 -0.2581
  158MOL0     C21241  -1.721   0.096   7.999  0.3779  0.7958 -0.2855
  158MOL0     C21242  -1.590   0.076   7.979  0.3673  0.7994  0.0674
  158MOL0     O21243  -1.379   0.255   7.836 -0.6868 -0.1896 -0.0485
  158MOL0     C21244  -1.113   0.031   7.949 -0.0983 -0.8829  0.4421
  158MOL0     C21245  -0.982  -0.013   7.923  0.4391 -0.3599  0.5349
  158MOL0     N21246  -0.316  -0.421   7.921 -0.1386  0.4320  0.1885
  158MOL0     N21247  -0.225  -0.375   7.993  0.9904  0.7934 -0.2065
  158MOL0     C21248   1.005  -0.009   7.937  0.0367 -0.2626  0.5236
  158MOL0     C21249   1.138   0.035   7.914 -0.0267 -0.0746 -0.1343
  158MOL0     C21250   1.544   0.166   7.854  0.4901 -0.0482 -0.5481
  158MOL0     C21251   1.646   0.093   7.808  0.0391  0.0788  0.1047
  158MOL0     C21252   1.773   0.123   7.858  0.2043  0.9748  1.3116
  158MOL0     C21253   1.805   0.234   7.932 -0.9446 -0.3994 -0.2872
  158MOL0     O21254   1.939   0.270   7.955  0.0738  0.1155 -0.4670
  158MOL0     C21255   2.057   0.181   7.951 -0.6265  0.0132 -1.1191
  158MOL0     C21256   2.065   0.094   8.073 -0.7607 -0.4849 -0.0129
  158MOL0     C21257   2.103   0.173   8.199 -0.2539 -0.5664 -0.8940
  158MOL0     C21258   2.248   0.221   8.214 -0.1416 -0.2534  0.7769
  158MOL0     C21259   2.337   0.104   8.231  0.4511  0.8381  0.9106
  158MOL0     C21260   2.426   0.020   8.252  0.1037 -0.0471  0.3830
  158MOL0     C21261   1.700   0.322   7.965  0.5150 -0.3842  0.5601
  158MOL0     C21262   1.563   0.272   7.939 -0.6870  0.2118  0.0406
  158MOL0     H21263   1.084   0.362   7.871  4.1429 -0.5554  1.3997
  158MOL0     H21264   0.835   0.279   7.923  1.1099  1.2679 -1.0481
  158MOL0     H21265   0.780  -0.141   8.088  3.1402 -0.7757 -1.6275
  158MOL0     H21266   0.851  -0.002   8.172  1.9528 -0.7308 -2.6056
  158MOL0     H21267   0.623  -0.023   8.268 -0.4789  1.8452  0.2170
  158MOL0     H21268   0.627   0.112   8.159 -1.4477 -0.2964  0.9272
  158MOL0     H21269   0.528  -0.043   7.973  0.4771  0.6170  0.2043
  158MOL0     H21270   0.524  -0.172   8.082 -1.3638  0.2331  1.5177
  158MOL0     H21271   0.363  -0.085   8.229  2.3494 -1.6120  0.1116
  158MOL0     H21272   0.358   0.069   8.122  2.1211  0.8232 -0.7361
  158MOL0     H21273   0.286  -0.073   7.928  2.2947 -2.4348 -1.2023
  158MOL0     H21274   0.295  -0.214   8.036 -0.8831  0.0370 -0.4506
  158MOL0     H21275   0.109  -0.104   8.165 -0.0570 -0.7221 -0.5285
  158MOL0     H21276   0.109   0.023   8.047  2.6089 -0.0737 -1.8830
  158MOL0     H21277   0.025  -0.117   7.863  3.3731 -1.3363 -0.8098
  158MOL0     H21278   0.074  -0.256   7.955  0.4179  0.0123 -0.2035
  158MOL0     H21279  -0.149  -0.072   8.049  0.7050  0.7358  0.3367
  158MOL0     H21280  -0.081  -0.214   8.126  0.7106 -0.3788 -0.5383
  158MOL0     H21281  -0.264  -0.116   7.803  1.4915  1.2481  2.2491
  158MOL0     H21282  -0.398  -0.367   7.637 -0.8973 -3.1912  0.4809
  158MOL0     H21283  -0.520  -0.412   7.753  1.0331 -1.8445 -1.8472
  158MOL0     H21284  -0.446  -0.137   7.662  2.7471 -0.7033  2.5402
  158MOL0     H21285  -0.535  -0.156   7.813  2.5562  4.4193 -1.5019
  158MOL0     H21286  -0.727  -0.270   7.674 -1.5123  0.8567  0.1188
  158MOL0     H21287  -0.637  -0.217   7.530 -1.5673  0.8294 -0.6201
  158MOL0     H21288  -0.824  -0.066   7.577 -0.2743 -1.9313  0.0620
  158MOL0     H21289  -0.671   0.011   7.627  1.5514 -0.9498  0.5775
  158MOL0     H21290  -0.945   0.122   7.622 -1.6608 -0.0082 -0.0681
  158MOL0     H21291  -1.182   0.352   7.695  1.5105  0.6853 -1.3495
  158MOL0     H21292  -1.096   0.267   7.562  0.5243 -0.2696  0.0335
  158MOL0     H21293  -1.255   0.214   7.598 -1.4701 -0.1948  1.9398
  158MOL0     H21294  -1.452   0.251   8.231  3.1884 -4.3249  0.7242
  158MOL0     H21295  -1.688   0.308   8.265 -0.1613  1.9204 -1.6268
  158MOL0     H21296  -1.980   0.216   7.952  1.2774  0.0775  0.1560
  158MOL0     H21297  -1.988   0.061   8.036 -2.7418  0.1529  3.8606
  158MOL0     H21298  -2.140   0.132   8.199  0.0914  1.3491  1.7253
  158MOL0     H21299  -2.143   0.302   8.156  1.0236 -0.8164  0.7139
  158MOL0     H21300  -2.247   0.086   7.981  0.9469  0.2034 -2.1051
  158MOL0     H21301  -2.210   0.251   7.912 -0.6812  0.9275  0.6260
  158MOL0     H21302  -2.365   0.214   8.169  3.9370  0.6966 -0.4018
  158MOL0     H21303  -2.365   0.356   8.064 -4.6952  0.0799  1.7420
  158MOL0     H21304  -2.482   0.103   7.957  0.3334 -0.7231  0.0377
  158MOL0     H21305  -2.510   0.263   7.891 -0.6466 -0.8933  0.7229
  158MOL0     H21306  -2.581   0.257   8.173  0.2374  0.8095 -1.5449
  158MOL0     H21307  -2.669   0.331   8.039  0.8082  1.1125  0.6181
  158MOL0     H21308  -2.641   0.026   8.111  2.0106  2.0171 -0.4012
  158MOL0     H21309  -2.710   0.080   7.960  2.6288 -0.0938 -0.5339
  158MOL0     H21310  -2.855   0.235   8.156  2.5338 -0.2377  0.1296
  158MOL0     H21311  -2.829   0.089   8.244  1.2114 -1.7219 -0.2607
  158MOL0     H21312  -1.791   0.059   7.926 -0.1066  1.0346  0.0489
  158MOL0     H21313  -1.569   0.024   7.886  0.7247  3.3610 -1.3903
  158MOL0     H21314  -1.153   0.008   8.048  0.6893 -1.5895  0.6112
  158MOL0     H21315  -0.936  -0.069   8.004  2.0815  0.5942  0.3148
  158MOL0     H21316   0.980  -0.114   7.950 -0.4275  0.1378  3.6992
  158MOL0     H21317   1.217  -0.037   7.894  2.3884  2.2648  0.4614
  158MOL0     H21318   1.642   0.019   7.728  0.5956 -0.0329  0.1722
  158MOL0     H21319   1.849   0.048   7.838 -0.2899 -0.1539  3.3197
  158MOL0     H21320   2.056   0.124   7.857 -0.7796  2.4953 -2.7233
  158MOL0     H21321   2.149   0.239   7.942  1.3584 -2.7217 -0.0197
  158MOL0     H21322   2.130   0.007   8.062  0.6279  0.7362 -2.4804
  158MOL0     H21323   1.962   0.058   8.083 -0.4765 -1.0498  0.9784
  158MOL0     H21324   2.082   0.107   8.284  0.6955  1.1909  0.7627
  158MOL0     H21325   2.033   0.255   8.215  0.8310  0.0537  1.0275
  158MOL0     H21326   2.254   0.272   8.311 -1.1008 -1.8640  1.7434
  158MOL0     H21327   2.284   0.273   8.126 -0.7807  0.1746  0.7595
  158MOL0     H21328   2.506  -0.051   8.244  1.0769  0.6322  3.0923
  158MOL0     H21329   1.718   0.417   8.014 -1.5431  1.3667 -1.7680
  158MOL0     H21330   1.485   0.332   7.985  0.8375  1.8972  0.5166
  159MOL0     O21331   8.470   3.845   7.309 -0.6380 -0.7898  0.2449
  159MOL0     C21332   8.515   3.738   7.275  0.1764  0.1815 -0.3150
  159MOL0     O21333   8.451   3.635   7.202  0.1302  0.3458 -0.3175
  159MOL0     C21334   8.324   3.640   7.150 -0.3870 -0.1013  0.0620
  159MOL0     C21335   8.297   3.541   7.057 -0.1073  0.8030 -0.4734
  159MOL0     C21336   8.167   3.527   7.009 -0.3285 -0.1228 -0.5120
  159MOL0     C21337   8.074   3.624   7.036 -0.5387 -0.3351 -0.2858
  159MOL0     O21338   7.952   3.617   6.978  0.8593  0.2354  0.4953
  159MOL0     C21339   7.892   3.499   6.930  0.4610  0.0867  0.0509
  159MOL0     C21340   7.747   3.531   6.874 -0.5128 -0.2796 -0.8627
  159MOL0     C21341   7.652   3.581   6.985  0.4412 -0.1846  0.2284
  159MOL0     C21342   7.528   3.648   6.917  0.0124 -0.7636 -0.0669
  159MOL0     C21343   7.432   3.702   7.013 -0.5472  0.0921 -0.5322
  159MOL0     C21344   7.328   3.793   6.960  0.9333 -1.3310  0.3001
  159MOL0     C21345   7.194   3.719   6.939  0.0370 -1.0467  0.5595
  159MOL0     C21346   7.086   3.810   6.881 -0.6683  0.7651  0.3834
  159MOL0     N21347   6.957   3.771   6.928  0.2112  0.2690  0.4211
  159MOL0     C21348   6.906   3.640   6.929 -0.0294  0.2354  0.1400
  159MOL0     C21349   6.791   3.652   6.999  0.1939  0.4766  0.2560
  159MOL0     C21350   6.688   3.529   7.014  0.1215 -0.3074 -0.4276
  159MOL0     C21351   6.750   3.406   7.084 -0.6903 -0.4533  1.1299
  159MOL0     C21352   6.801   3.438   7.219 -0.0035  0.1372  0.5490
  159MOL0     C21353   6.681   3.415   7.315  0.1107  0.0481 -0.2870
  159MOL0     O21354   6.574   3.507   7.291 -0.6484  0.9969 -0.0891
  159MOL0     C21355   6.447   3.470   7.335 -1.0098 -0.3815 -0.2835
  159MOL0     C21356   6.350   3.562   7.299 -0.3616 -0.1819 -0.4992
  159MOL0     C21357   6.217   3.530   7.326 -0.2541 -0.7817  0.5953
  159MOL0     C21358   6.122   3.635   7.272  0.3228 -0.2202 -0.0931
  159MOL0     C21359   6.184   3.410   7.395  0.7660 -0.7101 -0.1184
  159MOL0     C21360   6.045   3.373   7.430  0.5458  0.3409  0.2872
  159MOL0     O21361   6.030   3.255   7.488 -0.1133 -0.3053  0.2696
  159MOL0     C21362   5.903   3.211   7.499  0.8372  0.1221  0.4059
  159MOL0     C21363   5.839   3.198   7.620 -0.0116  0.1198 -0.6768
  159MOL0     C21364   5.697   3.174   7.619  0.5971 -0.3272 -0.1496
  159MOL0     C21365   5.628   3.164   7.503  0.3152 -0.3013 -0.0266
  159MOL0     O21366   5.496   3.172   7.520  0.8538 -0.2360  0.5024
  159MOL0     C21367   5.411   3.091   7.433 -0.2208 -0.0148 -0.5664
  159MOL0     C21368   5.270   3.063   7.485 -0.9828 -0.2811  0.6178
  159MOL0     C21369   5.252   2.953   7.589 -0.3218  0.5724  0.6431
  159MOL0     C21370   5.113   2.967   7.645 -0.0542  0.4482 -0.4457
  159MOL0     C21371   4.993   2.921   7.554 -0.6189 -0.4315 -0.4388
  159MOL0     C21372   4.851   2.938   7.618  0.2883 -0.2103 -0.4649
  159MOL0     C21373   4.836   2.895   7.765  0.4619  0.1081  0.4337
  159MOL0     C21374   4.698   2.930   7.824  0.0485  0.3555 -0.0742
  159MOL0    Cl21375   4.696   2.892   7.996  0.2706 -0.0985 -0.0154
  159MOL0     C21376   5.689   3.160   7.383 -0.4308  0.3428  0.2685
  159MOL0     C21377   5.830   3.180   7.381 -0.4545 -0.3569  0.2919
  159MOL0     O21378   5.953   3.453   7.404  0.4262  0.0730 -0.3382
  159MOL0     C21379   6.287   3.320   7.431 -0.6192 -0.4537 -0.3343
  159MOL0     C21380   6.419   3.353   7.400 -0.3672  0.2113  0.1883
  159MOL0     N21381   6.774   3.783   7.037 -0.2884 -0.3038 -0.8947
  159MOL0     N21382   6.878   3.849   7.003  0.4010  0.4719  0.6273
  159MOL0     C21383   8.102   3.719   7.128 -0.5455 -1.0142  0.2188
  159MOL0     C21384   8.223   3.726   7.194 -0.7262 -0.1926  1.1995
  159MOL0     C21385   8.654   3.711   7.318 -0.5767  0.4952 -0.1373
  159MOL0     C21386   8.725   3.802   7.394 -0.1699 -0.3000  0.5043
  159MOL0     C21387   8.853   3.771   7.452  0.0850  0.4473 -0.3092
  159MOL0     C21388   8.910   3.644   7.436 -0.7438 -0.6659  0.0621
  159MOL0     O21389   9.028   3.600   7.491 -0.1590  0.2062 -0.7283
  159MOL0     C21390   9.112   3.694   7.570 -0.0450 -0.2039  0.7632
  159MOL0     C21391   9.246   3.619   7.619  0.4985  0.0333  0.6354
  159MOL0     C21392   9.312   3.556   7.500 -0.3323 -0.3287 -0.5823
  159MOL0     C21393   9.465   3.591   7.503 -0.1010  0.2538 -0.1154
  159MOL0     C21394   9.488   3.720   7.432 -0.2983 -0.5760 -0.7584
  159MOL0     C21395   9.518   3.829   7.387  0.0489  0.0124 -0.0889
  159MOL0     C21396   8.845   3.556   7.358  0.1878 -0.0637  0.3684
  159MOL0     C21397   8.721   3.586   7.296  0.4791  0.5707 -0.1133
  159MOL0     H21398   8.372   3.468   7.030 -0.7283 -0.3690  0.8675
  159MOL0     H21399   8.155   3.446   6.937  2.8133 -0.2234 -1.0828
  159MOL0     H21400   7.953   3.451   6.852 -0.5610 -1.8710  0.3801
  159MOL0     H21401   7.869   3.422   7.005  1.3801 -0.3995 -0.1582
  159MOL0     H21402   7.757   3.606   6.795  2.6950 -1.6851 -1.9791
  159MOL0     H21403   7.719   3.428   6.849  1.8695 -2.8523  5.0888
  159MOL0     H21404   7.635   3.495   7.050  2.7859 -1.9373 -1.3027
  159MOL0     H21405   7.706   3.657   7.042  1.4929 -0.3574 -0.5100
  159MOL0     H21406   7.575   3.734   6.868 -1.9313  1.7195  2.1047
  159MOL0     H21407   7.490   3.585   6.836 -1.1398 -2.6063  1.8002
  159MOL0     H21408   7.387   3.617   7.065 -1.5647  1.8401  1.6298
  159MOL0     H21409   7.483   3.758   7.092  0.1007 -1.7946  0.4553
  159MOL0     H21410   7.311   3.886   7.016  3.1019  0.5423 -1.9232
  159MOL0     H21411   7.361   3.833   6.864 -2.6741  1.1092 -0.1363
  159MOL0     H21412   7.215   3.638   6.869  1.9382 -2.0226  2.1755
  159MOL0     H21413   7.154   3.668   7.027 -0.7466 -2.7868 -0.7569
  159MOL0     H21414   7.089   3.795   6.773  0.2799 -1.1737  0.6381
  159MOL0     H21415   7.105   3.915   6.906 -1.3872  0.4587  2.3985
  159MOL0     H21416   6.943   3.554   6.873  0.6092  1.5845 -1.6092
  159MOL0     H21417   6.609   3.567   7.080  0.4676  0.2223 -0.3120
  159MOL0     H21418   6.639   3.514   6.917  2.9654  2.0246 -2.4189
  159MOL0     H21419   6.828   3.366   7.017  0.6395  0.7144  1.9275
  159MOL0     H21420   6.675   3.327   7.091 -3.0203  1.2054 -2.2332
  159MOL0     H21421   6.835   3.542   7.225 -3.7179  1.4277  2.6425
  159MOL0     H21422   6.878   3.364   7.241  0.6297  0.3315 -0.9010
  159MOL0     H21423   6.715   3.429   7.418 -0.8329  0.3572 -0.0091
  159MOL0     H21424   6.655   3.309   7.302  1.2563 -0.0414 -2.3678
  159MOL0     H21425   6.375   3.648   7.237 -1.1854  1.1879  1.0032
  159MOL0     H21426   6.170   3.683   7.186 -0.8467 -1.3474 -1.4199
  159MOL0     H21427   6.039   3.580   7.226 -0.4732 -0.2168  1.3104
  159MOL0     H21428   6.101   3.715   7.342 -0.2582  0.8571 -1.4505
  159MOL0     H21429   5.894   3.220   7.711  0.5629 -3.4209 -0.0368
  159MOL0     H21430   5.641   3.167   7.712  1.4556  1.6421  0.5676
  159MOL0     H21431   5.401   3.148   7.340  0.7264  1.1514  0.0254
  159MOL0     H21432   5.465   2.998   7.414 -0.8741 -0.5654  0.1842
  159MOL0     H21433   5.239   3.163   7.516  2.2054  1.2589 -0.7868
  159MOL0     H21434   5.203   3.039   7.401 -0.5520  0.4774  0.0469
  159MOL0     H21435   5.316   2.965   7.677  0.6994 -0.5242  0.0706
  159MOL0     H21436   5.278   2.858   7.541  1.7082  1.4640 -0.1345
  159MOL0     H21437   5.100   2.901   7.732 -2.5358  0.7705 -0.4939
  159MOL0     H21438   5.104   3.065   7.692  2.8939  1.5215 -1.9133
  159MOL0     H21439   5.008   2.813   7.546  1.6374 -0.2989  1.1977
  159MOL0     H21440   4.997   2.968   7.455 -0.3624 -0.0212 -0.2390
  159MOL0     H21441   4.815   3.041   7.615 -2.4293 -1.0336  0.5817
  159MOL0     H21442   4.775   2.890   7.557 -1.4368 -1.1285  2.2153
  159MOL0     H21443   4.912   2.932   7.834  1.3428 -0.4053 -0.2534
  159MOL0     H21444   4.850   2.787   7.752  2.9314  0.3955  0.3024
  159MOL0     H21445   4.619   2.882   7.765 -2.0983  0.9187  2.1708
  159MOL0     H21446   4.681   3.038   7.821 -0.7932  0.2429  0.2085
  159MOL0     H21447   5.634   3.150   7.290 -0.9648  0.3787  0.5788
  159MOL0     H21448   5.885   3.186   7.287  1.7841  1.3257  1.6003
  159MOL0     H21449   6.267   3.227   7.484 -2.4780  0.0998  0.0294
  159MOL0     H21450   6.501   3.286   7.426  0.9338  1.1235 -1.4179
  159MOL0     H21451   8.023   3.780   7.171  0.1750  0.6066 -0.6695
  159MOL0     H21452   8.242   3.804   7.267  1.2420  2.3541 -1.7466
  159MOL0     H21453   8.678   3.893   7.430 -0.4158 -0.1696 -0.1402
  159MOL0     H21454   8.895   3.839   7.525 -3.1209  1.7840  0.4778
  159MOL0     H21455   9.146   3.778   7.508  3.9002 -0.1253  2.6756
  159MOL0     H21456   9.073   3.728   7.667  1.8384  0.4347  1.3393
  159MOL0     H21457   9.220   3.543   7.693  0.1192 -1.5622 -1.0648
  159MOL0     H21458   9.303   3.704   7.658  1.1152 -0.3390  0.5484
  159MOL0     H21459   9.260   3.588   7.410 -0.7263 -3.1099 -1.4431
  159MOL0     H21460   9.315   3.447   7.508 -0.2609 -0.2412  0.8300
  159MOL0     H21461   9.524   3.512   7.456 -0.1742 -0.7064  1.3272
  159MOL0     H21462   9.505   3.604   7.604 -0.9638  2.9026 -0.0539
  159MOL0     H21463   9.540   3.925   7.346  2.4157 -0.5777 -0.3814
  159MOL0     H21464   8.888   3.457   7.347  4.9136  1.4365  2.7638
  159MOL0     H21465   8.677   3.505   7.241  1.3253 -0.6782  0.9731
  160MOL0     O21466   5.060   5.971   8.981 -0.2140 -0.5428 -0.5183
  160MOL0     C21467   5.077   5.871   9.058 -0.2488 -0.2494  0.0993
  160MOL0     O21468   4.983   5.832   9.154  0.5535  0.2220 -0.1013
  160MOL0     C21469   4.856   5.891   9.148  0.1306  0.1177 -0.1509
  160MOL0     C21470   4.791   5.917   9.271 -0.0809 -0.1686  0.1584
  160MOL0     C21471   4.654   5.945   9.273 -0.5445 -0.5348 -1.0613
  160MOL0     C21472   4.587   5.960   9.150 -0.4537 -0.6239 -0.5905
  160MOL0     O21473   4.454   6.000   9.151 -0.5067 -0.1970  0.4600
  160MOL0     C21474   4.402   6.079   9.045  0.5650 -0.8821  0.0950
  160MOL0     C21475   4.259   6.124   9.070 -0.3722 -0.2151 -0.4316
  160MOL0     C21476   4.164   6.007   9.085 -0.7236 -0.1979 -0.0400
  160MOL0     C21477   4.030   6.062   9.143  0.0556  0.5512 -0.3024
  160MOL0     C21478   3.928   5.945   9.152  0.3220 -0.1600  0.3826
  160MOL0     C21479   3.790   6.005   9.172  0.2837  1.1395 -0.6426
  160MOL0     C21480   3.779   6.071   9.311 -0.3392  0.3435 -0.2523
  160MOL0     C21481   3.632   6.111   9.340  0.2019 -0.4340  1.5555
  160MOL0     N21482   3.630   6.207   9.447  0.0588 -0.1635  0.2671
  160MOL0     C21483   3.619   6.174   9.579  0.6692  0.8098  0.4400
  160MOL0     C21484   3.613   6.285   9.650  0.1569  0.5974  0.0408
  160MOL0     C21485   3.604   6.308   9.798 -0.1125  0.0860 -0.0596
  160MOL0     C21486   3.453   6.297   9.846 -0.2704  0.0590 -1.0008
  160MOL0     C21487   3.376   6.420   9.792 -0.6661  0.1135 -0.3213
  160MOL0     C21488   3.246   6.437   9.870 -0.1686  0.3201  0.2432
  160MOL0     O21489   3.146   6.334   9.847 -0.2952 -0.0154  0.1244
  160MOL0     C21490   3.016   6.369   9.870 -0.2160 -0.2159 -1.2565
  160MOL0     C21491   2.913   6.303   9.809 -0.2604  0.0577 -0.3556
  160MOL0     C21492   2.773   6.326   9.834 -0.5410  1.1485  0.0669
  160MOL0     C21493   2.671   6.267   9.744 -0.8304  0.8544 -0.1689
  160MOL0     C21494   2.737   6.422   9.929  0.4182  0.0423  0.0423
  160MOL0     C21495   2.611   6.464   9.982  0.2225  1.0638  0.1399
  160MOL0     O21496   2.603   6.572  10.070  0.1088 -0.3233  0.4203
  160MOL0     C21497   2.508   6.566  10.166  0.0398 -0.4101  0.3071
  160MOL0     C21498   2.390   6.637  10.157 -0.4560 -0.0949  0.0377
  160MOL0     C21499   2.302   6.644  10.265 -0.5173 -0.1735  0.7362
  160MOL0     C21500   2.330   6.564  10.381 -0.3071  0.4555  0.0507
  160MOL0     O21501   2.235   6.580  10.481  0.9725  0.5982 -0.0843
  160MOL0     C21502   2.212   6.484  10.586  0.1346  0.4172 -0.9053
  160MOL0     C21503   2.067   6.499  10.637 -0.5652  1.2253  0.7989
  160MOL0     C21504   2.044   6.641  10.689 -0.4819  0.3825  0.4151
  160MOL0     C21505   1.900   6.662  10.731 -0.3816 -0.9399 -0.3175
  160MOL0     C21506   1.842   6.811  10.712 -0.2052  0.0369  0.1366
  160MOL0     C21507   1.702   6.831  10.763 -0.2908 -0.4053 -0.2801
  160MOL0     C21508   1.603   6.732  10.704  0.3096  0.2227 -0.0176
  160MOL0     C21509   1.463   6.768  10.747  0.2718 -0.3700  0.5846
  160MOL0    Cl21510   1.439   6.940  10.712  0.1132 -0.2807 -0.0502
  160MOL0     C21511   2.452   6.482  10.394  0.7122  0.0921  0.0862
  160MOL0     C21512   2.536   6.495  10.284 -0.6741  0.0810  0.2978
  160MOL0     O21513   2.515   6.384   9.968 -0.0839 -0.3106 -0.0349
  160MOL0     C21514   2.846   6.494   9.991 -0.7097 -0.0299 -0.3068
  160MOL0     C21515   2.977   6.465   9.961 -0.2195  0.2418 -1.0332
  160MOL0     N21516   3.606   6.389   9.558 -0.3343 -0.2328  0.7789
  160MOL0     N21517   3.617   6.341   9.433 -0.3340  0.1009  0.7166
  160MOL0     C21518   4.654   5.941   9.028 -0.2142 -0.3976 -1.0157
  160MOL0     C21519   4.786   5.899   9.029 -0.0726  0.2472 -0.6320
  160MOL0     C21520   5.194   5.776   9.046 -0.0090 -0.2389 -0.2238
  160MOL0     C21521   5.216   5.683   9.148  0.7524  0.5516  0.0454
  160MOL0     C21522   5.328   5.598   9.140 -0.6289  0.0519 -0.7330
  160MOL0     C21523   5.423   5.610   9.034  0.5511  0.2166  0.4377
  160MOL0     O21524   5.548   5.540   9.023  0.1424 -0.4434 -0.0665
  160MOL0     C21525   5.619   5.511   9.145 -0.0723  0.5667  0.9088
  160MOL0     C21526   5.662   5.364   9.145  0.0535  0.3439  0.1418
  160MOL0     C21527   5.750   5.352   9.270 -0.2255  0.5825  0.5190
  160MOL0     C21528   5.804   5.210   9.292  0.1944  0.9168  0.1839
  160MOL0     C21529   5.686   5.132   9.355 -0.2401 -0.2899  0.4214
  160MOL0     C21530   5.604   5.066   9.403  0.1067 -0.0517  0.1730
  160MOL0     C21531   5.393   5.693   8.924 -0.7047  0.2525 -0.8328
  160MOL0     C21532   5.282   5.774   8.934  0.5530 -0.2744  0.3113
  160MOL0     H21533   4.856   5.921   9.358  1.4754  4.5347 -0.9006
  160MOL0     H21534   4.612   5.961   9.372  0.8523  2.9472 -0.8889
  160MOL0     H21535   4.457   6.174   9.049 -0.8962  0.0295 -0.4395
  160MOL0     H21536   4.423   6.042   8.945  0.0943  0.2211 -0.4266
  160MOL0     H21537   4.256   6.182   9.162 -0.2640 -0.5919 -0.1857
  160MOL0     H21538   4.226   6.192   8.991 -2.1977  1.3824  1.6131
  160MOL0     H21539   4.155   5.968   8.983  0.4992 -0.5230 -0.0352
  160MOL0     H21540   4.195   5.935   9.161  0.4862  2.1459  1.8479
  160MOL0     H21541   4.046   6.107   9.242  0.3335  4.8449 -2.1035
  160MOL0     H21542   3.989   6.131   9.069  0.7379 -0.5218 -1.7202
  160MOL0     H21543   3.922   5.887   9.059 -1.4992  0.7967 -0.1535
  160MOL0     H21544   3.951   5.872   9.230 -2.6366  0.0213  1.5486
  160MOL0     H21545   3.770   6.080   9.095 -1.0162  2.1174  0.6021
  160MOL0     H21546   3.712   5.929   9.168  0.0561  1.2625  0.7927
  160MOL0     H21547   3.808   6.005   9.393  1.2754 -0.0791 -1.1201
  160MOL0     H21548   3.840   6.161   9.319 -1.3120  0.9448  0.6397
  160MOL0     H21549   3.568   6.028   9.372 -0.0983 -0.2494  1.4352
  160MOL0     H21550   3.579   6.149   9.252 -0.1362  0.8554  2.2976
  160MOL0     H21551   3.610   6.075   9.623  2.0818  0.4019 -0.1201
  160MOL0     H21552   3.661   6.228   9.847 -0.8749 -1.4210 -1.5103
  160MOL0     H21553   3.640   6.411   9.807  2.2980 -0.6847 -0.0853
  160MOL0     H21554   3.459   6.297   9.955  1.7743 -1.2174 -1.0468
  160MOL0     H21555   3.406   6.201   9.820 -0.0424  0.1264 -1.6793
  160MOL0     H21556   3.357   6.411   9.684 -0.6337 -0.7890 -0.2551
  160MOL0     H21557   3.439   6.510   9.799 -1.6623  0.8992 -1.1471
  160MOL0     H21558   3.200   6.529   9.833 -1.0931 -0.8835 -1.7736
  160MOL0     H21559   3.271   6.434   9.976  1.9351 -1.5754 -0.2304
  160MOL0     H21560   2.933   6.225   9.736  2.6353 -0.5833  0.9562
  160MOL0     H21561   2.582   6.330   9.734 -0.5171  1.0304 -2.3226
  160MOL0     H21562   2.716   6.253   9.645 -2.1090  1.6148 -0.8883
  160MOL0     H21563   2.649   6.170   9.790  0.3955  0.2530 -0.7777
  160MOL0     H21564   2.367   6.705  10.075 -1.3145  0.5114  0.7621
  160MOL0     H21565   2.209   6.701  10.260 -0.0370  0.5469 -0.4302
  160MOL0     H21566   2.228   6.380  10.556 -1.3937  0.7996 -3.2638
  160MOL0     H21567   2.272   6.510  10.675 -1.5872 -3.0124  1.4838
  160MOL0     H21568   2.011   6.482  10.544  2.9924  1.7684 -1.6774
  160MOL0     H21569   2.040   6.430  10.717  0.1107  1.5656  1.3382
  160MOL0     H21570   2.063   6.704  10.602 -1.3824 -0.4158 -0.3870
  160MOL0     H21571   2.117   6.655  10.769  2.1118  1.3466 -1.9667
  160MOL0     H21572   1.851   6.592  10.662 -0.0856  0.6179 -2.2031
  160MOL0     H21573   1.885   6.636  10.836  0.9141  1.1843  0.4508
  160MOL0     H21574   1.843   6.835  10.606 -0.0265 -3.3746 -0.7605
  160MOL0     H21575   1.909   6.878  10.767 -2.1460 -1.2465  4.5806
  160MOL0     H21576   1.705   6.807  10.870  2.5079 -2.8576 -0.7602
  160MOL0     H21577   1.676   6.936  10.747  2.1221  0.2314 -0.4944
  160MOL0     H21578   1.607   6.629  10.741 -4.7049 -0.6604 -1.1676
  160MOL0     H21579   1.599   6.748  10.596  0.3089  2.0702  0.2189
  160MOL0     H21580   1.435   6.739  10.849 -1.5310 -2.2326 -0.3720
  160MOL0     H21581   1.391   6.718  10.683  1.5824  1.4438 -2.5415
  160MOL0     H21582   2.493   6.419  10.472  2.7966  1.7458  0.4277
  160MOL0     H21583   2.638   6.459  10.296 -1.0748 -0.5225  2.2145
  160MOL0     H21584   2.833   6.557  10.078 -2.2735  2.4903 -2.2074
  160MOL0     H21585   3.045   6.526  10.019 -1.0429  0.7259 -0.5759
  160MOL0     H21586   4.607   5.942   8.930 -0.5403 -0.0836 -0.8609
  160MOL0     H21587   4.823   5.864   8.933  0.6028 -1.1215  0.1048
  160MOL0     H21588   5.148   5.692   9.233  1.8080  1.1557  0.8564
  160MOL0     H21589   5.338   5.532   9.225  2.6824  1.5049  0.1653
  160MOL0     H21590   5.704   5.579   9.151 -2.0571  3.7698 -2.4394
  160MOL0     H21591   5.564   5.539   9.235 -1.1495  0.9215  0.1640
  160MOL0     H21592   5.711   5.337   9.051 -1.0307 -0.5245 -0.1844
  160MOL0     H21593   5.571   5.303   9.146  0.1693  0.1634  1.0559
  160MOL0     H21594   5.687   5.381   9.354 -2.3332  0.0222 -0.7808
  160MOL0     H21595   5.836   5.419   9.268 -1.1492  1.7953 -0.0085
  160MOL0     H21596   5.887   5.211   9.363 -0.3007  2.2959  0.7668
  160MOL0     H21597   5.845   5.161   9.203  0.0748 -0.8692  1.0510
  160MOL0     H21598   5.527   5.008   9.448  0.7409 -0.4524  0.7711
  160MOL0     H21599   5.463   5.701   8.841  1.1769  0.9185  0.7503
  160MOL0     H21600   5.263   5.844   8.853 -0.1952  0.2671  0.9357
  161MOL0     O21601   6.125   1.152  11.089 -0.3680 -0.0129 -1.0935
  161MOL0     C21602   6.148   1.036  11.125  0.1805 -0.2050 -0.8557
  161MOL0     O21603   6.050   0.942  11.167 -0.8870 -1.0077  0.1058
  161MOL0     C21604   5.924   0.984  11.200 -0.2362  0.7088 -0.5451
  161MOL0     C21605   5.902   1.070  11.304  0.4061 -0.0084 -0.7332
  161MOL0     C21606   5.770   1.100  11.351  0.1168 -0.3646 -0.3330
  161MOL0     C21607   5.660   1.046  11.281  0.3283  0.5605  0.2773
  161MOL0     O21608   5.535   1.062  11.343  0.3996 -0.8468 -0.4553
  161MOL0     C21609   5.484   1.194  11.319 -1.0883  0.0032 -0.4686
  161MOL0     C21610   5.340   1.204  11.384 -0.5835 -0.2836  0.9089
  161MOL0     C21611   5.253   1.073  11.371  0.1031 -0.1578 -0.1182
  161MOL0     C21612   5.238   1.020  11.230 -0.1686  0.7937 -0.4052
  161MOL0     C21613   5.140   0.898  11.231  0.4215  0.3339  0.5429
  161MOL0     C21614   5.177   0.794  11.342 -0.4965 -0.4132  0.5599
  161MOL0     C21615   5.123   0.654  11.300  0.4378  0.2521 -0.2797
  161MOL0     C21616   5.202   0.582  11.182  0.7949 -1.0041  0.9148
  161MOL0     N21617   5.342   0.557  11.191  0.0337 -0.8052 -0.7786
  161MOL0     C21618   5.446   0.651  11.214 -0.1447 -0.3650  0.3868
  161MOL0     C21619   5.547   0.578  11.272 -0.0178 -0.8426 -0.1263
  161MOL0     C21620   5.674   0.636  11.333 -0.4635  0.2218 -0.0909
  161MOL0     C21621   5.806   0.594  11.261 -0.4032 -0.5563 -0.3361
  161MOL0     C21622   5.839   0.448  11.307 -0.4814 -0.2855  0.5120
  161MOL0     C21623   5.920   0.384  11.187 -0.3123  0.0262  0.1841
  161MOL0     O21624   6.047   0.446  11.168 -0.0751 -0.2889 -0.5330
  161MOL0     C21625   6.145   0.395  11.086 -0.5024  0.3028  0.4588
  161MOL0     C21626   6.123   0.290  10.991  0.3822 -0.4534  0.1208
  161MOL0     C21627   6.223   0.236  10.907  0.7061  0.4725 -0.7996
  161MOL0     C21628   6.182   0.137  10.807  0.0200  0.4791 -0.0045
  161MOL0     C21629   6.349   0.299  10.897 -0.2852 -0.3800  0.7497
  161MOL0     C21630   6.451   0.286  10.800 -0.1220  0.5888  0.2621
  161MOL0     O21631   6.542   0.382  10.783 -0.2471 -0.8340 -0.2512
  161MOL0     C21632   6.618   0.390  10.672 -0.1646 -0.8180  0.2216
  161MOL0     C21633   6.577   0.413  10.541 -0.7118 -0.0392 -0.5700
  161MOL0     C21634   6.676   0.408  10.441 -0.2275  1.1281 -0.5073
  161MOL0     C21635   6.814   0.402  10.470 -0.0108 -0.1296  0.8710
  161MOL0     O21636   6.910   0.408  10.372  0.5718  0.1574 -0.0199
  161MOL0     C21637   6.887   0.474  10.252 -0.1036 -0.3337  0.3130
  161MOL0     C21638   6.865   0.385  10.135  0.6483  0.1992  0.5289
  161MOL0     C21639   6.988   0.296  10.114 -0.5496  0.7359  0.5790
  161MOL0     C21640   6.978   0.200   9.994 -0.0436  0.4588  0.0121
  161MOL0     C21641   7.104   0.124   9.959 -0.2175  0.7281 -0.7490
  161MOL0     C21642   7.223   0.214   9.940 -0.5128 -1.0425  0.3724
  161MOL0     C21643   7.338   0.131   9.885 -0.0180 -0.6057  0.9311
  161MOL0     C21644   7.474   0.204   9.901  0.0297  0.5906 -0.5086
  161MOL0    Cl21645   7.534   0.235  10.070  0.2137 -0.1984 -0.0906
  161MOL0     C21646   6.859   0.396  10.598 -0.6321 -1.1883  0.8325
  161MOL0     C21647   6.758   0.389  10.697 -0.3712 -0.3861 -0.3155
  161MOL0     O21648   6.456   0.177  10.739  0.0651  0.3459 -0.3175
  161MOL0     C21649   6.366   0.397  10.990  0.3592  0.1643  0.3652
  161MOL0     C21650   6.274   0.449  11.078  0.8148  0.0682  0.1521
  161MOL0     N21651   5.509   0.443  11.276  0.5258  0.8000  0.3519
  161MOL0     N21652   5.387   0.441  11.231 -0.0082 -0.1428  0.1215
  161MOL0     C21653   5.679   0.955  11.181 -0.1555 -0.0131  0.3287
  161MOL0     C21654   5.811   0.924  11.142 -0.0196  0.1761  0.5652
  161MOL0     C21655   6.287   0.988  11.106  0.3146  0.8425  0.7583
  161MOL0     C21656   6.320   0.845  11.136 -0.1818 -0.0361  0.4245
  161MOL0     C21657   6.459   0.799  11.133  1.6394 -0.1556 -0.5633
  161MOL0     C21658   6.559   0.899  11.110 -0.5221  0.9581 -0.6720
  161MOL0     O21659   6.687   0.839  11.101  0.4203  0.1428 -0.3071
  161MOL0     C21660   6.788   0.921  11.030  0.2482 -0.0555 -0.3943
  161MOL0     C21661   6.918   0.849  11.045 -0.0307  0.1794  0.3965
  161MOL0     C21662   7.045   0.917  10.985  0.6916 -0.0715 -0.3528
  161MOL0     C21663   7.159   0.813  10.988 -0.1899  1.1815 -0.6187
  161MOL0     C21664   7.288   0.864  10.943  0.6126 -0.5283 -0.1620
  161MOL0     C21665   7.402   0.910  10.937 -0.6379  0.0037  0.3094
  161MOL0     C21666   6.528   1.030  11.064 -0.2067  0.6525  0.8584
  161MOL0     C21667   6.393   1.078  11.078  0.1900  0.2661 -0.8479
  161MOL0     H21668   5.986   1.096  11.368 -1.8240 -1.0740  2.9154
  161MOL0     H21669   5.755   1.160  11.440  1.6544 -0.2701 -0.1003
  161MOL0     H21670   5.553   1.262  11.370  0.5892 -4.3508  3.7760
  161MOL0     H21671   5.469   1.213  11.212 -0.4570  0.0827 -0.5479
  161MOL0     H21672   5.363   1.218  11.490 -2.6826  1.9365  1.1710
  161MOL0     H21673   5.278   1.280  11.336 -0.9204 -1.4850 -0.6652
  161MOL0     H21674   5.300   1.003  11.442  1.0288  0.7307  0.1723
  161MOL0     H21675   5.154   1.099  11.407  0.0273  1.3516 -1.3088
  161MOL0     H21676   5.204   1.104  11.169  1.2629 -0.5885 -3.2676
  161MOL0     H21677   5.334   0.993  11.185  0.6993 -1.5563  2.5468
  161MOL0     H21678   5.038   0.925  11.258 -1.1461 -1.3081 -3.0129
  161MOL0     H21679   5.136   0.856  11.130 -2.5115 -1.2420  1.2335
  161MOL0     H21680   5.286   0.795  11.347 -0.3952 -3.4023  1.2301
  161MOL0     H21681   5.138   0.814  11.442 -1.0681 -1.1040  0.4812
  161MOL0     H21682   5.123   0.582  11.383  3.7111  1.4821  0.9680
  161MOL0     H21683   5.017   0.666  11.276  0.5504  1.7055 -0.1285
  161MOL0     H21684   5.184   0.644  11.093 -3.3814 -0.9384  1.5852
  161MOL0     H21685   5.157   0.483  11.179 -3.7063  0.8304 -0.3957
  161MOL0     H21686   5.444   0.758  11.199  1.0760 -0.3934 -0.0982
  161MOL0     H21687   5.663   0.745  11.346 -1.3533  0.0116  1.0969
  161MOL0     H21688   5.679   0.607  11.438  1.4881  0.5740 -0.0499
  161MOL0     H21689   5.882   0.661  11.301 -0.8034  0.5766 -1.4063
  161MOL0     H21690   5.807   0.612  11.153  2.4078 -0.0144 -0.2867
  161MOL0     H21691   5.740   0.401  11.307 -0.3069 -0.7420 -1.1601
  161MOL0     H21692   5.899   0.452  11.398 -3.2703 -1.5652  2.5719
  161MOL0     H21693   5.853   0.395  11.101 -0.6239  2.2624  0.6552
  161MOL0     H21694   5.939   0.278  11.208  1.4906  0.6573  2.0420
  161MOL0     H21695   6.023   0.256  10.965  0.2422  0.3504 -0.4222
  161MOL0     H21696   6.250   0.052  10.805 -0.7839 -0.2700  1.7953
  161MOL0     H21697   6.093   0.086  10.845 -0.0418  1.2505  0.9266
  161MOL0     H21698   6.168   0.178  10.707  0.2932  0.7132  0.0524
  161MOL0     H21699   6.470   0.421  10.523 -0.4248  2.2743 -1.5799
  161MOL0     H21700   6.657   0.401  10.335  0.3813  4.0062 -0.8718
  161MOL0     H21701   6.804   0.545  10.250  1.5237  1.6956  1.3023
  161MOL0     H21702   6.970   0.543  10.235 -0.3470  0.5214  2.2997
  161MOL0     H21703   6.785   0.316  10.164  0.3032 -0.9274 -2.6925
  161MOL0     H21704   6.839   0.434  10.041 -2.0974 -3.0844 -0.6268
  161MOL0     H21705   7.001   0.233  10.203 -1.7923  1.4538  1.2983
  161MOL0     H21706   7.075   0.362  10.109 -0.3849  0.5153  0.4836
  161MOL0     H21707   6.892   0.133   9.997  0.9245 -1.0178 -2.2735
  161MOL0     H21708   6.943   0.249   9.903 -3.7020 -0.7599  0.6278
  161MOL0     H21709   7.080   0.066   9.870  0.4758 -0.8708  0.0548
  161MOL0     H21710   7.127   0.057  10.043 -1.4615  0.2254 -0.7890
  161MOL0     H21711   7.186   0.284   9.864 -0.5565 -0.4222  0.9522
  161MOL0     H21712   7.261   0.270  10.026  2.2733 -2.1217 -0.0803
  161MOL0     H21713   7.336   0.099   9.781  1.4025 -5.6528  2.1527
  161MOL0     H21714   7.338   0.036   9.940  1.3718 -0.4634  1.2145
  161MOL0     H21715   7.464   0.304   9.857  0.8783  0.2438 -1.5482
  161MOL0     H21716   7.547   0.149   9.841  0.2268  0.5114 -0.2003
  161MOL0     H21717   6.966   0.393  10.616 -0.1839 -3.9565 -1.6188
  161MOL0     H21718   6.789   0.358  10.796  2.5786 -0.8440 -1.2837
  161MOL0     H21719   6.455   0.460  10.987  0.0864  0.5467  0.2017
  161MOL0     H21720   6.302   0.538  11.135 -1.1818  1.9237 -1.5902
  161MOL0     H21721   5.601   0.896  11.135  0.0028  0.8927 -1.1733
  161MOL0     H21722   5.825   0.842  11.073  0.2916  1.3316 -0.7872
  161MOL0     H21723   6.239   0.780  11.169 -1.4005  1.0495 -0.3021
  161MOL0     H21724   6.483   0.701  11.172 -1.5321 -0.8455 -0.0658
  161MOL0     H21725   6.746   0.939  10.930 -1.6887  3.4260  0.8604
  161MOL0     H21726   6.796   1.022  11.072  0.3371 -0.1407 -0.2035
  161MOL0     H21727   6.905   0.750  11.000  0.7383  0.3597 -0.2338
  161MOL0     H21728   6.924   0.850  11.154 -2.2210  3.9501  0.6583
  161MOL0     H21729   7.057   1.006  11.048 -1.5101  1.3098 -1.7510
  161MOL0     H21730   7.032   0.942  10.879  3.2384  1.0198 -0.4827
  161MOL0     H21731   7.128   0.721  10.938  0.0607  0.1662  1.0176
  161MOL0     H21732   7.185   0.792  11.092  1.4109  0.7529 -1.0659
  161MOL0     H21733   7.505   0.932  10.919 -0.3982  1.2739  2.8464
  161MOL0     H21734   6.607   1.087  11.018 -0.7287 -0.3043 -1.3549
  161MOL0     H21735   6.380   1.185  11.061  1.5435  0.7085  0.6780
  162MOL0     O21736   4.844   7.821   7.152 -0.1591  0.2880  0.8061
  162MOL0     C21737   4.776   7.835   7.049  0.0437  0.5651  0.3369
  162MOL0     O21738   4.818   7.820   6.917 -0.1955 -0.7664 -0.4145
  162MOL0     C21739   4.943   7.776   6.887  0.0990  0.4539 -0.0978
  162MOL0     C21740   4.957   7.638   6.868  0.4855  1.0864 -0.3934
  162MOL0     C21741   5.087   7.590   6.838 -0.6924  0.2425  0.0723
  162MOL0     C21742   5.202   7.673   6.807  0.6231  0.6403  0.1839
  162MOL0     O21743   5.319   7.624   6.754  0.2625  0.6273 -0.0579
  162MOL0     C21744   5.344   7.484   6.773  0.7753 -0.3255  0.7864
  162MOL0     C21745   5.480   7.452   6.724  0.2513 -0.4213  0.9741
  162MOL0     C21746   5.512   7.529   6.589 -0.3498  0.1381 -0.2305
  162MOL0     C21747   5.664   7.499   6.556 -0.6449 -0.2994  0.4674
  162MOL0     C21748   5.691   7.562   6.415  0.4828  1.0705  0.0738
  162MOL0     C21749   5.822   7.512   6.361  0.0450  0.6803 -0.5630
  162MOL0     C21750   5.841   7.558   6.217  0.7113  0.0287  0.3212
  162MOL0     C21751   5.985   7.546   6.169  1.0054 -0.4771 -1.2008
  162MOL0     N21752   6.023   7.408   6.178  0.1094 -0.2674 -0.1897
  162MOL0     C21753   5.994   7.310   6.088 -0.4051  0.2855 -0.2053
  162MOL0     C21754   6.041   7.196   6.145 -1.3903 -0.5905  0.1898
  162MOL0     C21755   6.018   7.057   6.106  0.3909  0.4511  0.1895
  162MOL0     C21756   5.868   7.037   6.147  0.3380 -0.0885  0.1151
  162MOL0     C21757   5.853   7.018   6.298  0.0797  0.3449  0.1239
  162MOL0     C21758   5.724   7.093   6.363 -1.2967  0.6393  0.2544
  162MOL0     O21759   5.599   7.038   6.317 -0.5098  0.2252  0.0479
  162MOL0     C21760   5.483   7.059   6.381 -1.2170 -1.2269  0.0176
  162MOL0     C21761   5.377   6.997   6.317 -0.1562 -0.2038 -0.8227
  162MOL0     C21762   5.249   7.017   6.359  0.5067  0.1423 -0.0883
  162MOL0     C21763   5.143   6.939   6.296 -0.6589 -0.7172 -0.9423
  162MOL0     C21764   5.225   7.118   6.456 -0.4106 -0.0625 -0.2451
  162MOL0     C21765   5.093   7.186   6.490  0.2969 -0.8301  0.5265
  162MOL0     O21766   5.084   7.252   6.610  0.4225  0.6508 -0.1648
  162MOL0     C21767   4.958   7.270   6.658 -0.1452  0.3719  0.2440
  162MOL0     C21768   4.883   7.376   6.627  0.2918 -0.1807  0.1141
  162MOL0     C21769   4.772   7.404   6.700  0.5547  0.3170  0.4324
  162MOL0     C21770   4.730   7.314   6.802  0.8079  0.0162 -0.2045
  162MOL0     O21771   4.619   7.323   6.882  0.7824 -0.6505  0.3602
  162MOL0     C21772   4.508   7.403   6.831  0.1449 -0.5815 -0.5076
  162MOL0     C21773   4.515   7.554   6.859 -0.6873 -0.4417  0.2908
  162MOL0     C21774   4.382   7.609   6.816  0.0452 -0.7249 -0.7337
  162MOL0     C21775   4.391   7.760   6.847 -1.1072  0.3864 -1.2003
  162MOL0     C21776   4.252   7.838   6.836 -0.2778 -0.0759 -0.9635
  162MOL0     C21777   4.156   7.814   6.959  0.4292 -0.2496 -0.1875
  162MOL0     C21778   4.010   7.861   6.938  0.2132  0.1351  0.3300
  162MOL0     C21779   3.943   7.853   7.073  0.4234  0.3199  0.3639
  162MOL0    Cl21780   3.764   7.894   7.034  0.1446 -0.3023  0.0717
  162MOL0     C21781   4.811   7.212   6.835  0.2024  0.3103 -0.1232
  162MOL0     C21782   4.933   7.188   6.766  0.4782  0.0676  0.1436
  162MOL0     O21783   5.003   7.158   6.412  0.6574  0.5673 -0.6782
  162MOL0     C21784   5.333   7.172   6.523 -0.5652 -0.0820 -0.2615
  162MOL0     C21785   5.466   7.139   6.491 -0.0946 -0.4658 -0.7118
  162MOL0     N21786   6.118   7.233   6.249  0.0594  0.4193 -0.9265
  162MOL0     N21787   6.098   7.357   6.278 -0.2756 -0.2398  0.4280
  162MOL0     C21788   5.174   7.809   6.830 -0.4638  0.2346 -0.3154
  162MOL0     C21789   5.047   7.866   6.862 -0.4335  0.7589 -0.4934
  162MOL0     C21790   4.659   7.914   7.073  1.0221 -0.1432 -0.5780
  162MOL0     C21791   4.601   7.989   6.962  0.5310  0.7562 -0.3053
  162MOL0     C21792   4.477   8.062   6.983 -0.9713  0.2723 -0.2517
  162MOL0     C21793   4.421   8.070   7.104 -0.7729 -0.4448 -0.0685
  162MOL0     O21794   4.320   8.157   7.134 -0.5065  0.1596  0.1871
  162MOL0     C21795   4.241   8.220   7.028 -0.3449  0.1105  0.1255
  162MOL0     C21796   4.106   8.259   7.084  0.4958  0.1568 -0.0416
  162MOL0     C21797   4.014   8.278   6.958  0.1297  0.4024  0.9176
  162MOL0     C21798   3.869   8.272   7.001  0.1033 -0.1428 -0.2749
  162MOL0     C21799   3.832   8.369   7.105 -0.4865 -0.0854  0.2463
  162MOL0     C21800   3.775   8.438   7.179 -0.5769 -0.3340 -0.6678
  162MOL0     C21801   4.481   8.007   7.213 -0.3044  0.4305  0.2862
  162MOL0     C21802   4.591   7.928   7.194 -0.2078  0.2286 -0.6157
  162MOL0     H21803   4.877   7.567   6.887  2.6589 -1.4105 -0.1053
  162MOL0     H21804   5.094   7.484   6.820 -0.1101  0.3610 -0.4349
  162MOL0     H21805   5.330   7.459   6.879 -1.8332 -1.1334  0.3170
  162MOL0     H21806   5.265   7.428   6.723 -0.3014  0.6746  1.2980
  162MOL0     H21807   5.559   7.464   6.798  2.2352 -1.0097 -0.9488
  162MOL0     H21808   5.486   7.348   6.691  0.0261 -0.5637  1.3751
  162MOL0     H21809   5.441   7.493   6.515 -0.2826  0.1742 -0.3121
  162MOL0     H21810   5.506   7.638   6.602  0.5778  0.4156 -1.9161
  162MOL0     H21811   5.732   7.538   6.632  0.2006 -0.7893 -0.0232
  162MOL0     H21812   5.679   7.391   6.546 -3.0327 -0.5718 -1.0942
  162MOL0     H21813   5.613   7.532   6.345  0.8510  0.6257 -0.1564
  162MOL0     H21814   5.687   7.671   6.406  1.7246  1.0984 -0.3116
  162MOL0     H21815   5.904   7.530   6.431 -1.3317 -3.8473  2.6980
  162MOL0     H21816   5.823   7.402   6.362  0.0903  0.6612  1.3661
  162MOL0     H21817   5.794   7.502   6.136  1.3861  1.9635 -1.5369
  162MOL0     H21818   5.798   7.658   6.204 -2.6061 -1.4799 -1.3973
  162MOL0     H21819   6.035   7.608   6.243 -1.5841 -2.2745  2.3765
  162MOL0     H21820   5.999   7.583   6.067  1.2986  0.2712 -0.8921
  162MOL0     H21821   5.931   7.312   5.999 -1.9883 -1.3952  0.8030
  162MOL0     H21822   6.049   7.042   6.002  3.2997 -1.4450  1.2276
  162MOL0     H21823   6.076   6.986   6.164 -0.3673  1.3500  2.1213
  162MOL0     H21824   5.824   6.947   6.102  1.7827 -0.8304  0.1224
  162MOL0     H21825   5.804   7.119   6.113  0.5285  0.7587  1.7062
  162MOL0     H21826   5.945   7.053   6.346  1.1298 -0.3718 -1.2835
  162MOL0     H21827   5.842   6.909   6.306  1.2912 -0.0173 -2.2300
  162MOL0     H21828   5.729   7.197   6.330  2.3382  0.3101 -0.6647
  162MOL0     H21829   5.738   7.086   6.471 -0.6598 -1.0619  0.0932
  162MOL0     H21830   5.398   6.938   6.228 -0.4876 -0.8102 -0.5035
  162MOL0     H21831   5.087   7.002   6.226 -1.7971  0.4613  0.9545
  162MOL0     H21832   5.192   6.871   6.226  2.0189  3.3900 -3.4800
  162MOL0     H21833   5.070   6.894   6.365  0.0697  0.8692  0.9413
  162MOL0     H21834   4.915   7.446   6.550  0.0105  2.0009  1.8897
  162MOL0     H21835   4.712   7.487   6.665 -1.6432 -2.7333 -3.9957
  162MOL0     H21836   4.486   7.368   6.730  1.4202  0.1521 -1.0654
  162MOL0     H21837   4.429   7.372   6.900  3.3914 -3.0582  2.4737
  162MOL0     H21838   4.535   7.581   6.963  0.3976  0.5609 -0.1502
  162MOL0     H21839   4.594   7.604   6.802  0.2193 -1.6592  0.4195
  162MOL0     H21840   4.296   7.559   6.862 -1.3227  0.4691 -1.8545
  162MOL0     H21841   4.362   7.609   6.708  0.1743  0.9006 -0.7819
  162MOL0     H21842   4.427   7.775   6.950  0.0749  1.0402 -1.6887
  162MOL0     H21843   4.463   7.804   6.777 -0.5630 -2.9818 -2.9277
  162MOL0     H21844   4.196   7.820   6.744  0.7572 -1.4374 -1.3644
  162MOL0     H21845   4.274   7.945   6.832  1.5322 -0.1822  2.5137
  162MOL0     H21846   4.150   7.707   6.977 -1.9062 -0.0035  0.7952
  162MOL0     H21847   4.198   7.873   7.041  1.6757  0.5605 -1.3672
  162MOL0     H21848   3.961   7.802   6.860  1.3147  1.8700 -1.7737
  162MOL0     H21849   3.997   7.963   6.898 -0.2643 -0.0621 -0.0257
  162MOL0     H21850   3.986   7.929   7.138  2.0051 -0.0936 -0.1571
  162MOL0     H21851   3.941   7.754   7.118 -0.8588 -1.2246 -2.7902
  162MOL0     H21852   4.782   7.142   6.913  1.0669 -1.1549 -1.0714
  162MOL0     H21853   5.022   7.135   6.797  1.1821  0.5782 -0.9338
  162MOL0     H21854   5.313   7.251   6.595 -2.2602  0.0445 -0.8286
  162MOL0     H21855   5.550   7.180   6.547  1.6668 -1.1272 -2.7498
  162MOL0     H21856   5.248   7.884   6.807 -2.0775  1.7406 -0.8301
  162MOL0     H21857   5.033   7.973   6.859 -3.5864  0.4404 -2.9538
  162MOL0     H21858   4.631   7.986   6.858  0.3950  2.3296 -0.4124
  162MOL0     H21859   4.438   8.117   6.898 -1.3063  1.0878  0.4141
  162MOL0     H21860   4.282   8.315   6.994 -0.7572  0.3182  0.1990
  162MOL0     H21861   4.221   8.159   6.939  1.3854 -0.4274  0.0668
  162MOL0     H21862   4.119   8.358   7.128 -1.5648  1.1503 -1.4821
  162MOL0     H21863   4.072   8.174   7.144 -1.4822 -0.3291 -1.7172
  162MOL0     H21864   4.022   8.187   6.898 -1.1156 -0.1655  1.5702
  162MOL0     H21865   4.040   8.367   6.900  3.2994 -0.0346  1.5035
  162MOL0     H21866   3.857   8.168   7.033  1.4478  0.1450  1.3120
  162MOL0     H21867   3.804   8.296   6.917  2.1098  0.8654 -1.6357
  162MOL0     H21868   3.732   8.511   7.245  3.0179 -1.4429  3.4367
  162MOL0     H21869   4.434   8.014   7.311 -1.8105 -1.9237 -0.1972
  162MOL0     H21870   4.628   7.890   7.288  1.4209  0.2968 -1.2083
  163MOL0     O21871  10.451   1.465   6.778  0.1090 -0.0403 -0.1334
  163MOL0     C21872  10.556   1.513   6.821  0.3853  0.1592 -0.1361
  163MOL0     O21873  10.571   1.598   6.920 -0.6411 -0.5429  0.4397
  163MOL0     C21874  10.464   1.667   6.977 -0.2038 -0.3599  0.5613
  163MOL0     C21875  10.335   1.682   6.925  0.0449 -0.4048  0.0753
  163MOL0     C21876  10.238   1.763   6.993  0.1974 -0.2903 -1.1963
  163MOL0     C21877  10.272   1.823   7.117 -0.0536  0.1907  0.2141
  163MOL0     O21878  10.189   1.905   7.189 -0.4239 -0.3487 -0.1937
  163MOL0     C21879  10.045   1.895   7.177 -0.1543  0.1162 -0.0649
  163MOL0     C21880  10.004   1.996   7.074 -0.2499 -0.3584  0.1049
  163MOL0     C21881   9.858   1.967   7.030 -0.6849 -0.4879 -0.3827
  163MOL0     C21882   9.813   2.019   6.895 -0.0612  0.4938 -0.0075
  163MOL0     C21883   9.673   2.004   6.867  0.6691  0.0709  1.2796
  163MOL0     C21884   9.632   2.027   6.720 -0.2258  0.6243  1.6627
  163MOL0     C21885   9.493   1.976   6.666 -0.8306 -0.6218  0.4509
  163MOL0     C21886   9.508   1.942   6.515  0.3434 -0.0801  0.4382
  163MOL0     N21887   9.374   1.917   6.470  0.7714 -0.6483 -0.1753
  163MOL0     C21888   9.316   1.794   6.472 -0.2778 -0.1126 -0.3665
  163MOL0     C21889   9.205   1.809   6.397  0.1123  0.7696 -0.5253
  163MOL0     C21890   9.096   1.703   6.396 -0.7034 -0.6667  0.0692
  163MOL0     C21891   8.987   1.723   6.502 -0.0867  0.1183 -0.6735
  163MOL0     C21892   8.896   1.845   6.495 -0.1966  0.3808 -0.5283
  163MOL0     C21893   8.816   1.855   6.355  0.5118  0.2685 -1.4464
  163MOL0     O21894   8.736   1.732   6.335 -0.0785  0.7280  0.0454
  163MOL0     C21895   8.603   1.749   6.315  0.5588  0.6236 -0.5765
  163MOL0     C21896   8.529   1.803   6.424  0.0448  0.1357 -0.2681
  163MOL0     C21897   8.389   1.777   6.443  0.2164  0.3350 -0.5611
  163MOL0     C21898   8.316   1.835   6.559  0.9465  0.4095 -0.6678
  163MOL0     C21899   8.319   1.710   6.332 -0.1868 -0.4775 -0.3746
  163MOL0     C21900   8.165   1.686   6.338 -0.4123  0.6423  0.9856
  163MOL0     O21901   8.115   1.627   6.446  0.4928  0.0993  0.4457
  163MOL0     C21902   7.983   1.608   6.454 -1.1840 -0.2022  0.1292
  163MOL0     C21903   7.900   1.685   6.540 -0.5824  0.1182  0.3814
  163MOL0     C21904   7.761   1.666   6.552  0.2901 -0.4599  0.5683
  163MOL0     C21905   7.699   1.574   6.461 -1.0597 -0.4176  0.0524
  163MOL0     O21906   7.567   1.544   6.458 -0.0701  0.5300  0.4547
  163MOL0     C21907   7.466   1.624   6.525 -0.4814  0.2431  0.1262
  163MOL0     C21908   7.330   1.559   6.511  0.5309 -0.3210  0.1030
  163MOL0     C21909   7.222   1.618   6.604 -0.5178  0.0070  0.3664
  163MOL0     C21910   7.101   1.528   6.609 -0.3741  0.1785 -0.3429
  163MOL0     C21911   6.977   1.599   6.669 -0.4350 -0.2402 -0.3971
  163MOL0     C21912   6.858   1.510   6.668  0.0538  0.1159 -0.4649
  163MOL0     C21913   6.728   1.581   6.635 -0.3012  0.6662  0.6309
  163MOL0     C21914   6.676   1.636   6.765  0.9464  0.5922 -1.4733
  163MOL0    Cl21915   6.514   1.675   6.700 -0.0175  0.2242 -0.0784
  163MOL0     C21916   7.777   1.488   6.382 -0.4756 -0.0803  0.1857
  163MOL0     C21917   7.925   1.507   6.381  0.8511  0.2017  0.1032
  163MOL0     O21918   8.103   1.717   6.240  0.1628  0.1023  0.1099
  163MOL0     C21919   8.386   1.673   6.212 -0.2675  0.6876  0.1637
  163MOL0     C21920   8.532   1.679   6.216  0.3477 -0.0597  0.1956
  163MOL0     N21921   9.200   1.937   6.349 -0.2381  0.1219  0.3847
  163MOL0     N21922   9.303   2.000   6.395  0.1832 -0.4705  0.3170
  163MOL0     C21923  10.405   1.805   7.160 -0.3314 -0.2699  0.2812
  163MOL0     C21924  10.504   1.733   7.092  0.1657  0.3364  0.1131
  163MOL0     C21925  10.681   1.465   6.744 -0.1342  0.4610 -0.0594
  163MOL0     C21926  10.679   1.343   6.674 -0.1690 -0.1318  0.7554
  163MOL0     C21927  10.790   1.291   6.601 -0.7611 -0.1773 -0.0557
  163MOL0     C21928  10.909   1.370   6.606 -1.2373 -0.2551 -0.0790
  163MOL0     O21929  11.026   1.328   6.543  0.3167  0.3542 -0.3071
  163MOL0     C21930  11.040   1.200   6.485  0.0911  1.2773  1.0313
  163MOL0     C21931  11.188   1.176   6.459  0.0960 -0.5453  0.0667
  163MOL0     C21932  11.239   1.286   6.355 -0.2317  0.2855 -0.4467
  163MOL0     C21933  11.394   1.288   6.353  0.1300 -0.6113  0.1123
  163MOL0     C21934  11.462   1.166   6.301  0.5502  0.3586 -0.1075
  163MOL0     C21935  11.525   1.073   6.247 -0.1014  0.6557 -0.1205
  163MOL0     C21936  10.916   1.488   6.673  0.4932  0.0165 -0.3013
  163MOL0     C21937  10.792   1.545   6.733 -0.2350 -0.4082 -0.5595
  163MOL0     H21938  10.298   1.629   6.838 -0.6457 -0.1022  0.1835
  163MOL0     H21939  10.139   1.770   6.950  0.5464  1.0514 -1.8339
  163MOL0     H21940  10.018   1.790   7.161 -0.4002 -0.5725  3.7494
  163MOL0     H21941   9.997   1.933   7.268 -0.0752  3.2090 -1.2014
  163MOL0     H21942  10.005   2.096   7.119  1.4699 -0.4856  0.4198
  163MOL0     H21943  10.066   2.004   6.985 -3.2552 -0.4780 -2.1722
  163MOL0     H21944   9.837   1.861   7.045 -0.5185 -0.4865 -0.1212
  163MOL0     H21945   9.797   2.022   7.102  1.9907  2.6150 -0.2510
  163MOL0     H21946   9.829   2.126   6.875 -0.2555  0.2425 -1.7187
  163MOL0     H21947   9.867   1.969   6.814 -1.4479 -0.2060 -0.5272
  163MOL0     H21948   9.644   1.904   6.899 -2.4289 -0.2014 -1.7454
  163MOL0     H21949   9.626   2.075   6.935 -1.9286  1.2335 -1.4600
  163MOL0     H21950   9.652   2.127   6.680  1.5280  0.0671  1.0501
  163MOL0     H21951   9.704   1.969   6.661  0.0700  0.7816  1.8645
  163MOL0     H21952   9.467   1.885   6.722 -4.3804  1.6414  2.8911
  163MOL0     H21953   9.416   2.048   6.693 -0.3182 -0.8249  2.6447
  163MOL0     H21954   9.570   1.854   6.494  3.6054  1.9911  0.6637
  163MOL0     H21955   9.554   2.024   6.459  1.9731 -0.9684  0.4148
  163MOL0     H21956   9.353   1.707   6.527 -2.2116 -0.7258  0.0434
  163MOL0     H21957   9.057   1.711   6.294 -0.7189 -1.5627 -0.0026
  163MOL0     H21958   9.142   1.605   6.409 -0.8969 -1.0313 -1.7214
  163MOL0     H21959   9.030   1.727   6.602 -0.7396 -0.2004 -0.3728
  163MOL0     H21960   8.915   1.642   6.517 -0.5711  0.9238  1.7450
  163MOL0     H21961   8.956   1.936   6.506 -0.1516  0.3666 -0.6500
  163MOL0     H21962   8.828   1.848   6.581  1.6171  0.7904  0.9501
  163MOL0     H21963   8.894   1.871   6.281  0.6057 -0.5747 -1.5410
  163MOL0     H21964   8.754   1.945   6.358  0.0519 -0.0538 -0.9905
  163MOL0     H21965   8.579   1.870   6.493  0.7847 -1.2134  0.5300
  163MOL0     H21966   8.292   1.739   6.607  0.9711 -0.7089 -2.7432
  163MOL0     H21967   8.371   1.901   6.626  0.1101 -0.6687  1.1608
  163MOL0     H21968   8.225   1.881   6.520  0.6136 -0.1855 -0.6060
  163MOL0     H21969   7.946   1.772   6.586 -2.4202  2.3673 -1.7238
  163MOL0     H21970   7.706   1.720   6.628 -0.2424 -2.6305  1.8278
  163MOL0     H21971   7.500   1.642   6.627  3.0885 -2.7578 -0.3127
  163MOL0     H21972   7.471   1.720   6.473  3.1554 -0.1272 -0.4330
  163MOL0     H21973   7.297   1.577   6.409  0.0434 -0.0012  0.3104
  163MOL0     H21974   7.325   1.452   6.532 -1.4854 -0.3015 -0.1396
  163MOL0     H21975   7.202   1.718   6.564  1.1191  0.3054  0.2166
  163MOL0     H21976   7.260   1.633   6.706 -0.0749 -0.2976  0.2496
  163MOL0     H21977   7.075   1.519   6.503  2.1402  3.8330 -1.4918
  163MOL0     H21978   7.113   1.428   6.651 -0.7872  0.0845 -0.4456
  163MOL0     H21979   6.956   1.695   6.623  1.0132 -0.3445 -1.3556
  163MOL0     H21980   6.996   1.613   6.776  1.0758 -1.7868 -0.4194
  163MOL0     H21981   6.875   1.425   6.601 -0.5282 -3.2150  3.2259
  163MOL0     H21982   6.864   1.462   6.766  2.0430  2.4745  0.6858
  163MOL0     H21983   6.656   1.510   6.595 -1.0615  3.2868 -3.2452
  163MOL0     H21984   6.731   1.647   6.548  0.5745 -3.1512 -2.4773
  163MOL0     H21985   6.739   1.723   6.787  1.0732  0.3989 -1.0604
  163MOL0     H21986   6.672   1.564   6.847  0.8011  1.3466 -0.8042
  163MOL0     H21987   7.735   1.406   6.325  0.2901 -0.4157  0.0992
  163MOL0     H21988   7.992   1.449   6.318  0.0581 -2.3260  1.4528
  163MOL0     H21989   8.332   1.622   6.133 -0.7726  0.5975  0.5587
  163MOL0     H21990   8.578   1.625   6.133 -0.0972 -3.5854  2.0533
  163MOL0     H21991  10.432   1.859   7.251 -3.0111  3.0266 -0.6353
  163MOL0     H21992  10.606   1.725   7.128  1.0796  2.7043 -1.6962
  163MOL0     H21993  10.589   1.282   6.669  0.5694 -1.2135  0.1081
  163MOL0     H21994  10.774   1.198   6.548  0.6189  0.8215 -2.3699
  163MOL0     H21995  11.001   1.120   6.549  2.1685 -1.8254 -1.3052
  163MOL0     H21996  10.985   1.198   6.391  2.8037 -3.0299 -0.7437
  163MOL0     H21997  11.202   1.073   6.425 -0.2038 -1.2694  1.9979
  163MOL0     H21998  11.246   1.176   6.552  0.4845 -1.9390 -0.1548
  163MOL0     H21999  11.210   1.382   6.399  1.1000 -0.6870  2.8836
  163MOL0     H22000  11.203   1.263   6.254  2.5749 -5.2801 -0.5764
  163MOL0     H22001  11.422   1.304   6.458  0.3512  0.6662 -0.1245
  163MOL0     H22002  11.421   1.379   6.299 -0.9454  0.9951  2.1124
  163MOL0     H22003  11.582   0.989   6.213  2.6356  1.6903  1.5443
  163MOL0     H22004  11.012   1.536   6.695 -0.3094  1.3353  0.4556
  163MOL0     H22005  10.785   1.642   6.781  1.0513 -0.2104 -0.7434
  164MOL0     O22006   7.826   5.893   9.202  0.0363 -0.6386 -0.0894
  164MOL0     C22007   7.871   5.929   9.314  0.0808 -0.3341 -0.2519
  164MOL0     O22008   7.791   5.966   9.421 -0.1601  0.3555 -0.8723
  164MOL0     C22009   7.655   5.997   9.392  0.8303 -0.1470 -0.1288
  164MOL0     C22010   7.570   5.972   9.502 -0.6748  0.3502 -0.0569
  164MOL0     C22011   7.435   5.999   9.498 -0.0095 -0.1973  0.0500
  164MOL0     C22012   7.380   6.042   9.376 -0.9438 -0.3475 -0.2129
  164MOL0     O22013   7.251   6.077   9.360  0.5427  0.3200 -0.0548
  164MOL0     C22014   7.158   5.964   9.375 -0.1851 -0.1771  0.2447
  164MOL0     C22015   7.009   5.995   9.389  0.6130 -0.0771  0.2513
  164MOL0     C22016   6.958   6.003   9.239  0.1452 -0.4299 -0.1269
  164MOL0     C22017   6.817   6.049   9.223  0.4336 -0.3883  0.0894
  164MOL0     C22018   6.776   6.109   9.088 -0.4556  1.1961 -0.6948
  164MOL0     C22019   6.638   6.171   9.107  0.3277  0.0121  0.2684
  164MOL0     C22020   6.585   6.229   8.976  0.3688 -0.0379  0.4564
  164MOL0     C22021   6.448   6.295   8.998  0.4886  0.3286  1.0956
  164MOL0     N22022   6.447   6.421   9.057 -1.1787  0.3860 -0.1483
  164MOL0     C22023   6.431   6.531   8.982 -0.7279 -0.5048 -0.3340
  164MOL0     C22024   6.413   6.625   9.081 -0.3567  0.2632 -0.8753
  164MOL0     C22025   6.394   6.766   9.047 -0.3798  0.0950  0.8537
  164MOL0     C22026   6.249   6.786   9.020  0.0061  0.0672  1.0012
  164MOL0     C22027   6.165   6.814   9.145  0.7271  0.0080  0.3980
  164MOL0     C22028   6.017   6.858   9.123 -0.0519  1.1174 -0.5689
  164MOL0     O22029   5.933   6.753   9.058  0.9435  0.6234 -0.4384
  164MOL0     C22030   5.800   6.775   9.043  0.1039  0.6355  0.5067
  164MOL0     C22031   5.716   6.661   9.037  0.5410 -0.6451  0.3529
  164MOL0     C22032   5.573   6.665   9.037  0.6253  0.2307 -0.3705
  164MOL0     C22033   5.498   6.532   9.047  0.2537 -0.4619  0.9686
  164MOL0     C22034   5.510   6.792   9.032  0.0146  0.0029  0.3199
  164MOL0     C22035   5.362   6.815   9.005 -0.7145 -0.7789  0.0933
  164MOL0     O22036   5.273   6.705   8.988 -0.3991  0.5705 -0.1601
  164MOL0     C22037   5.137   6.721   9.001 -1.3273 -1.1764 -0.1573
  164MOL0     C22038   5.065   6.790   8.897 -0.1204 -0.5135 -0.6300
  164MOL0     C22039   4.925   6.814   8.909  0.3080  1.2910 -0.7680
  164MOL0     C22040   4.861   6.780   9.031 -0.3189 -0.3841  0.2610
  164MOL0     O22041   4.722   6.788   9.047  0.2912 -0.3108 -0.3731
  164MOL0     C22042   4.653   6.681   9.115  0.7036  0.1787 -0.1310
  164MOL0     C22043   4.506   6.665   9.075  0.3805  0.3767 -0.3405
  164MOL0     C22044   4.415   6.592   9.173 -0.0676  0.6901 -0.2093
  164MOL0     C22045   4.278   6.619   9.123  0.6495 -1.0401  0.4345
  164MOL0     C22046   4.176   6.527   9.180  0.3553 -0.2746  0.5181
  164MOL0     C22047   4.030   6.561   9.147 -0.9020 -0.3790 -0.4945
  164MOL0     C22048   3.929   6.464   9.209 -0.0910 -0.4858  0.0488
  164MOL0     C22049   3.787   6.506   9.190 -0.2569  1.0786 -0.5506
  164MOL0    Cl22050   3.757   6.534   9.020 -0.6569  1.0811 -0.5331
  164MOL0     C22051   4.938   6.720   9.131  0.0053  0.7352 -0.6114
  164MOL0     C22052   5.071   6.687   9.123  0.2756  0.4649 -0.5377
  164MOL0     O22053   5.328   6.931   8.992  0.5703  0.6308 -0.1398
  164MOL0     C22054   5.597   6.908   9.046  0.4104  0.2205  0.0976
  164MOL0     C22055   5.732   6.894   9.061  0.2941 -0.3354  0.7178
  164MOL0     N22056   6.411   6.563   9.208  0.3506  0.3252 -0.1093
  164MOL0     N22057   6.427   6.433   9.194 -0.2957  0.6157  1.0464
  164MOL0     C22058   7.466   6.069   9.268  0.9002  0.0031  0.5252
  164MOL0     C22059   7.598   6.049   9.279  0.1130  0.5973 -0.1067
  164MOL0     C22060   8.018   5.921   9.340 -0.6482  0.8406 -0.6838
  164MOL0     C22061   8.095   5.839   9.257 -0.0907 -0.2251  1.0457
  164MOL0     C22062   8.230   5.813   9.279  0.3937 -1.1146  0.6331
  164MOL0     C22063   8.297   5.879   9.380  0.0084  0.5288 -0.3109
  164MOL0     O22064   8.429   5.858   9.388 -0.0926 -0.1379  0.4782
  164MOL0     C22065   8.496   5.871   9.510  0.1244 -0.6886  0.1654
  164MOL0     C22066   8.641   5.853   9.476 -1.1712 -0.5524  0.1449
  164MOL0     C22067   8.733   5.901   9.592  0.3846 -0.7010 -0.1571
  164MOL0     C22068   8.750   5.785   9.697 -0.9562  0.2056 -0.7796
  164MOL0     C22069   8.848   5.817   9.806 -0.3060 -0.2699 -0.1977
  164MOL0     C22070   8.928   5.827   9.893 -0.0154  0.2848 -1.0223
  164MOL0     C22071   8.214   5.946   9.477  0.0762 -0.5717  0.1644
  164MOL0     C22072   8.081   5.973   9.452 -0.1904  0.1337 -0.5667
  164MOL0     H22073   7.627   5.927   9.583  1.5413 -1.6028 -2.5295
  164MOL0     H22074   7.369   5.990   9.584 -0.0728 -0.3108 -0.0112
  164MOL0     H22075   7.176   5.901   9.288 -1.2847  0.6787 -0.6315
  164MOL0     H22076   7.197   5.899   9.454  0.2330  0.9181  0.9678
  164MOL0     H22077   6.947   5.908   9.414  0.3344 -0.2507 -0.9574
  164MOL0     H22078   6.982   6.079   9.454  2.6676 -0.1237  1.2292
  164MOL0     H22079   7.029   6.072   9.193 -1.3433  1.0244 -0.3727
  164MOL0     H22080   6.963   5.904   9.193 -0.9448 -0.5559 -0.0030
  164MOL0     H22081   6.754   5.964   9.250  1.5099 -1.4182 -0.5340
  164MOL0     H22082   6.803   6.132   9.293  0.5309  1.5020 -2.0222
  164MOL0     H22083   6.852   6.181   9.056  3.7880 -2.7017 -0.2068
  164MOL0     H22084   6.773   6.028   9.014  1.2217  0.8470 -0.4089
  164MOL0     H22085   6.574   6.090   9.141  0.3190 -0.6878 -1.3136
  164MOL0     H22086   6.641   6.256   9.175  0.6738  0.0063  0.2620
  164MOL0     H22087   6.651   6.303   8.928 -0.3701 -0.6048 -1.5223
  164MOL0     H22088   6.573   6.147   8.904 -1.1974  0.9250 -0.4412
  164MOL0     H22089   6.390   6.228   9.062  0.9047 -0.2053  0.9209
  164MOL0     H22090   6.390   6.298   8.905  2.5578  0.2438 -0.2661
  164MOL0     H22091   6.450   6.560   8.879 -1.0017  3.5923  0.5675
  164MOL0     H22092   6.432   6.830   9.128 -0.2144 -0.1040  0.9372
  164MOL0     H22093   6.451   6.790   8.957 -0.9792 -0.3727  0.3451
  164MOL0     H22094   6.203   6.700   8.972 -2.7113  0.8471  2.0125
  164MOL0     H22095   6.245   6.871   8.952  0.6905 -0.2683  0.5303
  164MOL0     H22096   6.207   6.898   9.201 -0.6981  1.4527 -0.5793
  164MOL0     H22097   6.156   6.721   9.201 -1.7414 -0.0087  0.1037
  164MOL0     H22098   6.007   6.946   9.059 -3.5913  0.3781 -1.2320
  164MOL0     H22099   5.974   6.863   9.223 -0.6360 -1.5630 -0.6022
  164MOL0     H22100   5.763   6.563   9.029  1.1994 -0.1872 -2.6297
  164MOL0     H22101   5.416   6.540   9.119  0.8306  2.6740  1.4238
  164MOL0     H22102   5.465   6.509   8.945  1.1521  0.3148  0.4865
  164MOL0     H22103   5.559   6.455   9.094 -1.6519 -0.6799  3.2895
  164MOL0     H22104   5.129   6.826   8.817  2.7723 -0.2380  1.6143
  164MOL0     H22105   4.854   6.857   8.839 -0.8962  0.0824 -0.3439
  164MOL0     H22106   4.704   6.585   9.111  0.1833 -0.1115  0.1235
  164MOL0     H22107   4.645   6.701   9.222  0.0804  0.9017 -0.3037
  164MOL0     H22108   4.465   6.766   9.066  3.3368  2.3098  4.1006
  164MOL0     H22109   4.511   6.602   8.985  1.9367 -2.7066  1.7195
  164MOL0     H22110   4.416   6.627   9.277  1.0769  1.0591 -0.3320
  164MOL0     H22111   4.443   6.486   9.170  1.9376  1.1672 -0.1184
  164MOL0     H22112   4.261   6.721   9.160  1.4435 -1.0212  0.7738
  164MOL0     H22113   4.279   6.619   9.013 -0.8436  0.9867  0.3539
  164MOL0     H22114   4.195   6.535   9.288  0.4728  1.8345  0.3796
  164MOL0     H22115   4.202   6.434   9.130 -0.6355 -0.6988  0.7758
  164MOL0     H22116   4.016   6.657   9.198 -0.0227 -0.7384  0.4478
  164MOL0     H22117   4.021   6.564   9.038  1.1872 -0.3685 -0.7142
  164MOL0     H22118   3.932   6.468   9.319  0.4095  2.6977  0.0238
  164MOL0     H22119   3.952   6.364   9.173  1.4673  0.0212 -0.4633
  164MOL0     H22120   3.751   6.593   9.246 -1.5709  0.9947 -1.2234
  164MOL0     H22121   3.727   6.418   9.215  5.0198 -3.4364 -1.7412
  164MOL0     H22122   4.884   6.696   9.223  2.1383 -2.5732 -0.0469
  164MOL0     H22123   5.131   6.638   9.199  4.2782 -2.4467 -4.9886
  164MOL0     H22124   5.554   7.007   9.042 -2.9145 -1.1503 -1.8296
  164MOL0     H22125   5.787   6.986   9.074  0.6841 -0.2277 -1.4378
  164MOL0     H22126   7.428   6.124   9.183 -0.9236 -0.7452  0.7938
  164MOL0     H22127   7.656   6.084   9.195 -3.1030  4.0347 -1.1986
  164MOL0     H22128   8.051   5.799   9.167  1.9991  2.9507 -1.6268
  164MOL0     H22129   8.275   5.754   9.199  1.5610 -1.7476  1.7250
  164MOL0     H22130   8.479   5.971   9.549  1.1220 -0.5599  0.3009
  164MOL0     H22131   8.469   5.791   9.580 -0.0553 -2.5896 -1.9270
  164MOL0     H22132   8.667   5.909   9.386 -1.2035 -0.1192  0.4023
  164MOL0     H22133   8.659   5.748   9.450  0.4391  0.1309 -1.7345
  164MOL0     H22134   8.689   5.990   9.639 -0.2663 -1.5430  0.8860
  164MOL0     H22135   8.828   5.937   9.552  0.0154 -0.2658 -0.6506
  164MOL0     H22136   8.789   5.697   9.645 -0.5879 -0.7125  0.9831
  164MOL0     H22137   8.648   5.771   9.736 -1.8705  3.3645 -1.7172
  164MOL0     H22138   8.983   5.825   9.985 -3.1777  1.8861  1.0959
  164MOL0     H22139   8.250   6.000   9.564 -2.6983  2.6433 -0.4638
  164MOL0     H22140   8.026   6.022   9.532 -3.8924 -0.7804 -2.3129
  165MOL0     O22141   1.006   6.133   8.176 -0.0310 -0.3878  0.2941
  165MOL0     C22142   1.053   6.166   8.065  0.2189  0.6151  0.5814
  165MOL0     O22143   0.988   6.136   7.942 -0.3127 -0.1282  0.3374
  165MOL0     C22144   0.858   6.091   7.957 -0.3330 -0.6010  0.8264
  165MOL0     C22145   0.822   5.965   7.998  0.8195  0.4993  0.2958
  165MOL0     C22146   0.687   5.921   7.987  0.5137 -0.3368  0.1675
  165MOL0     C22147   0.586   6.015   7.953 -0.5068  0.6412 -0.3426
  165MOL0     O22148   0.456   5.987   7.943  0.6589 -0.5629 -0.2985
  165MOL0     C22149   0.418   5.855   7.911  0.2079  0.5901 -0.4642
  165MOL0     C22150   0.278   5.848   7.842 -0.6031 -0.0344 -0.1537
  165MOL0     C22151   0.223   5.710   7.830 -0.0233  0.3313 -0.1848
  165MOL0     C22152   0.208   5.645   7.959  0.0737 -0.1733 -0.2318
  165MOL0     C22153   0.128   5.514   7.949 -0.4364 -0.3702 -0.4597
  165MOL0     C22154   0.077   5.475   8.089 -0.7604  0.3771  0.0069
  165MOL0     C22155  -0.051   5.400   8.083 -0.0965 -0.7981  0.2862
  165MOL0     C22156  -0.078   5.309   8.207  0.4063 -0.6302 -0.5304
  165MOL0     N22157  -0.119   5.401   8.317 -0.5571 -0.7779 -0.7528
  165MOL0     C22158  -0.249   5.436   8.344  0.6671 -0.9764  0.5076
  165MOL0     C22159  -0.237   5.520   8.441 -0.4515 -0.2287 -0.3210
  165MOL0     C22160  -0.352   5.593   8.509 -0.2832  0.1129  0.1697
  165MOL0     C22161  -0.362   5.565   8.660 -0.6186 -0.3853 -0.8867
  165MOL0     C22162  -0.402   5.421   8.710  0.2455 -0.1379  0.1609
  165MOL0     C22163  -0.552   5.412   8.689  0.2667  0.0493  1.2044
  165MOL0     O22164  -0.605   5.456   8.815 -0.3759 -0.2477 -0.0646
  165MOL0     C22165  -0.726   5.522   8.808 -0.3571  0.1294  0.3984
  165MOL0     C22166  -0.832   5.440   8.781 -0.1847 -0.2661 -0.4040
  165MOL0     C22167  -0.955   5.501   8.774 -0.4449 -0.0053 -0.6664
  165MOL0     C22168  -1.069   5.408   8.767  0.2282  0.0627 -0.1429
  165MOL0     C22169  -0.968   5.643   8.787  0.5805 -0.8233  0.1186
  165MOL0     C22170  -1.097   5.704   8.782 -0.3801 -1.3926 -0.1740
  165MOL0     O22171  -1.185   5.672   8.881 -0.0063  0.4065  0.1369
  165MOL0     C22172  -1.293   5.753   8.879  0.0601 -0.0007  1.1080
  165MOL0     C22173  -1.300   5.861   8.971  0.2760  0.9976  0.1176
  165MOL0     C22174  -1.402   5.944   8.980  0.3862  0.2948 -0.0852
  165MOL0     C22175  -1.503   5.928   8.886 -0.0771 -0.6047 -0.5770
  165MOL0     O22176  -1.611   6.011   8.905 -0.6531 -0.5763 -0.4261
  165MOL0     C22177  -1.742   5.980   8.844 -1.2883  0.0867  0.3079
  165MOL0     C22178  -1.747   6.027   8.696  0.7039 -0.1926  0.5252
  165MOL0     C22179  -1.690   6.163   8.674 -1.5529 -0.7138  0.2055
  165MOL0     C22180  -1.758   6.238   8.561  0.1619  0.3305 -0.2893
  165MOL0     C22181  -1.749   6.158   8.438  0.4182  0.4861 -0.2482
  165MOL0     C22182  -1.792   6.228   8.308  0.3887  1.1351  0.0732
  165MOL0     C22183  -1.770   6.126   8.199  0.6430 -0.5752 -0.1021
  165MOL0     C22184  -1.770   6.193   8.063 -0.0584 -0.4547  0.3162
  165MOL0    Cl22185  -1.936   6.225   8.015 -0.1336  0.2947 -0.1115
  165MOL0     C22186  -1.501   5.829   8.789  0.3833  0.4100  0.6826
  165MOL0     C22187  -1.402   5.735   8.790 -0.3751  0.2043 -0.1598
  165MOL0     O22188  -1.123   5.788   8.693 -0.3926  0.3446  0.7190
  165MOL0     C22189  -0.854   5.727   8.810  0.4545  0.1143 -0.6209
  165MOL0     C22190  -0.729   5.664   8.817 -0.7682 -0.5732  0.3354
  165MOL0     N22191  -0.103   5.539   8.477 -0.1709  0.0312  1.1180
  165MOL0     N22192  -0.035   5.463   8.395 -0.2357 -0.7881 -0.0261
  165MOL0     C22193   0.622   6.142   7.917 -0.2556  0.0686 -0.0138
  165MOL0     C22194   0.759   6.181   7.911 -0.1481  0.5920 -0.0793
  165MOL0     C22195   1.188   6.232   8.056  0.1867  0.7698 -0.4811
  165MOL0     C22196   1.270   6.229   8.173 -0.4967 -0.5141  0.3048
  165MOL0     C22197   1.406   6.285   8.177 -0.3926  0.5057 -0.4149
  165MOL0     C22198   1.451   6.342   8.059 -0.3046  0.0915  0.0118
  165MOL0     O22199   1.586   6.369   8.061 -0.4075 -0.5228 -0.0755
  165MOL0     C22200   1.662   6.366   7.938 -0.0664 -0.1243 -0.0403
  165MOL0     C22201   1.804   6.421   7.943 -1.1775 -0.1207 -0.1689
  165MOL0     C22202   1.872   6.409   7.804 -0.2736 -0.2157 -0.0086
  165MOL0     C22203   1.899   6.264   7.763  0.6183 -0.1639  0.0847
  165MOL0     C22204   2.030   6.223   7.785  0.3087  0.3177 -0.4459
  165MOL0     C22205   2.142   6.195   7.821 -0.0693 -1.5782  0.1699
  165MOL0     C22206   1.369   6.348   7.944 -0.0121 -0.6950 -0.1479
  165MOL0     C22207   1.241   6.294   7.938 -0.3349 -0.1205 -0.3330
  165MOL0     H22208   0.905   5.897   8.014  0.8117  0.2755 -0.5595
  165MOL0     H22209   0.663   5.818   8.010 -2.9015  0.0049 -1.2109
  165MOL0     H22210   0.495   5.809   7.848  0.9376  0.3754  0.5626
  165MOL0     H22211   0.412   5.798   8.004  0.0438 -0.0980 -0.8941
  165MOL0     H22212   0.214   5.918   7.897  1.9342  0.8562  1.8931
  165MOL0     H22213   0.292   5.898   7.746  2.2120 -1.3200 -0.5334
  165MOL0     H22214   0.129   5.720   7.776 -0.2764 -0.8578  0.0071
  165MOL0     H22215   0.297   5.656   7.771  2.1598  0.9743  1.7907
  165MOL0     H22216   0.300   5.621   8.014  0.0698  0.5467  0.1060
  165MOL0     H22217   0.146   5.717   8.013  0.4344  0.0673 -0.1280
  165MOL0     H22218   0.043   5.536   7.883 -0.5214  1.6712  0.2712
  165MOL0     H22219   0.200   5.439   7.918  0.7681 -0.0968  1.5379
  165MOL0     H22220   0.155   5.427   8.148 -1.6872 -0.8642  0.2712
  165MOL0     H22221   0.052   5.569   8.139  1.7581  0.8956  0.3882
  165MOL0     H22222  -0.130   5.476   8.072  1.5656  1.4735  2.6290
  165MOL0     H22223  -0.054   5.341   7.991 -1.2541  0.0226 -0.2322
  165MOL0     H22224   0.014   5.258   8.233  1.5435  2.1384  1.3987
  165MOL0     H22225  -0.158   5.237   8.188  1.9011 -2.1555 -1.1872
  165MOL0     H22226  -0.344   5.417   8.294  0.5760 -0.8102  0.6145
  165MOL0     H22227  -0.324   5.694   8.476 -0.9668 -0.3664 -2.0805
  165MOL0     H22228  -0.448   5.572   8.461 -0.1247  1.8625 -1.0234
  165MOL0     H22229  -0.429   5.633   8.713  2.3206  2.6336 -0.6795
  165MOL0     H22230  -0.262   5.597   8.692 -1.8176  4.1347 -0.9530
  165MOL0     H22231  -0.387   5.406   8.817  3.5199  0.8672 -0.0203
  165MOL0     H22232  -0.353   5.333   8.665  0.2318  0.1042 -0.3386
  165MOL0     H22233  -0.583   5.313   8.654 -1.3048  0.9721 -0.1495
  165MOL0     H22234  -0.582   5.479   8.608  1.2240 -1.2034 -0.2421
  165MOL0     H22235  -0.814   5.334   8.785  3.0188  0.2417  2.0952
  165MOL0     H22236  -1.130   5.429   8.856  0.9738 -0.7691  0.5830
  165MOL0     H22237  -1.138   5.421   8.684 -0.5647 -1.5635  0.2344
  165MOL0     H22238  -1.044   5.302   8.765  0.7047  0.1844 -1.5750
  165MOL0     H22239  -1.206   5.868   9.025  0.1760 -3.5976  1.2967
  165MOL0     H22240  -1.410   6.024   9.053  2.2310 -0.4483  0.9907
  165MOL0     H22241  -1.784   5.879   8.850 -2.9029  0.5255 -2.0663
  165MOL0     H22242  -1.810   6.048   8.896 -0.4265  1.9016 -0.8359
  165MOL0     H22243  -1.689   5.965   8.627  0.8642  2.4051 -1.8763
  165MOL0     H22244  -1.849   6.029   8.658  1.3900 -0.2558 -1.4646
  165MOL0     H22245  -1.585   6.151   8.647 -1.5827 -0.2490 -0.1383
  165MOL0     H22246  -1.693   6.222   8.766  0.3180 -0.7870  0.3337
  165MOL0     H22247  -1.865   6.255   8.577  0.3318  0.5049  0.7764
  165MOL0     H22248  -1.715   6.336   8.536 -2.0824  1.6150  0.5966
  165MOL0     H22249  -1.810   6.068   8.442  1.6364 -0.3291  1.8248
  165MOL0     H22250  -1.644   6.130   8.428  0.5750  0.5619  0.9608
  165MOL0     H22251  -1.899   6.249   8.299 -0.7397 -2.5904  2.2487
  165MOL0     H22252  -1.728   6.315   8.304  0.6970  0.8605 -1.3500
  165MOL0     H22253  -1.842   6.044   8.192  0.3949 -0.5395  1.5848
  165MOL0     H22254  -1.676   6.071   8.212  1.5822  0.8604 -0.5456
  165MOL0     H22255  -1.726   6.127   7.987  1.0943  0.9267 -0.2650
  165MOL0     H22256  -1.714   6.287   8.061  2.2776 -1.7738 -0.7394
  165MOL0     H22257  -1.574   5.822   8.709  0.6169 -1.0736  0.5745
  165MOL0     H22258  -1.397   5.660   8.712 -0.0467 -1.9356  1.8174
  165MOL0     H22259  -0.858   5.835   8.821 -1.1196  0.2284 -2.0017
  165MOL0     H22260  -0.635   5.714   8.842 -0.6241 -1.0376  0.7371
  165MOL0     H22261   0.544   6.210   7.884  0.4806  1.6175  1.3235
  165MOL0     H22262   0.796   6.277   7.877  2.3240 -0.2806 -0.0508
  165MOL0     H22263   1.222   6.201   8.266 -2.1709  0.5223 -0.2093
  165MOL0     H22264   1.474   6.286   8.262 -2.9633 -0.1825  1.7641
  165MOL0     H22265   1.667   6.262   7.907 -3.6129 -1.4074  2.9284
  165MOL0     H22266   1.613   6.427   7.861  3.6116  1.2701 -1.5115
  165MOL0     H22267   1.861   6.363   8.016 -2.0497 -0.5022  0.2163
  165MOL0     H22268   1.806   6.524   7.981  0.8079 -0.3911  0.5921
  165MOL0     H22269   1.967   6.463   7.796 -0.0183 -0.8305 -1.7566
  165MOL0     H22270   1.817   6.465   7.728  0.1891  2.8676  1.7852
  165MOL0     H22271   1.882   6.249   7.656  2.2881  0.9518 -0.3885
  165MOL0     H22272   1.835   6.188   7.808  3.2109 -1.7212  1.3502
  165MOL0     H22273   2.245   6.181   7.848  1.0879  0.5291 -2.6733
  165MOL0     H22274   1.403   6.413   7.864  1.2314  0.7583  1.4820
  165MOL0     H22275   1.182   6.313   7.849 -2.4134 -1.1736  0.7445
  166MOL0     O22276   6.328   5.954   5.428 -0.0260  0.7240 -0.1496
  166MOL0     C22277   6.305   5.865   5.505 -0.1773  0.2334 -0.1951
  166MOL0     O22278   6.182   5.812   5.536  0.3923 -0.2738  0.4680
  166MOL0     C22279   6.071   5.894   5.517 -0.7581  0.8295  0.2010
  166MOL0     C22280   6.039   5.915   5.383  0.3767 -1.1187 -0.6643
  166MOL0     C22281   5.945   6.017   5.352  0.1692  0.5730  0.4996
  166MOL0     C22282   5.866   6.086   5.449  0.5316  0.2660 -0.1225
  166MOL0     O22283   5.778   6.177   5.407  0.2018  0.3217  0.7181
  166MOL0     C22284   5.685   6.219   5.512  0.2250  0.4307  0.2481
  166MOL0     C22285   5.603   6.340   5.450 -0.7945  0.1018  0.6315
  166MOL0     C22286   5.688   6.459   5.419 -0.8496 -0.9406  0.6140
  166MOL0     C22287   5.640   6.584   5.493 -0.0832  0.2924  0.2459
  166MOL0     C22288   5.521   6.640   5.416 -0.0307 -0.9517  0.6403
  166MOL0     C22289   5.467   6.763   5.480 -0.5379 -0.4267 -0.2273
  166MOL0     C22290   5.382   6.854   5.385 -0.7499  0.4284 -0.2757
  166MOL0     C22291   5.256   6.779   5.347  0.4213 -0.3649 -0.4086
  166MOL0     N22292   5.152   6.808   5.449  0.2519  0.1774  0.0692
  166MOL0     C22293   5.095   6.714   5.537 -0.8861 -0.1920  0.1100
  166MOL0     C22294   4.992   6.784   5.594 -0.2353  0.2840 -1.0947
  166MOL0     C22295   4.917   6.729   5.707  0.3743  0.5398  0.1087
  166MOL0     C22296   4.785   6.692   5.649  0.5626 -0.8292  0.6759
  166MOL0     C22297   4.775   6.550   5.593 -0.5736  0.4931  0.3175
  166MOL0     C22298   4.652   6.508   5.521  0.3544  0.3844 -0.1011
  166MOL0     O22299   4.670   6.374   5.474  0.4670 -0.5776 -0.3836
  166MOL0     C22300   4.580   6.324   5.389 -0.9808 -0.4648 -1.2331
  166MOL0     C22301   4.644   6.252   5.288 -0.2992  0.0432  0.2195
  166MOL0     C22302   4.569   6.209   5.175  0.3427 -1.5062  0.6605
  166MOL0     C22303   4.636   6.116   5.084 -0.3733 -0.2350 -0.1995
  166MOL0     C22304   4.437   6.251   5.162 -0.5136 -0.5486 -0.8479
  166MOL0     C22305   4.338   6.225   5.050  0.1455  0.4653  0.4804
  166MOL0     O22306   4.210   6.205   5.086 -0.2378  0.3081  0.1739
  166MOL0     C22307   4.110   6.188   4.995 -0.0580  0.9545  0.7115
  166MOL0     C22308   4.006   6.271   4.999 -0.1257 -0.6863  0.2988
  166MOL0     C22309   3.892   6.254   4.923 -0.3420  0.1445 -0.2096
  166MOL0     C22310   3.884   6.143   4.840 -0.3087  0.5516 -0.3841
  166MOL0     O22311   3.774   6.118   4.757 -0.0395 -0.4768 -0.0066
  166MOL0     C22312   3.635   6.144   4.782 -0.6530 -0.5844  0.7218
  166MOL0     C22313   3.563   6.110   4.652  0.9513 -0.2445  0.7479
  166MOL0     C22314   3.410   6.117   4.682  0.3062 -0.1756 -0.2382
  166MOL0     C22315   3.375   6.272   4.685 -0.1453  0.2480  0.0973
  166MOL0     C22316   3.232   6.283   4.642 -0.2940 -0.2626  0.7985
  166MOL0     C22317   3.129   6.260   4.756 -0.1248  0.7737 -0.3094
  166MOL0     C22318   2.989   6.246   4.689 -0.2288  0.6356  0.0818
  166MOL0     C22319   2.890   6.306   4.786 -0.0348 -0.7393  0.1353
  166MOL0    Cl22320   2.885   6.476   4.773 -0.3042 -0.1487 -0.4402
  166MOL0     C22321   4.005   6.065   4.818 -0.9426  0.0824 -0.0684
  166MOL0     C22322   4.114   6.087   4.903 -0.7165 -0.1175  0.3007
  166MOL0     O22323   4.379   6.230   4.934  0.2378 -0.3341 -0.6439
  166MOL0     C22324   4.379   6.318   5.273 -0.0343 -0.5446 -0.5181
  166MOL0     C22325   4.445   6.357   5.385  0.0115  0.2732  0.3851
  166MOL0     N22326   4.986   6.914   5.538  0.1355  0.6598 -0.5111
  166MOL0     N22327   5.082   6.928   5.456 -0.1388  0.3246  0.0070
  166MOL0     C22328   5.895   6.044   5.588  0.3414  0.0381  0.0420
  166MOL0     C22329   5.999   5.953   5.623 -0.0409 -0.1349  0.6251
  166MOL0     C22330   6.421   5.792   5.562 -0.1281 -0.3380  0.7700
  166MOL0     C22331   6.412   5.688   5.647  0.1938  0.0146  0.1912
  166MOL0     C22332   6.528   5.638   5.698  0.6744  0.5392 -0.6329
  166MOL0     C22333   6.655   5.694   5.677 -0.1890  0.0893  0.1700
  166MOL0     O22334   6.762   5.645   5.755  0.1844 -0.1852 -0.1607
  166MOL0     C22335   6.893   5.699   5.740 -0.7186  0.0885 -0.2501
  166MOL0     C22336   6.982   5.588   5.794 -0.0829  0.0196  0.5822
  166MOL0     C22337   7.125   5.622   5.753 -0.0401  0.0032 -0.0487
  166MOL0     C22338   7.184   5.543   5.637 -0.4435 -0.2131 -0.4802
  166MOL0     C22339   7.318   5.593   5.606 -0.1470 -0.1601  1.0320
  166MOL0     C22340   7.421   5.656   5.595  0.6191 -0.8871 -0.1162
  166MOL0     C22341   6.667   5.790   5.579  0.5038  0.1200 -0.5776
  166MOL0     C22342   6.547   5.844   5.527  0.7700 -1.3848  0.4946
  166MOL0     H22343   6.104   5.867   5.310  1.2588 -2.3029  0.8579
  166MOL0     H22344   5.934   6.046   5.248 -0.7510  0.5412  0.5750
  166MOL0     H22345   5.618   6.136   5.540 -0.6637  0.9147 -0.4042
  166MOL0     H22346   5.744   6.253   5.598  1.3443 -1.7365  0.4064
  166MOL0     H22347   5.561   6.310   5.354  0.0004  2.2359 -0.4385
  166MOL0     H22348   5.520   6.352   5.521 -1.9612 -2.5248 -0.1579
  166MOL0     H22349   5.791   6.439   5.450 -1.0081 -3.0483 -0.0716
  166MOL0     H22350   5.689   6.479   5.312  1.4056 -0.9604  0.5810
  166MOL0     H22351   5.607   6.557   5.594  0.8017 -0.7385  0.2813
  166MOL0     H22352   5.727   6.649   5.496  0.9555 -0.8892 -1.8774
  166MOL0     H22353   5.553   6.668   5.315  1.8596 -0.7928  1.2370
  166MOL0     H22354   5.444   6.563   5.412  0.6277 -1.5996  0.1617
  166MOL0     H22355   5.400   6.736   5.562 -2.2596 -0.6040 -1.6409
  166MOL0     H22356   5.548   6.826   5.517 -2.4261  0.3717  2.8887
  166MOL0     H22357   5.361   6.937   5.453 -0.6581  0.0633  0.2034
  166MOL0     H22358   5.434   6.887   5.294  0.9098  1.5502  1.0335
  166MOL0     H22359   5.268   6.671   5.334 -1.3323 -0.5683 -0.6758
  166MOL0     H22360   5.215   6.809   5.250 -2.3996 -0.5781  0.6116
  166MOL0     H22361   5.121   6.613   5.567  1.9570  0.0212 -1.2824
  166MOL0     H22362   4.982   6.648   5.744 -0.0475  1.1374  2.3050
  166MOL0     H22363   4.912   6.795   5.794  2.6401 -1.0029  1.5441
  166MOL0     H22364   4.762   6.761   5.568  2.8419 -1.3845 -0.5228
  166MOL0     H22365   4.715   6.713   5.730  1.6767  1.1625  1.1938
  166MOL0     H22366   4.789   6.487   5.681 -0.0889  1.0505  0.6522
  166MOL0     H22367   4.859   6.531   5.525  0.6394  2.5070  1.1355
  166MOL0     H22368   4.645   6.578   5.437 -0.1239  0.3861 -0.0609
  166MOL0     H22369   4.567   6.521   5.588 -0.1078 -1.1077 -0.3513
  166MOL0     H22370   4.751   6.233   5.287 -0.0391  1.3825  0.1201
  166MOL0     H22371   4.581   6.084   4.994 -0.9029  0.7383 -0.2356
  166MOL0     H22372   4.720   6.168   5.037 -2.1553  1.1112 -2.1006
  166MOL0     H22373   4.667   6.020   5.126  0.8820 -0.9144 -2.4996
  166MOL0     H22374   4.028   6.346   5.076  0.3290 -1.0240  0.5006
  166MOL0     H22375   3.813   6.328   4.929  0.1429  0.6844 -0.4168
  166MOL0     H22376   3.592   6.088   4.866 -0.2842 -1.7040  0.1789
  166MOL0     H22377   3.616   6.248   4.811  1.5366 -0.3728  1.5383
  166MOL0     H22378   3.592   6.174   4.569  4.1376 -0.9366  1.2208
  166MOL0     H22379   3.592   6.008   4.626  1.3241  0.0735 -0.1238
  166MOL0     H22380   3.381   6.074   4.779 -2.5530  3.0590  0.5231
  166MOL0     H22381   3.361   6.076   4.594  0.7927  1.1125 -1.1349
  166MOL0     H22382   3.398   6.317   4.782 -0.3955 -0.7233  0.6236
  166MOL0     H22383   3.441   6.326   4.616  0.3527 -2.1516 -1.4193
  166MOL0     H22384   3.218   6.215   4.558  0.1338 -0.5709  0.9752
  166MOL0     H22385   3.204   6.385   4.614 -1.5043  0.1386  3.2158
  166MOL0     H22386   3.155   6.172   4.815  1.7259  1.8487  0.5819
  166MOL0     H22387   3.131   6.346   4.824 -0.5627  0.1987  0.4434
  166MOL0     H22388   2.955   6.143   4.675  0.5256  0.3467  0.3460
  166MOL0     H22389   2.980   6.309   4.599 -0.7799  0.3195 -0.0915
  166MOL0     H22390   2.916   6.285   4.890 -0.4676  0.1446  0.4266
  166MOL0     H22391   2.798   6.250   4.764  0.4448 -1.0167 -1.3127
  166MOL0     H22392   4.000   5.971   4.763 -1.7816  0.3045 -0.3925
  166MOL0     H22393   4.200   6.021   4.891 -0.2407  0.2484  1.5573
  166MOL0     H22394   4.276   6.352   5.273  0.2033  0.2251  0.3797
  166MOL0     H22395   4.388   6.410   5.460 -0.6563 -0.6697  0.5667
  166MOL0     H22396   5.853   6.090   5.677 -0.1738 -0.4729  0.0638
  166MOL0     H22397   6.025   5.927   5.725 -0.9174 -1.6372  0.4855
  166MOL0     H22398   6.319   5.642   5.676 -0.3985  0.7324 -0.5138
  166MOL0     H22399   6.532   5.558   5.772  0.6622  1.1206  0.0062
  166MOL0     H22400   6.925   5.715   5.637  3.6528  1.8245  1.1564
  166MOL0     H22401   6.902   5.797   5.787 -2.7822  0.9570 -1.4984
  166MOL0     H22402   6.954   5.488   5.761  0.2780  1.2356 -4.1577
  166MOL0     H22403   6.977   5.579   5.903  1.3237 -3.2080  0.4943
  166MOL0     H22404   7.198   5.597   5.830  0.2303  0.2310 -0.2298
  166MOL0     H22405   7.136   5.730   5.744  1.6058 -0.1759 -0.5323
  166MOL0     H22406   7.112   5.551   5.555 -0.6961 -0.7097 -0.3131
  166MOL0     H22407   7.191   5.437   5.662  0.2012  0.1881  1.1709
  166MOL0     H22408   7.513   5.709   5.611  0.4043  0.4458 -2.6896
  166MOL0     H22409   6.765   5.831   5.553  0.2794  0.3624 -1.0627
  166MOL0     H22410   6.544   5.932   5.463 -2.3992 -2.3311 -0.8562
  167MOL0     O22411   8.619   0.609   1.470  0.2038  0.0857 -0.0778
  167MOL0     C22412   8.680   0.504   1.483 -0.3727  0.8729 -0.6434
  167MOL0     O22413   8.707   0.412   1.392  0.6846 -0.2930  0.7732
  167MOL0     C22414   8.703   0.447   1.258  0.3694  0.7671 -0.4775
  167MOL0     C22415   8.653   0.355   1.173 -0.8006 -0.0878 -0.5755
  167MOL0     C22416   8.642   0.382   1.041 -0.1000 -0.3654  0.1165
  167MOL0     C22417   8.672   0.514   0.987  0.0219  0.5490 -0.2584
  167MOL0     O22418   8.685   0.537   0.855  0.0991  1.1415  0.1159
  167MOL0     C22419   8.648   0.670   0.822 -0.1030  0.0714  0.9310
  167MOL0     C22420   8.585   0.688   0.684  0.0624  0.7975  0.0611
  167MOL0     C22421   8.667   0.626   0.576 -0.7218  0.0944 -0.0645
  167MOL0     C22422   8.677   0.706   0.445  0.1234 -0.3719  0.3024
  167MOL0     C22423   8.772   0.643   0.351  0.3242  0.2658 -0.0407
  167MOL0     C22424   8.771   0.692   0.202  0.3160  0.4227  0.0193
  167MOL0     C22425   8.884   0.627   0.118  0.0378 -0.1965  0.2307
  167MOL0     C22426   8.852   0.649  -0.032  0.0747 -0.0906 -0.4681
  167MOL0     N22427   8.968   0.682  -0.118 -0.6406  0.5642 -0.2404
  167MOL0     C22428   8.977   0.648  -0.254  0.6278 -0.7717 -0.3251
  167MOL0     C22429   9.085   0.723  -0.294  1.0593  0.3889  0.1678
  167MOL0     C22430   9.143   0.697  -0.426  0.2569  0.0755 -0.2539
  167MOL0     C22431   9.077   0.772  -0.546 -0.6349  0.1628 -0.0405
  167MOL0     C22432   9.133   0.915  -0.552 -0.7161  0.1239  0.2017
  167MOL0     C22433   9.283   0.938  -0.573 -0.1209  0.0593  0.3870
  167MOL0     O22434   9.314   0.901  -0.709  0.1506 -0.3405 -0.0079
  167MOL0     C22435   9.444   0.868  -0.734 -0.1090  0.5610 -1.5117
  167MOL0     C22436   9.553   0.894  -0.648  0.4823  0.6907  0.1066
  167MOL0     C22437   9.691   0.886  -0.698 -0.1585 -0.1756 -0.3196
  167MOL0     C22438   9.801   0.884  -0.587 -0.4446 -0.4755  0.2946
  167MOL0     C22439   9.715   0.847  -0.831  0.4064 -0.9640 -0.2284
  167MOL0     C22440   9.853   0.825  -0.894 -0.1840  0.4999 -0.1824
  167MOL0     O22441   9.865   0.721  -0.982 -0.1838  0.1514  0.2485
  167MOL0     C22442   9.959   0.727  -1.079 -0.2476  0.5611 -0.2120
  167MOL0     C22443  10.033   0.606  -1.097  0.5445  0.2448 -0.4078
  167MOL0     C22444  10.139   0.599  -1.191  1.0098 -0.3880  0.2350
  167MOL0     C22445  10.164   0.716  -1.268  0.2944 -0.0391 -0.3815
  167MOL0     O22446  10.256   0.714  -1.365  0.5136 -0.3529 -0.2671
  167MOL0     C22447  10.337   0.830  -1.381 -0.0946 -0.5023  0.6412
  167MOL0     C22448  10.477   0.784  -1.407 -0.8390  0.4119 -0.5537
  167MOL0     C22449  10.569   0.899  -1.403  0.2096 -0.5247  0.0125
  167MOL0     C22450  10.711   0.864  -1.428  0.2657  0.3977 -0.1828
  167MOL0     C22451  10.790   0.989  -1.433 -0.0591 -0.4751  1.0639
  167MOL0     C22452  10.936   0.980  -1.429  0.6150 -0.3242 -0.7996
  167MOL0     C22453  10.994   0.904  -1.543 -0.2450 -0.1667  0.3571
  167MOL0     C22454  11.147   0.925  -1.555  0.2976  0.4245  0.4162
  167MOL0    Cl22455  11.223   0.909  -1.387  0.1792  0.2748  0.0780
  167MOL0     C22456  10.088   0.837  -1.241 -0.9607  0.1204  0.5540
  167MOL0     C22457   9.992   0.847  -1.144  0.7369  0.2919  0.8741
  167MOL0     O22458   9.950   0.887  -0.854 -0.3120 -0.6879 -0.4112
  167MOL0     C22459   9.606   0.817  -0.908 -0.4740  0.0304  0.1426
  167MOL0     C22460   9.473   0.830  -0.867  0.0698  0.5372 -0.2998
  167MOL0     N22461   9.146   0.787  -0.180  0.1110  0.4707  0.2901
  167MOL0     N22462   9.072   0.756  -0.077  0.5682  1.0131 -0.2522
  167MOL0     C22463   8.731   0.600   1.077 -0.4458  0.2391 -0.1850
  167MOL0     C22464   8.747   0.568   1.214  0.1979  0.4102  0.2739
  167MOL0     C22465   8.731   0.476   1.623  0.7602  0.5535 -0.2642
  167MOL0     C22466   8.797   0.359   1.642  0.3540  0.4453  0.1859
  167MOL0     C22467   8.832   0.322   1.770  0.3050  0.7693  0.4601
  167MOL0     C22468   8.778   0.388   1.881 -1.0034 -0.4336 -0.1843
  167MOL0     O22469   8.795   0.327   1.998  0.6616 -0.3414 -0.4476
  167MOL0     C22470   8.708   0.359   2.101  0.7260  0.6930 -0.1122
  167MOL0     C22471   8.731   0.252   2.208 -0.2893 -0.6516 -0.3518
  167MOL0     C22472   8.722   0.105   2.166  0.2849  0.3715  0.5890
  167MOL0     C22473   8.769   0.013   2.278  0.5725 -0.1035  0.1093
  167MOL0     C22474   8.758  -0.127   2.239  0.4173 -0.3657  0.5995
  167MOL0     C22475   8.726  -0.237   2.208 -0.7950 -0.4174  0.2515
  167MOL0     C22476   8.717   0.511   1.869 -0.4726  0.1247  0.0018
  167MOL0     C22477   8.701   0.563   1.738 -1.1982  0.1980  0.4564
  167MOL0     H22478   8.621   0.262   1.217 -1.4336  1.5891  2.7837
  167MOL0     H22479   8.606   0.301   0.978  0.9691 -0.9539  0.2383
  167MOL0     H22480   8.573   0.715   0.887  0.7772  0.5303  1.6466
  167MOL0     H22481   8.736   0.734   0.823  0.9388 -1.0661 -2.4680
  167MOL0     H22482   8.492   0.631   0.693  1.7687 -2.0952  0.9444
  167MOL0     H22483   8.572   0.795   0.663  0.0994  0.6190 -0.9013
  167MOL0     H22484   8.768   0.631   0.618 -0.6689  1.0244 -0.2678
  167MOL0     H22485   8.647   0.520   0.557  0.8189  0.0287 -1.7016
  167MOL0     H22486   8.578   0.701   0.400 -0.9673  2.2356  2.1494
  167MOL0     H22487   8.713   0.808   0.464  1.4618 -0.6568 -0.5864
  167MOL0     H22488   8.871   0.671   0.386 -0.3992  1.5814  1.0558
  167MOL0     H22489   8.758   0.535   0.344 -0.9853  0.4259 -0.2091
  167MOL0     H22490   8.669   0.675   0.165 -0.0866  1.0978  0.7899
  167MOL0     H22491   8.773   0.801   0.208 -0.8083  0.3541  2.8262
  167MOL0     H22492   8.981   0.665   0.151 -0.6835  0.2876  1.8754
  167MOL0     H22493   8.876   0.519   0.135 -2.7552  0.0585  1.0438
  167MOL0     H22494   8.783   0.732  -0.045 -1.4893 -1.5254 -1.8792
  167MOL0     H22495   8.805   0.559  -0.073 -0.3523 -0.5422  0.9492
  167MOL0     H22496   8.909   0.584  -0.309 -0.7217 -0.4670  0.9132
  167MOL0     H22497   9.252   0.714  -0.425 -0.0467  2.7658 -1.9629
  167MOL0     H22498   9.138   0.589  -0.445  2.2569 -0.3319  1.1897
  167MOL0     H22499   8.968   0.774  -0.540 -0.8769 -0.4570 -2.8711
  167MOL0     H22500   9.095   0.726  -0.644 -0.1153 -0.1757  0.2113
  167MOL0     H22501   9.113   0.947  -0.449 -0.4511 -1.5897  0.8283
  167MOL0     H22502   9.082   0.974  -0.628  0.8486 -1.3524 -2.0995
  167MOL0     H22503   9.338   0.879  -0.500 -0.3419 -0.7363 -0.0785
  167MOL0     H22504   9.310   1.044  -0.568  3.3331 -0.7076  0.6410
  167MOL0     H22505   9.545   0.934  -0.548 -0.1871  0.0531  0.3170
  167MOL0     H22506   9.766   0.944  -0.502  0.8972 -0.8545  1.1478
  167MOL0     H22507   9.840   0.784  -0.568 -0.9867 -0.2293  3.0957
  167MOL0     H22508   9.883   0.948  -0.620  0.5175 -1.8974 -0.1524
  167MOL0     H22509  10.000   0.517  -1.045  0.7828  0.1481 -0.4218
  167MOL0     H22510  10.182   0.505  -1.225  2.5942  1.1099 -2.1608
  167MOL0     H22511  10.297   0.897  -1.458  0.9624 -2.2479 -1.5349
  167MOL0     H22512  10.338   0.899  -1.296 -0.8428  1.9090 -1.1805
  167MOL0     H22513  10.507   0.706  -1.337  1.1704 -0.5491 -2.3782
  167MOL0     H22514  10.468   0.736  -1.504 -1.3115 -3.0968  1.0738
  167MOL0     H22515  10.563   0.937  -1.300 -0.5611  0.0386 -0.2223
  167MOL0     H22516  10.545   0.982  -1.471 -2.2322 -0.0046  1.3835
  167MOL0     H22517  10.760   0.821  -1.340  0.5968  1.7256  0.2957
  167MOL0     H22518  10.725   0.808  -1.522 -0.4947  0.4745 -0.3424
  167MOL0     H22519  10.759   1.046  -1.345 -1.1865  0.1361  0.2993
  167MOL0     H22520  10.778   1.046  -1.526  0.8629  0.5324  1.5357
  167MOL0     H22521  10.978   1.081  -1.431  1.8240 -0.6673  1.8138
  167MOL0     H22522  10.968   0.949  -1.329  2.6395 -0.9485 -1.5939
  167MOL0     H22523  10.930   0.916  -1.631 -0.3978 -0.8315  0.3729
  167MOL0     H22524  10.981   0.800  -1.513 -2.3333  0.5931  2.3920
  167MOL0     H22525  11.168   1.023  -1.599 -2.5006  1.3269  0.8816
  167MOL0     H22526  11.186   0.847  -1.621 -2.4311  0.9623 -2.0340
  167MOL0     H22527  10.091   0.929  -1.298 -2.8007  1.9421  3.1651
  167MOL0     H22528   9.929   0.935  -1.133  3.7575  3.1276 -1.9858
  167MOL0     H22529   9.607   0.788  -1.013  2.2843 -0.3837  0.2200
  167MOL0     H22530   9.396   0.806  -0.940  1.0836 -0.8684 -0.9479
  167MOL0     H22531   8.758   0.702   1.051 -1.8463  0.9111  0.8786
  167MOL0     H22532   8.793   0.635   1.286 -1.5661  5.6702 -2.9237
  167MOL0     H22533   8.820   0.282   1.569  0.7885  0.6402  0.1133
  167MOL0     H22534   8.875   0.224   1.791  0.3582  1.1766  2.4103
  167MOL0     H22535   8.727   0.458   2.144  0.3409  0.1038  1.5186
  167MOL0     H22536   8.604   0.358   2.068  1.2344  0.8385 -1.8234
  167MOL0     H22537   8.659   0.261   2.290 -1.1774  2.5089 -1.3510
  167MOL0     H22538   8.833   0.267   2.241 -0.4065 -3.3746  1.5911
  167MOL0     H22539   8.781   0.079   2.077 -0.4549 -2.7326  0.8798
  167MOL0     H22540   8.616   0.084   2.146  0.9039 -1.7676 -0.9476
  167MOL0     H22541   8.699   0.027   2.361 -0.1168 -0.9779 -0.3010
  167MOL0     H22542   8.867   0.044   2.317  0.8708 -1.6847  0.7221
  167MOL0     H22543   8.677  -0.329   2.185 -0.5496 -0.7245  0.9333
  167MOL0     H22544   8.695   0.574   1.955  0.0904 -1.3814  1.2968
  167MOL0     H22545   8.659   0.662   1.724 -3.0973 -0.8527 -1.9810
  168MOL0     O22546   4.214   2.588   8.710  0.8213 -0.0135 -0.5536
  168MOL0     C22547   4.310   2.606   8.785  0.3891  0.2103  1.3112
  168MOL0     O22548   4.325   2.558   8.909 -0.3900 -0.6108 -0.3118
  168MOL0     C22549   4.246   2.455   8.963 -0.3234  0.2728 -0.7121
  168MOL0     C22550   4.134   2.385   8.905  0.1683 -0.2730  0.0338
  168MOL0     C22551   4.081   2.275   8.970 -0.0853  0.2348  0.4664
  168MOL0     C22552   4.119   2.237   9.099  0.2853 -0.7969  0.6375
  168MOL0     O22553   4.051   2.133   9.149 -0.6604 -0.0159  0.2978
  168MOL0     C22554   4.050   2.113   9.292 -0.1480  0.3213  0.2269
  168MOL0     C22555   3.947   2.019   9.347 -0.4919 -0.2358  0.0890
  168MOL0     C22556   3.971   1.873   9.313  0.0698 -0.2781  0.0679
  168MOL0     C22557   3.853   1.797   9.373 -0.5190  0.1389 -0.2104
  168MOL0     C22558   3.881   1.649   9.384  0.0878  0.4918  0.2240
  168MOL0     C22559   3.740   1.586   9.395 -0.0232  0.4181 -0.1025
  168MOL0     C22560   3.764   1.449   9.468 -0.3074 -0.5662 -0.1632
  168MOL0     C22561   3.624   1.404   9.500  0.8554 -0.2019  0.2390
  168MOL0     N22562   3.552   1.341   9.389  0.6026 -0.0501  0.4464
  168MOL0     C22563   3.426   1.281   9.402 -0.3922  0.0930 -0.4284
  168MOL0     C22564   3.411   1.216   9.284  0.2689  0.1333 -1.1336
  168MOL0     C22565   3.291   1.138   9.234 -0.6349  0.4531  0.6404
  168MOL0     C22566   3.155   1.169   9.290 -0.6632 -0.4299  0.4737
  168MOL0     C22567   3.077   1.258   9.195 -0.5245  0.9837 -0.3792
  168MOL0     C22568   2.931   1.282   9.240 -0.4228  0.8233  0.0310
  168MOL0     O22569   2.851   1.342   9.132 -0.0192  0.0213 -0.1320
  168MOL0     C22570   2.717   1.349   9.156 -0.4870  0.2421 -0.1453
  168MOL0     C22571   2.662   1.391   9.281  0.4230 -0.4358 -0.0181
  168MOL0     C22572   2.525   1.401   9.299  0.1545 -0.0284 -0.0154
  168MOL0     C22573   2.475   1.453   9.432 -0.5915 -0.4381  0.3609
  168MOL0     C22574   2.431   1.360   9.197  0.4807  0.2661 -0.3110
  168MOL0     C22575   2.286   1.336   9.213  0.5092 -0.0045  0.0008
  168MOL0     O22576   2.222   1.272   9.105 -0.1255  0.0165  0.4558
  168MOL0     C22577   2.089   1.263   9.113  0.7520 -0.1310  0.3553
  168MOL0     C22578   2.015   1.363   9.057 -0.7692 -0.2294 -0.2592
  168MOL0     C22579   1.874   1.363   9.066  0.3021  0.0251  0.5090
  168MOL0     C22580   1.806   1.253   9.127 -1.1288 -0.4936  0.5118
  168MOL0     O22581   1.664   1.256   9.151 -0.1860  0.0166 -0.7123
  168MOL0     C22582   1.585   1.279   9.034  0.0030  0.3276 -0.3328
  168MOL0     C22583   1.439   1.278   9.069 -0.1255  0.3310 -0.5577
  168MOL0     C22584   1.354   1.328   8.957  0.7042  0.7069  0.8090
  168MOL0     C22585   1.209   1.310   8.996  0.1228  0.4205  1.1603
  168MOL0     C22586   1.140   1.295   8.860 -0.0976 -0.7350  1.2046
  168MOL0     C22587   0.988   1.328   8.857 -0.8638  0.2588  0.0763
  168MOL0     C22588   0.963   1.475   8.850  0.9633  0.1715 -0.3939
  168MOL0     C22589   0.815   1.512   8.858  0.3082 -0.6826 -0.7782
  168MOL0    Cl22590   0.728   1.473   8.706 -0.1346  0.3364 -0.1718
  168MOL0     C22591   1.889   1.155   9.194  0.0636 -0.5250  0.6453
  168MOL0     C22592   2.029   1.157   9.178  0.2901 -0.2336 -0.6932
  168MOL0     O22593   2.231   1.394   9.307  0.0193  0.3217 -0.5945
  168MOL0     C22594   2.492   1.305   9.080 -0.2296  0.8374 -0.4392
  168MOL0     C22595   2.628   1.306   9.060  0.5408 -0.4142 -0.6547
  168MOL0     N22596   3.523   1.237   9.206 -0.8486  0.7458 -0.0006
  168MOL0     N22597   3.602   1.311   9.263 -0.0108  0.0727  0.0352
  168MOL0     C22598   4.223   2.312   9.155  0.4093  0.1460  0.0612
  168MOL0     C22599   4.289   2.411   9.087  0.0075  0.9497  0.4312
  168MOL0     C22600   4.425   2.677   8.731 -0.1770 -0.4549  0.6947
  168MOL0     C22601   4.548   2.682   8.802  0.2303 -0.0915  0.1101
  168MOL0     C22602   4.662   2.742   8.750  0.0608 -0.2654  0.8715
  168MOL0     C22603   4.662   2.802   8.624 -0.3233  0.1523 -0.4948
  168MOL0     O22604   4.785   2.829   8.566  0.1303 -0.2197 -0.0390
  168MOL0     C22605   4.797   2.830   8.422 -0.3676 -1.0508  0.6003
  168MOL0     C22606   4.950   2.827   8.380  0.2185  0.6292  0.4563
  168MOL0     C22607   4.996   2.921   8.266 -0.4641 -0.8105  0.0371
  168MOL0     C22608   5.143   2.919   8.251  0.0415  0.2034  0.4888
  168MOL0     C22609   5.212   2.978   8.368  0.1748 -0.5292 -0.1325
  168MOL0     C22610   5.262   3.027   8.468  0.8630 -0.0264 -0.0588
  168MOL0     C22611   4.545   2.806   8.554 -0.1773  1.3228  0.5844
  168MOL0     C22612   4.425   2.742   8.602 -0.8469 -0.2931 -0.2094
  168MOL0     H22613   4.097   2.402   8.804 -2.9997 -2.9732  0.5613
  168MOL0     H22614   4.001   2.214   8.930 -1.1439  2.7035 -1.4253
  168MOL0     H22615   4.151   2.089   9.327  0.4441  3.1610  0.7634
  168MOL0     H22616   4.019   2.210   9.331 -0.5505  0.1569  0.3168
  168MOL0     H22617   3.947   2.028   9.456 -0.7292 -2.0391  0.2737
  168MOL0     H22618   3.849   2.063   9.323  0.9671  3.4613  0.2887
  168MOL0     H22619   3.976   1.854   9.206  0.0164  1.3658 -0.2555
  168MOL0     H22620   4.066   1.857   9.365  0.2836  1.6081  0.3457
  168MOL0     H22621   3.824   1.826   9.475 -0.5199 -0.4382 -0.0418
  168MOL0     H22622   3.771   1.825   9.307 -1.7733  2.3077  2.0829
  168MOL0     H22623   3.934   1.601   9.301 -0.2663 -1.1868  0.9476
  168MOL0     H22624   3.939   1.629   9.474 -0.2150 -2.0876 -0.0819
  168MOL0     H22625   3.674   1.656   9.449 -0.0162  0.0014  0.4626
  168MOL0     H22626   3.694   1.569   9.297 -1.0493 -0.0338  0.4343
  168MOL0     H22627   3.806   1.374   9.400 -1.6007 -1.3339 -0.1518
  168MOL0     H22628   3.812   1.453   9.566  0.7376 -0.5297 -0.6592
  168MOL0     H22629   3.577   1.496   9.537  3.6409  0.6512  2.0228
  168MOL0     H22630   3.623   1.340   9.588  1.3756  1.3635  1.4409
  168MOL0     H22631   3.359   1.278   9.488  0.5984  4.0655  0.7102
  168MOL0     H22632   3.292   1.140   9.125 -1.1472 -1.4053  0.5711
  168MOL0     H22633   3.315   1.036   9.264 -1.7006 -1.3845 -3.9368
  168MOL0     H22634   3.171   1.205   9.392  0.3459  1.2832 -0.2547
  168MOL0     H22635   3.098   1.076   9.303 -0.5503 -0.6451 -0.4586
  168MOL0     H22636   3.076   1.211   9.097 -0.0299 -0.5716  0.3373
  168MOL0     H22637   3.139   1.344   9.169  2.2715 -1.0798 -0.9087
  168MOL0     H22638   2.937   1.356   9.320 -1.0603  1.6671 -0.6891
  168MOL0     H22639   2.887   1.188   9.275  1.9058 -0.8689 -1.2456
  168MOL0     H22640   2.734   1.423   9.356  0.7144 -1.9700  0.3854
  168MOL0     H22641   2.426   1.364   9.474 -0.2130 -1.4722 -1.3144
  168MOL0     H22642   2.557   1.494   9.492  1.1875 -1.8711 -0.9839
  168MOL0     H22643   2.418   1.546   9.424 -1.1546 -0.7784  0.3219
  168MOL0     H22644   2.062   1.448   9.006  0.3682 -0.1379  0.8826
  168MOL0     H22645   1.821   1.444   9.018 -2.7846 -0.9748  1.9464
  168MOL0     H22646   1.610   1.379   8.997 -1.0616  1.5811  2.1430
  168MOL0     H22647   1.605   1.200   8.961  0.2222  1.0993 -1.1353
  168MOL0     H22648   1.418   1.175   9.100  0.2271  0.1262 -0.9991
  168MOL0     H22649   1.418   1.332   9.162 -0.4894 -1.4339  0.4141
  168MOL0     H22650   1.386   1.283   8.863  0.4394  0.3477  0.8883
  168MOL0     H22651   1.369   1.435   8.942 -0.3435  0.8398  0.6438
  168MOL0     H22652   1.199   1.219   9.056 -0.9160 -1.6907 -1.9627
  168MOL0     H22653   1.166   1.393   9.052  0.0395  1.5533 -0.4999
  168MOL0     H22654   1.150   1.192   8.824 -1.5264 -0.1844 -0.9892
  168MOL0     H22655   1.190   1.348   8.779 -2.1346 -0.2289  0.1953
  168MOL0     H22656   0.943   1.292   8.764 -2.0821  0.2823  0.6441
  168MOL0     H22657   0.943   1.294   8.951  1.3618  2.8609  2.2433
  168MOL0     H22658   1.011   1.520   8.762  0.5120  1.9136  0.2118
  168MOL0     H22659   1.015   1.511   8.939 -0.6142 -0.5103  0.8540
  168MOL0     H22660   0.818   1.621   8.868  0.7584 -0.5742 -2.0055
  168MOL0     H22661   0.759   1.467   8.940 -0.1672  1.2563  0.0282
  168MOL0     H22662   1.842   1.070   9.243 -0.0462 -0.0821  1.3238
  168MOL0     H22663   2.092   1.078   9.217 -0.4711 -0.4624  0.1150
  168MOL0     H22664   2.427   1.256   9.009  0.4804 -3.0170  1.2843
  168MOL0     H22665   2.665   1.266   8.966  2.3410  2.2629 -1.2095
  168MOL0     H22666   4.265   2.286   9.252  2.6106  0.2560 -0.8153
  168MOL0     H22667   4.362   2.469   9.142 -1.5430  0.3840  3.3080
  168MOL0     H22668   4.567   2.633   8.897 -1.8993  1.5810  1.5146
  168MOL0     H22669   4.758   2.735   8.801  0.1962 -1.3068  0.5011
  168MOL0     H22670   4.740   2.752   8.371 -0.5246 -1.4499  1.3740
  168MOL0     H22671   4.768   2.925   8.377  2.2857 -0.1314  0.6919
  168MOL0     H22672   4.968   2.726   8.343  0.5043  0.8514 -0.0142
  168MOL0     H22673   5.003   2.844   8.474  0.0105 -1.0987  0.9293
  168MOL0     H22674   4.957   3.019   8.293 -2.0188 -1.2540 -0.4894
  168MOL0     H22675   4.957   2.887   8.170 -0.4539  2.3571 -1.1858
  168MOL0     H22676   5.189   2.966   8.164 -1.0660  1.8328  0.7323
  168MOL0     H22677   5.170   2.813   8.256 -0.9485 -0.0394  1.0561
  168MOL0     H22678   5.326   3.080   8.534 -0.0284  0.8106  0.1559
  168MOL0     H22679   4.541   2.856   8.458 -1.5755 -0.1465 -0.1640
  168MOL0     H22680   4.352   2.736   8.522 -1.3464 -1.4346  0.3108
  169MOL0     O22681   3.368  10.842   2.759  0.4696  0.5927  1.3729
  169MOL0     C22682   3.420  10.751   2.820 -0.0301 -0.0882 -0.4296
  169MOL0     O22683   3.354  10.644   2.872  0.0699  0.1956 -0.1803
  169MOL0     C22684   3.220  10.621   2.851 -0.2552  0.0650 -0.4291
  169MOL0     C22685   3.120  10.725   2.833  0.3838  0.0209  0.0943
  169MOL0     C22686   2.985  10.676   2.839 -0.4517  0.9087  0.3552
  169MOL0     C22687   2.951  10.550   2.885  0.0952  0.4874  0.5697
  169MOL0     O22688   2.817  10.522   2.899  1.1365 -0.5150  0.1285
  169MOL0     C22689   2.775  10.385   2.905  0.5088  0.3093  0.0406
  169MOL0     C22690   2.758  10.349   3.050  0.1033  0.2439 -0.5657
  169MOL0     C22691   2.619  10.380   3.106  0.3780  0.0098  0.7462
  169MOL0     C22692   2.517  10.281   3.048 -0.1480  0.4222 -0.1603
  169MOL0     C22693   2.377  10.305   3.099 -0.2980  0.0898 -0.2177
  169MOL0     C22694   2.324  10.458   3.078  1.3079  1.0154  0.1829
  169MOL0     C22695   2.190  10.490   3.133  0.3274  0.9356 -0.0950
  169MOL0     C22696   2.076  10.440   3.044 -0.0218  0.2928  0.8935
  169MOL0     N22697   1.956  10.425   3.131  0.9731 -0.2584  0.2373
  169MOL0     C22698   1.845  10.503   3.132 -0.3229 -0.1313  0.8653
  169MOL0     C22699   1.760  10.457   3.224  0.6129  0.8119 -0.9719
  169MOL0     C22700   1.619  10.498   3.249 -0.1416 -0.0893  0.2684
  169MOL0     C22701   1.598  10.471   3.392 -0.8775  0.5005 -0.3772
  169MOL0     C22702   1.486  10.553   3.462  0.2249 -0.6915 -0.1309
  169MOL0     C22703   1.358  10.546   3.377  0.3888 -0.0080 -0.3783
  169MOL0     O22704   1.303  10.412   3.376  0.0800  0.3590  0.3119
  169MOL0     C22705   1.168  10.411   3.354 -0.1542  0.3711  0.6998
  169MOL0     C22706   1.134  10.425   3.219  0.6271  0.1747 -0.4184
  169MOL0     C22707   0.998  10.425   3.184 -1.0368  1.4596 -0.0459
  169MOL0     C22708   0.966  10.420   3.036 -0.2539  0.3796 -0.2170
  169MOL0     C22709   0.897  10.412   3.288  0.0538  0.1475 -0.6576
  169MOL0     C22710   0.747  10.411   3.261  0.5405 -0.6273 -0.0764
  169MOL0     O22711   0.668  10.476   3.358  0.8857 -0.1752  0.4925
  169MOL0     C22712   0.528  10.467   3.344  0.3856 -0.1702  0.3791
  169MOL0     C22713   0.453  10.571   3.289 -0.2079 -0.0557  0.4097
  169MOL0     C22714   0.314  10.560   3.275  0.8514  0.1252 -0.1536
  169MOL0     C22715   0.245  10.437   3.313 -0.8835  0.0451  0.2669
  169MOL0     O22716   0.111  10.433   3.298 -0.6530 -0.5956 -0.5818
  169MOL0     C22717   0.037  10.336   3.383  0.4379 -0.5951  0.4663
  169MOL0     C22718  -0.107  10.366   3.366  0.8533  0.3903  0.2521
  169MOL0     C22719  -0.148  10.504   3.404  0.0703 -0.3765  0.3151
  169MOL0     C22720  -0.170  10.509   3.553  0.4081 -0.6955 -1.0009
  169MOL0     C22721  -0.198  10.657   3.584 -0.4897  1.0989 -0.1684
  169MOL0     C22722  -0.272  10.669   3.717 -0.0641 -0.0422 -0.0495
  169MOL0     C22723  -0.209  10.618   3.843 -0.4042 -0.3385 -0.1135
  169MOL0     C22724  -0.307  10.638   3.956 -0.6172  0.3832 -0.0294
  169MOL0    Cl22725  -0.439  10.516   3.930  1.1205  0.1616  0.2369
  169MOL0     C22726   0.323  10.336   3.376  1.5016 -0.9579  0.5240
  169MOL0     C22727   0.463  10.350   3.394  0.5579 -0.3137 -0.0654
  169MOL0     O22728   0.706  10.354   3.154  0.2607 -0.3789  0.2647
  169MOL0     C22729   0.936  10.413   3.424 -0.8671 -0.4758 -0.2783
  169MOL0     C22730   1.071  10.415   3.455  0.2084 -0.2342 -0.0105
  169MOL0     N22731   1.831  10.356   3.289 -0.3308 -0.0382  0.6037
  169MOL0     N22732   1.943  10.339   3.233  0.0705  0.7434  0.1400
  169MOL0     C22733   3.054  10.462   2.917 -0.2710 -0.4802 -0.5012
  169MOL0     C22734   3.187  10.488   2.883 -0.4369  0.2600  1.3476
  169MOL0     C22735   3.569  10.765   2.833  0.7640  0.1801 -0.7301
  169MOL0     C22736   3.621  10.902   2.810 -0.5101  0.2295 -0.2633
  169MOL0     C22737   3.761  10.920   2.828 -0.4977  0.2301  0.6794
  169MOL0     C22738   3.854  10.810   2.850 -0.0209 -0.4769 -0.0854
  169MOL0     O22739   3.985  10.843   2.860  0.1147 -0.7786  0.7282
  169MOL0     C22740   4.082  10.742   2.849  0.6067 -0.1250  0.5374
  169MOL0     C22741   4.218  10.816   2.819  0.3897  0.5598 -0.3349
  169MOL0     C22742   4.332  10.722   2.793 -0.2564 -0.7164 -0.1737
  169MOL0     C22743   4.342  10.616   2.905  0.5484 -0.7858 -0.2618
  169MOL0     C22744   4.460  10.540   2.882  0.1049  0.1910  0.1440
  169MOL0     C22745   4.557  10.468   2.857  0.4295 -0.3313 -0.6211
  169MOL0     C22746   3.802  10.691   2.886  0.5710  0.1661  0.1904
  169MOL0     C22747   3.660  10.664   2.865 -0.6926 -0.5038 -0.7519
  169MOL0     H22748   3.140  10.830   2.818  1.7910 -0.3376 -0.7754
  169MOL0     H22749   2.908  10.750   2.819 -1.6004 -0.1975  0.5705
  169MOL0     H22750   2.689  10.370   2.840 -1.8801 -0.1758  3.0687
  169MOL0     H22751   2.848  10.312   2.868  1.1086  0.1725  1.4160
  169MOL0     H22752   2.765  10.240   3.063 -1.2040  0.4175  2.3008
  169MOL0     H22753   2.833  10.394   3.116  1.6149 -1.6080 -0.9240
  169MOL0     H22754   2.624  10.364   3.214  1.4707 -0.2150  0.6772
  169MOL0     H22755   2.596  10.485   3.087 -1.7654 -0.4498  0.5488
  169MOL0     H22756   2.513  10.279   2.939  1.4840 -1.4655 -0.2522
  169MOL0     H22757   2.546  10.185   3.092  0.2383  1.0089  0.9091
  169MOL0     H22758   2.301  10.238   3.058 -0.4033  1.0189 -1.6252
  169MOL0     H22759   2.382  10.280   3.205  0.5406  1.1003  0.0058
  169MOL0     H22760   2.391  10.524   3.132 -2.9521  2.5576  4.2296
  169MOL0     H22761   2.325  10.494   2.974  0.1792 -1.4673 -0.7814
  169MOL0     H22762   2.189  10.427   3.223  2.3280  0.5681 -0.2853
  169MOL0     H22763   2.181  10.594   3.165 -1.7265  0.3412  1.4959
  169MOL0     H22764   2.102  10.339   3.010 -3.0852 -1.2565  2.6826
  169MOL0     H22765   2.066  10.511   2.962  0.4661 -1.9250 -1.2100
  169MOL0     H22766   1.813  10.572   3.055 -0.3971 -1.2754 -0.1611
  169MOL0     H22767   1.599  10.604   3.231 -0.3898  0.1930  1.9731
  169MOL0     H22768   1.551  10.430   3.198 -0.5118  0.8864 -0.5700
  169MOL0     H22769   1.687  10.488   3.454  0.1281 -2.6302 -0.7562
  169MOL0     H22770   1.578  10.365   3.409 -0.5898  0.4414 -0.3976
  169MOL0     H22771   1.511  10.660   3.463  0.2417 -0.6784 -0.9315
  169MOL0     H22772   1.476  10.524   3.567 -0.8438  2.5893  0.7843
  169MOL0     H22773   1.372  10.575   3.272 -0.0776 -1.7141 -0.9505
  169MOL0     H22774   1.285  10.619   3.412 -0.2672 -1.7281  2.0799
  169MOL0     H22775   1.206  10.411   3.139 -1.2691 -0.3963 -2.1504
  169MOL0     H22776   1.042  10.478   2.982  0.8450 -1.2274 -0.4616
  169MOL0     H22777   0.982  10.322   2.991  1.9706 -0.1558  1.5271
  169MOL0     H22778   0.869  10.466   3.019  0.1788  2.0838  1.5164
  169MOL0     H22779   0.508  10.661   3.261  1.9842 -1.1861  0.8494
  169MOL0     H22780   0.256  10.636   3.223 -1.3304 -0.5985  1.0656
  169MOL0     H22781   0.060  10.237   3.343 -1.8870  0.1335 -3.2169
  169MOL0     H22782   0.068  10.346   3.487  1.6299  0.0900  0.0763
  169MOL0     H22783  -0.136  10.342   3.264 -1.1689 -2.0392  1.2708
  169MOL0     H22784  -0.161  10.291   3.424  1.3714  0.0507  0.3002
  169MOL0     H22785  -0.238  10.529   3.346  0.8882  1.5004 -0.2203
  169MOL0     H22786  -0.078  10.586   3.386 -1.5177  1.5557  2.3872
  169MOL0     H22787  -0.262  10.455   3.576  0.7335 -1.0456 -0.5079
  169MOL0     H22788  -0.081  10.481   3.610  1.4593  1.4760 -1.4685
  169MOL0     H22789  -0.248  10.718   3.507  0.4024  2.2689  0.1585
  169MOL0     H22790  -0.096  10.695   3.594  0.7204 -2.0056  0.3342
  169MOL0     H22791  -0.295  10.774   3.735  1.2453 -0.0353  1.8530
  169MOL0     H22792  -0.372  10.626   3.707 -0.0163 -0.4551  1.1042
  169MOL0     H22793  -0.123  10.677   3.873 -1.1754  0.2784  0.9725
  169MOL0     H22794  -0.172  10.516   3.828  1.4263  0.2628  0.1831
  169MOL0     H22795  -0.337  10.743   3.958  0.2164  0.6846 -1.6473
  169MOL0     H22796  -0.272  10.607   4.055 -1.0364 -1.3577 -0.4004
  169MOL0     H22797   0.264  10.247   3.396 -1.0434  0.1008 -1.5886
  169MOL0     H22798   0.535  10.283   3.440  4.3648  2.9150 -0.6685
  169MOL0     H22799   0.863  10.428   3.504  2.0999  1.5466  2.2879
  169MOL0     H22800   1.107  10.418   3.558  0.4695 -1.0651 -0.0684
  169MOL0     H22801   3.028  10.364   2.956 -1.2754  0.5884  1.6840
  169MOL0     H22802   3.258  10.410   2.907 -0.7490 -0.3116  0.4615
  169MOL0     H22803   3.554  10.987   2.798 -2.3013 -0.1295  4.7068
  169MOL0     H22804   3.821  11.010   2.816  0.5262 -0.2319  2.0010
  169MOL0     H22805   4.098  10.683   2.940 -2.6272 -0.2511  1.1599
  169MOL0     H22806   4.061  10.674   2.767 -0.0895  1.8845 -1.0430
  169MOL0     H22807   4.234  10.873   2.910 -0.7962  0.4691 -0.0515
  169MOL0     H22808   4.208  10.880   2.731 -0.0688 -1.3461 -1.7350
  169MOL0     H22809   4.425  10.778   2.787  0.7969 -2.2053  1.4124
  169MOL0     H22810   4.314  10.670   2.698  1.3796 -0.1515 -0.8321
  169MOL0     H22811   4.251  10.556   2.895 -0.3602  0.4238  0.5340
  169MOL0     H22812   4.346  10.659   3.005  0.5020 -2.1780  0.3487
  169MOL0     H22813   4.640  10.405   2.832  0.1139 -0.5669 -1.0922
  169MOL0     H22814   3.866  10.611   2.922 -1.5476 -2.2315 -1.0248
  169MOL0     H22815   3.622  10.564   2.879 -2.2876  0.0761 -0.7462
  170MOL0     O22816   7.351   1.959   3.878 -0.1147 -0.0637 -0.1553
  170MOL0     C22817   7.439   2.036   3.913 -0.0166 -0.3524 -0.0551
  170MOL0     O22818   7.418   2.154   3.968 -0.1891  0.2563 -0.4297
  170MOL0     C22819   7.294   2.200   4.000  0.3571 -0.1839  0.3870
  170MOL0     C22820   7.289   2.263   4.123 -0.5467 -0.0453 -0.5529
  170MOL0     C22821   7.170   2.333   4.160  0.1025 -0.7454  0.3645
  170MOL0     C22822   7.064   2.343   4.066  0.1231 -0.2335 -0.3923
  170MOL0     O22823   6.972   2.423   4.114  0.3984 -0.3177  0.0780
  170MOL0     C22824   6.902   2.500   4.012 -0.2284 -0.5471  1.0431
  170MOL0     C22825   6.815   2.612   4.064  0.0713  0.1757 -0.8491
  170MOL0     C22826   6.673   2.563   4.098 -0.4875  0.6002 -0.1368
  170MOL0     C22827   6.607   2.668   4.184 -0.4649 -0.2425  0.5924
  170MOL0     C22828   6.461   2.651   4.191  0.8053 -0.4385 -0.0061
  170MOL0     C22829   6.397   2.759   4.283  0.2046  0.5269 -0.4176
  170MOL0     C22830   6.250   2.731   4.303 -0.0767 -0.1658 -0.1315
  170MOL0     C22831   6.174   2.824   4.394 -0.2997 -0.5915  0.3754
  170MOL0     N22832   6.031   2.815   4.374  0.6107 -0.7252  0.0993
  170MOL0     C22833   5.952   2.702   4.368  1.0650  0.6778 -0.5935
  170MOL0     C22834   5.826   2.742   4.358 -0.3352 -1.0585 -0.1318
  170MOL0     C22835   5.714   2.656   4.376  0.5566 -1.0028  0.6511
  170MOL0     C22836   5.668   2.594   4.245 -0.2046  0.2377  0.9818
  170MOL0     C22837   5.532   2.526   4.274  0.6056  0.1831 -0.3506
  170MOL0     C22838   5.414   2.618   4.292 -1.5716 -0.1493 -0.2848
  170MOL0     O22839   5.310   2.543   4.361  0.2665 -0.1505 -0.5174
  170MOL0     C22840   5.182   2.589   4.379  0.0769 -0.0743  0.1313
  170MOL0     C22841   5.140   2.695   4.308 -0.4442  0.1200  0.1098
  170MOL0     C22842   5.010   2.735   4.311 -0.4858 -0.0477  0.2572
  170MOL0     C22843   4.988   2.864   4.230  0.2224 -0.3550 -0.0789
  170MOL0     C22844   4.906   2.664   4.383 -1.3821  0.7951  0.7889
  170MOL0     C22845   4.761   2.684   4.375  0.4429 -0.7093 -0.6034
  170MOL0     O22846   4.682   2.619   4.466  0.0099  0.5650 -0.1459
  170MOL0     C22847   4.552   2.638   4.503 -0.0035  0.3156  0.5645
  170MOL0     C22848   4.481   2.754   4.459 -0.6601 -0.9779  0.0935
  170MOL0     C22849   4.348   2.769   4.497  0.0460 -0.0440  0.1155
  170MOL0     C22850   4.285   2.674   4.580 -0.8091 -0.8172  0.6046
  170MOL0     O22851   4.158   2.691   4.629 -0.3002  0.0010  0.2475
  170MOL0     C22852   4.087   2.813   4.631  0.0547  0.5429 -0.8328
  170MOL0     C22853   3.963   2.786   4.724 -0.3560 -0.3939 -0.2235
  170MOL0     C22854   3.871   2.670   4.674 -0.0943  0.2282 -0.2910
  170MOL0     C22855   3.720   2.679   4.715  0.0391  0.7635  0.0850
  170MOL0     C22856   3.708   2.691   4.869 -0.2811  0.4271  0.3124
  170MOL0     C22857   3.568   2.710   4.913 -0.1981  0.2868 -0.1368
  170MOL0     C22858   3.518   2.854   4.875 -0.0141 -0.6813 -0.5898
  170MOL0     C22859   3.443   2.921   4.984 -0.5629  0.0657 -0.1614
  170MOL0    Cl22860   3.275   2.853   5.021  0.0542 -0.2955  0.4881
  170MOL0     C22861   4.357   2.562   4.615 -0.0370  0.3215 -0.2603
  170MOL0     C22862   4.493   2.542   4.586 -0.0977 -0.0777  0.8657
  170MOL0     O22863   4.713   2.756   4.288  0.5827 -0.0717 -0.5038
  170MOL0     C22864   4.956   2.556   4.452  0.0491  0.8826  0.2205
  170MOL0     C22865   5.088   2.515   4.452  0.8331 -0.2859  0.0223
  170MOL0     N22866   5.827   2.881   4.343  0.9323  0.2516  0.4042
  170MOL0     N22867   5.948   2.923   4.363 -0.0195  0.3539 -0.1142
  170MOL0     C22868   7.067   2.271   3.941 -0.1719  0.5136  0.3807
  170MOL0     C22869   7.183   2.192   3.912  0.0119  0.0578  0.4606
  170MOL0     C22870   7.583   1.999   3.885  0.4432 -0.3969 -0.5079
  170MOL0     C22871   7.626   1.866   3.860  0.0158  0.3700  0.0757
  170MOL0     C22872   7.769   1.843   3.854  0.5290 -0.0567 -0.1295
  170MOL0     C22873   7.858   1.945   3.874  0.7797 -0.5245  0.1025
  170MOL0     O22874   7.997   1.937   3.883 -0.0696 -0.2533  0.0874
  170MOL0     C22875   8.053   1.800   3.906  0.2918 -0.0573  0.5770
  170MOL0     C22876   8.202   1.802   3.912  0.4245 -0.1063  0.9135
  170MOL0     C22877   8.263   1.832   3.773  0.8237 -0.4847 -0.2687
  170MOL0     C22878   8.411   1.854   3.768 -0.6549  0.2251 -0.0663
  170MOL0     C22879   8.491   1.730   3.765  0.8298  0.4958 -0.7668
  170MOL0     C22880   8.560   1.630   3.762  0.1158 -0.1897  0.3068
  170MOL0     C22881   7.806   2.065   3.903 -0.0357 -0.2160  0.4033
  170MOL0     C22882   7.674   2.100   3.906  0.7002  0.9705 -0.5927
  170MOL0     H22883   7.360   2.260   4.206 -1.0084 -2.1526 -0.1929
  170MOL0     H22884   7.147   2.379   4.255 -1.9037 -1.7884  0.4246
  170MOL0     H22885   6.972   2.550   3.945  0.2882 -0.7937  1.3941
  170MOL0     H22886   6.840   2.429   3.956 -1.6313  1.9063 -0.7103
  170MOL0     H22887   6.866   2.649   4.153 -0.3213  1.9251 -1.3117
  170MOL0     H22888   6.814   2.694   3.992  4.1379  2.4820  1.3659
  170MOL0     H22889   6.622   2.535   4.006  2.5291 -0.6522 -1.5746
  170MOL0     H22890   6.668   2.469   4.154 -1.8214  1.9694  2.2129
  170MOL0     H22891   6.647   2.666   4.286  0.2336 -2.6335  0.3521
  170MOL0     H22892   6.619   2.770   4.147  0.4188 -0.0878  1.2387
  170MOL0     H22893   6.426   2.659   4.088  0.5780  2.2942  0.2025
  170MOL0     H22894   6.428   2.555   4.233 -2.0852  0.7251  0.5885
  170MOL0     H22895   6.445   2.749   4.381  0.5139  1.6677 -0.4417
  170MOL0     H22896   6.416   2.858   4.242 -0.2886  1.9503  2.4987
  170MOL0     H22897   6.201   2.748   4.206  0.4413 -2.2439 -0.8140
  170MOL0     H22898   6.235   2.625   4.328  2.4400 -0.7382 -0.7955
  170MOL0     H22899   6.216   2.924   4.379 -0.3706 -0.3162  1.8480
  170MOL0     H22900   6.191   2.802   4.500  0.3413  0.8581  0.6081
  170MOL0     H22901   5.983   2.602   4.397  1.0851  0.5050 -1.1968
  170MOL0     H22902   5.739   2.582   4.453  4.6029  0.7172  1.2395
  170MOL0     H22903   5.636   2.728   4.403  3.2729  3.0318 -1.2726
  170MOL0     H22904   5.737   2.520   4.203 -1.4807  0.0680 -0.9360
  170MOL0     H22905   5.652   2.667   4.166  3.1544 -0.3988 -0.4957
  170MOL0     H22906   5.549   2.458   4.358 -0.7954  0.6497  0.3438
  170MOL0     H22907   5.509   2.466   4.186  1.3339 -0.3253 -0.2082
  170MOL0     H22908   5.387   2.649   4.191 -1.0978  3.1891  0.5045
  170MOL0     H22909   5.435   2.713   4.341 -1.2680 -0.3376 -0.0401
  170MOL0     H22910   5.199   2.760   4.244  0.3534  1.0334  1.6895
  170MOL0     H22911   5.066   2.938   4.251 -1.1356  1.4713 -1.2072
  170MOL0     H22912   4.971   2.855   4.123  0.3305  2.3906 -0.3996
  170MOL0     H22913   4.896   2.914   4.260 -1.1635 -2.8139  0.0388
  170MOL0     H22914   4.539   2.832   4.410  0.3776 -1.9110 -0.1928
  170MOL0     H22915   4.288   2.854   4.466 -0.5747 -1.0619 -1.6290
  170MOL0     H22916   4.152   2.893   4.667 -0.1370 -0.0335  0.8640
  170MOL0     H22917   4.049   2.828   4.529 -1.0041 -2.0447 -0.8864
  170MOL0     H22918   3.996   2.764   4.826 -2.9161  0.1462  0.8086
  170MOL0     H22919   3.907   2.880   4.731  0.5960  0.1692  0.0133
  170MOL0     H22920   3.913   2.577   4.711  1.1683  0.5265 -0.9268
  170MOL0     H22921   3.879   2.662   4.565 -0.5393  1.4486 -0.4318
  170MOL0     H22922   3.672   2.760   4.660 -2.3066  1.8030  3.3555
  170MOL0     H22923   3.667   2.588   4.685  0.5415  0.8405 -1.1048
  170MOL0     H22924   3.773   2.769   4.911  1.2590 -0.2373 -0.7282
  170MOL0     H22925   3.759   2.600   4.901 -0.4751 -0.5150 -1.8745
  170MOL0     H22926   3.495   2.642   4.869  0.2192 -0.2228 -0.0514
  170MOL0     H22927   3.567   2.684   5.019  0.1354 -0.5282 -0.3309
  170MOL0     H22928   3.446   2.856   4.794  1.5913  2.7009 -2.1673
  170MOL0     H22929   3.600   2.919   4.841  1.9840 -2.5922  0.2916
  170MOL0     H22930   3.432   3.025   4.953 -1.2370 -0.0678 -0.3831
  170MOL0     H22931   3.509   2.917   5.072 -0.6821  1.9706  0.0429
  170MOL0     H22932   4.313   2.476   4.665  0.2889  1.0585  1.3836
  170MOL0     H22933   4.540   2.446   4.606  1.2611  0.4911  0.5009
  170MOL0     H22934   4.900   2.493   4.520  2.1995 -2.2557 -0.7141
  170MOL0     H22935   5.117   2.426   4.507 -2.4655 -1.7206 -0.3557
  170MOL0     H22936   6.985   2.265   3.870 -2.2834 -4.5462  2.7864
  170MOL0     H22937   7.179   2.147   3.813 -1.5094 -0.6931  0.8362
  170MOL0     H22938   7.559   1.782   3.843 -1.0376  1.1539  0.2763
  170MOL0     H22939   7.810   1.746   3.828  2.8792  1.5368 -2.9335
  170MOL0     H22940   8.015   1.757   3.999 -1.3236 -0.6784 -0.3472
  170MOL0     H22941   8.029   1.741   3.818  1.4961 -0.4428  0.4864
  170MOL0     H22942   8.236   1.704   3.948  0.2880 -0.9455 -1.0986
  170MOL0     H22943   8.234   1.875   3.987 -0.6658  0.3965  0.8960
  170MOL0     H22944   8.221   1.925   3.734  0.1952 -0.5971  0.1248
  170MOL0     H22945   8.243   1.751   3.702  2.9750  0.2026 -1.7726
  170MOL0     H22946   8.436   1.921   3.851  0.2769  2.1162 -1.7672
  170MOL0     H22947   8.437   1.903   3.674 -1.4334 -0.2013 -0.5149
  170MOL0     H22948   8.624   1.544   3.767  0.8415  0.3803  0.9730
  170MOL0     H22949   7.880   2.143   3.916 -0.0568 -0.3083  1.1103
  170MOL0     H22950   7.637   2.201   3.922 -3.4799  0.2218 -3.7748
  171MOL0     O22951   4.340  10.214   8.976 -0.4319  0.4125 -0.5317
  171MOL0     C22952   4.416  10.144   8.909  0.2461  0.8366  0.4946
  171MOL0     O22953   4.383  10.078   8.798 -0.2823 -0.0531  0.3135
  171MOL0     C22954   4.256  10.064   8.749 -0.6315 -0.8868  0.7249
  171MOL0     C22955   4.145  10.034   8.830 -0.3220  0.7990  0.1904
  171MOL0     C22956   4.017  10.019   8.767 -0.2348 -0.2532 -0.2088
  171MOL0     C22957   3.999  10.038   8.634 -0.4400 -0.7528  0.5849
  171MOL0     O22958   3.875  10.054   8.571 -0.2301  0.6021 -0.5513
  171MOL0     C22959   3.769  10.073   8.658  0.1707  0.0575  0.7970
  171MOL0     C22960   3.643  10.102   8.570 -0.0490 -0.1899  0.1786
  171MOL0     C22961   3.604   9.990   8.479 -0.3571  0.2695 -0.3149
  171MOL0     C22962   3.482  10.020   8.396 -0.1435  0.3643 -0.0955
  171MOL0     C22963   3.439   9.907   8.288  0.3589 -0.3433 -0.0669
  171MOL0     C22964   3.401   9.775   8.345 -0.3799  1.2107 -0.3624
  171MOL0     C22965   3.263   9.758   8.401  1.1225 -1.0878  0.2918
  171MOL0     C22966   3.278   9.695   8.543  0.5351 -0.3716 -0.0730
  171MOL0     N22967   3.145   9.635   8.593 -0.2138  0.6043 -0.2962
  171MOL0     C22968   3.067   9.548   8.518 -0.8731  0.4316  0.1243
  171MOL0     C22969   2.959   9.528   8.582  0.0927 -0.4804  0.3691
  171MOL0     C22970   2.849   9.436   8.544  0.0979 -0.3670  0.2518
  171MOL0     C22971   2.870   9.298   8.611 -0.3618  0.0080 -0.3635
  171MOL0     C22972   2.830   9.291   8.755 -1.5061  0.8642 -0.3946
  171MOL0     C22973   2.681   9.320   8.784  0.1373 -0.3874  0.0820
  171MOL0     O22974   2.588   9.221   8.724 -0.4385  0.0821  0.4798
  171MOL0     C22975   2.454   9.227   8.758  0.6573 -0.7508 -0.8593
  171MOL0     C22976   2.402   9.314   8.857 -0.1130  0.4336  0.4855
  171MOL0     C22977   2.261   9.338   8.871  0.5360 -0.4364 -0.5832
  171MOL0     C22978   2.218   9.452   8.956 -0.4160  0.2688 -0.1307
  171MOL0     C22979   2.166   9.255   8.798 -0.0986  0.3973  0.6580
  171MOL0     C22980   2.017   9.265   8.815  0.4201  0.3442 -0.4180
  171MOL0     O22981   1.943   9.158   8.761  0.5375  1.0991 -0.0883
  171MOL0     C22982   1.814   9.167   8.759  0.0595  0.1186 -0.2177
  171MOL0     C22983   1.747   9.158   8.879 -0.0812  0.0598 -0.7197
  171MOL0     C22984   1.609   9.172   8.876  0.5317  0.2315 -0.3458
  171MOL0     C22985   1.535   9.172   8.754 -0.4491  0.5101 -0.4655
  171MOL0     O22986   1.401   9.166   8.764 -0.2434 -0.4118  0.0423
  171MOL0     C22987   1.331   9.177   8.637  0.0728  0.6645 -0.2322
  171MOL0     C22988   1.182   9.201   8.669  0.0576 -0.0310  0.2220
  171MOL0     C22989   1.113   9.078   8.734 -0.4689  0.3542  0.0991
  171MOL0     C22990   0.994   9.110   8.821 -0.1920 -0.5271  0.3157
  171MOL0     C22991   0.910   8.993   8.856 -0.1345 -0.0711 -1.3695
  171MOL0     C22992   0.786   9.028   8.936  0.5553 -0.2773  0.8235
  171MOL0     C22993   0.706   8.921   9.007 -0.5227  0.1135 -0.0570
  171MOL0     C22994   0.636   8.991   9.125 -0.1554 -0.6470 -0.0597
  171MOL0    Cl22995   0.534   8.854   9.191 -0.1471 -0.8465 -0.0562
  171MOL0     C22996   1.611   9.174   8.634 -0.4564 -0.1879  0.0667
  171MOL0     C22997   1.750   9.173   8.636 -1.0311 -0.1578  0.7635
  171MOL0     O22998   1.973   9.365   8.869  0.4168 -0.3796 -0.3114
  171MOL0     C22999   2.226   9.160   8.713 -0.0147  0.5170  0.1167
  171MOL0     C23000   2.359   9.146   8.695 -0.3714 -0.5847 -0.1026
  171MOL0     N23001   2.961   9.608   8.699  0.6014  0.0044  0.6827
  171MOL0     N23002   3.076   9.667   8.712 -0.3497 -0.2902  0.0390
  171MOL0     C23003   4.110  10.073   8.556 -0.6930  0.0367  0.5217
  171MOL0     C23004   4.238  10.082   8.609 -0.2525 -0.1120  0.6666
  171MOL0     C23005   4.556  10.153   8.946 -0.0103  0.2962 -0.4615
  171MOL0     C23006   4.605  10.263   9.027  0.6245  0.1955  0.6925
  171MOL0     C23007   4.734  10.284   9.075  0.0145  0.2193  0.3072
  171MOL0     C23008   4.825  10.176   9.070  1.5561 -0.0315  0.1857
  171MOL0     O23009   4.948  10.198   9.115 -0.1662 -0.2327 -0.2323
  171MOL0     C23010   5.036  10.081   9.130 -0.0029  0.4564 -0.4947
  171MOL0     C23011   5.166  10.106   9.206 -0.7567 -0.4492  0.3797
  171MOL0     C23012   5.249  10.226   9.158 -0.0395 -1.3658 -0.8914
  171MOL0     C23013   5.268  10.236   9.005  0.0568 -0.8111 -0.1787
  171MOL0     C23014   5.389  10.314   8.974  0.2073 -0.0747  0.2584
  171MOL0     C23015   5.492  10.366   8.934 -1.1911  0.5973 -0.5232
  171MOL0     C23016   4.782  10.061   9.004  0.4955 -0.6802 -0.2114
  171MOL0     C23017   4.654  10.058   8.934 -0.5949  0.3900  0.0187
  171MOL0     H23018   4.152  10.034   8.938 -1.2407 -0.0556  0.2680
  171MOL0     H23019   3.938  10.000   8.838 -0.9891  4.0319  0.3621
  171MOL0     H23020   3.746   9.983   8.716 -3.2347  0.6905  0.6767
  171MOL0     H23021   3.782  10.157   8.727 -1.6608  0.0322  1.2343
  171MOL0     H23022   3.565  10.122   8.643 -0.2264  2.5022 -0.6073
  171MOL0     H23023   3.674  10.183   8.503  0.2359 -0.9201 -0.5896
  171MOL0     H23024   3.683   9.966   8.407 -0.8601 -1.1711 -0.4162
  171MOL0     H23025   3.579   9.901   8.537  0.3858  0.2823  0.0511
  171MOL0     H23026   3.391  10.032   8.454  0.8534  2.1892  1.1944
  171MOL0     H23027   3.503  10.116   8.348 -0.2414  1.7651  2.4653
  171MOL0     H23028   3.368   9.951   8.217  1.4495 -2.2251 -2.4551
  171MOL0     H23029   3.526   9.884   8.226  0.0794  1.0500 -1.0125
  171MOL0     H23030   3.401   9.702   8.264 -1.2993  0.3533  0.3893
  171MOL0     H23031   3.475   9.742   8.419  0.9969  3.3375 -0.6824
  171MOL0     H23032   3.212   9.855   8.405  1.9759 -0.6182  0.0485
  171MOL0     H23033   3.207   9.697   8.329  2.1869  0.2323 -1.7664
  171MOL0     H23034   3.310   9.781   8.603  0.4591 -0.9639  0.8329
  171MOL0     H23035   3.354   9.619   8.563 -1.0349 -1.9974 -0.0377
  171MOL0     H23036   3.091   9.500   8.424 -0.2190 -1.6076  1.2552
  171MOL0     H23037   2.756   9.479   8.583 -0.1257  1.0787 -1.7097
  171MOL0     H23038   2.851   9.432   8.435  1.1136 -0.7451  0.2787
  171MOL0     H23039   2.973   9.261   8.610 -0.9770 -1.9675  1.5644
  171MOL0     H23040   2.820   9.222   8.552  1.8656 -1.4774 -0.4597
  171MOL0     H23041   2.894   9.360   8.811 -0.1916 -1.0320  0.5837
  171MOL0     H23042   2.857   9.192   8.794  2.4261  2.5621  1.7956
  171MOL0     H23043   2.656   9.425   8.767  0.4941 -0.5381 -1.5233
  171MOL0     H23044   2.681   9.299   8.892 -1.7996 -0.9530  0.0101
  171MOL0     H23045   2.472   9.364   8.923  2.3593 -0.5055 -1.2653
  171MOL0     H23046   2.138   9.425   9.025  0.1919  1.5179  1.1105
  171MOL0     H23047   2.301   9.495   9.012  0.1852 -0.2480 -0.6058
  171MOL0     H23048   2.189   9.531   8.886  0.7897  0.3367 -0.5799
  171MOL0     H23049   1.792   9.150   8.977 -0.8002  3.0306 -0.0310
  171MOL0     H23050   1.554   9.168   8.969  1.5960  0.4219  0.3091
  171MOL0     H23051   1.359   9.256   8.566  1.8771 -0.8717 -1.3128
  171MOL0     H23052   1.345   9.081   8.587  0.8921  0.2701  0.7108
  171MOL0     H23053   1.173   9.287   8.736 -2.2828  1.0621 -1.3430
  171MOL0     H23054   1.126   9.239   8.583  1.3559 -0.3632 -0.7991
  171MOL0     H23055   1.181   9.023   8.799  0.1818  2.0582  0.9216
  171MOL0     H23056   1.083   9.007   8.657  0.1696  0.3562 -0.1567
  171MOL0     H23057   1.016   9.171   8.908 -1.1285 -0.7381  0.7150
  171MOL0     H23058   0.931   9.165   8.750  0.8948 -1.2456 -1.2595
  171MOL0     H23059   0.971   8.930   8.922  3.4524  1.4847 -2.9811
  171MOL0     H23060   0.896   8.938   8.762  1.1097  0.9153 -2.1505
  171MOL0     H23061   0.812   9.108   9.007 -2.8920 -0.0195  2.0187
  171MOL0     H23062   0.726   9.067   8.854  2.1674 -0.2630 -0.4015
  171MOL0     H23063   0.768   8.837   9.042  0.1513  0.4574 -0.4048
  171MOL0     H23064   0.634   8.891   8.930 -2.7030  0.8932  1.5884
  171MOL0     H23065   0.565   9.064   9.085 -2.4323 -2.9433 -0.4107
  171MOL0     H23066   0.708   9.029   9.198 -1.1103 -2.8342  2.1269
  171MOL0     H23067   1.567   9.193   8.537  0.7068 -0.1595 -0.4767
  171MOL0     H23068   1.811   9.176   8.546  0.7377 -0.8026  1.8841
  171MOL0     H23069   2.170   9.090   8.652  0.4717  1.7986 -1.9301
  171MOL0     H23070   2.382   9.064   8.627 -1.4154 -0.4230 -0.6716
  171MOL0     H23071   4.089  10.094   8.451  0.5195 -1.0309  0.0383
  171MOL0     H23072   4.327  10.104   8.551 -1.5281 -0.0481 -1.3857
  171MOL0     H23073   4.538  10.346   9.048 -1.6823 -0.7306 -2.2806
  171MOL0     H23074   4.760  10.380   9.117 -1.3275  0.8893 -0.3359
  171MOL0     H23075   4.981  10.000   9.179  2.0176  1.5853  4.2068
  171MOL0     H23076   5.060  10.044   9.030 -0.3317  2.1897 -1.2530
  171MOL0     H23077   5.220  10.010   9.205  0.8750  0.4296  0.0084
  171MOL0     H23078   5.134  10.121   9.310 -1.4289 -0.6299  0.2047
  171MOL0     H23079   5.348  10.222   9.203  0.3352  1.1675 -1.3461
  171MOL0     H23080   5.202  10.316   9.201  3.7333  0.6825 -0.6708
  171MOL0     H23081   5.186  10.296   8.965 -1.0212 -2.3962 -0.4338
  171MOL0     H23082   5.265  10.138   8.958  0.2787 -0.7762 -0.2636
  171MOL0     H23083   5.587  10.410   8.909 -0.1025 -0.7791  0.9221
  171MOL0     H23084   4.852   9.981   8.988 -0.4983 -1.3871 -1.1368
  171MOL0     H23085   4.644   9.964   8.881 -0.9455 -1.2289  2.7587
  172MOL0     O23086   0.952   6.084   8.684 -0.1015  0.1200 -0.2343
  172MOL0     C23087   1.006   6.009   8.605 -0.0147  0.5246  0.0344
  172MOL0     O23088   0.944   5.933   8.513 -0.7822  0.0616  0.1837
  172MOL0     C23089   0.804   5.936   8.497 -0.1282 -0.5547  0.2963
  172MOL0     C23090   0.726   5.891   8.601  0.2301  0.1677 -0.3743
  172MOL0     C23091   0.589   5.867   8.594  0.5536  0.2482  0.1969
  172MOL0     C23092   0.522   5.902   8.477  0.1913  0.6699  0.0096
  172MOL0     O23093   0.379   5.895   8.491 -0.3325  0.1934  0.5158
  172MOL0     C23094   0.301   5.925   8.378 -1.0747 -0.0434 -1.0563
  172MOL0     C23095   0.153   5.879   8.401  0.4233  0.0827  0.3898
  172MOL0     C23096   0.078   5.891   8.269  0.0959  0.6693 -0.6541
  172MOL0     C23097  -0.070   5.890   8.294 -0.5613  0.2266 -0.4878
  172MOL0     C23098  -0.160   5.867   8.179  0.0898  0.2732 -0.2888
  172MOL0     C23099  -0.301   5.869   8.210 -0.5851 -0.1201 -0.2777
  172MOL0     C23100  -0.386   5.926   8.098  0.7549  0.5296  0.2886
  172MOL0     C23101  -0.397   5.827   7.979 -0.6729  0.3292 -0.3872
  172MOL0     N23102  -0.461   5.697   8.019  0.6109 -0.8170 -0.1778
  172MOL0     C23103  -0.585   5.691   8.072 -0.1297 -0.5307  0.0461
  172MOL0     C23104  -0.600   5.560   8.119  0.1157 -0.0688 -0.3139
  172MOL0     C23105  -0.716   5.490   8.174 -0.1531  0.2528 -0.1175
  172MOL0     C23106  -0.718   5.482   8.329 -0.3565  0.1455  0.0019
  172MOL0     C23107  -0.835   5.407   8.390  0.3968  0.7208 -0.6842
  172MOL0     C23108  -0.951   5.500   8.397  0.5360 -0.2434 -0.0358
  172MOL0     O23109  -1.069   5.435   8.372 -0.5128 -0.5647 -0.8437
  172MOL0     C23110  -1.186   5.492   8.403  0.7256  0.0403 -0.3631
  172MOL0     C23111  -1.296   5.411   8.404 -1.0437  0.9763  0.4790
  172MOL0     C23112  -1.425   5.469   8.426 -0.3511  0.0741 -0.0252
  172MOL0     C23113  -1.543   5.375   8.426  0.1387 -0.5252 -0.6441
  172MOL0     C23114  -1.440   5.609   8.457  1.2020  0.4578 -0.3225
  172MOL0     C23115  -1.576   5.678   8.456 -0.7078 -0.3256  0.1217
  172MOL0     O23116  -1.686   5.609   8.474  0.0286 -0.3398  0.0082
  172MOL0     C23117  -1.783   5.641   8.565  0.3662  0.3734 -0.2823
  172MOL0     C23118  -1.794   5.579   8.693  0.0504  0.0951 -0.0517
  172MOL0     C23119  -1.879   5.619   8.790 -0.1477  1.0323  0.5330
  172MOL0     C23120  -1.973   5.718   8.768  0.6301  0.8089  0.6095
  172MOL0     O23121  -2.054   5.749   8.879 -0.3395 -0.1460  0.0475
  172MOL0     C23122  -2.131   5.876   8.869  0.0119 -0.1034  0.1418
  172MOL0     C23123  -2.267   5.843   8.807  0.6040  0.1660 -0.1311
  172MOL0     C23124  -2.358   5.792   8.919  0.0719  0.8387  0.2816
  172MOL0     C23125  -2.332   5.644   8.956 -0.6253 -0.4531 -1.0639
  172MOL0     C23126  -2.431   5.591   9.063  0.0950 -0.4315 -0.2714
  172MOL0     C23127  -2.559   5.532   9.011  0.2271 -0.8457 -0.0965
  172MOL0     C23128  -2.654   5.513   9.141  0.6438 -0.3250 -0.5108
  172MOL0     C23129  -2.792   5.491   9.091  0.3632 -0.3993 -0.4209
  172MOL0    Cl23130  -2.897   5.423   9.219 -0.0642  0.0814  0.0226
  172MOL0     C23131  -1.975   5.779   8.639 -0.4957  0.2906  0.2304
  172MOL0     C23132  -1.871   5.742   8.539  0.1376 -0.9228 -0.6686
  172MOL0     O23133  -1.575   5.801   8.436 -0.1381  0.1970 -0.4348
  172MOL0     C23134  -1.323   5.690   8.461  0.7967  0.7456 -0.6106
  172MOL0     C23135  -1.199   5.627   8.439 -1.0099  0.5407 -0.1546
  172MOL0     N23136  -0.475   5.502   8.111  0.4197 -0.5710  0.0470
  172MOL0     N23137  -0.388   5.589   8.063 -0.4676  0.0873 -0.7855
  172MOL0     C23138   0.601   5.947   8.365 -0.2948 -0.4354 -0.9356
  172MOL0     C23139   0.742   5.968   8.375 -0.3218 -0.3641  0.6784
  172MOL0     C23140   1.151   6.009   8.599  0.5937  0.6051 -0.9500
  172MOL0     C23141   1.217   5.929   8.504 -0.3096 -0.3009 -0.2725
  172MOL0     C23142   1.358   5.934   8.490  0.7796 -0.7611  0.6262
  172MOL0     C23143   1.434   6.034   8.554  0.4746 -0.6062  0.2102
  172MOL0     O23144   1.572   6.043   8.551 -0.4695 -0.4671  0.1594
  172MOL0     C23145   1.646   5.926   8.516 -0.3695  0.5829 -0.3132
  172MOL0     C23146   1.795   5.947   8.523  0.0979 -0.7090  0.5283
  172MOL0     C23147   1.866   6.007   8.637  0.4173 -0.2647  0.1667
  172MOL0     C23148   2.012   6.047   8.596  0.5823 -0.4847 -0.4178
  172MOL0     C23149   2.099   5.934   8.569 -1.5856 -0.2939  0.6523
  172MOL0     C23150   2.176   5.838   8.546 -0.6869  0.3625  0.3031
  172MOL0     C23151   1.372   6.112   8.647  0.0252  0.4995  0.3626
  172MOL0     C23152   1.235   6.099   8.677  0.2388 -0.0582  0.1576
  172MOL0     H23153   0.779   5.859   8.690 -1.0385 -0.9399  0.0224
  172MOL0     H23154   0.527   5.822   8.671  0.7576 -0.1502  0.1279
  172MOL0     H23155   0.305   6.030   8.349  0.8971  0.0269 -0.7131
  172MOL0     H23156   0.336   5.871   8.289  1.7073  1.7603 -1.2125
  172MOL0     H23157   0.144   5.776   8.436 -0.1472  0.1735  0.5133
  172MOL0     H23158   0.100   5.950   8.466  1.7790  1.4026  0.1190
  172MOL0     H23159   0.090   5.989   8.222 -1.3430  1.9641  1.4732
  172MOL0     H23160   0.111   5.811   8.202 -1.2189  0.6178 -1.2790
  172MOL0     H23161  -0.077   5.804   8.363  3.4838  0.2534  0.1904
  172MOL0     H23162  -0.099   5.979   8.350 -1.9072 -0.5068  0.0476
  172MOL0     H23163  -0.140   5.949   8.110  1.7379  1.2941  1.3199
  172MOL0     H23164  -0.136   5.769   8.135 -3.2865 -1.5009  1.3820
  172MOL0     H23165  -0.334   5.767   8.233 -4.6694  0.2712 -3.3802
  172MOL0     H23166  -0.313   5.920   8.306  0.1725 -1.1994  0.4243
  172MOL0     H23167  -0.485   5.948   8.138  0.2194  1.5435 -1.5038
  172MOL0     H23168  -0.350   6.025   8.067 -0.1083  0.4421 -1.0730
  172MOL0     H23169  -0.292   5.809   7.955  0.1460  0.8339  2.4295
  172MOL0     H23170  -0.458   5.866   7.897  0.6521  1.6480 -0.7815
  172MOL0     H23171  -0.656   5.773   8.070  1.6689  1.1130 -0.4121
  172MOL0     H23172  -0.805   5.538   8.133 -0.6797  0.7253  1.4929
  172MOL0     H23173  -0.715   5.386   8.139  1.6197 -0.2606  1.2878
  172MOL0     H23174  -0.711   5.579   8.379  3.2248  1.2506 -2.3089
  172MOL0     H23175  -0.628   5.422   8.346 -0.2348  0.4745  0.5508
  172MOL0     H23176  -0.803   5.379   8.491  0.1286  2.8572  0.0490
  172MOL0     H23177  -0.864   5.319   8.332  0.0926 -1.6501  2.7017
  172MOL0     H23178  -0.941   5.579   8.322  0.4999  0.2805  0.4972
  172MOL0     H23179  -0.964   5.554   8.492 -3.3316  0.9736 -1.0371
  172MOL0     H23180  -1.284   5.306   8.380  0.4909  1.0947  0.6445
  172MOL0     H23181  -1.599   5.375   8.520 -0.9286 -0.0696 -1.2481
  172MOL0     H23182  -1.608   5.390   8.339 -2.6831 -3.0372  0.8368
  172MOL0     H23183  -1.508   5.272   8.409  0.4190 -0.4240 -0.6886
  172MOL0     H23184  -1.728   5.499   8.725  0.5521 -0.1536 -1.6113
  172MOL0     H23185  -1.878   5.567   8.886  0.6412  0.1478  0.0685
  172MOL0     H23186  -2.145   5.910   8.972  1.6094 -1.6068  0.9153
  172MOL0     H23187  -2.071   5.953   8.820  2.5301 -1.8408  0.3009
  172MOL0     H23188  -2.309   5.932   8.758 -0.3544 -0.3673 -0.3024
  172MOL0     H23189  -2.254   5.774   8.723 -1.0203 -1.8025  1.1493
  172MOL0     H23190  -2.461   5.807   8.884 -1.2209 -0.6831  3.1612
  172MOL0     H23191  -2.358   5.853   9.010 -1.3934 -0.5005  1.2314
  172MOL0     H23192  -2.334   5.582   8.866  0.8172  0.0715 -1.4668
  172MOL0     H23193  -2.231   5.645   8.997  0.8196  1.5504 -4.3261
  172MOL0     H23194  -2.456   5.664   9.140 -2.3018 -0.4478 -0.9411
  172MOL0     H23195  -2.374   5.515   9.117  1.1367 -0.6655 -1.6635
  172MOL0     H23196  -2.602   5.594   8.931  1.8088  0.6421  0.1417
  172MOL0     H23197  -2.548   5.433   8.966 -0.9847 -0.9281 -0.2524
  172MOL0     H23198  -2.650   5.597   9.210  3.5895 -0.4183 -0.4327
  172MOL0     H23199  -2.620   5.420   9.189 -1.2474 -1.1750 -0.7353
  172MOL0     H23200  -2.797   5.413   9.015 -2.0120 -1.2845  0.5642
  172MOL0     H23201  -2.828   5.584   9.047  0.1965 -1.7786 -3.4249
  172MOL0     H23202  -2.045   5.857   8.613  0.3174  1.1122  0.4629
  172MOL0     H23203  -1.880   5.778   8.437 -4.0397 -3.4126 -1.4329
  172MOL0     H23204  -1.332   5.798   8.463  0.6230  0.7280  0.5027
  172MOL0     H23205  -1.118   5.700   8.432  0.5505 -0.5805  3.4409
  172MOL0     H23206   0.556   5.977   8.271 -0.5717  2.6150  0.0527
  172MOL0     H23207   0.805   6.000   8.292  3.3402 -2.2512  2.4980
  172MOL0     H23208   1.163   5.865   8.435 -2.5499  2.6422 -1.4737
  172MOL0     H23209   1.396   5.871   8.410 -1.8027 -1.8905  0.1875
  172MOL0     H23210   1.619   5.850   8.590 -1.5724 -2.1207 -3.3016
  172MOL0     H23211   1.614   5.897   8.415  0.9993  4.5662 -2.1103
  172MOL0     H23212   1.810   6.017   8.440  1.1438 -3.2953 -1.6155
  172MOL0     H23213   1.840   5.853   8.491 -0.6886 -0.7864 -0.3969
  172MOL0     H23214   1.873   5.936   8.720  3.0850  0.4453  0.6281
  172MOL0     H23215   1.806   6.090   8.675  1.4715 -0.3553  2.1722
  172MOL0     H23216   2.054   6.111   8.674 -0.7070  1.2226 -1.0728
  172MOL0     H23217   1.996   6.105   8.505 -1.3298  0.2358  0.3430
  172MOL0     H23218   2.234   5.750   8.529  0.1622  1.5212 -4.0408
  172MOL0     H23219   1.431   6.177   8.711  2.5458  0.6449 -1.8717
  172MOL0     H23220   1.185   6.160   8.752 -0.2945 -1.2956  0.8400
  173MOL0     O23221   1.530   6.936   2.650  0.0616  0.3268 -0.0808
  173MOL0     C23222   1.629   6.862   2.662  0.7559 -0.5985  0.0257
  173MOL0     O23223   1.620   6.727   2.694 -0.8831  0.5010 -0.0445
  173MOL0     C23224   1.501   6.672   2.705 -1.0538 -0.0181 -0.1898
  173MOL0     C23225   1.434   6.681   2.830  0.2919 -0.4171  0.2768
  173MOL0     C23226   1.308   6.614   2.843  0.2416 -0.7149 -0.7898
  173MOL0     C23227   1.258   6.535   2.737 -0.2615  0.4184 -0.0720
  173MOL0     O23228   1.139   6.478   2.773 -0.0393  0.4435  0.2135
  173MOL0     C23229   1.073   6.385   2.688  0.3276 -0.7263 -0.6893
  173MOL0     C23230   1.098   6.233   2.717 -0.3359 -0.2428  0.4559
  173MOL0     C23231   1.013   6.147   2.627  0.1704  0.0968  0.5511
  173MOL0     C23232   1.004   5.998   2.664  0.2863 -1.5386  0.2712
  173MOL0     C23233   0.946   5.919   2.550 -0.4986 -0.3402 -0.3467
  173MOL0     C23234   0.798   5.893   2.566 -0.1576 -0.5707  0.6235
  173MOL0     C23235   0.772   5.782   2.668  1.1780  1.0565  0.5125
  173MOL0     C23236   0.629   5.728   2.642 -0.3602 -0.4371  0.4034
  173MOL0     N23237   0.525   5.827   2.669  1.2133 -0.1975 -0.0997
  173MOL0     C23238   0.483   5.917   2.577 -0.1727 -0.6444  0.0632
  173MOL0     C23239   0.399   5.997   2.653 -0.6065 -0.4753 -0.8226
  173MOL0     C23240   0.321   6.112   2.602 -0.0971 -0.1682 -0.0384
  173MOL0     C23241   0.189   6.076   2.525 -0.7576 -0.5322 -0.7345
  173MOL0     C23242   0.081   6.023   2.612 -0.3136 -0.5241 -0.7247
  173MOL0     C23243   0.004   6.121   2.693  0.3573  0.5135  1.2917
  173MOL0     O23244  -0.129   6.080   2.720  0.1105  0.5204 -0.5633
  173MOL0     C23245  -0.215   6.160   2.797  0.5618  0.4454  0.7834
  173MOL0     C23246  -0.205   6.291   2.801 -0.6222  0.0506  0.6508
  173MOL0     C23247  -0.281   6.373   2.875 -0.5575  0.4275  0.0035
  173MOL0     C23248  -0.258   6.522   2.859 -0.2690  0.1626  0.3618
  173MOL0     C23249  -0.381   6.312   2.944 -0.3260 -0.4198 -0.0808
  173MOL0     C23250  -0.484   6.387   3.034 -0.2035 -0.2256  0.6909
  173MOL0     O23251  -0.609   6.335   3.038 -0.1448  0.1531  0.3221
  173MOL0     C23252  -0.699   6.365   3.134 -0.0027 -0.4287  0.1774
  173MOL0     C23253  -0.749   6.261   3.206 -0.5268  0.2916 -0.2834
  173MOL0     C23254  -0.843   6.274   3.310 -0.5401 -0.7615  0.2466
  173MOL0     C23255  -0.888   6.408   3.347  1.0631  0.1541  0.6355
  173MOL0     O23256  -0.984   6.437   3.440  0.4882 -0.3692  0.7967
  173MOL0     C23257  -1.031   6.329   3.523 -1.0060 -0.3982 -0.2676
  173MOL0     C23258  -1.168   6.357   3.574  0.3185  0.7834  0.3484
  173MOL0     C23259  -1.267   6.342   3.455 -0.5627 -0.0139  0.9833
  173MOL0     C23260  -1.410   6.355   3.519  0.1201  0.1762  1.1316
  173MOL0     C23261  -1.516   6.309   3.414 -0.0562 -0.2825  0.7203
  173MOL0     C23262  -1.522   6.159   3.395 -0.1034 -0.2995 -0.0406
  173MOL0     C23263  -1.576   6.098   3.532  0.5334 -0.0575 -0.0352
  173MOL0     C23264  -1.699   6.024   3.522  0.2692 -0.3111  0.4597
  173MOL0    Cl23265  -1.829   6.135   3.472 -0.2382  0.5658 -0.4348
  173MOL0     C23266  -0.830   6.516   3.272 -0.3028  0.3377  0.6510
  173MOL0     C23267  -0.735   6.495   3.177 -0.4296 -0.1809 -0.4255
  173MOL0     O23268  -0.442   6.490   3.096  0.1946  0.3459 -0.2097
  173MOL0     C23269  -0.386   6.180   2.953  0.0624  0.4012  0.2149
  173MOL0     C23270  -0.301   6.095   2.883 -0.3035 -0.4199 -0.2356
  173MOL0     N23271   0.380   5.946   2.773 -0.2352 -0.5052 -0.0661
  173MOL0     N23272   0.463   5.847   2.789 -0.1284 -0.0039  0.4057
  173MOL0     C23273   1.323   6.539   2.614  0.2924  0.7695  0.2586
  173MOL0     C23274   1.450   6.597   2.599  0.9219  0.1371  0.0166
  173MOL0     C23275   1.767   6.925   2.635  1.1994 -0.0092 -0.2328
  173MOL0     C23276   1.877   6.839   2.643  0.6695 -1.0560  1.1066
  173MOL0     C23277   2.001   6.889   2.615  0.1837 -0.7511 -0.5557
  173MOL0     C23278   2.016   7.021   2.566  0.2758 -0.1076  1.0548
  173MOL0     O23279   2.142   7.069   2.524 -0.6487  0.2625  0.6918
  173MOL0     C23280   2.256   7.024   2.607 -0.5188 -0.2685  0.2822
  173MOL0     C23281   2.382   7.096   2.548  0.0085  0.1121  0.0153
  173MOL0     C23282   2.368   7.256   2.550  0.3557  0.4075  0.4201
  173MOL0     C23283   2.477   7.328   2.485 -0.5305  0.3764  0.6292
  173MOL0     C23284   2.611   7.306   2.548 -0.3767 -0.7874  0.4471
  173MOL0     C23285   2.727   7.294   2.587  0.0456 -0.3485 -0.0169
  173MOL0     C23286   1.903   7.099   2.547  0.2041  0.5245  0.7219
  173MOL0     C23287   1.778   7.056   2.592 -0.9309  0.4997  0.3368
  173MOL0     H23288   1.472   6.735   2.916 -1.5420  2.9702 -0.8727
  173MOL0     H23289   1.247   6.612   2.932 -1.0199  1.4298 -1.5308
  173MOL0     H23290   0.969   6.395   2.720  0.7852  2.1573  0.2132
  173MOL0     H23291   1.068   6.422   2.585  0.2478 -0.5215 -0.6130
  173MOL0     H23292   1.205   6.223   2.701 -0.6317 -0.0477 -2.0708
  173MOL0     H23293   1.081   6.211   2.822  2.9679 -1.4027  0.8534
  173MOL0     H23294   0.913   6.189   2.613  0.0253 -0.5587 -0.4802
  173MOL0     H23295   1.057   6.152   2.527 -0.3531 -1.6142  0.2015
  173MOL0     H23296   1.103   5.957   2.688  0.5005 -0.8463  0.6143
  173MOL0     H23297   0.943   5.982   2.754 -0.9781 -1.2423 -0.5170
  173MOL0     H23298   0.966   5.973   2.457 -0.3530  1.9179  0.9345
  173MOL0     H23299   0.984   5.816   2.550 -4.4893 -1.9977 -1.3938
  173MOL0     H23300   0.746   5.983   2.598  0.9681  0.5275 -0.5626
  173MOL0     H23301   0.761   5.850   2.472 -2.7831  0.4616  1.0964
  173MOL0     H23302   0.836   5.695   2.648  0.4420  0.7918 -0.8317
  173MOL0     H23303   0.771   5.829   2.767 -0.5810  2.3060 -0.0584
  173MOL0     H23304   0.614   5.645   2.712 -5.3872  0.2578  0.5199
  173MOL0     H23305   0.611   5.684   2.544  0.2158 -2.5400  1.1731
  173MOL0     H23306   0.509   5.921   2.472  1.1178  0.5380  0.3944
  173MOL0     H23307   0.295   6.176   2.687 -0.9267 -1.7168  0.9198
  173MOL0     H23308   0.383   6.170   2.533  1.7747 -0.4753  1.2962
  173MOL0     H23309   0.215   6.005   2.446 -2.0334  0.7778 -2.4030
  173MOL0     H23310   0.162   6.169   2.474  5.6314  1.9910 -0.4343
  173MOL0     H23311   0.119   5.957   2.690 -0.1276 -0.3235 -0.6441
  173MOL0     H23312   0.006   5.972   2.551 -1.7375 -1.0829  1.3824
  173MOL0     H23313  -0.013   6.205   2.624 -1.0613 -2.2848 -2.0768
  173MOL0     H23314   0.069   6.152   2.775  0.6241 -1.1859  1.7452
  173MOL0     H23315  -0.136   6.339   2.731 -2.4072  0.0734 -1.1949
  173MOL0     H23316  -0.341   6.565   2.803 -2.5777 -2.0074  1.9080
  173MOL0     H23317  -0.252   6.569   2.958  1.4414  0.5936  0.0853
  173MOL0     H23318  -0.162   6.543   2.811 -0.6734  0.5099 -0.3077
  173MOL0     H23319  -0.722   6.156   3.196  1.6303  0.9372 -2.0348
  173MOL0     H23320  -0.874   6.181   3.357 -2.3103  0.5516  1.8084
  173MOL0     H23321  -1.039   6.229   3.479  2.2080 -1.0395  0.3769
  173MOL0     H23322  -0.967   6.313   3.610 -0.9981  0.2431 -0.1540
  173MOL0     H23323  -1.206   6.289   3.652  1.4521  1.0155  1.1346
  173MOL0     H23324  -1.154   6.459   3.612  2.5676  1.2532 -1.5020
  173MOL0     H23325  -1.253   6.239   3.419  0.0986  0.7853 -1.2203
  173MOL0     H23326  -1.245   6.406   3.369  2.3076 -4.8088 -2.3631
  173MOL0     H23327  -1.425   6.286   3.603  0.5228  0.9365  1.8437
  173MOL0     H23328  -1.426   6.456   3.557  2.0151  2.0263 -2.5669
  173MOL0     H23329  -1.488   6.354   3.318  0.5153 -1.7572  0.1650
  173MOL0     H23330  -1.616   6.350   3.431  0.8071  2.0519  0.6640
  173MOL0     H23331  -1.568   6.129   3.300 -0.8880  2.0803 -0.4618
  173MOL0     H23332  -1.423   6.114   3.387 -0.0512 -0.4383  1.1504
  173MOL0     H23333  -1.568   6.172   3.612  2.6639  1.2392 -1.3361
  173MOL0     H23334  -1.501   6.029   3.573  1.4052  1.8397  1.7837
  173MOL0     H23335  -1.718   5.980   3.620 -1.3408 -0.0644  0.2845
  173MOL0     H23336  -1.679   5.948   3.446  0.5798  1.7973 -1.7056
  173MOL0     H23337  -0.840   6.619   3.303  0.2334  1.1177 -1.5649
  173MOL0     H23338  -0.705   6.592   3.139 -0.6640  0.5508  1.1740
  173MOL0     H23339  -0.475   6.135   2.995 -0.9480  1.6388 -0.5234
  173MOL0     H23340  -0.309   5.987   2.890 -0.8283 -0.3492  0.2869
  173MOL0     H23341   1.283   6.493   2.524  0.7815  0.4139  0.2205
  173MOL0     H23342   1.490   6.594   2.498  0.7485  0.3309 -0.0577
  173MOL0     H23343   1.855   6.735   2.664 -2.3233 -0.2356  2.6107
  173MOL0     H23344   2.089   6.826   2.607  0.2221 -0.8688  0.5926
  173MOL0     H23345   2.249   7.055   2.712  2.4955  0.2400  0.4282
  173MOL0     H23346   2.269   6.916   2.594 -3.7772 -0.9929  1.7954
  173MOL0     H23347   2.388   7.058   2.445  1.8220  1.5523 -0.4557
  173MOL0     H23348   2.471   7.061   2.602 -1.6343  0.2720  3.0374
  173MOL0     H23349   2.366   7.291   2.653 -3.3128 -0.4600  0.8040
  173MOL0     H23350   2.270   7.278   2.506  1.6292  0.9824 -2.3614
  173MOL0     H23351   2.452   7.434   2.474 -0.4738  0.1712 -2.0436
  173MOL0     H23352   2.500   7.292   2.385  2.2452  1.2465  0.8788
  173MOL0     H23353   2.823   7.268   2.627 -1.1739 -2.3140  1.8679
  173MOL0     H23354   1.909   7.198   2.504  2.4901  0.6251  1.1625
  173MOL0     H23355   1.691   7.117   2.569 -1.1853 -0.6104 -1.9197
  174MOL0     O23356  11.323   4.573   1.910  0.1483 -0.2759 -0.2148
  174MOL0     C23357  11.415   4.625   1.976  0.1852  0.4617  0.2033
  174MOL0     O23358  11.399   4.674   2.100 -0.0740 -0.0667 -0.3479
  174MOL0     C23359  11.272   4.707   2.144  0.0629 -0.5619 -0.0578
  174MOL0     C23360  11.200   4.808   2.085  0.7575 -0.5769 -0.6317
  174MOL0     C23361  11.072   4.840   2.124  0.5809 -0.2518  0.9571
  174MOL0     C23362  11.011   4.768   2.222  0.6724 -0.3932  0.0572
  174MOL0     O23363  10.879   4.780   2.250  0.4328  0.3725  0.0541
  174MOL0     C23364  10.782   4.834   2.163  0.7737 -0.7100 -0.1846
  174MOL0     C23365  10.653   4.750   2.170 -0.7429  0.0299 -0.1056
  174MOL0     C23366  10.525   4.827   2.121  0.0946  0.2587  1.0859
  174MOL0     C23367  10.542   4.872   1.975 -0.2374 -0.7711  0.1299
  174MOL0     C23368  10.399   4.920   1.932 -0.8150 -0.7451 -0.1217
  174MOL0     C23369  10.400   4.964   1.784 -0.0118  0.3395  0.5871
  174MOL0     C23370  10.277   5.038   1.731  0.2366  0.1676 -0.3738
  174MOL0     C23371  10.146   4.970   1.788 -0.3710 -0.0828  0.6056
  174MOL0     N23372  10.017   5.017   1.730  0.1726 -0.5396  0.4925
  174MOL0     C23373   9.933   4.939   1.656  0.7944 -0.3523 -0.4784
  174MOL0     C23374   9.823   5.021   1.628  0.2830 -0.1602  1.4074
  174MOL0     C23375   9.709   4.985   1.539 -0.4984 -0.3560 -0.5837
  174MOL0     C23376   9.576   4.996   1.602 -0.5258 -0.7479  0.3267
  174MOL0     C23377   9.523   5.144   1.613  0.2349 -0.2239 -0.4406
  174MOL0     C23378   9.537   5.220   1.484  0.3580  0.1937 -0.5905
  174MOL0     O23379   9.433   5.304   1.445 -0.3757 -0.6313  0.0178
  174MOL0     C23380   9.313   5.234   1.411  0.1001 -0.2668 -0.4908
  174MOL0     C23381   9.285   5.097   1.390 -0.1368  0.4228  0.7216
  174MOL0     C23382   9.162   5.046   1.347  0.2984  0.8764 -0.0314
  174MOL0     C23383   9.155   4.905   1.287 -0.3418  0.4874  0.2993
  174MOL0     C23384   9.053   5.145   1.342  0.2277 -0.5224 -0.2129
  174MOL0     C23385   8.915   5.101   1.309  0.1851 -0.1191  0.1676
  174MOL0     O23386   8.827   5.204   1.286 -0.6155 -0.6828  0.4821
  174MOL0     C23387   8.690   5.189   1.314  0.0050  1.3220 -0.0711
  174MOL0     C23388   8.638   5.291   1.387  0.3870  0.0869 -0.3785
  174MOL0     C23389   8.497   5.287   1.423 -0.9633 -0.3516 -0.9564
  174MOL0     C23390   8.417   5.177   1.382  0.2368 -0.3123  0.0849
  174MOL0     O23391   8.288   5.154   1.422 -0.5825  0.2254 -0.7073
  174MOL0     C23392   8.214   5.255   1.499  0.2808 -0.4882 -0.7329
  174MOL0     C23393   8.072   5.185   1.524 -1.3043  0.2509 -1.5734
  174MOL0     C23394   7.987   5.209   1.402  0.6138 -0.9798 -0.1190
  174MOL0     C23395   7.885   5.097   1.399  0.1562  0.5132  0.9880
  174MOL0     C23396   7.779   5.115   1.281  0.5375  0.3365  0.0291
  174MOL0     C23397   7.658   5.017   1.318  0.2450 -0.1368  0.8590
  174MOL0     C23398   7.581   4.981   1.186 -0.7469 -0.8295  0.2649
  174MOL0     C23399   7.498   5.099   1.127 -0.4683 -0.2489 -0.9714
  174MOL0    Cl23400   7.368   5.158   1.228 -0.6211  0.2316 -0.3734
  174MOL0     C23401   8.468   5.073   1.307  0.6373  0.6086  0.2911
  174MOL0     C23402   8.601   5.079   1.274  0.1083 -0.7816 -0.0169
  174MOL0     O23403   8.890   4.979   1.292 -0.4289 -0.2139  0.3148
  174MOL0     C23404   9.081   5.279   1.379  0.4100  0.0063 -0.3031
  174MOL0     C23405   9.205   5.322   1.409 -0.4312 -0.9168  0.7291
  174MOL0     N23406   9.850   5.144   1.678 -1.2231 -0.7058  0.0262
  174MOL0     N23407   9.962   5.139   1.755  0.3579 -0.1573  0.2124
  174MOL0     C23408  11.092   4.680   2.297  0.0281  0.1865  0.3487
  174MOL0     C23409  11.222   4.647   2.259  0.4218 -0.1055  0.2369
  174MOL0     C23410  11.548   4.592   1.933  0.3455  0.4348  0.5867
  174MOL0     C23411  11.645   4.583   2.031  0.0449  1.1928  0.0895
  174MOL0     C23412  11.779   4.553   2.012  0.1696 -0.2697  0.3248
  174MOL0     C23413  11.827   4.541   1.885  0.1075  0.2176 -0.2387
  174MOL0     O23414  11.971   4.525   1.880  0.5600  0.3095 -1.0045
  174MOL0     C23415  12.027   4.518   1.746 -0.3399 -0.3265  0.1857
  174MOL0     C23416  12.174   4.510   1.739  0.6515 -0.0437  0.0722
  174MOL0     C23417  12.233   4.634   1.815  0.5238  0.8230  0.4515
  174MOL0     C23418  12.386   4.629   1.798 -0.0088  0.0970  0.6415
  174MOL0     C23419  12.453   4.493   1.784  0.4721 -0.2610 -0.5797
  174MOL0     C23420  12.513   4.385   1.790 -0.3813 -0.1745  0.4325
  174MOL0     C23421  11.738   4.542   1.779 -0.6206  0.0931 -0.1530
  174MOL0     C23422  11.600   4.577   1.798 -0.0869  0.2257 -0.2747
  174MOL0     H23423  11.237   4.866   2.001 -0.5487 -2.5194 -2.6900
  174MOL0     H23424  11.012   4.915   2.074  1.8794 -0.1792 -0.5797
  174MOL0     H23425  10.764   4.936   2.199  1.8330 -0.9359  1.0752
  174MOL0     H23426  10.811   4.838   2.058 -1.4813 -2.2123 -0.9289
  174MOL0     H23427  10.666   4.658   2.113  1.2795 -1.0812  1.9625
  174MOL0     H23428  10.636   4.728   2.276  0.1139 -0.5584 -0.0849
  174MOL0     H23429  10.454   4.744   2.120 -1.4769  1.5585  0.3807
  174MOL0     H23430  10.505   4.911   2.188  1.9757  0.4586  1.4775
  174MOL0     H23431  10.605   4.962   1.982 -1.7706  0.3069  0.8940
  174MOL0     H23432  10.584   4.792   1.914  0.2029 -0.7132  0.3483
  174MOL0     H23433  10.328   4.839   1.953 -2.5283  0.1995 -1.9886
  174MOL0     H23434  10.365   5.000   1.998  0.2926 -2.6084  2.9418
  174MOL0     H23435  10.495   5.015   1.765 -0.1292  0.9191  1.5109
  174MOL0     H23436  10.387   4.872   1.726 -1.0423  2.1237 -2.2016
  174MOL0     H23437  10.284   5.137   1.776  1.4956  0.9452 -2.1397
  174MOL0     H23438  10.268   5.054   1.623 -1.6989 -0.0701 -0.2769
  174MOL0     H23439  10.144   4.975   1.897 -3.0794  1.1647  0.5834
  174MOL0     H23440  10.155   4.862   1.770 -0.5434 -0.0274  0.1803
  174MOL0     H23441   9.949   4.838   1.618 -0.6659 -0.0255 -2.0790
  174MOL0     H23442   9.729   5.048   1.452  0.5755 -2.3079 -1.8182
  174MOL0     H23443   9.727   4.885   1.499  0.3493  0.5938 -2.6936
  174MOL0     H23444   9.579   4.940   1.696  2.6386 -1.1813  0.0705
  174MOL0     H23445   9.504   4.935   1.548  0.5077 -2.5023  0.8602
  174MOL0     H23446   9.574   5.206   1.687 -3.2923  2.8275 -0.2679
  174MOL0     H23447   9.418   5.141   1.643  0.8207  0.6354  1.8532
  174MOL0     H23448   9.573   5.154   1.405  0.0869 -1.3940  0.5559
  174MOL0     H23449   9.616   5.294   1.500 -0.3955  1.2096 -1.4615
  174MOL0     H23450   9.383   5.050   1.391 -0.3375  0.0186  1.6453
  174MOL0     H23451   9.259   4.869   1.283 -0.9036 -1.0855 -1.8963
  174MOL0     H23452   9.097   4.831   1.343  1.1730 -1.0369 -0.0683
  174MOL0     H23453   9.106   4.911   1.190  1.4200 -0.8801 -0.7536
  174MOL0     H23454   8.694   5.377   1.421  1.2564 -0.5583 -0.1464
  174MOL0     H23455   8.451   5.362   1.486 -1.0892 -1.3278  0.1421
  174MOL0     H23456   8.260   5.291   1.591  0.6636 -2.9985  0.1237
  174MOL0     H23457   8.203   5.337   1.427  1.8844  0.7292  0.3389
  174MOL0     H23458   8.091   5.078   1.534 -1.3240  0.4427  1.7171
  174MOL0     H23459   8.038   5.227   1.620 -0.7854 -0.8219 -0.9053
  174MOL0     H23460   8.048   5.206   1.311  0.9581  1.5486 -0.0540
  174MOL0     H23461   7.940   5.308   1.393 -1.9049 -2.1254 -0.3258
  174MOL0     H23462   7.938   5.003   1.382  2.1596  1.6994  0.4121
  174MOL0     H23463   7.840   5.090   1.499  0.6601  0.8943  1.2464
  174MOL0     H23464   7.827   5.094   1.185  1.3530  1.7360  0.1047
  174MOL0     H23465   7.733   5.214   1.282 -3.0453 -1.1504  1.2912
  174MOL0     H23466   7.693   4.918   1.351  0.6307 -0.7525 -1.2531
  174MOL0     H23467   7.591   5.069   1.386  0.2412 -0.2081  0.9098
  174MOL0     H23468   7.526   4.889   1.208  2.3667 -3.6315 -2.5866
  174MOL0     H23469   7.657   4.947   1.115 -2.7901 -1.5640 -1.6615
  174MOL0     H23470   7.444   5.065   1.038 -1.5329  1.6308 -1.0930
  174MOL0     H23471   7.558   5.184   1.095  0.0221 -0.5670 -0.9206
  174MOL0     H23472   8.405   4.993   1.269  1.7610 -1.7907  3.1330
  174MOL0     H23473   8.622   5.007   1.196  2.4180  1.0841 -1.2343
  174MOL0     H23474   8.994   5.343   1.383 -1.2685 -2.1753  0.5348
  174MOL0     H23475   9.207   5.426   1.439  2.7545 -0.9559  1.0579
  174MOL0     H23476  11.042   4.626   2.377 -1.7311  0.3806 -0.5850
  174MOL0     H23477  11.269   4.576   2.326 -2.3354  1.1098  3.7898
  174MOL0     H23478  11.610   4.584   2.134 -1.3605 -1.4455 -0.2489
  174MOL0     H23479  11.845   4.552   2.098 -1.1855 -0.3220  1.3849
  174MOL0     H23480  11.984   4.433   1.691 -1.6108 -1.1360  2.2949
  174MOL0     H23481  12.021   4.615   1.697 -0.5843 -1.0693 -1.2992
  174MOL0     H23482  12.207   4.503   1.635  0.0714  2.2119 -0.3411
  174MOL0     H23483  12.205   4.422   1.795  0.5475  0.3338  0.7363
  174MOL0     H23484  12.220   4.606   1.920 -0.6247 -2.2888 -0.4322
  174MOL0     H23485  12.192   4.732   1.788 -0.7132  0.0772 -0.4469
  174MOL0     H23486  12.427   4.688   1.882 -2.5920  0.8996  1.4287
  174MOL0     H23487  12.398   4.684   1.705 -1.8895 -0.4504  0.0502
  174MOL0     H23488  12.564   4.291   1.790 -2.0548 -1.1224  0.5697
  174MOL0     H23489  11.771   4.535   1.676 -0.3887 -0.6421 -0.0361
  174MOL0     H23490  11.525   4.586   1.720 -0.6092 -4.1724 -0.4994
  175MOL0     O23491   7.128   5.998  10.244  0.3972  0.2711  0.3629
  175MOL0     C23492   7.150   5.878  10.233  0.4390 -0.5579 -0.0287
  175MOL0     O23493   7.055   5.782  10.257  0.2281 -0.0913 -0.4829
  175MOL0     C23494   6.920   5.810  10.250 -0.2751  0.5316 -0.5515
  175MOL0     C23495   6.837   5.727  10.330 -0.1361  0.1164 -0.0263
  175MOL0     C23496   6.694   5.727  10.321  0.2616 -1.0508 -0.0279
  175MOL0     C23497   6.628   5.815  10.236 -0.2007  0.0363 -0.0808
  175MOL0     O23498   6.497   5.830  10.222 -0.0458 -0.6244 -1.0045
  175MOL0     C23499   6.401   5.755  10.286  0.4620  0.0918 -0.0261
  175MOL0     C23500   6.261   5.791  10.231 -0.4100 -0.7340 -0.6928
  175MOL0     C23501   6.146   5.726  10.309 -0.4150 -0.0167 -1.0764
  175MOL0     C23502   6.141   5.778  10.449 -0.2045 -0.0993  0.1014
  175MOL0     C23503   6.009   5.743  10.519 -0.4828 -0.7087 -0.6998
  175MOL0     C23504   6.019   5.727  10.669 -0.2396 -0.3397 -0.5231
  175MOL0     C23505   5.894   5.677  10.736  0.2046 -0.1602  0.0229
  175MOL0     C23506   5.774   5.782  10.736 -0.1268 -0.1506  0.2160
  175MOL0     N23507   5.650   5.732  10.790  0.4575 -0.0327  0.0857
  175MOL0     C23508   5.590   5.740  10.911  0.1410 -0.3078  0.9846
  175MOL0     C23509   5.467   5.700  10.897 -0.6929  0.4351 -0.8345
  175MOL0     C23510   5.361   5.684  11.006  0.3204 -0.6104  0.1478
  175MOL0     C23511   5.240   5.780  10.989  0.2542  0.9276 -0.1576
  175MOL0     C23512   5.267   5.925  11.014  0.1263 -0.2619 -0.1464
  175MOL0     C23513   5.149   6.022  10.986  0.4128  0.4324  0.2873
  175MOL0     O23514   5.184   6.159  10.957 -0.3626  0.2012  0.5910
  175MOL0     C23515   5.076   6.248  10.934 -0.4016  0.1709  0.7653
  175MOL0     C23516   5.095   6.384  10.926 -0.4688 -0.2985 -0.1100
  175MOL0     C23517   5.003   6.484  10.890  0.3673  0.9031  0.4448
  175MOL0     C23518   5.048   6.619  10.865  0.4191  0.4518  0.3338
  175MOL0     C23519   4.872   6.442  10.860  0.7302 -0.2781  0.6251
  175MOL0     C23520   4.761   6.535  10.829  0.3635 -0.5343  0.4621
  175MOL0     O23521   4.653   6.487  10.756 -0.1696  0.0820  0.2486
  175MOL0     C23522   4.541   6.564  10.770 -0.3400  1.0751  0.3679
  175MOL0     C23523   4.488   6.633  10.660  0.3553  0.0244  0.6167
  175MOL0     C23524   4.367   6.704  10.667 -0.2784  0.2514  0.1926
  175MOL0     C23525   4.303   6.722  10.790 -0.6806 -0.2961 -0.2534
  175MOL0     O23526   4.188   6.792  10.794 -0.6940 -0.2065 -0.2162
  175MOL0     C23527   4.122   6.799  10.921 -0.6941  0.3645 -0.3684
  175MOL0     C23528   4.001   6.893  10.918  0.9970 -0.0336  1.5537
  175MOL0     C23529   3.957   6.949  11.056  0.2188  1.0138  0.2593
  175MOL0     C23530   3.835   7.041  11.022  0.3246 -0.6052  0.4217
  175MOL0     C23531   3.784   7.113  11.145  0.3763  0.5488 -0.1675
  175MOL0     C23532   3.704   7.025  11.238  0.6421 -0.2753  0.0778
  175MOL0     C23533   3.586   6.940  11.186  0.1944 -0.0515  0.8847
  175MOL0     C23534   3.476   7.031  11.139  0.0955  0.2310 -0.5162
  175MOL0    Cl23535   3.309   6.946  11.170 -0.2067 -0.3499 -0.1793
  175MOL0     C23536   4.364   6.674  10.909 -0.0786 -0.6172 -0.2106
  175MOL0     C23537   4.483   6.599  10.896  0.4698  0.4153  1.0381
  175MOL0     O23538   4.774   6.653  10.866 -0.0114 -0.4434 -0.2049
  175MOL0     C23539   4.846   6.305  10.858 -0.1773  0.0995 -0.2869
  175MOL0     C23540   4.948   6.213  10.895  0.4232  0.3819 -0.0618
  175MOL0     N23541   5.449   5.663  10.767  0.2853 -0.4267 -0.3854
  175MOL0     N23542   5.557   5.678  10.707  0.7098 -0.1288 -0.0381
  175MOL0     C23543   6.716   5.885  10.145 -0.6972 -0.0065  0.1677
  175MOL0     C23544   6.856   5.887  10.154 -0.1052  0.1360 -0.1158
  175MOL0     C23545   7.289   5.840  10.223 -0.5470  0.8267 -0.0339
  175MOL0     C23546   7.317   5.712  10.174  0.0905  0.3407  0.4088
  175MOL0     C23547   7.448   5.660  10.187  0.6912  1.0160 -0.7032
  175MOL0     C23548   7.555   5.733  10.234  0.0281 -0.3879 -0.6626
  175MOL0     O23549   7.678   5.691  10.237 -0.3400  0.0067 -0.1079
  175MOL0     C23550   7.796   5.753  10.291 -0.1480  0.0315  0.0873
  175MOL0     C23551   7.929   5.671  10.288  0.3996  0.3463  0.2175
  175MOL0     C23552   8.046   5.739  10.372  0.0730  0.3001 -0.4184
  175MOL0     C23553   8.038   5.709  10.523  0.5935 -0.0717  0.2810
  175MOL0     C23554   8.042   5.571  10.559  0.9731 -0.1665  0.1638
  175MOL0     C23555   8.036   5.461  10.611 -0.8763  0.4020 -0.2285
  175MOL0     C23556   7.531   5.864  10.271  0.0941 -0.2930  1.0809
  175MOL0     C23557   7.400   5.919  10.262  0.7871  0.5005  0.5717
  175MOL0     H23558   6.883   5.646  10.385 -1.1604  1.1024  2.4139
  175MOL0     H23559   6.639   5.654  10.379  0.5480 -0.2401  1.2999
  175MOL0     H23560   6.417   5.646  10.281  1.0930  0.2329 -2.2254
  175MOL0     H23561   6.408   5.780  10.392  0.0751  0.2096 -0.0283
  175MOL0     H23562   6.253   5.900  10.226  2.3142 -0.3725  0.5560
  175MOL0     H23563   6.256   5.757  10.127  3.6439 -1.6257 -0.7722
  175MOL0     H23564   6.049   5.749  10.264 -0.7560  0.0348 -0.3218
  175MOL0     H23565   6.158   5.618  10.318 -0.3873  0.1566  1.8944
  175MOL0     H23566   6.227   5.735  10.501 -0.1773 -1.2771 -0.8867
  175MOL0     H23567   6.170   5.884  10.451  1.3627 -0.3694 -2.9295
  175MOL0     H23568   5.932   5.819  10.503 -0.5778 -0.5175  0.5281
  175MOL0     H23569   5.961   5.653  10.481  0.3755 -2.3627  1.8202
  175MOL0     H23570   6.095   5.651  10.686 -0.7789 -0.5812  0.9833
  175MOL0     H23571   6.040   5.823  10.718 -0.8705 -0.1822 -0.5414
  175MOL0     H23572   5.868   5.587  10.677  1.6570  0.4864 -1.6884
  175MOL0     H23573   5.908   5.649  10.840  0.2183 -1.4902 -0.3168
  175MOL0     H23574   5.781   5.809  10.631  2.1099  0.5154  0.4892
  175MOL0     H23575   5.797   5.870  10.797  1.6768 -1.9333  2.3183
  175MOL0     H23576   5.636   5.779  11.001  0.8662 -1.2334  1.0330
  175MOL0     H23577   5.340   5.579  10.981 -0.8612  0.0956 -2.0629
  175MOL0     H23578   5.401   5.689  11.108  2.6936 -1.8031 -0.6484
  175MOL0     H23579   5.159   5.752  11.056 -0.8804  0.4273 -1.6849
  175MOL0     H23580   5.206   5.770  10.885 -0.6778  0.5460  0.1814
  175MOL0     H23581   5.345   5.965  10.949  1.6047 -1.4145  0.8593
  175MOL0     H23582   5.310   5.938  11.113  0.8768  0.8329 -0.5998
  175MOL0     H23583   5.084   6.030  11.074  0.7149 -0.0487  0.5575
  175MOL0     H23584   5.092   5.989  10.898  2.1347  1.9148 -1.4854
  175MOL0     H23585   5.202   6.403  10.934 -0.7223  0.6934  1.3082
  175MOL0     H23586   5.156   6.621  10.853  0.3380 -0.1585 -0.5933
  175MOL0     H23587   5.010   6.653  10.768  0.6036 -3.3866 -1.2901
  175MOL0     H23588   5.022   6.685  10.948 -0.5623 -0.7397  1.0188
  175MOL0     H23589   4.531   6.627  10.561  1.4217 -2.4692  1.1554
  175MOL0     H23590   4.326   6.746  10.576 -0.1418  1.8390  0.8438
  175MOL0     H23591   4.090   6.702  10.958  0.8640  0.4383  1.3046
  175MOL0     H23592   4.187   6.838  10.999 -2.3781  1.5192  0.5406
  175MOL0     H23593   4.028   6.968  10.843  1.2670 -2.8130 -1.3359
  175MOL0     H23594   3.916   6.842  10.871 -0.0513  2.9404 -0.0477
  175MOL0     H23595   4.038   7.007  11.101  0.4424 -1.2832  3.0867
  175MOL0     H23596   3.932   6.865  11.122  2.2404 -0.7527 -1.0871
  175MOL0     H23597   3.864   7.117  10.949  0.3909  0.3391  1.4110
  175MOL0     H23598   3.756   6.989  10.967  0.3070  0.6181 -0.7819
  175MOL0     H23599   3.721   7.192  11.103 -2.8172 -2.1462 -0.8798
  175MOL0     H23600   3.873   7.141  11.202 -0.6229  0.6529  1.4291
  175MOL0     H23601   3.778   6.957  11.282  1.6582 -1.2098 -2.8339
  175MOL0     H23602   3.665   7.087  11.320  0.7295  3.3970 -2.4152
  175MOL0     H23603   3.552   6.896  11.280  2.1142 -0.5642  1.3852
  175MOL0     H23604   3.621   6.863  11.116 -0.5524 -0.5625  1.0632
  175MOL0     H23605   3.499   7.045  11.033  2.9513  0.3058  0.0293
  175MOL0     H23606   3.477   7.124  11.196 -1.0207 -1.1157  1.8915
  175MOL0     H23607   4.318   6.677  11.007  0.0861  1.5193 -0.1516
  175MOL0     H23608   4.528   6.551  10.982 -0.1494 -2.0762  0.0768
  175MOL0     H23609   4.742   6.275  10.844 -2.2015  2.3657  6.2895
  175MOL0     H23610   4.903   6.114  10.891 -0.3432  0.7381 -0.5474
  175MOL0     H23611   6.673   5.947  10.068 -1.3223 -2.3556 -1.4692
  175MOL0     H23612   6.900   5.942  10.072 -3.0227  1.4250 -0.9349
  175MOL0     H23613   7.241   5.649  10.130  0.8391  0.6269 -1.3892
  175MOL0     H23614   7.470   5.559  10.155 -0.9482  0.0013  1.1518
  175MOL0     H23615   7.805   5.849  10.239 -1.6879 -1.8643 -4.1101
  175MOL0     H23616   7.770   5.776  10.395  0.7493 -0.9756  0.5541
  175MOL0     H23617   7.964   5.660  10.184  0.1521 -0.0688  0.1751
  175MOL0     H23618   7.905   5.570  10.323  0.3520  0.0956 -0.5173
  175MOL0     H23619   8.046   5.848  10.369  2.0490  0.5463  3.0362
  175MOL0     H23620   8.142   5.706  10.332  1.4374  1.0040  2.0115
  175MOL0     H23621   7.940   5.747  10.551 -0.8762 -2.1093 -1.7313
  175MOL0     H23622   8.113   5.763  10.582 -1.5286  2.4529  0.8350
  175MOL0     H23623   8.049   5.365  10.657  4.6261  1.9598  2.3086
  175MOL0     H23624   7.618   5.924  10.297 -0.1217  0.7217 -0.3974
  175MOL0     H23625   7.384   6.020  10.299  0.4200  1.3153 -1.6396
  176MOL0     O23626   4.020   0.558   3.412 -0.3925  0.5358  0.4106
  176MOL0     C23627   3.976   0.452   3.375 -0.7071  0.1619  0.4879
  176MOL0     O23628   3.862   0.390   3.421 -0.2280 -0.2359 -0.7947
  176MOL0     C23629   3.785   0.456   3.514 -0.2489  0.3622 -0.6168
  176MOL0     C23630   3.832   0.467   3.650  0.0857  0.1634 -0.4277
  176MOL0     C23631   3.746   0.517   3.754 -0.3735  0.2546  0.3094
  176MOL0     C23632   3.617   0.546   3.730  0.1706  0.2625  0.2492
  176MOL0     O23633   3.543   0.585   3.840  0.5421  0.2600 -0.6686
  176MOL0     C23634   3.394   0.613   3.826 -1.0355 -0.1233  0.3619
  176MOL0     C23635   3.317   0.653   3.951 -0.0575 -0.0526 -0.4382
  176MOL0     C23636   3.188   0.732   3.910  0.1974 -0.4004 -0.5033
  176MOL0     C23637   3.062   0.694   3.997  0.1184 -0.7751 -0.2020
  176MOL0     C23638   2.935   0.714   3.912 -0.1494 -0.8833 -0.2542
  176MOL0     C23639   2.908   0.867   3.904  0.1787 -0.1372  0.4837
  176MOL0     C23640   2.811   0.906   3.791  0.7394 -0.3434 -0.1910
  176MOL0     C23641   2.675   0.831   3.793  0.3266 -0.4983 -0.3651
  176MOL0     N23642   2.580   0.866   3.895 -0.0762 -0.7807 -0.4864
  176MOL0     C23643   2.510   0.982   3.884 -0.4241 -0.0914  0.3924
  176MOL0     C23644   2.472   1.010   4.008  0.1905  0.1798  0.0370
  176MOL0     C23645   2.414   1.142   4.068  0.1751 -0.4211  0.5913
  176MOL0     C23646   2.263   1.145   4.032 -0.3180  0.0721 -0.5253
  176MOL0     C23647   2.185   1.048   4.106  0.2848 -0.1178 -0.2937
  176MOL0     C23648   2.031   1.061   4.072  0.0472 -0.3531 -0.4283
  176MOL0     O23649   1.974   1.190   4.103 -0.4086 -0.2690 -0.0438
  176MOL0     C23650   1.855   1.208   4.038  0.7825  0.2825  0.1662
  176MOL0     C23651   1.774   1.103   3.997  0.6187  0.1928 -0.1937
  176MOL0     C23652   1.651   1.127   3.937 -0.2182 -0.3270  1.3404
  176MOL0     C23653   1.553   1.021   3.887 -0.3063  1.0403 -0.1449
  176MOL0     C23654   1.611   1.257   3.904 -0.9241 -0.0167  0.7587
  176MOL0     C23655   1.493   1.289   3.825  0.0820 -0.5290 -0.4658
  176MOL0     O23656   1.370   1.279   3.885  0.1744 -0.0082 -0.0370
  176MOL0     C23657   1.265   1.223   3.817 -0.2947 -0.0730  0.9296
  176MOL0     C23658   1.139   1.251   3.868 -1.1749 -0.1290 -0.5199
  176MOL0     C23659   1.024   1.216   3.800  0.5422 -0.4939  0.7807
  176MOL0     C23660   1.029   1.139   3.683  0.6277 -0.3466  0.1605
  176MOL0     O23661   0.908   1.115   3.615  0.1136 -0.2701  0.6308
  176MOL0     C23662   0.910   1.141   3.475 -0.4773  0.3291  0.4293
  176MOL0     C23663   0.770   1.102   3.413 -0.2621  0.0817  0.7742
  176MOL0     C23664   0.764   1.156   3.266  0.1208  0.2477  0.1470
  176MOL0     C23665   0.638   1.098   3.197  0.4250  0.1329  0.8511
  176MOL0     C23666   0.606   1.165   3.068  0.2280 -0.2167  0.7733
  176MOL0     C23667   0.462   1.144   3.036  1.1976 -0.3861 -0.4711
  176MOL0     C23668   0.430   1.184   2.894  0.1288  0.0156 -0.7474
  176MOL0     C23669   0.288   1.217   2.875 -0.4764  0.1146  0.2648
  176MOL0    Cl23670   0.185   1.071   2.877 -0.1263 -0.4848 -0.1806
  176MOL0     C23671   1.151   1.111   3.626  0.0715 -0.4101 -0.7316
  176MOL0     C23672   1.264   1.153   3.695 -0.1144  0.7754  0.3460
  176MOL0     O23673   1.520   1.337   3.716  0.4629 -0.8627  0.4283
  176MOL0     C23674   1.701   1.371   3.933  0.2158 -0.0142  0.5171
  176MOL0     C23675   1.813   1.341   4.006 -0.0247  0.1812 -0.3233
  176MOL0     N23676   2.513   0.904   4.092  0.2938 -0.2599  0.1714
  176MOL0     N23677   2.589   0.833   4.026  1.0283 -0.1446 -0.5655
  176MOL0     C23678   3.564   0.534   3.599 -0.4470  0.9209  0.3144
  176MOL0     C23679   3.652   0.484   3.495 -0.1440  0.0733  0.2020
  176MOL0     C23680   4.046   0.383   3.251  0.6345  0.8059 -0.7541
  176MOL0     C23681   4.163   0.411   3.195 -0.5032  0.8646  0.2021
  176MOL0     C23682   4.216   0.351   3.081 -0.4863 -1.2860 -0.0239
  176MOL0     C23683   4.142   0.250   3.022  0.4387 -0.1391 -0.0889
  176MOL0     O23684   4.190   0.176   2.916  0.1275  0.2550 -0.1860
  176MOL0     C23685   4.318   0.186   2.853  0.1523 -0.1495 -0.4973
  176MOL0     C23686   4.342   0.056   2.782 -0.1218 -0.2365 -0.3250
  176MOL0     C23687   4.360  -0.060   2.875  0.2445  0.6378  0.2742
  176MOL0     C23688   4.392  -0.196   2.808  0.2982  0.6667 -1.2858
  176MOL0     C23689   4.525  -0.206   2.745  0.1777 -0.0550  0.2671
  176MOL0     C23690   4.621  -0.216   2.676 -0.1071 -0.2320 -0.0062
  176MOL0     C23691   4.011   0.221   3.066  0.1503  0.1400 -0.8678
  176MOL0     C23692   3.975   0.284   3.190  0.3620  0.5163 -0.2280
  176MOL0     H23693   3.928   0.432   3.684 -0.0849  0.2541  0.1627
  176MOL0     H23694   3.785   0.535   3.854 -1.1661 -0.0610  0.6897
  176MOL0     H23695   3.383   0.702   3.765 -0.5150  0.5157  1.1829
  176MOL0     H23696   3.348   0.526   3.777  2.1594 -1.4415 -0.5633
  176MOL0     H23697   3.288   0.561   4.003  2.5116 -0.8993 -0.3371
  176MOL0     H23698   3.376   0.711   4.023 -3.6523  1.0902  1.9026
  176MOL0     H23699   3.203   0.840   3.904  0.1840 -0.4206 -0.9176
  176MOL0     H23700   3.169   0.693   3.810 -0.7142 -0.2789 -0.3806
  176MOL0     H23701   3.067   0.589   4.025 -4.6049 -1.2396 -0.2857
  176MOL0     H23702   3.070   0.760   4.084  1.7988 -0.3684 -0.6337
  176MOL0     H23703   2.945   0.676   3.810 -2.3215 -0.0536 -0.8386
  176MOL0     H23704   2.849   0.682   3.971 -0.8679  1.3259  0.0046
  176MOL0     H23705   2.873   0.903   4.001 -0.6735  0.8370 -0.1653
  176MOL0     H23706   2.999   0.924   3.884 -0.1135  0.1130 -0.1868
  176MOL0     H23707   2.774   1.009   3.792 -1.0153 -0.9512  0.4657
  176MOL0     H23708   2.858   0.884   3.695 -2.6562  2.6125 -2.8336
  176MOL0     H23709   2.703   0.725   3.794  0.9490 -0.3476  0.4935
  176MOL0     H23710   2.627   0.849   3.697  2.3335  0.1019 -1.3149
  176MOL0     H23711   2.488   1.045   3.799  3.0467 -0.0691 -0.6115
  176MOL0     H23712   2.440   1.138   4.174  2.3259 -0.7725  0.0834
  176MOL0     H23713   2.463   1.228   4.021  0.8123 -0.4603  1.1751
  176MOL0     H23714   2.245   1.117   3.927 -0.6453 -1.7177 -0.0354
  176MOL0     H23715   2.225   1.246   4.049  0.2227  0.6548 -2.4913
  176MOL0     H23716   2.198   1.081   4.209  1.9894  0.1824 -0.5822
  176MOL0     H23717   2.220   0.949   4.076  0.0795 -0.0692 -0.7117
  176MOL0     H23718   1.984   0.983   4.132  0.7191 -1.2022 -0.9719
  176MOL0     H23719   2.020   1.029   3.967 -0.7065  0.2990 -0.5528
  176MOL0     H23720   1.797   0.997   4.005  1.0046  0.2638 -0.3157
  176MOL0     H23721   1.599   0.926   3.917 -1.0879  1.2079  1.7089
  176MOL0     H23722   1.451   1.018   3.926 -1.4131  0.4852 -2.8971
  176MOL0     H23723   1.545   1.032   3.779  0.8434  0.8617 -0.2667
  176MOL0     H23724   1.133   1.293   3.967 -1.5850  0.7926 -0.9182
  176MOL0     H23725   0.923   1.231   3.837 -0.2108 -3.1995  0.0838
  176MOL0     H23726   0.926   1.247   3.457  0.3667  0.3052  1.0062
  176MOL0     H23727   0.982   1.085   3.415  0.6995  2.1006  0.1317
  176MOL0     H23728   0.750   0.995   3.401  1.0786 -0.1709  0.5694
  176MOL0     H23729   0.693   1.150   3.474 -1.7231  1.9840 -2.3078
  176MOL0     H23730   0.853   1.122   3.212 -1.1679 -2.0448 -0.6802
  176MOL0     H23731   0.761   1.265   3.252 -0.3696  0.0801 -1.1869
  176MOL0     H23732   0.658   0.993   3.173 -0.3298  0.4552 -1.4101
  176MOL0     H23733   0.555   1.089   3.266 -1.2022 -3.2754 -1.2764
  176MOL0     H23734   0.670   1.127   2.988 -0.2766  1.3220 -0.4135
  176MOL0     H23735   0.620   1.273   3.063  1.5958 -0.4462 -2.0947
  176MOL0     H23736   0.430   1.039   3.047 -0.9898  0.2489 -0.1698
  176MOL0     H23737   0.396   1.200   3.103  3.1767 -0.2043  1.4020
  176MOL0     H23738   0.459   1.106   2.823  0.9470  0.5541 -1.0226
  176MOL0     H23739   0.483   1.276   2.868  1.4875 -0.6332 -0.3777
  176MOL0     H23740   0.283   1.246   2.770  0.5852  0.3299  0.2661
  176MOL0     H23741   0.243   1.302   2.927 -0.3711  0.6210 -0.4511
  176MOL0     H23742   1.155   1.048   3.537 -0.1857 -1.3753 -0.0808
  176MOL0     H23743   1.359   1.133   3.646 -1.1200  1.8541 -2.2125
  176MOL0     H23744   1.666   1.473   3.918  0.5837 -0.1445 -1.5220
  176MOL0     H23745   1.879   1.420   4.042  1.2064  0.0160 -2.0662
  176MOL0     H23746   3.462   0.552   3.568 -0.8706  3.6930  2.8347
  176MOL0     H23747   3.599   0.469   3.401 -0.0644 -2.9895  0.5516
  176MOL0     H23748   4.233   0.483   3.237  0.6335  0.5692 -1.1279
  176MOL0     H23749   4.313   0.385   3.046 -1.1152 -0.3611 -0.9261
  176MOL0     H23750   4.328   0.278   2.794 -0.4893  1.1557  1.3415
  176MOL0     H23751   4.393   0.199   2.932 -1.8510  1.7771  1.2164
  176MOL0     H23752   4.438   0.070   2.733  0.6501 -0.0282  1.1704
  176MOL0     H23753   4.262   0.033   2.711 -0.3567  0.7259 -0.3917
  176MOL0     H23754   4.268  -0.075   2.931  0.4956  0.7881  0.7340
  176MOL0     H23755   4.446  -0.031   2.935 -0.5645  1.0960  1.2436
  176MOL0     H23756   4.316  -0.220   2.734 -1.3062  0.3525  0.4023
  176MOL0     H23757   4.381  -0.264   2.893 -0.9355  3.9363  1.4360
  176MOL0     H23758   4.707  -0.223   2.611 -0.7859 -1.5404 -0.7894
  176MOL0     H23759   3.941   0.154   3.018  0.7506  0.0124 -1.5856
  176MOL0     H23760   3.885   0.244   3.237  1.1026  1.1119  1.8440
  177MOL0     O23761   9.692   1.242   5.910 -0.4272  0.4417  0.3201
  177MOL0     C23762   9.753   1.170   5.827  0.2116 -0.2033  0.5828
  177MOL0     O23763   9.717   1.128   5.702  0.8359 -0.0212 -0.6743
  177MOL0     C23764   9.594   1.184   5.667  0.2416  0.7230 -0.7422
  177MOL0     C23765   9.472   1.131   5.722  0.3078 -0.2091  0.2527
  177MOL0     C23766   9.356   1.189   5.682  0.6642  0.1843  0.1154
  177MOL0     C23767   9.348   1.293   5.590 -0.2407 -0.5756 -0.0521
  177MOL0     O23768   9.216   1.344   5.571  0.0922  0.5173  0.4847
  177MOL0     C23769   9.180   1.361   5.430 -0.2130 -0.0571 -0.0043
  177MOL0     C23770   9.157   1.222   5.349 -0.3844  0.3179  0.1571
  177MOL0     C23771   9.070   1.228   5.221 -0.9590 -0.5850  0.1162
  177MOL0     C23772   9.082   1.101   5.148 -0.2412 -0.3016 -0.1467
  177MOL0     C23773   9.004   1.095   5.017  0.2942  0.1056 -0.2428
  177MOL0     C23774   8.849   1.100   5.025 -0.0342 -0.4165  0.0956
  177MOL0     C23775   8.776   1.090   4.884  0.0088  0.1038  1.1769
  177MOL0     C23776   8.811   0.961   4.814 -0.5572 -0.7041  0.6937
  177MOL0     N23777   8.745   0.957   4.682 -0.3767 -0.6815  0.0071
  177MOL0     C23778   8.630   0.889   4.665 -0.4734 -0.5002 -0.0936
  177MOL0     C23779   8.588   0.921   4.540 -0.8632 -0.6903  0.2592
  177MOL0     C23780   8.458   0.877   4.475  0.1195 -0.6598 -0.4144
  177MOL0     C23781   8.345   0.976   4.493  0.3691 -0.7705 -0.0995
  177MOL0     C23782   8.379   1.094   4.400  0.3245 -0.1492  0.0203
  177MOL0     C23783   8.265   1.190   4.407  0.3818  0.1885  0.0724
  177MOL0     O23784   8.150   1.146   4.339 -0.2364  0.1341 -0.3566
  177MOL0     C23785   8.033   1.204   4.367  0.5080 -0.4216 -0.4362
  177MOL0     C23786   8.011   1.305   4.463 -0.1877 -0.3026 -0.1417
  177MOL0     C23787   7.888   1.360   4.493  0.1574 -0.2804 -0.4422
  177MOL0     C23788   7.887   1.463   4.609  0.6499 -0.5102  0.9290
  177MOL0     C23789   7.775   1.308   4.422 -0.3740  0.0999  0.2993
  177MOL0     C23790   7.634   1.352   4.453 -0.0807 -0.2574  0.1247
  177MOL0     O23791   7.540   1.289   4.373 -0.0581  0.1674  0.3298
  177MOL0     C23792   7.409   1.315   4.411 -0.3239 -0.0426 -0.0523
  177MOL0     C23793   7.353   1.238   4.512  0.2402 -0.2140 -0.8685
  177MOL0     C23794   7.218   1.271   4.550 -0.5277 -0.1823  0.5016
  177MOL0     C23795   7.159   1.388   4.497 -0.1718 -1.0287  0.5332
  177MOL0     O23796   7.047   1.450   4.551  0.0476 -1.0552  0.4991
  177MOL0     C23797   6.932   1.359   4.566 -0.1280  0.1880 -0.0374
  177MOL0     C23798   6.803   1.430   4.619 -0.2081  0.4528 -0.0709
  177MOL0     C23799   6.684   1.330   4.633 -0.8966  0.4962 -0.3949
  177MOL0     C23800   6.577   1.398   4.719 -0.1709  0.6005 -0.0505
  177MOL0     C23801   6.448   1.325   4.703 -0.6406 -0.2137  1.0180
  177MOL0     C23802   6.342   1.389   4.788 -1.0365 -0.0557  0.7489
  177MOL0     C23803   6.201   1.328   4.756  1.3416  0.5148  0.4236
  177MOL0     C23804   6.094   1.399   4.838  0.4856 -0.1691 -0.0644
  177MOL0    Cl23805   5.921   1.346   4.797  0.3807 -0.1362  0.1940
  177MOL0     C23806   7.225   1.456   4.394  0.8399  0.0361 -0.2281
  177MOL0     C23807   7.349   1.423   4.350 -0.2003 -0.0999  0.0952
  177MOL0     O23808   7.611   1.448   4.529 -0.1058  0.1228  0.5018
  177MOL0     C23809   7.797   1.202   4.331 -0.3808 -0.5581 -0.0481
  177MOL0     C23810   7.925   1.145   4.303  0.1154 -0.1500 -0.5267
  177MOL0     N23811   8.688   1.002   4.478 -0.0247 -0.2790 -0.2175
  177MOL0     N23812   8.779   1.024   4.569 -0.0007 -0.3338 -0.2874
  177MOL0     C23813   9.466   1.347   5.538 -1.2656  0.4604  0.7227
  177MOL0     C23814   9.590   1.296   5.584 -0.4426 -0.3210  0.1149
  177MOL0     C23815   9.882   1.106   5.863 -0.3166 -0.1876 -0.2607
  177MOL0     C23816   9.966   1.036   5.773  0.3636  0.2688 -0.1286
  177MOL0     C23817  10.075   0.962   5.821 -0.7471 -0.2121  0.2757
  177MOL0     C23818  10.092   0.937   5.956 -0.7899 -0.1154 -0.0715
  177MOL0     O23819  10.199   0.855   5.989 -0.0308  0.1463  0.4534
  177MOL0     C23820  10.185   0.794   6.123 -0.1945 -0.3316  0.4455
  177MOL0     C23821  10.286   0.685   6.171  0.0931  0.0264 -0.4737
  177MOL0     C23822  10.425   0.750   6.157  0.1042  0.8708  0.0734
  177MOL0     C23823  10.534   0.649   6.199 -0.3409  0.4358  0.0589
  177MOL0     C23824  10.671   0.686   6.162  0.2516 -0.0614  0.1248
  177MOL0     C23825  10.778   0.723   6.112 -0.0480 -0.3369 -0.4453
  177MOL0     C23826  10.006   1.001   6.054 -0.9689 -0.6578  0.2058
  177MOL0     C23827   9.910   1.085   6.003 -0.3532  0.6273 -0.1884
  177MOL0     H23828   9.483   1.051   5.794 -0.2582  1.9581  2.9330
  177MOL0     H23829   9.261   1.147   5.714 -1.0775  2.3584 -1.8220
  177MOL0     H23830   9.084   1.413   5.423 -0.9682 -1.4686 -0.4094
  177MOL0     H23831   9.252   1.425   5.378 -0.9735 -0.4297 -1.5805
  177MOL0     H23832   9.253   1.175   5.328 -0.8094 -1.5115  1.9609
  177MOL0     H23833   9.120   1.144   5.416  3.0371 -0.8298  0.9387
  177MOL0     H23834   8.971   1.261   5.254 -0.2300  0.2244  1.6001
  177MOL0     H23835   9.107   1.311   5.160  1.0338 -0.6216  1.1866
  177MOL0     H23836   9.189   1.088   5.128  0.8245  4.5783  1.2132
  177MOL0     H23837   9.051   1.026   5.221  0.1033 -0.6520 -0.3543
  177MOL0     H23838   9.044   1.159   4.938  2.0423 -3.6379 -2.7136
  177MOL0     H23839   9.029   0.997   4.975  0.3310 -0.6503  1.4776
  177MOL0     H23840   8.813   1.017   5.087  0.5467  0.7554  2.1068
  177MOL0     H23841   8.812   1.191   5.073  0.4200  0.1695 -0.6508
  177MOL0     H23842   8.667   1.097   4.886 -0.2539 -2.6208  0.4325
  177MOL0     H23843   8.804   1.178   4.825  1.6688 -1.2220 -0.1170
  177MOL0     H23844   8.779   0.873   4.871  2.3843 -1.2057  1.7771
  177MOL0     H23845   8.920   0.962   4.800 -0.4749 -1.1160  1.2656
  177MOL0     H23846   8.578   0.826   4.736 -1.4195  0.1414 -0.2018
  177MOL0     H23847   8.465   0.874   4.366 -3.5842  0.2493 -0.8162
  177MOL0     H23848   8.421   0.778   4.502 -2.0102  0.1424 -0.1813
  177MOL0     H23849   8.321   1.005   4.596 -1.4676  2.5529 -1.3023
  177MOL0     H23850   8.257   0.915   4.469  0.0278 -1.9191  3.4202
  177MOL0     H23851   8.400   1.060   4.298 -0.8799 -2.1090  0.3779
  177MOL0     H23852   8.461   1.152   4.444  0.5972  0.3982 -1.1466
  177MOL0     H23853   8.300   1.281   4.359  1.3028  0.8999  2.0187
  177MOL0     H23854   8.237   1.200   4.512  1.0054 -2.7375  0.6273
  177MOL0     H23855   8.095   1.359   4.504 -1.2631  2.5747 -1.4555
  177MOL0     H23856   7.854   1.561   4.574 -0.0542 -1.4639 -1.2558
  177MOL0     H23857   7.818   1.412   4.676 -0.6845 -3.1318 -2.1817
  177MOL0     H23858   7.983   1.491   4.654  0.3101  0.9618  0.7872
  177MOL0     H23859   7.409   1.165   4.570  0.7584 -0.2877 -1.4387
  177MOL0     H23860   7.175   1.228   4.639 -2.9314  0.7433 -0.1257
  177MOL0     H23861   6.910   1.301   4.475  0.3916 -2.1901  1.2627
  177MOL0     H23862   6.968   1.281   4.634  1.8298  0.5884 -0.5618
  177MOL0     H23863   6.826   1.486   4.710 -2.6391  2.6196 -0.6832
  177MOL0     H23864   6.786   1.503   4.540 -0.2002  0.0461 -0.4541
  177MOL0     H23865   6.706   1.237   4.685 -2.0156  1.6543  2.3376
  177MOL0     H23866   6.651   1.308   4.531  0.5259 -0.0832 -0.7463
  177MOL0     H23867   6.613   1.406   4.822  1.9025  0.0019 -0.6743
  177MOL0     H23868   6.561   1.501   4.685  1.5647  0.4347 -1.5193
  177MOL0     H23869   6.446   1.216   4.718  0.1496 -0.1643  1.4741
  177MOL0     H23870   6.410   1.353   4.604  2.0754 -0.5107 -0.1818
  177MOL0     H23871   6.361   1.367   4.893 -3.4787  3.1089  2.0292
  177MOL0     H23872   6.342   1.498   4.793  2.1947  0.0221  1.0776
  177MOL0     H23873   6.201   1.222   4.784  0.3857  0.5379  0.5639
  177MOL0     H23874   6.170   1.335   4.651 -0.9194 -0.5600  0.9517
  177MOL0     H23875   6.095   1.509   4.833 -0.3676 -0.1533 -0.0680
  177MOL0     H23876   6.118   1.373   4.941  0.7677 -0.0001 -0.0865
  177MOL0     H23877   7.184   1.550   4.357  2.1420  1.4172  1.6332
  177MOL0     H23878   7.387   1.479   4.265 -0.6974 -0.8832 -0.6610
  177MOL0     H23879   7.717   1.153   4.276 -0.2811 -2.7930  1.6372
  177MOL0     H23880   7.943   1.067   4.229 -0.0049  0.4719 -1.2247
  177MOL0     H23881   9.463   1.431   5.470 -0.7575  2.1585  2.7178
  177MOL0     H23882   9.679   1.349   5.554 -0.1583 -1.2927 -0.8108
  177MOL0     H23883   9.949   1.063   5.669 -1.5124  0.3303  0.1640
  177MOL0     H23884  10.149   0.920   5.753 -0.7741  1.4869 -0.8656
  177MOL0     H23885  10.202   0.883   6.184  1.9216  1.5964 -2.6668
  177MOL0     H23886  10.087   0.749   6.140  0.7964 -2.8351 -0.0266
  177MOL0     H23887  10.275   0.593   6.113  1.1258 -1.2531  1.2712
  177MOL0     H23888  10.259   0.658   6.273  2.1847 -0.1882  0.0669
  177MOL0     H23889  10.427   0.841   6.219  1.4769  0.7006  0.3113
  177MOL0     H23890  10.442   0.786   6.055  1.6276  4.1099  1.3204
  177MOL0     H23891  10.500   0.556   6.152  0.8046  0.9425 -1.8450
  177MOL0     H23892  10.523   0.627   6.306  0.1409 -1.5689 -0.2706
  177MOL0     H23893  10.876   0.761   6.088  0.5139 -0.6671  1.1612
  177MOL0     H23894  10.008   0.995   6.162  2.4656  1.4583  0.4058
  177MOL0     H23895   9.854   1.133   6.083  1.2291  0.0215  1.3349
  178MOL0     O23896   5.457   5.489   2.803 -0.4838  0.4741 -0.7046
  178MOL0     C23897   5.502   5.485   2.924  0.6825  0.0956 -0.6027
  178MOL0     O23898   5.428   5.467   3.032  0.2615  0.4960 -0.3228
  178MOL0     C23899   5.288   5.451   3.017  0.0048 -0.3920  0.8433
  178MOL0     C23900   5.207   5.556   2.989 -0.7948 -0.0790 -0.2320
  178MOL0     C23901   5.069   5.536   2.976 -0.6163  0.2695  0.0464
  178MOL0     C23902   5.013   5.402   2.995  0.6794 -0.5221  0.4731
  178MOL0     O23903   4.881   5.378   2.991  0.4456  0.4259 -0.5843
  178MOL0     C23904   4.796   5.452   2.907 -0.0118  0.5383 -0.6007
  178MOL0     C23905   4.729   5.577   2.972  1.0904 -0.2460 -0.5012
  178MOL0     C23906   4.654   5.520   3.095 -0.7069  0.0025 -0.1300
  178MOL0     C23907   4.560   5.622   3.153  0.7692  0.7239  0.2577
  178MOL0     C23908   4.457   5.553   3.242  1.2237 -0.4062  0.3488
  178MOL0     C23909   4.495   5.459   3.342  0.0688  0.3092 -0.2033
  178MOL0     C23910   4.608   5.501   3.430  0.2300 -0.5365 -1.0446
  178MOL0     C23911   4.688   5.388   3.483  0.1543  0.1977 -0.2641
  178MOL0     N23912   4.837   5.404   3.503  0.2000 -0.3213  0.0507
  178MOL0     C23913   4.919   5.390   3.400 -0.2699 -0.1627 -0.3277
  178MOL0     C23914   5.044   5.413   3.461 -0.6776  0.4050 -0.4101
  178MOL0     C23915   5.176   5.403   3.402  0.3136 -0.9208  0.0157
  178MOL0     C23916   5.265   5.289   3.434  0.9106  0.0429  0.0389
  178MOL0     C23917   5.407   5.333   3.410 -0.7577  0.0014 -0.5448
  178MOL0     C23918   5.503   5.222   3.434 -0.2735  0.4227 -0.8706
  178MOL0     O23919   5.641   5.259   3.394  1.4009  0.0531  0.4196
  178MOL0     C23920   5.740   5.167   3.425 -0.5899 -0.1964  0.7488
  178MOL0     C23921   5.877   5.213   3.419  0.0287  0.1793 -0.5133
  178MOL0     C23922   5.985   5.125   3.428 -0.0402  1.2385 -0.5726
  178MOL0     C23923   6.119   5.187   3.394  0.1032  0.3840 -0.6129
  178MOL0     C23924   5.962   4.990   3.467  0.0355 -0.3055  0.1280
  178MOL0     C23925   6.073   4.885   3.471  0.8572 -0.2992  0.0249
  178MOL0     O23926   6.050   4.773   3.540 -0.7401 -0.5480 -0.6874
  178MOL0     C23927   6.146   4.681   3.525 -0.0342 -0.3137 -0.2260
  178MOL0     C23928   6.122   4.596   3.423 -0.0868  0.6733 -0.1499
  178MOL0     C23929   6.205   4.496   3.387 -0.5656  0.0319  0.5707
  178MOL0     C23930   6.323   4.476   3.464  0.8270 -0.4930  0.7207
  178MOL0     O23931   6.412   4.380   3.436  0.4103 -0.2464 -0.2033
  178MOL0     C23932   6.428   4.279   3.531 -0.4853  0.3251  0.2866
  178MOL0     C23933   6.575   4.252   3.580  0.5946  0.2726  0.5761
  178MOL0     C23934   6.593   4.113   3.623 -0.3964 -0.3193  0.7360
  178MOL0     C23935   6.741   4.083   3.662  0.0370 -0.8149  1.2269
  178MOL0     C23936   6.765   3.930   3.668 -0.1442 -0.2748  0.2328
  178MOL0     C23937   6.900   3.900   3.737  0.0940 -0.0209 -0.3096
  178MOL0     C23938   6.924   3.747   3.735 -0.2850 -0.4343  0.3116
  178MOL0     C23939   7.056   3.703   3.794 -0.3150 -0.5433 -0.4359
  178MOL0    Cl23940   7.122   3.540   3.768  0.0435  0.5809 -0.4355
  178MOL0     C23941   6.354   4.559   3.570  1.0640 -0.5858  0.1960
  178MOL0     C23942   6.264   4.671   3.604 -0.9384  0.5022  0.0280
  178MOL0     O23943   6.174   4.902   3.404 -0.1140  0.2480  0.6234
  178MOL0     C23944   5.834   4.947   3.488  0.8755 -0.1071 -0.2782
  178MOL0     C23945   5.725   5.036   3.459 -0.1034 -0.5620 -0.0638
  178MOL0     N23946   5.027   5.435   3.595  0.3342  0.0375 -0.1393
  178MOL0     N23947   4.899   5.431   3.618 -1.4130 -0.1863 -0.3646
  178MOL0     C23948   5.100   5.299   3.040 -0.0433 -0.6258  0.1306
  178MOL0     C23949   5.242   5.323   3.051 -0.2030  0.0544  0.0383
  178MOL0     C23950   5.646   5.499   2.963  1.0107  0.1653  1.0914
  178MOL0     C23951   5.730   5.516   2.849 -0.3637  0.4883 -0.1190
  178MOL0     C23952   5.867   5.516   2.862 -0.8770 -0.5514 -0.3494
  178MOL0     C23953   5.924   5.508   2.988 -0.3668  0.2602 -0.2404
  178MOL0     O23954   6.062   5.501   2.996 -0.6562  0.4263 -0.1934
  178MOL0     C23955   6.122   5.448   3.113 -0.0775  0.3820 -0.3163
  178MOL0     C23956   6.272   5.424   3.108  0.0228 -0.3254  0.5101
  178MOL0     C23957   6.310   5.355   2.974 -0.1115 -0.2057 -0.0937
  178MOL0     C23958   6.458   5.325   2.968  0.2632  0.1065  0.9582
  178MOL0     C23959   6.496   5.228   3.074 -0.1777  0.1829  0.9511
  178MOL0     C23960   6.542   5.162   3.162  0.4097 -0.5061 -0.3398
  178MOL0     C23961   5.841   5.496   3.106 -0.0429 -0.4549 -0.1121
  178MOL0     C23962   5.702   5.492   3.089 -0.1453 -0.7654 -0.0763
  178MOL0     H23963   5.248   5.656   2.981 -3.1592  1.1964  2.0925
  178MOL0     H23964   5.006   5.616   2.938 -0.9017 -0.1577 -0.3968
  178MOL0     H23965   4.854   5.459   2.814  2.8506 -2.7774  0.6893
  178MOL0     H23966   4.715   5.384   2.879  0.3495  0.0397 -0.4640
  178MOL0     H23967   4.803   5.655   2.989 -0.2184  0.9547 -0.1143
  178MOL0     H23968   4.659   5.611   2.894  0.6888  1.8576  0.7040
  178MOL0     H23969   4.602   5.431   3.058 -1.2279  1.0040 -1.9287
  178MOL0     H23970   4.728   5.471   3.159 -0.0287 -0.8289 -1.5081
  178MOL0     H23971   4.615   5.707   3.195  0.0598  0.5345  1.6273
  178MOL0     H23972   4.505   5.670   3.071  0.3607 -0.4605 -0.1809
  178MOL0     H23973   4.387   5.625   3.285  2.3840  1.7650 -1.2081
  178MOL0     H23974   4.400   5.494   3.170  4.0526 -0.7593 -1.7606
  178MOL0     H23975   4.414   5.425   3.409 -0.8723 -0.6802 -1.7849
  178MOL0     H23976   4.521   5.374   3.278  3.1958  2.4989 -2.0908
  178MOL0     H23977   4.677   5.566   3.375 -1.2456 -0.2588 -2.6704
  178MOL0     H23978   4.562   5.552   3.515  0.0742  1.5854 -2.3306
  178MOL0     H23979   4.662   5.307   3.414  1.4324  0.2696 -0.8614
  178MOL0     H23980   4.648   5.371   3.583 -0.0604 -1.1084 -0.5479
  178MOL0     H23981   4.898   5.359   3.298 -0.6265  1.4752 -0.7944
  178MOL0     H23982   5.169   5.412   3.293  0.2071 -0.4813  0.0557
  178MOL0     H23983   5.226   5.495   3.434  0.7443 -0.3499 -2.1057
  178MOL0     H23984   5.238   5.204   3.371 -0.8179  0.3624  0.3033
  178MOL0     H23985   5.254   5.265   3.540  0.9151  3.7786  1.0268
  178MOL0     H23986   5.445   5.412   3.476 -2.9491 -0.2261  1.1021
  178MOL0     H23987   5.415   5.369   3.307 -1.3886 -1.6942 -1.2223
  178MOL0     H23988   5.476   5.135   3.374  1.1439 -1.4622  1.0762
  178MOL0     H23989   5.511   5.196   3.540  2.1363 -0.1830 -1.1301
  178MOL0     H23990   5.905   5.314   3.389  0.7215 -0.3035 -1.5164
  178MOL0     H23991   6.187   5.185   3.480 -0.0199 -0.4323 -0.5249
  178MOL0     H23992   6.152   5.133   3.305 -3.3356 -1.2542 -1.0627
  178MOL0     H23993   6.112   5.290   3.360  0.2029  0.1027 -1.5211
  178MOL0     H23994   6.039   4.605   3.354  2.5284  0.5920 -3.5660
  178MOL0     H23995   6.183   4.425   3.308 -1.3534  1.6440 -0.7048
  178MOL0     H23996   6.359   4.299   3.614 -0.5463  2.0757 -0.1447
  178MOL0     H23997   6.395   4.190   3.475  1.0430  1.1095 -2.0001
  178MOL0     H23998   6.628   4.265   3.485 -2.4413  3.3667 -0.9254
  178MOL0     H23999   6.602   4.325   3.657 -0.6573  0.7138  0.6261
  178MOL0     H24000   6.579   4.049   3.536  2.9901 -1.3052  0.7509
  178MOL0     H24001   6.522   4.077   3.698 -0.8550 -3.7141 -1.1139
  178MOL0     H24002   6.809   4.126   3.588 -0.1528 -0.8308  1.0404
  178MOL0     H24003   6.762   4.125   3.761 -0.3654 -0.8085  1.3142
  178MOL0     H24004   6.762   3.880   3.570  0.1822 -2.8953  1.4762
  178MOL0     H24005   6.691   3.876   3.728 -1.3498 -0.3035 -1.2032
  178MOL0     H24006   6.973   3.954   3.676 -2.2649  1.9826 -1.5622
  178MOL0     H24007   6.903   3.940   3.839  0.1471 -0.4752 -0.1319
  178MOL0     H24008   6.918   3.708   3.633  0.4511  1.6751 -0.5808
  178MOL0     H24009   6.848   3.694   3.794 -2.0518 -1.5024 -2.6869
  178MOL0     H24010   7.053   3.720   3.902 -0.1597  0.3146 -0.5594
  178MOL0     H24011   7.132   3.771   3.754  1.4679 -0.7632  2.2819
  178MOL0     H24012   6.449   4.557   3.623  0.2190  1.9439  2.0434
  178MOL0     H24013   6.284   4.742   3.683 -0.1295  0.5050 -0.1697
  178MOL0     H24014   5.812   4.843   3.508  1.3688  0.2348  2.3025
  178MOL0     H24015   5.625   4.997   3.479  0.2825 -0.4541  2.3872
  178MOL0     H24016   5.064   5.197   3.053  0.1010 -0.6319  0.4847
  178MOL0     H24017   5.300   5.242   3.093 -3.5615 -2.1072  0.9085
  178MOL0     H24018   5.696   5.532   2.748 -1.3962  0.5163  0.2163
  178MOL0     H24019   5.933   5.534   2.778 -1.8567 -0.0489 -1.0328
  178MOL0     H24020   6.094   5.516   3.194 -2.5988  0.0225 -0.8290
  178MOL0     H24021   6.076   5.352   3.133 -1.3005  0.9897 -0.1442
  178MOL0     H24022   6.306   5.361   3.190  0.2694 -2.8688 -1.4364
  178MOL0     H24023   6.317   5.524   3.112 -0.9379  0.5113 -3.8767
  178MOL0     H24024   6.293   5.417   2.886  1.5810  0.4976  0.0384
  178MOL0     H24025   6.248   5.265   2.968  0.4929 -0.7198  0.9136
  178MOL0     H24026   6.514   5.419   2.981  0.4020  0.0469  0.7927
  178MOL0     H24027   6.482   5.285   2.869 -0.1163 -2.0414  1.6745
  178MOL0     H24028   6.583   5.095   3.234  1.7867  2.1172  1.4904
  178MOL0     H24029   5.884   5.501   3.206  2.8722  1.7753 -1.3208
  178MOL0     H24030   5.630   5.486   3.170 -0.9445 -0.1852 -0.7228
  179MOL0     O24031   7.652   8.790   5.103 -0.0087  0.3796 -0.1130
  179MOL0     C24032   7.719   8.895   5.111  0.4849  0.3172 -0.4495
  179MOL0     O24033   7.687   9.008   5.054  0.4698  0.2401 -0.0547
  179MOL0     C24034   7.569   9.020   4.985 -0.1708  0.1508 -0.3011
  179MOL0     C24035   7.579   9.039   4.849  0.6796 -0.5193 -0.1015
  179MOL0     C24036   7.468   9.079   4.777  0.1663 -0.5232 -0.9601
  179MOL0     C24037   7.335   9.082   4.830 -0.0093  0.2573 -0.6738
  179MOL0     O24038   7.218   9.111   4.763  0.1772 -0.2055 -0.3425
  179MOL0     C24039   7.226   9.098   4.622 -0.0425  0.1584  0.7277
  179MOL0     C24040   7.094   9.109   4.540 -0.6091  0.4444 -0.3148
  179MOL0     C24041   7.026   9.246   4.545  0.6812 -0.2684 -0.8411
  179MOL0     C24042   7.115   9.375   4.540  0.0732 -0.0502  0.2398
  179MOL0     C24043   7.041   9.514   4.544 -0.1021 -0.5162 -0.1375
  179MOL0     C24044   7.128   9.631   4.495  0.3473  0.3447 -0.0110
  179MOL0     C24045   7.259   9.641   4.578  0.2303  0.4316  0.3044
  179MOL0     C24046   7.314   9.786   4.596  0.1329 -1.1584 -0.0370
  179MOL0     N24047   7.221   9.875   4.674  0.1673 -0.2778  0.2480
  179MOL0     C24048   7.157   9.836   4.785 -0.0764 -0.3536  0.7474
  179MOL0     C24049   7.086   9.946   4.827 -0.7161 -0.6396 -0.7262
  179MOL0     C24050   6.992   9.956   4.943  0.4447  0.2527  0.4501
  179MOL0     C24051   6.865   9.866   4.938  1.2308  0.9103  0.2410
  179MOL0     C24052   6.821   9.801   4.803 -0.6133 -0.9064  0.3436
  179MOL0     C24053   6.777   9.907   4.706  0.1948  0.0983 -0.8903
  179MOL0     O24054   6.655   9.971   4.750 -0.1083  0.3006  0.3941
  179MOL0     C24055   6.527   9.938   4.704 -0.5295  0.5339 -0.2041
  179MOL0     C24056   6.489   9.814   4.648 -0.4985  0.0121  0.3838
  179MOL0     C24057   6.358   9.778   4.623 -0.2877 -0.4285 -0.7221
  179MOL0     C24058   6.351   9.634   4.566  0.6733 -0.9903  0.5643
  179MOL0     C24059   6.255   9.871   4.653 -0.5249 -0.2816 -0.9704
  179MOL0     C24060   6.107   9.842   4.642 -1.1740 -0.0623  0.1729
  179MOL0     O24061   6.039   9.962   4.624 -0.3187 -0.3481  0.4817
  179MOL0     C24062   5.907   9.969   4.650  0.4284 -0.3368 -0.5400
  179MOL0     C24063   5.865  10.034   4.762  0.4207  0.1693  0.2170
  179MOL0     C24064   5.727  10.039   4.785 -0.4291 -0.7581  1.6518
  179MOL0     C24065   5.637   9.983   4.692  0.0952  0.9805 -0.6940
  179MOL0     O24066   5.499   9.971   4.701  0.6710 -0.5083 -0.4620
  179MOL0     C24067   5.426  10.052   4.809 -0.0522 -0.9263 -0.4340
  179MOL0     C24068   5.404  10.199   4.776  0.3823  0.0679  0.2205
  179MOL0     C24069   5.356  10.222   4.634  0.0887  0.2927  0.1556
  179MOL0     C24070   5.203  10.229   4.621  0.0874  0.0590 -0.1359
  179MOL0     C24071   5.161  10.253   4.474 -0.2972  0.1713 -0.4094
  179MOL0     C24072   5.017  10.228   4.441 -0.3002 -0.0590  0.3049
  179MOL0     C24073   4.925  10.342   4.497  1.0150  0.0255 -0.0147
  179MOL0     C24074   4.779  10.325   4.447  0.4860 -0.6390  1.0050
  179MOL0    Cl24075   4.668  10.442   4.518 -0.3598  0.0682 -0.0307
  179MOL0     C24076   5.683   9.921   4.582 -0.7593 -0.3263 -0.0846
  179MOL0     C24077   5.819   9.912   4.559 -0.0475 -0.2467  0.2244
  179MOL0     O24078   6.057   9.730   4.640 -0.6515  0.4316  0.0963
  179MOL0     C24079   6.291   9.998   4.697 -0.2072  0.4314 -0.3979
  179MOL0     C24080   6.422  10.030   4.725 -1.6514  0.4674 -0.0878
  179MOL0     N24081   7.123  10.053   4.743  0.5778  0.2080  0.1170
  179MOL0     N24082   7.201  10.004   4.656 -0.1611 -0.0430  0.1094
  179MOL0     C24083   7.320   9.056   4.966 -0.1636 -0.7932  0.1010
  179MOL0     C24084   7.434   9.023   5.043 -0.2874  0.7173  0.2133
  179MOL0     C24085   7.851   8.884   5.184  0.7919 -0.7082 -0.4602
  179MOL0     C24086   7.876   8.774   5.277 -0.2164  0.3083  0.5533
  179MOL0     C24087   8.004   8.763   5.333 -0.4465 -0.3231 -1.0590
  179MOL0     C24088   8.102   8.862   5.310  0.1219  0.1815 -0.0232
  179MOL0     O24089   8.224   8.869   5.374 -0.1260  1.0355 -0.4779
  179MOL0     C24090   8.270   8.771   5.472  0.2742 -0.2010 -0.3068
  179MOL0     C24091   8.324   8.647   5.399  0.5803 -0.1215 -0.2797
  179MOL0     C24092   8.464   8.650   5.339 -0.4460  0.5021  0.5078
  179MOL0     C24093   8.535   8.521   5.359  0.2626  0.1868 -0.1362
  179MOL0     C24094   8.649   8.515   5.272 -0.8153  0.5284  0.1718
  179MOL0     C24095   8.753   8.532   5.205 -0.2711  0.0277 -0.2955
  179MOL0     C24096   8.070   8.974   5.237 -0.6667 -0.6999 -0.0509
  179MOL0     C24097   7.943   8.983   5.167  0.2090  0.3455  0.3222
  179MOL0     H24098   7.676   9.019   4.804  1.4860  0.8130  0.9713
  179MOL0     H24099   7.485   9.106   4.673  1.1690  0.4317 -0.5615
  179MOL0     H24100   7.295   9.171   4.579  0.6605  1.0487  3.2083
  179MOL0     H24101   7.253   8.995   4.598  0.7415 -0.0254  2.2968
  179MOL0     H24102   7.119   9.088   4.436  1.8612 -1.4842  0.5639
  179MOL0     H24103   7.030   9.028   4.575  0.9600  0.1233  2.0788
  179MOL0     H24104   6.948   9.250   4.469  0.5021  1.8388 -0.6156
  179MOL0     H24105   6.978   9.257   4.643 -0.2740  2.7643 -1.5459
  179MOL0     H24106   7.180   9.367   4.628  2.3287 -1.9720 -1.4774
  179MOL0     H24107   7.174   9.383   4.448  0.2797  1.3442  0.4607
  179MOL0     H24108   6.957   9.511   4.474 -0.1587  0.3786 -0.1214
  179MOL0     H24109   7.003   9.526   4.646  0.6650 -2.3029  0.4000
  179MOL0     H24110   7.158   9.609   4.392 -1.9655  1.0894 -0.8868
  179MOL0     H24111   7.068   9.722   4.493 -0.8337 -0.4388 -1.4378
  179MOL0     H24112   7.245   9.600   4.678 -1.1395 -1.1869 -0.5134
  179MOL0     H24113   7.331   9.573   4.531  0.4204  0.8385  0.0000
  179MOL0     H24114   7.325   9.827   4.495 -1.8206 -0.3667  0.0358
  179MOL0     H24115   7.408   9.791   4.653 -0.2225  0.8969  0.4593
  179MOL0     H24116   7.157   9.736   4.829 -0.1465 -0.2638  0.9497
  179MOL0     H24117   7.052   9.936   5.032  0.6350  2.0961  0.7926
  179MOL0     H24118   6.963  10.062   4.943  0.4318  0.2489  0.5041
  179MOL0     H24119   6.790   9.932   4.982  0.2387 -0.3630  0.4934
  179MOL0     H24120   6.884   9.780   5.003 -1.3898 -0.8825 -1.1953
  179MOL0     H24121   6.740   9.732   4.826 -0.9194 -0.5660  0.3059
  179MOL0     H24122   6.896   9.733   4.764 -1.1308 -0.5865 -1.3006
  179MOL0     H24123   6.747   9.857   4.614 -2.1856 -2.0325  0.9002
  179MOL0     H24124   6.855   9.982   4.690  0.5832 -0.2092 -0.4733
  179MOL0     H24125   6.575   9.764   4.605  0.4531  2.9368 -1.3620
  179MOL0     H24126   6.417   9.623   4.479  1.8373  1.9727  0.9510
  179MOL0     H24127   6.374   9.558   4.641 -0.3918  0.0835  2.0453
  179MOL0     H24128   6.252   9.613   4.524 -0.2247 -2.5402  3.2181
  179MOL0     H24129   5.931  10.087   4.830 -0.6234  0.0757  1.3670
  179MOL0     H24130   5.678  10.106   4.854 -3.4884  1.1672 -2.0215
  179MOL0     H24131   5.323  10.015   4.804 -0.2824 -0.2059 -1.1294
  179MOL0     H24132   5.462  10.032   4.910  0.6774 -2.4230 -0.9673
  179MOL0     H24133   5.340  10.249   4.850  2.1003  0.7922  1.2699
  179MOL0     H24134   5.499  10.252   4.772  0.5685 -0.2970 -3.0485
  179MOL0     H24135   5.391  10.135   4.578  0.2108 -0.2043  0.9923
  179MOL0     H24136   5.397  10.315   4.592  1.2061  0.4375  1.4813
  179MOL0     H24137   5.161  10.129   4.635  0.2657  0.3129  2.8724
  179MOL0     H24138   5.171  10.313   4.683 -0.8355  1.4529 -2.3621
  179MOL0     H24139   5.221  10.189   4.408 -2.7365 -0.8785 -1.7612
  179MOL0     H24140   5.185  10.356   4.447  2.2408 -0.5329 -1.1504
  179MOL0     H24141   4.997  10.228   4.333 -3.1991 -0.3283  0.7574
  179MOL0     H24142   4.986  10.136   4.491  1.4787  0.7963  3.2250
  179MOL0     H24143   4.973  10.431   4.456  2.4754 -0.9255 -0.4239
  179MOL0     H24144   4.924  10.329   4.606  0.0290 -1.5855 -0.1942
  179MOL0     H24145   4.736  10.225   4.456 -2.9897  0.3729 -1.9336
  179MOL0     H24146   4.789  10.341   4.339  2.0357 -0.6811  1.1241
  179MOL0     H24147   5.607   9.869   4.524  0.0318 -0.0625 -1.3747
  179MOL0     H24148   5.857   9.872   4.465 -4.6407  0.9356 -2.5051
  179MOL0     H24149   6.224  10.078   4.725  0.6318  0.4006  1.8864
  179MOL0     H24150   6.458  10.120   4.773  0.6230 -0.2439 -0.3391
  179MOL0     H24151   7.220   9.050   5.008 -0.3022 -3.0712 -0.4019
  179MOL0     H24152   7.414   8.991   5.145 -1.8887  0.5241 -0.1322
  179MOL0     H24153   7.796   8.701   5.291  1.1517 -1.6571 -1.2515
  179MOL0     H24154   8.018   8.674   5.394  2.4159  0.8834  0.2022
  179MOL0     H24155   8.345   8.831   5.524 -1.2084  2.2728 -0.8751
  179MOL0     H24156   8.187   8.748   5.539 -0.5932 -0.1814 -1.3464
  179MOL0     H24157   8.259   8.621   5.316  1.0042  0.8783 -0.9495
  179MOL0     H24158   8.333   8.571   5.477 -2.0306  1.5830  1.9236
  179MOL0     H24159   8.526   8.730   5.381  1.1735 -0.0354 -0.7842
  179MOL0     H24160   8.452   8.681   5.235  0.3843 -1.4018 -0.1878
  179MOL0     H24161   8.459   8.449   5.325  1.0480 -0.4339 -0.6022
  179MOL0     H24162   8.556   8.499   5.464 -0.3835  1.2094  0.2196
  179MOL0     H24163   8.830   8.548   5.132  0.3982  2.8155  0.8779
  179MOL0     H24164   8.140   9.056   5.244 -1.9010  0.2818  1.3203
  179MOL0     H24165   7.925   9.067   5.100 -0.3420  1.3737  1.7161
  180MOL0     O24166   4.873   7.651   5.737 -0.1506 -0.2717  0.2525
  180MOL0     C24167   4.830   7.629   5.850  0.4343  0.2146  0.1225
  180MOL0     O24168   4.693   7.643   5.882 -0.2679  0.4693  0.0946
  180MOL0     C24169   4.584   7.685   5.796 -0.2438  0.0676 -0.3735
  180MOL0     C24170   4.455   7.671   5.849 -0.8428  0.6489  0.5711
  180MOL0     C24171   4.344   7.714   5.779  0.2066 -0.4212 -0.2090
  180MOL0     C24172   4.352   7.762   5.650 -0.0154 -0.7245  0.3313
  180MOL0     O24173   4.244   7.819   5.579  0.3408 -0.9693 -0.3623
  180MOL0     C24174   4.108   7.759   5.605 -0.5367  0.6370  0.0786
  180MOL0     C24175   4.101   7.614   5.564  0.0271  0.4172  0.1270
  180MOL0     C24176   4.092   7.585   5.421  0.7574 -0.4753  0.6745
  180MOL0     C24177   4.047   7.443   5.384 -0.3593  0.0215 -0.8964
  180MOL0     C24178   4.032   7.421   5.235 -0.1768  0.2277 -0.2525
  180MOL0     C24179   3.922   7.503   5.168  0.2582  0.1738 -0.4180
  180MOL0     C24180   3.785   7.474   5.233  0.1489  0.3682 -0.0810
  180MOL0     C24181   3.674   7.526   5.128  1.7255  0.4079 -0.2037
  180MOL0     N24182   3.543   7.462   5.157 -0.3411 -0.5044 -0.2525
  180MOL0     C24183   3.436   7.522   5.215  1.3318 -0.0685 -0.5326
  180MOL0     C24184   3.326   7.464   5.165  0.7608  1.2115 -0.0880
  180MOL0     C24185   3.178   7.490   5.189  0.1635 -0.4980  0.4794
  180MOL0     C24186   3.120   7.363   5.259  0.1266  0.2431 -0.2806
  180MOL0     C24187   2.992   7.393   5.336  0.3972  0.4955 -0.1395
  180MOL0     C24188   2.930   7.264   5.392  0.2920 -0.0985  0.3502
  180MOL0     O24189   2.795   7.280   5.432  0.0288  0.1157 -0.2727
  180MOL0     C24190   2.688   7.286   5.345 -0.0767  0.2342 -0.7809
  180MOL0     C24191   2.561   7.309   5.399  0.2871 -0.0552  0.4734
  180MOL0     C24192   2.443   7.318   5.318 -0.0936  0.4750 -0.1151
  180MOL0     C24193   2.317   7.368   5.388 -0.0246 -0.5750  0.1388
  180MOL0     C24194   2.452   7.288   5.176  0.4048  0.3001  0.6927
  180MOL0     C24195   2.348   7.287   5.075  0.0045  0.3196 -0.8084
  180MOL0     O24196   2.254   7.394   5.097  0.5476 -0.8470  0.5397
  180MOL0     C24197   2.125   7.374   5.059 -0.2062 -0.4534 -0.7239
  180MOL0     C24198   2.039   7.336   5.156  0.2625 -0.2906 -0.1202
  180MOL0     C24199   1.912   7.291   5.134  0.7108  0.6620  0.9908
  180MOL0     C24200   1.863   7.276   4.998  0.0719  0.9363 -0.1822
  180MOL0     O24201   1.744   7.219   4.980  0.2624  0.0456 -0.6922
  180MOL0     C24202   1.740   7.109   4.892  0.2036 -0.1887 -0.2020
  180MOL0     C24203   1.623   7.125   4.793  0.2525 -0.6277  1.1495
  180MOL0     C24204   1.487   7.113   4.863 -0.9113 -0.9798  1.1989
  180MOL0     C24205   1.381   7.175   4.773  1.1327  0.1615  0.2997
  180MOL0     C24206   1.246   7.154   4.846  0.2960  0.3272 -0.3580
  180MOL0     C24207   1.205   7.011   4.881 -0.1387 -0.1152 -0.5362
  180MOL0     C24208   1.047   6.998   4.881 -0.1100  0.0973 -0.2903
  180MOL0     C24209   0.967   7.104   4.956  0.4146  0.3838 -0.2434
  180MOL0    Cl24210   1.029   7.126   5.121  0.4581  0.3144 -0.2548
  180MOL0     C24211   1.952   7.319   4.899 -0.0201  0.0414 -0.4206
  180MOL0     C24212   2.076   7.374   4.927 -0.2111 -0.4558 -0.3124
  180MOL0     O24213   2.350   7.208   4.982 -0.4937 -0.1798  0.2548
  180MOL0     C24214   2.584   7.271   5.125  0.0618  0.1881 -0.6131
  180MOL0     C24215   2.695   7.274   5.207 -0.0640 -0.2808 -0.0191
  180MOL0     N24216   3.371   7.349   5.091  0.1913  0.4862 -0.3284
  180MOL0     N24217   3.500   7.354   5.090 -0.1734 -0.2046  0.5320
  180MOL0     C24218   4.473   7.754   5.585  0.9387  0.1891 -0.5646
  180MOL0     C24219   4.585   7.712   5.661  0.1104 -0.2474 -0.4375
  180MOL0     C24220   4.926   7.589   5.950 -0.3895 -0.8274 -0.4082
  180MOL0     C24221   4.880   7.553   6.073  0.2359 -0.2162 -0.8366
  180MOL0     C24222   4.977   7.513   6.163 -0.4217 -0.2359 -0.5621
  180MOL0     C24223   5.113   7.507   6.132 -0.0278 -0.2960 -0.0400
  180MOL0     O24224   5.195   7.481   6.241  0.6639 -0.0862  0.7573
  180MOL0     C24225   5.331   7.452   6.216 -0.0912 -0.1276 -0.1450
  180MOL0     C24226   5.364   7.320   6.138 -0.6656 -0.6663 -0.0159
  180MOL0     C24227   5.510   7.299   6.084 -0.0542 -0.2531  0.0951
  180MOL0     C24228   5.538   7.371   5.950 -0.8733  0.5014 -0.3097
  180MOL0     C24229   5.580   7.510   5.982 -0.4903 -0.1763 -0.4442
  180MOL0     C24230   5.611   7.621   6.013  0.0777  0.3897 -0.0354
  180MOL0     C24231   5.165   7.543   6.007  0.9859  0.0684  0.5651
  180MOL0     C24232   5.063   7.587   5.917 -0.4955  0.2418  0.4298
  180MOL0     H24233   4.443   7.638   5.952 -3.2325 -0.6431 -0.0471
  180MOL0     H24234   4.256   7.718   5.842  0.8565 -0.3479  0.7229
  180MOL0     H24235   4.082   7.781   5.710  0.1372  1.7433  0.0350
  180MOL0     H24236   4.036   7.814   5.544 -1.6580 -0.0625  0.7207
  180MOL0     H24237   4.193   7.561   5.592  0.1065  1.1478  1.3054
  180MOL0     H24238   4.011   7.575   5.614  0.1919 -0.1615 -0.0162
  180MOL0     H24239   4.021   7.659   5.383 -0.0761 -1.4045  0.3681
  180MOL0     H24240   4.188   7.607   5.372  0.4806 -1.8199 -0.5479
  180MOL0     H24241   4.119   7.374   5.429 -1.7218  0.2819  1.8316
  180MOL0     H24242   3.952   7.422   5.434 -0.1043 -1.7288 -1.0807
  180MOL0     H24243   4.133   7.434   5.197 -0.3655  2.2360 -0.1843
  180MOL0     H24244   4.015   7.313   5.235  2.0786 -0.2014  1.4647
  180MOL0     H24245   3.929   7.611   5.185  0.1194  0.1372 -0.1172
  180MOL0     H24246   3.937   7.488   5.061  2.5034  0.1701 -0.1532
  180MOL0     H24247   3.791   7.366   5.250  0.0615  0.6539  2.0094
  180MOL0     H24248   3.763   7.519   5.330 -2.0304 -0.9161  0.0769
  180MOL0     H24249   3.709   7.484   5.033  0.5156 -1.5104  0.1454
  180MOL0     H24250   3.674   7.635   5.117  3.0154  0.7882  2.6390
  180MOL0     H24251   3.450   7.611   5.276 -1.4302 -0.4280  0.7827
  180MOL0     H24252   3.163   7.582   5.245  4.6516  1.3415 -0.8937
  180MOL0     H24253   3.139   7.493   5.087  0.5794 -0.4233  0.3201
  180MOL0     H24254   3.192   7.325   5.331  0.3130  0.6306 -0.2639
  180MOL0     H24255   3.097   7.284   5.186  1.0736 -0.3961  0.0958
  180MOL0     H24256   2.917   7.423   5.262 -2.3513 -2.5210  1.1740
  180MOL0     H24257   2.996   7.467   5.417 -2.3502 -0.4363  0.9774
  180MOL0     H24258   2.982   7.232   5.482  2.2387 -0.7309 -0.9234
  180MOL0     H24259   2.937   7.178   5.323 -1.0799 -0.2278  0.3398
  180MOL0     H24260   2.555   7.328   5.505 -2.7055  0.5024  0.2918
  180MOL0     H24261   2.238   7.293   5.374 -0.2176 -1.1522  3.4541
  180MOL0     H24262   2.338   7.370   5.495 -0.0052 -2.3943  0.2031
  180MOL0     H24263   2.286   7.465   5.348  1.2901 -0.7840 -1.5019
  180MOL0     H24264   2.085   7.351   5.253  1.3033  0.0125 -0.6416
  180MOL0     H24265   1.851   7.263   5.219  0.0150 -0.6191  0.1170
  180MOL0     H24266   1.831   7.078   4.840 -0.6050 -2.7701 -0.1965
  180MOL0     H24267   1.712   7.023   4.954 -1.5110  1.9100  2.1527
  180MOL0     H24268   1.628   7.231   4.764 -2.1528 -0.6372  0.4527
  180MOL0     H24269   1.633   7.068   4.701  1.5833  1.9118 -0.4041
  180MOL0     H24270   1.489   7.168   4.958 -1.6233  1.8402 -0.2963
  180MOL0     H24271   1.464   7.009   4.886  2.2951 -1.8707  0.7438
  180MOL0     H24272   1.404   7.281   4.766  2.0922  0.0253  1.1124
  180MOL0     H24273   1.384   7.121   4.677  2.2465 -3.5626  2.2125
  180MOL0     H24274   1.174   7.206   4.782  0.6430  1.6276  0.2535
  180MOL0     H24275   1.259   7.209   4.940  3.1956 -1.1301  0.2312
  180MOL0     H24276   1.240   6.949   4.798  0.2198  1.9486 -1.9973
  180MOL0     H24277   1.245   6.974   4.976  0.6406 -1.3128 -1.2901
  180MOL0     H24278   1.028   6.903   4.932  0.1124  0.1699 -0.0692
  180MOL0     H24279   1.014   6.988   4.777  0.0160 -0.6719 -0.2611
  180MOL0     H24280   0.869   7.055   4.952 -0.0877  1.1277  1.9496
  180MOL0     H24281   0.953   7.192   4.892 -2.8747 -0.6975 -1.2445
  180MOL0     H24282   1.911   7.309   4.799  0.5657  1.2842 -0.8091
  180MOL0     H24283   2.152   7.384   4.851 -0.0915 -3.6483 -0.7372
  180MOL0     H24284   2.594   7.264   5.017 -3.0139  2.9444 -1.2394
  180MOL0     H24285   2.795   7.266   5.168  1.0976  1.5357  2.2900
  180MOL0     H24286   4.491   7.805   5.491  1.1711 -0.2675 -0.7707
  180MOL0     H24287   4.682   7.702   5.613 -0.4102 -2.3003 -1.1711
  180MOL0     H24288   4.777   7.560   6.106  0.3294  1.4761 -0.8367
  180MOL0     H24289   4.944   7.476   6.260  1.7501 -2.2174 -0.4833
  180MOL0     H24290   5.375   7.538   6.165 -0.9299  0.7320  0.5448
  180MOL0     H24291   5.378   7.444   6.314  0.7573 -2.9159 -0.6728
  180MOL0     H24292   5.293   7.302   6.058  0.9044  0.1348 -1.6560
  180MOL0     H24293   5.361   7.238   6.211 -0.1563 -0.1902  0.5661
  180MOL0     H24294   5.525   7.192   6.063 -1.2259 -0.3265 -0.4628
  180MOL0     H24295   5.587   7.321   6.158 -1.8113  0.4405  1.7920
  180MOL0     H24296   5.442   7.374   5.897 -0.8536  2.6161 -0.3084
  180MOL0     H24297   5.614   7.319   5.892 -0.7378  1.2589 -0.8170
  180MOL0     H24298   5.634   7.724   6.031 -1.7642  0.7266  0.6372
  180MOL0     H24299   5.270   7.541   5.980  0.1537 -2.7890 -3.4247
  180MOL0     H24300   5.095   7.625   5.820 -1.3649 -0.1695 -0.0377
  181MOL0     O24301   2.359   0.339   6.327 -0.0121  0.3928 -0.1364
  181MOL0     C24302   2.428   0.373   6.234 -0.7141 -0.5001  0.2395
  181MOL0     O24303   2.378   0.425   6.120 -0.3077 -0.0723 -0.2146
  181MOL0     C24304   2.250   0.466   6.106 -0.1456  0.2511 -0.6876
  181MOL0     C24305   2.168   0.530   6.194  0.1071  0.3389 -0.4291
  181MOL0     C24306   2.037   0.553   6.166  0.5523  0.4658 -0.6143
  181MOL0     C24307   1.970   0.502   6.055  0.3342  0.0320 -0.0658
  181MOL0     O24308   1.836   0.510   6.026  0.2007 -0.3409 -0.2950
  181MOL0     C24309   1.765   0.405   6.094 -0.3013 -0.2125  0.1143
  181MOL0     C24310   1.620   0.425   6.060  0.1850 -0.3985 -0.2794
  181MOL0     C24311   1.538   0.314   6.118  0.5065  0.4024  0.1544
  181MOL0     C24312   1.396   0.334   6.081  0.7876  0.3227 -0.3087
  181MOL0     C24313   1.323   0.203   6.147  0.1020 -0.0610  0.0197
  181MOL0     C24314   1.173   0.229   6.125  0.2828 -0.0898 -0.0177
  181MOL0     C24315   1.092   0.109   6.180 -0.0412 -0.0308 -0.1800
  181MOL0     C24316   0.946   0.100   6.128  0.5668  0.4040 -0.3049
  181MOL0     N24317   0.940   0.063   5.982 -0.0029  0.5271 -0.5343
  181MOL0     C24318   0.828   0.072   5.906 -0.1171 -0.5371 -0.4550
  181MOL0     C24319   0.844  -0.022   5.813 -0.2255 -0.0676 -0.2305
  181MOL0     C24320   0.747  -0.057   5.709  0.6379 -0.7133 -0.7919
  181MOL0     C24321   0.783   0.014   5.576 -0.2675 -0.1901 -0.1459
  181MOL0     C24322   0.829  -0.083   5.468 -0.9399  0.3354  0.5452
  181MOL0     C24323   0.723  -0.171   5.403 -0.7310  1.0966 -0.4746
  181MOL0     O24324   0.615  -0.092   5.364 -0.0982  0.2937  0.6250
  181MOL0     C24325   0.487  -0.126   5.388  1.0031 -0.6132 -0.3828
  181MOL0     C24326   0.398  -0.023   5.417 -0.2195  0.0498  0.0773
  181MOL0     C24327   0.260  -0.052   5.441  1.0659  0.4251  0.0687
  181MOL0     C24328   0.168   0.063   5.439  1.2270 -0.5735  0.1084
  181MOL0     C24329   0.212  -0.182   5.441 -0.3360  0.2627  0.4223
  181MOL0     C24330   0.068  -0.219   5.427 -0.5998  0.8790 -0.4128
  181MOL0     O24331  -0.005  -0.133   5.343  0.3500  0.9090 -0.8608
  181MOL0     C24332  -0.137  -0.153   5.319 -0.1108 -0.0576 -0.3136
  181MOL0     C24333  -0.215  -0.271   5.302 -0.3936  0.2865 -0.2301
  181MOL0     C24334  -0.349  -0.270   5.267  0.6203  0.5160 -0.6768
  181MOL0     C24335  -0.398  -0.146   5.223 -0.4183 -0.2249 -0.6844
  181MOL0     O24336  -0.523  -0.137   5.167  0.0914 -0.5847 -0.3292
  181MOL0     C24337  -0.622  -0.134   5.266  0.0350  0.2453 -0.1207
  181MOL0     C24338  -0.764  -0.097   5.208 -0.3693  0.7078 -0.1567
  181MOL0     C24339  -0.873  -0.073   5.321  0.4349  0.1126  0.6670
  181MOL0     C24340  -0.852   0.072   5.371 -0.1908  0.6756  0.0087
  181MOL0     C24341  -0.929   0.083   5.506 -0.1519  0.1455  0.0788
  181MOL0     C24342  -1.076   0.058   5.498 -0.5984  0.0459 -0.4332
  181MOL0     C24343  -1.143   0.129   5.388  0.0945 -0.5741 -0.1381
  181MOL0     C24344  -1.291   0.115   5.419  0.2914  0.5496  0.3193
  181MOL0    Cl24345  -1.352  -0.048   5.393  0.1088 -0.4460 -0.0946
  181MOL0     C24346  -0.329  -0.029   5.249 -0.6593 -0.6535 -1.1470
  181MOL0     C24347  -0.199  -0.030   5.289 -0.1864 -0.1834  0.3080
  181MOL0     O24348   0.025  -0.315   5.491  0.0815  0.5835  0.0323
  181MOL0     C24349   0.307  -0.278   5.430  0.3805  0.0231 -0.0349
  181MOL0     C24350   0.443  -0.254   5.398  0.3830 -0.4261 -0.1720
  181MOL0     N24351   0.967  -0.084   5.825 -0.1612 -0.0078 -1.1626
  181MOL0     N24352   1.024  -0.034   5.934 -0.2260  0.3095  0.5110
  181MOL0     C24353   2.053   0.454   5.952 -0.0868 -0.6310 -0.3527
  181MOL0     C24354   2.196   0.438   5.979  0.3411 -0.3555 -0.0053
  181MOL0     C24355   2.571   0.361   6.258 -0.3532  0.0043 -0.0547
  181MOL0     C24356   2.658   0.427   6.167 -0.6664 -0.5473  0.9440
  181MOL0     C24357   2.803   0.421   6.186 -0.7477 -0.8543  0.5395
  181MOL0     C24358   2.861   0.348   6.301 -1.1074  0.4303 -0.2601
  181MOL0     O24359   2.995   0.331   6.320  0.6339  0.5031  0.5879
  181MOL0     C24360   3.039   0.343   6.452  0.4512 -0.0672 -0.7091
  181MOL0     C24361   3.181   0.403   6.447  0.1203  0.1679 -0.4227
  181MOL0     C24362   3.225   0.413   6.593  0.2687 -0.6272  0.5652
  181MOL0     C24363   3.368   0.440   6.610  0.0173 -0.3258 -0.2892
  181MOL0     C24364   3.403   0.562   6.539  0.4755 -0.0730  0.8805
  181MOL0     C24365   3.432   0.668   6.488  0.0456 -0.1376  0.2018
  181MOL0     C24366   2.770   0.278   6.383  0.2921 -0.2368 -0.1633
  181MOL0     C24367   2.630   0.285   6.357  0.7703  0.4676 -0.0900
  181MOL0     H24368   2.196   0.567   6.292 -2.2786 -0.4091  0.5938
  181MOL0     H24369   1.979   0.594   6.248  0.2408 -0.0678 -0.5635
  181MOL0     H24370   1.797   0.307   6.059  0.7352 -0.1313  0.8002
  181MOL0     H24371   1.786   0.417   6.201  1.8366 -1.0088 -0.1632
  181MOL0     H24372   1.584   0.525   6.087 -1.7937 -0.6191 -1.8552
  181MOL0     H24373   1.618   0.436   5.951 -3.7395  2.9130 -0.1209
  181MOL0     H24374   1.567   0.213   6.086  2.5755  0.7281  0.8552
  181MOL0     H24375   1.541   0.314   6.228 -1.6614 -3.1416  0.3870
  181MOL0     H24376   1.357   0.429   6.120  0.0576 -0.5971  1.2764
  181MOL0     H24377   1.371   0.329   5.975 -1.7896  1.8086  0.1479
  181MOL0     H24378   1.347   0.109   6.095  1.4563  0.7107 -0.8290
  181MOL0     H24379   1.346   0.185   6.253 -1.0900 -1.7279  0.0310
  181MOL0     H24380   1.138   0.321   6.172  1.8782  0.8024 -0.5137
  181MOL0     H24381   1.158   0.247   6.018  0.8435 -1.0871 -0.2747
  181MOL0     H24382   1.152   0.021   6.156  1.0917  0.8210 -0.5844
  181MOL0     H24383   1.075   0.114   6.288 -2.8204  1.3335 -0.5733
  181MOL0     H24384   0.893   0.195   6.143 -0.1948 -0.2841  1.6830
  181MOL0     H24385   0.901   0.023   6.191  1.0139  0.4139  0.0282
  181MOL0     H24386   0.736   0.126   5.929 -0.0038 -0.8771  0.8851
  181MOL0     H24387   0.738  -0.165   5.698  3.0448 -1.3130  1.7559
  181MOL0     H24388   0.644  -0.027   5.730  1.3116  1.0864  0.2354
  181MOL0     H24389   0.857   0.093   5.593 -1.6003  0.9184  0.6987
  181MOL0     H24390   0.700   0.071   5.535 -1.4684 -1.7257  0.0552
  181MOL0     H24391   0.906  -0.148   5.511 -0.7782 -0.7580 -1.2836
  181MOL0     H24392   0.886  -0.034   5.388 -1.1805 -0.0072  0.1631
  181MOL0     H24393   0.690  -0.258   5.460 -2.2193 -0.6477 -3.6885
  181MOL0     H24394   0.757  -0.217   5.309 -2.7583  2.0692 -1.7615
  181MOL0     H24395   0.430   0.080   5.418 -0.0928  0.0607 -1.6908
  181MOL0     H24396   0.130   0.078   5.338  1.1212  0.3519  0.2769
  181MOL0     H24397   0.083   0.056   5.507  0.6962 -0.0445 -0.4850
  181MOL0     H24398   0.221   0.158   5.452 -1.7398  1.1041  0.8813
  181MOL0     H24399  -0.165  -0.367   5.314  2.4492  1.9173  2.7563
  181MOL0     H24400  -0.416  -0.353   5.249 -2.7565  2.1816  2.7092
  181MOL0     H24401  -0.633  -0.235   5.307 -0.2671  0.4574  0.3426
  181MOL0     H24402  -0.591  -0.055   5.336  3.3669 -0.5288 -0.5902
  181MOL0     H24403  -0.768  -0.006   5.147 -2.6638  1.6977  1.3369
  181MOL0     H24404  -0.793  -0.187   5.153  0.7882  1.1105 -1.5133
  181MOL0     H24405  -0.869  -0.140   5.408  0.9681  0.1200  0.6508
  181MOL0     H24406  -0.974  -0.082   5.280  1.5873  2.2462 -3.0672
  181MOL0     H24407  -0.751   0.113   5.381 -1.6142  4.2110  1.3037
  181MOL0     H24408  -0.896   0.140   5.297  3.1396  1.1054 -1.7580
  181MOL0     H24409  -0.903   0.185   5.538  1.6785  0.4323 -2.0670
  181MOL0     H24410  -0.877   0.026   5.583  0.4037 -0.5285 -0.7741
  181MOL0     H24411  -1.090  -0.046   5.469 -3.5003  0.8511 -2.3334
  181MOL0     H24412  -1.113   0.071   5.600 -0.4795 -4.3273  0.3346
  181MOL0     H24413  -1.114   0.085   5.292 -1.5883 -3.3469  0.5300
  181MOL0     H24414  -1.112   0.234   5.398  0.3734 -0.8599  3.4196
  181MOL0     H24415  -1.346   0.179   5.349  0.3553  1.7034  1.2824
  181MOL0     H24416  -1.327   0.149   5.517 -1.0700 -0.1670  0.1042
  181MOL0     H24417  -0.374   0.067   5.226  1.8327  0.1751 -3.0220
  181MOL0     H24418  -0.136   0.057   5.303  1.0004 -0.2794 -3.3338
  181MOL0     H24419   0.282  -0.383   5.445 -0.0326 -0.0230 -0.9357
  181MOL0     H24420   0.507  -0.339   5.376  0.8098 -0.2102  0.1968
  181MOL0     H24421   2.016   0.427   5.853  0.4863 -3.3085  0.1006
  181MOL0     H24422   2.260   0.416   5.894  2.5544 -2.8902  2.1084
  181MOL0     H24423   2.615   0.490   6.090 -0.7585 -0.6837  0.8841
  181MOL0     H24424   2.868   0.481   6.123  0.4563 -1.2983  1.3167
  181MOL0     H24425   2.984   0.420   6.507  0.8383 -0.4670  0.2694
  181MOL0     H24426   3.033   0.247   6.505  0.3157  1.0834  1.4547
  181MOL0     H24427   3.168   0.501   6.401  0.1526 -0.8618 -2.7542
  181MOL0     H24428   3.253   0.346   6.387  1.3924  0.4126  0.8200
  181MOL0     H24429   3.188   0.329   6.651 -0.6107  0.5139  1.7159
  181MOL0     H24430   3.167   0.498   6.631 -1.7361 -0.3369 -2.6788
  181MOL0     H24431   3.434   0.358   6.579 -0.2801 -1.1602  1.2004
  181MOL0     H24432   3.378   0.452   6.718 -1.2468 -0.6730 -0.1155
  181MOL0     H24433   3.463   0.761   6.445  0.7066 -0.1161  0.7129
  181MOL0     H24434   2.804   0.208   6.458 -0.8326 -2.1803 -1.3703
  181MOL0     H24435   2.560   0.219   6.407 -0.3299  1.7051  0.0555
  182MOL0     O24436   7.521   6.646   0.963 -0.0624 -0.5902  1.0551
  182MOL0     C24437   7.533   6.562   1.049  0.2567 -0.2290 -0.4232
  182MOL0     O24438   7.442   6.477   1.095  0.8857  0.4200  0.0693
  182MOL0     C24439   7.322   6.461   1.034  0.6374 -0.6362 -0.8657
  182MOL0     C24440   7.298   6.487   0.897 -0.2328  0.5127  0.1636
  182MOL0     C24441   7.171   6.459   0.849 -0.1179  0.7291 -0.7100
  182MOL0     C24442   7.061   6.402   0.924 -0.9245 -0.0087 -0.3397
  182MOL0     O24443   6.934   6.384   0.877  0.1391 -0.1360 -0.4864
  182MOL0     C24444   6.895   6.452   0.759  1.1155 -0.3054  0.2215
  182MOL0     C24445   6.758   6.420   0.726 -0.2251  0.0142  0.0971
  182MOL0     C24446   6.648   6.439   0.839  0.3801  0.2717  0.6563
  182MOL0     C24447   6.624   6.580   0.871 -1.0169  0.2466  0.5804
  182MOL0     C24448   6.527   6.597   0.990  0.4840 -0.7484  0.7430
  182MOL0     C24449   6.481   6.743   1.005  0.4058  0.8311  0.0938
  182MOL0     C24450   6.372   6.751   1.112 -0.1663  0.3969  0.3277
  182MOL0     C24451   6.354   6.878   1.182  0.7934 -0.5729 -0.5526
  182MOL0     N24452   6.448   6.903   1.294 -0.0034 -0.0358 -0.0561
  182MOL0     C24453   6.564   6.970   1.280  0.9750 -0.5400 -0.1642
  182MOL0     C24454   6.628   6.956   1.396 -0.6201 -0.7433  0.4893
  182MOL0     C24455   6.766   7.006   1.439  0.5531 -0.8485  0.2628
  182MOL0     C24456   6.779   7.154   1.409  0.8103 -0.1182  0.7684
  182MOL0     C24457   6.910   7.215   1.462  0.0486 -1.2694 -0.0077
  182MOL0     C24458   7.028   7.190   1.362  0.6583  0.0832 -0.3570
  182MOL0     O24459   7.155   7.217   1.436 -0.2209  0.1380  0.3559
  182MOL0     C24460   7.266   7.237   1.362 -0.1647 -0.1040  0.3891
  182MOL0     C24461   7.362   7.319   1.413  0.6817 -1.4002 -0.1040
  182MOL0     C24462   7.462   7.368   1.324 -0.5096  0.1699  0.5404
  182MOL0     C24463   7.564   7.461   1.379  0.4142 -0.3346 -0.2222
  182MOL0     C24464   7.476   7.318   1.194 -0.0635 -0.3277 -0.0570
  182MOL0     C24465   7.588   7.374   1.106 -0.0229  0.2443  1.0380
  182MOL0     O24466   7.705   7.299   1.099 -0.0981 -0.3410 -0.0948
  182MOL0     C24467   7.797   7.339   1.000 -0.0282 -0.5324  1.9422
  182MOL0     C24468   7.801   7.271   0.878  0.2944  0.3482  0.6126
  182MOL0     C24469   7.878   7.316   0.766 -0.4049  1.1039 -0.4549
  182MOL0     C24470   7.959   7.435   0.784 -0.2370 -0.3666  0.0132
  182MOL0     O24471   8.046   7.478   0.685  0.4047 -0.1382 -0.3382
  182MOL0     C24472   8.044   7.616   0.649 -0.0276 -0.1460 -0.0929
  182MOL0     C24473   8.173   7.654   0.581  0.2928  0.1449 -0.2862
  182MOL0     C24474   8.261   7.724   0.681 -0.7105  0.4376  0.2409
  182MOL0     C24475   8.406   7.725   0.622 -0.4891  0.0752  0.6666
  182MOL0     C24476   8.501   7.770   0.727  1.0697  0.0999 -0.1819
  182MOL0     C24477   8.636   7.760   0.659  1.1502  0.1423  0.3587
  182MOL0     C24478   8.756   7.815   0.749  0.4830 -0.8523  0.0042
  182MOL0     C24479   8.888   7.768   0.680  0.3387 -0.3322 -0.2275
  182MOL0    Cl24480   9.031   7.791   0.795 -0.1158 -0.0934 -0.5230
  182MOL0     C24481   7.955   7.498   0.913 -0.0390  1.2524  1.4196
  182MOL0     C24482   7.884   7.450   1.022 -0.2412  0.5766 -0.2909
  182MOL0     O24483   7.570   7.466   1.028  0.4444  0.7793 -0.1466
  182MOL0     C24484   7.381   7.225   1.150 -0.8671  0.4677 -0.3099
  182MOL0     C24485   7.272   7.187   1.235  0.2731 -0.2876 -0.3785
  182MOL0     N24486   6.541   6.896   1.481 -0.4610  0.0401  0.2118
  182MOL0     N24487   6.442   6.857   1.416  0.6300  0.1069 -0.9107
  182MOL0     C24488   7.095   6.385   1.063 -0.4999 -0.3742  0.5070
  182MOL0     C24489   7.220   6.406   1.111  0.1223 -0.0635 -0.1456
  182MOL0     C24490   7.652   6.549   1.113  0.1380  1.2610 -0.3985
  182MOL0     C24491   7.769   6.550   1.028  0.5086 -0.2442  0.1094
  182MOL0     C24492   7.894   6.510   1.077  0.1887 -0.2083  0.2959
  182MOL0     C24493   7.919   6.501   1.207 -0.0572 -0.1306  0.8762
  182MOL0     O24494   8.045   6.465   1.252 -0.1054 -0.1279 -0.1521
  182MOL0     C24495   8.095   6.515   1.379  0.8086 -0.2196  0.3740
  182MOL0     C24496   8.244   6.482   1.392  0.6998 -0.9426  0.6487
  182MOL0     C24497   8.300   6.544   1.518  0.7660  0.3824 -0.5740
  182MOL0     C24498   8.438   6.500   1.552 -0.3917 -0.5549 -0.3032
  182MOL0     C24499   8.532   6.537   1.440  0.5156  0.1713  0.7558
  182MOL0     C24500   8.617   6.569   1.359 -0.3276 -0.6657  0.6242
  182MOL0     C24501   7.812   6.502   1.293  0.4494  0.3419 -0.3362
  182MOL0     C24502   7.683   6.521   1.247  0.2381  0.8757 -0.0533
  182MOL0     H24503   7.379   6.522   0.833 -0.1543  0.5187  0.2665
  182MOL0     H24504   7.176   6.478   0.743 -2.5059  0.7775 -0.8816
  182MOL0     H24505   6.901   6.560   0.776  0.4748 -0.4263  1.3796
  182MOL0     H24506   6.953   6.435   0.668 -0.1262 -0.7219 -0.5212
  182MOL0     H24507   6.725   6.471   0.635  0.2108 -0.1620 -0.1653
  182MOL0     H24508   6.765   6.315   0.696  0.2571  0.1686 -0.3458
  182MOL0     H24509   6.556   6.391   0.805 -0.0952  1.2745  0.5069
  182MOL0     H24510   6.684   6.377   0.922 -1.9367 -1.6839  0.3025
  182MOL0     H24511   6.719   6.631   0.888 -0.4096 -0.8298  0.5444
  182MOL0     H24512   6.575   6.630   0.787 -0.9885 -1.1521 -0.3019
  182MOL0     H24513   6.446   6.529   0.961  0.4892  0.4380 -2.5846
  182MOL0     H24514   6.569   6.553   1.080 -0.6870  0.2845  1.8325
  182MOL0     H24515   6.567   6.805   1.031  1.7722 -1.0856  0.3751
  182MOL0     H24516   6.445   6.770   0.906  1.6474  0.7745 -0.3885
  182MOL0     H24517   6.278   6.727   1.062  0.8340 -0.3650 -1.2523
  182MOL0     H24518   6.384   6.673   1.188 -1.1787  0.0076  0.0996
  182MOL0     H24519   6.250   6.872   1.218  1.2475  0.5621  1.0696
  182MOL0     H24520   6.348   6.967   1.119 -1.6576 -0.4310 -0.2489
  182MOL0     H24521   6.599   7.006   1.184  1.4196 -1.6324 -0.4356
  182MOL0     H24522   6.798   6.965   1.535 -3.4779  2.4034  3.3288
  182MOL0     H24523   6.833   6.967   1.361  0.0739 -0.2045 -0.4901
  182MOL0     H24524   6.699   7.198   1.468 -2.0642 -0.0535 -2.8441
  182MOL0     H24525   6.773   7.178   1.302  2.5882 -0.3492  0.5805
  182MOL0     H24526   6.928   7.167   1.558 -2.0614 -1.6743  0.2196
  182MOL0     H24527   6.903   7.322   1.484  1.0959 -0.6703 -2.1980
  182MOL0     H24528   7.020   7.261   1.279  0.9717  0.8694  0.2670
  182MOL0     H24529   7.018   7.095   1.308  0.2626  0.1184 -0.3488
  182MOL0     H24530   7.353   7.365   1.511  5.1447 -3.5395  1.5745
  182MOL0     H24531   7.667   7.424   1.372  0.1587 -1.0549 -0.3036
  182MOL0     H24532   7.549   7.555   1.325 -1.9964 -0.1828  0.5788
  182MOL0     H24533   7.537   7.487   1.482  0.5415  0.7715 -0.4527
  182MOL0     H24534   7.731   7.189   0.864 -1.4288  1.8349  0.1404
  182MOL0     H24535   7.878   7.246   0.683 -1.6303 -2.1201  2.0481
  182MOL0     H24536   7.961   7.643   0.583 -1.5289 -0.8078  1.4270
  182MOL0     H24537   8.037   7.679   0.738  0.7185  0.6861 -0.6110
  182MOL0     H24538   8.222   7.571   0.530 -0.0710 -1.0165  1.2077
  182MOL0     H24539   8.170   7.734   0.506  1.8922  1.7103  1.2172
  182MOL0     H24540   8.255   7.677   0.779 -2.2088  0.7861  0.3398
  182MOL0     H24541   8.225   7.827   0.685 -1.1351  0.6048 -3.8610
  182MOL0     H24542   8.438   7.623   0.599 -0.1508  0.0181  1.3472
  182MOL0     H24543   8.413   7.788   0.533  0.6658  0.5196  1.0527
  182MOL0     H24544   8.498   7.701   0.812  1.1387  0.5904  0.2168
  182MOL0     H24545   8.484   7.876   0.742  0.6563  0.1840 -1.1509
  182MOL0     H24546   8.663   7.655   0.643 -0.8543 -0.4360  0.5453
  182MOL0     H24547   8.628   7.812   0.564  0.6885 -0.5371  0.0143
  182MOL0     H24548   8.748   7.754   0.839 -0.5426 -0.5442  0.1315
  182MOL0     H24549   8.754   7.921   0.777  4.0391 -0.6414 -0.0666
  182MOL0     H24550   8.916   7.829   0.593  1.4516  0.1106  0.4177
  182MOL0     H24551   8.873   7.664   0.650  0.6468 -0.6585  0.7291
  182MOL0     H24552   8.025   7.578   0.936  1.8510 -0.1217  0.8032
  182MOL0     H24553   7.899   7.486   1.124  2.7271  0.1219 -0.4871
  182MOL0     H24554   7.370   7.180   1.052  0.8155 -0.6920 -0.0102
  182MOL0     H24555   7.189   7.130   1.194 -2.7039  2.3817  1.5294
  182MOL0     H24556   7.013   6.349   1.124 -1.8143 -1.7395 -1.9087
  182MOL0     H24557   7.234   6.382   1.216  0.8315 -0.5222 -0.3412
  182MOL0     H24558   7.759   6.564   0.921  1.1193  1.9545  0.3049
  182MOL0     H24559   7.971   6.499   1.002 -0.0405 -2.4951  0.3207
  182MOL0     H24560   8.072   6.622   1.375  2.3337  0.1359  0.4798
  182MOL0     H24561   8.044   6.475   1.467 -0.5393 -0.1241 -0.3332
  182MOL0     H24562   8.279   6.536   1.304 -2.0355 -0.1168 -0.0116
  182MOL0     H24563   8.274   6.377   1.404  3.0590 -0.6837 -1.9455
  182MOL0     H24564   8.235   6.524   1.603 -0.0637  3.4579 -0.3537
  182MOL0     H24565   8.311   6.653   1.520  2.8971  0.2048  1.7473
  182MOL0     H24566   8.445   6.392   1.567  1.6032 -0.2711  1.1906
  182MOL0     H24567   8.471   6.541   1.648  0.8379  0.8644 -1.2834
  182MOL0     H24568   8.674   6.612   1.279 -3.6030 -2.3221 -2.9005
  182MOL0     H24569   7.823   6.478   1.399 -0.0894 -1.0843 -0.5909
  182MOL0     H24570   7.607   6.521   1.324  0.6040 -0.7625  0.3490
  183MOL0     O24571   9.657   0.706   5.642  0.7241 -0.0889 -0.6567
  183MOL0     C24572   9.700   0.701   5.755  0.4148 -0.8411  0.0918
  183MOL0     O24573   9.634   0.758   5.872 -0.3281  0.6254 -0.2613
  183MOL0     C24574   9.504   0.799   5.868  0.0486 -0.2454 -0.1025
  183MOL0     C24575   9.398   0.766   5.781 -0.2181  0.3872 -0.2984
  183MOL0     C24576   9.271   0.808   5.811  0.8116  0.3208 -0.0781
  183MOL0     C24577   9.247   0.907   5.912 -0.2500 -0.2036  0.1084
  183MOL0     O24578   9.113   0.948   5.926  0.6623  0.1572 -0.2994
  183MOL0     C24579   9.069   1.052   6.017  0.1719  0.9042  0.2410
  183MOL0     C24580   8.922   1.086   5.998 -0.3182  0.0261  0.4573
  183MOL0     C24581   8.891   1.123   5.854  0.0321  1.0740  0.5920
  183MOL0     C24582   8.898   1.269   5.830 -0.3608 -1.0008  0.4003
  183MOL0     C24583   8.798   1.325   5.723  0.9882  0.9412  0.0472
  183MOL0     C24584   8.803   1.243   5.588 -0.1640 -0.1304 -0.0194
  183MOL0     C24585   8.724   1.315   5.488  0.2381 -0.2561  0.7921
  183MOL0     C24586   8.678   1.238   5.370  0.3044 -0.4831  0.7747
  183MOL0     N24587   8.581   1.327   5.303  0.6136  0.6863 -0.8064
  183MOL0     C24588   8.446   1.337   5.359 -0.4902  0.2950 -0.0419
  183MOL0     C24589   8.390   1.432   5.284 -0.8785  0.1508 -0.1044
  183MOL0     C24590   8.254   1.491   5.291 -0.3702 -0.3507  0.4768
  183MOL0     C24591   8.153   1.378   5.314  0.6290  0.0235 -0.7989
  183MOL0     C24592   8.011   1.397   5.261 -0.1514  0.0903  0.3069
  183MOL0     C24593   7.918   1.466   5.358  0.3340  0.1821  0.2177
  183MOL0     O24594   7.873   1.365   5.450 -0.4308  0.5789  0.2357
  183MOL0     C24595   7.775   1.396   5.544 -0.0023  0.0915  0.5635
  183MOL0     C24596   7.725   1.298   5.619  0.4307  0.0361 -0.9110
  183MOL0     C24597   7.612   1.323   5.699 -0.2585  0.1905 -1.0946
  183MOL0     C24598   7.578   1.203   5.791  0.3506 -0.1652  0.3501
  183MOL0     C24599   7.556   1.448   5.703 -0.1015 -0.8004  0.0735
  183MOL0     C24600   7.430   1.487   5.773 -0.4864  0.2206  0.7387
  183MOL0     O24601   7.398   1.620   5.772 -0.1619 -0.2830  0.0549
  183MOL0     C24602   7.270   1.665   5.798  0.5464  0.8562  0.9793
  183MOL0     C24603   7.239   1.794   5.770  0.1596 -0.3769  0.4595
  183MOL0     C24604   7.111   1.854   5.792 -0.4989 -0.3100  0.4615
  183MOL0     C24605   7.010   1.768   5.837  0.6699  0.2566 -0.0702
  183MOL0     O24606   6.890   1.803   5.873  0.8024 -0.5933 -0.2938
  183MOL0     C24607   6.870   1.932   5.942  0.7887  0.2500  0.7531
  183MOL0     C24608   6.725   1.949   5.968 -0.7014  0.5874 -0.5834
  183MOL0     C24609   6.691   1.942   6.120 -0.3555  0.9701 -0.9026
  183MOL0     C24610   6.554   1.995   6.146 -0.0971 -0.3003  0.5469
  183MOL0     C24611   6.448   1.899   6.179 -0.0071  0.5680 -0.0185
  183MOL0     C24612   6.316   1.977   6.169  0.3883  0.1458 -0.0450
  183MOL0     C24613   6.198   1.883   6.177 -0.7858 -1.3469  0.4331
  183MOL0     C24614   6.077   1.984   6.191  0.2637  0.2711  0.2699
  183MOL0    Cl24615   5.928   1.903   6.157 -0.2695  0.0813  0.3463
  183MOL0     C24616   7.034   1.637   5.865  0.3069 -0.1108  0.2161
  183MOL0     C24617   7.157   1.592   5.851  0.7182  0.6959  0.1321
  183MOL0     O24618   7.363   1.398   5.826  0.2154 -0.3301  0.1198
  183MOL0     C24619   7.613   1.551   5.622 -0.5271  0.3665  0.8409
  183MOL0     C24620   7.720   1.524   5.543 -0.1600  0.4688  0.5153
  183MOL0     N24621   8.478   1.476   5.189 -0.7740  0.2865 -0.0998
  183MOL0     N24622   8.590   1.407   5.192 -0.9335 -0.2005 -0.3974
  183MOL0     C24623   9.355   0.951   5.985 -0.0122  0.2844 -0.0452
  183MOL0     C24624   9.478   0.890   5.962  1.1355 -0.2167 -0.1941
  183MOL0     C24625   9.826   0.629   5.773  0.0582 -0.2395 -0.4211
  183MOL0     C24626   9.901   0.572   5.663  0.3893 -0.7052 -0.5402
  183MOL0     C24627  10.025   0.510   5.686  0.2186  0.0145 -0.3383
  183MOL0     C24628  10.064   0.480   5.816  0.5209 -0.1606 -0.4905
  183MOL0     O24629  10.184   0.423   5.856  0.0503 -0.1503 -0.0571
  183MOL0     C24630  10.281   0.394   5.750  0.9072 -0.7900  0.5162
  183MOL0     C24631  10.398   0.312   5.805  0.4302  0.3743 -0.2352
  183MOL0     C24632  10.506   0.395   5.872 -0.8801  0.1485 -0.4163
  183MOL0     C24633  10.617   0.314   5.942 -0.1975 -0.5286  0.6471
  183MOL0     C24634  10.561   0.255   6.062 -0.7072 -0.4683 -0.5686
  183MOL0     C24635  10.520   0.227   6.175 -0.0246 -0.7388 -0.4466
  183MOL0     C24636   9.982   0.519   5.922  0.2816  0.3814  0.7284
  183MOL0     C24637   9.870   0.595   5.901  0.3837 -0.7655 -0.2470
  183MOL0     H24638   9.421   0.709   5.692  3.7341  1.9841 -0.5162
  183MOL0     H24639   9.186   0.768   5.757  0.8882 -0.5411  0.4253
  183MOL0     H24640   9.078   1.011   6.118  0.6679 -3.1807 -1.2731
  183MOL0     H24641   9.128   1.142   5.996  0.6356  0.1279 -2.1122
  183MOL0     H24642   8.861   1.003   6.036  0.2208  0.1193  1.5413
  183MOL0     H24643   8.906   1.175   6.059  0.1881 -0.8498  1.9157
  183MOL0     H24644   8.948   1.067   5.779  1.2923  2.9694  0.0673
  183MOL0     H24645   8.788   1.085   5.848  0.0880  0.8705  0.8898
  183MOL0     H24646   8.867   1.328   5.916 -1.9908  0.8205 -1.3333
  183MOL0     H24647   8.999   1.309   5.813 -0.9970  0.9826  1.0521
  183MOL0     H24648   8.698   1.332   5.765  0.2397  0.0669 -1.5117
  183MOL0     H24649   8.829   1.428   5.701 -0.2512  1.7788  1.9062
  183MOL0     H24650   8.903   1.227   5.547  0.1381 -1.8065  1.2613
  183MOL0     H24651   8.754   1.147   5.605 -3.4908  0.8664 -2.8666
  183MOL0     H24652   8.639   1.372   5.528 -0.6961 -1.2727  0.2896
  183MOL0     H24653   8.787   1.395   5.447 -1.9624  1.7801  1.0745
  183MOL0     H24654   8.644   1.136   5.394 -0.1614 -0.1777  1.4315
  183MOL0     H24655   8.764   1.217   5.307  1.1317 -0.6512  1.9214
  183MOL0     H24656   8.402   1.261   5.422 -1.2277  0.1146 -0.7639
  183MOL0     H24657   8.267   1.566   5.370 -0.0649  2.3629 -1.9806
  183MOL0     H24658   8.242   1.541   5.195  0.3316 -0.9067  0.0917
  183MOL0     H24659   8.144   1.356   5.421  3.0677 -0.3647 -0.6199
  183MOL0     H24660   8.195   1.289   5.267  0.9118 -1.2803  1.7755
  183MOL0     H24661   7.958   1.306   5.232 -2.1291  2.0999 -3.1363
  183MOL0     H24662   8.018   1.444   5.162 -0.9279 -0.9008 -0.2378
  183MOL0     H24663   7.844   1.503   5.285  0.3552  0.0665  0.1386
  183MOL0     H24664   7.968   1.546   5.414  0.4830 -2.1861  3.8098
  183MOL0     H24665   7.763   1.196   5.616 -1.6209 -0.7652 -1.0088
  183MOL0     H24666   7.623   1.103   5.786 -1.7839 -1.1564 -3.1585
  183MOL0     H24667   7.588   1.241   5.893 -1.6874  1.1887  0.1179
  183MOL0     H24668   7.472   1.177   5.777  0.1997  0.5137  0.2125
  183MOL0     H24669   7.318   1.862   5.741 -0.3158  0.6792  1.5646
  183MOL0     H24670   7.084   1.954   5.758 -3.4254  0.2334  3.7444
  183MOL0     H24671   6.930   1.932   6.033  1.0401  2.7852  0.6695
  183MOL0     H24672   6.904   2.011   5.875 -2.8912  0.1009 -1.5486
  183MOL0     H24673   6.688   2.047   5.937 -1.6421  1.5043  2.9111
  183MOL0     H24674   6.677   1.867   5.916 -0.1489  0.8008 -1.4388
  183MOL0     H24675   6.768   1.994   6.177 -0.5382 -0.8725  1.1329
  183MOL0     H24676   6.704   1.840   6.155  0.2079  1.5149  0.5679
  183MOL0     H24677   6.564   2.060   6.233 -1.2570  1.0066 -0.2521
  183MOL0     H24678   6.513   2.053   6.063 -1.9858 -1.1204  0.8490
  183MOL0     H24679   6.466   1.843   6.272 -1.6783  0.8262  0.4872
  183MOL0     H24680   6.444   1.822   6.102  3.3174 -0.0200  0.2241
  183MOL0     H24681   6.313   2.055   6.246  0.7548 -0.3390  0.4656
  183MOL0     H24682   6.313   2.021   6.069  0.5362 -1.3944 -0.7609
  183MOL0     H24683   6.214   1.836   6.274 -1.2219  0.8383  1.6377
  183MOL0     H24684   6.183   1.810   6.097  0.9450 -0.4373 -0.7724
  183MOL0     H24685   6.074   2.069   6.123 -0.8561 -0.9863 -1.3237
  183MOL0     H24686   6.071   2.018   6.295  0.9586 -0.2613  0.4940
  183MOL0     H24687   6.951   1.574   5.899  0.0699  0.2263  0.2653
  183MOL0     H24688   7.158   1.484   5.860  0.3693  0.5885 -1.0403
  183MOL0     H24689   7.571   1.651   5.613 -2.2103 -0.4828 -1.4932
  183MOL0     H24690   7.771   1.600   5.484 -0.4948  0.8184  0.6673
  183MOL0     H24691   9.346   1.010   6.075 -2.5315  0.6831 -0.5021
  183MOL0     H24692   9.561   0.929   6.019 -0.6609  2.8611  0.5933
  183MOL0     H24693   9.860   0.588   5.564  0.8990  1.0345 -0.5000
  183MOL0     H24694  10.095   0.492   5.604  0.6215  1.2594 -0.2950
  183MOL0     H24695  10.242   0.327   5.673 -0.3550 -1.1027  1.3963
  183MOL0     H24696  10.324   0.486   5.709  4.6942 -2.2835  0.6747
  183MOL0     H24697  10.443   0.263   5.717  0.8696 -0.1377  0.2693
  183MOL0     H24698  10.367   0.233   5.873  2.6038  0.1604  0.5728
  183MOL0     H24699  10.449   0.456   5.942 -1.6267  0.0399 -0.9217
  183MOL0     H24700  10.556   0.474   5.814  1.2909  0.1807  1.3744
  183MOL0     H24701  10.698   0.384   5.965 -2.2544  1.3179  2.7944
  183MOL0     H24702  10.657   0.232   5.882 -2.4735 -0.9368 -0.4450
  183MOL0     H24703  10.485   0.208   6.274  1.2623  0.3111  0.2418
  183MOL0     H24704  10.014   0.482   6.019  0.1217  2.4173  1.6146
  183MOL0     H24705   9.819   0.624   5.992  2.3547 -1.7685  1.2473
  184MOL0     O24706   8.950   2.274   7.348 -0.3903 -0.1023 -0.4816
  184MOL0     C24707   8.925   2.254   7.465  0.8573 -0.2350 -0.7068
  184MOL0     O24708   8.796   2.241   7.521 -0.0285  0.0295 -0.4258
  184MOL0     C24709   8.682   2.246   7.444 -0.5381  0.1572  0.0770
  184MOL0     C24710   8.563   2.219   7.523  0.0734  0.2392 -0.4990
  184MOL0     C24711   8.441   2.223   7.467 -0.2830  0.0079  0.1390
  184MOL0     C24712   8.430   2.266   7.335  0.6264  0.3530  0.3460
  184MOL0     O24713   8.307   2.286   7.270 -0.4346  0.2982 -0.5024
  184MOL0     C24714   8.183   2.245   7.335 -0.4798 -0.1367 -0.6611
  184MOL0     C24715   8.066   2.268   7.249  0.3398  0.1634 -0.1930
  184MOL0     C24716   7.944   2.195   7.312 -0.4505 -0.5436 -0.0375
  184MOL0     C24717   7.819   2.216   7.233  0.0505 -0.3790 -0.3198
  184MOL0     C24718   7.719   2.106   7.263 -0.3072 -0.0074  0.0056
  184MOL0     C24719   7.629   2.136   7.389 -0.6329  0.3352  0.1762
  184MOL0     C24720   7.506   2.046   7.403 -0.3354 -0.0321 -0.7876
  184MOL0     C24721   7.406   2.115   7.498 -0.5485 -0.6464 -0.3638
  184MOL0     N24722   7.290   2.028   7.518 -0.4065 -0.4130  0.4087
  184MOL0     C24723   7.183   2.023   7.433  0.1560 -0.1584 -0.0281
  184MOL0     C24724   7.091   1.939   7.485  0.4655 -0.0160 -0.2700
  184MOL0     C24725   6.966   1.885   7.414  0.3877 -0.3076 -0.1303
  184MOL0     C24726   6.844   1.926   7.488  0.1000 -0.6706 -0.8859
  184MOL0     C24727   6.799   1.840   7.612 -0.4853 -0.6122 -0.0623
  184MOL0     C24728   6.693   1.740   7.563  0.0223  0.3335 -0.2865
  184MOL0     O24729   6.564   1.784   7.517  0.2398  0.5294 -0.4481
  184MOL0     C24730   6.464   1.825   7.608 -0.3823 -0.0563  0.9123
  184MOL0     C24731   6.469   1.814   7.744  0.5192 -0.0517  0.0364
  184MOL0     C24732   6.380   1.875   7.832 -0.0523 -0.3124 -0.1766
  184MOL0     C24733   6.423   1.849   7.965 -0.3786  0.2972 -0.8773
  184MOL0     C24734   6.267   1.945   7.790 -0.2401  0.8129 -0.0141
  184MOL0     C24735   6.154   1.990   7.879 -0.5240 -1.1000  0.2168
  184MOL0     O24736   6.079   2.085   7.821  0.2119  0.0443  0.1642
  184MOL0     C24737   5.962   2.128   7.893 -0.7411  0.3962  0.3036
  184MOL0     C24738   5.853   2.139   7.818  0.4852 -0.7828 -0.8320
  184MOL0     C24739   5.733   2.176   7.884 -0.7231  0.9523  0.2847
  184MOL0     C24740   5.730   2.208   8.019 -0.5520 -0.7936 -0.0065
  184MOL0     O24741   5.607   2.237   8.079  0.3906  0.2945 -0.6301
  184MOL0     C24742   5.597   2.304   8.201 -0.1223 -0.1908  0.0429
  184MOL0     C24743   5.451   2.331   8.231  0.6961  0.1625  0.7168
  184MOL0     C24744   5.385   2.425   8.137  0.0411 -0.5355 -0.3537
  184MOL0     C24745   5.266   2.499   8.194  0.6123  0.3752 -0.3172
  184MOL0     C24746   5.162   2.563   8.094 -0.2903  0.2882 -0.4427
  184MOL0     C24747   5.070   2.449   8.041 -1.0093  0.0507  0.5043
  184MOL0     C24748   4.962   2.515   7.965 -0.2093 -0.0908 -0.2567
  184MOL0     C24749   4.848   2.562   8.057 -0.2106  0.8581  0.3788
  184MOL0    Cl24750   4.713   2.561   7.942  0.1305 -0.3792  0.1040
  184MOL0     C24751   5.848   2.212   8.097  0.8259 -0.5125  0.2927
  184MOL0     C24752   5.960   2.176   8.032 -0.4902  0.1303  1.1230
  184MOL0     O24753   6.147   1.950   7.994 -0.4828  0.5046 -0.3110
  184MOL0     C24754   6.251   1.947   7.650 -0.6402 -1.0432  0.1662
  184MOL0     C24755   6.348   1.888   7.558 -0.3896 -0.1474 -0.5577
  184MOL0     N24756   7.152   1.883   7.593 -0.4633 -0.1396 -0.8290
  184MOL0     N24757   7.270   1.936   7.617 -0.2971  0.2666 -0.6640
  184MOL0     C24758   8.544   2.298   7.259 -0.5901 -0.0034  0.5050
  184MOL0     C24759   8.668   2.292   7.310 -0.2416  0.6639 -0.6593
  184MOL0     C24760   9.030   2.220   7.562  0.3912  0.0068 -1.4274
  184MOL0     C24761   9.166   2.220   7.521 -0.3451 -0.5095 -1.0942
  184MOL0     C24762   9.271   2.155   7.595 -0.8605  0.1671 -0.5323
  184MOL0     C24763   9.234   2.114   7.728 -0.1131  0.3976  0.0955
  184MOL0     O24764   9.330   2.066   7.819 -0.4724  0.4223  0.3571
  184MOL0     C24765   9.458   2.012   7.769 -0.4704 -0.4896  0.1966
  184MOL0     C24766   9.532   1.934   7.879  0.3276 -0.6961 -0.6271
  184MOL0     C24767   9.650   1.869   7.812  0.1526 -1.0782  0.3572
  184MOL0     C24768   9.739   1.790   7.921  0.5656 -0.1533  0.4843
  184MOL0     C24769   9.861   1.733   7.858  0.4740  0.2758 -0.5371
  184MOL0     C24770   9.947   1.665   7.809  0.7964 -0.0216  0.2519
  184MOL0     C24771   9.096   2.114   7.772  0.3786 -0.3979  0.8099
  184MOL0     C24772   8.995   2.163   7.691  0.7176  0.2150 -0.0475
  184MOL0     H24773   8.581   2.197   7.628  2.0304 -1.8277 -1.2036
  184MOL0     H24774   8.354   2.185   7.519  1.1451 -5.1180 -0.6711
  184MOL0     H24775   8.177   2.138   7.354 -3.9182  0.1378  0.4459
  184MOL0     H24776   8.177   2.294   7.433 -2.2880  0.8235 -1.1938
  184MOL0     H24777   8.039   2.372   7.231 -1.4629  0.0549  1.5189
  184MOL0     H24778   8.086   2.223   7.151  1.4295 -0.7737  0.4265
  184MOL0     H24779   7.965   2.088   7.302 -0.0862 -0.3831 -1.0844
  184MOL0     H24780   7.926   2.232   7.413  0.4912  1.4498 -0.5615
  184MOL0     H24781   7.776   2.310   7.270 -0.7490 -0.1192 -1.7927
  184MOL0     H24782   7.836   2.225   7.125 -0.9344 -0.6977 -0.5059
  184MOL0     H24783   7.648   2.088   7.182 -1.9674 -1.9865  1.7661
  184MOL0     H24784   7.764   2.009   7.287 -3.2288 -1.2876  0.8145
  184MOL0     H24785   7.683   2.123   7.484 -2.1060 -1.2752  0.8347
  184MOL0     H24786   7.588   2.238   7.384 -1.5491  0.0065  0.7885
  184MOL0     H24787   7.455   2.027   7.308  0.4674 -1.6728 -0.9256
  184MOL0     H24788   7.532   1.950   7.448 -1.6136  0.5957  1.4488
  184MOL0     H24789   7.372   2.214   7.466 -2.1839 -0.4643  1.7083
  184MOL0     H24790   7.450   2.140   7.595 -0.1662 -0.1662 -0.6599
  184MOL0     H24791   7.166   2.079   7.342 -3.9759 -0.0716  0.6446
  184MOL0     H24792   6.952   1.925   7.313 -0.0788  0.6445  0.2930
  184MOL0     H24793   6.959   1.776   7.419 -1.8789 -0.1571  2.1348
  184MOL0     H24794   6.769   1.944   7.411 -1.9365 -1.1883  0.8693
  184MOL0     H24795   6.857   2.029   7.521 -1.0047 -0.1132 -2.1216
  184MOL0     H24796   6.752   1.906   7.686  1.1799 -0.2756  0.7604
  184MOL0     H24797   6.887   1.795   7.659  0.0522 -0.7377 -1.1709
  184MOL0     H24798   6.697   1.656   7.633  0.0298  1.6686  1.3817
  184MOL0     H24799   6.737   1.707   7.469  0.1571  2.4616 -1.0243
  184MOL0     H24800   6.552   1.769   7.797  2.3469  2.0059 -0.8903
  184MOL0     H24801   6.376   1.757   8.001  1.4582 -0.1070  0.7148
  184MOL0     H24802   6.531   1.839   7.982 -0.4898 -1.3997 -0.9914
  184MOL0     H24803   6.397   1.936   8.027  0.2603  0.6833 -1.1435
  184MOL0     H24804   5.849   2.101   7.717 -2.3068 -2.8246 -0.0984
  184MOL0     H24805   5.633   2.179   7.841 -1.1872 -1.1424  1.1011
  184MOL0     H24806   5.641   2.249   8.286  0.5967 -1.0390 -0.8521
  184MOL0     H24807   5.657   2.393   8.181  0.9774 -1.2016 -1.3730
  184MOL0     H24808   5.409   2.230   8.226  0.4758  0.3087 -2.3108
  184MOL0     H24809   5.439   2.376   8.330  1.7228  0.7251  0.5949
  184MOL0     H24810   5.357   2.381   8.041 -2.6247  0.7552 -0.2476
  184MOL0     H24811   5.459   2.504   8.118 -0.2753 -0.4609 -1.3024
  184MOL0     H24812   5.209   2.435   8.262 -0.1963  2.7879  1.4450
  184MOL0     H24813   5.298   2.574   8.268 -1.3547  1.0299 -0.0704
  184MOL0     H24814   5.222   2.617   8.021  0.2823  0.4809  0.1536
  184MOL0     H24815   5.097   2.633   8.146  1.5545  2.0233 -0.3636
  184MOL0     H24816   5.119   2.378   7.973  1.4617  1.3254  0.8518
  184MOL0     H24817   5.043   2.384   8.125  2.2240 -1.2607  0.6871
  184MOL0     H24818   4.921   2.446   7.891  0.9791 -0.3481 -0.7073
  184MOL0     H24819   4.996   2.603   7.910 -0.6938 -0.0082 -0.4260
  184MOL0     H24820   4.873   2.658   8.104  2.7970 -0.2997  1.3822
  184MOL0     H24821   4.827   2.486   8.132  0.4430 -1.9898 -2.1217
  184MOL0     H24822   5.851   2.254   8.197 -0.2819  0.8434 -0.2157
  184MOL0     H24823   6.058   2.188   8.078 -1.2817  4.2711  2.1489
  184MOL0     H24824   6.167   1.993   7.599  0.0070 -1.0114 -0.8955
  184MOL0     H24825   6.332   1.903   7.451 -0.7054  0.5708 -0.4140
  184MOL0     H24826   8.521   2.342   7.163 -2.0712 -2.0344 -0.1283
  184MOL0     H24827   8.755   2.313   7.250  1.6723 -1.9719  0.9553
  184MOL0     H24828   9.206   2.253   7.426  3.8656 -1.6934  0.0399
  184MOL0     H24829   9.368   2.182   7.556 -0.2463 -3.6174 -2.1132
  184MOL0     H24830   9.422   1.947   7.689 -1.9056  3.1031 -2.3293
  184MOL0     H24831   9.512   2.096   7.725 -4.2638  2.7176  1.1191
  184MOL0     H24832   9.462   1.860   7.920  0.4067 -1.2091 -1.3998
  184MOL0     H24833   9.577   1.986   7.964  0.7561 -2.2247  0.1256
  184MOL0     H24834   9.707   1.940   7.751  1.9855 -2.1424  0.7611
  184MOL0     H24835   9.609   1.790   7.748 -2.4114 -0.2413  0.8784
  184MOL0     H24836   9.685   1.706   7.965  0.9349  0.3942  2.0379
  184MOL0     H24837   9.768   1.861   7.998 -1.9793  0.3032  1.1131
  184MOL0     H24838  10.021   1.607   7.757  1.8811  3.1197 -2.0688
  184MOL0     H24839   9.075   2.073   7.870  2.8000 -0.9541  1.1401
  184MOL0     H24840   8.891   2.153   7.718  0.2948  1.9203 -0.8711
  185MOL0     O24841  10.599   1.868  10.950  0.0737  0.4378  0.5845
  185MOL0     C24842  10.577   1.745  10.949  0.1003  0.2365  0.6515
  185MOL0     O24843  10.449   1.679  10.926 -0.3907  0.4472  0.0306
  185MOL0     C24844  10.349   1.751  10.864  0.8638 -0.1215  0.4530
  185MOL0     C24845  10.359   1.838  10.754 -0.7158  0.1648 -0.0684
  185MOL0     C24846  10.242   1.886  10.689  0.0917  0.5010  0.2091
  185MOL0     C24847  10.113   1.862  10.733 -1.1434 -0.0502  0.2618
  185MOL0     O24848  10.008   1.908  10.660 -0.3002  0.4138  0.1127
  185MOL0     C24849   9.882   1.834  10.653  1.0220 -0.0110 -0.0696
  185MOL0     C24850   9.766   1.934  10.631  0.1924 -0.0758  0.1731
  185MOL0     C24851   9.729   2.002  10.754 -1.0600  0.1063 -0.5574
  185MOL0     C24852   9.606   2.099  10.738  0.3221  0.6191 -0.5493
  185MOL0     C24853   9.584   2.169  10.877 -0.2504 -0.0864  0.4838
  185MOL0     C24854   9.467   2.269  10.872  0.3501 -0.0871  1.2107
  185MOL0     C24855   9.475   2.378  10.759  0.0082 -0.3997 -0.3614
  185MOL0     C24856   9.413   2.516  10.794 -0.6497  0.3942 -0.0114
  185MOL0     N24857   9.274   2.498  10.829 -0.3470 -0.1236  0.4524
  185MOL0     C24858   9.174   2.444  10.756  0.5347  0.4986  0.1740
  185MOL0     C24859   9.060   2.455  10.824 -0.1412  1.2731  1.0105
  185MOL0     C24860   8.924   2.417  10.775 -0.0586  0.1644 -0.0795
  185MOL0     C24861   8.822   2.497  10.857  0.0209 -0.5260 -0.0854
  185MOL0     C24862   8.816   2.643  10.807 -0.3007 -0.4356  0.1810
  185MOL0     C24863   8.673   2.691  10.810  1.3377 -0.8165 -0.3841
  185MOL0     O24864   8.614   2.673  10.937 -0.0430 -0.5525  0.3992
  185MOL0     C24865   8.504   2.739  10.973  0.0507  0.4186 -0.9378
  185MOL0     C24866   8.435   2.835  10.893 -0.6440 -0.2186 -0.4050
  185MOL0     C24867   8.326   2.901  10.949  0.6297 -0.7304  0.6866
  185MOL0     C24868   8.253   2.992  10.851  0.0911 -0.7735  0.4617
  185MOL0     C24869   8.271   2.860  11.071 -0.4161  0.2486 -0.2476
  185MOL0     C24870   8.145   2.908  11.128 -0.2390 -0.0338 -1.4854
  185MOL0     O24871   8.091   2.834  11.227 -0.3156 -0.1308 -0.2345
  185MOL0     C24872   8.000   2.895  11.310 -0.5922 -0.4259  0.1297
  185MOL0     C24873   7.859   2.875  11.308  0.0686 -0.4223 -0.3617
  185MOL0     C24874   7.789   2.932  11.414 -0.0357 -0.2752 -0.7173
  185MOL0     C24875   7.848   3.013  11.517 -0.0817 -0.3403  0.2848
  185MOL0     O24876   7.788   3.083  11.612 -0.1564 -0.6485 -0.7563
  185MOL0     C24877   7.654   3.109  11.606 -0.5433 -0.5548 -0.2778
  185MOL0     C24878   7.609   3.178  11.730 -0.1383  0.2274  0.0073
  185MOL0     C24879   7.607   3.088  11.858 -0.2172 -0.0645 -0.8491
  185MOL0     C24880   7.575   3.171  11.980 -0.3279  0.2247  0.1039
  185MOL0     C24881   7.577   3.082  12.108  0.6752  0.0061  0.3380
  185MOL0     C24882   7.537   3.167  12.224 -0.1978  0.3721 -0.8511
  185MOL0     C24883   7.576   3.101  12.349  0.0467 -0.0521 -0.5631
  185MOL0     C24884   7.549   3.182  12.473 -0.8818  0.5215  0.6434
  185MOL0    Cl24885   7.376   3.220  12.491 -0.0303 -0.1036  0.0689
  185MOL0     C24886   7.985   3.020  11.514 -0.5950 -0.3054  0.3951
  185MOL0     C24887   8.062   2.968  11.409  0.1156 -0.4526 -0.0137
  185MOL0     O24888   8.091   3.008  11.078 -0.0060  0.0634  0.3575
  185MOL0     C24889   8.344   2.769  11.151 -0.4107 -0.0539  0.0127
  185MOL0     C24890   8.462   2.716  11.102 -0.3077 -0.6911  0.4919
  185MOL0     N24891   9.098   2.500  10.953 -0.3119  0.8710  1.2773
  185MOL0     N24892   9.231   2.522  10.958  0.3854  0.0073  0.3714
  185MOL0     C24893  10.103   1.787  10.852 -0.1023 -0.2376  0.1313
  185MOL0     C24894  10.217   1.719  10.907  0.3069  0.4706  0.5233
  185MOL0     C24895  10.686   1.647  10.976  0.1100 -0.2768  0.5934
  185MOL0     C24896  10.820   1.689  10.989  0.4208  1.2129  0.8097
  185MOL0     C24897  10.920   1.601  11.026  0.0190 -0.7123 -0.5373
  185MOL0     C24898  10.899   1.464  11.043  0.4920 -0.6164  0.3082
  185MOL0     O24899  10.983   1.369  11.098 -0.2223 -0.3039  0.3071
  185MOL0     C24900  11.119   1.409  11.134 -0.4446  0.2222 -0.8832
  185MOL0     C24901  11.181   1.306  11.226 -0.3838  0.1440  0.4072
  185MOL0     C24902  11.111   1.288  11.356  0.0089 -0.7254  0.5148
  185MOL0     C24903  11.193   1.230  11.468  0.3818 -0.1009 -0.2295
  185MOL0     C24904  11.291   1.332  11.509 -0.4436  0.6605  0.5341
  185MOL0     C24905  11.376   1.416  11.524 -0.9734  1.0028 -0.0273
  185MOL0     C24906  10.774   1.415  11.011  0.2376 -0.7317  0.0965
  185MOL0     C24907  10.664   1.505  10.992  0.3365 -0.3532 -0.1510
  185MOL0     H24908  10.456   1.849  10.706 -0.6486  0.5452  0.1530
  185MOL0     H24909  10.259   1.957  10.608  0.0691  1.3248  0.9122
  185MOL0     H24910   9.884   1.772  10.563  0.8871 -2.5742  1.5801
  185MOL0     H24911   9.855   1.783  10.746 -2.3868 -0.1020 -0.9705
  185MOL0     H24912   9.797   2.013  10.562 -2.2238  0.8948  0.1140
  185MOL0     H24913   9.677   1.891  10.584  0.3079 -1.5013  1.1922
  185MOL0     H24914   9.730   1.933  10.839  2.7920 -1.4925 -1.6672
  185MOL0     H24915   9.818   2.059  10.784  1.0299 -2.5357 -1.3267
  185MOL0     H24916   9.618   2.171  10.657  0.9787  1.3884  0.2064
  185MOL0     H24917   9.517   2.046  10.703  1.0779 -0.1813 -1.3251
  185MOL0     H24918   9.564   2.102  10.961 -1.6873  1.2792  1.2933
  185MOL0     H24919   9.674   2.230  10.894 -1.1678  1.7917 -0.9027
  185MOL0     H24920   9.367   2.228  10.856 -0.3156  2.0338 -0.5367
  185MOL0     H24921   9.472   2.312  10.972 -2.6146  2.0382  0.5560
  185MOL0     H24922   9.577   2.404  10.728 -0.2313 -0.4640 -1.2184
  185MOL0     H24923   9.414   2.348  10.674 -2.5579  0.5587  1.0250
  185MOL0     H24924   9.428   2.579  10.706 -0.3024  1.4053  0.7507
  185MOL0     H24925   9.457   2.564  10.882 -1.4238 -1.7404  1.6041
  185MOL0     H24926   9.176   2.401  10.656 -0.5232  1.6257 -0.3576
  185MOL0     H24927   8.905   2.441  10.670  1.9692 -2.6542 -1.1965
  185MOL0     H24928   8.897   2.312  10.783 -1.7072  0.4557 -1.4126
  185MOL0     H24929   8.838   2.498  10.965 -2.2089  1.8187  0.3090
  185MOL0     H24930   8.723   2.452  10.842 -0.5174  0.7601 -0.4867
  185MOL0     H24931   8.860   2.660  10.708 -1.7923  0.3909 -0.3879
  185MOL0     H24932   8.871   2.707  10.877  0.5688 -1.7040  0.6847
  185MOL0     H24933   8.621   2.625  10.740 -0.9839  0.9198 -0.4154
  185MOL0     H24934   8.665   2.791  10.766  2.1755 -0.5053  0.1609
  185MOL0     H24935   8.478   2.857  10.796 -3.8814 -0.4658 -2.0344
  185MOL0     H24936   8.231   3.092  10.889  1.7490 -0.6666  1.2287
  185MOL0     H24937   8.312   3.006  10.759 -0.0111 -0.0031  0.5076
  185MOL0     H24938   8.163   2.936  10.823  0.2272 -1.6664  1.7278
  185MOL0     H24939   7.813   2.813  11.232 -1.0948 -0.5880  0.4628
  185MOL0     H24940   7.681   2.920  11.404 -0.2882  1.5113 -0.4261
  185MOL0     H24941   7.630   3.171  11.519 -0.8425 -0.2822 -0.0040
  185MOL0     H24942   7.601   3.013  11.601 -0.5114 -0.7913  2.4635
  185MOL0     H24943   7.675   3.265  11.740 -1.6038  1.5706 -1.4473
  185MOL0     H24944   7.513   3.226  11.710  1.0961  2.9347  0.0757
  185MOL0     H24945   7.702   3.037  11.878 -2.2434 -2.9317  2.6319
  185MOL0     H24946   7.526   3.019  11.834  0.2401 -0.2274 -1.9630
  185MOL0     H24947   7.658   3.241  11.996  0.7529 -0.9679 -0.1042
  185MOL0     H24948   7.479   3.220  11.967  1.8124  4.3081 -2.3840
  185MOL0     H24949   7.669   3.024  12.123  0.3851 -0.2455  1.2674
  185MOL0     H24950   7.498   3.006  12.101  1.3156 -0.5403 -1.7054
  185MOL0     H24951   7.587   3.263  12.213 -0.8508  0.4486 -4.0849
  185MOL0     H24952   7.431   3.194  12.219 -0.2308  0.8590  1.2478
  185MOL0     H24953   7.684   3.080  12.347 -0.2069 -1.5284  0.0496
  185MOL0     H24954   7.519   3.008  12.356 -1.2150  0.7680  0.4320
  185MOL0     H24955   7.598   3.280  12.470 -1.4721  0.8110  0.1520
  185MOL0     H24956   7.589   3.132  12.561  1.3806  2.7640  1.0370
  185MOL0     H24957   8.050   3.071  11.585 -0.1195  1.9363 -1.5406
  185MOL0     H24958   8.170   2.979  11.401  0.2804 -1.6597  0.3030
  185MOL0     H24959   8.318   2.748  11.255  0.8079  0.6034  0.4778
  185MOL0     H24960   8.526   2.656  11.166 -1.0308  0.9527  2.8745
  185MOL0     H24961  10.009   1.755  10.895  0.3722  2.3639  3.4989
  185MOL0     H24962  10.208   1.648  10.988 -2.3668 -1.7199 -1.5124
  185MOL0     H24963  10.845   1.786  10.948 -2.3414  2.1480  1.1450
  185MOL0     H24964  11.017   1.649  11.029 -1.2460  2.0570 -0.9410
  185MOL0     H24965  11.179   1.411  11.042 -1.7087 -2.5942 -1.9047
  185MOL0     H24966  11.126   1.505  11.184 -0.9128  0.6478 -1.6183
  185MOL0     H24967  11.285   1.338  11.239  0.2417 -1.2655 -0.8391
  185MOL0     H24968  11.179   1.205  11.183  0.1508 -0.2942  1.3916
  185MOL0     H24969  11.025   1.222  11.343  2.6295 -4.4115  0.2010
  185MOL0     H24970  11.064   1.383  11.383 -0.8930 -0.6663 -1.1018
  185MOL0     H24971  11.235   1.134  11.437 -1.2497 -2.0151  2.9582
  185MOL0     H24972  11.116   1.214  11.545  0.1759  3.0523  0.3586
  185MOL0     H24973  11.456   1.487  11.518  0.9775 -1.1038 -0.2463
  185MOL0     H24974  10.759   1.309  11.030  0.3409 -1.4465 -3.1386
  185MOL0     H24975  10.563   1.465  10.993  0.6056 -1.2046  2.5691
  186MOL0     O24976  10.262   3.110   1.091  0.4392 -0.0988 -0.3004
  186MOL0     C24977  10.313   3.184   1.008  0.7435  0.6814  0.1629
  186MOL0     O24978  10.266   3.303   0.956 -0.2830 -0.0434  0.1797
  186MOL0     C24979  10.139   3.351   0.997 -0.6322  0.2147 -0.1484
  186MOL0     C24980  10.052   3.304   1.097 -0.4611 -0.4996  0.3417
  186MOL0     C24981   9.934   3.378   1.132 -0.7839 -0.4464 -0.4867
  186MOL0     C24982   9.909   3.503   1.072  0.9316 -0.1418  0.0574
  186MOL0     O24983   9.793   3.563   1.108  0.7569  0.2525  0.3512
  186MOL0     C24984   9.742   3.683   1.056  0.3720 -0.2125 -0.8521
  186MOL0     C24985   9.594   3.691   1.094  0.3978 -0.3637 -0.2559
  186MOL0     C24986   9.513   3.820   1.047  0.5516 -0.6979 -0.8237
  186MOL0     C24987   9.365   3.799   1.063 -0.5341  0.0426 -0.1684
  186MOL0     C24988   9.297   3.922   1.002 -0.6257 -0.2637  0.1549
  186MOL0     C24989   9.157   3.910   1.001  0.3218 -0.1163 -0.4936
  186MOL0     C24990   9.090   4.051   0.983 -1.0034  0.4139 -0.0024
  186MOL0     C24991   8.941   4.031   1.011  0.5858 -0.3588 -0.2028
  186MOL0     N24992   8.852   4.131   0.955  0.3053 -0.0492 -0.1556
  186MOL0     C24993   8.736   4.110   0.887  0.7263 -0.8132 -0.2158
  186MOL0     C24994   8.671   4.228   0.894 -0.0596  0.8280 -0.0272
  186MOL0     C24995   8.535   4.258   0.839  0.0061  0.3681  0.4255
  186MOL0     C24996   8.453   4.347   0.936  0.9927 -0.3039 -0.1677
  186MOL0     C24997   8.403   4.276   1.066  0.4505 -0.9333 -0.0685
  186MOL0     C24998   8.254   4.238   1.051 -0.7145 -0.1689  0.1158
  186MOL0     O24999   8.249   4.125   0.957  0.2398  0.4109 -0.1338
  186MOL0     C25000   8.127   4.079   0.922  0.1973 -0.0477 -0.6009
  186MOL0     C25001   8.131   3.990   0.811  0.7268 -0.3157  0.3859
  186MOL0     C25002   8.020   3.941   0.739  0.4502  0.4974 -0.2893
  186MOL0     C25003   8.043   3.858   0.612 -0.2392  0.6598  0.6724
  186MOL0     C25004   7.894   3.955   0.794  0.4548 -0.4720 -0.1777
  186MOL0     C25005   7.777   3.908   0.724 -0.1975  0.6392 -0.0421
  186MOL0     O25006   7.677   3.880   0.807 -0.0796 -0.1074 -0.7651
  186MOL0     C25007   7.552   3.868   0.757  0.2135  0.2198  0.2544
  186MOL0     C25008   7.475   3.769   0.822  0.3568  0.3610  0.0386
  186MOL0     C25009   7.336   3.757   0.784 -0.5101  0.6181  0.4418
  186MOL0     C25010   7.278   3.841   0.690 -0.0228  0.4265 -0.4696
  186MOL0     O25011   7.148   3.832   0.649  0.0099 -0.3549 -0.0678
  186MOL0     C25012   7.059   3.910   0.721 -1.0115  0.6375 -0.3793
  186MOL0     C25013   6.926   3.852   0.685  1.0135  0.0343  0.0937
  186MOL0     C25014   6.824   3.940   0.756  0.4110 -0.3185  0.7699
  186MOL0     C25015   6.688   3.869   0.739  0.8392 -0.1376 -0.2154
  186MOL0     C25016   6.579   3.952   0.811  0.5923  0.0503  0.2522
  186MOL0     C25017   6.555   3.895   0.953  0.0695  0.1552  0.7792
  186MOL0     C25018   6.450   3.963   1.035 -0.1099 -0.2707  0.6768
  186MOL0     C25019   6.311   3.973   0.971  0.2385 -0.2851  0.3182
  186MOL0    Cl25020   6.201   4.094   1.043  0.3206  0.1509 -0.4219
  186MOL0     C25021   7.359   3.947   0.632  0.2603 -0.5281  0.6266
  186MOL0     C25022   7.495   3.961   0.664  0.0281  1.4342  0.4356
  186MOL0     O25023   7.760   3.932   0.603  0.4989  0.7006  0.3029
  186MOL0     C25024   7.878   4.034   0.905  0.6895 -0.2581  0.4925
  186MOL0     C25025   7.997   4.094   0.971  0.5261 -0.2970 -0.5161
  186MOL0     N25026   8.758   4.317   0.958 -0.0393 -0.7455  0.2186
  186MOL0     N25027   8.862   4.254   0.998 -0.0552 -0.0239  0.4977
  186MOL0     C25028   9.990   3.543   0.972 -0.5916  0.0260 -0.1979
  186MOL0     C25029  10.111   3.477   0.943  0.7552  0.5625  0.6014
  186MOL0     C25030  10.443   3.146   0.946  1.1239 -0.0041 -0.6054
  186MOL0     C25031  10.485   3.012   0.949 -0.4357  0.1402 -0.6619
  186MOL0     C25032  10.589   2.958   0.881 -0.7919 -0.5561  0.2698
  186MOL0     C25033  10.661   3.043   0.795  0.3309 -0.0122  0.2605
  186MOL0     O25034  10.766   3.005   0.715  0.2529 -0.0903 -0.3917
  186MOL0     C25035  10.825   2.880   0.736  0.7467 -0.0398 -0.7950
  186MOL0     C25036  10.931   2.860   0.626 -0.1991 -0.0525  0.5376
  186MOL0     C25037  11.072   2.894   0.673  0.6917 -0.0861  0.4951
  186MOL0     C25038  11.135   2.769   0.733 -0.5135  0.2903  0.4266
  186MOL0     C25039  11.275   2.792   0.765  0.4216 -0.4701 -0.3210
  186MOL0     C25040  11.389   2.828   0.781  0.9905  0.2399  0.7748
  186MOL0     C25041  10.610   3.172   0.769  0.8661  0.4094  0.4041
  186MOL0     C25042  10.501   3.222   0.845  0.0778 -0.2096  0.1072
  186MOL0     H25043  10.070   3.214   1.155 -1.7950 -0.8690  0.2289
  186MOL0     H25044   9.865   3.341   1.207 -0.9846  0.3713 -0.2568
  186MOL0     H25045   9.778   3.776   1.102 -1.1635 -0.7380  1.5716
  186MOL0     H25046   9.763   3.681   0.949  0.5878 -1.6121 -0.8021
  186MOL0     H25047   9.540   3.604   1.055  0.9654 -2.0299  2.4440
  186MOL0     H25048   9.575   3.678   1.201  1.9907 -0.0706  0.0782
  186MOL0     H25049   9.549   3.904   1.107 -0.2797 -0.6828 -0.3294
  186MOL0     H25050   9.538   3.837   0.942  2.3285 -0.3407 -0.3859
  186MOL0     H25051   9.318   3.707   1.026  1.7830 -0.8821 -0.9495
  186MOL0     H25052   9.366   3.792   1.172  1.3883  3.5714  0.1569
  186MOL0     H25053   9.332   4.011   1.055  3.0703 -0.6676 -1.3026
  186MOL0     H25054   9.338   3.934   0.901  2.8872 -0.3066  1.4229
  186MOL0     H25055   9.134   3.846   0.915  0.1017 -2.0694  0.9449
  186MOL0     H25056   9.122   3.859   1.091  0.7088 -1.1596 -0.9256
  186MOL0     H25057   9.134   4.120   1.055 -1.0458 -0.6670  1.0800
  186MOL0     H25058   9.119   4.085   0.882 -0.7295  3.0942  0.8967
  186MOL0     H25059   8.923   4.022   1.118 -3.5042  0.8718 -0.6181
  186MOL0     H25060   8.910   3.937   0.963 -0.8143  0.6389 -1.3427
  186MOL0     H25061   8.699   4.022   0.837 -0.7151  0.5619 -1.7060
  186MOL0     H25062   8.546   4.307   0.742  1.6626 -3.6842 -1.6574
  186MOL0     H25063   8.478   4.166   0.829  1.0452 -0.3901  1.2227
  186MOL0     H25064   8.374   4.396   0.880  0.0553 -1.2396  0.2945
  186MOL0     H25065   8.506   4.438   0.966 -0.9376  0.3238  1.5679
  186MOL0     H25066   8.398   4.344   1.151 -3.9910  0.6110 -1.3040
  186MOL0     H25067   8.463   4.188   1.092 -0.1051 -0.6390  2.4170
  186MOL0     H25068   8.194   4.322   1.014 -1.8783 -0.9466  0.1704
  186MOL0     H25069   8.208   4.206   1.145 -0.0609  0.9901  0.8422
  186MOL0     H25070   8.230   3.969   0.772  0.2311 -2.5699  0.1958
  186MOL0     H25071   8.004   3.906   0.521 -0.0346  0.9553  0.7391
  186MOL0     H25072   8.149   3.861   0.584 -0.3141  0.4487  0.3547
  186MOL0     H25073   8.014   3.753   0.617 -0.0745  0.5701 -0.1230
  186MOL0     H25074   7.514   3.695   0.890  1.5551 -0.8220 -1.8574
  186MOL0     H25075   7.270   3.675   0.811 -0.5589  0.2239 -0.8212
  186MOL0     H25076   7.083   3.918   0.827 -1.8073  0.1413 -0.1503
  186MOL0     H25077   7.064   4.015   0.692  1.5151  0.6652 -0.0613
  186MOL0     H25078   6.900   3.861   0.579 -0.4624  1.2003  0.5135
  186MOL0     H25079   6.909   3.750   0.720 -0.2625  0.0654 -0.3705
  186MOL0     H25080   6.809   4.040   0.713 -2.4132  0.0247  2.3189
  186MOL0     H25081   6.840   3.946   0.864  0.4201 -3.5212  1.0304
  186MOL0     H25082   6.661   3.857   0.633  2.7698  2.7547 -1.1994
  186MOL0     H25083   6.687   3.768   0.779 -1.3234 -0.8352 -1.8458
  186MOL0     H25084   6.491   3.916   0.757  1.2262  1.1078 -1.5778
  186MOL0     H25085   6.594   4.060   0.800  0.3067  0.2068  1.2841
  186MOL0     H25086   6.530   3.788   0.948  2.5962 -0.4433 -1.1504
  186MOL0     H25087   6.645   3.900   1.016 -0.0058 -0.4880  0.9470
  186MOL0     H25088   6.484   4.062   1.065  2.0541  0.8581 -4.3469
  186MOL0     H25089   6.438   3.900   1.123 -2.9572  1.9863  2.0670
  186MOL0     H25090   6.260   3.877   0.966  0.3934 -0.3183 -1.0924
  186MOL0     H25091   6.321   4.010   0.868  1.8218  0.7656  0.8206
  186MOL0     H25092   7.313   4.015   0.562  0.6671 -3.4220 -2.7316
  186MOL0     H25093   7.542   4.049   0.621 -0.1632  1.6462  0.6541
  186MOL0     H25094   7.784   4.060   0.953  0.1934  0.3676 -0.7764
  186MOL0     H25095   7.981   4.157   1.058  2.7312  1.0705 -1.0358
  186MOL0     H25096   9.982   3.634   0.913  0.3857 -0.2094 -0.7080
  186MOL0     H25097  10.175   3.531   0.874 -1.4744  4.5979  1.3766
  186MOL0     H25098  10.430   2.945   1.015  0.8159  0.1785  0.4715
  186MOL0     H25099  10.620   2.854   0.880  0.8435 -0.1354 -1.9920
  186MOL0     H25100  10.874   2.871   0.834  1.1544  1.5577 -0.8112
  186MOL0     H25101  10.756   2.797   0.718  1.0776 -0.0660 -2.0211
  186MOL0     H25102  10.909   2.923   0.540  0.1685 -0.5251  0.0914
  186MOL0     H25103  10.928   2.756   0.592  0.7060 -1.0489  3.2490
  186MOL0     H25104  11.074   2.983   0.736  0.9095  0.5495 -0.3954
  186MOL0     H25105  11.142   2.919   0.593  0.4509  3.3042  1.1965
  186MOL0     H25106  11.125   2.689   0.660 -2.1192  2.3356 -1.7392
  186MOL0     H25107  11.095   2.745   0.832 -3.9305  2.2236 -0.3274
  186MOL0     H25108  11.492   2.855   0.770  1.1728 -0.5389  0.5005
  186MOL0     H25109  10.659   3.216   0.683  0.8364 -0.8863 -0.3012
  186MOL0     H25110  10.459   3.319   0.819 -0.2823 -0.8934 -2.0873
  187MOL0     O25111   0.370   1.790  10.649 -0.0695 -0.2196  0.2248
  187MOL0     C25112   0.359   1.669  10.650 -0.1623  0.2075  0.2660
  187MOL0     O25113   0.248   1.605  10.675  0.0484 -0.4264 -0.1064
  187MOL0     C25114   0.121   1.660  10.691 -0.3730 -0.0394 -0.2040
  187MOL0     C25115   0.032   1.568  10.752 -0.1715 -0.8498  0.7763
  187MOL0     C25116  -0.105   1.602  10.759 -0.5324 -1.6248 -0.2909
  187MOL0     C25117  -0.158   1.725  10.721  0.5953  0.5743 -0.6190
  187MOL0     O25118  -0.288   1.762  10.740  0.1126  0.5605 -0.2056
  187MOL0     C25119  -0.385   1.695  10.660  0.0943  0.2231 -0.4446
  187MOL0     C25120  -0.472   1.806  10.597  0.6700 -0.1573 -1.0012
  187MOL0     C25121  -0.573   1.761  10.497  0.5300 -0.4732  0.1136
  187MOL0     C25122  -0.679   1.664  10.558  0.8857  1.1242 -0.9440
  187MOL0     C25123  -0.790   1.645  10.457 -0.1386  0.3745 -0.0431
  187MOL0     C25124  -0.881   1.533  10.512 -0.0021 -0.0855  1.7749
  187MOL0     C25125  -1.013   1.531  10.429 -0.2800 -0.7352 -0.1011
  187MOL0     C25126  -1.113   1.640  10.449 -0.8462 -0.3763 -0.7656
  187MOL0     N25127  -1.212   1.645  10.340  0.2363 -0.0399 -0.3103
  187MOL0     C25128  -1.180   1.640  10.206  0.3204 -0.2120  0.3280
  187MOL0     C25129  -1.299   1.650  10.139  0.7843 -1.2976  0.2079
  187MOL0     C25130  -1.320   1.654   9.994  0.3220  0.1553  0.4581
  187MOL0     C25131  -1.453   1.707   9.937  0.0462  0.1524  0.1677
  187MOL0     C25132  -1.435   1.747   9.787  0.0752 -0.1849 -0.4305
  187MOL0     C25133  -1.554   1.825   9.723  0.4116  0.5978  0.0379
  187MOL0     O25134  -1.681   1.753   9.728 -0.2731 -0.1335  0.3499
  187MOL0     C25135  -1.794   1.823   9.739 -0.0528  0.3245 -0.6278
  187MOL0     C25136  -1.830   1.944   9.679  0.2271  0.2426 -0.4505
  187MOL0     C25137  -1.955   2.006   9.701  0.5919 -0.4233 -0.7699
  187MOL0     C25138  -1.980   2.137   9.637  0.0746  0.3926 -0.3318
  187MOL0     C25139  -2.050   1.940   9.787  0.6699  0.0556  0.5953
  187MOL0     C25140  -2.185   1.992   9.832  0.4515 -1.5738 -0.3352
  187MOL0     O25141  -2.255   1.928   9.929 -0.0219 -0.3479  0.1492
  187MOL0     C25142  -2.368   1.978   9.988 -1.2746 -0.3989  0.3157
  187MOL0     C25143  -2.452   1.883  10.049 -0.2944  0.0066 -0.4154
  187MOL0     C25144  -2.567   1.917  10.119 -0.4131  0.1780 -0.3401
  187MOL0     C25145  -2.601   2.047  10.137 -0.2084 -0.4918 -0.0072
  187MOL0     O25146  -2.715   2.101  10.210 -0.0310 -0.0443  0.8567
  187MOL0     C25147  -2.790   2.009  10.290  0.0201 -0.2391 -0.2521
  187MOL0     C25148  -2.905   2.085  10.358 -0.0764  0.1503 -0.3961
  187MOL0     C25149  -2.992   1.994  10.450 -0.3555 -0.2054 -0.2520
  187MOL0     C25150  -3.089   2.072  10.549 -0.2054  0.5943 -0.3016
  187MOL0     C25151  -3.199   1.984  10.600  0.1264 -0.3149  0.1323
  187MOL0     C25152  -3.301   2.063  10.692  0.5089 -0.1586  1.4393
  187MOL0     C25153  -3.243   2.185  10.781  0.3761 -0.6875  0.9559
  187MOL0     C25154  -3.356   2.223  10.880 -0.3774  0.8100  0.1309
  187MOL0    Cl25155  -3.508   2.296  10.797 -0.1959  0.1454  0.0694
  187MOL0     C25156  -2.515   2.148  10.082 -0.5340 -0.0803  0.0031
  187MOL0     C25157  -2.400   2.116  10.008  0.0178 -0.0829 -0.6171
  187MOL0     O25158  -2.220   2.105   9.784  0.1611  0.1794  0.2902
  187MOL0     C25159  -2.004   1.826   9.852 -0.5447  0.4517 -0.6976
  187MOL0     C25160  -1.885   1.761   9.821  0.5350 -0.2847 -0.0521
  187MOL0     N25161  -1.401   1.666  10.235 -0.2693  0.5983 -0.4888
  187MOL0     N25162  -1.351   1.665  10.354 -0.1318 -0.3923  0.2184
  187MOL0     C25163  -0.072   1.814  10.659 -0.4245 -0.2524 -0.3512
  187MOL0     C25164   0.071   1.786  10.653  0.3659  0.2432  0.5602
  187MOL0     C25165   0.485   1.592  10.633 -0.8923  0.0093  0.4930
  187MOL0     C25166   0.481   1.451  10.654 -0.1171 -1.0391  0.0173
  187MOL0     C25167   0.605   1.382  10.641 -0.0470 -0.1612 -0.3227
  187MOL0     C25168   0.726   1.446  10.611  1.1057  0.2160  0.2946
  187MOL0     O25169   0.842   1.375  10.581 -0.8847 -0.0995  0.0928
  187MOL0     C25170   0.850   1.243  10.623  0.4151  0.9050  0.5157
  187MOL0     C25171   0.989   1.179  10.590 -0.0293  0.1630 -0.7559
  187MOL0     C25172   1.118   1.267  10.619  0.6114 -0.8826 -0.1929
  187MOL0     C25173   1.241   1.198  10.568  0.4950  0.6447 -0.0887
  187MOL0     C25174   1.354   1.278  10.543 -0.1655 -0.0334  0.9641
  187MOL0     C25175   1.446   1.355  10.528  0.1410 -1.3058  0.1515
  187MOL0     C25176   0.728   1.584  10.599  0.0216  0.0800 -1.4663
  187MOL0     C25177   0.610   1.658  10.629  0.1691 -0.1205  0.2580
  187MOL0     H25178   0.083   1.473  10.769 -0.3729 -1.1411 -0.1909
  187MOL0     H25179  -0.174   1.532  10.805 -0.9213 -2.0883 -1.5455
  187MOL0     H25180  -0.330   1.643  10.581  0.1795  0.8214 -0.7834
  187MOL0     H25181  -0.439   1.626  10.725  0.3902  3.5965  3.8343
  187MOL0     H25182  -0.522   1.860  10.677 -0.9841 -3.0801  0.0956
  187MOL0     H25183  -0.395   1.863  10.544  0.2015 -0.4919 -2.0629
  187MOL0     H25184  -0.622   1.856  10.471  3.7779  1.7648  1.4568
  187MOL0     H25185  -0.535   1.735  10.398  0.9394  5.0130 -1.5445
  187MOL0     H25186  -0.625   1.574  10.588  3.6222  2.5194 -1.3291
  187MOL0     H25187  -0.718   1.702  10.652  0.2257 -3.6214  0.9696
  187MOL0     H25188  -0.843   1.740  10.447  1.7511  1.6017  0.9890
  187MOL0     H25189  -0.746   1.623  10.359 -0.5779  3.3717 -0.9984
  187MOL0     H25190  -0.835   1.435  10.494  1.4599  0.3985  2.6776
  187MOL0     H25191  -0.920   1.538  10.614 -2.0658 -3.6659  1.3311
  187MOL0     H25192  -0.985   1.526  10.323  2.9544  1.6280  0.4848
  187MOL0     H25193  -1.059   1.435  10.450  0.4775 -0.8053  1.3453
  187MOL0     H25194  -1.065   1.738  10.446 -5.1295  1.9507 -3.0759
  187MOL0     H25195  -1.157   1.631  10.549  0.2280  0.3211 -0.2118
  187MOL0     H25196  -1.088   1.642  10.148  0.6505 -1.7970  0.7335
  187MOL0     H25197  -1.234   1.713   9.960  1.2930 -1.7142 -0.5014
  187MOL0     H25198  -1.312   1.558   9.942 -0.0375  1.4762 -2.2175
  187MOL0     H25199  -1.470   1.805   9.982 -2.3818 -0.5574  0.9828
  187MOL0     H25200  -1.536   1.637   9.953  0.5624 -0.5907 -0.3027
  187MOL0     H25201  -1.405   1.657   9.733  0.2563 -1.1344  1.1783
  187MOL0     H25202  -1.353   1.819   9.782 -0.9159  1.3113  2.5489
  187MOL0     H25203  -1.541   1.837   9.615  0.0286  0.9579  0.0332
  187MOL0     H25204  -1.566   1.922   9.772 -2.4582 -0.1547  1.0237
  187MOL0     H25205  -1.759   1.994   9.615  2.7129 -1.3011  0.9315
  187MOL0     H25206  -2.058   2.133   9.560  0.7110  2.3563 -1.1517
  187MOL0     H25207  -2.001   2.210   9.715  2.6929  1.3965 -0.4553
  187MOL0     H25208  -1.884   2.163   9.592 -0.1059  0.3024 -0.7795
  187MOL0     H25209  -2.415   1.781  10.042  0.4969  0.1370  1.2555
  187MOL0     H25210  -2.636   1.843  10.159  2.0790 -2.0511  0.1350
  187MOL0     H25211  -2.827   1.924  10.232  0.6671 -2.0696  1.8694
  187MOL0     H25212  -2.730   1.960  10.368 -2.8594 -1.6251  1.2654
  187MOL0     H25213  -2.884   2.186  10.395 -3.0132  2.1171 -3.4209
  187MOL0     H25214  -2.979   2.105  10.279 -0.2085 -0.8239 -0.5321
  187MOL0     H25215  -2.925   1.944  10.521  0.9439  4.2147  1.9834
  187MOL0     H25216  -3.048   1.922  10.389 -1.9867  1.3083 -0.6184
  187MOL0     H25217  -3.032   2.120  10.629 -1.6998  1.4342  0.3007
  187MOL0     H25218  -3.140   2.154  10.497 -1.9165 -0.3424 -0.1683
  187MOL0     H25219  -3.157   1.899  10.653  0.8846 -1.0320 -1.5343
  187MOL0     H25220  -3.257   1.946  10.515 -1.2940  0.3106  0.7926
  187MOL0     H25221  -3.373   2.124  10.637 -1.5134 -0.8631  3.1573
  187MOL0     H25222  -3.362   1.987  10.741 -1.9906 -0.3575 -1.6866
  187MOL0     H25223  -3.224   2.277  10.725 -3.6065 -0.1565  0.1803
  187MOL0     H25224  -3.154   2.150  10.835 -0.4793 -3.9131  0.4929
  187MOL0     H25225  -3.329   2.294  10.959 -0.6560  1.0311  0.0329
  187MOL0     H25226  -3.383   2.134  10.938  2.7730 -0.7370 -0.5882
  187MOL0     H25227  -2.532   2.253  10.104 -0.8080 -0.9105  4.7485
  187MOL0     H25228  -2.341   2.199   9.971 -1.0049  0.7638 -0.4076
  187MOL0     H25229  -2.059   1.774   9.929  0.4131  0.6199  0.1276
  187MOL0     H25230  -1.850   1.667   9.863 -0.4763  0.2508  2.1246
  187MOL0     H25231  -0.118   1.912  10.645 -0.5084 -0.3694 -0.8855
  187MOL0     H25232   0.127   1.855  10.592  0.1919  0.8779  1.1036
  187MOL0     H25233   0.384   1.405  10.667 -0.2900 -0.5743  0.3806
  187MOL0     H25234   0.592   1.274  10.645  2.3773 -0.5109 -0.3953
  187MOL0     H25235   0.830   1.237  10.730  1.0994 -2.0702  0.5595
  187MOL0     H25236   0.771   1.186  10.572  0.6069  0.0134  1.1915
  187MOL0     H25237   0.974   1.159  10.484 -2.6169 -0.6065 -0.2894
  187MOL0     H25238   0.987   1.081  10.638 -2.1059  1.5207  2.2545
  187MOL0     H25239   1.135   1.284  10.725 -2.9263 -0.2964  0.4002
  187MOL0     H25240   1.097   1.367  10.581 -1.6067 -0.5551  1.6442
  187MOL0     H25241   1.223   1.141  10.477  1.3310 -0.5154  0.4477
  187MOL0     H25242   1.268   1.124  10.644 -2.5200 -0.0282  0.4439
  187MOL0     H25243   1.522   1.428  10.507 -0.2573 -0.4036  1.7396
  187MOL0     H25244   0.825   1.629  10.583 -0.2353  0.4769 -1.9358
  187MOL0     H25245   0.613   1.766  10.622 -1.0581 -0.1411 -1.3144
  188MOL0     O25246   0.218   9.018   3.418  0.7615  0.0575  0.1122
  188MOL0     C25247   0.240   8.932   3.496 -0.9651  0.5423 -0.4741
  188MOL0     O25248   0.149   8.860   3.573  0.2734  0.2692  0.5901
  188MOL0     C25249   0.010   8.864   3.568  0.2882  0.7068 -0.4199
  188MOL0     C25250  -0.054   8.778   3.657 -0.7451  0.0035 -0.3896
  188MOL0     C25251  -0.190   8.759   3.675 -0.0582 -0.3237  0.8588
  188MOL0     C25252  -0.273   8.823   3.582 -0.4322 -0.2617 -0.7658
  188MOL0     O25253  -0.410   8.790   3.581 -0.3711 -0.0084  0.6080
  188MOL0     C25254  -0.436   8.683   3.490  0.4051 -0.1074 -0.3442
  188MOL0     C25255  -0.516   8.740   3.370  0.2964  0.0107  0.2732
  188MOL0     C25256  -0.537   8.609   3.276  0.1451 -0.1065 -0.5573
  188MOL0     C25257  -0.538   8.645   3.125  0.5669 -0.1259 -0.3946
  188MOL0     C25258  -0.511   8.525   3.036  0.1704 -0.5806  0.3529
  188MOL0     C25259  -0.557   8.559   2.889  0.6093 -0.6535 -0.9062
  188MOL0     C25260  -0.595   8.431   2.810  0.2530 -0.3291  0.6361
  188MOL0     C25261  -0.668   8.464   2.679 -0.3085 -0.0092 -0.1774
  188MOL0     N25262  -0.579   8.527   2.584 -0.6739  0.2889 -0.5415
  188MOL0     C25263  -0.468   8.469   2.516  0.7765  0.3583 -1.2780
  188MOL0     C25264  -0.421   8.570   2.439  0.0479 -0.2884 -1.0669
  188MOL0     C25265  -0.298   8.572   2.358  0.3140  0.3214  0.3594
  188MOL0     C25266  -0.228   8.703   2.308  0.1623 -0.6288  0.8997
  188MOL0     C25267  -0.131   8.673   2.194  0.5493  0.3282  0.1557
  188MOL0     C25268  -0.197   8.653   2.060 -0.7371 -0.7571  0.4664
  188MOL0     O25269  -0.189   8.773   1.984 -0.0809 -0.2319  0.6495
  188MOL0     C25270  -0.307   8.829   1.926  0.2788 -0.1494 -0.5875
  188MOL0     C25271  -0.309   8.970   1.926 -0.8270  0.0110 -0.0501
  188MOL0     C25272  -0.417   9.042   1.879  0.2777 -0.9579 -0.1189
  188MOL0     C25273  -0.397   9.188   1.868 -0.1050 -0.0333 -0.7501
  188MOL0     C25274  -0.528   8.972   1.819 -0.1434 -0.7097 -0.2065
  188MOL0     C25275  -0.661   9.031   1.773 -0.7221  0.5324 -0.4543
  188MOL0     O25276  -0.692   9.161   1.809  0.3776 -0.8947  0.6648
  188MOL0     C25277  -0.799   9.205   1.740 -0.1339  0.1127  0.3514
  188MOL0     C25278  -0.918   9.228   1.809 -0.8269 -0.3324  0.5406
  188MOL0     C25279  -1.025   9.273   1.746  0.5215  0.1807 -1.1241
  188MOL0     C25280  -1.023   9.313   1.611  0.3382 -0.3227 -0.1379
  188MOL0     O25281  -1.130   9.359   1.538 -0.0787 -0.6906 -0.3905
  188MOL0     C25282  -1.257   9.307   1.566 -0.4642  0.2944 -0.5962
  188MOL0     C25283  -1.329   9.298   1.433  0.0826 -0.3565 -0.1751
  188MOL0     C25284  -1.346   9.438   1.370  0.6082 -0.5118 -0.0955
  188MOL0     C25285  -1.448   9.443   1.257  0.7217 -0.1474 -0.0100
  188MOL0     C25286  -1.455   9.587   1.200  1.0840  0.5817  0.9042
  188MOL0     C25287  -1.567   9.618   1.093  0.1991  0.6859 -0.8392
  188MOL0     C25288  -1.549   9.761   1.033  0.0912 -0.3256 -0.2269
  188MOL0     C25289  -1.661   9.814   0.940  0.9477 -0.1011 -0.3414
  188MOL0    Cl25290  -1.789   9.888   1.043  0.0709  0.3277 -0.0521
  188MOL0     C25291  -0.907   9.302   1.537 -0.0504  0.0328 -0.2569
  188MOL0     C25292  -0.792   9.243   1.604 -0.0056 -0.6552 -0.9836
  188MOL0     O25293  -0.742   8.955   1.714  0.7141 -0.8777 -0.3096
  188MOL0     C25294  -0.517   8.837   1.812  0.9546 -1.0575  0.2428
  188MOL0     C25295  -0.404   8.762   1.855 -0.3725 -0.2190  0.0883
  188MOL0     N25296  -0.485   8.689   2.469  0.6075 -0.0860 -0.5853
  188MOL0     N25297  -0.581   8.663   2.551 -0.5047  0.4328 -0.6699
  188MOL0     C25298  -0.216   8.912   3.493  0.2851  0.5086  0.3574
  188MOL0     C25299  -0.075   8.930   3.482 -0.3051  0.4610  0.3003
  188MOL0     C25300   0.386   8.898   3.515  0.6157 -0.2553 -0.6612
  188MOL0     C25301   0.429   8.771   3.576 -0.0950 -0.1529  0.0913
  188MOL0     C25302   0.567   8.739   3.576 -0.3737 -1.1002  0.3777
  188MOL0     C25303   0.660   8.834   3.517  0.1236  0.4374 -0.7412
  188MOL0     O25304   0.798   8.817   3.521 -0.4029 -0.6998  0.2607
  188MOL0     C25305   0.850   8.766   3.397  0.3679 -0.2778  0.4285
  188MOL0     C25306   0.909   8.874   3.307  0.1878  0.9150  0.1743
  188MOL0     C25307   0.973   8.803   3.188 -0.1347  0.1987  0.0792
  188MOL0     C25308   1.089   8.715   3.223 -0.5523  0.0894 -0.1015
  188MOL0     C25309   1.205   8.798   3.271  0.6233  0.0181 -0.2357
  188MOL0     C25310   1.306   8.859   3.282 -1.0767 -1.1007 -0.0861
  188MOL0     C25311   0.610   8.951   3.457 -0.0900  0.6407 -0.1902
  188MOL0     C25312   0.483   8.977   3.460  1.1107 -0.7414 -0.9230
  188MOL0     H25313   0.016   8.720   3.717 -0.3622  2.4398  1.7158
  188MOL0     H25314  -0.236   8.688   3.745 -2.3767 -0.1242 -0.3706
  188MOL0     H25315  -0.343   8.635   3.460  0.8791  0.9819 -0.7016
  188MOL0     H25316  -0.506   8.618   3.541  2.2673  0.4602  3.2479
  188MOL0     H25317  -0.615   8.781   3.390  1.1803  1.1386  2.8215
  188MOL0     H25318  -0.460   8.825   3.330 -1.0373  1.9371  2.2459
  188MOL0     H25319  -0.458   8.534   3.288  0.5649  0.3245 -0.5731
  188MOL0     H25320  -0.628   8.556   3.305  1.0406 -1.1307  0.4853
  188MOL0     H25321  -0.623   8.708   3.095  2.7065  1.9514 -2.5529
  188MOL0     H25322  -0.456   8.717   3.116  0.0240  0.3667 -1.6439
  188MOL0     H25323  -0.405   8.502   3.027  0.8730  2.4187 -0.4344
  188MOL0     H25324  -0.568   8.440   3.074 -1.2727 -0.6038 -1.6941
  188MOL0     H25325  -0.645   8.623   2.889  0.4270 -0.9039 -1.3529
  188MOL0     H25326  -0.480   8.618   2.838  1.1040  0.6865  1.2429
  188MOL0     H25327  -0.507   8.368   2.792  0.3498  0.1665 -0.7476
  188MOL0     H25328  -0.661   8.371   2.874  0.2505 -0.6574  0.3321
  188MOL0     H25329  -0.755   8.520   2.716 -1.8150 -1.6918 -0.9855
  188MOL0     H25330  -0.719   8.376   2.638 -2.9565  1.3509 -0.0230
  188MOL0     H25331  -0.430   8.369   2.531 -0.0471 -0.1381 -2.3404
  188MOL0     H25332  -0.224   8.533   2.429 -1.8308  0.8075  3.0512
  188MOL0     H25333  -0.314   8.499   2.278  0.2701 -1.0819  1.5943
  188MOL0     H25334  -0.179   8.744   2.397  0.1934 -0.9314  1.0238
  188MOL0     H25335  -0.299   8.778   2.273 -0.7974 -1.1978  1.5942
  188MOL0     H25336  -0.077   8.579   2.210  4.0153  1.8427 -1.5747
  188MOL0     H25337  -0.059   8.756   2.199 -1.3553  2.1009 -0.5813
  188MOL0     H25338  -0.300   8.618   2.075 -1.0815 -0.6864 -1.5108
  188MOL0     H25339  -0.146   8.577   2.001  0.0364  0.5091 -0.5493
  188MOL0     H25340  -0.228   9.033   1.963 -1.7053  0.7842  0.6205
  188MOL0     H25341  -0.461   9.225   1.948 -1.7714  0.6445 -2.3364
  188MOL0     H25342  -0.297   9.228   1.887 -0.0391 -0.6570  0.2574
  188MOL0     H25343  -0.430   9.236   1.775  1.7659  1.4716 -0.7109
  188MOL0     H25344  -0.915   9.213   1.916  0.0711  2.1198  0.9205
  188MOL0     H25345  -1.113   9.298   1.805  0.3305  0.2243 -1.4269
  188MOL0     H25346  -1.258   9.207   1.611  2.6395 -0.4815 -1.9988
  188MOL0     H25347  -1.306   9.369   1.641  0.1796  0.6735 -0.4831
  188MOL0     H25348  -1.274   9.226   1.372 -1.7487 -1.1965 -0.9192
  188MOL0     H25349  -1.424   9.247   1.455 -0.8228  0.4034 -2.0722
  188MOL0     H25350  -1.257   9.486   1.327 -0.1276  2.2885  1.2797
  188MOL0     H25351  -1.373   9.513   1.445  2.2539  2.4734 -2.2506
  188MOL0     H25352  -1.420   9.366   1.184  2.0298 -0.5862  0.8936
  188MOL0     H25353  -1.546   9.418   1.297  0.2887 -0.5675 -1.2893
  188MOL0     H25354  -1.355   9.594   1.156  1.5971 -0.9209  1.7354
  188MOL0     H25355  -1.463   9.661   1.281 -0.3050  2.4745 -0.8473
  188MOL0     H25356  -1.571   9.534   1.022 -1.6331 -0.1675  0.1883
  188MOL0     H25357  -1.668   9.604   1.135  1.3483 -3.1219  1.1902
  188MOL0     H25358  -1.453   9.752   0.981 -0.0488 -1.9925 -0.2522
  188MOL0     H25359  -1.538   9.841   1.107  0.3692  0.5419 -1.1849
  188MOL0     H25360  -1.703   9.727   0.888 -0.3542 -0.1644  0.7632
  188MOL0     H25361  -1.628   9.887   0.866 -1.8612  0.1882 -1.4574
  188MOL0     H25362  -0.905   9.337   1.435 -4.2170 -1.4995 -1.0593
  188MOL0     H25363  -0.694   9.246   1.557  0.5509 -2.7013 -0.0393
  188MOL0     H25364  -0.604   8.787   1.771 -0.7856  1.5677  0.4699
  188MOL0     H25365  -0.409   8.654   1.838 -4.5285 -0.0416 -0.9114
  188MOL0     H25366  -0.283   8.958   3.422 -1.8554 -0.2699  1.7805
  188MOL0     H25367  -0.042   9.010   3.416  0.4180  0.7590  1.0141
  188MOL0     H25368   0.358   8.692   3.601  1.2336 -1.3386  0.2538
  188MOL0     H25369   0.609   8.647   3.616 -0.1932 -1.4342 -0.5359
  188MOL0     H25370   0.924   8.694   3.432 -0.3978 -0.0834  2.6557
  188MOL0     H25371   0.771   8.715   3.341 -0.6277  1.8257 -0.1827
  188MOL0     H25372   0.979   8.941   3.357 -0.5839  0.4944  1.9242
  188MOL0     H25373   0.824   8.939   3.284  1.0286  1.5427 -1.2073
  188MOL0     H25374   1.004   8.876   3.113 -0.4501  1.5720  1.2608
  188MOL0     H25375   0.895   8.738   3.147 -0.9593  0.0699  1.7931
  188MOL0     H25376   1.121   8.660   3.134 -0.1378 -1.5216  0.9922
  188MOL0     H25377   1.083   8.644   3.306  0.8453 -0.7851 -0.6992
  188MOL0     H25378   1.407   8.887   3.307 -1.2766 -1.0718  0.6997
  188MOL0     H25379   0.672   9.023   3.404 -1.4850  0.5482 -2.0684
  188MOL0     H25380   0.449   9.065   3.405 -0.4661  0.2061  1.4307
  189MOL0     O25381   7.275   1.191   9.833 -0.3530  0.5055  0.5865
  189MOL0     C25382   7.267   1.225   9.946 -0.8725  0.7881 -1.5794
  189MOL0     O25383   7.196   1.328   9.995  0.6092  0.0240 -0.5998
  189MOL0     C25384   7.105   1.385   9.915 -0.1614 -0.1433  0.0840
  189MOL0     C25385   7.109   1.518   9.891 -0.0899 -0.2469 -1.0169
  189MOL0     C25386   7.010   1.576   9.803 -0.2095  0.2736  0.5835
  189MOL0     C25387   6.912   1.499   9.740  0.0953  0.3347  0.8173
  189MOL0     O25388   6.829   1.569   9.659 -0.1348  1.0357 -0.0489
  189MOL0     C25389   6.689   1.531   9.663 -0.5941 -0.3902  0.8956
  189MOL0     C25390   6.599   1.646   9.593 -0.3065  0.4202 -0.6244
  189MOL0     C25391   6.604   1.770   9.687  0.5396 -0.6296  0.1004
  189MOL0     C25392   6.520   1.886   9.639 -0.3316  0.2299  0.1611
  189MOL0     C25393   6.367   1.875   9.656  0.1115  0.1630  0.7265
  189MOL0     C25394   6.295   1.944   9.543  0.5100  0.2588  0.3878
  189MOL0     C25395   6.143   1.963   9.580 -0.1616  0.0184  0.2317
  189MOL0     C25396   6.072   2.067   9.495 -0.0897  0.1767  0.6836
  189MOL0     N25397   5.935   2.032   9.492  0.3121 -0.4966  0.1434
  189MOL0     C25398   5.871   1.921   9.445 -0.2979  0.0923 -0.1802
  189MOL0     C25399   5.742   1.932   9.477 -1.0089  0.0019  1.2498
  189MOL0     C25400   5.623   1.850   9.442 -0.6121  0.1935 -0.0813
  189MOL0     C25401   5.581   1.760   9.561  0.1113  0.1093 -1.6023
  189MOL0     C25402   5.462   1.670   9.544 -0.5549 -1.0099  0.0938
  189MOL0     C25403   5.443   1.588   9.657  0.1851 -0.4397  0.0330
  189MOL0     O25404   5.318   1.519   9.653 -0.2533 -0.6040 -0.0538
  189MOL0     C25405   5.224   1.554   9.745  0.2540 -0.1731 -0.4318
  189MOL0     C25406   5.243   1.531   9.881  0.3989 -0.2711 -1.1588
  189MOL0     C25407   5.135   1.536   9.969  0.4092 -0.4346  0.2623
  189MOL0     C25408   5.171   1.506  10.107 -0.7483 -0.0155 -0.5546
  189MOL0     C25409   5.011   1.569   9.920  0.5385 -0.2237  0.6059
  189MOL0     C25410   4.892   1.584  10.009  0.2755  0.4130  0.7555
  189MOL0     O25411   4.824   1.466  10.032 -0.1555 -0.9369  0.8383
  189MOL0     C25412   4.705   1.477  10.097 -0.9476  0.5124  0.6268
  189MOL0     C25413   4.580   1.495  10.024  0.0196  0.9230 -0.8589
  189MOL0     C25414   4.460   1.511  10.097 -0.0431 -0.3007 -0.2623
  189MOL0     C25415   4.461   1.511  10.238  0.3079  0.1138 -0.6939
  189MOL0     O25416   4.345   1.507  10.311 -0.4218 -0.4078 -0.0604
  189MOL0     C25417   4.221   1.540  10.237  0.6394 -0.0717 -0.7762
  189MOL0     C25418   4.106   1.529  10.330 -0.5529 -0.8463 -0.6033
  189MOL0     C25419   3.972   1.573  10.273 -0.2847  0.0257  0.2026
  189MOL0     C25420   3.848   1.518  10.353  0.0917 -0.6387 -0.3810
  189MOL0     C25421   3.723   1.592  10.294 -0.3853 -0.1314  0.1312
  189MOL0     C25422   3.591   1.523  10.327 -0.8329  0.6080 -0.7815
  189MOL0     C25423   3.468   1.588  10.262  0.5977 -0.4063  0.5636
  189MOL0     C25424   3.342   1.527  10.319  0.4870 -0.5158  0.6193
  189MOL0    Cl25425   3.277   1.408  10.204 -0.4115  0.2885  0.3971
  189MOL0     C25426   4.591   1.504  10.310  0.1081  1.1128 -0.3042
  189MOL0     C25427   4.705   1.483  10.234 -0.3404  0.3161 -1.0278
  189MOL0     O25428   4.850   1.698  10.019  0.5020 -0.3929  0.2184
  189MOL0     C25429   4.993   1.586   9.779  0.3165 -0.6246 -0.1008
  189MOL0     C25430   5.092   1.575   9.698 -0.8138  0.6498  0.2579
  189MOL0     N25431   5.730   2.043   9.551 -0.2323 -0.3459 -0.7231
  189MOL0     N25432   5.839   2.111   9.563 -0.0415  0.6454  0.0966
  189MOL0     C25433   6.910   1.365   9.764 -0.0501  0.5896  0.3566
  189MOL0     C25434   7.015   1.304   9.838  0.5242  0.6484  0.2756
  189MOL0     C25435   7.357   1.147  10.041  0.1401 -0.5528  0.0611
  189MOL0     C25436   7.366   1.187  10.180  0.7622 -0.2260  0.1837
  189MOL0     C25437   7.457   1.119  10.263  0.0750  0.0628  0.2012
  189MOL0     C25438   7.530   1.003  10.224 -0.9972  1.2548 -0.4287
  189MOL0     O25439   7.618   0.939  10.309 -0.5672 -0.7469 -0.3420
  189MOL0     C25440   7.602   0.970  10.450 -0.5473  0.7582  0.4933
  189MOL0     C25441   7.681   0.860  10.524 -0.0085  0.5460  0.0207
  189MOL0     C25442   7.666   0.865  10.679  0.0561  0.0939  0.9373
  189MOL0     C25443   7.723   0.740  10.739 -0.5249  0.2585  0.5085
  189MOL0     C25444   7.742   0.748  10.883 -0.7055  0.4555 -0.1749
  189MOL0     C25445   7.751   0.742  11.002 -0.4494  0.8783  0.1247
  189MOL0     C25446   7.530   0.969  10.087 -0.6165 -0.0560  0.5273
  189MOL0     C25447   7.444   1.040   9.997 -0.2459 -0.3499 -0.1054
  189MOL0     H25448   7.182   1.574   9.947 -1.1666 -0.2330  0.4100
  189MOL0     H25449   7.023   1.680   9.773  0.2344  0.4485  1.3506
  189MOL0     H25450   6.684   1.444   9.596  1.6662  0.7622 -0.9174
  189MOL0     H25451   6.655   1.513   9.765  0.3086 -0.7996  1.1382
  189MOL0     H25452   6.635   1.665   9.492  1.5288  3.0147  0.4121
  189MOL0     H25453   6.494   1.616   9.593 -0.5423  1.1853  0.0339
  189MOL0     H25454   6.560   1.746   9.785  0.2026 -1.7232 -0.3039
  189MOL0     H25455   6.709   1.790   9.711  0.1652  2.7113 -0.5787
  189MOL0     H25456   6.561   1.970   9.696  0.2420  0.5109 -0.6445
  189MOL0     H25457   6.550   1.912   9.537 -0.6962  0.2497  0.0592
  189MOL0     H25458   6.329   1.772   9.662 -1.1013  0.4751 -0.8452
  189MOL0     H25459   6.336   1.932   9.744  1.3308  2.6361 -0.3587
  189MOL0     H25460   6.328   2.047   9.522 -0.6524  0.4938 -0.4005
  189MOL0     H25461   6.300   1.880   9.454  0.9376  1.5356 -0.5481
  189MOL0     H25462   6.095   1.865   9.589  2.0156 -1.1160  0.2593
  189MOL0     H25463   6.142   2.013   9.677 -0.3360  0.8766 -0.2051
  189MOL0     H25464   6.121   2.074   9.397 -0.7335 -0.3476  0.3123
  189MOL0     H25465   6.075   2.164   9.546 -1.4404 -0.4159  1.9418
  189MOL0     H25466   5.917   1.849   9.378 -0.5681 -2.3455  2.0850
  189MOL0     H25467   5.546   1.928   9.432  1.5369  2.3772 -0.5653
  189MOL0     H25468   5.643   1.804   9.344  1.4655  0.3402  0.2335
  189MOL0     H25469   5.560   1.829   9.644 -0.4619 -1.4047 -0.4370
  189MOL0     H25470   5.667   1.705   9.599  0.7388  0.9761 -1.7249
  189MOL0     H25471   5.487   1.610   9.457  3.5208  1.5781 -0.7896
  189MOL0     H25472   5.368   1.724   9.530 -0.0231 -0.5253 -1.9835
  189MOL0     H25473   5.449   1.644   9.752 -0.2031 -0.8437  0.2993
  189MOL0     H25474   5.522   1.513   9.649  0.4832  0.0278 -1.6949
  189MOL0     H25475   5.340   1.513   9.926  0.5026  1.2531 -0.7300
  189MOL0     H25476   5.261   1.445  10.119  1.5763  3.0286 -1.2967
  189MOL0     H25477   5.187   1.596  10.168 -0.7862 -1.1509  1.2127
  189MOL0     H25478   5.088   1.462  10.165 -0.1834  0.3504  0.5598
  189MOL0     H25479   4.576   1.498   9.915 -0.5288  0.4190 -0.8575
  189MOL0     H25480   4.364   1.514  10.047 -0.9629 -0.6901  1.4031
  189MOL0     H25481   4.230   1.635  10.183  4.4705  0.8557  1.1446
  189MOL0     H25482   4.201   1.471  10.154 -0.0117 -0.2994 -0.4413
  189MOL0     H25483   4.098   1.428  10.371  0.8762 -0.8388 -0.2444
  189MOL0     H25484   4.126   1.600  10.410  1.6673 -2.1309  0.0697
  189MOL0     H25485   3.968   1.541  10.168  2.4501  0.6507 -0.1568
  189MOL0     H25486   3.948   1.680  10.275 -2.5040 -0.4346  1.7481
  189MOL0     H25487   3.839   1.411  10.336  0.3238 -0.2976 -3.0708
  189MOL0     H25488   3.845   1.539  10.461 -1.0750  0.9590 -0.6876
  189MOL0     H25489   3.729   1.588  10.185 -1.0663  0.3840  0.0730
  189MOL0     H25490   3.719   1.697  10.324  1.8735  1.4799 -4.2393
  189MOL0     H25491   3.598   1.415  10.316  4.4830  0.8781 -3.3525
  189MOL0     H25492   3.579   1.544  10.434  2.1401 -0.9876 -0.0263
  189MOL0     H25493   3.472   1.564  10.156 -0.2582 -0.3688  0.5190
  189MOL0     H25494   3.456   1.695  10.278 -0.5211 -0.1330 -1.8176
  189MOL0     H25495   3.273   1.601  10.361  2.2156  1.3837  0.2747
  189MOL0     H25496   3.366   1.461  10.403 -0.6110 -1.4485  0.2261
  189MOL0     H25497   4.598   1.510  10.418 -1.0992 -0.9185 -0.0692
  189MOL0     H25498   4.791   1.481  10.301 -1.9903  0.7092  1.2256
  189MOL0     H25499   4.896   1.618   9.742  0.9358 -1.3347 -2.5557
  189MOL0     H25500   5.089   1.588   9.590  1.7689 -0.5410 -0.0288
  189MOL0     H25501   6.829   1.308   9.718  1.9011 -1.2368 -0.9857
  189MOL0     H25502   7.005   1.199   9.861  1.2151 -0.4624 -3.7891
  189MOL0     H25503   7.324   1.280  10.218 -0.4742 -0.1213 -1.3513
  189MOL0     H25504   7.453   1.155  10.365 -0.8594 -1.3102  0.6777
  189MOL0     H25505   7.652   1.067  10.464  1.4774 -0.1838  0.1176
  189MOL0     H25506   7.496   0.972  10.477 -0.4980  1.7210  0.6577
  189MOL0     H25507   7.785   0.867  10.492 -0.0294  0.8799  0.0219
  189MOL0     H25508   7.626   0.770  10.493 -0.2887  0.7420 -0.0557
  189MOL0     H25509   7.561   0.876  10.707  0.7724  1.9448  3.1816
  189MOL0     H25510   7.719   0.949  10.726  2.0957 -0.9414  0.5624
  189MOL0     H25511   7.828   0.728  10.712  0.3777  1.6904  3.0519
  189MOL0     H25512   7.675   0.649  10.700  1.3717 -1.2805  1.5656
  189MOL0     H25513   7.748   0.741  11.109  1.6164  1.6672  0.2359
  189MOL0     H25514   7.597   0.894  10.047  1.4908  0.9346  2.0200
  189MOL0     H25515   7.445   1.004   9.895 -2.7296  0.1549 -0.3795
  190MOL0     O25516  10.807   2.165   4.767  0.1654 -0.0633 -0.5801
  190MOL0     C25517  10.857   2.145   4.873 -0.0268  1.0930 -1.9643
  190MOL0     O25518  10.791   2.137   4.999 -0.6165 -0.0578 -0.0533
  190MOL0     C25519  10.650   2.131   5.003 -0.0858  1.3289 -0.4609
  190MOL0     C25520  10.577   2.205   5.098 -0.2630  1.1865  0.2219
  190MOL0     C25521  10.439   2.186   5.105  0.5571 -0.6877 -0.0992
  190MOL0     C25522  10.376   2.097   5.019  0.1332  0.2383  0.0386
  190MOL0     O25523  10.243   2.071   5.030  0.3412 -0.5028  0.3677
  190MOL0     C25524  10.156   2.177   5.018  0.2456 -0.2817  0.6189
  190MOL0     C25525  10.135   2.223   4.872 -0.3103  0.6208  0.0458
  190MOL0     C25526  10.050   2.129   4.786 -0.2743 -0.3706 -0.3118
  190MOL0     C25527   9.896   2.137   4.821  0.5666  0.4637  0.1718
  190MOL0     C25528   9.818   2.043   4.731 -0.5145 -0.4066  0.5397
  190MOL0     C25529   9.668   2.022   4.765  0.1136 -0.2767  0.1724
  190MOL0     C25530   9.586   1.966   4.648 -0.1090  0.3464  0.2590
  190MOL0     C25531   9.629   1.823   4.620 -0.6298  0.7278 -0.8911
  190MOL0     N25532   9.518   1.741   4.560  0.1968  0.4676 -0.0942
  190MOL0     C25533   9.475   1.767   4.432  1.2012  0.4174 -0.6515
  190MOL0     C25534   9.365   1.679   4.420  0.2253  0.6968  1.0103
  190MOL0     C25535   9.275   1.684   4.298 -0.4253  0.0400  0.4158
  190MOL0     C25536   9.143   1.732   4.336  0.4661 -0.2182  0.3906
  190MOL0     C25537   9.052   1.732   4.214  0.4517 -0.5497  0.0950
  190MOL0     C25538   8.922   1.810   4.238  0.3872 -0.3480 -0.1105
  190MOL0     O25539   8.871   1.842   4.112  0.5865  0.2510  0.0165
  190MOL0     C25540   8.747   1.897   4.117 -0.1152  0.7402 -0.0781
  190MOL0     C25541   8.635   1.863   4.194  0.4717  0.9017  0.0626
  190MOL0     C25542   8.513   1.935   4.179  0.1114  1.5669  0.9560
  190MOL0     C25543   8.391   1.880   4.261  0.0196  0.5131 -0.0124
  190MOL0     C25544   8.503   2.046   4.093 -0.7199 -0.1947  0.4550
  190MOL0     C25545   8.380   2.116   4.071  0.9974 -0.8229  0.4001
  190MOL0     O25546   8.388   2.210   3.972  0.3043 -0.1898  0.2208
  190MOL0     C25547   8.278   2.277   3.938  0.0262  0.1958  0.1487
  190MOL0     C25548   8.220   2.376   4.025 -0.3386  0.1896  0.2713
  190MOL0     C25549   8.102   2.445   3.986 -0.9022 -0.0788 -0.5101
  190MOL0     C25550   8.051   2.424   3.856 -0.4891  0.5090  0.1078
  190MOL0     O25551   7.939   2.490   3.809 -0.2618  0.1215 -0.6118
  190MOL0     C25552   7.863   2.581   3.894  0.7241 -0.1303 -0.3399
  190MOL0     C25553   7.938   2.710   3.872  0.8054  0.0119  0.1674
  190MOL0     C25554   7.871   2.819   3.946 -0.1220  0.0307 -0.4449
  190MOL0     C25555   7.876   2.959   3.895 -0.2385  0.6587  0.6698
  190MOL0     C25556   7.827   3.065   3.990 -1.0196 -0.3344  0.0299
  190MOL0     C25557   7.686   3.099   3.969 -0.3747  0.3621  0.5836
  190MOL0     C25558   7.666   3.248   4.020  1.2161  0.0953 -0.2378
  190MOL0     C25559   7.519   3.294   4.022 -0.1980  0.3861 -0.2292
  190MOL0    Cl25560   7.431   3.191   4.127  0.2630 -0.4298 -0.5933
  190MOL0     C25561   8.110   2.330   3.766  0.1573  0.7615  0.4178
  190MOL0     C25562   8.221   2.255   3.817 -0.0376  0.0470  0.0624
  190MOL0     O25563   8.270   2.079   4.127  0.1345  0.2184 -0.3839
  190MOL0     C25564   8.623   2.076   4.016 -0.1266  0.6212 -0.9114
  190MOL0     C25565   8.740   2.008   4.027  0.5543  0.3547 -0.4241
  190MOL0     N25566   9.357   1.593   4.532 -0.5818 -0.5837 -1.3655
  190MOL0     N25567   9.439   1.650   4.622  0.5559  0.6337  0.5218
  190MOL0     C25568  10.451   2.012   4.933  0.3272 -1.1197  0.2737
  190MOL0     C25569  10.591   2.036   4.919 -0.4471 -1.2794 -0.1979
  190MOL0     C25570  11.003   2.126   4.884 -0.0823  0.0677 -0.8604
  190MOL0     C25571  11.058   2.102   5.016  0.8198  0.1588 -0.4220
  190MOL0     C25572  11.196   2.064   5.028 -0.3037  0.1490  0.8361
  190MOL0     C25573  11.283   2.052   4.915  0.8752 -0.0262 -0.1724
  190MOL0     O25574  11.410   2.003   4.914  0.5188 -0.8625  0.1181
  190MOL0     C25575  11.473   1.962   5.040 -0.3539 -0.2738  0.8358
  190MOL0     C25576  11.536   2.087   5.111 -0.8277  0.0996 -0.6175
  190MOL0     C25577  11.635   2.175   5.021 -0.6348  0.1701 -0.3985
  190MOL0     C25578  11.650   2.309   5.084 -0.4243  0.5984  0.4415
  190MOL0     C25579  11.519   2.373   5.069 -0.2888 -0.4562  0.7145
  190MOL0     C25580  11.418   2.432   5.042  0.0459 -0.1005 -0.3582
  190MOL0     C25581  11.224   2.089   4.791 -0.0111 -0.6970 -0.0824
  190MOL0     C25582  11.088   2.124   4.774  0.2117 -0.4711 -0.6594
  190MOL0     H25583  10.637   2.268   5.164 -0.4261  2.5391 -0.8582
  190MOL0     H25584  10.382   2.239   5.182 -1.8133 -0.7763 -1.6924
  190MOL0     H25585  10.058   2.148   5.057 -0.4544  2.9041  1.5008
  190MOL0     H25586  10.176   2.263   5.082 -2.1981  0.8390 -0.0064
  190MOL0     H25587  10.093   2.324   4.864  1.1502  1.1745 -1.3153
  190MOL0     H25588  10.232   2.241   4.825  0.5390  2.5262  2.3084
  190MOL0     H25589  10.069   2.161   4.684  0.6953 -0.6506 -0.2299
  190MOL0     H25590  10.091   2.028   4.800  3.2708  1.0360  0.4019
  190MOL0     H25591   9.867   2.093   4.917 -1.0820 -1.2978 -1.0553
  190MOL0     H25592   9.848   2.236   4.822 -3.8168 -1.4083  2.6134
  190MOL0     H25593   9.826   2.072   4.626  0.7503 -2.5699 -0.0359
  190MOL0     H25594   9.863   1.943   4.739 -3.2782 -1.7486  0.5194
  190MOL0     H25595   9.655   1.955   4.851  1.2149 -0.2091  0.4102
  190MOL0     H25596   9.636   2.124   4.786  2.9520  0.6218  0.6040
  190MOL0     H25597   9.478   1.967   4.663 -0.1317  3.2599  0.4236
  190MOL0     H25598   9.604   2.022   4.556 -0.2057 -2.4180 -1.5586
  190MOL0     H25599   9.654   1.771   4.713 -1.4637  2.1827  0.1734
  190MOL0     H25600   9.725   1.831   4.567  1.7010  2.3276  3.1035
  190MOL0     H25601   9.505   1.844   4.362  2.8359  1.0812  0.6907
  190MOL0     H25602   9.318   1.731   4.209 -2.3979 -1.4004 -1.4249
  190MOL0     H25603   9.272   1.583   4.256  4.0948  0.2195 -0.9060
  190MOL0     H25604   9.142   1.832   4.380  1.7636  0.3488 -0.7902
  190MOL0     H25605   9.104   1.664   4.412 -1.3848 -0.8247 -1.0252
  190MOL0     H25606   9.020   1.632   4.181  0.9903 -0.3068 -1.2222
  190MOL0     H25607   9.110   1.772   4.131  2.6213 -0.2902  1.6601
  190MOL0     H25608   8.955   1.904   4.283 -0.2573  1.4558 -3.1147
  190MOL0     H25609   8.856   1.754   4.305  1.4280 -4.0825 -1.9059
  190MOL0     H25610   8.636   1.779   4.262  0.3866  1.0773  0.2801
  190MOL0     H25611   8.415   1.781   4.301 -2.3977  0.6700  2.0818
  190MOL0     H25612   8.382   1.945   4.349  2.3673  1.1301 -0.1513
  190MOL0     H25613   8.299   1.858   4.207 -0.9204 -3.2662  2.7463
  190MOL0     H25614   8.268   2.387   4.122  0.4171 -5.0959  0.7746
  190MOL0     H25615   8.062   2.516   4.058 -0.7047 -0.1222 -0.3553
  190MOL0     H25616   7.764   2.585   3.850  1.1353  1.0871 -1.2092
  190MOL0     H25617   7.861   2.564   4.002 -1.0751 -0.0120 -0.3390
  190MOL0     H25618   8.035   2.696   3.920  0.1494  1.2300  1.9342
  190MOL0     H25619   7.937   2.733   3.765 -1.4051  1.2106  0.3760
  190MOL0     H25620   7.907   2.822   4.050 -1.0320  1.7557 -0.1480
  190MOL0     H25621   7.767   2.784   3.952 -0.0150 -0.7861 -2.6937
  190MOL0     H25622   7.983   2.972   3.878 -0.2469 -0.9113 -0.8984
  190MOL0     H25623   7.829   2.972   3.797 -1.2552  0.0130  1.0532
  190MOL0     H25624   7.888   3.150   3.960  2.4811 -2.2444  1.1211
  190MOL0     H25625   7.843   3.035   4.094  1.4920 -2.0535 -0.7616
  190MOL0     H25626   7.666   3.090   3.862 -0.2788 -0.2904  0.6174
  190MOL0     H25627   7.609   3.035   4.013  1.2570 -0.2038  2.8185
  190MOL0     H25628   7.727   3.306   3.949  0.5987  0.3151 -0.6009
  190MOL0     H25629   7.695   3.266   4.124  2.1602  1.0400 -0.6425
  190MOL0     H25630   7.469   3.276   3.927  0.2612  1.1872 -0.6291
  190MOL0     H25631   7.504   3.402   4.037 -0.2418  0.5745 -1.5410
  190MOL0     H25632   8.076   2.309   3.665 -1.6686  0.9762  0.9624
  190MOL0     H25633   8.258   2.168   3.763  0.8346 -2.1642  3.8607
  190MOL0     H25634   8.627   2.171   3.964  0.9495  2.6260  2.5126
  190MOL0     H25635   8.824   2.056   3.978 -0.4868  0.4132 -2.2734
  190MOL0     H25636  10.414   1.930   4.872  1.7569 -2.0589  0.6118
  190MOL0     H25637  10.648   1.975   4.850 -0.0201  2.6248 -3.6928
  190MOL0     H25638  10.996   2.099   5.105  0.9562  0.8743 -0.2968
  190MOL0     H25639  11.242   2.039   5.123  2.7750 -1.2666 -0.8683
  190MOL0     H25640  11.414   1.900   5.108  0.6601 -0.5473  1.4881
  190MOL0     H25641  11.563   1.905   5.015 -0.8475  0.3280 -3.0410
  190MOL0     H25642  11.580   2.056   5.206 -4.0831  0.0480  1.0306
  190MOL0     H25643  11.446   2.147   5.129  1.0176  3.8140 -2.7168
  190MOL0     H25644  11.597   2.182   4.918 -0.6955 -0.6930 -0.4428
  190MOL0     H25645  11.725   2.114   5.014 -0.8107 -0.1252 -0.0887
  190MOL0     H25646  11.731   2.365   5.037 -0.5368  0.2536 -0.1845
  190MOL0     H25647  11.662   2.293   5.191 -1.2785  1.9409  0.7660
  190MOL0     H25648  11.340   2.505   5.029  0.1686 -0.0372 -0.7488
  190MOL0     H25649  11.291   2.079   4.706 -0.0038  0.0267 -0.1672
  190MOL0     H25650  11.055   2.138   4.672 -0.4299 -2.3586 -0.7439
  191MOL0     O25651  10.057   8.286  10.355 -0.0344 -0.1600 -0.3402
  191MOL0     C25652  10.085   8.248  10.469  0.4906 -0.2500  0.0971
  191MOL0     O25653  10.000   8.219  10.568  0.0046  0.4027  0.1484
  191MOL0     C25654   9.869   8.234  10.544 -0.1537 -0.6315  1.2765
  191MOL0     C25655   9.794   8.339  10.607 -0.6157  0.9328 -0.5417
  191MOL0     C25656   9.657   8.344  10.593  0.5553 -0.0105 -0.4760
  191MOL0     C25657   9.578   8.261  10.511  0.5335  0.1717  0.6041
  191MOL0     O25658   9.443   8.280  10.496 -0.2521 -0.3554 -0.1736
  191MOL0     C25659   9.368   8.256  10.610  0.2555 -0.3891  0.2653
  191MOL0     C25660   9.232   8.284  10.568 -0.1531 -0.0940  0.6197
  191MOL0     C25661   9.189   8.205  10.440  0.2900  0.5850  0.0183
  191MOL0     C25662   9.051   8.258  10.386 -0.2796  0.1352 -0.1649
  191MOL0     C25663   9.002   8.204  10.255 -0.0868  0.2554  0.5197
  191MOL0     C25664   8.890   8.282  10.199  0.3652 -0.3025  0.6879
  191MOL0     C25665   8.825   8.211  10.077  0.1233  0.6166  0.6596
  191MOL0     C25666   8.725   8.295  10.003  0.8501  0.1611  0.1713
  191MOL0     N25667   8.696   8.224   9.876 -0.3296 -0.0575  0.4017
  191MOL0     C25668   8.602   8.127   9.849 -0.5027 -0.5367 -0.5694
  191MOL0     C25669   8.618   8.102   9.719  0.3302  0.4964 -0.2826
  191MOL0     C25670   8.547   7.993   9.639 -0.0928  0.2410  0.2547
  191MOL0     C25671   8.406   8.042   9.603  1.0098 -0.6843  0.0423
  191MOL0     C25672   8.317   7.926   9.548 -0.3944 -0.2050 -0.1111
  191MOL0     C25673   8.177   7.969   9.507  0.2139  0.2957 -0.3434
  191MOL0     O25674   8.178   8.062   9.395 -0.1040  0.1843  0.3593
  191MOL0     C25675   8.055   8.118   9.353 -0.3124  0.1219  0.2459
  191MOL0     C25676   7.929   8.070   9.385 -0.0436 -0.7529 -0.8795
  191MOL0     C25677   7.812   8.125   9.336 -0.3974  0.7480 -0.1241
  191MOL0     C25678   7.688   8.053   9.351  0.4381  0.2741 -0.0758
  191MOL0     C25679   7.822   8.250   9.266  0.3277 -0.4325 -0.6178
  191MOL0     C25680   7.715   8.328   9.207  0.0564 -0.3360  0.1206
  191MOL0     O25681   7.753   8.452   9.161  0.2840  0.2900  0.6074
  191MOL0     C25682   7.659   8.536   9.108  0.0604 -0.0459 -0.0267
  191MOL0     C25683   7.575   8.502   9.006 -0.0028 -0.4122  0.7246
  191MOL0     C25684   7.487   8.597   8.954  0.1451  0.2239  0.5118
  191MOL0     C25685   7.491   8.736   8.979 -0.3582  0.3353 -1.1507
  191MOL0     O25686   7.401   8.824   8.919 -0.9704 -0.0506  0.5559
  191MOL0     C25687   7.438   8.962   8.883 -0.7687 -0.3300 -0.2000
  191MOL0     C25688   7.313   9.049   8.852 -1.0942  0.8165 -0.6858
  191MOL0     C25689   7.186   8.978   8.838 -0.2314  0.0180  0.5132
  191MOL0     C25690   7.071   9.064   8.776 -0.4472 -0.1429 -0.9005
  191MOL0     C25691   6.969   8.975   8.704 -0.9140  0.0646  0.4429
  191MOL0     C25692   6.887   8.887   8.794  0.0674  0.7505  0.3333
  191MOL0     C25693   6.774   8.801   8.727  0.2092  0.4499 -0.5073
  191MOL0     C25694   6.712   8.709   8.834 -0.7969  0.2948 -0.5787
  191MOL0    Cl25695   6.558   8.655   8.775 -0.0677  0.0338 -0.1706
  191MOL0     C25696   7.591   8.771   9.077  0.3964  0.6982  0.7421
  191MOL0     C25697   7.664   8.672   9.148  0.4081  0.5474 -0.3740
  191MOL0     O25698   7.602   8.282   9.197  0.7831  0.2676  0.6237
  191MOL0     C25699   7.946   8.302   9.231  0.5017  0.4461 -0.5002
  191MOL0     C25700   8.058   8.237   9.281 -0.2994  0.3919  1.1217
  191MOL0     N25701   8.714   8.190   9.659  0.1966  0.4107 -0.0631
  191MOL0     N25702   8.759   8.260   9.757 -0.0317  0.2830 -0.9022
  191MOL0     C25703   9.653   8.166  10.435  0.2542  0.1090 -0.0005
  191MOL0     C25704   9.796   8.151  10.455 -0.0824  0.5997 -0.0846
  191MOL0     C25705  10.221   8.245  10.492 -0.5777 -0.7891 -0.6517
  191MOL0     C25706  10.312   8.199  10.399 -0.5600 -0.2431 -0.7406
  191MOL0     C25707  10.450   8.203  10.426 -0.7315 -0.4980  0.3923
  191MOL0     C25708  10.506   8.261  10.543 -0.2915 -0.0082  0.0895
  191MOL0     O25709  10.642   8.266  10.566 -0.6606 -0.0846  0.5104
  191MOL0     C25710  10.725   8.278  10.454 -0.6601  0.1250  0.4525
  191MOL0     C25711  10.845   8.365  10.487 -0.0296 -0.6898 -0.9708
  191MOL0     C25712  10.942   8.382  10.370  1.3410  0.8275 -0.4529
  191MOL0     C25713  11.060   8.483  10.390  0.0964  0.0340  0.0767
  191MOL0     C25714  11.015   8.620  10.378 -0.7587 -0.2241 -0.4091
  191MOL0     C25715  10.984   8.746  10.376 -0.2327  1.0552  0.2442
  191MOL0     C25716  10.415   8.309  10.631  0.9056 -0.0053  0.1628
  191MOL0     C25717  10.280   8.304  10.608  0.1105  0.1883  0.2745
  191MOL0     H25718   9.851   8.415  10.659  1.8585  0.0265 -1.7414
  191MOL0     H25719   9.608   8.431  10.636  1.8484  2.0489 -2.9160
  191MOL0     H25720   9.374   8.152  10.645  0.2659 -0.3449  0.3943
  191MOL0     H25721   9.389   8.336  10.682 -0.4609 -0.2766  0.3638
  191MOL0     H25722   9.167   8.252  10.650 -2.4014  1.3797 -0.4883
  191MOL0     H25723   9.233   8.393  10.557  0.1021 -0.0795  0.7695
  191MOL0     H25724   9.271   8.215  10.367 -0.3351  0.7459 -0.6737
  191MOL0     H25725   9.183   8.099  10.466  2.0846  1.1050  3.0701
  191MOL0     H25726   8.979   8.236  10.464 -1.1473  1.1842 -0.6444
  191MOL0     H25727   9.061   8.367  10.378  0.4106  0.2862  2.0824
  191MOL0     H25728   9.077   8.190  10.177 -0.6479 -0.3943  0.0940
  191MOL0     H25729   8.956   8.108  10.281 -1.7273  0.8041 -0.2466
  191MOL0     H25730   8.807   8.297  10.269 -2.3026  0.4382 -2.3557
  191MOL0     H25731   8.920   8.381  10.162 -0.3085 -0.1504  0.5330
  191MOL0     H25732   8.906   8.185  10.009 -1.2885  0.8601 -1.1994
  191MOL0     H25733   8.776   8.120  10.113 -0.3872  2.0432  3.9711
  191MOL0     H25734   8.760   8.396   9.982  0.8662 -0.0381 -0.8020
  191MOL0     H25735   8.632   8.290  10.061  0.6809 -2.5595 -0.2033
  191MOL0     H25736   8.537   8.082   9.923  1.6166 -1.4943  0.7929
  191MOL0     H25737   8.604   7.968   9.549 -1.9802  1.4090 -1.3498
  191MOL0     H25738   8.538   7.905   9.703 -2.2787  1.8095  2.2847
  191MOL0     H25739   8.421   8.113   9.522  1.2972  0.4156  1.0366
  191MOL0     H25740   8.361   8.085   9.692 -0.0786 -1.6437 -0.0143
  191MOL0     H25741   8.302   7.853   9.628  0.2155 -1.1251 -0.8140
  191MOL0     H25742   8.368   7.870   9.469  0.4730  0.4902 -0.0594
  191MOL0     H25743   8.121   7.996   9.598  0.0275 -0.0890 -0.3412
  191MOL0     H25744   8.134   7.872   9.482  1.1936 -0.3841  0.5393
  191MOL0     H25745   7.919   7.985   9.452  1.2202 -0.6032 -0.4906
  191MOL0     H25746   7.653   8.022   9.252 -0.9457  1.3641  0.0269
  191MOL0     H25747   7.705   7.966   9.415 -3.0423 -1.8456 -1.6855
  191MOL0     H25748   7.619   8.122   9.401  0.1778  2.0067 -2.6709
  191MOL0     H25749   7.590   8.401   8.970 -0.9668 -0.5532  0.6823
  191MOL0     H25750   7.411   8.572   8.881 -1.3467  2.1722  1.2923
  191MOL0     H25751   7.495   9.006   8.965  2.0912  1.3574 -2.8714
  191MOL0     H25752   7.505   8.969   8.796  3.1633  0.5682  2.6007
  191MOL0     H25753   7.297   9.115   8.938  2.1340 -1.0117  1.5166
  191MOL0     H25754   7.339   9.118   8.772 -0.5924  5.9170  3.2950
  191MOL0     H25755   7.157   8.932   8.933 -2.6975 -4.6445 -2.1055
  191MOL0     H25756   7.197   8.891   8.772 -0.7904 -0.6968  1.3398
  191MOL0     H25757   7.019   9.117   8.856 -1.9298 -0.3048 -1.7311
  191MOL0     H25758   7.101   9.136   8.699 -2.3438  0.7328 -0.8792
  191MOL0     H25759   7.021   8.909   8.634 -3.3252 -0.9521 -0.5084
  191MOL0     H25760   6.899   9.035   8.645 -0.0574 -0.0694 -0.7578
  191MOL0     H25761   6.952   8.822   8.853 -0.1669 -3.5706 -3.6437
  191MOL0     H25762   6.831   8.956   8.858 -0.9845  0.9029 -0.7029
  191MOL0     H25763   6.812   8.749   8.638 -0.2947  1.4420 -1.3262
  191MOL0     H25764   6.696   8.857   8.674  1.4458  1.4982 -1.2658
  191MOL0     H25765   6.671   8.767   8.917 -0.1516 -0.7791  0.5221
  191MOL0     H25766   6.769   8.623   8.872 -4.1823 -2.4060 -1.0679
  191MOL0     H25767   7.593   8.875   9.109 -0.9328  0.5623  1.3132
  191MOL0     H25768   7.713   8.703   9.240  0.7962 -1.7985  0.2838
  191MOL0     H25769   7.960   8.390   9.168 -0.8366  2.3129  1.6431
  191MOL0     H25770   8.154   8.285   9.267 -0.2245  0.1556  0.8359
  191MOL0     H25771   9.599   8.107  10.362 -0.3047  1.0368 -0.3596
  191MOL0     H25772   9.849   8.081  10.391 -1.4792  0.2309 -0.8744
  191MOL0     H25773  10.269   8.164  10.305 -0.2670 -1.2398 -0.5059
  191MOL0     H25774  10.507   8.154  10.348 -0.6588  0.7482 -0.3628
  191MOL0     H25775  10.759   8.175  10.437 -0.8670 -0.1026  1.4023
  191MOL0     H25776  10.668   8.322  10.372  1.3352 -0.4511 -1.3446
  191MOL0     H25777  10.885   8.306  10.570 -1.0661 -0.9368 -0.6277
  191MOL0     H25778  10.811   8.464  10.517  2.5822 -0.0613  0.1615
  191MOL0     H25779  10.890   8.418  10.280  1.3362 -3.4765 -2.3975
  191MOL0     H25780  10.972   8.278  10.357  1.2386  0.3269  2.5265
  191MOL0     H25781  11.141   8.467  10.318  1.2177  0.5227  1.1804
  191MOL0     H25782  11.108   8.461  10.486  0.1385  0.3052  0.1178
  191MOL0     H25783  10.948   8.847  10.388 -2.2924  0.2450  1.5247
  191MOL0     H25784  10.447   8.349  10.727 -0.8020  0.1942  0.6934
  191MOL0     H25785  10.224   8.349  10.689  2.0089  0.1159  1.6828
  192MOL0     O25786   1.855   2.369   3.954 -0.1947  0.7979  1.3861
  192MOL0     C25787   1.807   2.430   4.049 -1.3864  0.3521  0.1925
  192MOL0     O25788   1.680   2.484   4.061 -0.2119 -0.4190  0.2320
  192MOL0     C25789   1.583   2.446   3.972  0.5131  0.0680  0.5704
  192MOL0     C25790   1.594   2.498   3.843  0.6505 -0.6597  0.6506
  192MOL0     C25791   1.502   2.462   3.736 -0.0677  0.0629 -0.1193
  192MOL0     C25792   1.394   2.377   3.770 -0.1650  0.1097 -1.0791
  192MOL0     O25793   1.311   2.330   3.674 -0.2930 -0.5529  0.2523
  192MOL0     C25794   1.219   2.221   3.692  0.5776 -0.4024 -0.6947
  192MOL0     C25795   1.138   2.206   3.564  0.2774  0.7627 -1.2265
  192MOL0     C25796   1.020   2.111   3.585  0.0030 -1.5341 -0.3442
  192MOL0     C25797   0.938   2.121   3.452  0.2243  0.1372  0.6709
  192MOL0     C25798   0.810   2.043   3.467 -0.1942 -0.5972 -0.2310
  192MOL0     C25799   0.744   2.001   3.332  0.2874 -0.4350  0.5539
  192MOL0     C25800   0.617   1.922   3.353  1.0885 -0.4130  0.0336
  192MOL0     C25801   0.507   2.008   3.433 -0.5657 -0.0530 -0.2439
  192MOL0     N25802   0.492   2.137   3.377  0.4690  1.0491  0.3008
  192MOL0     C25803   0.439   2.159   3.253 -0.0835 -0.3943  1.2779
  192MOL0     C25804   0.417   2.297   3.258  1.1542 -0.4987 -0.7470
  192MOL0     C25805   0.344   2.362   3.144  0.7997  0.6190  0.1702
  192MOL0     C25806   0.306   2.503   3.173  0.2143 -0.0225  0.2227
  192MOL0     C25807   0.243   2.589   3.064 -0.0370 -0.0764 -0.3336
  192MOL0     C25808   0.088   2.577   3.045  0.4309  0.0512  0.7752
  192MOL0     O25809   0.020   2.570   3.171  1.1003  0.0007  0.6219
  192MOL0     C25810  -0.117   2.564   3.178  0.1580  1.6880  0.5090
  192MOL0     C25811  -0.173   2.571   3.307  0.5377 -0.7295 -0.6814
  192MOL0     C25812  -0.310   2.556   3.330 -0.2799 -0.3403 -0.2643
  192MOL0     C25813  -0.351   2.533   3.475 -0.0491 -0.7095 -1.4029
  192MOL0     C25814  -0.400   2.567   3.223 -0.8666 -0.2969  0.0372
  192MOL0     C25815  -0.549   2.587   3.238  0.1041 -0.5084 -0.7700
  192MOL0     O25816  -0.611   2.646   3.136 -0.2891 -0.3191 -0.4719
  192MOL0     C25817  -0.739   2.703   3.162  0.3197 -0.3031  0.0820
  192MOL0     C25818  -0.763   2.825   3.223 -0.6154 -0.6665 -0.2874
  192MOL0     C25819  -0.883   2.892   3.230  0.1291  0.7944  0.6604
  192MOL0     C25820  -0.992   2.819   3.183 -0.2107 -0.0729  0.2351
  192MOL0     O25821  -1.118   2.873   3.173  0.3072 -0.0022 -0.8548
  192MOL0     C25822  -1.218   2.822   3.260  0.2038 -0.0524 -0.2625
  192MOL0     C25823  -1.352   2.880   3.222  0.6294 -0.9167 -0.8088
  192MOL0     C25824  -1.373   2.890   3.071 -0.3526 -0.7828 -0.2494
  192MOL0     C25825  -1.369   2.756   2.993 -0.8863 -0.2816  0.0204
  192MOL0     C25826  -1.393   2.783   2.845 -0.4409  0.3433 -0.1592
  192MOL0     C25827  -1.391   2.656   2.756  1.3255 -0.0387  1.0205
  192MOL0     C25828  -1.384   2.671   2.604  0.2703  0.2116  1.1519
  192MOL0     C25829  -1.526   2.691   2.540 -0.8574 -0.2032 -0.2252
  192MOL0    Cl25830  -1.524   2.685   2.357  0.4371 -0.5394 -0.0501
  192MOL0     C25831  -0.978   2.693   3.118  0.5007  0.2792 -0.3587
  192MOL0     C25832  -0.851   2.641   3.105  0.7615 -0.4284 -0.3677
  192MOL0     O25833  -0.599   2.557   3.345  0.0906  0.8430 -0.5191
  192MOL0     C25834  -0.344   2.557   3.097  0.7390  0.9782  0.3019
  192MOL0     C25835  -0.203   2.559   3.070  0.0495 -0.0657  0.7404
  192MOL0     N25836   0.456   2.344   3.379 -0.1240 -0.8997 -0.6982
  192MOL0     N25837   0.500   2.244   3.450 -0.6209 -0.6173 -0.1852
  192MOL0     C25838   1.375   2.338   3.904  0.3402  0.4346  0.2265
  192MOL0     C25839   1.470   2.372   3.999 -0.8502  0.4336 -0.1566
  192MOL0     C25840   1.897   2.452   4.169 -1.2140  0.0303  0.7199
  192MOL0     C25841   1.848   2.498   4.288 -0.8615  0.3921 -0.3554
  192MOL0     C25842   1.932   2.507   4.397  1.1498  0.3597  0.5934
  192MOL0     C25843   2.071   2.473   4.391  0.1433  0.2299 -0.2229
  192MOL0     O25844   2.165   2.493   4.492 -0.5701  0.1383 -0.0227
  192MOL0     C25845   2.126   2.576   4.611 -0.0192 -0.0795  0.7623
  192MOL0     C25846   2.239   2.592   4.710  0.8196 -0.1051  0.5744
  192MOL0     C25847   2.300   2.464   4.753 -0.8006  0.3856  0.2376
  192MOL0     C25848   2.229   2.399   4.874  1.2598 -0.5769  0.7498
  192MOL0     C25849   2.212   2.479   4.994 -0.3410 -0.0632  0.1941
  192MOL0     C25850   2.183   2.563   5.080 -0.4242 -0.1588 -0.2298
  192MOL0     C25851   2.119   2.431   4.270 -0.0477  0.1641  0.3291
  192MOL0     C25852   2.035   2.417   4.155  0.7047 -0.1305 -0.6997
  192MOL0     H25853   1.682   2.562   3.836 -0.6636  1.4490  2.2773
  192MOL0     H25854   1.511   2.505   3.637  0.3344  0.3132  0.0218
  192MOL0     H25855   1.258   2.125   3.729 -1.9466 -1.3167 -0.2055
  192MOL0     H25856   1.151   2.259   3.769  0.9828  0.1545 -0.6068
  192MOL0     H25857   1.104   2.303   3.527 -0.0716  0.9704 -0.3746
  192MOL0     H25858   1.196   2.161   3.483 -0.3520 -1.4750 -0.5069
  192MOL0     H25859   1.063   2.013   3.610  2.2557 -1.0360 -1.9075
  192MOL0     H25860   0.955   2.139   3.668 -1.0637  0.2810 -1.7077
  192MOL0     H25861   0.918   2.225   3.426  3.8527  0.8812  0.2579
  192MOL0     H25862   1.002   2.078   3.375 -0.3390  0.7115 -0.1309
  192MOL0     H25863   0.840   1.958   3.530  1.4251  0.8093  1.0252
  192MOL0     H25864   0.749   2.101   3.537  2.6300  2.2611  0.0718
  192MOL0     H25865   0.719   2.090   3.274  1.6982  0.3704  1.1545
  192MOL0     H25866   0.816   1.943   3.273  1.0391  1.0669 -0.0378
  192MOL0     H25867   0.580   1.890   3.255  0.6221  1.4473 -0.4262
  192MOL0     H25868   0.645   1.824   3.393  4.9679 -0.9983 -3.5307
  192MOL0     H25869   0.534   2.007   3.539 -0.7104 -0.4061 -0.2085
  192MOL0     H25870   0.406   1.965   3.427 -1.9879  2.9330  0.6690
  192MOL0     H25871   0.419   2.088   3.173  3.2260  0.1752 -0.2355
  192MOL0     H25872   0.410   2.370   3.057  1.5297  0.7713  0.7192
  192MOL0     H25873   0.255   2.305   3.120  0.4664  0.5510  1.4808
  192MOL0     H25874   0.401   2.549   3.201 -0.6247  2.2180 -0.3720
  192MOL0     H25875   0.241   2.511   3.261  0.2630  2.1497  0.1175
  192MOL0     H25876   0.306   2.559   2.980  1.6851 -2.4494  1.6355
  192MOL0     H25877   0.264   2.693   3.087 -4.5849  1.1367 -0.8373
  192MOL0     H25878   0.081   2.481   2.994  0.3719 -1.2275  3.0994
  192MOL0     H25879   0.042   2.657   2.986  1.6588  0.7529  0.7102
  192MOL0     H25880  -0.103   2.575   3.389  1.0558 -1.7436 -1.0608
  192MOL0     H25881  -0.402   2.625   3.506  0.9289  0.0981 -2.0761
  192MOL0     H25882  -0.425   2.457   3.500 -0.6377  0.1590 -0.4587
  192MOL0     H25883  -0.264   2.524   3.540 -0.4058  0.0840 -0.7969
  192MOL0     H25884  -0.674   2.858   3.276 -0.1691 -2.0098 -0.1576
  192MOL0     H25885  -0.892   2.993   3.269  2.4644  0.7797  1.3686
  192MOL0     H25886  -1.233   2.713   3.257 -4.0945 -0.1706  6.4752
  192MOL0     H25887  -1.197   2.853   3.362 -0.5486  2.4309 -0.8109
  192MOL0     H25888  -1.432   2.828   3.276  0.2393  0.7635  0.3109
  192MOL0     H25889  -1.358   2.981   3.264  0.4471  0.2252 -3.3752
  192MOL0     H25890  -1.293   2.953   3.031 -0.0947 -1.8565 -1.5321
  192MOL0     H25891  -1.465   2.943   3.044  0.5385  0.8907 -0.1445
  192MOL0     H25892  -1.270   2.714   3.013  0.0340  1.9236  0.4502
  192MOL0     H25893  -1.441   2.679   3.021  0.2500 -1.5588 -0.4707
  192MOL0     H25894  -1.314   2.842   2.798 -1.6187  1.1909 -1.1294
  192MOL0     H25895  -1.483   2.842   2.827 -2.2612 -1.8344  1.1646
  192MOL0     H25896  -1.292   2.613   2.777  2.5297  2.0684 -0.0168
  192MOL0     H25897  -1.471   2.586   2.782 -0.7855  1.6272 -0.6335
  192MOL0     H25898  -1.349   2.579   2.558 -0.8850 -0.0978  0.8584
  192MOL0     H25899  -1.317   2.753   2.576 -0.2179  0.2957  0.1950
  192MOL0     H25900  -1.558   2.792   2.566 -1.9962  0.0941 -2.5388
  192MOL0     H25901  -1.601   2.615   2.567 -0.9250  0.0072  0.1866
  192MOL0     H25902  -1.058   2.649   3.060  1.1376  2.1424 -2.8865
  192MOL0     H25903  -0.843   2.563   3.030  0.6654  0.8807 -1.7785
  192MOL0     H25904  -0.415   2.558   3.015  2.2207  0.1606 -1.0713
  192MOL0     H25905  -0.170   2.565   2.967  1.5756 -0.6128  1.1684
  192MOL0     H25906   1.294   2.275   3.940  3.1357 -3.7299 -0.1061
  192MOL0     H25907   1.463   2.321   4.094 -0.2091  0.9261  0.1592
  192MOL0     H25908   1.739   2.503   4.290 -0.9557 -1.3128  1.0996
  192MOL0     H25909   1.899   2.542   4.495  3.1412 -0.1202  1.4870
  192MOL0     H25910   2.092   2.675   4.578 -2.1071 -0.6239  1.1028
  192MOL0     H25911   2.037   2.524   4.648 -1.1166  0.5198 -0.8704
  192MOL0     H25912   2.204   2.660   4.788  0.9354  0.8970 -0.2239
  192MOL0     H25913   2.323   2.642   4.660  0.0630  0.4437 -0.1715
  192MOL0     H25914   2.402   2.489   4.783 -0.7620  2.2473 -1.2273
  192MOL0     H25915   2.316   2.390   4.675  0.7416 -0.1331  1.0124
  192MOL0     H25916   2.278   2.302   4.892 -2.2282 -4.0377 -5.0109
  192MOL0     H25917   2.127   2.385   4.835  0.3941 -0.9567  3.0168
  192MOL0     H25918   2.166   2.643   5.150 -0.4660 -0.3204 -0.0562
  192MOL0     H25919   2.222   2.400   4.255  0.4722  1.5101  0.9362
  192MOL0     H25920   2.081   2.382   4.063  0.4958  1.4045 -1.4173
  193MOL0     O25921   7.198   3.956   5.860 -0.1787 -0.6093  0.2031
  193MOL0     C25922   7.243   4.053   5.794 -0.4641  0.4271  0.5566
  193MOL0     O25923   7.178   4.123   5.692 -0.2246  0.4967  0.5842
  193MOL0     C25924   7.055   4.108   5.644  0.3735 -0.3216 -1.0187
  193MOL0     C25925   6.973   4.217   5.633 -0.6194 -0.3158  0.3936
  193MOL0     C25926   6.846   4.213   5.574  0.6324 -0.4073 -0.1202
  193MOL0     C25927   6.799   4.089   5.527 -0.3381 -1.4347  0.4086
  193MOL0     O25928   6.677   4.082   5.465  0.3701  0.2595 -0.6639
  193MOL0     C25929   6.598   4.199   5.458 -0.3299  0.3996 -0.4735
  193MOL0     C25930   6.461   4.179   5.389  0.2765 -0.0224  0.3753
  193MOL0     C25931   6.371   4.102   5.485  0.3622 -0.4137  0.0791
  193MOL0     C25932   6.224   4.139   5.438 -1.1031  0.4594 -0.8006
  193MOL0     C25933   6.117   4.047   5.516 -0.2560  0.2762 -0.6154
  193MOL0     C25934   5.974   4.111   5.498  0.4047  0.2488  0.6155
  193MOL0     C25935   5.941   4.131   5.349 -0.3831 -0.2858  0.6777
  193MOL0     C25936   5.790   4.156   5.341 -0.6392 -0.1471  1.3860
  193MOL0     N25937   5.740   4.173   5.205 -0.6630 -0.1369  0.9695
  193MOL0     C25938   5.774   4.273   5.115  0.5237 -0.2250  0.8572
  193MOL0     C25939   5.696   4.251   5.002 -0.7622 -0.1752  0.3106
  193MOL0     C25940   5.664   4.347   4.886 -0.0386 -0.6077  1.0219
  193MOL0     C25941   5.602   4.483   4.915 -0.7731 -0.3249 -0.0108
  193MOL0     C25942   5.586   4.579   4.792 -0.9480 -0.3635  0.0703
  193MOL0     C25943   5.511   4.708   4.830  0.0254 -0.3591  0.7033
  193MOL0     O25944   5.369   4.674   4.831  0.4114 -0.5935 -0.2857
  193MOL0     C25945   5.280   4.772   4.876 -0.9342 -0.5448 -0.4282
  193MOL0     C25946   5.311   4.906   4.898 -0.8657  0.4216  0.4415
  193MOL0     C25947   5.211   4.998   4.929  0.0840 -0.3110  0.3983
  193MOL0     C25948   5.253   5.139   4.972  0.4648 -0.5844  0.0619
  193MOL0     C25949   5.075   4.962   4.913  0.4003  0.3587  0.6460
  193MOL0     C25950   4.954   5.053   4.920  0.1944 -0.3655 -0.8431
  193MOL0     O25951   4.833   4.992   4.935  0.4432 -0.6667  0.2467
  193MOL0     C25952   4.724   5.059   4.892 -0.0282  0.5671 -0.2512
  193MOL0     C25953   4.639   4.975   4.812  0.6094 -0.6523  0.0460
  193MOL0     C25954   4.525   5.032   4.760  0.5722  0.8871 -0.1914
  193MOL0     C25955   4.487   5.156   4.799 -0.7749  0.8840 -0.0797
  193MOL0     O25956   4.364   5.198   4.744 -0.4481  0.4178 -0.5642
  193MOL0     C25957   4.330   5.338   4.752  0.3193  0.1360  0.0754
  193MOL0     C25958   4.219   5.385   4.652  0.8294  0.1515 -1.2046
  193MOL0     C25959   4.085   5.313   4.672  0.3406  0.3460 -0.5095
  193MOL0     C25960   3.994   5.370   4.784  0.1171  0.0992  0.2776
  193MOL0     C25961   3.923   5.254   4.864  0.5471 -0.0641  0.4409
  193MOL0     C25962   3.830   5.162   4.798 -0.1319 -0.0017 -0.2805
  193MOL0     C25963   3.697   5.225   4.751 -0.5132  0.5547 -0.8352
  193MOL0     C25964   3.599   5.103   4.717 -0.6529  0.5270 -0.4777
  193MOL0    Cl25965   3.533   5.023   4.863  0.0694 -0.2540 -0.1232
  193MOL0     C25966   4.569   5.239   4.877 -0.0363 -0.9748 -0.6662
  193MOL0     C25967   4.696   5.191   4.926 -0.4078  0.3607  0.4861
  193MOL0     O25968   4.975   5.170   4.905  0.1818 -0.7161  0.2575
  193MOL0     C25969   5.048   4.826   4.888  0.1023 -0.2061 -0.0562
  193MOL0     C25970   5.150   4.734   4.872 -0.3047  0.1954 -0.7852
  193MOL0     N25971   5.643   4.129   5.017 -0.3324  0.7998 -0.8333
  193MOL0     N25972   5.669   4.082   5.135 -0.9408  0.8139 -0.3481
  193MOL0     C25973   6.881   3.980   5.531 -0.1843  0.8444  0.0325
  193MOL0     C25974   7.009   3.990   5.584  1.1174 -0.8235 -0.8021
  193MOL0     C25975   7.387   4.087   5.813 -0.3472  0.2251  0.9847
  193MOL0     C25976   7.463   3.993   5.891 -0.0003 -0.4059 -0.5385
  193MOL0     C25977   7.600   4.017   5.917  0.2282  0.0550 -0.6670
  193MOL0     C25978   7.663   4.123   5.855  0.1095 -0.0901  0.3029
  193MOL0     O25979   7.793   4.128   5.884 -0.0067  0.2275 -0.0446
  193MOL0     C25980   7.874   4.237   5.836  0.9487 -0.5667  0.4623
  193MOL0     C25981   7.880   4.357   5.933 -0.3538  0.1603 -1.2579
  193MOL0     C25982   7.972   4.466   5.872 -0.2339  0.9560 -1.7585
  193MOL0     C25983   8.116   4.471   5.925 -0.3493  0.6273  0.0917
  193MOL0     C25984   8.132   4.484   6.065  0.6279  0.2441  0.0808
  193MOL0     C25985   8.152   4.488   6.182 -0.1626 -0.3532  0.0481
  193MOL0     C25986   7.585   4.212   5.769 -0.6588 -0.0622 -0.3056
  193MOL0     C25987   7.449   4.195   5.750 -0.8739  0.2141 -0.0739
  193MOL0     H25988   6.998   4.319   5.663 -1.0368  0.3080 -1.3053
  193MOL0     H25989   6.801   4.311   5.566 -0.8294 -1.2212 -2.9472
  193MOL0     H25990   6.580   4.234   5.560  0.7391 -2.1847  0.6993
  193MOL0     H25991   6.659   4.277   5.412  1.8599 -0.1573  1.3419
  193MOL0     H25992   6.416   4.276   5.368 -0.3146 -0.4844 -0.5518
  193MOL0     H25993   6.476   4.139   5.288 -2.2593  1.2763 -0.5971
  193MOL0     H25994   6.399   3.996   5.489 -0.5215 -0.6291  1.3132
  193MOL0     H25995   6.387   4.141   5.586 -0.7215  1.1088 -0.2985
  193MOL0     H25996   6.207   4.244   5.462 -0.0752  0.6956 -1.0647
  193MOL0     H25997   6.213   4.127   5.329  3.2487  3.5970 -1.8404
  193MOL0     H25998   6.122   3.943   5.483 -3.0204  0.0601 -0.5840
  193MOL0     H25999   6.142   4.043   5.622 -0.6983  2.8279 -0.3466
  193MOL0     H26000   5.904   4.048   5.553 -0.4401  1.5061  1.0378
  193MOL0     H26001   5.966   4.212   5.540 -2.3834  0.2177  0.3608
  193MOL0     H26002   5.994   4.223   5.322  1.5116 -1.0298  1.6345
  193MOL0     H26003   5.974   4.048   5.285 -2.4941  0.8475 -2.0447
  193MOL0     H26004   5.753   4.232   5.410 -1.8747 -0.6973  1.3514
  193MOL0     H26005   5.739   4.066   5.376 -3.1341  1.5902  2.5094
  193MOL0     H26006   5.827   4.364   5.139  1.0139 -0.9819  2.8634
  193MOL0     H26007   5.760   4.350   4.834 -1.0753 -4.0340 -1.4733
  193MOL0     H26008   5.586   4.310   4.819 -0.8792  0.8386  1.1746
  193MOL0     H26009   5.666   4.538   4.984 -1.9707 -0.1868  1.0094
  193MOL0     H26010   5.504   4.473   4.961 -2.0233  0.2201 -2.3618
  193MOL0     H26011   5.529   4.538   4.708 -1.8786  0.4875  0.2634
  193MOL0     H26012   5.687   4.613   4.766 -0.7978  1.5940  2.7921
  193MOL0     H26013   5.515   4.784   4.752  0.1512  0.2667  1.3046
  193MOL0     H26014   5.544   4.752   4.925 -0.5385  1.1490  0.2334
  193MOL0     H26015   5.416   4.934   4.897  0.0751 -2.7072  1.0513
  193MOL0     H26016   5.189   5.177   5.053  0.6678  1.6665 -0.7595
  193MOL0     H26017   5.356   5.132   5.008 -0.4357 -0.4165  2.9094
  193MOL0     H26018   5.250   5.209   4.888 -1.2666 -0.3124  0.3192
  193MOL0     H26019   4.666   4.874   4.786 -1.5424 -0.9244 -1.3848
  193MOL0     H26020   4.461   4.980   4.690  0.5654  0.2370  0.2851
  193MOL0     H26021   4.306   5.362   4.856  2.1073 -2.1342  1.0722
  193MOL0     H26022   4.418   5.393   4.717 -0.3074 -0.5357 -2.7706
  193MOL0     H26023   4.211   5.494   4.656 -2.4748 -0.0196  0.1918
  193MOL0     H26024   4.261   5.363   4.554  2.6363  1.2421 -0.7207
  193MOL0     H26025   4.107   5.207   4.686  0.0230  0.3749  0.2710
  193MOL0     H26026   4.039   5.312   4.573  0.9643 -2.7910 -0.8801
  193MOL0     H26027   4.043   5.435   4.856 -1.3743  2.7926 -0.9887
  193MOL0     H26028   3.922   5.441   4.741  2.1005  0.7459 -2.2083
  193MOL0     H26029   3.872   5.300   4.949  1.6336 -1.3206  1.8402
  193MOL0     H26030   4.009   5.193   4.892  0.9825  1.2489  2.2028
  193MOL0     H26031   3.888   5.110   4.720 -0.5242 -0.3967 -0.3115
  193MOL0     H26032   3.804   5.090   4.876  2.0813 -0.3431  0.2232
  193MOL0     H26033   3.713   5.279   4.658 -1.5659 -0.5054 -1.6563
  193MOL0     H26034   3.653   5.290   4.828  0.2376 -0.5977  0.6109
  193MOL0     H26035   3.649   5.030   4.654  3.0372  2.6981 -0.3940
  193MOL0     H26036   3.513   5.145   4.663 -1.6963 -1.6496 -0.6000
  193MOL0     H26037   4.547   5.340   4.908 -1.6788 -1.2052 -1.0032
  193MOL0     H26038   4.768   5.249   4.981  0.7999 -0.8617  0.2494
  193MOL0     H26039   4.949   4.782   4.900  0.5232 -0.8441  1.1939
  193MOL0     H26040   5.130   4.628   4.856 -0.9780  0.6612 -3.6153
  193MOL0     H26041   6.845   3.891   5.480 -2.3225  2.2883 -1.1266
  193MOL0     H26042   7.074   3.903   5.588  3.3549  0.6635 -2.3983
  193MOL0     H26043   7.413   3.910   5.939 -0.9761 -0.0277 -0.8688
  193MOL0     H26044   7.636   3.954   5.997 -0.9997 -1.5261 -1.2955
  193MOL0     H26045   7.976   4.200   5.818  0.8098 -0.0430 -1.5784
  193MOL0     H26046   7.838   4.271   5.739  0.0236 -0.0135  0.9927
  193MOL0     H26047   7.909   4.326   6.034 -3.0133  1.4968  0.0127
  193MOL0     H26048   7.778   4.396   5.939 -1.3293 -2.1888 -1.1725
  193MOL0     H26049   7.936   4.564   5.902 -0.5018  0.3285  0.1362
  193MOL0     H26050   7.964   4.461   5.763 -0.0217  1.5789 -1.8044
  193MOL0     H26051   8.152   4.560   5.873 -0.8439  0.9609  0.3094
  193MOL0     H26052   8.167   4.379   5.896 -0.7913  0.7808 -1.2503
  193MOL0     H26053   8.170   4.498   6.287  1.8370  0.8740 -0.3439
  193MOL0     H26054   7.632   4.299   5.724  0.7054 -1.1823 -1.1884
  193MOL0     H26055   7.407   4.256   5.671  0.6814  1.0497 -0.3036
  194MOL0     O26056   5.722   4.325   3.378  0.3150 -0.3640 -0.2248
  194MOL0     C26057   5.706   4.205   3.410 -0.1384  0.1979 -0.6561
  194MOL0     O26058   5.589   4.138   3.420 -0.4684  0.0494 -0.5384
  194MOL0     C26059   5.468   4.206   3.399  0.4431 -0.0465  0.5277
  194MOL0     C26060   5.417   4.269   3.280  0.1657 -0.1189 -0.3689
  194MOL0     C26061   5.289   4.308   3.261 -0.6701 -0.0971 -0.5428
  194MOL0     C26062   5.190   4.286   3.360  0.0237  0.6199  0.4848
  194MOL0     O26063   5.065   4.335   3.346  0.3523 -0.6062  0.3339
  194MOL0     C26064   4.958   4.233   3.351 -0.0031  0.3772 -0.2312
  194MOL0     C26065   4.825   4.295   3.380 -0.1184  0.7120  0.2327
  194MOL0     C26066   4.791   4.389   3.267 -0.4231 -0.7980 -0.3790
  194MOL0     C26067   4.662   4.456   3.306 -0.4409 -0.2487 -0.0967
  194MOL0     C26068   4.607   4.531   3.177 -0.7281  1.0954 -0.1684
  194MOL0     C26069   4.474   4.588   3.210  0.5546  0.1152  0.0373
  194MOL0     C26070   4.364   4.493   3.194  1.0430  0.5696 -0.3031
  194MOL0     C26071   4.232   4.556   3.162 -1.0555  0.2427  0.5405
  194MOL0     N26072   4.116   4.471   3.182  0.7379  0.6914  0.0130
  194MOL0     C26073   4.080   4.361   3.099 -0.7893 -0.1667 -0.3218
  194MOL0     C26074   3.949   4.334   3.129  0.6865  0.4406  0.0907
  194MOL0     C26075   3.868   4.218   3.070 -0.0023 -0.0516 -0.2643
  194MOL0     C26076   3.823   4.242   2.931  0.1037 -0.1269 -0.1199
  194MOL0     C26077   3.727   4.126   2.891 -0.4660  0.1868 -0.1986
  194MOL0     C26078   3.587   4.123   2.948  0.5509 -0.6322  0.5492
  194MOL0     O26079   3.511   4.238   2.904 -0.3749 -0.4685 -0.2718
  194MOL0     C26080   3.395   4.233   2.982 -0.1747 -0.5793  0.3491
  194MOL0     C26081   3.378   4.277   3.120  0.0446 -0.2949  0.0867
  194MOL0     C26082   3.260   4.255   3.194  0.2232 -0.8044 -0.5626
  194MOL0     C26083   3.281   4.269   3.349 -0.6989  0.4947  0.3432
  194MOL0     C26084   3.140   4.233   3.136  0.9608  0.0500 -0.6496
  194MOL0     C26085   2.999   4.242   3.193 -0.2711  0.1978  0.1691
  194MOL0     O26086   2.896   4.178   3.122  0.1140 -0.1492  0.7206
  194MOL0     C26087   2.765   4.180   3.176 -0.4276  1.0768 -0.8612
  194MOL0     C26088   2.745   4.093   3.283  0.0393 -0.3372 -0.0616
  194MOL0     C26089   2.616   4.060   3.319 -0.6270 -0.1809 -0.7362
  194MOL0     C26090   2.501   4.134   3.265  0.5789  0.2936  0.3764
  194MOL0     O26091   2.375   4.116   3.321 -0.2877  0.0356 -0.2317
  194MOL0     C26092   2.268   4.138   3.219  0.5641  1.2655  0.1431
  194MOL0     C26093   2.125   4.100   3.266 -0.0054  0.4251  0.7965
  194MOL0     C26094   2.028   4.121   3.149 -0.1221 -0.8345  0.0760
  194MOL0     C26095   1.891   4.079   3.184  0.2031  0.5058  0.3396
  194MOL0     C26096   1.798   4.110   3.063 -0.5199  0.4138  0.3149
  194MOL0     C26097   1.655   4.061   3.077 -0.4819 -0.4253 -0.2392
  194MOL0     C26098   1.626   3.913   3.098 -0.0571 -0.1374  0.4771
  194MOL0     C26099   1.485   3.873   3.046 -0.2816 -0.0540 -0.3048
  194MOL0    Cl26100   1.495   3.843   2.874  0.6548 -0.2773 -0.1383
  194MOL0     C26101   2.530   4.231   3.165  0.3211 -0.6858 -0.4996
  194MOL0     C26102   2.663   4.241   3.114  0.1564 -1.0400 -0.1825
  194MOL0     O26103   2.987   4.283   3.305 -0.4661 -0.0172  0.1821
  194MOL0     C26104   3.147   4.187   3.003 -0.2799  0.8963 -0.3327
  194MOL0     C26105   3.268   4.188   2.935 -0.2209 -0.5662 -0.5753
  194MOL0     N26106   3.905   4.429   3.215  0.0721  0.0156  0.0842
  194MOL0     N26107   4.002   4.512   3.250 -0.2507  0.1553  0.1784
  194MOL0     C26108   5.239   4.234   3.487 -0.6659 -1.3938 -0.2277
  194MOL0     C26109   5.369   4.189   3.502 -0.1523 -0.3064 -0.3473
  194MOL0     C26110   5.836   4.140   3.450  0.2665  0.0028  0.4999
  194MOL0     C26111   5.946   4.219   3.468 -0.4803 -0.1190 -0.6017
  194MOL0     C26112   6.067   4.162   3.483  0.2821 -0.9151  0.4642
  194MOL0     C26113   6.087   4.024   3.487  0.5262 -1.2275 -0.1162
  194MOL0     O26114   6.205   3.979   3.521  0.4927 -0.1448  0.3713
  194MOL0     C26115   6.227   3.831   3.513 -0.5694 -0.0023  0.5978
  194MOL0     C26116   6.374   3.798   3.537  0.3294 -1.6005 -0.3322
  194MOL0     C26117   6.400   3.652   3.531 -0.0668 -0.0025 -0.1224
  194MOL0     C26118   6.553   3.633   3.515  0.4560  0.5381  1.0895
  194MOL0     C26119   6.607   3.679   3.390 -0.2521  0.3100 -0.1605
  194MOL0     C26120   6.634   3.712   3.275  0.4539  0.3817 -0.1771
  194MOL0     C26121   5.977   3.947   3.485 -0.1920 -0.3580  0.0542
  194MOL0     C26122   5.850   3.998   3.466  0.3744 -0.3665 -0.1879
  194MOL0     H26123   5.484   4.294   3.198  0.1467  0.4778 -0.2060
  194MOL0     H26124   5.255   4.362   3.172 -3.5944  1.8549  1.5630
  194MOL0     H26125   4.944   4.177   3.258 -0.8504  0.9384 -0.4561
  194MOL0     H26126   4.984   4.166   3.434  0.1622  0.6070 -0.0990
  194MOL0     H26127   4.748   4.217   3.380 -0.5757  1.1180 -1.4628
  194MOL0     H26128   4.827   4.347   3.477  0.8041  1.4950 -0.1863
  194MOL0     H26129   4.867   4.465   3.247 -2.2155  0.2416 -4.0299
  194MOL0     H26130   4.779   4.332   3.175 -3.2603  0.8683 -1.1577
  194MOL0     H26131   4.585   4.395   3.354 -2.7144  2.5860  0.1034
  194MOL0     H26132   4.661   4.546   3.368 -2.8207 -0.6423  0.5277
  194MOL0     H26133   4.679   4.612   3.156  2.4258 -1.5396 -0.3765
  194MOL0     H26134   4.609   4.476   3.082 -0.7305  0.7487  0.0301
  194MOL0     H26135   4.462   4.640   3.306 -1.6698 -0.3789  0.0690
  194MOL0     H26136   4.465   4.664   3.132  1.2473 -1.1399 -1.2992
  194MOL0     H26137   4.373   4.422   3.112 -1.3827 -0.2213  0.0380
  194MOL0     H26138   4.358   4.438   3.289 -0.0606  1.6583  0.2857
  194MOL0     H26139   4.232   4.591   3.059 -0.8566 -0.6445  0.2329
  194MOL0     H26140   4.227   4.650   3.218  1.9010  1.0722 -0.4136
  194MOL0     H26141   4.144   4.316   3.023 -3.2509 -2.7231 -1.0315
  194MOL0     H26142   3.922   4.125   3.088  1.4502  1.0019  1.1137
  194MOL0     H26143   3.778   4.218   3.132  0.5497  0.3640  0.5515
  194MOL0     H26144   3.912   4.234   2.868  2.2549  0.4845  2.6333
  194MOL0     H26145   3.778   4.340   2.916 -1.4191 -0.9922 -1.5681
  194MOL0     H26146   3.770   4.029   2.917  0.0747  0.6501  0.6743
  194MOL0     H26147   3.716   4.123   2.782  0.6084  0.0930 -0.3227
  194MOL0     H26148   3.601   4.113   3.056 -2.0949 -1.5471  0.8880
  194MOL0     H26149   3.538   4.030   2.917  1.2282 -0.6324 -0.5842
  194MOL0     H26150   3.461   4.323   3.172 -0.5022 -0.5728  1.2231
  194MOL0     H26151   3.246   4.184   3.408 -0.3803  1.4835  2.0152
  194MOL0     H26152   3.383   4.291   3.380 -2.2333  3.3640  4.2283
  194MOL0     H26153   3.222   4.359   3.367 -0.2866  1.3389 -2.1343
  194MOL0     H26154   2.835   4.056   3.331  0.8173  1.3141 -0.1820
  194MOL0     H26155   2.595   3.983   3.393 -3.1034  1.0504 -0.0278
  194MOL0     H26156   2.251   4.245   3.204 -2.5336  0.8289  0.0649
  194MOL0     H26157   2.292   4.086   3.126 -2.2650  0.5088 -0.2316
  194MOL0     H26158   2.112   3.998   3.303 -4.1280 -0.2471 -1.8740
  194MOL0     H26159   2.095   4.169   3.345  1.2890 -0.0208  1.7052
  194MOL0     H26160   2.065   4.089   3.051  4.0183  0.1634  1.1318
  194MOL0     H26161   2.010   4.228   3.135 -0.4274 -0.9549 -0.5204
  194MOL0     H26162   1.875   3.974   3.210  0.1797 -0.1113 -1.9647
  194MOL0     H26163   1.864   4.136   3.274 -1.5000 -1.0298  0.8696
  194MOL0     H26164   1.840   4.074   2.969 -0.9766 -2.1385  1.0233
  194MOL0     H26165   1.799   4.219   3.052 -2.0037  0.3400 -0.8843
  194MOL0     H26166   1.610   4.110   3.164 -0.6208 -0.6582 -0.1795
  194MOL0     H26167   1.602   4.094   2.988  0.4963 -0.2521 -0.7703
  194MOL0     H26168   1.630   3.893   3.205 -2.9525 -0.9164  0.5294
  194MOL0     H26169   1.691   3.843   3.044  0.5356  1.8177 -1.4931
  194MOL0     H26170   1.405   3.940   3.078 -1.5219 -2.1592  1.3073
  194MOL0     H26171   1.458   3.785   3.105  2.6334  0.8430  2.6789
  194MOL0     H26172   2.463   4.296   3.109  2.5217  1.0954 -1.2136
  194MOL0     H26173   2.678   4.297   3.022 -3.2795  1.6402  0.6774
  194MOL0     H26174   3.065   4.140   2.951 -0.2395 -0.3296  0.6810
  194MOL0     H26175   3.285   4.150   2.834 -0.4678 -0.5833 -0.6099
  194MOL0     H26176   5.172   4.236   3.572  1.1647  2.9031  1.4057
  194MOL0     H26177   5.401   4.136   3.591 -0.4390 -1.6283 -1.0146
  194MOL0     H26178   5.945   4.327   3.473  2.2738 -0.0853  0.8824
  194MOL0     H26179   6.146   4.228   3.518  0.6350 -0.9358 -0.2701
  194MOL0     H26180   6.166   3.782   3.590  0.5517  0.7320  2.0152
  194MOL0     H26181   6.198   3.798   3.414  1.4145  0.1077 -0.0580
  194MOL0     H26182   6.404   3.838   3.635  1.2573 -1.4858 -0.6486
  194MOL0     H26183   6.430   3.859   3.465 -0.7857  2.5586  2.0001
  194MOL0     H26184   6.355   3.601   3.445  3.8181 -1.1970 -1.6463
  194MOL0     H26185   6.367   3.603   3.623  3.2771 -1.8533  0.2305
  194MOL0     H26186   6.594   3.533   3.528 -0.3476 -0.1805 -1.3001
  194MOL0     H26187   6.594   3.681   3.604 -1.8084 -1.4581  3.3357
  194MOL0     H26188   6.650   3.744   3.174  2.9922 -2.2360 -0.7333
  194MOL0     H26189   5.983   3.840   3.502 -0.9003 -0.3295  0.5018
  194MOL0     H26190   5.762   3.936   3.452  0.8431 -0.7877 -1.4023
  195MOL0     O26191   7.931   0.888   3.709  0.3778  0.7245 -0.0338
  195MOL0     C26192   7.891   0.803   3.795  0.2573  0.2553 -1.0539
  195MOL0     O26193   7.774   0.728   3.792 -1.2992  0.5684  0.1011
  195MOL0     C26194   7.693   0.723   3.679  0.5739  0.0771 -0.5396
  195MOL0     C26195   7.717   0.773   3.548 -0.4511  0.4892  0.5719
  195MOL0     C26196   7.630   0.766   3.447 -0.3131  0.3115 -0.2699
  195MOL0     C26197   7.515   0.698   3.472 -0.0666 -0.1893  0.4924
  195MOL0     O26198   7.429   0.691   3.367  0.1229 -0.2043 -0.0467
  195MOL0     C26199   7.297   0.643   3.399 -0.1069 -0.5631  0.3113
  195MOL0     C26200   7.189   0.688   3.292 -0.1320  0.7364  0.0226
  195MOL0     C26201   7.044   0.700   3.356  0.2887  0.3979 -0.6055
  195MOL0     C26202   6.982   0.565   3.403  0.4941 -0.3176  0.1775
  195MOL0     C26203   6.962   0.455   3.295 -0.4030  0.5798 -0.2191
  195MOL0     C26204   6.875   0.500   3.170  0.4971 -0.0554 -0.2180
  195MOL0     C26205   6.740   0.561   3.204 -0.1548  0.0767 -0.2169
  195MOL0     C26206   6.648   0.580   3.081  0.6629 -0.6586  0.1541
  195MOL0     N26207   6.516   0.629   3.143  0.1151  0.0023  0.6717
  195MOL0     C26208   6.481   0.756   3.178 -1.4494 -0.0361  0.0265
  195MOL0     C26209   6.349   0.752   3.217 -0.3098 -0.3544 -0.1618
  195MOL0     C26210   6.267   0.881   3.241 -0.8107 -0.0967  0.5296
  195MOL0     C26211   6.118   0.847   3.249 -0.6204 -0.2686 -0.0093
  195MOL0     C26212   6.038   0.974   3.262 -0.3373 -0.0386  0.3897
  195MOL0     C26213   5.886   0.964   3.269  0.2459 -0.4409 -0.4533
  195MOL0     O26214   5.829   0.901   3.386 -0.5114  0.1549  0.2673
  195MOL0     C26215   5.693   0.885   3.391 -1.1423  0.1448  0.5210
  195MOL0     C26216   5.641   0.805   3.495  0.3151 -0.0704 -0.5624
  195MOL0     C26217   5.502   0.796   3.497 -0.3781 -0.3055  0.5708
  195MOL0     C26218   5.457   0.702   3.608  0.2841  0.4591  0.5778
  195MOL0     C26219   5.413   0.868   3.412 -1.0514  0.1085 -0.8966
  195MOL0     C26220   5.275   0.849   3.427 -1.3056 -0.5691  0.3666
  195MOL0     O26221   5.207   0.728   3.409  0.0223 -0.2342 -0.8265
  195MOL0     C26222   5.073   0.720   3.437 -0.3957  2.0095 -0.7932
  195MOL0     C26223   5.024   0.605   3.390  0.8554  0.8612 -1.1577
  195MOL0     C26224   4.895   0.568   3.432 -0.0764  0.3602  0.9924
  195MOL0     C26225   4.806   0.647   3.497  0.4393 -0.8827  0.2578
  195MOL0     O26226   4.671   0.614   3.530 -0.6283  0.2146 -0.1298
  195MOL0     C26227   4.597   0.519   3.448 -0.2517 -0.2372 -0.4951
  195MOL0     C26228   4.451   0.510   3.472  0.2528  0.2337  0.2021
  195MOL0     C26229   4.413   0.549   3.612 -0.6707 -0.3927 -0.3108
  195MOL0     C26230   4.276   0.492   3.653 -0.4575  0.1188 -0.1516
  195MOL0     C26231   4.241   0.519   3.801 -0.3630  0.8742  0.3487
  195MOL0     C26232   4.241   0.673   3.826  0.4799 -0.0652 -0.6752
  195MOL0     C26233   4.201   0.709   3.979 -0.0816  0.3078 -0.8723
  195MOL0     C26234   4.075   0.782   3.995 -0.1953 -0.0999 -0.0760
  195MOL0    Cl26235   4.096   0.943   3.910  0.5523  0.0640 -0.1226
  195MOL0     C26236   4.868   0.764   3.545 -0.6974  1.0062 -0.0551
  195MOL0     C26237   4.997   0.798   3.518  0.3625  1.0984 -0.2146
  195MOL0     O26238   5.217   0.961   3.433 -0.0526 -0.2931  0.0965
  195MOL0     C26239   5.471   0.946   3.314 -0.8677  0.2499 -0.3667
  195MOL0     C26240   5.613   0.958   3.306  0.8258  0.5684 -0.2658
  195MOL0     N26241   6.310   0.626   3.196  0.2137  1.0155  0.9181
  195MOL0     N26242   6.403   0.563   3.144  0.5043  0.0740  0.3477
  195MOL0     C26243   7.490   0.632   3.597  0.3605 -0.8680  1.0254
  195MOL0     C26244   7.579   0.643   3.701  0.3330 -0.3303  0.1916
  195MOL0     C26245   7.964   0.800   3.928  0.8696  0.1381  0.7077
  195MOL0     C26246   7.971   0.676   3.991  0.6234 -0.0531  0.0312
  195MOL0     C26247   8.052   0.649   4.098 -0.6457 -0.1021  0.3198
  195MOL0     C26248   8.130   0.749   4.157  0.2676 -0.2696  0.3735
  195MOL0     O26249   8.213   0.738   4.263  0.3339  0.0632 -0.7180
  195MOL0     C26250   8.246   0.602   4.305  0.4583  0.0762 -0.4155
  195MOL0     C26251   8.356   0.548   4.215 -0.3367 -0.6973  0.1961
  195MOL0     C26252   8.496   0.600   4.256 -0.7763  0.3334  0.3824
  195MOL0     C26253   8.610   0.502   4.231 -0.0762  0.4734  0.7241
  195MOL0     C26254   8.621   0.404   4.334  0.5574  0.3361  0.7027
  195MOL0     C26255   8.628   0.327   4.423  0.1715 -0.2842 -0.9785
  195MOL0     C26256   8.119   0.886   4.106 -0.3212  0.2680 -0.5304
  195MOL0     C26257   8.034   0.911   3.990 -0.8969  0.6442 -0.4589
  195MOL0     H26258   7.816   0.807   3.520  0.2668 -1.5996  0.4291
  195MOL0     H26259   7.655   0.806   3.349  0.2370 -0.9315 -0.6493
  195MOL0     H26260   7.309   0.534   3.397 -1.2822 -0.6996 -0.1065
  195MOL0     H26261   7.273   0.681   3.498  2.7204 -1.7529  1.5860
  195MOL0     H26262   7.228   0.784   3.257 -1.8614  1.5610  0.2481
  195MOL0     H26263   7.174   0.623   3.206  0.8675 -0.5166  0.7681
  195MOL0     H26264   7.043   0.773   3.438  1.0075 -0.8077  0.5107
  195MOL0     H26265   6.983   0.742   3.275  0.6997 -0.0370 -1.1407
  195MOL0     H26266   7.053   0.529   3.478 -2.8319 -0.5495  3.4709
  195MOL0     H26267   6.894   0.581   3.466  0.7620 -2.0242  1.0242
  195MOL0     H26268   7.063   0.439   3.257  0.5510 -0.6471  2.5724
  195MOL0     H26269   6.926   0.358   3.331  1.4468 -0.2419 -0.4836
  195MOL0     H26270   6.939   0.563   3.107  0.8298  0.9084  1.0273
  195MOL0     H26271   6.859   0.413   3.107 -0.9451  2.5745 -3.8450
  195MOL0     H26272   6.693   0.518   3.292 -0.2194  4.0292  1.9030
  195MOL0     H26273   6.779   0.657   3.239  2.2391 -1.8126  2.7646
  195MOL0     H26274   6.629   0.479   3.044 -1.2578 -0.4067  0.3692
  195MOL0     H26275   6.696   0.652   3.014 -0.0062  2.3708  2.6733
  195MOL0     H26276   6.551   0.839   3.182 -1.9646  0.3601  1.3893
  195MOL0     H26277   6.312   0.929   3.329  1.1341  1.6069 -1.3090
  195MOL0     H26278   6.279   0.956   3.163  2.7221  0.9536  1.8959
  195MOL0     H26279   6.101   0.784   3.336  0.1224 -2.8729 -1.6256
  195MOL0     H26280   6.087   0.785   3.164 -2.1684  0.6401 -0.1554
  195MOL0     H26281   6.067   1.058   3.198  0.4201 -1.6188 -1.4447
  195MOL0     H26282   6.072   1.009   3.360  0.3958  0.4533 -0.0281
  195MOL0     H26283   5.846   0.921   3.177  2.3452  1.4836 -2.3893
  195MOL0     H26284   5.838   1.062   3.275 -2.1300 -1.2246 -3.9782
  195MOL0     H26285   5.702   0.769   3.577 -1.2472  0.9884  1.1532
  195MOL0     H26286   5.397   0.746   3.687 -0.5972 -1.0901  0.8138
  195MOL0     H26287   5.409   0.614   3.564 -0.1658  2.3399 -3.1018
  195MOL0     H26288   5.538   0.668   3.674 -0.2848 -0.6370  0.7503
  195MOL0     H26289   5.079   0.537   3.327 -1.7511 -0.5593 -2.0542
  195MOL0     H26290   4.853   0.478   3.387 -0.6835  1.0357  0.1651
  195MOL0     H26291   4.609   0.540   3.342 -1.7570  1.0855 -0.4429
  195MOL0     H26292   4.643   0.423   3.473 -0.2393 -0.4152 -1.1960
  195MOL0     H26293   4.397   0.570   3.399  0.1491  1.6752  1.4204
  195MOL0     H26294   4.432   0.404   3.451 -1.6063  0.4771  0.4802
  195MOL0     H26295   4.414   0.659   3.611 -1.9902 -0.3677 -0.6827
  195MOL0     H26296   4.479   0.498   3.681 -0.3845  0.1527 -0.1782
  195MOL0     H26297   4.197   0.548   3.601 -2.8116 -2.0488  0.8581
  195MOL0     H26298   4.269   0.385   3.630 -1.8768  0.1448  0.0735
  195MOL0     H26299   4.306   0.475   3.878 -2.7007  0.3948  2.1963
  195MOL0     H26300   4.140   0.485   3.827 -0.4315  2.4925  2.4779
  195MOL0     H26301   4.342   0.709   3.804  0.5105  1.9387  2.2181
  195MOL0     H26302   4.164   0.719   3.763 -1.0426  0.0111  1.1667
  195MOL0     H26303   4.279   0.779   4.009  0.4759 -0.1392 -1.2593
  195MOL0     H26304   4.211   0.623   4.046 -0.4665  0.3604 -0.7416
  195MOL0     H26305   4.043   0.793   4.099  1.4262 -2.8984  0.8298
  195MOL0     H26306   3.992   0.731   3.945 -1.2389  0.8884  0.6066
  195MOL0     H26307   4.796   0.825   3.599 -1.1279 -0.3651  0.9904
  195MOL0     H26308   5.047   0.883   3.565 -0.4608  0.6432  1.5517
  195MOL0     H26309   5.409   1.000   3.243 -1.8066 -1.1174 -0.6317
  195MOL0     H26310   5.662   1.013   3.226  2.1081 -0.8653 -0.5048
  195MOL0     H26311   7.400   0.573   3.609 -2.9539  3.2941 -0.8347
  195MOL0     H26312   7.548   0.584   3.786 -4.9679 -0.3242 -1.3840
  195MOL0     H26313   7.925   0.593   3.940 -1.5346  1.5135 -0.7194
  195MOL0     H26314   8.067   0.546   4.130  1.2406  0.3656  1.0971
  195MOL0     H26315   8.288   0.599   4.406  3.7039 -0.7319 -1.6473
  195MOL0     H26316   8.159   0.537   4.311 -0.8912  1.9183  0.8119
  195MOL0     H26317   8.337   0.554   4.107 -1.5550  2.1750  0.4973
  195MOL0     H26318   8.362   0.440   4.233  0.6115 -0.5574  0.8159
  195MOL0     H26319   8.486   0.634   4.360 -0.1004  1.0596  0.2191
  195MOL0     H26320   8.518   0.686   4.192  0.1407  0.6487  1.0960
  195MOL0     H26321   8.708   0.551   4.230 -1.0021  2.4200 -0.1702
  195MOL0     H26322   8.589   0.450   4.137 -1.1318 -1.0084  1.7392
  195MOL0     H26323   8.623   0.255   4.502 -1.6259  0.2705 -0.5516
  195MOL0     H26324   8.172   0.971   4.148 -0.7742  1.0638 -1.5482
  195MOL0     H26325   8.036   1.015   3.958 -1.2060  2.4360  4.3946
  196MOL0     O26326   9.966   0.451   1.478  0.2591  0.4346 -0.6568
  196MOL0     C26327  10.049   0.459   1.391 -0.0265  0.3627 -0.1034
  196MOL0     O26328  10.036   0.441   1.256 -0.7053  0.6240 -0.1124
  196MOL0     C26329   9.910   0.423   1.205 -0.7667 -0.5475  0.1282
  196MOL0     C26330   9.862   0.301   1.150 -0.0928 -0.1505  0.0605
  196MOL0     C26331   9.735   0.275   1.102 -0.8088  0.1370 -0.3734
  196MOL0     C26332   9.644   0.376   1.114  0.0307  0.4134 -0.2213
  196MOL0     O26333   9.512   0.347   1.083 -0.1307 -0.3506 -0.4187
  196MOL0     C26334   9.467   0.240   0.996 -0.4181 -0.3738  0.7554
  196MOL0     C26335   9.510   0.271   0.845  0.8726  0.5788 -0.5592
  196MOL0     C26336   9.435   0.378   0.761  0.1798 -0.5790 -0.2606
  196MOL0     C26337   9.394   0.506   0.841  0.1493  0.5205 -0.5436
  196MOL0     C26338   9.345   0.622   0.758 -0.0832  0.2175  0.9945
  196MOL0     C26339   9.204   0.624   0.722  0.1234  0.5948 -0.3723
  196MOL0     C26340   9.162   0.765   0.673 -0.1990  0.1140  0.1521
  196MOL0     C26341   9.015   0.780   0.641 -0.5545 -0.1799  0.2120
  196MOL0     N26342   8.961   0.915   0.655  0.5277 -0.6109 -0.8345
  196MOL0     C26343   8.932   1.003   0.552 -0.1172  1.2052 -0.3760
  196MOL0     C26344   8.861   1.103   0.603 -0.9799  0.2389  0.4346
  196MOL0     C26345   8.796   1.217   0.531 -1.0551 -1.0612 -0.2410
  196MOL0     C26346   8.650   1.192   0.490  0.8444 -0.7717 -0.5579
  196MOL0     C26347   8.557   1.312   0.484  0.5249 -0.4325  0.0909
  196MOL0     C26348   8.609   1.428   0.400 -0.3612  0.1647 -1.0842
  196MOL0     O26349   8.585   1.422   0.258  0.2225 -0.0546  0.0145
  196MOL0     C26350   8.456   1.432   0.211  0.9030  0.2099 -0.4069
  196MOL0     C26351   8.437   1.399   0.079  0.0155 -0.6026  0.4844
  196MOL0     C26352   8.302   1.399   0.027 -0.5988 -0.1520 -0.0753
  196MOL0     C26353   8.300   1.379  -0.123  0.4357 -0.0158  0.8936
  196MOL0     C26354   8.190   1.440   0.109 -0.9061  0.5574 -0.7008
  196MOL0     C26355   8.052   1.450   0.060 -0.3690 -0.9074 -0.3053
  196MOL0     O26356   7.969   1.528   0.128 -0.3181  0.2675  0.8016
  196MOL0     C26357   7.861   1.469   0.184  0.2565 -0.2058  0.4589
  196MOL0     C26358   7.869   1.339   0.249 -1.3376 -0.1484  0.3987
  196MOL0     C26359   7.748   1.273   0.277 -0.0705 -0.2524 -0.0127
  196MOL0     C26360   7.619   1.341   0.260  0.3074  0.3072  0.0289
  196MOL0     O26361   7.503   1.273   0.296 -0.6098  0.1621  0.1939
  196MOL0     C26362   7.376   1.336   0.302  0.0317 -0.0328 -0.4459
  196MOL0     C26363   7.278   1.246   0.388 -0.5235  0.6277 -0.4348
  196MOL0     C26364   7.135   1.277   0.354 -0.0954 -0.0565 -0.6732
  196MOL0     C26365   7.039   1.234   0.466 -0.1434  0.7664  0.2659
  196MOL0     C26366   7.029   1.082   0.469 -0.0023 -0.2928 -0.1226
  196MOL0     C26367   6.942   1.026   0.583 -0.0794 -0.5862  0.2230
  196MOL0     C26368   6.944   1.094   0.720 -0.5188 -0.4300  0.0561
  196MOL0     C26369   6.881   1.010   0.834  0.2079 -0.5211  1.4131
  196MOL0    Cl26370   6.706   0.962   0.786 -0.2821  0.0535 -0.6718
  196MOL0     C26371   7.620   1.479   0.218 -0.8005 -0.3714  0.3037
  196MOL0     C26372   7.741   1.538   0.173  0.5876 -0.1172 -0.2720
  196MOL0     O26373   8.013   1.377  -0.028  0.7142  0.5792  0.3150
  196MOL0     C26374   8.220   1.467   0.241  0.1047 -0.0368  0.3202
  196MOL0     C26375   8.351   1.473   0.289  0.8093  0.2876 -0.1565
  196MOL0     N26376   8.859   1.089   0.741  0.0943 -0.7675  0.4384
  196MOL0     N26377   8.917   0.970   0.775  0.1993  0.2390  0.2201
  196MOL0     C26378   9.673   0.503   1.163  0.1998 -0.0163 -0.4241
  196MOL0     C26379   9.808   0.525   1.202 -0.5680  0.1877 -0.8237
  196MOL0     C26380  10.187   0.487   1.436  0.0667  0.5868 -0.6128
  196MOL0     C26381  10.286   0.532   1.353 -0.1871  0.5875  0.8857
  196MOL0     C26382  10.411   0.568   1.397  1.2817 -0.6789 -0.0644
  196MOL0     C26383  10.441   0.567   1.531 -0.7082  0.4339  0.0366
  196MOL0     O26384  10.566   0.608   1.569 -0.0018 -0.4530  0.8254
  196MOL0     C26385  10.577   0.655   1.699 -1.1476  0.0067 -0.1543
  196MOL0     C26386  10.715   0.723   1.700  0.0228  0.6958  0.3727
  196MOL0     C26387  10.747   0.802   1.831  0.0745  0.5945  0.0700
  196MOL0     C26388  10.877   0.886   1.815  0.0405  0.3813 -0.2232
  196MOL0     C26389  10.845   1.031   1.799  0.3658  0.8793  0.8307
  196MOL0     C26390  10.816   1.145   1.791 -0.0074 -0.0284  0.0270
  196MOL0     C26391  10.342   0.519   1.619  0.4984 -1.0339  0.2520
  196MOL0     C26392  10.216   0.480   1.571  0.1249  0.2972  0.1257
  196MOL0     H26393   9.932   0.219   1.138 -0.6354 -0.3072 -2.6086
  196MOL0     H26394   9.715   0.175   1.064  2.9456 -0.1477 -2.0469
  196MOL0     H26395   9.503   0.141   1.025  1.2044  0.3894  1.4481
  196MOL0     H26396   9.358   0.244   1.001 -0.5911  1.1740 -1.9920
  196MOL0     H26397   9.612   0.309   0.860  0.9511  0.1730 -0.0050
  196MOL0     H26398   9.503   0.174   0.795  2.0739 -1.6546  3.1856
  196MOL0     H26399   9.507   0.411   0.686  1.5430  0.3633  1.3889
  196MOL0     H26400   9.339   0.339   0.727 -1.6947  3.6252 -0.3326
  196MOL0     H26401   9.320   0.492   0.920 -2.1286  3.5406 -1.9498
  196MOL0     H26402   9.484   0.545   0.891 -0.2260  2.4555 -1.3030
  196MOL0     H26403   9.360   0.710   0.821  1.2062  1.3725 -0.8099
  196MOL0     H26404   9.419   0.636   0.679  1.4155  0.3876  2.3703
  196MOL0     H26405   9.201   0.544   0.647 -1.4906 -1.1166  1.4032
  196MOL0     H26406   9.134   0.584   0.795  1.9438  0.3592  1.3341
  196MOL0     H26407   9.190   0.832   0.754  0.2027 -0.4834  0.5232
  196MOL0     H26408   9.224   0.793   0.588  1.2324 -0.2454  1.0355
  196MOL0     H26409   8.957   0.716   0.708 -0.7321  0.2112  0.4347
  196MOL0     H26410   8.998   0.737   0.542  0.1858  1.0305 -0.4622
  196MOL0     H26411   8.959   0.981   0.449  3.9114  4.0753 -0.1658
  196MOL0     H26412   8.802   1.303   0.598 -0.4703 -1.6296  0.4587
  196MOL0     H26413   8.863   1.243   0.449 -0.9922 -2.8064 -0.7819
  196MOL0     H26414   8.612   1.127   0.570 -0.1824  2.3595  1.6808
  196MOL0     H26415   8.642   1.135   0.397  0.3181 -1.6628  0.0086
  196MOL0     H26416   8.558   1.351   0.586 -0.0485  3.3166 -1.1929
  196MOL0     H26417   8.458   1.282   0.447  1.3502  0.9991 -3.7628
  196MOL0     H26418   8.718   1.430   0.411 -0.2934  0.6878 -1.8314
  196MOL0     H26419   8.584   1.526   0.441  0.1243  0.3061 -1.1288
  196MOL0     H26420   8.523   1.372   0.019  1.0408  2.4333  0.4304
  196MOL0     H26421   8.395   1.352  -0.170 -1.6164 -0.5488 -3.4072
  196MOL0     H26422   8.230   1.298  -0.143  1.5983 -0.5293 -1.4465
  196MOL0     H26423   8.253   1.461  -0.177 -1.3286 -0.9562  0.9282
  196MOL0     H26424   7.965   1.290   0.265 -0.2850  1.8906  0.5925
  196MOL0     H26425   7.744   1.170   0.312  1.4088  0.1807  1.5864
  196MOL0     H26426   7.373   1.436   0.346 -0.7687 -1.0134  1.8797
  196MOL0     H26427   7.337   1.342   0.200  0.2383 -0.3246 -0.5451
  196MOL0     H26428   7.304   1.143   0.362 -1.7083  0.1303  0.2363
  196MOL0     H26429   7.310   1.267   0.490  3.2970  2.5460 -1.8208
  196MOL0     H26430   7.113   1.222   0.262  0.6841 -1.0173 -0.3002
  196MOL0     H26431   7.124   1.384   0.334 -3.2167  0.4341  2.6527
  196MOL0     H26432   7.082   1.269   0.560  1.9828  1.8813 -1.0587
  196MOL0     H26433   6.937   1.269   0.448 -0.5271 -1.1289 -1.5950
  196MOL0     H26434   7.123   1.034   0.496 -0.7095 -0.9167  1.3173
  196MOL0     H26435   6.989   1.045   0.374 -2.2983 -1.5391  1.2568
  196MOL0     H26436   6.844   1.043   0.539  0.3966 -0.9444 -1.0416
  196MOL0     H26437   6.963   0.918   0.587  1.9288 -0.3478 -1.7464
  196MOL0     H26438   6.895   1.192   0.722  0.1511 -0.0836 -0.1770
  196MOL0     H26439   7.049   1.105   0.751 -0.8333 -2.4694  2.1366
  196MOL0     H26440   6.864   1.082   0.915 -2.4618  0.9790 -0.3019
  196MOL0     H26441   6.948   0.929   0.861  0.1330 -1.2656 -0.4504
  196MOL0     H26442   7.531   1.541   0.221  0.9849  2.5833 -2.2870
  196MOL0     H26443   7.741   1.634   0.121  0.1811  0.8209  1.3903
  196MOL0     H26444   8.134   1.499   0.299 -1.2369 -2.0821 -0.4316
  196MOL0     H26445   8.358   1.503   0.393 -3.7618  0.8503  0.2337
  196MOL0     H26446   9.604   0.586   1.175  0.5299  0.1452  0.3815
  196MOL0     H26447   9.837   0.624   1.235  2.3439 -0.7587 -0.2642
  196MOL0     H26448  10.265   0.535   1.246  1.2687  0.5952  0.5787
  196MOL0     H26449  10.484   0.617   1.334  2.2845 -0.2148  1.3972
  196MOL0     H26450  10.509   0.738   1.718 -0.8929  0.3869 -0.8609
  196MOL0     H26451  10.579   0.585   1.783  1.9477 -1.9129 -1.6286
  196MOL0     H26452  10.709   0.806   1.630 -0.8116  1.3994  1.2558
  196MOL0     H26453  10.798   0.655   1.677  0.5309 -0.3203  4.3679
  196MOL0     H26454  10.769   0.724   1.904 -1.9674  2.0606  2.4147
  196MOL0     H26455  10.658   0.855   1.868 -0.9525 -0.7468 -0.4203
  196MOL0     H26456  10.933   0.853   1.727  0.5929  2.6606 -0.7996
  196MOL0     H26457  10.942   0.861   1.900 -2.0649 -2.8934  0.6199
  196MOL0     H26458  10.798   1.251   1.786 -1.0376 -0.1258  1.2274
  196MOL0     H26459  10.348   0.526   1.727 -0.4823 -1.4291  0.3355
  196MOL0     H26460  10.139   0.441   1.637 -0.3264 -0.6748 -0.9511
  197MOL0     O26461  11.041   2.971   6.494  0.2252  0.2916  0.4870
  197MOL0     C26462  11.077   2.890   6.409 -0.3701 -0.5834  0.5585
  197MOL0     O26463  11.001   2.815   6.326 -0.4473  0.6462 -0.3011
  197MOL0     C26464  10.862   2.817   6.339 -0.2545 -0.9855 -0.0294
  197MOL0     C26465  10.800   2.826   6.217  0.0213 -0.7265  0.8788
  197MOL0     C26466  10.657   2.856   6.204  0.1600 -0.2891 -0.0763
  197MOL0     C26467  10.585   2.878   6.318  0.4864  0.2779 -0.6427
  197MOL0     O26468  10.450   2.888   6.298  0.0863 -0.6042 -0.4488
  197MOL0     C26469  10.379   2.980   6.378 -0.5239  0.8280  0.2005
  197MOL0     C26470  10.238   2.988   6.317  0.3740  0.3430 -0.1382
  197MOL0     C26471  10.241   3.003   6.166 -0.1272 -0.1156  0.4368
  197MOL0     C26472  10.096   3.040   6.120  0.1717  0.6241  0.2853
  197MOL0     C26473  10.099   3.086   5.966  0.4278 -0.0872 -0.4094
  197MOL0     C26474  10.116   2.976   5.862  0.2851 -0.1259 -0.1460
  197MOL0     C26475  10.163   3.024   5.726 -0.8175  1.1164  0.4535
  197MOL0     C26476  10.163   2.915   5.621  0.3864 -0.3813  0.7063
  197MOL0     N26477  10.036   2.850   5.592  0.0374 -0.0958  0.2696
  197MOL0     C26478   9.974   2.858   5.468 -1.3718  1.0106  0.2029
  197MOL0     C26479   9.875   2.763   5.467 -0.6753 -0.1447 -0.9624
  197MOL0     C26480   9.780   2.750   5.344 -0.0093 -0.4519  0.1127
  197MOL0     C26481   9.633   2.756   5.370 -0.5602  0.3389 -0.8459
  197MOL0     C26482   9.570   2.752   5.238  0.4481 -0.0608  0.6517
  197MOL0     C26483   9.433   2.802   5.232 -0.0309  0.5274 -0.4103
  197MOL0     O26484   9.390   2.820   5.096 -0.5674  0.6248 -0.2195
  197MOL0     C26485   9.276   2.889   5.079 -0.1393  0.1469 -0.2169
  197MOL0     C26486   9.234   2.886   4.947 -0.4158  0.2172 -0.4644
  197MOL0     C26487   9.121   2.962   4.915  0.1060  0.0201  1.2265
  197MOL0     C26488   9.090   2.961   4.761  1.0759 -0.0328  0.5311
  197MOL0     C26489   9.051   3.040   5.006  0.1009 -0.1087  0.5216
  197MOL0     C26490   8.921   3.114   4.966  0.2235  0.0301  0.5223
  197MOL0     O26491   8.836   3.065   4.867  0.6256 -0.3808 -0.0850
  197MOL0     C26492   8.709   3.104   4.857 -0.5566  0.2710 -0.0858
  197MOL0     C26493   8.648   3.129   4.734 -0.1757  0.3279 -0.2151
  197MOL0     C26494   8.514   3.163   4.718  0.3556 -0.3842 -0.1787
  197MOL0     C26495   8.431   3.185   4.833  0.5553 -0.4556 -0.1800
  197MOL0     O26496   8.296   3.222   4.840 -0.4190  0.4562 -0.2818
  197MOL0     C26497   8.231   3.211   4.712 -0.5235 -0.1527 -0.0645
  197MOL0     C26498   8.097   3.282   4.723 -0.8602 -0.3754 -0.7264
  197MOL0     C26499   8.116   3.434   4.726 -0.1674  0.0415  0.0457
  197MOL0     C26500   7.974   3.494   4.727  0.9689  0.8865 -0.3827
  197MOL0     C26501   7.972   3.644   4.729 -0.1999 -0.4203  0.2313
  197MOL0     C26502   7.995   3.711   4.597  0.3947  0.4190 -0.4729
  197MOL0     C26503   7.948   3.857   4.589 -0.8606  0.2705 -0.0134
  197MOL0     C26504   7.795   3.870   4.596 -0.5478  0.8245  0.4692
  197MOL0    Cl26505   7.745   4.051   4.592 -0.2710 -0.1195 -0.0150
  197MOL0     C26506   8.487   3.151   4.954 -0.1016 -0.2140  0.3336
  197MOL0     C26507   8.624   3.118   4.971  0.5101  0.6191 -0.0328
  197MOL0     O26508   8.899   3.216   5.035  0.1821 -0.0763 -0.9636
  197MOL0     C26509   9.105   3.051   5.137  0.5659  0.3771 -0.3190
  197MOL0     C26510   9.215   2.980   5.175 -0.6402 -0.4011  0.1356
  197MOL0     N26511   9.896   2.684   5.586  0.2326 -0.0742 -0.3445
  197MOL0     N26512   9.987   2.751   5.661  0.7708 -0.0942 -0.4318
  197MOL0     C26513  10.650   2.852   6.442  0.5500  0.0328 -0.3169
  197MOL0     C26514  10.779   2.822   6.453 -0.6708  0.0781 -0.8527
  197MOL0     C26515  11.226   2.880   6.394  0.7086  0.0946  0.2718
  197MOL0     C26516  11.298   2.774   6.336  0.3003  0.5936  0.6913
  197MOL0     C26517  11.442   2.776   6.322 -0.7645 -0.2434  0.0294
  197MOL0     C26518  11.515   2.873   6.390 -0.0009  0.3405  0.1914
  197MOL0     O26519  11.653   2.870   6.399 -0.0767  0.1283  0.3258
  197MOL0     C26520  11.698   2.791   6.505  0.5333 -0.0818 -0.3716
  197MOL0     C26521  11.842   2.748   6.476  0.7304  0.2206 -0.6501
  197MOL0     C26522  11.906   2.708   6.605  0.4861  1.9393  0.1502
  197MOL0     C26523  12.035   2.640   6.568 -0.6186  0.1982  0.3014
  197MOL0     C26524  12.125   2.602   6.674 -0.2070  0.1066 -0.0753
  197MOL0     C26525  12.185   2.566   6.774  0.3534  0.6216  0.0674
  197MOL0     C26526  11.446   2.972   6.458 -0.6118  0.1260 -0.0989
  197MOL0     C26527  11.308   2.982   6.459  0.1676 -0.5287 -0.5563
  197MOL0     H26528  10.864   2.807   6.132  0.7847 -1.1590  1.5350
  197MOL0     H26529  10.605   2.871   6.110 -0.2164  0.5207  0.2491
  197MOL0     H26530  10.370   2.959   6.485 -2.5236 -0.5424 -0.1811
  197MOL0     H26531  10.419   3.081   6.364 -2.1964  1.7341  1.4957
  197MOL0     H26532  10.185   2.894   6.335  0.2287  0.2925 -0.7908
  197MOL0     H26533  10.184   3.071   6.364 -1.8108 -1.0383 -0.0480
  197MOL0     H26534  10.309   3.082   6.132 -1.3479  1.1002  0.7735
  197MOL0     H26535  10.272   2.913   6.110  1.6577  0.8378 -0.2012
  197MOL0     H26536  10.032   2.953   6.135 -1.0611  1.8490  2.4582
  197MOL0     H26537  10.044   3.111   6.185  0.6160  0.1604  1.1579
  197MOL0     H26538  10.001   3.127   5.938  1.2391  0.3905 -2.7635
  197MOL0     H26539  10.184   3.154   5.953  0.1074  0.5218  0.5603
  197MOL0     H26540  10.184   2.898   5.896  2.3569  1.7117  0.1429
  197MOL0     H26541  10.015   2.934   5.856 -0.2475  1.2744 -1.8644
  197MOL0     H26542  10.101   3.105   5.688 -0.1306  1.9155  1.0018
  197MOL0     H26543  10.258   3.076   5.738 -0.3493  0.2186  0.7728
  197MOL0     H26544  10.234   2.837   5.651  1.6568  1.0660  1.5660
  197MOL0     H26545  10.186   2.965   5.526 -1.1706 -2.7935 -1.0802
  197MOL0     H26546   9.991   2.927   5.386 -0.3946  0.0795 -0.4146
  197MOL0     H26547   9.810   2.837   5.285 -2.2287  1.0303  0.9931
  197MOL0     H26548   9.801   2.661   5.284  0.0265  1.3251 -2.7303
  197MOL0     H26549   9.602   2.851   5.415  0.7229  0.0436  0.7226
  197MOL0     H26550   9.608   2.671   5.434  1.6109  0.2586 -0.0261
  197MOL0     H26551   9.582   2.651   5.198  2.9446 -0.5165  2.3217
  197MOL0     H26552   9.621   2.823   5.172  0.6066  0.2990  1.1588
  197MOL0     H26553   9.437   2.897   5.287 -0.5724  0.2513  0.1188
  197MOL0     H26554   9.361   2.742   5.288 -0.0312  1.2114  0.3359
  197MOL0     H26555   9.289   2.843   4.864 -0.8404  0.8960 -1.1155
  197MOL0     H26556   9.182   2.954   4.702  0.4621 -0.6795 -0.3748
  197MOL0     H26557   9.021   2.880   4.736  2.3299 -0.3509 -2.2034
  197MOL0     H26558   9.043   3.054   4.729  0.2995  0.3022  2.5284
  197MOL0     H26559   8.712   3.121   4.647  1.8791  2.2073  1.0384
  197MOL0     H26560   8.470   3.165   4.619 -0.0761 -0.8951  0.0025
  197MOL0     H26561   8.291   3.265   4.638  3.0637 -2.2181  1.0855
  197MOL0     H26562   8.220   3.106   4.685 -3.5971 -0.2728  1.3399
  197MOL0     H26563   8.042   3.265   4.630  0.3600 -0.4467 -1.4528
  197MOL0     H26564   8.044   3.251   4.813  1.4113  0.0476  0.8289
  197MOL0     H26565   8.163   3.471   4.634 -0.2446  0.9522  0.3599
  197MOL0     H26566   8.184   3.477   4.800 -1.1169  1.2672  0.2478
  197MOL0     H26567   7.909   3.476   4.641  0.2986  0.6907  0.1569
  197MOL0     H26568   7.931   3.447   4.816 -1.3718  0.0840 -1.8441
  197MOL0     H26569   8.040   3.685   4.804 -2.3430  1.4464  1.2679
  197MOL0     H26570   7.873   3.660   4.773 -0.1923 -0.9152  0.4354
  197MOL0     H26571   8.102   3.712   4.577  0.9336 -1.6690  1.8956
  197MOL0     H26572   7.942   3.657   4.518 -3.0100  0.3659  1.6440
  197MOL0     H26573   7.961   3.900   4.489 -1.7597  1.2763  0.2888
  197MOL0     H26574   7.996   3.916   4.667 -0.7308  0.8599 -0.5329
  197MOL0     H26575   7.753   3.821   4.684  1.4840 -0.8342  0.5901
  197MOL0     H26576   7.752   3.819   4.509  3.3678 -0.5410 -0.8882
  197MOL0     H26577   8.431   3.157   5.047  0.0762 -3.1102  0.7293
  197MOL0     H26578   8.659   3.099   5.072 -0.4869  2.1100  0.6445
  197MOL0     H26579   9.046   3.111   5.206 -2.1920  0.1705 -2.3363
  197MOL0     H26580   9.248   2.987   5.278 -0.5775 -0.0217  0.0905
  197MOL0     H26581  10.583   2.846   6.528  0.1757  0.8431 -0.5409
  197MOL0     H26582  10.827   2.810   6.550 -3.0408 -2.5431  0.1423
  197MOL0     H26583  11.236   2.693   6.300  0.3799  1.5726 -1.8823
  197MOL0     H26584  11.487   2.692   6.270 -2.6964 -2.2109  1.3645
  197MOL0     H26585  11.690   2.852   6.596 -4.8859 -1.6743  0.5757
  197MOL0     H26586  11.644   2.697   6.519  3.7105 -2.3059 -1.8770
  197MOL0     H26587  11.908   2.816   6.422  2.9598 -1.6367 -0.4331
  197MOL0     H26588  11.833   2.657   6.416  0.6975 -0.6339  0.6064
  197MOL0     H26589  11.857   2.632   6.667 -0.6278  2.1024 -0.4976
  197MOL0     H26590  11.913   2.795   6.671  2.1268  2.5662 -0.7824
  197MOL0     H26591  12.091   2.706   6.502 -0.9231 -0.3581 -0.5253
  197MOL0     H26592  12.012   2.545   6.519 -0.3754 -1.9463  3.9697
  197MOL0     H26593  12.239   2.522   6.856 -0.3483 -1.6314 -0.5846
  197MOL0     H26594  11.501   3.046   6.516 -0.0467  0.6216 -1.2285
  197MOL0     H26595  11.266   3.062   6.519  4.0964  0.6785  0.9120
  198MOL0     O26596   1.227   2.427   7.467 -0.0065 -0.2306 -0.1094
  198MOL0     C26597   1.316   2.513   7.468  0.4303  0.1931 -0.3134
  198MOL0     O26598   1.294   2.643   7.476 -0.2982 -0.4667  0.2242
  198MOL0     C26599   1.171   2.696   7.507  0.0660 -0.4057  1.5107
  198MOL0     C26600   1.122   2.794   7.415 -0.1643 -0.2278 -0.1637
  198MOL0     C26601   0.999   2.846   7.431  0.0010 -0.0333 -0.4619
  198MOL0     C26602   0.924   2.821   7.549  1.3832  0.0539 -0.1664
  198MOL0     O26603   0.809   2.883   7.586 -0.5313  0.1429 -0.2449
  198MOL0     C26604   0.797   3.024   7.553 -0.6511 -0.9361 -1.2881
  198MOL0     C26605   0.712   3.048   7.428  0.8703 -0.3252  0.0914
  198MOL0     C26606   0.561   3.049   7.454  0.5992  0.7550  0.1779
  198MOL0     C26607   0.482   3.071   7.324  0.3801  0.9775  0.1108
  198MOL0     C26608   0.335   3.070   7.360 -0.0689  0.9321  0.3225
  198MOL0     C26609   0.239   3.089   7.234 -0.6004  0.6357 -0.3897
  198MOL0     C26610   0.099   3.062   7.282  0.1453  0.7436 -0.0367
  198MOL0     C26611   0.001   3.084   7.170 -0.0201  0.1316  0.0468
  198MOL0     N26612  -0.137   3.076   7.209 -0.3005  0.5641 -1.1895
  198MOL0     C26613  -0.219   2.975   7.172 -0.8558  0.4144 -0.2251
  198MOL0     C26614  -0.342   3.019   7.199 -0.0990 -0.6888  0.7919
  198MOL0     C26615  -0.467   2.931   7.182  0.5304  0.2421  0.8190
  198MOL0     C26616  -0.506   2.894   7.037  0.2497 -0.9706  0.6920
  198MOL0     C26617  -0.654   2.858   7.026 -0.1605  0.0855  0.3075
  198MOL0     C26618  -0.700   2.795   6.898  0.7091 -0.1726  0.3216
  198MOL0     O26619  -0.716   2.900   6.804  0.5822  0.2161  0.1991
  198MOL0     C26620  -0.834   2.960   6.796  0.9552 -0.0554  0.5337
  198MOL0     C26621  -0.967   2.914   6.810 -0.1233 -0.0515 -0.8710
  198MOL0     C26622  -1.081   2.992   6.781 -0.0998 -0.3435  0.3695
  198MOL0     C26623  -1.205   2.928   6.835  0.9803 -0.1663  1.0712
  198MOL0     C26624  -1.066   3.123   6.721 -0.3930  0.2595 -0.0600
  198MOL0     C26625  -1.174   3.213   6.685  0.9078  0.2649 -0.5629
  198MOL0     O26626  -1.142   3.314   6.605 -0.0771  0.2148  0.5194
  198MOL0     C26627  -1.236   3.371   6.529 -0.3926 -0.2138  0.9375
  198MOL0     C26628  -1.340   3.287   6.471  0.1118  0.2685 -0.2915
  198MOL0     C26629  -1.417   3.340   6.362 -0.5693  0.5348  0.4276
  198MOL0     C26630  -1.401   3.472   6.314 -0.4193 -0.0293 -0.7369
  198MOL0     O26631  -1.487   3.528   6.217  1.3339  0.1808 -0.0371
  198MOL0     C26632  -1.531   3.665   6.218  0.8947  0.1990  0.3330
  198MOL0     C26633  -1.654   3.693   6.301  0.7647  0.0542  0.4367
  198MOL0     C26634  -1.663   3.841   6.309  0.5227 -1.1865  0.2949
  198MOL0     C26635  -1.816   3.881   6.343 -0.1495  0.5508 -0.1348
  198MOL0     C26636  -1.825   4.018   6.418 -0.1063  0.4553  0.9859
  198MOL0     C26637  -1.955   4.050   6.484  0.5183 -0.3799 -0.7964
  198MOL0     C26638  -1.979   4.203   6.478  0.1918 -0.0817  0.3501
  198MOL0     C26639  -1.894   4.302   6.559  0.5672  0.7007  0.3145
  198MOL0    Cl26640  -1.923   4.264   6.734 -0.1626 -0.1507  0.1169
  198MOL0     C26641  -1.295   3.548   6.372 -0.3428  0.3571  0.6136
  198MOL0     C26642  -1.212   3.495   6.476  0.1148  0.9164 -0.3523
  198MOL0     O26643  -1.283   3.194   6.729 -0.0275  0.1183  0.1795
  198MOL0     C26644  -0.933   3.174   6.705  0.3180 -0.0962  0.3834
  198MOL0     C26645  -0.830   3.089   6.737  0.6934  0.3633  0.5308
  198MOL0     N26646  -0.329   3.150   7.249  0.0857  0.4700 -0.1523
  198MOL0     N26647  -0.203   3.187   7.255 -0.3192  0.5542  0.7635
  198MOL0     C26648   0.969   2.726   7.646  0.4271  0.0756  0.5551
  198MOL0     C26649   1.094   2.657   7.619  0.3122 -0.4871 -0.4906
  198MOL0     C26650   1.461   2.488   7.448  0.0677  0.0889  0.1926
  198MOL0     C26651   1.550   2.592   7.415 -0.0237  0.1341 -0.9128
  198MOL0     C26652   1.682   2.562   7.371  1.6288 -0.7608  0.3722
  198MOL0     C26653   1.723   2.432   7.370  0.4010  0.2811 -0.5557
  198MOL0     O26654   1.851   2.408   7.317  0.5598  0.0113  0.4946
  198MOL0     C26655   1.911   2.285   7.339 -0.6301 -0.2347 -0.1700
  198MOL0     C26656   2.057   2.301   7.290  0.0463 -0.3178 -0.1229
  198MOL0     C26657   2.127   2.178   7.339  0.0750 -0.9716  0.1516
  198MOL0     C26658   2.264   2.193   7.274 -0.1247 -0.5110 -0.0584
  198MOL0     C26659   2.350   2.085   7.302  0.2690 -0.6174 -0.1018
  198MOL0     C26660   2.437   2.004   7.315  0.0157 -0.3876  0.7249
  198MOL0     C26661   1.638   2.330   7.414 -0.0845  0.1578 -0.1396
  198MOL0     C26662   1.510   2.355   7.458  0.8230  0.0738 -0.2846
  198MOL0     H26663   1.187   2.825   7.335  0.2583 -1.1270 -0.1839
  198MOL0     H26664   0.966   2.914   7.353  0.9574 -0.6001 -1.3908
  198MOL0     H26665   0.748   3.074   7.637  3.5744 -0.4435  1.1782
  198MOL0     H26666   0.896   3.069   7.539 -0.6012 -0.0245  1.4134
  198MOL0     H26667   0.743   3.145   7.386  2.1809 -0.3715  0.8968
  198MOL0     H26668   0.734   2.972   7.352 -2.6249 -2.6231  1.1526
  198MOL0     H26669   0.533   2.958   7.508  1.9006  0.9143  1.1783
  198MOL0     H26670   0.542   3.133   7.521 -0.1840  1.6169 -1.1056
  198MOL0     H26671   0.513   3.164   7.277 -0.1756  2.8466  3.1364
  198MOL0     H26672   0.504   2.994   7.249 -3.8544  0.4272 -0.8056
  198MOL0     H26673   0.321   2.974   7.411 -0.8262  0.2393 -1.1018
  198MOL0     H26674   0.313   3.154   7.426 -1.9890  0.2702  0.5747
  198MOL0     H26675   0.240   3.195   7.206  0.1190  0.6684 -0.2553
  198MOL0     H26676   0.254   3.026   7.145 -0.2647 -2.0116  1.4179
  198MOL0     H26677   0.087   2.959   7.315  0.3951  1.1577  1.4316
  198MOL0     H26678   0.079   3.128   7.367 -0.4545  1.2246 -0.5384
  198MOL0     H26679   0.017   3.021   7.082  1.1829  0.9357 -0.3520
  198MOL0     H26680   0.022   3.188   7.142 -1.9484  0.5342 -0.0136
  198MOL0     H26681  -0.207   2.875   7.129 -4.3035 -0.3388  0.2398
  198MOL0     H26682  -0.454   2.838   7.239 -3.6797 -1.3816 -0.4254
  198MOL0     H26683  -0.556   2.977   7.227 -0.6162 -1.0519 -0.0153
  198MOL0     H26684  -0.439   2.817   6.996  0.2534 -0.8762  0.5200
  198MOL0     H26685  -0.492   2.986   6.980  3.3705 -0.7303  1.6502
  198MOL0     H26686  -0.725   2.939   7.046 -0.2148  0.7137 -2.0612
  198MOL0     H26687  -0.675   2.771   7.089 -1.5794 -2.3189 -3.1341
  198MOL0     H26688  -0.795   2.742   6.907  0.4663  0.1552 -0.2462
  198MOL0     H26689  -0.628   2.721   6.863  1.0045 -0.3901  1.3477
  198MOL0     H26690  -0.983   2.814   6.850 -2.0912  1.1158  1.5270
  198MOL0     H26691  -1.276   2.938   6.753  0.3839  0.2240  1.6302
  198MOL0     H26692  -1.192   2.824   6.867 -0.7349 -0.1872  1.7902
  198MOL0     H26693  -1.231   2.997   6.915 -0.9093 -0.5783  0.8605
  198MOL0     H26694  -1.371   3.195   6.519  0.0007  1.1942  1.4975
  198MOL0     H26695  -1.483   3.275   6.306 -0.4108  0.4578  0.3279
  198MOL0     H26696  -1.454   3.733   6.257 -0.9842  2.6198  0.0251
  198MOL0     H26697  -1.568   3.699   6.121 -1.8986 -0.3566  1.1304
  198MOL0     H26698  -1.744   3.652   6.254  1.0495 -1.7631  1.3798
  198MOL0     H26699  -1.643   3.649   6.401  0.6401 -2.4676 -0.5713
  198MOL0     H26700  -1.648   3.887   6.211 -0.2032 -1.0958  0.2147
  198MOL0     H26701  -1.591   3.893   6.372  2.3158  0.7301 -3.0561
  198MOL0     H26702  -1.870   3.873   6.249  0.1621  4.1734 -0.7737
  198MOL0     H26703  -1.845   3.796   6.405  2.5828  0.4626  1.2133
  198MOL0     H26704  -1.816   4.085   6.332  1.8326  2.4404  2.6085
  198MOL0     H26705  -1.737   4.043   6.479  0.0503  0.6290  0.6937
  198MOL0     H26706  -2.036   4.003   6.428 -1.0110  2.3068 -0.9854
  198MOL0     H26707  -1.941   4.021   6.588 -2.0105 -0.2669 -0.3632
  198MOL0     H26708  -2.082   4.197   6.514 -0.3303  1.1797 -0.8481
  198MOL0     H26709  -1.985   4.241   6.375  1.4772  1.1765  0.7024
  198MOL0     H26710  -1.930   4.401   6.530 -0.1616  0.2121 -0.4943
  198MOL0     H26711  -1.791   4.309   6.522  0.7559  0.3701  0.7618
  198MOL0     H26712  -1.261   3.640   6.326 -0.5994 -0.3461 -1.0282
  198MOL0     H26713  -1.120   3.543   6.508  1.2729 -2.5744  2.1955
  198MOL0     H26714  -0.914   3.265   6.649 -0.6892 -0.4667 -0.6045
  198MOL0     H26715  -0.727   3.110   6.709  1.1754 -1.0262  1.1360
  198MOL0     H26716   0.911   2.710   7.736 -1.0440  1.1634 -0.1560
  198MOL0     H26717   1.122   2.579   7.689  0.0726  0.7676  1.0801
  198MOL0     H26718   1.520   2.695   7.427  0.0572 -0.0752  1.5993
  198MOL0     H26719   1.739   2.643   7.327 -1.0988  0.9150 -0.3652
  198MOL0     H26720   1.922   2.257   7.445  2.0053  1.0263 -0.0259
  198MOL0     H26721   1.863   2.199   7.291  3.3744 -2.4844 -0.6274
  198MOL0     H26722   2.102   2.393   7.328  2.0446 -1.2198 -0.2087
  198MOL0     H26723   2.045   2.307   7.181 -0.6430  2.5035  0.0397
  198MOL0     H26724   2.074   2.091   7.300 -0.3835 -0.0806 -1.3087
  198MOL0     H26725   2.144   2.179   7.447 -1.8142  1.8252  0.5425
  198MOL0     H26726   2.313   2.279   7.319 -0.4116 -0.9498  1.1148
  198MOL0     H26727   2.264   2.204   7.165 -0.0858 -1.3263 -0.1530
  198MOL0     H26728   2.533   1.957   7.321  1.3865  2.2066  0.5652
  198MOL0     H26729   1.678   2.229   7.411 -0.7461 -0.1078 -0.2002
  198MOL0     H26730   1.438   2.281   7.492 -1.2844  2.3166  0.4558
  199MOL0     O26731   3.386   8.774   6.156  0.1811 -0.1539 -0.3172
  199MOL0     C26732   3.418   8.703   6.248 -0.3084 -0.5991 -0.1583
  199MOL0     O26733   3.331   8.652   6.351  0.0906 -0.3228 -0.0994
  199MOL0     C26734   3.198   8.697   6.345 -0.9947  1.1328 -0.2035
  199MOL0     C26735   3.166   8.833   6.340 -0.4989 -0.6445  1.0768
  199MOL0     C26736   3.035   8.874   6.335  0.3645 -0.0938  0.6748
  199MOL0     C26737   2.934   8.775   6.320 -0.8603  0.3433  0.2093
  199MOL0     O26738   2.805   8.813   6.289  0.1786 -0.4154  0.6049
  199MOL0     C26739   2.762   8.952   6.275 -0.0715  0.2919  0.2201
  199MOL0     C26740   2.681   8.996   6.392  0.7216  0.6003 -1.2054
  199MOL0     C26741   2.539   8.938   6.399  0.7030  0.0784 -1.5577
  199MOL0     C26742   2.429   9.006   6.317  0.2679 -0.4664  0.2851
  199MOL0     C26743   2.310   8.923   6.297 -0.1783 -0.4216  1.5002
  199MOL0     C26744   2.212   9.009   6.222  0.8979  0.1848  0.5968
  199MOL0     C26745   2.235   9.011   6.067 -0.4868  0.6007  0.9155
  199MOL0     C26746   2.132   9.098   5.992 -0.0807 -1.1146 -0.0886
  199MOL0     N26747   1.994   9.067   6.005  0.4916  0.8963 -0.5429
  199MOL0     C26748   1.941   8.944   5.981 -1.0035  0.6807 -0.1931
  199MOL0     C26749   1.812   8.963   6.018  0.7391  0.6355 -0.4782
  199MOL0     C26750   1.731   8.841   6.033 -0.0561  0.3657 -0.7155
  199MOL0     C26751   1.741   8.793   6.176 -0.5079  0.2646  0.1019
  199MOL0     C26752   1.647   8.678   6.196  0.6300 -0.0104 -0.7693
  199MOL0     C26753   1.497   8.701   6.243  0.1312  0.1542  0.1319
  199MOL0     O26754   1.394   8.740   6.139 -0.0689 -0.4092  0.0797
  199MOL0     C26755   1.258   8.740   6.167 -0.6902  0.7973 -0.0186
  199MOL0     C26756   1.161   8.775   6.076 -0.1968  0.2451  0.2626
  199MOL0     C26757   1.023   8.755   6.102 -0.3099  0.2442 -1.0421
  199MOL0     C26758   0.935   8.818   6.008 -0.2964 -0.4130 -0.0139
  199MOL0     C26759   0.982   8.703   6.228 -0.5974  0.7449  0.4555
  199MOL0     C26760   0.835   8.702   6.257 -0.4171  1.0810 -0.4417
  199MOL0     O26761   0.778   8.813   6.307  0.6054 -0.4025 -0.8736
  199MOL0     C26762   0.639   8.811   6.317  0.5807 -0.7212  0.9761
  199MOL0     C26763   0.574   8.743   6.423 -0.7999  0.0972 -0.3754
  199MOL0     C26764   0.433   8.750   6.425 -1.4149 -0.6174  0.0857
  199MOL0     C26765   0.361   8.818   6.328  0.5148  1.2073  0.0598
  199MOL0     O26766   0.229   8.841   6.353  0.7657 -0.3703 -0.2559
  199MOL0     C26767   0.188   8.979   6.381  0.4134  0.5875  0.3106
  199MOL0     C26768   0.070   8.989   6.473 -0.0970  0.5578 -0.4293
  199MOL0     C26769  -0.042   8.875   6.470 -1.0814 -0.7823  0.1309
  199MOL0     C26770  -0.012   8.769   6.580 -0.8327 -0.2440 -0.6429
  199MOL0     C26771  -0.085   8.632   6.561 -0.1920 -0.0949 -1.1058
  199MOL0     C26772  -0.025   8.527   6.460 -0.1606  0.5340  0.0940
  199MOL0     C26773  -0.071   8.540   6.318  0.6088  0.2483  0.2351
  199MOL0     C26774  -0.024   8.419   6.230  0.5409 -0.2457  0.8377
  199MOL0    Cl26775  -0.015   8.480   6.056  0.1564 -0.3045 -0.0803
  199MOL0     C26776   0.428   8.885   6.227  0.0589  0.0772 -0.1868
  199MOL0     C26777   0.564   8.887   6.221 -0.2150  0.7058 -1.3081
  199MOL0     O26778   0.773   8.595   6.238 -0.4819 -0.3456  0.9579
  199MOL0     C26779   1.078   8.660   6.318 -0.0876 -0.1625 -0.6407
  199MOL0     C26780   1.214   8.675   6.290 -0.7592 -0.0487  0.1285
  199MOL0     N26781   1.783   9.096   6.045 -0.1378  0.5051  0.1601
  199MOL0     N26782   1.898   9.156   6.043  0.1461  0.6014  0.6976
  199MOL0     C26783   2.972   8.633   6.327  0.0616 -0.7721  0.2168
  199MOL0     C26784   3.101   8.597   6.351  1.0076  0.1814 -0.3682
  199MOL0     C26785   3.554   8.657   6.239 -0.4162 -0.6188 -1.0619
  199MOL0     C26786   3.662   8.737   6.186 -0.0355  0.0945 -0.4918
  199MOL0     C26787   3.791   8.698   6.200  0.4993 -0.4475 -0.2767
  199MOL0     C26788   3.832   8.589   6.276  1.0222 -0.0353 -0.5408
  199MOL0     O26789   3.956   8.551   6.308 -0.9298 -0.6712 -0.1305
  199MOL0     C26790   4.068   8.620   6.246  0.0077  0.7540  0.8174
  199MOL0     C26791   4.101   8.747   6.326  0.2295  0.3336 -0.6912
  199MOL0     C26792   4.205   8.826   6.263 -0.0402 -1.2339 -0.3944
  199MOL0     C26793   4.216   8.964   6.348  0.7055  0.8366 -0.4782
  199MOL0     C26794   4.311   8.964   6.455 -0.1513 -0.0812  0.5218
  199MOL0     C26795   4.397   8.947   6.548  0.5324  0.6312 -0.4254
  199MOL0     C26796   3.729   8.503   6.323  0.5282 -0.2534 -1.5178
  199MOL0     C26797   3.593   8.548   6.323  0.6373  0.0748  0.1092
  199MOL0     H26798   3.245   8.907   6.341 -1.1586  0.0735  1.1018
  199MOL0     H26799   3.013   8.980   6.345 -1.0771 -0.0704 -1.8780
  199MOL0     H26800   2.846   9.015   6.243 -0.4333  1.1039  0.8192
  199MOL0     H26801   2.699   8.951   6.186  1.4631  0.3809 -0.9040
  199MOL0     H26802   2.740   8.972   6.481 -1.0941  0.2328 -0.0645
  199MOL0     H26803   2.667   9.105   6.395  1.1738  0.6308  0.3344
  199MOL0     H26804   2.538   8.832   6.371 -4.6435 -1.1391  1.8975
  199MOL0     H26805   2.509   8.930   6.504 -1.0081 -1.2648 -2.1156
  199MOL0     H26806   2.403   9.102   6.362  0.4275 -0.5854  0.6361
  199MOL0     H26807   2.461   9.034   6.217 -0.3065 -1.4147 -0.1811
  199MOL0     H26808   2.317   8.830   6.239 -0.1378  1.1788 -1.2229
  199MOL0     H26809   2.271   8.898   6.397 -0.6376  0.3083  1.5149
  199MOL0     H26810   2.110   8.970   6.231  0.0993  2.3412  1.6457
  199MOL0     H26811   2.209   9.113   6.257 -4.3505  0.9592 -1.1987
  199MOL0     H26812   2.339   9.034   6.044 -0.2314 -1.7966 -0.6608
  199MOL0     H26813   2.225   8.913   6.021  3.0479  0.4260  0.2645
  199MOL0     H26814   2.151   9.112   5.885 -2.2125 -0.7281 -0.4495
  199MOL0     H26815   2.152   9.200   6.027  2.3832 -2.1499  1.8470
  199MOL0     H26816   1.985   8.847   5.959 -0.3776  0.2411  2.5692
  199MOL0     H26817   1.628   8.852   5.997  0.3959 -1.9613 -3.0184
  199MOL0     H26818   1.769   8.770   5.960 -0.3519 -0.1940 -0.3303
  199MOL0     H26819   1.718   8.872   6.248 -0.8854  0.3518 -0.1135
  199MOL0     H26820   1.841   8.753   6.191 -0.8075  0.1050  1.8639
  199MOL0     H26821   1.690   8.628   6.283 -0.5784  2.0280  1.1055
  199MOL0     H26822   1.649   8.616   6.106  0.9414  0.7923 -1.3358
  199MOL0     H26823   1.496   8.771   6.327  5.7348 -0.6117  1.2625
  199MOL0     H26824   1.475   8.601   6.279 -0.7427 -0.4798 -2.0287
  199MOL0     H26825   1.186   8.821   5.981 -0.2221  0.3495  0.3064
  199MOL0     H26826   0.843   8.768   5.975 -1.0001  1.1618 -0.5374
  199MOL0     H26827   0.912   8.918   6.046  1.3816 -0.0792  0.1960
  199MOL0     H26828   0.992   8.839   5.918 -1.3661  0.1473 -0.5815
  199MOL0     H26829   0.629   8.686   6.496 -2.1346 -1.0620 -0.2275
  199MOL0     H26830   0.390   8.700   6.511 -0.7703  1.1928  1.5440
  199MOL0     H26831   0.273   9.041   6.411  0.3544  0.3365  1.0038
  199MOL0     H26832   0.162   9.023   6.284 -0.0371 -3.2493 -1.5096
  199MOL0     H26833   0.118   8.987   6.572  1.2544 -2.1575 -1.0281
  199MOL0     H26834   0.027   9.087   6.453  0.1912  0.4057 -1.9406
  199MOL0     H26835  -0.046   8.836   6.368 -2.4692  0.4212 -0.3043
  199MOL0     H26836  -0.136   8.923   6.496 -0.5473  1.2860 -1.4798
  199MOL0     H26837   0.096   8.751   6.582 -0.2468  2.7578  0.6187
  199MOL0     H26838  -0.041   8.819   6.673  0.0071 -1.2674  0.1986
  199MOL0     H26839  -0.186   8.649   6.522 -0.7345 -0.9811 -0.1181
  199MOL0     H26840  -0.085   8.575   6.654 -1.5571  1.1762 -0.2854
  199MOL0     H26841   0.083   8.537   6.445 -0.6310  2.4025 -2.7857
  199MOL0     H26842  -0.055   8.426   6.492  3.9228 -0.7051  0.5916
  199MOL0     H26843  -0.020   8.624   6.270  2.4797 -0.6034  0.6783
  199MOL0     H26844  -0.180   8.545   6.309  0.6115 -1.3645 -1.2822
  199MOL0     H26845  -0.085   8.330   6.246  0.8815 -0.4985  0.7420
  199MOL0     H26846   0.079   8.400   6.261  1.5795  3.4151  0.1549
  199MOL0     H26847   0.359   8.943   6.167  0.8246  0.9985 -0.1939
  199MOL0     H26848   0.617   8.927   6.135  0.8518  1.8008 -0.1766
  199MOL0     H26849   1.046   8.619   6.413 -0.6497 -0.4313 -0.9465
  199MOL0     H26850   1.275   8.635   6.370  2.5260  1.5325 -1.3806
  199MOL0     H26851   2.892   8.559   6.330 -1.1711  0.5323  0.5663
  199MOL0     H26852   3.125   8.492   6.362 -3.6149 -1.1932 -0.9617
  199MOL0     H26853   3.645   8.834   6.138 -2.1671 -0.7847 -1.6663
  199MOL0     H26854   3.860   8.775   6.166  0.1009  0.3117  0.5999
  199MOL0     H26855   4.157   8.557   6.241  0.0758  0.9096 -2.6475
  199MOL0     H26856   4.049   8.637   6.139 -2.3967  0.9663  1.2323
  199MOL0     H26857   4.129   8.716   6.427 -3.2698 -3.0086 -0.5487
  199MOL0     H26858   4.010   8.807   6.330  1.8271  2.8454  2.0921
  199MOL0     H26859   4.172   8.861   6.164  0.2038 -0.8182 -0.3340
  199MOL0     H26860   4.304   8.779   6.272  1.6383  1.6088 -2.1112
  199MOL0     H26861   4.119   8.987   6.393  0.1361  0.0801 -1.2886
  199MOL0     H26862   4.232   9.051   6.283  2.0116 -0.7772 -2.4302
  199MOL0     H26863   4.476   8.920   6.615  1.0911  1.9151 -0.5581
  199MOL0     H26864   3.753   8.426   6.396  0.2154  3.4002  2.8309
  199MOL0     H26865   3.518   8.488   6.372  0.2321 -0.5383 -1.2044
  200MOL0     O26866   8.714  10.325   3.882  0.5073 -0.0773 -0.0665
  200MOL0     C26867   8.802  10.376   3.819 -0.6696 -0.8267  0.4817
  200MOL0     O26868   8.791  10.493   3.737  0.2971  0.0990 -0.1898
  200MOL0     C26869   8.678  10.576   3.733  0.2055  0.5246  0.2751
  200MOL0     C26870   8.689  10.698   3.663  0.4838 -0.9368  0.6218
  200MOL0     C26871   8.585  10.791   3.657  0.3755 -0.4459 -0.3130
  200MOL0     C26872   8.462  10.753   3.703 -0.4693 -0.7320  0.0075
  200MOL0     O26873   8.359  10.840   3.702 -0.2191 -0.0415  0.4254
  200MOL0     C26874   8.286  10.860   3.573 -0.4492 -0.5318  0.5851
  200MOL0     C26875   8.236  11.005   3.551  0.4067 -0.0631  0.2729
  200MOL0     C26876   8.145  11.044   3.676 -0.3308  0.9547  0.5992
  200MOL0     C26877   8.107  11.189   3.664  0.2489  1.4438 -0.0932
  200MOL0     C26878   8.040  11.249   3.796  0.4066  0.3625  0.2447
  200MOL0     C26879   7.901  11.178   3.831 -0.2157 -0.6187 -0.1305
  200MOL0     C26880   7.863  11.223   3.973 -0.3646  0.0407 -1.0921
  200MOL0     C26881   7.763  11.128   4.046  0.0321 -0.0622 -0.7490
  200MOL0     N26882   7.643  11.107   3.969 -0.3530  0.7515  0.1701
  200MOL0     C26883   7.538  11.193   3.955 -0.9681 -0.8213  0.4631
  200MOL0     C26884   7.451  11.138   3.865 -0.0126 -0.2940  0.0785
  200MOL0     C26885   7.335  11.204   3.807 -0.0038 -0.6797 -0.2496
  200MOL0     C26886   7.206  11.210   3.892 -0.3959 -0.0670  0.0538
  200MOL0     C26887   7.133  11.078   3.873  0.7243 -0.2594 -0.2577
  200MOL0     C26888   7.005  11.079   3.949  1.0200 -0.1519 -0.0655
  200MOL0     O26889   6.919  11.181   3.890  0.7544  0.0576  0.0498
  200MOL0     C26890   6.788  11.173   3.918 -0.6142  0.1458 -0.2019
  200MOL0     C26891   6.751  11.146   4.048 -0.3052  1.0060  0.3007
  200MOL0     C26892   6.625  11.128   4.086  0.4236  1.0098 -0.5624
  200MOL0     C26893   6.598  11.084   4.228 -0.5233  0.2878  0.8964
  200MOL0     C26894   6.519  11.138   3.991  0.1997 -0.2998 -0.0927
  200MOL0     C26895   6.373  11.116   4.018 -0.1770  0.1428  0.3587
  200MOL0     O26896   6.286  11.124   3.907  0.4144 -0.4013  0.8611
  200MOL0     C26897   6.150  11.150   3.904 -0.2683  0.5150  0.2165
  200MOL0     C26898   6.092  11.165   3.772  0.2208  0.9511 -0.6509
  200MOL0     C26899   5.949  11.173   3.752 -0.2450  0.9448 -0.3621
  200MOL0     C26900   5.858  11.172   3.857 -0.8411 -0.8810 -0.2883
  200MOL0     O26901   5.732  11.199   3.822 -0.3832  0.0914  0.5415
  200MOL0     C26902   5.638  11.185   3.935  0.3999 -0.2833  0.2392
  200MOL0     C26903   5.620  11.320   4.007  0.0826  0.1076 -0.4330
  200MOL0     C26904   5.556  11.433   3.928 -0.2301  0.0488 -0.3766
  200MOL0     C26905   5.407  11.400   3.910 -0.2215 -0.4430  0.1168
  200MOL0     C26906   5.338  11.521   3.848  0.7136  0.1108 -0.8382
  200MOL0     C26907   5.182  11.507   3.834 -0.3171 -0.0050 -0.1459
  200MOL0     C26908   5.124  11.613   3.729  0.3271  0.2593  0.1028
  200MOL0     C26909   4.972  11.612   3.729 -0.0686 -0.1208  0.7039
  200MOL0    Cl26910   4.910  11.450   3.708 -0.1109 -0.2245 -0.1182
  200MOL0     C26911   5.919  11.158   3.987  0.4165 -0.2784 -0.3968
  200MOL0     C26912   6.056  11.149   4.007  0.7942 -0.1059 -0.8388
  200MOL0     O26913   6.334  11.096   4.132  0.0937  0.2804 -0.2644
  200MOL0     C26914   6.557  11.166   3.864  0.7106  0.3037  0.9761
  200MOL0     C26915   6.692  11.195   3.828 -0.4892  0.9075 -0.3092
  200MOL0     N26916   7.506  11.019   3.816  0.3033  0.5451  0.6634
  200MOL0     N26917   7.616  11.005   3.883 -1.2159 -0.8293 -0.4754
  200MOL0     C26918   8.451  10.628   3.771 -0.2377 -0.5578  0.4878
  200MOL0     C26919   8.555  10.537   3.784  0.2247  0.0283  0.6457
  200MOL0     C26920   8.936  10.301   3.812  0.1037 -0.2250 -0.2752
  200MOL0     C26921   9.042  10.348   3.734 -0.4790  0.4896 -0.0754
  200MOL0     C26922   9.172  10.286   3.745  0.2198  0.0605 -0.0326
  200MOL0     C26923   9.194  10.182   3.840  0.3416 -0.3538 -1.1875
  200MOL0     O26924   9.312  10.120   3.874  0.0702 -1.1665 -0.6991
  200MOL0     C26925   9.439  10.156   3.799 -0.2013  0.7241  0.3087
  200MOL0     C26926   9.549  10.055   3.816 -0.8588 -0.1807 -0.0472
  200MOL0     C26927   9.554  10.012   3.968 -1.0488 -0.0590  0.7397
  200MOL0     C26928   9.565  10.128   4.073  0.0265 -0.1285 -0.1355
  200MOL0     C26929   9.640  10.078   4.192 -1.6374  0.5194 -0.9661
  200MOL0     C26930   9.710  10.023   4.279  0.0254 -0.1748  0.6485
  200MOL0     C26931   9.085  10.129   3.895 -0.4805 -0.6310 -0.5988
  200MOL0     C26932   8.960  10.181   3.884 -0.1625 -0.2440  0.0162
  200MOL0     H26933   8.787  10.721   3.624 -0.2668 -0.7865 -1.2462
  200MOL0     H26934   8.604  10.891   3.619  0.4243 -0.9446 -1.6647
  200MOL0     H26935   8.342  10.821   3.488  0.6440  0.1057  1.0014
  200MOL0     H26936   8.191  10.805   3.569  0.0438 -1.3321 -1.0379
  200MOL0     H26937   8.321  11.074   3.547  1.6566 -1.2722  3.1972
  200MOL0     H26938   8.180  11.021   3.459  1.4873  1.2424 -0.1880
  200MOL0     H26939   8.052  10.986   3.671 -0.3046  0.9910 -1.2868
  200MOL0     H26940   8.194  11.027   3.772  0.1604  0.5013  0.2737
  200MOL0     H26941   8.203  11.239   3.655  0.1903  1.1725 -2.7572
  200MOL0     H26942   8.047  11.208   3.574 -0.5722  3.8071  0.8569
  200MOL0     H26943   8.111  11.241   3.879  1.1217  4.5101  0.2745
  200MOL0     H26944   8.024  11.356   3.777  1.7257  0.4867 -0.2337
  200MOL0     H26945   7.831  11.203   3.751  2.0411 -0.7114 -2.2592
  200MOL0     H26946   7.920  11.070   3.833  0.7796 -0.4577 -0.4729
  200MOL0     H26947   7.953  11.229   4.034 -2.1401  1.5685  1.5540
  200MOL0     H26948   7.810  11.319   3.966  0.5129  0.5016 -1.5860
  200MOL0     H26949   7.732  11.181   4.136 -0.0250  0.1693 -0.9046
  200MOL0     H26950   7.805  11.032   4.077 -2.7866 -0.6652  1.6718
  200MOL0     H26951   7.520  11.283   4.012  1.5957  1.6939 -2.3661
  200MOL0     H26952   7.373  11.304   3.784 -1.1626 -0.4923 -1.4903
  200MOL0     H26953   7.313  11.168   3.706 -0.8306  3.4584 -1.7502
  200MOL0     H26954   7.139  11.289   3.859  0.8747  0.9788 -0.1068
  200MOL0     H26955   7.234  11.234   3.996  0.2826  0.3402 -0.2147
  200MOL0     H26956   7.177  10.983   3.905 -2.3877 -1.3884  1.1343
  200MOL0     H26957   7.119  11.064   3.765  1.0471 -0.8341 -0.2286
  200MOL0     H26958   7.008  11.107   4.055 -1.9780  1.0949 -0.2036
  200MOL0     H26959   6.963  10.978   3.941  1.1463 -0.1801 -0.4136
  200MOL0     H26960   6.825  11.139   4.127  0.1207  1.3399 -0.0651
  200MOL0     H26961   6.556  10.983   4.228  2.8970 -1.3304 -1.2334
  200MOL0     H26962   6.687  11.089   4.292  0.2733  0.4354 -0.2013
  200MOL0     H26963   6.533  11.161   4.271 -0.5024  1.4519 -1.0679
  200MOL0     H26964   6.145  11.165   3.678  1.9785 -0.5283  0.2876
  200MOL0     H26965   5.902  11.169   3.654  2.3469 -0.6128 -1.6429
  200MOL0     H26966   5.541  11.154   3.897  0.0515  0.0276  0.8599
  200MOL0     H26967   5.671  11.106   4.003 -0.0240  0.2910  1.1295
  200MOL0     H26968   5.567  11.310   4.102  0.7696 -1.2131 -0.1630
  200MOL0     H26969   5.720  11.356   4.034 -0.1820  0.1592  0.5303
  200MOL0     H26970   5.604  11.437   3.829  1.1563  0.9888  0.2949
  200MOL0     H26971   5.565  11.525   3.986 -0.5215 -0.5935  0.7099
  200MOL0     H26972   5.389  11.317   3.842  1.6137 -0.7945  0.0134
  200MOL0     H26973   5.359  11.381   4.007 -1.2725 -1.1000 -0.5048
  200MOL0     H26974   5.379  11.534   3.748  1.4167  1.1547 -0.4330
  200MOL0     H26975   5.350  11.619   3.894  0.4229  0.8205 -2.2116
  200MOL0     H26976   5.165  11.404   3.802  3.1445 -1.4922  2.1649
  200MOL0     H26977   5.135  11.509   3.933  2.3646 -1.5530  1.2816
  200MOL0     H26978   5.157  11.591   3.627  0.6541  2.0126 -0.1876
  200MOL0     H26979   5.158  11.714   3.753 -1.7543  0.9035  0.4677
  200MOL0     H26980   4.944  11.672   3.642  2.5535 -0.9876 -0.8622
  200MOL0     H26981   4.935  11.648   3.825  1.0409  0.3365  0.9693
  200MOL0     H26982   5.859  11.151   4.077 -0.9092 -2.2515 -1.3659
  200MOL0     H26983   6.084  11.120   4.108 -1.2366 -0.5654 -0.3644
  200MOL0     H26984   6.484  11.175   3.784  0.0401 -0.9582  1.4191
  200MOL0     H26985   6.719  11.214   3.724  1.0812  0.8850  0.0798
  200MOL0     H26986   8.356  10.607   3.819 -1.4403 -0.7632 -1.8118
  200MOL0     H26987   8.534  10.455   3.852  2.1600 -2.6188 -1.6991
  200MOL0     H26988   9.040  10.435   3.670 -1.3382  1.5063  1.2813
  200MOL0     H26989   9.251  10.329   3.684  1.1760  0.1624  1.2252
  200MOL0     H26990   9.405  10.176   3.697 -1.8806  1.9259  1.0576
  200MOL0     H26991   9.468  10.257   3.830  0.6778  0.6407 -0.2233
  200MOL0     H26992   9.640  10.105   3.781 -1.1187  0.8247  0.6752
  200MOL0     H26993   9.545   9.961   3.761  2.9177 -0.3142 -0.3591
  200MOL0     H26994   9.649   9.959   3.984 -0.8606 -0.5308 -1.5550
  200MOL0     H26995   9.472   9.943   3.986  0.9152 -3.6975 -2.6518
  200MOL0     H26996   9.466  10.169   4.091 -0.0437  0.5720 -1.8893
  200MOL0     H26997   9.623  10.210   4.029 -1.2791  0.4469 -0.8443
  200MOL0     H26998   9.779   9.978   4.347 -1.8077 -0.9165  2.1031
  200MOL0     H26999   9.090  10.055   3.974  0.1638  1.3362  1.3375
  200MOL0     H27000   8.878  10.132   3.935 -0.6608 -2.3725 -2.5882
  201MOL0     O27001   0.323   1.310   9.511  0.5444  0.7319  0.4211
  201MOL0     C27002   0.367   1.274   9.402 -0.4774 -0.5016 -0.4047
  201MOL0     O27003   0.312   1.183   9.321  0.1900 -0.3529  0.4738
  201MOL0     C27004   0.197   1.123   9.367  0.2082  0.1607 -0.6383
  201MOL0     C27005   0.077   1.168   9.305 -0.1738  0.3592 -0.1243
  201MOL0     C27006  -0.044   1.108   9.338 -0.5778  0.0873  0.2139
  201MOL0     C27007  -0.056   1.006   9.427 -0.7277  0.8975 -0.2004
  201MOL0     O27008  -0.172   0.947   9.458 -1.0819  0.0461  0.1023
  201MOL0     C27009  -0.186   0.812   9.410 -0.4158  0.1544 -0.8023
  201MOL0     C27010  -0.327   0.767   9.440  0.5653  0.3196 -0.3371
  201MOL0     C27011  -0.426   0.859   9.369  0.0661  0.1895  0.1484
  201MOL0     C27012  -0.572   0.812   9.381 -0.0499  0.3499  0.2314
  201MOL0     C27013  -0.636   0.836   9.511 -0.0407  0.1033  0.2635
  201MOL0     C27014  -0.784   0.808   9.490 -0.1546 -0.5090  0.0151
  201MOL0     C27015  -0.853   0.942   9.451  0.0773 -0.1030  0.6499
  201MOL0     C27016  -0.991   0.943   9.388  0.7128  0.2601 -0.8079
  201MOL0     N27017  -1.092   0.913   9.488  0.1564 -0.1368 -0.1503
  201MOL0     C27018  -1.179   0.809   9.490  0.0605 -0.4740  0.5667
  201MOL0     C27019  -1.268   0.830   9.588  0.2977 -0.4113  0.1640
  201MOL0     C27020  -1.385   0.746   9.610  1.1721  0.1991 -0.1403
  201MOL0     C27021  -1.481   0.834   9.697  0.3416  0.2969 -0.2143
  201MOL0     C27022  -1.448   0.847   9.846 -1.0209 -0.1272  0.4922
  201MOL0     C27023  -1.570   0.890   9.926  0.0969 -0.4351  0.6847
  201MOL0     O27024  -1.694   0.816   9.900  0.0508 -0.5704  0.3777
  201MOL0     C27025  -1.807   0.846   9.978 -1.0293  0.0662  0.3947
  201MOL0     C27026  -1.818   0.952  10.071 -0.2009  1.0782  0.4982
  201MOL0     C27027  -1.936   0.976  10.132 -0.3239 -0.5403  0.1346
  201MOL0     C27028  -1.933   1.080  10.230  0.0657 -0.0385  0.0582
  201MOL0     C27029  -2.048   0.886  10.111 -0.1792 -0.5950 -0.0843
  201MOL0     C27030  -2.186   0.892  10.179  1.1558  0.6337  0.2288
  201MOL0     O27031  -2.209   0.974  10.278  0.3073 -0.1505  0.4190
  201MOL0     C27032  -2.301   0.961  10.378  0.4223 -0.3646 -0.1806
  201MOL0     C27033  -2.364   0.844  10.422 -0.4376  0.1902 -0.8465
  201MOL0     C27034  -2.474   0.851  10.511  0.4639 -0.8487  0.2867
  201MOL0     C27035  -2.515   0.974  10.563 -0.5185 -0.0149 -0.2476
  201MOL0     O27036  -2.622   0.993  10.654 -0.4277  0.1295 -0.1021
  201MOL0     C27037  -2.674   0.877  10.717  0.7895 -0.1325  0.1998
  201MOL0     C27038  -2.777   0.930  10.815 -0.0889 -0.1808 -0.7706
  201MOL0     C27039  -2.712   1.008  10.931  0.5739 -0.7751  0.3319
  201MOL0     C27040  -2.787   0.974  11.068 -0.0157 -0.5865 -0.9778
  201MOL0     C27041  -2.729   1.050  11.188 -0.2186  0.9417 -0.2465
  201MOL0     C27042  -2.773   0.996  11.322  0.0849 -0.3926 -0.4367
  201MOL0     C27043  -2.928   0.998  11.345 -0.2356  1.1950  0.6838
  201MOL0     C27044  -2.964   0.973  11.487 -0.1870 -0.3448 -0.5566
  201MOL0    Cl27045  -2.949   0.799  11.520  0.5234 -0.3608  0.1404
  201MOL0     C27046  -2.450   1.091  10.522 -0.0116  0.4946 -0.2378
  201MOL0     C27047  -2.350   1.078  10.422 -0.0650 -0.9156 -0.7395
  201MOL0     O27048  -2.262   0.794  10.148 -0.1478  0.0861  0.4982
  201MOL0     C27049  -2.030   0.782  10.023  0.4073 -0.2042  0.3279
  201MOL0     C27050  -1.916   0.768   9.952 -0.0310 -0.0128 -0.0720
  201MOL0     N27051  -1.230   0.950   9.651 -0.5791 -0.6531  0.0035
  201MOL0     N27052  -1.119   0.990   9.595 -0.9826  0.2922  0.2760
  201MOL0     C27053   0.066   0.960   9.487  0.7899  0.1078  0.1018
  201MOL0     C27054   0.194   1.020   9.465 -0.2095 -0.6155  0.1342
  201MOL0     C27055   0.492   1.333   9.352 -0.4706  0.1608  0.0486
  201MOL0     C27056   0.561   1.435   9.422 -0.6164 -0.2149  0.5149
  201MOL0     C27057   0.686   1.470   9.379  0.5283  0.4463 -0.5980
  201MOL0     C27058   0.744   1.417   9.267 -0.0116  0.4965 -0.0249
  201MOL0     O27059   0.867   1.450   9.208  0.3713  0.1041  0.1868
  201MOL0     C27060   0.954   1.562   9.248 -0.1547 -0.3034 -0.0023
  201MOL0     C27061   1.037   1.532   9.369  0.2593  0.8846  0.5579
  201MOL0     C27062   1.115   1.400   9.363  0.4879  0.5468  0.2664
  201MOL0     C27063   1.224   1.395   9.469  0.8654 -0.7728  0.5316
  201MOL0     C27064   1.253   1.261   9.504 -0.2096 -0.3603  0.5089
  201MOL0     C27065   1.270   1.144   9.539  0.1556 -0.1827 -0.7352
  201MOL0     C27066   0.675   1.319   9.195  0.4592 -0.7017 -0.3632
  201MOL0     C27067   0.546   1.284   9.230 -0.7821 -0.3425 -0.5024
  201MOL0     H27068   0.083   1.257   9.244 -4.1645 -0.5194 -2.1698
  201MOL0     H27069  -0.129   1.163   9.298  0.1681  1.3597  0.3306
  201MOL0     H27070  -0.161   0.800   9.304  2.2443  1.3149 -0.3913
  201MOL0     H27071  -0.118   0.752   9.472 -2.8473 -1.4753  0.4345
  201MOL0     H27072  -0.343   0.661   9.415  0.4184 -0.2000  1.7675
  201MOL0     H27073  -0.349   0.776   9.547  2.4848 -0.1301  0.1344
  201MOL0     H27074  -0.417   0.961   9.408 -0.5478  0.3509 -0.1190
  201MOL0     H27075  -0.394   0.857   9.264 -3.5945 -1.0247 -1.1068
  201MOL0     H27076  -0.614   0.863   9.294  0.5052 -0.9082 -0.8133
  201MOL0     H27077  -0.573   0.708   9.348  1.0501  0.4506 -0.1730
  201MOL0     H27078  -0.588   0.779   9.590 -0.8630 -1.9522 -0.6545
  201MOL0     H27079  -0.627   0.943   9.532  0.5164  0.3024 -0.8904
  201MOL0     H27080  -0.807   0.733   9.414 -2.3007  1.4589 -1.4232
  201MOL0     H27081  -0.832   0.773   9.582 -0.4672  0.1521  0.1164
  201MOL0     H27082  -0.850   1.013   9.534 -1.3730 -0.3838  0.9616
  201MOL0     H27083  -0.790   0.968   9.365  0.5184 -1.9972  0.3590
  201MOL0     H27084  -0.994   0.871   9.305 -0.4333  0.8184 -1.2823
  201MOL0     H27085  -1.018   1.045   9.359  1.4778  1.5746  2.6197
  201MOL0     H27086  -1.175   0.735   9.411  2.7277  0.8716 -0.6975
  201MOL0     H27087  -1.436   0.720   9.517  0.8789 -0.3616  0.1786
  201MOL0     H27088  -1.349   0.652   9.653  2.1900 -0.4267 -2.1975
  201MOL0     H27089  -1.573   0.776   9.693  0.2051 -0.1619  4.2903
  201MOL0     H27090  -1.499   0.932   9.652  1.2413  1.2463  1.3926
  201MOL0     H27091  -1.370   0.920   9.865 -0.3563  0.1577 -2.7222
  201MOL0     H27092  -1.418   0.749   9.884 -1.4729 -1.1336 -1.5759
  201MOL0     H27093  -1.592   0.994   9.900 -0.3218 -1.0199 -1.4730
  201MOL0     H27094  -1.542   0.887  10.032  1.2806 -1.0022  0.3732
  201MOL0     H27095  -1.732   1.016  10.088  1.3061 -0.9397  0.8489
  201MOL0     H27096  -2.013   1.155  10.225  0.3551  0.3084  0.5573
  201MOL0     H27097  -1.932   1.032  10.328  0.9886 -0.5064 -0.1675
  201MOL0     H27098  -1.843   1.142  10.229 -1.8792  2.9965 -0.3558
  201MOL0     H27099  -2.348   0.745  10.382  2.5551  0.1816  0.1198
  201MOL0     H27100  -2.531   0.762  10.534  1.1685 -2.0312 -2.1468
  201MOL0     H27101  -2.713   0.808  10.641  1.1226  0.7899 -0.8248
  201MOL0     H27102  -2.602   0.825  10.781  0.1224 -1.5946 -0.1953
  201MOL0     H27103  -2.863   0.984  10.775 -3.0594 -1.0991  3.6049
  201MOL0     H27104  -2.818   0.842  10.866  1.5954 -0.1110  0.8111
  201MOL0     H27105  -2.713   1.118  10.929 -1.1989 -0.7665 -0.1660
  201MOL0     H27106  -2.606   0.982  10.940  1.3603  1.5780 -1.1806
  201MOL0     H27107  -2.886   1.016  11.052  0.6507  3.3113  3.1780
  201MOL0     H27108  -2.781   0.868  11.092 -2.7030 -1.4810 -3.5761
  201MOL0     H27109  -2.759   1.155  11.182  0.8302  1.1855 -1.6751
  201MOL0     H27110  -2.620   1.054  11.186  0.0413 -1.5673  2.4857
  201MOL0     H27111  -2.725   0.903  11.354  0.7799  0.1070  0.0155
  201MOL0     H27112  -2.742   1.071  11.396 -2.8177  0.9332 -0.4005
  201MOL0     H27113  -2.957   0.918  11.277  0.6796  0.8531  0.6733
  201MOL0     H27114  -2.979   1.086  11.305 -1.1847  0.0071 -0.8550
  201MOL0     H27115  -3.065   1.003  11.516 -0.4152 -2.3068  0.8600
  201MOL0     H27116  -2.906   1.030  11.559 -2.7929  1.7814  0.0247
  201MOL0     H27117  -2.475   1.189  10.561  1.6312  1.0615 -0.5362
  201MOL0     H27118  -2.307   1.168  10.379 -0.5998 -0.4156 -0.2574
  201MOL0     H27119  -2.111   0.715   9.998  0.3535  1.2372 -4.3915
  201MOL0     H27120  -1.901   0.689   9.880  0.5780  0.3561 -0.3628
  201MOL0     H27121   0.068   0.887   9.567 -0.1433 -0.0861 -0.0392
  201MOL0     H27122   0.275   0.997   9.535 -1.6884 -0.7107  1.8947
  201MOL0     H27123   0.530   1.492   9.508  0.9271  3.0976 -0.9314
  201MOL0     H27124   0.742   1.541   9.440 -0.2101  0.3925  0.1561
  201MOL0     H27125   1.023   1.573   9.165 -0.5527  1.3653 -0.1407
  201MOL0     H27126   0.896   1.655   9.246 -1.3274 -0.9672  0.9396
  201MOL0     H27127   0.977   1.515   9.458  2.3655 -0.2567  1.8326
  201MOL0     H27128   1.103   1.618   9.381 -2.4836  3.2060  0.2289
  201MOL0     H27129   1.161   1.394   9.264  0.0215  3.0779 -0.1724
  201MOL0     H27130   1.039   1.322   9.375  2.2742 -1.0182  2.1133
  201MOL0     H27131   1.189   1.445   9.560 -0.3520 -0.8132  0.0924
  201MOL0     H27132   1.320   1.438   9.437  0.4635  0.4669  0.9360
  201MOL0     H27133   1.292   1.040   9.553  1.7641  0.2589  0.1826
  201MOL0     H27134   0.724   1.283   9.105  2.1299  1.1354 -0.2707
  201MOL0     H27135   0.500   1.203   9.175  1.1161 -1.4846 -0.4802
  202MOL0     O27136  10.545  11.172   1.915 -0.6069 -0.2803  0.7746
  202MOL0     C27137  10.543  11.062   1.966  0.4595  0.4124 -0.3959
  202MOL0     O27138  10.431  10.986   1.996  0.3320 -0.0672  0.7067
  202MOL0     C27139  10.302  11.031   1.967  0.7240  0.0198  0.6915
  202MOL0     C27140  10.201  10.962   2.032  0.1688  0.6505 -0.8212
  202MOL0     C27141  10.068  10.980   2.002  0.4756 -0.4048 -0.1018
  202MOL0     C27142  10.033  11.064   1.901 -0.2456  1.2243 -0.5958
  202MOL0     O27143   9.902  11.068   1.866  0.0324  0.9698  0.7455
  202MOL0     C27144   9.818  11.159   1.921  0.8560  0.1751  0.3477
  202MOL0     C27145   9.687  11.085   1.941  0.8976  0.3478  0.5923
  202MOL0     C27146   9.614  11.064   1.806  0.7651 -0.0140 -0.1834
  202MOL0     C27147   9.472  11.009   1.842  0.7902  0.1317 -0.0482
  202MOL0     C27148   9.405  10.958   1.715 -0.5090  0.7634 -0.2564
  202MOL0     C27149   9.262  10.935   1.751  0.7956  0.0903  0.0336
  202MOL0     C27150   9.183  10.847   1.653  0.6613 -0.2294  0.0895
  202MOL0     C27151   9.219  10.703   1.655 -0.4228 -0.5577 -0.2620
  202MOL0     N27152   9.184  10.648   1.780  0.9415  0.5027 -0.1849
  202MOL0     C27153   9.058  10.622   1.831  0.0347  0.3799 -0.4268
  202MOL0     C27154   9.068  10.583   1.963  0.0140 -0.3789 -0.2225
  202MOL0     C27155   8.971  10.532   2.065  1.1259 -0.1298 -0.2948
  202MOL0     C27156   9.016  10.390   2.099  0.4489  0.2879  0.3446
  202MOL0     C27157   8.959  10.334   2.228  0.4034  0.0584 -0.8494
  202MOL0     C27158   8.810  10.346   2.232  0.1937 -0.7544  0.1343
  202MOL0     O27159   8.759  10.266   2.119  0.1631  0.6996 -1.1035
  202MOL0     C27160   8.622  10.246   2.142  0.1453 -0.4119  0.6299
  202MOL0     C27161   8.533  10.347   2.090 -0.1595  0.3742 -0.2849
  202MOL0     C27162   8.396  10.334   2.106 -0.0454  0.4660  0.6260
  202MOL0     C27163   8.329  10.445   2.031  0.6328 -0.1666  0.0049
  202MOL0     C27164   8.336  10.221   2.172 -0.0662  0.4424  0.6719
  202MOL0     C27165   8.189  10.208   2.187 -0.8129  0.5540 -0.7381
  202MOL0     O27166   8.146  10.117   2.283 -0.0350 -0.2949 -0.2547
  202MOL0     C27167   8.009  10.091   2.289  0.0565 -0.1397 -0.1185
  202MOL0     C27168   7.969   9.954   2.277 -0.1640 -0.0560 -1.1192
  202MOL0     C27169   7.840   9.921   2.299  0.2022 -0.4532  0.4325
  202MOL0     C27170   7.746  10.021   2.319  0.6428 -0.1478 -0.6005
  202MOL0     O27171   7.614   9.998   2.348  0.0807  0.4361  0.2102
  202MOL0     C27172   7.558   9.871   2.312 -0.8566 -1.0279  0.3865
  202MOL0     C27173   7.412   9.884   2.274 -0.2233 -0.2733 -0.9162
  202MOL0     C27174   7.336   9.756   2.255  0.2457 -0.5794 -0.0440
  202MOL0     C27175   7.217   9.784   2.167  0.0848 -0.8536 -0.3298
  202MOL0     C27176   7.121   9.894   2.224  0.1680  0.5014 -1.1599
  202MOL0     C27177   6.980   9.884   2.168  0.5638 -0.8513 -0.1785
  202MOL0     C27178   6.973   9.913   2.017 -0.0568  1.4272 -0.5734
  202MOL0     C27179   6.833   9.866   1.963 -0.7137 -0.6698  0.4838
  202MOL0    Cl27180   6.713   9.995   2.000 -0.0629 -0.2506 -0.2412
  202MOL0     C27181   7.783  10.162   2.326  0.0597  0.4163 -0.2928
  202MOL0     C27182   7.916  10.191   2.309  0.6677 -0.4413  0.4896
  202MOL0     O27183   8.110  10.264   2.108 -0.3036  0.0452  0.0814
  202MOL0     C27184   8.425  10.120   2.221 -0.1068  0.2856 -0.7077
  202MOL0     C27185   8.568  10.143   2.216  0.5252 -0.2067  0.0967
  202MOL0     N27186   9.203  10.611   1.996  0.3447  0.3202 -0.0365
  202MOL0     N27187   9.269  10.631   1.885  0.6592  0.2982  0.2212
  202MOL0     C27188  10.128  11.136   1.832  0.1093  0.2503  0.5278
  202MOL0     C27189  10.259  11.119   1.866  0.5664  0.4559  0.5731
  202MOL0     C27190  10.672  10.995   1.988  0.4173 -0.3307 -0.4858
  202MOL0     C27191  10.799  11.068   1.985 -0.1200 -0.3435 -0.1936
  202MOL0     C27192  10.913  11.001   1.997  0.2614  0.0803  0.4336
  202MOL0     C27193  10.910  10.866   2.022  0.2868  0.6601 -0.0926
  202MOL0     O27194  11.035  10.809   2.038  0.4724  0.6306  0.0410
  202MOL0     C27195  11.055  10.668   2.044  1.4184  0.5564  0.0601
  202MOL0     C27196  11.198  10.630   2.080 -0.4665  0.0994  0.7303
  202MOL0     C27197  11.250  10.675   2.213 -0.0878 -0.5647 -0.2013
  202MOL0     C27198  11.403  10.699   2.204  0.3307  0.6191  0.0105
  202MOL0     C27199  11.464  10.569   2.192  0.0344  0.1288 -0.2007
  202MOL0     C27200  11.512  10.456   2.167  0.1023  0.4666  0.2569
  202MOL0     C27201  10.791  10.791   2.035 -0.2247  0.7906  0.1524
  202MOL0     C27202  10.674  10.854   2.006 -0.6823  0.1930  0.7617
  202MOL0     H27203  10.238  10.896   2.110 -1.4431  2.3535  1.5046
  202MOL0     H27204   9.993  10.926   2.059  1.3765  0.0085  1.5242
  202MOL0     H27205   9.853  11.182   2.022  0.1681 -1.6525  1.0577
  202MOL0     H27206   9.803  11.248   1.860  2.0159  0.9972  1.2150
  202MOL0     H27207   9.703  10.985   1.981 -3.3364 -0.2073  1.3415
  202MOL0     H27208   9.626  11.142   2.011 -0.6629  1.9607 -1.9138
  202MOL0     H27209   9.601  11.156   1.748  0.6772  0.3820  0.4570
  202MOL0     H27210   9.673  10.994   1.746  1.9059  1.9179 -1.4361
  202MOL0     H27211   9.485  10.938   1.924  0.6239  2.6210  2.3112
  202MOL0     H27212   9.407  11.091   1.875  0.1863 -0.7168  0.9278
  202MOL0     H27213   9.418  11.016   1.623  1.5188  2.5697  1.0536
  202MOL0     H27214   9.456  10.865   1.689 -1.0049  1.0446 -2.4109
  202MOL0     H27215   9.257  10.899   1.854  0.4266 -0.8558 -0.2981
  202MOL0     H27216   9.211  11.031   1.746  1.6946  0.5261 -1.9899
  202MOL0     H27217   9.078  10.859   1.678  0.7411  1.1268 -0.1887
  202MOL0     H27218   9.200  10.876   1.549  0.3721 -2.3050 -0.5882
  202MOL0     H27219   9.327  10.693   1.644 -0.2442 -1.6271  1.7802
  202MOL0     H27220   9.173  10.643   1.575  2.3240  0.7648 -3.0194
  202MOL0     H27221   8.964  10.628   1.778  1.1507  1.5410 -2.4125
  202MOL0     H27222   8.959  10.604   2.147 -0.7386 -0.1632 -0.5039
  202MOL0     H27223   8.872  10.525   2.020  1.9534 -1.2101 -2.0592
  202MOL0     H27224   9.124  10.393   2.111  0.6442  4.8182 -0.5272
  202MOL0     H27225   8.986  10.326   2.016  0.0487 -1.3894  1.7149
  202MOL0     H27226   8.991  10.387   2.319  0.6851 -0.7345 -0.4783
  202MOL0     H27227   8.990  10.231   2.246  0.1784  0.3409  1.5204
  202MOL0     H27228   8.779  10.450   2.222  0.5668 -0.8547 -2.7859
  202MOL0     H27229   8.762  10.321   2.327  1.7121 -0.1070  1.1218
  202MOL0     H27230   8.574  10.430   2.034  1.0668  0.7029  1.0419
  202MOL0     H27231   8.251  10.483   2.099  2.3486 -3.2112  4.1198
  202MOL0     H27232   8.392  10.530   2.004 -0.0904  0.3853 -0.0080
  202MOL0     H27233   8.289  10.422   1.932  1.2469 -1.8933  0.1357
  202MOL0     H27234   8.051   9.883   2.274 -2.0747 -2.3508 -2.6458
  202MOL0     H27235   7.817   9.816   2.308 -1.9789 -0.0891 -0.4213
  202MOL0     H27236   7.609   9.825   2.228  1.6403  0.4860  0.9648
  202MOL0     H27237   7.560   9.804   2.398 -1.5444  0.1888  1.4023
  202MOL0     H27238   7.374   9.944   2.357 -1.5541 -2.2443 -0.0431
  202MOL0     H27239   7.399   9.941   2.181  2.4944 -2.3493 -2.7325
  202MOL0     H27240   7.319   9.714   2.354  3.1955  2.8226  2.1673
  202MOL0     H27241   7.407   9.686   2.209  2.5324  2.1840 -1.0657
  202MOL0     H27242   7.255   9.813   2.069 -1.1046 -0.9960 -0.8609
  202MOL0     H27243   7.170   9.686   2.148  2.1099 -2.0124  0.3438
  202MOL0     H27244   7.181   9.983   2.201  1.1516 -0.9011 -4.5831
  202MOL0     H27245   7.130   9.879   2.332  0.9267 -2.4059 -1.5395
  202MOL0     H27246   6.949   9.780   2.184  0.9991 -1.1583 -1.1807
  202MOL0     H27247   6.918   9.954   2.223  2.1581  0.0047  0.5963
  202MOL0     H27248   7.038   9.835   1.976  0.5423 -0.8064  3.9664
  202MOL0     H27249   6.994  10.016   1.986  2.1811  0.9359 -0.8486
  202MOL0     H27250   6.803   9.771   2.008 -0.2330 -1.0106  0.1029
  202MOL0     H27251   6.852   9.855   1.855  0.8750 -1.5576  0.8191
  202MOL0     H27252   7.709  10.239   2.351  0.1728  0.8344 -1.2204
  202MOL0     H27253   7.943  10.295   2.327 -1.7941  0.1109  1.3845
  202MOL0     H27254   8.392  10.027   2.265  0.7772 -1.1734 -2.9147
  202MOL0     H27255   8.645  10.074   2.249 -0.2715 -0.8055  0.7514
  202MOL0     H27256  10.101  11.194   1.745 -0.7991 -1.6657 -0.5340
  202MOL0     H27257  10.337  11.165   1.807  3.3817 -3.3058  0.9950
  202MOL0     H27258  10.793  11.176   1.971 -3.3650 -0.3717  0.2634
  202MOL0     H27259  11.013  11.043   2.000 -0.1869  1.1556  0.8532
  202MOL0     H27260  10.983  10.621   2.112  0.4465  0.2957 -1.1322
  202MOL0     H27261  11.041  10.642   1.939  3.2465 -2.6540  0.4862
  202MOL0     H27262  11.260  10.678   2.004 -0.7230 -0.8902 -0.1264
  202MOL0     H27263  11.214  10.522   2.068  0.2921  0.4167 -1.5486
  202MOL0     H27264  11.229  10.594   2.284  1.1616 -2.1538 -1.5704
  202MOL0     H27265  11.198  10.769   2.236 -0.3501 -0.7618  0.0182
  202MOL0     H27266  11.440  10.740   2.298  1.4201  0.1580 -0.1982
  202MOL0     H27267  11.434  10.770   2.127  2.4757 -2.6148 -2.4010
  202MOL0     H27268  11.545  10.357   2.143  0.3353 -0.4769  3.8775
  202MOL0     H27269  10.787  10.685   2.060  1.6278  1.4239  3.7218
  202MOL0     H27270  10.582  10.797   1.997 -1.7897  2.1646 -2.9379
  203MOL0     O27271   0.904  10.327  10.126  0.3814  0.1417  0.8760
  203MOL0     C27272   0.974  10.340  10.224  0.0698 -1.0601  0.0055
  203MOL0     O27273   0.940  10.417  10.336  0.4025  0.5251  0.2379
  203MOL0     C27274   0.826  10.498  10.324 -1.0666 -0.2258  0.1162
  203MOL0     C27275   0.848  10.637  10.341 -0.5308 -0.6899  0.4936
  203MOL0     C27276   0.741  10.725  10.343  1.0378  0.2996  0.0692
  203MOL0     C27277   0.616  10.683  10.320  0.3491 -0.0868  0.3841
  203MOL0     O27278   0.515  10.775  10.328  0.1955  0.6139  0.4482
  203MOL0     C27279   0.391  10.749  10.253 -0.3644 -0.2268 -0.3980
  203MOL0     C27280   0.288  10.709  10.350  0.3336  0.1427  0.3149
  203MOL0     C27281   0.151  10.743  10.291  0.1847 -0.2187  0.9660
  203MOL0     C27282   0.048  10.657  10.354 -0.5329  0.0521 -0.4070
  203MOL0     C27283  -0.093  10.693  10.287 -0.5407  0.1381 -0.5546
  203MOL0     C27284  -0.197  10.589  10.331 -0.2692  0.9658 -0.7135
  203MOL0     C27285  -0.325  10.590  10.245  0.8075  1.1775 -0.0644
  203MOL0     C27286  -0.414  10.474  10.284 -0.1194 -0.2474 -0.2929
  203MOL0     N27287  -0.548  10.479  10.223  0.0156  0.0173  0.1529
  203MOL0     C27288  -0.647  10.554  10.273  0.5341 -0.1272 -0.3361
  203MOL0     C27289  -0.754  10.533  10.191 -0.1482 -0.8235  0.2568
  203MOL0     C27290  -0.884  10.594  10.192  0.3471  0.4855  0.4540
  203MOL0     C27291  -0.896  10.735  10.126  0.2641  0.1612  0.9267
  203MOL0     C27292  -0.937  10.719   9.981 -0.9828 -0.1273  0.0565
  203MOL0     C27293  -1.079  10.685   9.965 -0.0976  0.0291  0.7506
  203MOL0     O27294  -1.179  10.772  10.032 -0.6243  0.3316  0.7126
  203MOL0     C27295  -1.298  10.712  10.062 -0.3290 -0.6425 -0.1931
  203MOL0     C27296  -1.311  10.664  10.189  1.2838  0.3755  0.0214
  203MOL0     C27297  -1.439  10.626  10.240  0.2113 -0.4123 -0.2222
  203MOL0     C27298  -1.442  10.559  10.374 -0.4365  0.5443 -0.6246
  203MOL0     C27299  -1.553  10.634  10.158  0.7910  0.1861 -0.0794
  203MOL0     C27300  -1.691  10.583  10.187  0.3473  0.0988  0.4556
  203MOL0     O27301  -1.723  10.542  10.311 -0.3999  0.6190  0.0558
  203MOL0     C27302  -1.847  10.510  10.356  0.7117 -0.0981 -0.9868
  203MOL0     C27303  -1.970  10.554  10.290  1.1382 -0.1487 -0.4397
  203MOL0     C27304  -2.092  10.507  10.333  0.4336  0.8735  0.2644
  203MOL0     C27305  -2.103  10.439  10.457  0.1449 -0.2876 -0.6408
  203MOL0     O27306  -2.231  10.410  10.498  0.0070  0.1785 -0.1980
  203MOL0     C27307  -2.246  10.314  10.599  0.1539 -0.6476 -0.9638
  203MOL0     C27308  -2.397  10.303  10.636 -0.3519  0.3496 -0.1251
  203MOL0     C27309  -2.415  10.223  10.771  0.0648 -0.7730  1.0319
  203MOL0     C27310  -2.559  10.186  10.792  0.7941 -0.0758 -0.1694
  203MOL0     C27311  -2.586  10.136  10.939 -0.3983 -0.0598  0.0537
  203MOL0     C27312  -2.729  10.095  10.973  0.2893  0.1055  0.1134
  203MOL0     C27313  -2.738  10.063  11.123  0.1150  0.0652 -0.8760
  203MOL0     C27314  -2.887  10.015  11.157 -0.4335  0.0893  0.0979
  203MOL0    Cl27315  -2.932   9.862  11.085 -0.2980 -0.1839  0.2284
  203MOL0     C27316  -1.991  10.414  10.533 -1.0367  0.8584 -0.1528
  203MOL0     C27317  -1.863  10.437  10.478  0.0816  0.9202  0.1412
  203MOL0     O27318  -1.764  10.561  10.088 -0.6188  0.2132 -0.0399
  203MOL0     C27319  -1.540  10.696  10.038  0.3676  0.2224 -0.0408
  203MOL0     C27320  -1.408  10.724   9.981 -0.1323 -1.4863 -0.1669
  203MOL0     N27321  -0.711  10.456  10.080  0.5648  0.2037 -0.5158
  203MOL0     N27322  -0.593  10.421  10.103  0.3415  0.6765  0.1196
  203MOL0     C27323   0.597  10.552  10.292  0.6739 -0.2322  0.4862
  203MOL0     C27324   0.701  10.459  10.290  0.2903 -0.0664  0.5133
  203MOL0     C27325   1.108  10.287  10.223  0.2882  0.0999  0.6416
  203MOL0     C27326   1.167  10.253  10.103  0.0435  0.1228 -0.3326
  203MOL0     C27327   1.296  10.216  10.107  0.6061  0.5041 -1.0728
  203MOL0     C27328   1.375  10.214  10.223  0.2011 -0.7950  0.1805
  203MOL0     O27329   1.509  10.202  10.232 -1.1976 -1.0116 -0.2005
  203MOL0     C27330   1.587  10.195  10.113 -0.5084 -0.3881 -0.2815
  203MOL0     C27331   1.603  10.338  10.059  0.3844  0.5232  0.9694
  203MOL0     C27332   1.673  10.430  10.167 -0.5775 -0.0278 -0.2821
  203MOL0     C27333   1.819  10.465  10.106 -0.0756  1.0953 -0.4781
  203MOL0     C27334   1.909  10.351  10.120 -1.2580 -0.3904  0.5163
  203MOL0     C27335   1.986  10.255  10.159  0.5183  0.5290 -0.4112
  203MOL0     C27336   1.314  10.231  10.339  0.5159  0.4716 -0.1076
  203MOL0     C27337   1.175  10.276  10.349  0.6185  0.0807  0.5167
  203MOL0     H27338   0.945  10.679  10.363 -0.2277  0.1340 -2.0850
  203MOL0     H27339   0.766  10.830  10.359  1.4281  0.2562 -0.2383
  203MOL0     H27340   0.355  10.833  10.193 -0.9110 -1.4247 -1.8022
  203MOL0     H27341   0.409  10.670  10.180  3.1057  0.5686 -0.5922
  203MOL0     H27342   0.299  10.600  10.358 -3.0250 -0.2406  1.2373
  203MOL0     H27343   0.305  10.750  10.450  1.0903  0.1408  0.1955
  203MOL0     H27344   0.123  10.846  10.316 -1.4974 -1.0935  2.9557
  203MOL0     H27345   0.142  10.726  10.183  0.9308 -1.3882  1.0663
  203MOL0     H27346   0.072  10.553  10.329 -0.9541  0.1614 -1.3301
  203MOL0     H27347   0.044  10.667  10.463 -1.0415  1.1217 -0.5098
  203MOL0     H27348  -0.125  10.792  10.320  1.4900  2.3357 -4.4972
  203MOL0     H27349  -0.081  10.687  10.178  0.6346  2.9586 -0.6593
  203MOL0     H27350  -0.146  10.493  10.322  1.4803  1.3338  3.0801
  203MOL0     H27351  -0.220  10.599  10.438 -0.4157  1.9197 -0.8229
  203MOL0     H27352  -0.374  10.684  10.271  1.0698  1.3434 -0.1656
  203MOL0     H27353  -0.298  10.588  10.139  2.0652  0.1234  0.2436
  203MOL0     H27354  -0.438  10.467  10.390 -0.8485  1.7176 -0.2915
  203MOL0     H27355  -0.364  10.378  10.264 -0.5860 -0.9712  1.7569
  203MOL0     H27356  -0.659  10.631  10.349  0.4450  2.3439 -2.7039
  203MOL0     H27357  -0.943  10.518  10.141  0.0971  1.0343 -0.0920
  203MOL0     H27358  -0.908  10.612  10.297 -1.8343 -0.9803  0.2580
  203MOL0     H27359  -0.798  10.784  10.135  1.0505 -1.1934  0.2448
  203MOL0     H27360  -0.969  10.800  10.174 -1.6798 -0.9086 -0.4437
  203MOL0     H27361  -0.875  10.647   9.927 -1.9564  0.8729 -2.5794
  203MOL0     H27362  -0.922  10.815   9.931 -4.3880 -0.6001 -2.2444
  203MOL0     H27363  -1.101  10.581   9.989 -3.4901 -0.1256 -2.0829
  203MOL0     H27364  -1.095  10.693   9.857  2.5910  2.2961  0.4062
  203MOL0     H27365  -1.222  10.660  10.251  1.4454  1.3906 -0.1354
  203MOL0     H27366  -1.516  10.605  10.440  0.1283 -1.9620  1.9352
  203MOL0     H27367  -1.449  10.450  10.376  1.7941  0.3590  1.4390
  203MOL0     H27368  -1.351  10.583  10.429  0.4101  0.1902 -1.8278
  203MOL0     H27369  -1.958  10.614  10.200 -0.0689  0.5919 -0.1364
  203MOL0     H27370  -2.183  10.521  10.276  0.4396 -0.9330 -0.2522
  203MOL0     H27371  -2.212  10.217  10.563  0.7470  0.4125 -3.4556
  203MOL0     H27372  -2.190  10.355  10.683  0.9765 -0.6284 -1.5124
  203MOL0     H27373  -2.438  10.403  10.655 -1.6563 -0.3195  0.7472
  203MOL0     H27374  -2.461  10.257  10.560 -0.3889  0.3193 -0.0755
  203MOL0     H27375  -2.391  10.294  10.851 -0.6227 -0.3560  0.8753
  203MOL0     H27376  -2.346  10.138  10.766 -0.6705 -1.3192 -0.0638
  203MOL0     H27377  -2.608  10.283  10.780  0.7442  0.1616  1.7039
  203MOL0     H27378  -2.605  10.130  10.710 -3.7028  1.7807  0.7884
  203MOL0     H27379  -2.550  10.217  11.003 -1.1759  0.3778 -0.0573
  203MOL0     H27380  -2.520  10.049  10.950 -1.6025 -1.0360 -0.1479
  203MOL0     H27381  -2.797  10.179  10.956  1.9479  1.0009 -2.8729
  203MOL0     H27382  -2.762  10.016  10.906  0.3613 -0.3432  0.6004
  203MOL0     H27383  -2.703  10.150  11.179 -0.9093 -0.4421  0.6044
  203MOL0     H27384  -2.660   9.991  11.150 -0.9422 -0.1801  1.7502
  203MOL0     H27385  -2.952  10.097  11.126 -1.4319 -1.2879 -1.6861
  203MOL0     H27386  -2.899  10.013  11.266 -0.9581  3.2434  0.2009
  203MOL0     H27387  -1.993  10.361  10.627  0.6824 -1.8269 -1.5217
  203MOL0     H27388  -1.778  10.407  10.539 -1.6183 -0.4110  1.9610
  203MOL0     H27389  -1.632  10.707   9.982 -1.3369  2.2067  2.8553
  203MOL0     H27390  -1.392  10.769   9.883  2.9560 -2.9175 -0.4233
  203MOL0     H27391   0.492  10.525  10.285 -0.2627  2.5932  2.0772
  203MOL0     H27392   0.684  10.355  10.266 -0.1168 -0.7357  3.3577
  203MOL0     H27393   1.125  10.278  10.007 -1.6478  4.4151  1.2798
  203MOL0     H27394   1.344  10.197  10.011  3.9831  0.1714  0.5214
  203MOL0     H27395   1.686  10.158  10.140 -0.6215  0.0250  0.7566
  203MOL0     H27396   1.544  10.125  10.040  1.6075 -2.8685  0.7365
  203MOL0     H27397   1.500  10.368  10.039 -0.2681 -1.3122  1.3616
  203MOL0     H27398   1.660  10.339   9.965  0.8552  1.9214  1.2443
  203MOL0     H27399   1.682  10.388  10.267 -2.5457 -2.8458 -1.1414
  203MOL0     H27400   1.611  10.519  10.177 -1.3459 -0.7607  1.9096
  203MOL0     H27401   1.861  10.544  10.169  1.1734 -1.6882  2.4891
  203MOL0     H27402   1.820  10.501  10.003  0.9660  0.6074 -0.6557
  203MOL0     H27403   2.040  10.165  10.179 -1.8587 -0.8196  0.3549
  203MOL0     H27404   1.366  10.218  10.434 -0.1105  2.2282  0.5349
  203MOL0     H27405   1.103  10.300  10.427 -3.1092 -2.3903 -1.8450
  204MOL0     O27406   8.104   8.286   0.714 -0.3694  0.0858  0.0065
  204MOL0     C27407   8.105   8.170   0.690 -0.9685  0.5521 -0.3436
  204MOL0     O27408   8.210   8.084   0.688  0.1439  0.4561 -0.4001
  204MOL0     C27409   8.342   8.124   0.714  0.1643  0.3977 -0.4446
  204MOL0     C27410   8.434   8.127   0.606  0.4385  1.1979 -0.2220
  204MOL0     C27411   8.558   8.162   0.636 -0.5287  0.1395 -0.1641
  204MOL0     C27412   8.613   8.171   0.769  0.1461 -0.5967 -0.2717
  204MOL0     O27413   8.752   8.177   0.781 -0.5153 -0.3501  0.5352
  204MOL0     C27414   8.809   8.217   0.907 -0.3286  0.0580 -0.1011
  204MOL0     C27415   8.948   8.258   0.867 -0.1303 -0.8804  0.9055
  204MOL0     C27416   9.043   8.296   0.985 -0.0891 -0.7812 -0.1529
  204MOL0     C27417   9.184   8.330   0.937  0.9452  0.1165  0.3048
  204MOL0     C27418   9.254   8.424   1.025 -0.4373 -1.1754  0.5734
  204MOL0     C27419   9.365   8.489   0.941 -0.2011 -1.1481 -0.4878
  204MOL0     C27420   9.470   8.547   1.034 -0.1415  0.1338 -0.1935
  204MOL0     C27421   9.425   8.653   1.144  0.6329  0.0520  0.4458
  204MOL0     N27422   9.362   8.773   1.094 -0.0994 -0.6344  0.3920
  204MOL0     C27423   9.424   8.865   1.012  0.2986 -0.0501  0.1488
  204MOL0     C27424   9.321   8.936   0.965 -0.5356  0.0603  0.4365
  204MOL0     C27425   9.345   9.049   0.870 -0.4846 -0.2624 -0.6429
  204MOL0     C27426   9.228   9.090   0.781  0.0208  0.9202  0.4708
  204MOL0     C27427   9.191   8.966   0.700 -0.0008  0.3661 -0.2443
  204MOL0     C27428   9.038   8.958   0.682 -0.2010  0.6836  0.0694
  204MOL0     O27429   8.992   9.079   0.623  0.0461  0.5066  0.0216
  204MOL0     C27430   8.861   9.093   0.588 -0.3327  0.1855  0.3146
  204MOL0     C27431   8.764   8.990   0.600 -0.1949  0.1248  0.1759
  204MOL0     C27432   8.634   9.012   0.543 -0.3362 -0.8172  0.8241
  204MOL0     C27433   8.543   8.901   0.539  0.2135  0.4381  0.1615
  204MOL0     C27434   8.596   9.146   0.492 -0.1260  0.3275 -0.0287
  204MOL0     C27435   8.469   9.177   0.427  0.2444  0.3050 -1.4241
  204MOL0     O27436   8.396   9.084   0.352 -0.0846 -0.2243 -0.3174
  204MOL0     C27437   8.266   9.132   0.319  0.3837  0.1203  0.3761
  204MOL0     C27438   8.253   9.245   0.236  0.2930 -0.6596 -0.4137
  204MOL0     C27439   8.125   9.289   0.194  0.4848  0.8081  0.1643
  204MOL0     C27440   8.016   9.218   0.240  0.4031 -0.2634 -0.7613
  204MOL0     O27441   7.888   9.253   0.206  0.0859 -0.9224 -0.9414
  204MOL0     C27442   7.851   9.387   0.178  0.2363 -0.4326 -0.3601
  204MOL0     C27443   7.852   9.475   0.304  0.0399 -0.1295 -0.9776
  204MOL0     C27444   7.758   9.441   0.419 -0.7263  0.9077 -0.1592
  204MOL0     C27445   7.814   9.346   0.522  0.1398 -0.0185 -0.6831
  204MOL0     C27446   7.704   9.270   0.611 -0.6637 -0.1161  1.0796
  204MOL0     C27447   7.598   9.192   0.528 -0.4981 -0.2641 -0.2932
  204MOL0     C27448   7.526   9.085   0.604  0.4806  0.2070  0.4766
  204MOL0     C27449   7.396   9.040   0.540 -0.8057  0.4248 -0.0355
  204MOL0    Cl27450   7.449   8.940   0.402 -0.1698 -0.3321  0.6232
  204MOL0     C27451   8.024   9.104   0.318 -0.1840 -0.1409 -0.2433
  204MOL0     C27452   8.155   9.055   0.356 -0.6601 -0.9432 -0.4227
  204MOL0     O27453   8.429   9.289   0.460 -0.2326  0.0458  0.0384
  204MOL0     C27454   8.698   9.236   0.498  0.1833 -0.3053  0.1782
  204MOL0     C27455   8.823   9.218   0.544 -0.2121 -0.4542  0.2534
  204MOL0     N27456   9.207   8.904   1.037 -0.1380 -0.4230 -0.4289
  204MOL0     N27457   9.234   8.808   1.113  0.4504  0.6388 -0.4904
  204MOL0     C27458   8.523   8.169   0.873 -0.5642  0.0016  0.5196
  204MOL0     C27459   8.383   8.147   0.845  0.2732 -0.0280 -0.1978
  204MOL0     C27460   7.968   8.119   0.668 -0.5464  0.0539 -0.4212
  204MOL0     C27461   7.876   8.202   0.608  1.1686 -0.4394 -0.3198
  204MOL0     C27462   7.746   8.153   0.595 -0.1585 -0.4392  0.2691
  204MOL0     C27463   7.713   8.019   0.640 -0.5441 -0.7273 -0.1788
  204MOL0     O27464   7.582   7.989   0.617 -0.4375  0.2099  0.0789
  204MOL0     C27465   7.544   7.850   0.625  0.6400 -0.0427  0.0544
  204MOL0     C27466   7.392   7.844   0.618 -0.3119  0.5885  0.3545
  204MOL0     C27467   7.341   7.695   0.649  0.1645 -0.6910  0.5306
  204MOL0     C27468   7.434   7.589   0.687 -0.1822  0.0042  0.8412
  204MOL0     C27469   7.508   7.522   0.576 -0.0086 -0.1976 -0.2466
  204MOL0     C27470   7.569   7.467   0.487  0.6269  0.1155  0.4806
  204MOL0     C27471   7.812   7.933   0.675 -0.2687  0.9016  0.3649
  204MOL0     C27472   7.939   7.980   0.683 -0.2986  0.1844  0.1112
  204MOL0     H27473   8.418   8.115   0.500  1.7929  0.6721 -0.3876
  204MOL0     H27474   8.630   8.161   0.555 -0.5275  0.2464 -0.1650
  204MOL0     H27475   8.763   8.304   0.954  0.8011  1.0489 -0.7761
  204MOL0     H27476   8.807   8.135   0.980 -0.7797  0.5852  0.4962
  204MOL0     H27477   8.989   8.172   0.813 -2.7935 -3.7724  3.1551
  204MOL0     H27478   8.933   8.342   0.799 -1.2853 -2.0255 -0.3093
  204MOL0     H27479   8.997   8.386   1.028 -3.9835 -0.5574 -4.1057
  204MOL0     H27480   9.045   8.217   1.060  0.6901 -0.2087  0.4538
  204MOL0     H27481   9.246   8.240   0.928  1.0393  0.0907  1.1107
  204MOL0     H27482   9.172   8.377   0.839 -0.9881 -1.5045 -0.3042
  204MOL0     H27483   9.181   8.500   1.055  0.1682 -0.5710  0.5204
  204MOL0     H27484   9.301   8.381   1.114  0.3424 -0.5816  0.4546
  204MOL0     H27485   9.410   8.409   0.882  1.6797 -1.8277  1.7300
  204MOL0     H27486   9.312   8.554   0.871 -1.3892 -2.4069 -0.8128
  204MOL0     H27487   9.524   8.471   1.091  2.4049  0.9174 -1.4238
  204MOL0     H27488   9.539   8.604   0.970 -0.0447  1.0739  0.7264
  204MOL0     H27489   9.512   8.680   1.204  1.5292 -1.0125 -0.3326
  204MOL0     H27490   9.352   8.600   1.207 -2.4371  0.7669 -2.2731
  204MOL0     H27491   9.527   8.875   0.980  0.6186 -0.3434  1.0641
  204MOL0     H27492   9.384   9.135   0.925  1.7491 -0.4808 -1.7722
  204MOL0     H27493   9.425   9.024   0.799  1.1215  0.0733  0.9904
  204MOL0     H27494   9.263   9.174   0.720 -2.0755  1.0736 -0.6119
  204MOL0     H27495   9.145   9.136   0.835 -0.7053  1.9275 -1.3921
  204MOL0     H27496   9.223   8.867   0.736  2.2441  0.8713 -0.7309
  204MOL0     H27497   9.237   8.977   0.602  1.2284 -0.9779  0.1445
  204MOL0     H27498   8.985   8.931   0.773  1.5934 -2.0530  0.4215
  204MOL0     H27499   9.019   8.872   0.617  0.3681  0.8020 -0.2622
  204MOL0     H27500   8.786   8.891   0.639  2.5078  1.4362  2.2998
  204MOL0     H27501   8.573   8.810   0.590  0.6085  1.2660  1.4416
  204MOL0     H27502   8.444   8.923   0.580 -0.5244 -0.2571 -1.1685
  204MOL0     H27503   8.520   8.862   0.439  0.8299 -1.4743  0.7336
  204MOL0     H27504   8.339   9.302   0.202 -0.5270  0.6701 -0.3102
  204MOL0     H27505   8.123   9.375   0.128 -0.1948  0.7920  0.1645
  204MOL0     H27506   7.911   9.426   0.095  1.5203 -1.4571  0.0425
  204MOL0     H27507   7.750   9.385   0.137 -1.5028 -1.0652  3.4889
  204MOL0     H27508   7.956   9.475   0.336  1.0464  3.7101 -3.5137
  204MOL0     H27509   7.826   9.573   0.263 -2.3220 -1.3152 -2.5483
  204MOL0     H27510   7.662   9.408   0.380  0.2321  1.0827 -2.8339
  204MOL0     H27511   7.742   9.534   0.475  2.3827  1.4895 -0.0602
  204MOL0     H27512   7.885   9.277   0.477 -2.2097 -3.0545 -0.0762
  204MOL0     H27513   7.873   9.406   0.593  0.5024 -1.4215  0.2265
  204MOL0     H27514   7.650   9.345   0.670 -0.2363  0.6022  0.5708
  204MOL0     H27515   7.760   9.196   0.669  0.6132 -0.2339 -0.2586
  204MOL0     H27516   7.532   9.277   0.509  2.2973  2.4037  1.1220
  204MOL0     H27517   7.629   9.158   0.429 -1.4580 -0.8135 -0.4176
  204MOL0     H27518   7.504   9.108   0.708  0.2882  0.6195  0.3455
  204MOL0     H27519   7.603   9.007   0.595  1.2587  1.0290 -0.1536
  204MOL0     H27520   7.340   9.130   0.513  1.2944  1.4375 -1.2768
  204MOL0     H27521   7.339   8.977   0.609  0.8615  1.3311  2.2494
  204MOL0     H27522   7.931   9.057   0.350  1.1719 -1.0658  2.6478
  204MOL0     H27523   8.167   8.969   0.421 -0.8308  1.5661  3.1901
  204MOL0     H27524   8.681   9.329   0.445  0.4097  0.6610  1.7173
  204MOL0     H27525   8.901   9.289   0.516  1.3058 -1.8700  0.7092
  204MOL0     H27526   8.562   8.194   0.971  2.5580 -0.9487 -0.3688
  204MOL0     H27527   8.295   8.150   0.908 -0.5946 -0.0687 -1.3823
  204MOL0     H27528   7.897   8.305   0.580 -0.4666  0.2230  0.7111
  204MOL0     H27529   7.666   8.217   0.560 -1.3646  0.9421  4.7549
  204MOL0     H27530   7.597   7.795   0.547  0.8852  2.6237 -1.7875
  204MOL0     H27531   7.580   7.822   0.725 -1.0049  3.4016  1.8162
  204MOL0     H27532   7.365   7.874   0.516  1.1166 -0.0215 -0.2241
  204MOL0     H27533   7.359   7.910   0.700 -0.8864 -0.0394  0.6389
  204MOL0     H27534   7.293   7.659   0.558  0.4295 -0.9126  0.4790
  204MOL0     H27535   7.255   7.695   0.716 -0.0422  0.6672  0.3119
  204MOL0     H27536   7.376   7.517   0.745  0.8940 -0.4629  1.3642
  204MOL0     H27537   7.502   7.631   0.762 -1.5004  1.0389  1.5060
  204MOL0     H27538   7.630   7.424   0.410  0.4305 -0.4937  0.6555
  204MOL0     H27539   7.783   7.832   0.703  1.4991  0.4659  0.7347
  204MOL0     H27540   8.015   7.903   0.697 -0.3924  0.0025 -0.3712
  205MOL0     O27541   5.624  10.875   3.467  0.2948  0.5519  0.7159
  205MOL0     C27542   5.664  10.920   3.570 -0.1570  0.1270  0.9235
  205MOL0     O27543   5.597  11.015   3.643  0.3337 -0.6718 -0.6025
  205MOL0     C27544   5.466  11.055   3.597 -0.1698 -0.5266 -0.0137
  205MOL0     C27545   5.429  11.191   3.605 -0.2861  0.2842 -0.5883
  205MOL0     C27546   5.305  11.233   3.557 -0.0249  0.4030  0.2005
  205MOL0     C27547   5.216  11.135   3.502  0.5362  0.0867 -0.4662
  205MOL0     O27548   5.084  11.175   3.486  0.6124  0.6245  0.5682
  205MOL0     C27549   4.994  11.069   3.477 -1.0010 -0.7987  0.7917
  205MOL0     C27550   4.857  11.123   3.468 -0.7575 -0.0551  0.7586
  205MOL0     C27551   4.741  11.020   3.490 -0.7082 -0.4497 -0.2131
  205MOL0     C27552   4.610  11.091   3.525  0.3830  0.4848  0.6434
  205MOL0     C27553   4.499  10.994   3.563  0.7245 -0.0092  0.6324
  205MOL0     C27554   4.358  11.065   3.574  0.0249  0.1349  0.5088
  205MOL0     C27555   4.253  10.969   3.620  0.5232  0.5809  0.1517
  205MOL0     C27556   4.120  11.052   3.617  0.8642  0.0718 -0.8492
  205MOL0     N27557   4.005  10.996   3.677  0.4804 -0.0466 -0.2161
  205MOL0     C27558   3.883  10.976   3.622  0.1923 -0.2147 -0.0746
  205MOL0     C27559   3.808  10.918   3.726  0.0473 -0.3173  0.3567
  205MOL0     C27560   3.667  10.871   3.727 -0.0580 -0.2790  0.6537
  205MOL0     C27561   3.568  10.969   3.660  0.6121 -0.2180  0.4979
  205MOL0     C27562   3.422  10.916   3.687  0.1629 -0.0511 -0.6398
  205MOL0     C27563   3.341  10.992   3.575 -0.5010  0.3597  0.4600
  205MOL0     O27564   3.213  10.935   3.590 -0.2615  0.3759  0.9615
  205MOL0     C27565   3.104  11.007   3.546 -0.3111 -0.5739  0.0530
  205MOL0     C27566   3.077  11.140   3.586 -1.2395  0.1706 -0.8106
  205MOL0     C27567   2.953  11.194   3.573  0.1225 -0.5001  0.6031
  205MOL0     C27568   2.951  11.336   3.627  0.0658 -0.3632 -0.1130
  205MOL0     C27569   2.845  11.124   3.506 -0.4456 -0.0345  0.1509
  205MOL0     C27570   2.708  11.177   3.497  0.4605  0.5540  0.0720
  205MOL0     O27571   2.688  11.318   3.493 -0.2452  0.1765  0.5910
  205MOL0     C27572   2.571  11.382   3.455  0.2830  0.2143 -0.8328
  205MOL0     C27573   2.585  11.512   3.422  0.0173 -0.3581  0.1659
  205MOL0     C27574   2.473  11.599   3.393  0.2124  0.0370  0.2977
  205MOL0     C27575   2.349  11.536   3.366 -0.5960 -0.1357 -0.7085
  205MOL0     O27576   2.254  11.614   3.310  0.1071  0.7320  0.0435
  205MOL0     C27577   2.130  11.567   3.263  0.1792  0.6908 -0.1478
  205MOL0     C27578   2.032  11.676   3.235 -1.0096  0.1905 -0.1886
  205MOL0     C27579   1.979  11.746   3.359 -0.0126 -0.2248  0.7797
  205MOL0     C27580   1.855  11.667   3.402  0.6557  0.0421 -0.5483
  205MOL0     C27581   1.728  11.687   3.315  0.1701 -0.0317  0.2347
  205MOL0     C27582   1.601  11.623   3.370 -0.2728  0.1206  0.8532
  205MOL0     C27583   1.489  11.651   3.263 -0.4131 -0.9406  0.1404
  205MOL0     C27584   1.419  11.784   3.297 -0.3173 -0.5583  0.6601
  205MOL0    Cl27585   1.292  11.813   3.169  0.4568 -0.1721 -0.0843
  205MOL0     C27586   2.339  11.394   3.390 -0.1409  0.2685  0.3585
  205MOL0     C27587   2.443  11.323   3.440 -0.4721  0.4130 -0.5054
  205MOL0     O27588   2.620  11.092   3.477 -0.0897  0.3173  0.1115
  205MOL0     C27589   2.873  10.997   3.454 -0.7794 -0.2609 -0.5163
  205MOL0     C27590   3.001  10.947   3.478  0.2975  0.7608  0.1950
  205MOL0     N27591   3.896  10.910   3.838  0.7020  0.2970  0.4254
  205MOL0     N27592   4.001  10.958   3.805 -0.7457 -0.1677  0.1105
  205MOL0     C27593   5.262  11.006   3.491  0.6602 -0.2872  0.0841
  205MOL0     C27594   5.377  10.961   3.553 -0.0038  0.6300 -0.0237
  205MOL0     C27595   5.777  10.853   3.628 -1.0950  0.0380  0.1816
  205MOL0     C27596   5.876  10.816   3.536  0.2086 -0.0956  0.3246
  205MOL0     C27597   6.007  10.782   3.574 -0.4601 -0.9528 -0.1997
  205MOL0     C27598   6.044  10.772   3.709  0.7805  0.3524 -0.1485
  205MOL0     O27599   6.176  10.748   3.747 -0.3105  0.9082 -0.5219
  205MOL0     C27600   6.215  10.770   3.891  0.2611 -0.9916  0.6870
  205MOL0     C27601   6.360  10.746   3.903  0.4928  0.0868  0.1294
  205MOL0     C27602   6.444  10.806   3.798 -0.4328  0.5933  0.5866
  205MOL0     C27603   6.588  10.781   3.816 -0.0630 -0.0721  0.1433
  205MOL0     C27604   6.660  10.846   3.706 -0.0079 -0.3062  0.1396
  205MOL0     C27605   6.705  10.908   3.616 -0.6199 -0.8487 -0.6308
  205MOL0     C27606   5.945  10.813   3.799 -0.1320 -0.0530 -0.0480
  205MOL0     C27607   5.820  10.857   3.758 -0.3010 -0.1479  1.5781
  205MOL0     H27608   5.510  11.261   3.622 -0.9383  0.6111  1.3361
  205MOL0     H27609   5.269  11.329   3.591 -0.5354  0.3776 -0.2451
  205MOL0     H27610   5.013  11.013   3.385 -0.0988 -0.1360  0.5536
  205MOL0     H27611   5.013  10.994   3.554  0.3642 -1.6858 -0.3519
  205MOL0     H27612   4.854  11.211   3.533  1.7369  0.4722  0.2939
  205MOL0     H27613   4.864  11.162   3.366  1.6838 -1.1220  0.4344
  205MOL0     H27614   4.737  10.963   3.397  2.4850 -0.3133 -0.5656
  205MOL0     H27615   4.767  10.959   3.577  0.6546 -0.3308 -0.5103
  205MOL0     H27616   4.629  11.172   3.597  2.8016  0.7021 -0.1420
  205MOL0     H27617   4.578  11.144   3.434 -2.1725 -1.9184  0.0040
  205MOL0     H27618   4.501  10.905   3.500 -1.4017  0.7374 -0.5774
  205MOL0     H27619   4.523  10.952   3.661 -0.6611  1.0154  1.4550
  205MOL0     H27620   4.358  11.149   3.644  0.5813 -0.1432  0.8445
  205MOL0     H27621   4.335  11.106   3.475  2.0413  2.4417  0.9021
  205MOL0     H27622   4.246  10.880   3.556 -3.2966  1.8592 -1.4990
  205MOL0     H27623   4.259  10.931   3.723 -1.8854  0.0015  0.1391
  205MOL0     H27624   4.096  11.082   3.515 -1.4612  1.6888  0.0939
  205MOL0     H27625   4.140  11.142   3.677  1.8520 -0.0244 -1.0107
  205MOL0     H27626   3.860  10.999   3.518 -1.2233  1.3266  0.5353
  205MOL0     H27627   3.661  10.770   3.686  1.9475 -0.2274  0.1553
  205MOL0     H27628   3.641  10.854   3.832 -2.0641 -4.7674 -0.3566
  205MOL0     H27629   3.598  10.977   3.556  0.9165 -1.4063  0.4723
  205MOL0     H27630   3.576  11.070   3.701 -0.0271 -0.0816  0.3042
  205MOL0     H27631   3.387  10.958   3.782 -0.4821  0.3092 -1.0250
  205MOL0     H27632   3.413  10.807   3.689  2.8496 -0.3423  1.1566
  205MOL0     H27633   3.381  10.961   3.477  0.5129  3.1357 -0.1095
  205MOL0     H27634   3.338  11.101   3.587 -1.5212  0.1933  1.9171
  205MOL0     H27635   3.148  11.200   3.641 -1.1396  1.7302 -2.5428
  205MOL0     H27636   3.035  11.356   3.695 -0.9687  2.7278  0.4082
  205MOL0     H27637   2.955  11.403   3.540 -2.0216 -0.6422 -0.4650
  205MOL0     H27638   2.860  11.358   3.682  0.4127  0.2246  0.2333
  205MOL0     H27639   2.686  11.549   3.437 -0.1750 -0.9462  3.5772
  205MOL0     H27640   2.503  11.701   3.371  3.7225 -0.8734  0.3191
  205MOL0     H27641   2.142  11.508   3.171 -2.5744  0.8000 -0.6565
  205MOL0     H27642   2.078  11.499   3.331 -1.6685  1.9142 -0.2925
  205MOL0     H27643   2.087  11.751   3.178  0.2123 -1.2510 -0.9931
  205MOL0     H27644   1.950  11.634   3.175 -0.5453 -0.4478 -0.3888
  205MOL0     H27645   1.960  11.847   3.321  2.3194 -0.1019 -0.2779
  205MOL0     H27646   2.059  11.759   3.433 -1.2136 -0.3553  2.1515
  205MOL0     H27647   1.883  11.563   3.421 -1.0807 -0.1436  1.3184
  205MOL0     H27648   1.828  11.699   3.503  0.6768 -1.9907  0.1289
  205MOL0     H27649   1.745  11.636   3.220  0.5823  1.2811 -0.4134
  205MOL0     H27650   1.702  11.792   3.297  0.4518 -0.2567 -1.7764
  205MOL0     H27651   1.618  11.516   3.354 -0.9128  0.5109 -4.1487
  205MOL0     H27652   1.575  11.663   3.468 -1.7452 -1.7277  1.2843
  205MOL0     H27653   1.418  11.569   3.246 -0.5355 -1.4106  2.5746
  205MOL0     H27654   1.530  11.655   3.162 -1.7329 -1.0324 -0.4124
  205MOL0     H27655   1.493  11.865   3.297 -2.7183  1.7994  1.3057
  205MOL0     H27656   1.387  11.788   3.402  1.5940 -1.2124  1.3113
  205MOL0     H27657   2.242  11.345   3.385  1.4881 -3.1309 -0.3927
  205MOL0     H27658   2.433  11.215   3.447  0.8486  0.1775 -1.7759
  205MOL0     H27659   2.798  10.938   3.403 -2.3791 -0.6947  2.1138
  205MOL0     H27660   3.029  10.844   3.458 -0.6253  0.3337  0.9928
  205MOL0     H27661   5.201  10.925   3.454 -0.5867  1.1019 -1.0169
  205MOL0     H27662   5.396  10.855   3.561  0.3840  0.8258  2.6158
  205MOL0     H27663   5.859  10.805   3.429  1.1817  1.6995 -0.0561
  205MOL0     H27664   6.077  10.735   3.505  1.3351 -1.4866  1.8637
  205MOL0     H27665   6.199  10.874   3.922 -1.3427  0.3157 -3.6940
  205MOL0     H27666   6.152  10.720   3.965 -0.6727  0.2096  0.7332
  205MOL0     H27667   6.385  10.639   3.909  1.7520  0.2651 -1.1856
  205MOL0     H27668   6.395  10.787   3.998  1.8976 -1.6752  0.4309
  205MOL0     H27669   6.416  10.911   3.792  0.1242  0.7327  0.3110
  205MOL0     H27670   6.412  10.768   3.700 -3.7663  1.9583  1.0021
  205MOL0     H27671   6.610  10.674   3.812  1.6248  0.2832 -1.1153
  205MOL0     H27672   6.612  10.830   3.910  0.1745  1.7393 -0.8286
  205MOL0     H27673   6.731  10.972   3.534 -1.3112  0.1490 -0.0830
  205MOL0     H27674   5.960  10.826   3.905 -0.1731  0.0441 -0.0544
  205MOL0     H27675   5.759  10.914   3.828  0.6497  0.8930  1.5927
  206MOL0     O27676   0.378   4.500   3.496 -0.1648  0.0477 -0.2818
  206MOL0     C27677   0.404   4.414   3.407 -0.7157  0.3763 -0.0664
  206MOL0     O27678   0.315   4.347   3.329 -0.0375 -0.6139  0.5172
  206MOL0     C27679   0.178   4.343   3.356 -0.6679  0.3506 -0.7346
  206MOL0     C27680   0.119   4.372   3.480  0.0506 -0.7777 -0.0050
  206MOL0     C27681  -0.021   4.380   3.498 -0.8075  0.1570  0.5847
  206MOL0     C27682  -0.106   4.333   3.386  0.3732  0.0088 -0.2519
  206MOL0     O27683  -0.238   4.326   3.386  0.4528  0.2752 -1.0736
  206MOL0     C27684  -0.310   4.394   3.488  0.5928  0.5273  0.9167
  206MOL0     C27685  -0.457   4.356   3.470 -0.3362 -0.6567  0.5250
  206MOL0     C27686  -0.557   4.445   3.548  0.0605 -0.3552 -0.4830
  206MOL0     C27687  -0.691   4.394   3.523  0.8222 -0.8262 -0.5584
  206MOL0     C27688  -0.791   4.487   3.590  0.1265  0.7093 -0.0981
  206MOL0     C27689  -0.936   4.438   3.589 -0.3156  0.3330  0.1993
  206MOL0     C27690  -0.951   4.303   3.666  0.8564  0.8698 -0.6404
  206MOL0     C27691  -1.096   4.250   3.681  0.2689 -0.6407  0.0531
  206MOL0     N27692  -1.182   4.321   3.774  0.1602 -0.2572  0.0283
  206MOL0     C27693  -1.163   4.443   3.833 -0.3025 -0.0455  0.1152
  206MOL0     C27694  -1.266   4.455   3.917 -0.7641 -0.8213  0.7503
  206MOL0     C27695  -1.278   4.565   4.022 -0.6258  0.0857 -0.1791
  206MOL0     C27696  -1.415   4.632   3.999  0.5606  0.4784 -0.2446
  206MOL0     C27697  -1.419   4.719   3.876  0.0274 -0.6603  0.1426
  206MOL0     C27698  -1.536   4.828   3.888  0.1598  0.3657 -0.4748
  206MOL0     O27699  -1.505   4.949   3.811 -0.0156 -0.1883  0.6154
  206MOL0     C27700  -1.611   5.040   3.801 -0.7426  0.4962  0.7287
  206MOL0     C27701  -1.645   5.130   3.906  0.0293  0.8800 -0.3628
  206MOL0     C27702  -1.756   5.218   3.885  0.1106  0.1187  0.2808
  206MOL0     C27703  -1.778   5.322   3.990  0.7427  0.5119 -0.1590
  206MOL0     C27704  -1.839   5.214   3.770  0.8325  0.6435  0.0679
  206MOL0     C27705  -1.959   5.296   3.749 -0.1494  0.4314  0.8909
  206MOL0     O27706  -2.012   5.284   3.617  0.5373  0.1630  0.2890
  206MOL0     C27707  -2.147   5.312   3.583  0.1662  0.0728 -0.1275
  206MOL0     C27708  -2.217   5.215   3.515 -0.0013 -0.4001 -0.8367
  206MOL0     C27709  -2.343   5.237   3.473 -0.7103  0.2984 -0.2569
  206MOL0     C27710  -2.404   5.362   3.486 -1.1752  0.7612 -0.4225
  206MOL0     O27711  -2.531   5.393   3.450  0.1493 -0.1278  0.0358
  206MOL0     C27712  -2.623   5.285   3.419  0.4535 -0.4485  0.2979
  206MOL0     C27713  -2.763   5.353   3.389  0.3182  0.4193 -0.6592
  206MOL0     C27714  -2.763   5.427   3.253 -0.5687  0.0033 -0.5022
  206MOL0     C27715  -2.903   5.491   3.240 -0.0256 -0.6989  0.0296
  206MOL0     C27716  -2.922   5.533   3.099  0.2845 -0.2895  0.8248
  206MOL0     C27717  -3.056   5.598   3.064 -0.5550 -0.4133  0.2188
  206MOL0     C27718  -3.173   5.498   3.036 -1.2554 -0.6025 -0.1036
  206MOL0     C27719  -3.314   5.546   3.031 -0.3485 -0.3151  0.1580
  206MOL0    Cl27720  -3.355   5.632   2.890  0.3536 -0.2393  0.1378
  206MOL0     C27721  -2.337   5.455   3.560 -0.5815 -0.1527  0.5050
  206MOL0     C27722  -2.205   5.433   3.607  0.0371 -0.4202 -0.5719
  206MOL0     O27723  -2.012   5.350   3.839  0.1687 -1.0911 -0.1411
  206MOL0     C27724  -1.789   5.131   3.675  0.2376  0.5086  1.4413
  206MOL0     C27725  -1.683   5.036   3.685 -0.2019 -0.1047 -0.2103
  206MOL0     N27726  -1.345   4.343   3.894 -0.2634 -0.5392  0.3617
  206MOL0     N27727  -1.292   4.264   3.813  0.4523  0.3042 -0.0232
  206MOL0     C27728  -0.043   4.304   3.266 -0.6249  0.9420  0.7720
  206MOL0     C27729   0.094   4.314   3.253  0.8428 -0.0022 -0.6312
  206MOL0     C27730   0.543   4.364   3.380 -0.6321  0.7665 -0.1147
  206MOL0     C27731   0.575   4.280   3.268 -0.0306 -0.2042 -0.1904
  206MOL0     C27732   0.709   4.259   3.224 -0.1846 -0.2670 -0.4813
  206MOL0     C27733   0.809   4.321   3.297 -0.3956 -0.6728 -0.7569
  206MOL0     O27734   0.945   4.314   3.279  0.1789  0.3005  0.3430
  206MOL0     C27735   0.981   4.216   3.169 -0.0453 -0.4702 -0.6066
  206MOL0     C27736   1.126   4.195   3.148 -0.7345  0.4172 -0.3158
  206MOL0     C27737   1.208   4.329   3.124 -0.1409 -0.1447  0.1337
  206MOL0     C27738   1.358   4.305   3.075 -0.3189  0.1172  0.0682
  206MOL0     C27739   1.356   4.248   2.940  0.6089 -0.1392  0.2307
  206MOL0     C27740   1.372   4.176   2.847  0.3739 -0.2795  0.0760
  206MOL0     C27741   0.773   4.413   3.397 -0.2638 -0.5166  0.0803
  206MOL0     C27742   0.647   4.426   3.447  0.0690 -0.3738  0.7509
  206MOL0     H27743   0.179   4.388   3.569  0.8741  1.4724 -0.8921
  206MOL0     H27744  -0.066   4.395   3.595 -2.1871 -1.3232  0.2235
  206MOL0     H27745  -0.265   4.373   3.585  1.0883 -1.1447  0.3746
  206MOL0     H27746  -0.298   4.500   3.465 -0.0056  0.0896 -1.7300
  206MOL0     H27747  -0.493   4.384   3.370 -0.8138 -1.6140  0.4196
  206MOL0     H27748  -0.477   4.252   3.496 -1.1489 -1.3301 -2.5084
  206MOL0     H27749  -0.521   4.451   3.651  2.0259  1.5326 -1.1987
  206MOL0     H27750  -0.547   4.546   3.507  0.7316 -0.6202 -0.9858
  206MOL0     H27751  -0.702   4.387   3.414  2.8506 -1.2426 -0.7774
  206MOL0     H27752  -0.696   4.292   3.564  1.0960 -0.2870  0.8621
  206MOL0     H27753  -0.778   4.491   3.699 -0.7235 -0.4121  0.0597
  206MOL0     H27754  -0.771   4.590   3.557  4.1863 -0.1551 -0.8700
  206MOL0     H27755  -1.000   4.517   3.629 -0.9126 -0.4879  0.9028
  206MOL0     H27756  -0.965   4.419   3.486 -1.0415 -1.2219  0.6515
  206MOL0     H27757  -0.891   4.226   3.615  2.9802  2.4521 -0.6823
  206MOL0     H27758  -0.915   4.315   3.768 -2.4791  1.9761  0.5042
  206MOL0     H27759  -1.084   4.146   3.714  0.6349 -0.7250 -0.3353
  206MOL0     H27760  -1.154   4.225   3.592 -3.6620 -2.4690  2.8374
  206MOL0     H27761  -1.075   4.506   3.833 -1.3968  1.5598  1.0901
  206MOL0     H27762  -1.270   4.528   4.125 -0.9455  1.1065  0.2298
  206MOL0     H27763  -1.196   4.635   4.007 -1.7959  1.9086  1.3892
  206MOL0     H27764  -1.442   4.696   4.083 -0.1819 -2.6111  2.0744
  206MOL0     H27765  -1.500   4.563   4.004  1.2752 -0.7990 -3.2712
  206MOL0     H27766  -1.428   4.659   3.785  0.1465 -0.9507  0.3194
  206MOL0     H27767  -1.322   4.769   3.872 -0.2630 -0.1696 -1.8360
  206MOL0     H27768  -1.542   4.862   3.991 -0.2362 -2.3937  0.4920
  206MOL0     H27769  -1.630   4.782   3.857 -1.7011  3.7315 -0.3136
  206MOL0     H27770  -1.585   5.127   3.996 -0.4943 -0.3525 -0.0405
  206MOL0     H27771  -1.790   5.425   3.957 -0.3985  0.3995 -0.1124
  206MOL0     H27772  -1.868   5.290   4.042  1.5203 -2.5069 -0.4854
  206MOL0     H27773  -1.697   5.333   4.062  0.3619  0.2642  0.3125
  206MOL0     H27774  -2.172   5.118   3.496  0.3963 -0.4105  0.1397
  206MOL0     H27775  -2.396   5.152   3.432 -0.4990  0.0132  0.0591
  206MOL0     H27776  -2.590   5.224   3.335 -2.5316 -1.9539  0.0648
  206MOL0     H27777  -2.624   5.230   3.514  1.5729  2.2017  1.9369
  206MOL0     H27778  -2.835   5.271   3.380  1.1826 -0.2222 -1.9708
  206MOL0     H27779  -2.782   5.418   3.476 -0.3653 -1.8629  0.9909
  206MOL0     H27780  -2.744   5.360   3.169  0.6029  0.2615 -0.4724
  206MOL0     H27781  -2.676   5.494   3.253 -0.7701  0.2682 -0.2405
  206MOL0     H27782  -2.976   5.415   3.269  2.1166 -2.4908  1.0358
  206MOL0     H27783  -2.895   5.582   3.300  1.9521  0.5071 -1.9329
  206MOL0     H27784  -2.897   5.442   3.043  1.9710 -0.5003  1.8572
  206MOL0     H27785  -2.840   5.599   3.068  0.9241 -0.3160  2.3720
  206MOL0     H27786  -3.075   5.663   3.150 -3.8933  0.7222 -1.2295
  206MOL0     H27787  -3.052   5.670   2.981 -0.0396 -0.7854 -0.0926
  206MOL0     H27788  -3.156   5.421   3.112 -1.4660  0.8051  1.4556
  206MOL0     H27789  -3.154   5.457   2.937  2.0491  1.4240 -0.4326
  206MOL0     H27790  -3.306   5.609   3.120  0.6432  0.6411 -0.5831
  206MOL0     H27791  -3.393   5.471   3.042 -0.3571 -0.2458  0.5803
  206MOL0     H27792  -2.381   5.553   3.579  0.9484  0.4056  1.4027
  206MOL0     H27793  -2.150   5.506   3.665  1.2737  0.1633 -2.3861
  206MOL0     H27794  -1.831   5.132   3.575 -0.7340 -0.8957  1.8041
  206MOL0     H27795  -1.654   4.967   3.606  1.8904 -1.2573  1.4510
  206MOL0     H27796  -0.094   4.264   3.180  3.8191 -1.5946 -1.0253
  206MOL0     H27797   0.144   4.286   3.161 -0.5592  1.7811 -1.9932
  206MOL0     H27798   0.488   4.249   3.212 -1.8075  0.3586  2.0858
  206MOL0     H27799   0.724   4.203   3.133  0.1612 -2.4397  0.8254
  206MOL0     H27800   0.930   4.124   3.197 -1.3226  0.7097  1.2205
  206MOL0     H27801   0.932   4.247   3.077  2.2473  2.6646 -0.9677
  206MOL0     H27802   1.141   4.131   3.061  0.8060 -2.4482  1.8676
  206MOL0     H27803   1.165   4.139   3.233  2.0204 -0.3352 -1.9560
  206MOL0     H27804   1.212   4.391   3.215  1.2431 -0.5950  0.4128
  206MOL0     H27805   1.159   4.396   3.053 -1.5757 -1.2034  0.0686
  206MOL0     H27806   1.413   4.245   3.148  0.4413  0.8939  0.1542
  206MOL0     H27807   1.406   4.403   3.079 -0.2402  0.0423  1.5986
  206MOL0     H27808   1.380   4.111   2.762  0.9444  0.4701 -0.4551
  206MOL0     H27809   0.856   4.467   3.442  0.3291 -0.8469 -0.5970
  206MOL0     H27810   0.628   4.502   3.522 -2.1745  1.1137 -1.2056
  207MOL0     O27811   5.821   8.770   9.076  0.3661 -0.6062  0.1171
  207MOL0     C27812   5.925   8.716   9.055 -0.4213 -0.2665 -0.9029
  207MOL0     O27813   5.967   8.599   9.097 -0.1271 -0.1164  0.4731
  207MOL0     C27814   5.874   8.499   9.138  0.1683  0.4024 -0.3882
  207MOL0     C27815   5.783   8.450   9.045 -0.4913 -0.1988 -0.0951
  207MOL0     C27816   5.699   8.348   9.075  0.7099 -0.0476 -0.5039
  207MOL0     C27817   5.694   8.287   9.203 -0.6856  0.2463 -0.3110
  207MOL0     O27818   5.600   8.193   9.220  0.6571  0.4199 -0.5939
  207MOL0     C27819   5.595   8.126   9.347  0.3093  0.2276  0.5522
  207MOL0     C27820   5.516   7.994   9.339  0.0654  0.9985 -0.1576
  207MOL0     C27821   5.369   8.007   9.302  0.2547 -0.6834  0.9382
  207MOL0     C27822   5.304   7.878   9.267  0.0407  0.2939 -0.4686
  207MOL0     C27823   5.153   7.886   9.238  0.5548  0.5636  0.6694
  207MOL0     C27824   5.087   7.752   9.232  0.1500  0.1502  0.2621
  207MOL0     C27825   4.929   7.768   9.208 -0.3251 -0.4577  0.2709
  207MOL0     C27826   4.859   7.818   9.332  0.3026 -0.1807 -0.7123
  207MOL0     N27827   4.715   7.802   9.319 -0.3514 -0.3801 -0.1692
  207MOL0     C27828   4.619   7.898   9.287 -0.1680 -0.0251 -0.1803
  207MOL0     C27829   4.508   7.821   9.289 -0.0643 -0.1510 -0.7621
  207MOL0     C27830   4.376   7.882   9.274  0.5186 -0.7125 -0.2597
  207MOL0     C27831   4.292   7.803   9.176 -0.2204  0.0749  0.0247
  207MOL0     C27832   4.162   7.890   9.160 -0.0739  0.3633  0.4259
  207MOL0     C27833   4.035   7.818   9.101 -0.7854  0.2283  0.7079
  207MOL0     O27834   3.929   7.911   9.081 -0.2876 -0.0087  0.8534
  207MOL0     C27835   3.806   7.858   9.053 -0.0694 -0.0579 -0.3808
  207MOL0     C27836   3.767   7.787   8.939 -0.4663  0.1484 -0.4898
  207MOL0     C27837   3.642   7.716   8.940  0.1380  0.8383  0.1430
  207MOL0     C27838   3.615   7.616   8.827  0.9612  0.3651 -0.1418
  207MOL0     C27839   3.553   7.729   9.054 -0.6990 -0.4699 -0.4841
  207MOL0     C27840   3.412   7.686   9.058  0.0534 -0.2603 -0.2163
  207MOL0     O27841   3.361   7.666   9.180 -0.0830  1.1449  0.6354
  207MOL0     C27842   3.229   7.618   9.185  0.4409  0.1198 -0.5351
  207MOL0     C27843   3.121   7.706   9.162 -0.7134  0.3821 -0.0000
  207MOL0     C27844   2.983   7.655   9.174 -0.3905 -0.5623  0.6153
  207MOL0     C27845   2.953   7.526   9.212 -0.2816 -0.6432 -0.0006
  207MOL0     O27846   2.834   7.475   9.241  0.0115  0.1163  0.2114
  207MOL0     C27847   2.717   7.506   9.163  0.7150  0.0617 -0.3824
  207MOL0     C27848   2.587   7.445   9.218 -0.2380 -0.7047  0.6764
  207MOL0     C27849   2.596   7.298   9.247  0.0653 -0.5323 -0.3565
  207MOL0     C27850   2.463   7.250   9.304 -0.1513 -1.4955  0.4993
  207MOL0     C27851   2.467   7.127   9.385 -0.2226  0.5201 -0.4602
  207MOL0     C27852   2.323   7.087   9.427 -0.0857  0.2616  0.4215
  207MOL0     C27853   2.328   6.979   9.532 -0.2836  0.2096 -0.2443
  207MOL0     C27854   2.195   6.902   9.527  0.2479 -0.2227 -0.0576
  207MOL0    Cl27855   2.049   6.997   9.501  0.0929  0.3348 -0.0730
  207MOL0     C27856   3.058   7.447   9.240  0.9426 -0.8317 -0.7126
  207MOL0     C27857   3.189   7.490   9.227  0.0218  0.3801  0.1668
  207MOL0     O27858   3.352   7.697   8.951 -0.5315 -0.1983 -0.0034
  207MOL0     C27859   3.597   7.819   9.161  0.3381  0.7814 -0.4234
  207MOL0     C27860   3.729   7.868   9.164 -0.3711  0.4726  0.3210
  207MOL0     N27861   4.528   7.693   9.323 -0.6021  0.4775 -0.2160
  207MOL0     N27862   4.656   7.688   9.342 -0.1634  0.1555 -0.6334
  207MOL0     C27863   5.785   8.348   9.301 -0.5317 -0.3953 -0.2335
  207MOL0     C27864   5.882   8.449   9.269  0.0847  0.8491  0.0351
  207MOL0     C27865   6.022   8.809   8.990 -0.1980 -0.5094  0.5368
  207MOL0     C27866   6.141   8.758   8.924  0.4265  0.0388 -0.3818
  207MOL0     C27867   6.217   8.843   8.849 -0.5938 -0.3201  0.2398
  207MOL0     C27868   6.183   8.977   8.838 -0.2452 -0.3766 -0.0534
  207MOL0     O27869   6.254   9.078   8.771 -0.7047 -0.1242 -1.0176
  207MOL0     C27870   6.392   9.047   8.739 -0.3056  0.0653 -0.4394
  207MOL0     C27871   6.442   9.186   8.681  0.1481 -0.3511  0.4480
  207MOL0     C27872   6.581   9.174   8.613 -0.2758 -0.4805  0.3100
  207MOL0     C27873   6.611   9.277   8.502  0.7625  0.3259 -0.6745
  207MOL0     C27874   6.564   9.413   8.551 -0.6837  0.1424  0.9749
  207MOL0     C27875   6.544   9.525   8.589 -0.7093  0.8756  1.6986
  207MOL0     C27876   6.074   9.025   8.896  0.2658 -0.5057  0.0446
  207MOL0     C27877   5.995   8.947   8.980 -0.0864  1.8264  0.4720
  207MOL0     H27878   5.758   8.509   8.957 -0.5602 -0.0778  0.0051
  207MOL0     H27879   5.628   8.319   8.999 -0.2455  3.1977 -0.9970
  207MOL0     H27880   5.699   8.097   9.364  0.9160  1.3119 -1.1698
  207MOL0     H27881   5.561   8.188   9.431  0.5241  1.6673 -0.3923
  207MOL0     H27882   5.574   7.939   9.265  1.3590  1.2905  0.6198
  207MOL0     H27883   5.516   7.930   9.428  0.0757 -3.2304 -2.9295
  207MOL0     H27884   5.305   8.050   9.379 -0.3241 -1.4286  0.8849
  207MOL0     H27885   5.355   8.067   9.212 -2.3279  0.8636  2.2445
  207MOL0     H27886   5.349   7.834   9.178  0.1933  0.0044 -0.2502
  207MOL0     H27887   5.317   7.805   9.347 -1.7534 -2.3943 -2.4742
  207MOL0     H27888   5.114   7.960   9.310 -0.1897  1.1809 -0.3475
  207MOL0     H27889   5.149   7.919   9.134  0.8336 -0.0702  0.4529
  207MOL0     H27890   5.136   7.691   9.156 -1.6742 -0.5106 -0.4348
  207MOL0     H27891   5.105   7.686   9.318 -0.9181 -0.8031 -0.2227
  207MOL0     H27892   4.911   7.855   9.143  0.6521  1.5302  2.5234
  207MOL0     H27893   4.896   7.672   9.168 -0.0770 -1.6192  2.7237
  207MOL0     H27894   4.891   7.915   9.372 -0.3575 -0.1219 -0.3207
  207MOL0     H27895   4.873   7.750   9.417  1.8230 -0.2216 -0.9660
  207MOL0     H27896   4.628   8.006   9.276 -1.1003 -0.0205 -1.1302
  207MOL0     H27897   4.328   7.873   9.372  1.5354  1.1199  0.4542
  207MOL0     H27898   4.380   7.990   9.260 -0.7870 -0.5227  0.6389
  207MOL0     H27899   4.266   7.706   9.218 -0.7885  0.3327  0.2680
  207MOL0     H27900   4.355   7.794   9.087  2.2178  2.0528  1.3916
  207MOL0     H27901   4.192   7.966   9.088 -2.3998  0.6077 -0.3818
  207MOL0     H27902   4.142   7.952   9.248  0.6491 -0.7274  1.3772
  207MOL0     H27903   4.000   7.740   9.170  0.0531 -0.2875  0.5679
  207MOL0     H27904   4.055   7.758   9.012  0.5327  1.2703  0.2731
  207MOL0     H27905   3.842   7.775   8.861 -0.7359 -0.7740 -0.6179
  207MOL0     H27906   3.711   7.577   8.792  0.2657 -0.0764 -1.5948
  207MOL0     H27907   3.542   7.539   8.854 -1.2056  2.6311  0.9250
  207MOL0     H27908   3.575   7.678   8.746 -0.8744  0.8095  1.0352
  207MOL0     H27909   3.137   7.808   9.130  0.3003  0.7562  1.5902
  207MOL0     H27910   2.903   7.726   9.152 -0.1768 -0.1020  1.3083
  207MOL0     H27911   2.712   7.615   9.153  1.0678  0.4014  2.4041
  207MOL0     H27912   2.722   7.475   9.058 -0.2408 -0.8161 -0.1796
  207MOL0     H27913   2.565   7.491   9.315  0.5635 -1.2927  1.1535
  207MOL0     H27914   2.507   7.460   9.145  0.9367 -1.6576 -0.8601
  207MOL0     H27915   2.677   7.283   9.319 -1.5238 -2.3540  1.1664
  207MOL0     H27916   2.625   7.252   9.152  3.9061 -1.8015  1.2508
  207MOL0     H27917   2.420   7.334   9.358  1.4801  0.2544 -0.7928
  207MOL0     H27918   2.398   7.236   9.218  0.1986 -0.3296  0.0243
  207MOL0     H27919   2.529   7.136   9.475  0.1966  2.2578 -0.8743
  207MOL0     H27920   2.519   7.049   9.329 -0.2781  0.6371 -0.6732
  207MOL0     H27921   2.279   7.172   9.481 -0.4709  0.7615 -0.6636
  207MOL0     H27922   2.258   7.059   9.344 -1.8878  0.8809  1.5579
  207MOL0     H27923   2.361   7.021   9.627  0.9980 -1.9148  0.3218
  207MOL0     H27924   2.396   6.897   9.508 -0.0523 -0.0461  1.1743
  207MOL0     H27925   2.185   6.857   9.626  0.6627  0.7118  0.4315
  207MOL0     H27926   2.186   6.821   9.454 -2.1457 -3.4258  3.4087
  207MOL0     H27927   3.047   7.347   9.280  2.5154 -0.0337  1.9892
  207MOL0     H27928   3.277   7.437   9.262  1.1439  1.4036 -1.0388
  207MOL0     H27929   3.528   7.846   9.241 -1.3197 -2.8087 -0.4935
  207MOL0     H27930   3.759   7.910   9.260 -2.6759 -0.2659  1.4430
  207MOL0     H27931   5.801   8.297   9.396 -0.2771  0.9173  0.4439
  207MOL0     H27932   5.958   8.481   9.338  1.1194  1.8674 -1.5068
  207MOL0     H27933   6.179   8.657   8.913 -0.6890 -0.4511  0.1509
  207MOL0     H27934   6.311   8.798   8.818 -0.9490  0.8211 -2.8247
  207MOL0     H27935   6.452   8.994   8.813 -0.9891  0.2484  0.2588
  207MOL0     H27936   6.393   8.975   8.657  1.6407  0.2672 -0.6241
  207MOL0     H27937   6.457   9.240   8.775 -0.8593  0.4468  0.1628
  207MOL0     H27938   6.366   9.235   8.620  3.7216  0.8978 -3.5151
  207MOL0     H27939   6.585   9.070   8.580  1.8444 -0.8105  1.4048
  207MOL0     H27940   6.659   9.180   8.689 -1.2938 -1.7579  1.5005
  207MOL0     H27941   6.549   9.244   8.418  0.4969  0.6167 -0.5962
  207MOL0     H27942   6.718   9.272   8.480  0.4975 -0.4643 -1.8451
  207MOL0     H27943   6.514   9.626   8.608 -2.5558  0.6481  0.2859
  207MOL0     H27944   6.038   9.126   8.882  1.2044 -0.2615 -0.6991
  207MOL0     H27945   5.898   8.989   9.005 -0.7359 -0.3067  1.7909
  208MOL0     O27946   2.257   4.502   3.601 -0.0193 -0.3043 -0.8998
  208MOL0     C27947   2.287   4.559   3.703  0.2580  0.0165 -0.1844
  208MOL0     O27948   2.204   4.595   3.805 -0.2776  0.3445 -0.3032
  208MOL0     C27949   2.063   4.569   3.818 -0.3868 -1.0430 -0.2525
  208MOL0     C27950   1.995   4.639   3.916  0.5977 -0.1487  0.7083
  208MOL0     C27951   1.855   4.617   3.934  0.1306 -0.1717  0.1599
  208MOL0     C27952   1.775   4.525   3.855 -0.4924  0.0059 -0.1101
  208MOL0     O27953   1.642   4.519   3.870 -0.3588 -0.2167  0.2962
  208MOL0     C27954   1.559   4.412   3.813  0.5720 -0.5694  0.6535
  208MOL0     C27955   1.418   4.417   3.873  0.8682 -0.2682  0.6064
  208MOL0     C27956   1.310   4.329   3.792  0.2108  0.0991 -0.0187
  208MOL0     C27957   1.173   4.331   3.846  0.6572  0.6085 -0.7211
  208MOL0     C27958   1.086   4.213   3.791  0.0313  0.4443  0.4382
  208MOL0     C27959   1.038   4.225   3.640  0.2569  0.0428  0.7506
  208MOL0     C27960   0.913   4.139   3.597 -0.5791 -0.9809 -0.2760
  208MOL0     C27961   0.932   3.987   3.581  0.2471 -0.0660  0.7596
  208MOL0     N27962   0.798   3.924   3.574  0.0354  1.0102  0.1213
  208MOL0     C27963   0.743   3.895   3.444  0.4020 -0.6760 -0.2223
  208MOL0     C27964   0.647   3.807   3.467  0.6172  0.0350  0.4789
  208MOL0     C27965   0.557   3.764   3.362  0.1905 -0.0348  0.2716
  208MOL0     C27966   0.414   3.809   3.365 -0.2384 -1.2567  0.5168
  208MOL0     C27967   0.403   3.962   3.379 -0.4315 -0.4191  0.0656
  208MOL0     C27968   0.259   3.987   3.429  0.3611  0.3759  0.7816
  208MOL0     O27969   0.163   3.955   3.327  0.2823 -0.1350 -0.3191
  208MOL0     C27970   0.034   3.955   3.362 -0.1687 -0.6178 -0.3366
  208MOL0     C27971  -0.061   3.900   3.274 -0.1347  0.5838  0.7786
  208MOL0     C27972  -0.193   3.874   3.310  0.1248  0.3670  0.7825
  208MOL0     C27973  -0.264   3.788   3.212  0.5320 -0.5140 -1.0577
  208MOL0     C27974  -0.247   3.929   3.431 -0.0357  1.1206 -0.2115
  208MOL0     C27975  -0.388   3.914   3.482  0.4419  0.4598  0.2972
  208MOL0     O27976  -0.426   3.996   3.586 -0.5957 -0.0067 -0.2087
  208MOL0     C27977  -0.543   3.973   3.659 -0.3731  0.0422  0.4799
  208MOL0     C27978  -0.543   3.904   3.775 -0.2265  0.0286 -0.5313
  208MOL0     C27979  -0.662   3.879   3.840 -0.0671 -0.3239 -0.4103
  208MOL0     C27980  -0.792   3.917   3.780  0.4239 -0.0413 -0.2442
  208MOL0     O27981  -0.916   3.884   3.837  0.2112 -0.5096  0.6929
  208MOL0     C27982  -0.930   3.807   3.962  0.1657  0.2344 -0.0391
  208MOL0     C27983  -1.078   3.750   3.962  0.3066 -0.1801  0.8559
  208MOL0     C27984  -1.184   3.861   3.946  0.7745 -0.1701 -0.4409
  208MOL0     C27985  -1.314   3.804   3.900  1.1965 -0.5349  0.1029
  208MOL0     C27986  -1.418   3.918   3.864 -0.0849 -0.4017 -0.3519
  208MOL0     C27987  -1.537   3.852   3.784  0.0448  0.0012 -0.0535
  208MOL0     C27988  -1.647   3.954   3.760  0.1306 -0.4459  0.5059
  208MOL0     C27989  -1.769   3.899   3.695 -0.1600  0.0153  0.0351
  208MOL0    Cl27990  -1.894   4.022   3.678 -0.0643 -0.2190 -0.5275
  208MOL0     C27991  -0.787   3.974   3.655 -1.1442  0.3460  0.3115
  208MOL0     C27992  -0.667   3.998   3.594  0.5409  0.0831 -0.3958
  208MOL0     O27993  -0.455   3.818   3.442 -0.5362  0.4443 -0.7480
  208MOL0     C27994  -0.152   3.990   3.519 -0.8132 -0.1590 -0.7314
  208MOL0     C27995  -0.017   4.000   3.490  0.2046 -0.2009 -0.2706
  208MOL0     N27996   0.651   3.771   3.597 -0.1007 -0.0253  0.8207
  208MOL0     N27997   0.743   3.834   3.665 -0.1068 -0.8011 -0.5581
  208MOL0     C27998   1.850   4.452   3.761  0.3940  0.0424 -0.0439
  208MOL0     C27999   1.990   4.475   3.742 -0.1240 -0.0283 -0.3519
  208MOL0     C28000   2.427   4.603   3.715  0.3348  0.1356 -0.4377
  208MOL0     C28001   2.531   4.536   3.649 -0.1374  0.2008 -0.1319
  208MOL0     C28002   2.669   4.569   3.674 -0.1781 -0.5164  1.1466
  208MOL0     C28003   2.692   4.675   3.767 -0.2537 -0.0339 -0.1076
  208MOL0     O28004   2.824   4.717   3.790 -0.4139 -0.4298 -0.2394
  208MOL0     C28005   2.854   4.845   3.733 -0.3103  0.1500  0.5096
  208MOL0     C28006   2.984   4.839   3.643  1.2139  0.1417  0.5615
  208MOL0     C28007   2.961   4.764   3.508 -0.1857 -0.2607 -0.5885
  208MOL0     C28008   3.101   4.737   3.447  0.5843 -0.4629 -0.3889
  208MOL0     C28009   3.090   4.681   3.316  0.6984 -1.0454  0.1442
  208MOL0     C28010   3.094   4.637   3.203  0.9144 -0.2647 -0.2610
  208MOL0     C28011   2.586   4.739   3.828  0.6372 -0.5714 -0.4300
  208MOL0     C28012   2.458   4.706   3.800  1.9771 -0.2276 -0.1360
  208MOL0     H28013   2.044   4.715   3.977 -1.3701  0.1197  2.0420
  208MOL0     H28014   1.806   4.663   4.019  1.3822 -1.7989  1.8335
  208MOL0     H28015   1.556   4.429   3.705 -0.6315 -4.7941 -0.1456
  208MOL0     H28016   1.596   4.309   3.817 -1.4698 -1.3783 -0.1365
  208MOL0     H28017   1.421   4.400   3.981 -2.5290  1.2606  1.0850
  208MOL0     H28018   1.384   4.521   3.863 -1.5738 -1.1733 -1.5494
  208MOL0     H28019   1.299   4.361   3.688 -0.5418  0.5305  0.1881
  208MOL0     H28020   1.343   4.224   3.793  0.0255  0.0187 -1.2021
  208MOL0     H28021   1.175   4.316   3.955  0.2538  1.6765 -0.5549
  208MOL0     H28022   1.122   4.427   3.832 -0.5841 -0.3612 -3.4856
  208MOL0     H28023   1.134   4.119   3.819 -1.6502 -0.6510 -0.1810
  208MOL0     H28024   1.002   4.213   3.862  2.4495  2.6582  3.5977
  208MOL0     H28025   1.011   4.329   3.622 -0.0896 -0.2999 -0.8918
  208MOL0     H28026   1.121   4.216   3.569  0.1357  1.2897  0.4285
  208MOL0     H28027   0.827   4.155   3.662  0.0070  0.4713  0.1979
  208MOL0     H28028   0.880   4.166   3.497 -1.9628  0.5802  0.5551
  208MOL0     H28029   0.984   3.943   3.667  0.9603 -1.4865 -0.3404
  208MOL0     H28030   0.996   3.967   3.494 -1.2460 -1.9295  0.0190
  208MOL0     H28031   0.780   3.932   3.349  2.3740 -3.8641 -0.8615
  208MOL0     H28032   0.610   3.795   3.271  2.2609 -4.3119 -0.2687
  208MOL0     H28033   0.561   3.654   3.361 -0.2994 -0.0508  0.1662
  208MOL0     H28034   0.368   3.762   3.453 -1.8508  1.1914  1.1123
  208MOL0     H28035   0.361   3.780   3.274  1.6120  2.7728 -2.1684
  208MOL0     H28036   0.428   4.021   3.290  1.5664 -1.7116 -0.3124
  208MOL0     H28037   0.475   3.993   3.456 -0.2845 -1.3794  0.3221
  208MOL0     H28038   0.258   4.096   3.441  0.4405  0.9030 -2.8400
  208MOL0     H28039   0.245   3.927   3.519  1.4145 -2.4086 -0.7892
  208MOL0     H28040  -0.029   3.880   3.173 -0.9197  3.8871 -0.2555
  208MOL0     H28041  -0.320   3.707   3.261 -0.7914 -0.4246 -2.3697
  208MOL0     H28042  -0.334   3.839   3.145 -0.4759 -1.5223 -0.8011
  208MOL0     H28043  -0.191   3.741   3.146 -0.0482 -1.0156 -1.3555
  208MOL0     H28044  -0.446   3.873   3.812 -0.7735 -2.1687 -0.8169
  208MOL0     H28045  -0.656   3.828   3.935 -0.7451 -0.3557 -0.3799
  208MOL0     H28046  -0.859   3.724   3.965 -0.1886 -0.1909 -2.2733
  208MOL0     H28047  -0.898   3.870   4.046  1.0174  2.8923 -2.2014
  208MOL0     H28048  -1.084   3.694   3.868 -3.1552  1.2270  0.0911
  208MOL0     H28049  -1.099   3.681   4.044 -1.2615 -0.1210  0.5453
  208MOL0     H28050  -1.154   3.920   3.859  0.0613  0.0269 -0.5603
  208MOL0     H28051  -1.196   3.924   4.035 -4.3505  1.6646 -2.0763
  208MOL0     H28052  -1.294   3.733   3.820 -1.2304 -1.6623  0.3954
  208MOL0     H28053  -1.361   3.744   3.979 -0.1468 -0.5275 -0.6512
  208MOL0     H28054  -1.359   3.990   3.807 -0.2115 -0.4683 -0.5710
  208MOL0     H28055  -1.463   3.974   3.946 -0.1057 -0.0200 -0.6204
  208MOL0     H28056  -1.490   3.815   3.692  2.1923 -0.9343  1.3361
  208MOL0     H28057  -1.584   3.775   3.845 -0.7128  0.3824 -0.1462
  208MOL0     H28058  -1.608   4.044   3.711 -2.3191  0.9757  1.0295
  208MOL0     H28059  -1.677   3.995   3.857 -1.3700 -2.5260  0.9830
  208MOL0     H28060  -1.812   3.816   3.752 -1.0521 -1.1647 -2.1925
  208MOL0     H28061  -1.756   3.867   3.591  1.5357  0.1100  0.1814
  208MOL0     H28062  -0.877   3.999   3.600 -1.5896 -0.4392  0.6548
  208MOL0     H28063  -0.650   4.032   3.492  1.7391  0.5176 -0.0710
  208MOL0     H28064  -0.192   4.023   3.615 -3.5691 -1.4773 -1.3187
  208MOL0     H28065   0.031   4.060   3.567  0.2239 -1.2717  0.5811
  208MOL0     H28066   1.797   4.396   3.684  4.3857  1.1665 -4.0132
  208MOL0     H28067   2.047   4.416   3.671 -0.0256 -2.3394  1.5011
  208MOL0     H28068   2.500   4.447   3.595 -0.0355 -0.4705  0.8799
  208MOL0     H28069   2.740   4.508   3.619 -0.5576 -0.8490  1.0251
  208MOL0     H28070   2.767   4.890   3.683  0.4952 -0.7395 -1.8618
  208MOL0     H28071   2.862   4.924   3.807  1.0036  1.4558 -0.9619
  208MOL0     H28072   3.070   4.800   3.700 -1.4642 -3.1028  2.8379
  208MOL0     H28073   3.009   4.942   3.617  0.5139 -0.2545 -1.8631
  208MOL0     H28074   2.912   4.838   3.444  2.9132  2.7365  0.1807
  208MOL0     H28075   2.896   4.676   3.515 -0.1055 -0.2337  0.6550
  208MOL0     H28076   3.161   4.662   3.501 -0.9974 -2.3110 -1.0598
  208MOL0     H28077   3.161   4.828   3.445  2.7182 -1.7760  0.2748
  208MOL0     H28078   3.104   4.577   3.115 -1.8266  0.4051 -1.1470
  208MOL0     H28079   2.601   4.825   3.892  0.5050  1.1383 -2.5616
  208MOL0     H28080   2.387   4.773   3.847  2.6000  0.2645  0.1259
  209MOL0     O28081   4.589   4.174  11.110  0.2323  0.3929  0.4922
  209MOL0     C28082   4.577   4.252  11.207  0.8443  0.1621 -0.2763
  209MOL0     O28083   4.464   4.311  11.251 -0.0509  0.0550  0.2395
  209MOL0     C28084   4.353   4.337  11.168 -0.1929  0.3774  0.0650
  209MOL0     C28085   4.247   4.389  11.233  1.2073  0.4983  0.5699
  209MOL0     C28086   4.123   4.413  11.155  0.6501  0.5935 -0.1315
  209MOL0     C28087   4.112   4.370  11.021 -0.6346 -0.2083 -0.7357
  209MOL0     O28088   3.990   4.372  10.957 -0.8822  0.1077 -0.1804
  209MOL0     C28089   3.875   4.340  11.031  1.4643 -0.0510 -0.0100
  209MOL0     C28090   3.770   4.290  10.940 -0.6873 -0.1996  0.5328
  209MOL0     C28091   3.639   4.299  11.010 -0.2324 -0.4058 -0.1501
  209MOL0     C28092   3.520   4.281  10.913 -0.5396  0.8058 -0.1885
  209MOL0     C28093   3.385   4.257  10.997  0.3426 -0.3843  0.8038
  209MOL0     C28094   3.259   4.246  10.913  1.2009  0.0697 -0.6684
  209MOL0     C28095   3.255   4.136  10.813  0.2570 -0.3676  0.0384
  209MOL0     C28096   3.120   4.111  10.746  1.0918  0.2246  0.4151
  209MOL0     N28097   3.028   4.014  10.816 -0.1722 -0.1874 -0.4697
  209MOL0     C28098   3.040   3.880  10.805 -0.1089 -0.2676 -0.9159
  209MOL0     C28099   2.949   3.832  10.893 -0.7870 -0.7826  0.8155
  209MOL0     C28100   2.930   3.682  10.922 -1.2073  0.1062  0.4075
  209MOL0     C28101   2.832   3.608  10.837 -0.5691 -0.8218 -0.2990
  209MOL0     C28102   2.686   3.658  10.859  0.1855 -0.4649 -1.0341
  209MOL0     C28103   2.589   3.570  10.786  0.2280 -0.2958  0.2992
  209MOL0     O28104   2.465   3.607  10.842 -0.8018 -0.3009  0.8298
  209MOL0     C28105   2.357   3.554  10.782  0.2990 -0.1392 -0.5444
  209MOL0     C28106   2.336   3.539  10.647  0.0719 -0.5650  0.0913
  209MOL0     C28107   2.215   3.486  10.589  0.0084 -0.3174  0.1046
  209MOL0     C28108   2.229   3.478  10.447 -0.0045 -0.0147  0.5954
  209MOL0     C28109   2.110   3.451  10.676 -0.2996 -0.6050  0.3784
  209MOL0     C28110   1.977   3.397  10.624  0.3013 -0.4681 -0.0938
  209MOL0     O28111   1.893   3.349  10.715 -0.0237 -0.7222 -0.0702
  209MOL0     C28112   1.775   3.295  10.691 -0.2310 -0.4762  0.1884
  209MOL0     C28113   1.766   3.163  10.647  0.9268  0.3262 -0.4416
  209MOL0     C28114   1.643   3.099  10.625 -0.3972 -0.3909  0.3070
  209MOL0     C28115   1.525   3.169  10.646 -0.1794  0.0776  0.1974
  209MOL0     O28116   1.419   3.097  10.631  0.0787  0.3262 -0.3685
  209MOL0     C28117   1.288   3.163  10.645  0.3781 -0.0965 -0.1004
  209MOL0     C28118   1.170   3.065  10.611  0.6482 -0.1388  0.1406
  209MOL0     C28119   1.027   3.124  10.610  0.0772 -0.0185  0.0228
  209MOL0     C28120   0.912   3.012  10.602 -0.7175  0.6743 -0.0743
  209MOL0     C28121   0.771   3.070  10.590 -0.7586  1.4129  0.1843
  209MOL0     C28122   0.657   2.967  10.585  0.4378 -0.5301  1.2413
  209MOL0     C28123   0.525   3.039  10.572 -0.1039 -0.3856  0.2627
  209MOL0     C28124   0.412   2.972  10.501  0.0253  0.0056 -0.6065
  209MOL0    Cl28125   0.266   3.083  10.460  0.2785  0.2701  0.5518
  209MOL0     C28126   1.536   3.298  10.696 -0.1616 -0.6140  0.5515
  209MOL0     C28127   1.659   3.367  10.712  0.0345 -0.3954  0.1780
  209MOL0     O28128   1.956   3.390  10.503 -0.1354  0.1587 -0.8412
  209MOL0     C28129   2.125   3.473  10.814 -0.3728 -0.0486 -0.3367
  209MOL0     C28130   2.248   3.524  10.862 -1.0924 -0.5368  0.6930
  209MOL0     N28131   2.888   3.936  10.955 -0.0395  0.3832  0.1210
  209MOL0     N28132   2.936   4.048  10.904 -0.3822  0.0619 -0.5926
  209MOL0     C28133   4.228   4.325  10.958 -0.3948 -0.9538 -0.7045
  209MOL0     C28134   4.345   4.308  11.026 -0.3688 -0.0073 -0.6565
  209MOL0     C28135   4.701   4.264  11.288  0.0882  0.1732  0.1202
  209MOL0     C28136   4.824   4.227  11.240  0.6473  0.4981 -0.6658
  209MOL0     C28137   4.940   4.258  11.308  0.7993 -0.0521  0.6740
  209MOL0     C28138   4.938   4.321  11.434 -0.7950  0.7545  0.7349
  209MOL0     O28139   5.047   4.363  11.503  0.5390  0.2974  0.3845
  209MOL0     C28140   5.172   4.302  11.475  0.3837 -1.0068 -0.3671
  209MOL0     C28141   5.275   4.359  11.577  0.2405  0.0252 -0.5609
  209MOL0     C28142   5.413   4.299  11.582 -0.6116  0.8646 -0.6115
  209MOL0     C28143   5.501   4.334  11.462  0.3191 -0.0343  0.0573
  209MOL0     C28144   5.631   4.273  11.481 -0.4142  0.8339  0.2219
  209MOL0     C28145   5.737   4.214  11.481  0.5179  0.5109 -1.1439
  209MOL0     C28146   4.814   4.343  11.491 -0.3843  0.2657 -0.3617
  209MOL0     C28147   4.699   4.316  11.417  0.0618 -0.6598  0.0698
  209MOL0     H28148   4.261   4.431  11.332  2.8313  1.5843 -0.0783
  209MOL0     H28149   4.037   4.464  11.197 -0.3037 -1.0809  0.0033
  209MOL0     H28150   3.887   4.270  11.115 -2.5860 -0.6507  0.2626
  209MOL0     H28151   3.836   4.430  11.079  0.9270 -0.9612  1.3463
  209MOL0     H28152   3.776   4.333  10.840  0.7258 -1.4817  0.0334
  209MOL0     H28153   3.784   4.185  10.912  0.3997  0.2438 -0.7118
  209MOL0     H28154   3.649   4.219  11.084  0.5758 -1.2522 -1.1281
  209MOL0     H28155   3.619   4.391  11.065 -2.5328 -2.1053  2.0973
  209MOL0     H28156   3.512   4.372  10.853 -0.4907  0.5904 -0.5201
  209MOL0     H28157   3.542   4.200  10.844 -0.9674  1.9063 -1.6595
  209MOL0     H28158   3.413   4.171  11.058 -0.0838 -1.6343 -0.6871
  209MOL0     H28159   3.385   4.342  11.065  0.4983  1.1764 -1.0719
  209MOL0     H28160   3.175   4.232  10.981  0.6990 -4.3924 -1.9065
  209MOL0     H28161   3.251   4.343  10.862  1.5294 -0.4047 -1.6419
  209MOL0     H28162   3.330   4.160  10.737  0.8528  1.1222  1.0428
  209MOL0     H28163   3.283   4.046  10.868  0.3559 -0.7175 -0.5787
  209MOL0     H28164   3.142   4.069  10.648 -1.9381  1.2213 -0.8119
  209MOL0     H28165   3.058   4.201  10.745  1.1216  0.2557  1.0145
  209MOL0     H28166   3.118   3.836  10.743  2.9901  0.7336  1.9299
  209MOL0     H28167   3.027   3.631  10.920 -0.7261  0.9528  1.4144
  209MOL0     H28168   2.888   3.686  11.023  1.2257 -0.6633  1.5262
  209MOL0     H28169   2.846   3.501  10.850  2.1661 -0.6753 -1.3426
  209MOL0     H28170   2.853   3.624  10.730 -0.3695  2.5545  0.1414
  209MOL0     H28171   2.658   3.760  10.829  0.5715 -0.2936 -0.8169
  209MOL0     H28172   2.665   3.666  10.966  1.2114  3.0709 -0.9595
  209MOL0     H28173   2.607   3.462  10.796  0.5795 -0.4124 -1.2928
  209MOL0     H28174   2.587   3.601  10.681 -1.5341 -2.2169 -0.3095
  209MOL0     H28175   2.418   3.580  10.587  0.2906  2.2689  2.1085
  209MOL0     H28176   2.211   3.575  10.401 -0.2992 -0.7709 -0.9633
  209MOL0     H28177   2.331   3.449  10.422 -0.0577  0.8589 -0.7544
  209MOL0     H28178   2.163   3.400  10.407 -2.3258  1.3226  1.5889
  209MOL0     H28179   1.863   3.121  10.622 -0.5969 -1.1015 -4.8161
  209MOL0     H28180   1.645   3.005  10.571 -1.1838 -0.1625 -0.1304
  209MOL0     H28181   1.284   3.201  10.747  0.6379  2.3261 -0.9217
  209MOL0     H28182   1.281   3.253  10.583 -0.6610 -1.5162 -2.1360
  209MOL0     H28183   1.195   3.026  10.512  0.5673 -1.7608  0.7323
  209MOL0     H28184   1.162   2.982  10.682 -2.0716  0.9099  1.2061
  209MOL0     H28185   1.016   3.192  10.525 -1.2522 -0.8984 -0.5531
  209MOL0     H28186   1.024   3.185  10.700  1.0972  0.2930 -0.1416
  209MOL0     H28187   0.934   2.947  10.517  2.8927 -0.3153  1.4081
  209MOL0     H28188   0.927   2.953  10.693 -0.2503 -0.2906 -0.7625
  209MOL0     H28189   0.776   3.132  10.499  0.4824  0.7366 -0.2353
  209MOL0     H28190   0.756   3.131  10.680  1.2439  1.1052  0.7698
  209MOL0     H28191   0.670   2.907  10.495  1.5279 -2.0461  2.3574
  209MOL0     H28192   0.661   2.890  10.663 -1.4529  0.2248  2.1448
  209MOL0     H28193   0.532   3.131  10.513  1.3209 -0.2313  0.6523
  209MOL0     H28194   0.487   3.066  10.671 -0.5045 -0.6534  0.1882
  209MOL0     H28195   0.382   2.887  10.562  2.7782 -0.0887  0.7606
  209MOL0     H28196   0.436   2.938  10.399 -2.3003  3.7644 -2.6473
  209MOL0     H28197   1.447   3.360  10.697 -1.1747 -1.7168 -3.5977
  209MOL0     H28198   1.673   3.464  10.759  2.7131 -1.4898  1.8474
  209MOL0     H28199   2.035   3.465  10.875 -1.2482  1.0171 -1.4432
  209MOL0     H28200   2.271   3.547  10.966  0.1467 -3.4298  1.1390
  209MOL0     H28201   4.218   4.296  10.853  0.4454  1.3331 -1.4794
  209MOL0     H28202   4.428   4.269  10.969  0.6531  0.9363  0.1358
  209MOL0     H28203   4.838   4.166  11.151  6.5986  0.3580 -0.0462
  209MOL0     H28204   5.026   4.226  11.251  2.2749  0.2644  2.6170
  209MOL0     H28205   5.150   4.195  11.470  1.4594 -1.2983  0.7913
  209MOL0     H28206   5.212   4.327  11.376  0.0776 -0.9759 -0.4845
  209MOL0     H28207   5.229   4.345  11.675  1.5887  0.1098  0.1000
  209MOL0     H28208   5.275   4.468  11.568  1.4270  0.1515  0.6881
  209MOL0     H28209   5.403   4.191  11.567 -0.3334  0.8753 -0.8746
  209MOL0     H28210   5.474   4.313  11.671  0.6520 -0.3518 -1.2512
  209MOL0     H28211   5.512   4.442  11.452 -0.0972 -0.0261 -0.3258
  209MOL0     H28212   5.462   4.295  11.368 -0.6939 -0.6198  0.7026
  209MOL0     H28213   5.822   4.156  11.451 -0.6100 -0.6992 -2.1734
  209MOL0     H28214   4.799   4.379  11.592 -0.8581 -2.0307  0.4623
  209MOL0     H28215   4.615   4.366  11.465  0.5748 -1.2968  1.6792
  210MOL0     O28216   6.997   0.746   1.601 -0.7706  0.4719 -0.2574
  210MOL0     C28217   7.108   0.778   1.646  0.1050 -1.0132 -0.5718
  210MOL0     O28218   7.138   0.838   1.769 -0.3194 -0.4528  0.3975
  210MOL0     C28219   7.036   0.870   1.851  1.2744 -0.5664  0.0264
  210MOL0     C28220   6.899   0.902   1.818 -0.2843 -0.7003 -0.3987
  210MOL0     C28221   6.797   0.925   1.910  0.6899 -0.7811 -0.1297
  210MOL0     C28222   6.824   0.893   2.041 -0.2883 -0.5662 -0.2085
  210MOL0     O28223   6.739   0.906   2.152 -0.6061 -0.1880  0.0434
  210MOL0     C28224   6.602   0.956   2.133 -0.0594  0.2186  0.4235
  210MOL0     C28225   6.522   0.986   2.254 -0.6884  0.0782 -1.2661
  210MOL0     C28226   6.471   0.856   2.326  0.4095  0.4465 -0.2638
  210MOL0     C28227   6.324   0.863   2.349  0.2469  0.0495  0.5054
  210MOL0     C28228   6.282   0.721   2.387  0.0581  0.4803  0.1579
  210MOL0     C28229   6.126   0.718   2.420  0.6041 -0.4248 -0.1388
  210MOL0     C28230   6.080   0.586   2.478  0.2425 -0.4721  0.2530
  210MOL0     C28231   6.006   0.595   2.610 -0.2364  0.0568 -0.2369
  210MOL0     N28232   5.876   0.664   2.593 -0.2146 -0.0409 -0.5077
  210MOL0     C28233   5.831   0.776   2.525 -1.0186 -0.3383  1.0186
  210MOL0     C28234   5.724   0.814   2.583 -0.7316  0.0084  0.4443
  210MOL0     C28235   5.645   0.933   2.560  0.4234  0.0405 -0.4653
  210MOL0     C28236   5.494   0.895   2.584 -0.7328 -0.0694 -0.9443
  210MOL0     C28237   5.417   1.024   2.588 -0.1316 -0.0417  1.3657
  210MOL0     C28238   5.360   1.075   2.456  0.3814 -0.2682 -0.0214
  210MOL0     O28239   5.278   0.982   2.387  0.9736  0.4967  0.4423
  210MOL0     C28240   5.157   0.945   2.445 -0.3685 -1.0251 -0.5960
  210MOL0     C28241   5.132   0.826   2.518  0.8784 -0.4428  0.4446
  210MOL0     C28242   5.010   0.797   2.582  0.5724  0.1209  0.1641
  210MOL0     C28243   4.997   0.656   2.633 -0.5675 -0.8674 -0.2231
  210MOL0     C28244   4.908   0.898   2.578 -0.1887  0.0534 -0.3096
  210MOL0     C28245   4.774   0.870   2.620  0.6421  0.9746  0.3231
  210MOL0     O28246   4.713   0.963   2.694 -0.3390  0.3698 -0.0819
  210MOL0     C28247   4.581   0.985   2.682  0.3698  0.5581 -0.8131
  210MOL0     C28248   4.523   1.047   2.792 -0.3937  0.3050  0.0498
  210MOL0     C28249   4.387   1.058   2.809 -0.5122 -0.7006 -0.0251
  210MOL0     C28250   4.303   1.010   2.707 -0.4458  0.2099  0.0820
  210MOL0     O28251   4.168   1.039   2.727 -0.1772  0.3213 -0.4228
  210MOL0     C28252   4.065   0.975   2.647  0.3664  0.4851  0.2266
  210MOL0     C28253   3.927   1.011   2.704 -0.2452  0.5854 -0.7417
  210MOL0     C28254   3.816   0.921   2.652 -0.2595 -0.3226  0.8995
  210MOL0     C28255   3.682   0.953   2.716 -0.0550 -0.4615 -0.7021
  210MOL0     C28256   3.566   0.885   2.651  0.2357 -0.2183  0.2852
  210MOL0     C28257   3.437   0.888   2.731 -1.1801  0.8615  1.5353
  210MOL0     C28258   3.321   0.821   2.663 -0.1800  0.4608  0.0755
  210MOL0     C28259   3.203   0.847   2.749  0.5273  0.4860 -0.4550
  210MOL0    Cl28260   3.219   0.776   2.923 -0.3523 -0.1845  0.1021
  210MOL0     C28261   4.358   0.957   2.588 -1.1087  0.8896  0.2410
  210MOL0     C28262   4.498   0.952   2.573 -0.6398  0.2533 -0.5310
  210MOL0     O28263   4.718   0.764   2.573  0.5115  0.4241 -0.0494
  210MOL0     C28264   4.933   1.029   2.525  0.4506 -0.2024  0.3729
  210MOL0     C28265   5.054   1.050   2.455 -0.1247  0.5134 -0.9666
  210MOL0     N28266   5.685   0.721   2.670  0.6506 -0.1411  0.1766
  210MOL0     N28267   5.776   0.631   2.687 -0.5466  0.1675  0.0308
  210MOL0     C28268   6.957   0.865   2.084  0.3710 -0.8561  0.3191
  210MOL0     C28269   7.060   0.857   1.991  0.3933 -0.0262  0.1240
  210MOL0     C28270   7.218   0.759   1.557  0.3535  0.0658  0.5061
  210MOL0     C28271   7.206   0.664   1.451  1.2686 -0.2137 -0.5376
  210MOL0     C28272   7.307   0.656   1.353  0.1950 -0.5574  0.1221
  210MOL0     C28273   7.419   0.740   1.353  0.0970 -0.4453  0.2920
  210MOL0     O28274   7.519   0.753   1.257  0.7302  0.0982  0.5405
  210MOL0     C28275   7.567   0.630   1.199 -0.1734  0.1706 -0.5770
  210MOL0     C28276   7.637   0.535   1.294  0.4612  0.0376 -0.3576
  210MOL0     C28277   7.774   0.583   1.336 -0.1964 -0.6890 -0.4593
  210MOL0     C28278   7.881   0.599   1.231  0.7662 -0.4030 -0.1286
  210MOL0     C28279   7.866   0.516   1.106 -0.8093 -0.3746  0.4755
  210MOL0     C28280   7.820   0.455   1.009  0.2135  0.4360 -0.2501
  210MOL0     C28281   7.434   0.823   1.471 -0.0219  0.5422 -0.1398
  210MOL0     C28282   7.332   0.833   1.566  0.3774  0.0204  0.1838
  210MOL0     H28283   6.898   0.920   1.711 -1.1601  1.3311 -0.1050
  210MOL0     H28284   6.706   0.979   1.887  2.1627  2.3839  0.9875
  210MOL0     H28285   6.606   1.050   2.078  0.5909 -0.3313 -0.5069
  210MOL0     H28286   6.555   0.875   2.075 -1.6088 -0.9021  3.0723
  210MOL0     H28287   6.584   1.048   2.319 -0.1264 -0.6908 -1.0512
  210MOL0     H28288   6.441   1.054   2.226  0.4600  0.0875 -5.1473
  210MOL0     H28289   6.499   0.766   2.271  0.3713 -0.8533  1.7656
  210MOL0     H28290   6.514   0.839   2.425  2.2344  0.3012 -1.0440
  210MOL0     H28291   6.299   0.944   2.419 -1.4470  0.8012 -0.8891
  210MOL0     H28292   6.264   0.887   2.261  1.8534  1.2013 -0.3435
  210MOL0     H28293   6.293   0.653   2.302 -0.3573  1.8622 -1.0457
  210MOL0     H28294   6.343   0.683   2.470 -0.1990 -2.9206 -1.0438
  210MOL0     H28295   6.107   0.793   2.497  2.2590 -0.3985  0.2940
  210MOL0     H28296   6.072   0.737   2.327 -3.6430 -1.5989  1.8817
  210MOL0     H28297   6.033   0.534   2.394  1.8810  1.8437 -2.2600
  210MOL0     H28298   6.173   0.533   2.502  1.1085  1.4233  1.3119
  210MOL0     H28299   6.065   0.655   2.681 -2.2162  0.1198  1.4405
  210MOL0     H28300   5.993   0.493   2.648  0.4122 -0.2859 -0.9049
  210MOL0     H28301   5.889   0.826   2.448 -2.9806  2.1388  1.0465
  210MOL0     H28302   5.658   1.008   2.639 -0.0179 -0.2953 -0.0667
  210MOL0     H28303   5.668   0.971   2.460  1.8785  1.6659  0.4341
  210MOL0     H28304   5.474   0.852   2.683  0.7334 -1.6249 -1.2811
  210MOL0     H28305   5.466   0.823   2.507 -0.3640  0.5293 -1.6488
  210MOL0     H28306   5.476   1.102   2.638 -0.5763 -0.0105  1.8569
  210MOL0     H28307   5.331   0.994   2.649 -2.6970 -1.3171 -2.5129
  210MOL0     H28308   5.439   1.107   2.388 -1.2369  1.4265 -1.2002
  210MOL0     H28309   5.298   1.162   2.479  1.6093 -0.1869  3.7392
  210MOL0     H28310   5.211   0.752   2.527  0.3446 -1.3360 -1.5381
  210MOL0     H28311   5.088   0.598   2.651 -0.2605  0.3090  2.3764
  210MOL0     H28312   4.956   0.668   2.733  2.0398  0.6962  0.7697
  210MOL0     H28313   4.929   0.596   2.572 -0.1737 -1.9094  0.3172
  210MOL0     H28314   4.578   1.074   2.882 -0.7761 -0.8810  0.6729
  210MOL0     H28315   4.344   1.101   2.899 -1.5262 -0.2394 -0.7121
  210MOL0     H28316   4.072   0.986   2.538 -1.5810  0.6529  0.0840
  210MOL0     H28317   4.086   0.868   2.662  0.2371  0.6118  1.3758
  210MOL0     H28318   3.928   0.998   2.812 -3.5223  1.9378 -0.4340
  210MOL0     H28319   3.895   1.113   2.683  0.9212  0.8902 -1.0933
  210MOL0     H28320   3.839   0.817   2.676 -1.5166 -0.6884  0.5954
  210MOL0     H28321   3.804   0.928   2.544 -1.2644 -1.6028  0.9049
  210MOL0     H28322   3.682   0.923   2.821 -1.1638  0.7672 -0.3154
  210MOL0     H28323   3.673   1.062   2.705 -2.8883 -0.6679 -1.2445
  210MOL0     H28324   3.585   0.781   2.623  1.9229 -0.2629  1.4499
  210MOL0     H28325   3.548   0.943   2.560 -0.0954  1.5408  1.4394
  210MOL0     H28326   3.456   0.838   2.827 -0.6681 -0.1995  0.9023
  210MOL0     H28327   3.417   0.991   2.763  0.4627  1.4033  0.9367
  210MOL0     H28328   3.341   0.714   2.649  2.1151  1.1775 -3.4033
  210MOL0     H28329   3.293   0.871   2.569  0.1019  1.4860  0.5306
  210MOL0     H28330   3.125   0.782   2.707  1.7303 -1.4114  0.0963
  210MOL0     H28331   3.163   0.948   2.746 -1.7617 -0.3026  0.6147
  210MOL0     H28332   4.284   0.930   2.514 -2.3509  1.8934  1.0863
  210MOL0     H28333   4.534   0.910   2.480 -1.9419 -0.2690 -0.8122
  210MOL0     H28334   4.864   1.112   2.537 -3.1670 -2.7064 -1.2507
  210MOL0     H28335   5.048   1.140   2.395  0.5570  0.3905 -1.2310
  210MOL0     H28336   6.976   0.843   2.189 -3.1357 -2.4227  0.7509
  210MOL0     H28337   7.156   0.824   2.027 -0.3937 -1.0990  1.3512
  210MOL0     H28338   7.122   0.599   1.427  3.9729 -4.7284  0.9170
  210MOL0     H28339   7.305   0.583   1.272 -0.5840  0.1884 -0.5478
  210MOL0     H28340   7.489   0.575   1.146 -0.0476  0.3849 -0.9846
  210MOL0     H28341   7.633   0.639   1.112 -1.1607 -0.0283 -1.3656
  210MOL0     H28342   7.632   0.434   1.252 -3.0155  0.2618 -0.7614
  210MOL0     H28343   7.583   0.526   1.389  3.0526 -1.1389  1.1146
  210MOL0     H28344   7.819   0.507   1.401  0.1339  1.3825  1.8579
  210MOL0     H28345   7.759   0.678   1.387 -0.4670  0.6525 -2.8968
  210MOL0     H28346   7.976   0.566   1.273 -0.0241 -1.8749  0.5701
  210MOL0     H28347   7.895   0.702   1.195  1.9030 -0.2924  0.5804
  210MOL0     H28348   7.783   0.405   0.922  0.4641 -0.5415  0.1875
  210MOL0     H28349   7.517   0.893   1.480 -0.1589  0.6081  0.7284
  210MOL0     H28350   7.345   0.893   1.656 -3.0409 -0.2173  0.9616
  211MOL0     O28351   2.008  10.171   1.503 -0.4078 -0.5727  0.4708
  211MOL0     C28352   2.083  10.224   1.584  0.2378  0.0743  0.9703
  211MOL0     O28353   2.048  10.255   1.716  0.1925  0.2015 -0.5578
  211MOL0     C28354   1.934  10.206   1.779 -0.2028  1.2338 -0.1709
  211MOL0     C28355   1.940  10.135   1.905  0.0438 -0.4461 -0.5354
  211MOL0     C28356   1.827  10.084   1.957 -0.0111  0.8310  0.2701
  211MOL0     C28357   1.700  10.100   1.891  0.2611  0.5620 -0.3701
  211MOL0     O28358   1.584  10.045   1.946  0.0327  0.3914  0.0137
  211MOL0     C28359   1.461  10.040   1.873  0.2849 -0.3172  0.9009
  211MOL0     C28360   1.357   9.976   1.962  0.4025 -0.0768  0.1501
  211MOL0     C28361   1.388   9.833   2.007  0.7817 -0.7293 -0.7039
  211MOL0     C28362   1.417   9.827   2.160  0.0093 -0.0518 -0.1103
  211MOL0     C28363   1.499   9.703   2.206 -0.1505  0.1427  0.4666
  211MOL0     C28364   1.420   9.582   2.232  0.7382  0.5036 -0.3024
  211MOL0     C28365   1.497   9.455   2.263  1.0736  0.6626 -0.1492
  211MOL0     C28366   1.556   9.402   2.132  0.1011 -0.4552 -0.2966
  211MOL0     N28367   1.623   9.272   2.152  0.0061 -0.8913 -0.3270
  211MOL0     C28368   1.735   9.244   2.231 -0.5348 -0.2273  0.3075
  211MOL0     C28369   1.738   9.113   2.231  0.1532  0.2896 -0.6891
  211MOL0     C28370   1.842   9.018   2.288  0.2257 -0.3152 -0.2078
  211MOL0     C28371   1.975   9.048   2.204 -0.7837 -0.0030  0.3099
  211MOL0     C28372   2.079   8.939   2.237 -1.2067 -0.0554  0.3684
  211MOL0     C28373   2.231   8.986   2.215 -0.3791 -0.4961  0.2966
  211MOL0     O28374   2.240   9.024   2.078  0.1339 -0.1232  0.9313
  211MOL0     C28375   2.347   9.095   2.041  0.1822 -0.1055  0.5073
  211MOL0     C28376   2.331   9.215   1.968  0.2883  0.2225 -0.2333
  211MOL0     C28377   2.438   9.285   1.913  0.2041  0.8882  0.2450
  211MOL0     C28378   2.417   9.400   1.822 -0.3278 -0.2358 -0.1283
  211MOL0     C28379   2.571   9.242   1.950  0.7175 -0.6363 -0.3032
  211MOL0     C28380   2.696   9.303   1.920 -0.7033  0.0036  0.2380
  211MOL0     O28381   2.811   9.227   1.935 -0.4384  0.1359 -0.6256
  211MOL0     C28382   2.938   9.278   1.901 -0.6891  0.2527 -0.5226
  211MOL0     C28383   3.014   9.187   1.827  0.1956 -0.8692 -0.1113
  211MOL0     C28384   3.123   9.239   1.761  0.0040  0.8692  0.1237
  211MOL0     C28385   3.177   9.366   1.787 -1.2599  1.3380  0.3280
  211MOL0     O28386   3.279   9.391   1.702 -0.0802  0.4228  0.6618
  211MOL0     C28387   3.360   9.510   1.726 -0.0883  0.1165  0.0183
  211MOL0     C28388   3.429   9.521   1.589 -0.1327  0.2203 -0.5850
  211MOL0     C28389   3.537   9.403   1.571 -0.3401 -0.7963  0.3041
  211MOL0     C28390   3.684   9.450   1.601  0.0303 -0.1988 -0.4814
  211MOL0     C28391   3.787   9.344   1.573  0.1137  0.3624  0.4293
  211MOL0     C28392   3.928   9.412   1.568 -0.0889  0.0959 -0.2020
  211MOL0     C28393   4.043   9.309   1.567 -1.0533 -0.1678 -0.0728
  211MOL0     C28394   4.178   9.353   1.617  0.3765 -0.4212  0.9684
  211MOL0    Cl28395   4.282   9.377   1.474  0.4313  0.2068 -0.3152
  211MOL0     C28396   3.111   9.445   1.885  0.1883 -0.3942 -0.2767
  211MOL0     C28397   2.990   9.399   1.943 -0.5754 -0.0872 -1.4939
  211MOL0     O28398   2.699   9.420   1.872  0.1305  0.2778  0.5258
  211MOL0     C28399   2.586   9.126   2.029 -0.7295  0.8518  0.7858
  211MOL0     C28400   2.480   9.052   2.066  0.2059 -0.1335 -0.1585
  211MOL0     N28401   1.629   9.061   2.151  1.0222 -0.7451 -0.0609
  211MOL0     N28402   1.562   9.162   2.107 -0.4112 -0.0877  0.1974
  211MOL0     C28403   1.698  10.158   1.762  0.2324 -0.0998 -0.1563
  211MOL0     C28404   1.816  10.205   1.704 -0.1344  0.0686 -0.0087
  211MOL0     C28405   2.220  10.278   1.548  1.6642  0.9076  0.8560
  211MOL0     C28406   2.309  10.312   1.654 -0.4254  0.1311 -0.4137
  211MOL0     C28407   2.439  10.352   1.626  1.1165 -0.1005 -0.8013
  211MOL0     C28408   2.479  10.362   1.495 -0.2248  0.2502  0.1157
  211MOL0     O28409   2.602  10.403   1.449  0.1847  0.3871  0.2162
  211MOL0     C28410   2.639  10.528   1.513  0.8206 -0.1328 -0.7479
  211MOL0     C28411   2.746  10.609   1.440  0.4030 -0.1255  0.7773
  211MOL0     C28412   2.721  10.626   1.281  0.7571 -0.4407 -0.3474
  211MOL0     C28413   2.849  10.677   1.221 -0.2226  1.4135  0.2009
  211MOL0     C28414   2.932  10.574   1.150  0.0547  0.8725  0.2202
  211MOL0     C28415   2.989  10.495   1.077 -0.6584  0.4257 -0.8625
  211MOL0     C28416   2.392  10.331   1.388 -0.3537  1.2321 -0.6161
  211MOL0     C28417   2.261  10.295   1.412 -0.1876  1.2139 -0.6308
  211MOL0     H28418   2.030  10.130   1.965 -0.6808  0.5516  0.7156
  211MOL0     H28419   1.831  10.022   2.046 -1.3068 -0.9313 -0.8405
  211MOL0     H28420   1.427  10.142   1.852  0.5321 -0.3876  0.1342
  211MOL0     H28421   1.472   9.970   1.790  0.3302 -0.3696  0.9509
  211MOL0     H28422   1.344  10.033   2.054  0.9430 -0.7056  0.6273
  211MOL0     H28423   1.261   9.964   1.911  1.6206 -3.9013 -1.6503
  211MOL0     H28424   1.302   9.772   1.979 -0.7594  1.1163 -0.1902
  211MOL0     H28425   1.477   9.795   1.955  2.8355 -1.8735  3.1532
  211MOL0     H28426   1.461   9.919   2.198 -0.9767  0.2054  0.4515
  211MOL0     H28427   1.323   9.820   2.216  1.5006  1.0200  2.7063
  211MOL0     H28428   1.578   9.673   2.137 -0.1578  1.7110 -0.2532
  211MOL0     H28429   1.541   9.731   2.303 -0.5353 -2.4527  1.4748
  211MOL0     H28430   1.374   9.609   2.327  0.5430  0.9412 -0.5214
  211MOL0     H28431   1.337   9.573   2.162  0.7524 -1.0464 -0.1566
  211MOL0     H28432   1.580   9.486   2.328  0.3602 -2.3653  2.4679
  211MOL0     H28433   1.430   9.388   2.319  4.1780 -2.1467  0.4810
  211MOL0     H28434   1.634   9.470   2.097  1.1294 -0.9295  0.9813
  211MOL0     H28435   1.476   9.385   2.059 -0.4394  1.3377 -0.1872
  211MOL0     H28436   1.810   9.305   2.280  0.6699 -1.7672  0.4498
  211MOL0     H28437   1.863   9.032   2.394  0.6291  0.9685 -0.4435
  211MOL0     H28438   1.799   8.917   2.281  0.6777 -0.4794 -0.6662
  211MOL0     H28439   2.009   9.149   2.230 -1.4259 -0.0256  1.3154
  211MOL0     H28440   1.952   9.048   2.097 -2.2070  1.9573  0.5563
  211MOL0     H28441   2.081   8.840   2.192  2.2401  1.2121 -2.7766
  211MOL0     H28442   2.067   8.920   2.344  0.7037 -3.2952  0.1101
  211MOL0     H28443   2.286   8.899   2.252 -0.3991  1.4932  5.8355
  211MOL0     H28444   2.251   9.067   2.285  0.0528 -0.4641  0.1341
  211MOL0     H28445   2.227   9.247   1.957  0.0523  0.0106  1.1727
  211MOL0     H28446   2.462   9.494   1.855 -2.8442  1.4938 -1.3509
  211MOL0     H28447   2.456   9.376   1.722 -1.1320 -2.0476 -0.0438
  211MOL0     H28448   2.312   9.426   1.807  0.0712  1.7517  0.2410
  211MOL0     H28449   2.981   9.088   1.797 -3.0179  0.0188  0.1217
  211MOL0     H28450   3.171   9.185   1.680 -0.3761 -0.4034  0.7217
  211MOL0     H28451   3.287   9.589   1.745 -2.7068 -1.4919 -2.5654
  211MOL0     H28452   3.434   9.517   1.806 -0.3248  1.4969  0.1356
  211MOL0     H28453   3.350   9.520   1.514  0.7064 -0.4422 -1.4750
  211MOL0     H28454   3.489   9.613   1.589  0.3510 -0.0707  0.6581
  211MOL0     H28455   3.542   9.367   1.468 -0.3512  0.2892 -0.0959
  211MOL0     H28456   3.510   9.326   1.644 -1.2508 -0.9357 -0.1676
  211MOL0     H28457   3.706   9.536   1.538  3.0028 -1.8562 -1.9145
  211MOL0     H28458   3.689   9.496   1.700 -1.5121  2.0228 -1.3491
  211MOL0     H28459   3.765   9.301   1.475 -0.2842 -1.6420  1.3471
  211MOL0     H28460   3.774   9.259   1.640 -0.6104 -0.2452 -0.4533
  211MOL0     H28461   3.938   9.491   1.493 -0.1636  0.7816  0.4867
  211MOL0     H28462   3.943   9.466   1.662  0.9455  0.9045 -0.8032
  211MOL0     H28463   4.059   9.264   1.468 -0.6042  1.6849 -0.8862
  211MOL0     H28464   4.010   9.222   1.625 -0.2421 -1.3501 -1.2862
  211MOL0     H28465   4.231   9.277   1.675 -0.5246 -0.0119  2.3991
  211MOL0     H28466   4.171   9.453   1.662 -1.0922  0.5956 -1.3586
  211MOL0     H28467   3.135   9.548   1.912 -0.9859 -0.2481  0.3048
  211MOL0     H28468   2.937   9.470   2.005  1.9484  2.5165 -2.0878
  211MOL0     H28469   2.685   9.096   2.060 -1.1506  2.0052  3.5186
  211MOL0     H28470   2.494   8.967   2.132 -0.0665  0.1966  0.3237
  211MOL0     H28471   1.606  10.175   1.707 -0.2412  0.4736  0.7864
  211MOL0     H28472   1.796  10.254   1.609 -3.1477  0.8537  0.9089
  211MOL0     H28473   2.283  10.311   1.759 -0.4918  1.6536 -0.3914
  211MOL0     H28474   2.498  10.377   1.714  0.1501 -1.3369  0.2301
  211MOL0     H28475   2.550  10.592   1.519  0.1597 -1.1992  2.1653
  211MOL0     H28476   2.671  10.511   1.616 -3.9952 -1.6010  0.7750
  211MOL0     H28477   2.841  10.557   1.457 -0.2264 -0.6869  2.9559
  211MOL0     H28478   2.757  10.707   1.487  1.2705  1.4206 -2.3684
  211MOL0     H28479   2.641  10.700   1.271  1.2547  0.3835  1.4773
  211MOL0     H28480   2.688  10.534   1.231 -0.7032 -0.0142 -0.2259
  211MOL0     H28481   2.908  10.725   1.300  0.2659  0.5645  0.3626
  211MOL0     H28482   2.832  10.751   1.142 -0.1094  1.3856  0.1496
  211MOL0     H28483   3.030  10.413   1.022  1.1387  0.1313  0.7978
  211MOL0     H28484   2.431  10.347   1.288  0.6078 -1.4805 -0.7664
  211MOL0     H28485   2.194  10.282   1.328 -0.2826  0.1347 -0.4007
  212MOL0     O28486   8.654   9.545   5.321 -0.2581  0.7194  0.2269
  212MOL0     C28487   8.756   9.606   5.297 -0.0453  0.4297 -0.2786
  212MOL0     O28488   8.773   9.720   5.220 -1.2963  0.4128  0.0613
  212MOL0     C28489   8.675   9.744   5.140  0.1328  0.2611  0.7456
  212MOL0     C28490   8.649   9.883   5.113  0.3704  0.0821  0.3416
  212MOL0     C28491   8.540   9.925   5.048  0.6666  0.0608 -0.2147
  212MOL0     C28492   8.451   9.831   4.986  0.2489  0.5416 -0.5466
  212MOL0     O28493   8.327   9.866   4.941 -0.0556 -0.6470  0.3756
  212MOL0     C28494   8.226   9.864   5.048  0.1259 -0.8043  0.6049
  212MOL0     C28495   8.077   9.872   4.984 -0.2209  0.6081  0.3160
  212MOL0     C28496   7.978   9.875   5.102 -0.1121 -0.6751 -0.6815
  212MOL0     C28497   7.832   9.851   5.053  0.7123  0.9000 -0.0398
  212MOL0     C28498   7.799   9.950   4.939 -0.1769 -0.1501 -1.5485
  212MOL0     C28499   7.655   9.938   4.909  0.5052  0.1376 -0.2717
  212MOL0     C28500   7.595  10.020   4.792  1.4126 -0.0958  0.0625
  212MOL0     C28501   7.667  10.011   4.652  0.7203 -0.0352 -0.5673
  212MOL0     N28502   7.620  10.102   4.543  0.0284  0.5630 -0.2945
  212MOL0     C28503   7.493  10.109   4.496  0.0511  0.6384 -0.9290
  212MOL0     C28504   7.489  10.226   4.439  0.5399  1.0130  0.8760
  212MOL0     C28505   7.373  10.296   4.384  0.7123 -0.3708 -0.1627
  212MOL0     C28506   7.303  10.373   4.501 -0.2545  1.1667  0.1462
  212MOL0     C28507   7.155  10.392   4.454 -0.0027 -0.4607  1.2168
  212MOL0     C28508   7.065  10.266   4.471 -0.1749  0.2479 -1.0114
  212MOL0     O28509   6.974  10.250   4.358  0.3835  0.1399 -0.4180
  212MOL0     C28510   6.917  10.128   4.330 -0.5410 -0.5571  0.1735
  212MOL0     C28511   6.808  10.141   4.243  0.0431  0.1909  0.3253
  212MOL0     C28512   6.719  10.032   4.233 -0.0952 -0.1731  0.1345
  212MOL0     C28513   6.578  10.066   4.174  0.4723 -0.5281 -0.1277
  212MOL0     C28514   6.746   9.910   4.302  0.2162  0.4756 -0.4229
  212MOL0     C28515   6.659   9.781   4.299 -0.6014 -0.5027  1.0233
  212MOL0     O28516   6.698   9.683   4.387  0.4754  0.3628 -0.4302
  212MOL0     C28517   6.639   9.559   4.379 -0.3640 -0.6949 -0.1234
  212MOL0     C28518   6.591   9.490   4.274 -0.3780  0.0760 -0.2715
  212MOL0     C28519   6.558   9.359   4.282 -0.2198  0.2375 -0.5504
  212MOL0     C28520   6.578   9.280   4.404  0.0399 -0.6642 -0.0747
  212MOL0     O28521   6.553   9.150   4.437  0.0528  0.3280 -0.1377
  212MOL0     C28522   6.529   9.052   4.333  0.1644 -0.4403 -0.4207
  212MOL0     C28523   6.666   8.992   4.292  0.3948 -0.3357  0.6010
  212MOL0     C28524   6.642   8.865   4.205 -0.2032 -1.0027  0.9704
  212MOL0     C28525   6.564   8.896   4.076 -0.6334 -0.9389  0.7629
  212MOL0     C28526   6.575   8.784   3.974 -0.0379 -0.3790 -0.1439
  212MOL0     C28527   6.478   8.822   3.867 -0.3309  0.3242 -0.0061
  212MOL0     C28528   6.462   8.741   3.741  0.5198 -0.6510  0.1136
  212MOL0     C28529   6.364   8.786   3.634 -0.4032 -0.5667  1.0715
  212MOL0    Cl28530   6.200   8.769   3.686  0.1701  0.1219  0.2346
  212MOL0     C28531   6.617   9.357   4.519  0.2925  0.1955  0.5072
  212MOL0     C28532   6.645   9.496   4.499  0.6974  0.4011  0.1380
  212MOL0     O28533   6.559   9.773   4.236  0.4754 -0.4530 -0.3468
  212MOL0     C28534   6.864   9.907   4.379 -0.3008 -0.5800 -0.2779
  212MOL0     C28535   6.950  10.012   4.397 -0.2752  0.5967 -0.2706
  212MOL0     N28536   7.624  10.268   4.431  0.2459 -0.5488  0.1356
  212MOL0     N28537   7.697  10.207   4.505 -0.2595  0.2670 -0.5905
  212MOL0     C28538   8.481   9.699   4.996 -0.8808  0.3466 -1.1614
  212MOL0     C28539   8.596   9.658   5.065 -0.8850 -0.5452  1.1343
  212MOL0     C28540   8.879   9.567   5.371 -0.4311  0.6300 -0.6046
  212MOL0     C28541   8.891   9.441   5.434  0.1148  0.3057  0.6185
  212MOL0     C28542   9.015   9.401   5.495 -0.4997  0.4656  0.6604
  212MOL0     C28543   9.127   9.487   5.507  0.0336 -0.2046  0.1109
  212MOL0     O28544   9.252   9.467   5.567  0.0976 -0.0937 -0.2620
  212MOL0     C28545   9.275   9.338   5.623  0.9039 -0.5073 -0.1024
  212MOL0     C28546   9.411   9.318   5.695  0.1487 -0.1236  0.0210
  212MOL0     C28547   9.536   9.309   5.604 -0.2185 -0.2793  0.6893
  212MOL0     C28548   9.672   9.317   5.672  0.7584  0.2552  0.2016
  212MOL0     C28549   9.769   9.374   5.578 -0.3652 -0.2516 -0.1993
  212MOL0     C28550   9.857   9.426   5.515 -1.3692 -0.9115  0.0890
  212MOL0     C28551   9.116   9.612   5.452  0.5755 -0.1958 -0.1836
  212MOL0     C28552   8.997   9.646   5.385  0.2991 -0.2882 -0.6410
  212MOL0     H28553   8.702   9.967   5.156 -0.2355  0.6674 -0.0293
  212MOL0     H28554   8.520  10.030   5.033 -3.9272 -0.3669  1.1600
  212MOL0     H28555   8.236   9.769   5.102 -0.5937 -0.0922  2.0511
  212MOL0     H28556   8.246   9.953   5.107  1.4835 -1.0358  0.5303
  212MOL0     H28557   8.071   9.955   4.913  4.6124 -0.2083 -1.4257
  212MOL0     H28558   8.068   9.784   4.920  0.3947 -0.8773  2.1771
  212MOL0     H28559   8.007   9.804   5.179 -1.1975  1.5243  1.9311
  212MOL0     H28560   7.982   9.977   5.144  4.9515 -1.0031  0.2509
  212MOL0     H28561   7.830   9.750   5.011  0.5147  1.2025 -0.7664
  212MOL0     H28562   7.765   9.875   5.136 -1.0375 -0.0334 -1.1168
  212MOL0     H28563   7.835  10.052   4.955  3.3929 -1.4641 -0.1568
  212MOL0     H28564   7.864   9.923   4.855  2.6412 -1.1461  0.7781
  212MOL0     H28565   7.635   9.834   4.882  1.5736 -0.8930  2.5632
  212MOL0     H28566   7.604   9.962   5.003  1.7177  2.4967 -0.1519
  212MOL0     H28567   7.488  10.001   4.787  1.1651  0.3951  2.4362
  212MOL0     H28568   7.589  10.125   4.822  0.1312 -0.6043  1.7213
  212MOL0     H28569   7.657   9.907   4.619 -1.1113 -0.3265  0.7304
  212MOL0     H28570   7.771  10.041   4.663  0.4218  1.1499 -0.8221
  212MOL0     H28571   7.403  10.049   4.513 -1.9167  2.8209 -2.9615
  212MOL0     H28572   7.399  10.367   4.306 -1.5589  1.1538  0.3662
  212MOL0     H28573   7.303  10.224   4.341  0.1428  0.1036 -0.0393
  212MOL0     H28574   7.346  10.474   4.499  0.2657  0.9596 -2.4148
  212MOL0     H28575   7.318  10.324   4.597  1.5865  2.0947  0.3779
  212MOL0     H28576   7.162  10.418   4.348 -1.0380  0.2489  1.3098
  212MOL0     H28577   7.116  10.481   4.505  2.0889  0.8539  0.6254
  212MOL0     H28578   7.015  10.275   4.568  1.9795 -2.4538  0.5237
  212MOL0     H28579   7.134  10.181   4.480  2.0176  1.8795 -1.5538
  212MOL0     H28580   6.781  10.239   4.203  0.0543  1.3181  2.8400
  212MOL0     H28581   6.558  10.024   4.075 -2.8951  1.8506 -0.6120
  212MOL0     H28582   6.499  10.024   4.237  0.7935 -0.7968  0.1004
  212MOL0     H28583   6.564  10.174   4.183 -0.4034 -0.6528  0.0584
  212MOL0     H28584   6.597   9.541   4.178  2.1701  1.5855  0.5788
  212MOL0     H28585   6.516   9.307   4.196 -0.6716  0.3443 -0.3985
  212MOL0     H28586   6.469   8.971   4.376 -0.7956  0.6846  0.4421
  212MOL0     H28587   6.484   9.099   4.245  3.0522  0.3384 -1.6036
  212MOL0     H28588   6.733   9.065   4.245 -0.6137  0.0515 -0.2819
  212MOL0     H28589   6.725   8.971   4.382  3.0486  2.1180 -0.3813
  212MOL0     H28590   6.594   8.795   4.274 -0.9176  2.9948  4.9237
  212MOL0     H28591   6.745   8.841   4.175 -0.7949 -1.0168 -1.2459
  212MOL0     H28592   6.462   8.901   4.115 -0.1550 -2.2673  2.3019
  212MOL0     H28593   6.597   8.995   4.046  0.6464 -1.1484  1.4175
  212MOL0     H28594   6.549   8.681   3.999  0.5129 -2.0680 -5.2708
  212MOL0     H28595   6.675   8.782   3.929  0.0157 -3.1660 -0.0880
  212MOL0     H28596   6.384   8.846   3.917 -0.0303  0.6692  0.4114
  212MOL0     H28597   6.500   8.922   3.828 -1.5074  0.6390  0.1126
  212MOL0     H28598   6.449   8.638   3.777  2.2826 -1.0344 -0.2425
  212MOL0     H28599   6.562   8.742   3.695 -1.2810 -0.3012 -4.2897
  212MOL0     H28600   6.376   8.744   3.534  2.4086  1.7139  0.3388
  212MOL0     H28601   6.393   8.889   3.611  0.9535 -1.2746 -0.5689
  212MOL0     H28602   6.626   9.310   4.616  0.3552  6.0429  3.8024
  212MOL0     H28603   6.679   9.556   4.583  0.3868 -2.5198  2.5063
  212MOL0     H28604   6.887   9.814   4.431 -0.4170 -0.8254 -0.6585
  212MOL0     H28605   7.036  10.003   4.463 -0.3348  0.8818 -0.1535
  212MOL0     H28606   8.412   9.622   4.964  0.0763 -0.5239 -1.1909
  212MOL0     H28607   8.618   9.551   5.066  1.0067 -0.2314 -0.7132
  212MOL0     H28608   8.806   9.375   5.428  1.4975 -1.4399 -1.0725
  212MOL0     H28609   9.029   9.299   5.530  1.2764 -0.2366 -1.7836
  212MOL0     H28610   9.197   9.323   5.699 -1.4454  0.2300 -2.2279
  212MOL0     H28611   9.256   9.259   5.549 -1.9028  0.1829 -0.2189
  212MOL0     H28612   9.416   9.223   5.751  3.5767 -0.1490 -0.1020
  212MOL0     H28613   9.413   9.398   5.769 -1.3426  0.9805 -1.0889
  212MOL0     H28614   9.524   9.390   5.531  1.8772  0.4929  1.1310
  212MOL0     H28615   9.526   9.216   5.547 -1.1932  0.3058 -0.1381
  212MOL0     H28616   9.702   9.215   5.697 -0.0074  0.0183  0.1830
  212MOL0     H28617   9.679   9.364   5.771  1.3283  0.5853  0.0093
  212MOL0     H28618   9.917   9.486   5.450 -2.2139  1.0342  1.0178
  212MOL0     H28619   9.195   9.686   5.461  0.7163 -0.5847  2.6314
  212MOL0     H28620   8.998   9.745   5.339 -0.4116  0.6516  1.2438
  213MOL0     O28621  10.375   5.487   9.977  0.6026  0.1971  0.5407
  213MOL0     C28622  10.371   5.535  10.094  0.6118  0.0985 -0.5709
  213MOL0     O28623  10.253   5.558  10.165 -0.7858 -0.0349  0.5326
  213MOL0     C28624  10.128   5.545  10.102 -0.9346  0.7004  0.9014
  213MOL0     C28625  10.106   5.567   9.960 -0.2493  0.1245 -0.1713
  213MOL0     C28626   9.974   5.563   9.904 -1.0263  0.1610  0.0597
  213MOL0     C28627   9.875   5.522   9.981 -0.4592 -0.4125 -0.4287
  213MOL0     O28628   9.753   5.493   9.921  0.1027 -0.4726 -0.3233
  213MOL0     C28629   9.635   5.514   9.998  0.6086  0.0801 -0.4099
  213MOL0     C28630   9.508   5.499   9.912  1.0170  0.6173  0.1308
  213MOL0     C28631   9.484   5.630   9.831 -1.3459  0.2814  0.8450
  213MOL0     C28632   9.351   5.615   9.762  0.3380 -0.4521  0.8918
  213MOL0     C28633   9.315   5.731   9.663 -0.1955 -0.0755  0.2327
  213MOL0     C28634   9.191   5.706   9.582 -0.0927 -0.7907  0.8277
  213MOL0     C28635   9.191   5.598   9.475 -0.8394  0.7598  0.5916
  213MOL0     C28636   9.056   5.581   9.401 -0.4807 -0.1664 -0.1050
  213MOL0     N28637   8.969   5.482   9.464  0.2419 -0.1523  0.4505
  213MOL0     C28638   8.901   5.379   9.401  0.1911  0.7785 -0.4198
  213MOL0     C28639   8.827   5.324   9.502 -0.2590 -0.0116  0.5395
  213MOL0     C28640   8.744   5.198   9.492 -1.0486  0.4847  0.4671
  213MOL0     C28641   8.613   5.227   9.421 -0.1330 -0.0716 -0.8879
  213MOL0     C28642   8.515   5.101   9.431 -0.3388  0.3684 -0.8907
  213MOL0     C28643   8.383   5.104   9.360  0.0515 -0.1681  0.8535
  213MOL0     O28644   8.300   4.984   9.386  0.2113 -0.1216  0.4824
  213MOL0     C28645   8.168   4.989   9.329  0.6651 -0.2005 -0.5875
  213MOL0     C28646   8.153   5.034   9.201 -0.2243 -0.6274  0.6766
  213MOL0     C28647   8.025   5.050   9.146 -0.2657  0.1515 -0.1560
  213MOL0     C28648   8.019   5.106   9.012  0.5618  0.2605 -0.1824
  213MOL0     C28649   7.911   5.003   9.223  0.3235  0.4340  0.3327
  213MOL0     C28650   7.770   5.006   9.161  0.0127 -0.1743 -0.7905
  213MOL0     O28651   7.662   5.056   9.236  0.4241  0.1652  0.0871
  213MOL0     C28652   7.537   5.086   9.189 -0.5939  0.7050 -0.9312
  213MOL0     C28653   7.438   5.073   9.288  0.1550 -0.4391 -0.3071
  213MOL0     C28654   7.319   5.128   9.259  0.4994  0.0803  0.6540
  213MOL0     C28655   7.285   5.165   9.131  0.2097 -0.2251 -0.1500
  213MOL0     O28656   7.154   5.214   9.103  0.3517  0.9410  0.7284
  213MOL0     C28657   7.121   5.267   8.976  0.1695 -0.6122 -0.4081
  213MOL0     C28658   6.971   5.288   8.972  0.1379  0.4689 -0.2176
  213MOL0     C28659   6.888   5.146   8.961 -0.1878 -0.3692 -0.2595
  213MOL0     C28660   6.741   5.164   8.998 -0.9052  0.7569  0.0065
  213MOL0     C28661   6.643   5.046   8.986  0.6599 -0.3325  0.0039
  213MOL0     C28662   6.501   5.097   8.987 -0.3903 -1.3578  0.2531
  213MOL0     C28663   6.411   4.972   8.972 -0.2062  0.3907  0.9896
  213MOL0     C28664   6.257   5.003   8.993  0.1078 -0.0137 -0.5404
  213MOL0    Cl28665   6.166   4.849   9.011 -0.3430  0.6511  0.2657
  213MOL0     C28666   7.384   5.166   9.029 -0.5919 -1.4929 -0.0677
  213MOL0     C28667   7.508   5.129   9.059  0.0832  0.7296 -0.4577
  213MOL0     O28668   7.765   4.940   9.057  0.4786  0.3718 -0.4744
  213MOL0     C28669   7.925   4.949   9.345 -0.5528 -0.5863 -0.3635
  213MOL0     C28670   8.052   4.953   9.403 -0.6747  0.4789  0.3776
  213MOL0     N28671   8.841   5.401   9.611  0.8557  0.7791  0.4471
  213MOL0     N28672   8.931   5.490   9.592  0.4112 -0.8315  0.5629
  213MOL0     C28673   9.898   5.497  10.113  0.5216  0.1435 -0.0443
  213MOL0     C28674  10.020   5.508  10.173  0.0979  0.1920 -0.3151
  213MOL0     C28675  10.496   5.569  10.153 -0.3851  0.2608 -0.2030
  213MOL0     C28676  10.521   5.552  10.291  0.3550 -0.5998 -1.0801
  213MOL0     C28677  10.647   5.581  10.338  0.6525  0.4040  0.3434
  213MOL0     C28678  10.751   5.638  10.262 -0.3054 -0.7999 -0.1043
  213MOL0     O28679  10.877   5.664  10.321 -0.3133 -0.1125  0.3043
  213MOL0     C28680  10.981   5.731  10.240  0.0832 -0.2268 -0.4577
  213MOL0     C28681  11.107   5.751  10.324 -0.4136 -0.4974  0.1323
  213MOL0     C28682  11.067   5.806  10.469  0.1319 -0.1898  0.3086
  213MOL0     C28683  11.050   5.695  10.575 -0.0179  0.2541  0.1901
  213MOL0     C28684  11.182   5.689  10.634 -0.3368 -0.9856 -0.6181
  213MOL0     C28685  11.302   5.694  10.664  0.2199  0.9009 -0.1162
  213MOL0     C28686  10.727   5.626  10.131  0.6895  0.4132  1.0761
  213MOL0     C28687  10.595   5.609  10.069  0.3293  0.3736  0.7432
  213MOL0     H28688  10.189   5.593   9.895 -0.7577  1.6429 -0.2510
  213MOL0     H28689   9.960   5.578   9.797 -0.3719 -0.7993 -0.1699
  213MOL0     H28690   9.628   5.432  10.070  1.1893 -1.6849 -2.2886
  213MOL0     H28691   9.627   5.613  10.044 -3.2926  0.1197 -0.9065
  213MOL0     H28692   9.525   5.413   9.847  2.2977  1.0476 -0.1397
  213MOL0     H28693   9.414   5.483   9.965 -0.9088 -0.1453 -3.2751
  213MOL0     H28694   9.486   5.718   9.897  1.3397  0.3942  0.7041
  213MOL0     H28695   9.567   5.631   9.761 -1.1658 -1.6213  0.9756
  213MOL0     H28696   9.355   5.522   9.706  2.3470  0.2351 -0.2376
  213MOL0     H28697   9.282   5.613   9.846  0.3553  0.6870  0.9545
  213MOL0     H28698   9.301   5.819   9.725 -1.3714  2.6140 -3.4741
  213MOL0     H28699   9.394   5.763   9.594 -0.7435  1.3418  0.2473
  213MOL0     H28700   9.119   5.660   9.650 -0.3826 -0.9493  0.4155
  213MOL0     H28701   9.155   5.796   9.530  1.6708 -1.5216 -1.8436
  213MOL0     H28702   9.264   5.609   9.395 -3.1850 -3.2716 -2.5275
  213MOL0     H28703   9.224   5.510   9.530  0.1208 -0.5198 -1.8714
  213MOL0     H28704   9.076   5.562   9.295  2.5873  3.7150 -0.4604
  213MOL0     H28705   9.009   5.679   9.406 -0.3939 -0.1299  0.0102
  213MOL0     H28706   8.900   5.346   9.298 -0.5514 -0.0261 -0.1644
  213MOL0     H28707   8.800   5.120   9.439 -0.5190 -1.4654  3.6479
  213MOL0     H28708   8.719   5.160   9.591 -0.5979 -2.0088 -0.2986
  213MOL0     H28709   8.635   5.259   9.319  0.6045 -0.1894 -0.7724
  213MOL0     H28710   8.563   5.308   9.475  1.1414  0.2945 -0.2050
  213MOL0     H28711   8.488   5.077   9.534 -2.1406  1.8959 -0.9693
  213MOL0     H28712   8.559   5.005   9.400 -0.8654 -0.3522  0.5040
  213MOL0     H28713   8.411   5.116   9.255 -0.6852 -1.6270  0.4703
  213MOL0     H28714   8.324   5.194   9.380 -0.1576  0.4733 -2.2184
  213MOL0     H28715   8.239   5.051   9.138 -2.3046  1.3050 -1.8525
  213MOL0     H28716   8.118   5.130   8.973  1.4325 -0.3522  1.5372
  213MOL0     H28717   7.968   5.023   8.963 -0.5795  1.1445 -0.5328
  213MOL0     H28718   7.958   5.196   9.002  1.8729  1.3535  1.1153
  213MOL0     H28719   7.472   5.033   9.383  1.3902 -0.2917 -0.6609
  213MOL0     H28720   7.235   5.130   9.327  1.1869  1.8310  1.4844
  213MOL0     H28721   7.170   5.364   8.961 -2.8799  1.1868  0.6139
  213MOL0     H28722   7.133   5.198   8.891 -1.9558 -3.3387  1.3182
  213MOL0     H28723   6.930   5.342   9.058  0.0461 -0.5890  0.4216
  213MOL0     H28724   6.948   5.354   8.888  1.5132 -0.2054 -1.1601
  213MOL0     H28725   6.939   5.062   9.008  1.9565  0.9114 -0.1398
  213MOL0     H28726   6.893   5.122   8.854  1.3365  1.0395 -0.5417
  213MOL0     H28727   6.732   5.176   9.106 -2.0179  0.5645 -0.0536
  213MOL0     H28728   6.707   5.251   8.942 -3.2153  1.0308  1.7030
  213MOL0     H28729   6.656   4.964   9.058  0.1551 -0.9210 -0.5670
  213MOL0     H28730   6.665   5.011   8.885  3.4253  2.4832 -0.5159
  213MOL0     H28731   6.459   5.150   9.073 -0.9988 -2.2571  0.5261
  213MOL0     H28732   6.504   5.156   8.894  5.2595 -2.9176 -0.9013
  213MOL0     H28733   6.435   4.889   9.040  2.4965  0.2161 -0.0497
  213MOL0     H28734   6.423   4.929   8.872 -1.1584 -0.4500  1.2137
  213MOL0     H28735   6.223   5.069   8.913  1.4405  1.8537  0.3579
  213MOL0     H28736   6.232   5.064   9.079  0.6636  1.8302 -1.6363
  213MOL0     H28737   7.368   5.200   8.927 -2.1929 -0.2903  0.5443
  213MOL0     H28738   7.587   5.124   8.984 -0.4950  0.1943 -1.0521
  213MOL0     H28739   7.840   4.906   9.397 -0.2496  0.4819  1.0864
  213MOL0     H28740   8.063   4.903   9.498 -0.4923  3.9450  2.3600
  213MOL0     H28741   9.817   5.453  10.171  0.4120  0.2336 -0.1300
  213MOL0     H28742  10.043   5.483  10.276 -0.1379 -1.0057 -0.5272
  213MOL0     H28743  10.447   5.514  10.361  0.5027 -1.6939 -1.4988
  213MOL0     H28744  10.669   5.556  10.441 -1.1029  0.5026  0.7772
  213MOL0     H28745  11.003   5.665  10.156 -0.2161  1.1212 -1.6360
  213MOL0     H28746  10.935   5.828  10.218 -1.4927  0.2903  4.0185
  213MOL0     H28747  11.168   5.831  10.280  0.6789 -0.8829  0.9043
  213MOL0     H28748  11.169   5.663  10.341 -0.5789 -0.5018  0.7573
  213MOL0     H28749  10.967   5.850  10.466 -0.3091 -0.9549  2.2862
  213MOL0     H28750  11.134   5.888  10.495 -0.8633  0.8193 -0.2118
  213MOL0     H28751  11.027   5.600  10.527  4.4399 -1.0992  0.2984
  213MOL0     H28752  10.974   5.722  10.649 -1.3586 -4.0871  0.6623
  213MOL0     H28753  11.408   5.702  10.671  0.7328 -1.7952 -2.8210
  213MOL0     H28754  10.805   5.642  10.056 -1.7877 -0.3911 -1.8850
  213MOL0     H28755  10.585   5.630   9.963 -0.4056 -1.1288  0.5043
  214MOL0     O28756   8.631   2.538   5.915 -0.0143  0.3974  0.2700
  214MOL0     C28757   8.697   2.595   5.835  0.4751  0.8261  0.2180
  214MOL0     O28758   8.650   2.691   5.754  0.2866  0.0485  0.1162
  214MOL0     C28759   8.527   2.737   5.780  0.1256 -0.5072 -0.3073
  214MOL0     C28760   8.519   2.871   5.817  0.7629 -1.3849 -1.4579
  214MOL0     C28761   8.390   2.933   5.815  0.6518 -0.4908  0.2004
  214MOL0     C28762   8.272   2.857   5.779 -0.5317 -0.0465  0.0603
  214MOL0     O28763   8.145   2.908   5.769  0.6987 -0.0995 -1.1645
  214MOL0     C28764   8.132   3.010   5.674 -0.4009 -0.4011 -0.1626
  214MOL0     C28765   7.990   3.025   5.637  0.2106  0.6107  0.7627
  214MOL0     C28766   7.893   2.905   5.643  0.5139  0.5442 -0.3619
  214MOL0     C28767   7.917   2.802   5.538  0.2678  0.3633 -0.9133
  214MOL0     C28768   7.813   2.690   5.545 -0.3807  0.1992 -0.4906
  214MOL0     C28769   7.837   2.596   5.674 -0.1249 -0.4223  0.3677
  214MOL0     C28770   7.771   2.455   5.661 -0.0535  0.7393  0.3266
  214MOL0     C28771   7.826   2.347   5.750 -1.1139  1.0002 -0.3989
  214MOL0     N28772   7.723   2.248   5.778  0.2861  0.3620  0.1338
  214MOL0     C28773   7.622   2.267   5.879  0.2660 -0.4191  0.2266
  214MOL0     C28774   7.550   2.152   5.879 -0.2820 -0.6643  0.1797
  214MOL0     C28775   7.435   2.119   5.977 -0.2328 -0.5960 -0.0578
  214MOL0     C28776   7.305   2.181   5.932  0.0555 -0.4995 -0.0147
  214MOL0     C28777   7.182   2.138   6.015 -0.1473  1.1751  0.6574
  214MOL0     C28778   7.058   2.228   5.985 -0.7168  0.4422 -0.3104
  214MOL0     O28779   7.019   2.233   5.851 -0.0049  0.2399  0.4915
  214MOL0     C28780   6.912   2.314   5.808  0.5667  0.0690 -1.3186
  214MOL0     C28781   6.889   2.308   5.674  0.8540 -0.2485 -0.2528
  214MOL0     C28782   6.791   2.383   5.612 -0.0625  0.2572  0.0711
  214MOL0     C28783   6.791   2.397   5.461  0.1725  0.0787 -0.2473
  214MOL0     C28784   6.698   2.450   5.697  1.1786  0.9962  0.2082
  214MOL0     C28785   6.583   2.529   5.642  0.2107  0.2425 -0.1883
  214MOL0     O28786   6.561   2.643   5.713 -0.5667  0.3604 -0.3287
  214MOL0     C28787   6.456   2.709   5.682  0.9958 -0.3870  1.3924
  214MOL0     C28788   6.353   2.718   5.780  0.2245  0.0970 -0.6875
  214MOL0     C28789   6.246   2.804   5.758  0.9933  0.2456 -0.0512
  214MOL0     C28790   6.242   2.880   5.642 -0.1558 -0.1271 -0.0864
  214MOL0     O28791   6.148   2.977   5.614 -0.3637  0.5287 -0.2854
  214MOL0     C28792   6.035   3.011   5.702  0.2176  0.6756 -0.2917
  214MOL0     C28793   5.917   2.914   5.684 -0.3232 -0.5576 -0.4310
  214MOL0     C28794   5.850   2.895   5.818  0.6216  0.3235 -1.2735
  214MOL0     C28795   5.709   2.817   5.819 -0.0230 -0.0767 -0.1726
  214MOL0     C28796   5.638   2.853   5.951  0.0700 -0.1102  0.8414
  214MOL0     C28797   5.498   2.784   5.944 -0.0242  0.1488 -0.5056
  214MOL0     C28798   5.391   2.872   5.891 -0.6413 -0.5628  0.2776
  214MOL0     C28799   5.273   2.779   5.863  0.4176 -1.0478  0.6871
  214MOL0    Cl28800   5.119   2.875   5.852 -0.0347 -0.1998 -0.3165
  214MOL0     C28801   6.346   2.871   5.545  0.5439  0.1393 -0.3926
  214MOL0     C28802   6.455   2.785   5.567  0.3393 -0.2876  0.1013
  214MOL0     O28803   6.511   2.480   5.555 -0.0870  0.1824 -0.1786
  214MOL0     C28804   6.713   2.441   5.839 -0.3719 -0.4620 -0.0923
  214MOL0     C28805   6.832   2.388   5.897  0.1327  0.2452 -0.0337
  214MOL0     N28806   7.615   2.064   5.799  0.4207  0.4488  0.4810
  214MOL0     N28807   7.717   2.115   5.737 -0.2880 -0.6460  0.5515
  214MOL0     C28808   8.296   2.717   5.745 -0.3068 -0.1547  0.3037
  214MOL0     C28809   8.417   2.662   5.754  0.4821 -0.4855 -0.3836
  214MOL0     C28810   8.831   2.552   5.811 -0.0046 -0.0966 -0.2612
  214MOL0     C28811   8.893   2.596   5.695 -0.6661 -0.1332 -0.9137
  214MOL0     C28812   9.034   2.576   5.677  0.4182 -0.6694  0.5977
  214MOL0     C28813   9.112   2.496   5.762 -0.8282  0.2211  0.5412
  214MOL0     O28814   9.246   2.478   5.736  1.2626 -0.2138 -0.1837
  214MOL0     C28815   9.312   2.356   5.765  0.1571  0.7100 -0.2237
  214MOL0     C28816   9.452   2.354   5.718 -0.2401 -0.3923 -0.0761
  214MOL0     C28817   9.539   2.465   5.790 -0.3417 -0.2987 -0.0037
  214MOL0     C28818   9.681   2.459   5.741  0.4967 -0.4133 -0.4629
  214MOL0     C28819   9.749   2.326   5.769 -0.0953  0.0308 -0.1600
  214MOL0     C28820   9.828   2.234   5.775 -0.5118 -0.1408  0.1812
  214MOL0     C28821   9.042   2.438   5.871  0.6570 -0.9926 -0.1315
  214MOL0     C28822   8.904   2.467   5.899  0.0161  1.3543  0.6450
  214MOL0     H28823   8.599   2.941   5.842 -1.3695  0.6016  0.3768
  214MOL0     H28824   8.381   3.038   5.838  2.0764  0.0490 -1.4514
  214MOL0     H28825   8.167   3.104   5.716 -0.2236 -0.0065 -1.1736
  214MOL0     H28826   8.187   2.978   5.586 -0.4017 -0.8728  0.0047
  214MOL0     H28827   7.958   3.098   5.712 -0.2085 -0.5011  1.7002
  214MOL0     H28828   7.994   3.051   5.531 -1.8047 -0.9843  0.2351
  214MOL0     H28829   7.904   2.861   5.742  1.2506  0.2315 -0.5730
  214MOL0     H28830   7.794   2.950   5.629  0.4930  0.7166  0.3126
  214MOL0     H28831   7.930   2.845   5.438  2.7635  0.0753 -0.7784
  214MOL0     H28832   8.014   2.760   5.567 -0.7497 -1.8728 -0.5366
  214MOL0     H28833   7.715   2.737   5.542 -1.0717 -1.2196 -2.9765
  214MOL0     H28834   7.819   2.627   5.456 -0.4108  3.3362 -2.8583
  214MOL0     H28835   7.945   2.591   5.693 -0.0625  3.9428  2.6186
  214MOL0     H28836   7.805   2.650   5.764  0.4977  0.9894 -0.2148
  214MOL0     H28837   7.662   2.454   5.668  0.0369 -0.4806  2.7011
  214MOL0     H28838   7.789   2.426   5.557  2.6500 -0.2482  1.0127
  214MOL0     H28839   7.878   2.382   5.840  0.5955  0.3107 -1.0638
  214MOL0     H28840   7.905   2.298   5.692 -2.3235  1.7841 -2.8564
  214MOL0     H28841   7.607   2.358   5.936  1.4910  1.0716 -1.7361
  214MOL0     H28842   7.406   2.014   5.990 -1.0215 -0.0946  3.1541
  214MOL0     H28843   7.463   2.153   6.077 -0.0295 -2.5968  0.6224
  214MOL0     H28844   7.289   2.151   5.828 -0.1845 -2.1600  0.4692
  214MOL0     H28845   7.314   2.290   5.926 -0.0898 -0.5420 -1.2543
  214MOL0     H28846   7.199   2.147   6.122  2.9528 -1.0170  0.4808
  214MOL0     H28847   7.159   2.033   5.993 -0.3365  1.6844 -1.8858
  214MOL0     H28848   7.077   2.330   6.019 -1.9151  1.0351 -1.3377
  214MOL0     H28849   6.968   2.189   6.033  0.4939 -0.1344  1.5990
  214MOL0     H28850   6.967   2.253   5.622  0.4453  1.5428 -2.9691
  214MOL0     H28851   6.710   2.461   5.424 -0.1879 -0.0467  0.3025
  214MOL0     H28852   6.890   2.429   5.428  0.4620  1.2964  1.6239
  214MOL0     H28853   6.777   2.297   5.419  0.8775 -2.2320  4.4244
  214MOL0     H28854   6.353   2.654   5.868 -0.6765  0.1753 -0.6180
  214MOL0     H28855   6.169   2.810   5.834  0.4935 -1.9171 -0.3404
  214MOL0     H28856   6.080   3.011   5.801  0.2185  1.7035 -0.2774
  214MOL0     H28857   5.996   3.112   5.688  1.6753  1.2342 -0.4817
  214MOL0     H28858   5.846   2.960   5.614  0.6492  1.7797  0.0056
  214MOL0     H28859   5.953   2.820   5.643 -0.1636  0.0702 -1.7990
  214MOL0     H28860   5.830   2.993   5.862 -1.0523 -1.9745  3.8190
  214MOL0     H28861   5.915   2.833   5.880  1.3564  0.7345 -1.6231
  214MOL0     H28862   5.649   2.836   5.729  0.0754 -1.3171 -0.5209
  214MOL0     H28863   5.728   2.711   5.799 -1.6174 -0.2281 -1.0335
  214MOL0     H28864   5.637   2.962   5.964  0.8313 -0.0923  0.7417
  214MOL0     H28865   5.693   2.795   6.025 -0.8377  0.1515  1.7479
  214MOL0     H28866   5.504   2.696   5.881  1.7808 -0.0254 -0.1308
  214MOL0     H28867   5.472   2.754   6.047  2.8179 -3.0973 -0.5677
  214MOL0     H28868   5.421   2.924   5.800 -0.5299 -1.5280 -0.2482
  214MOL0     H28869   5.372   2.949   5.966 -2.4686  1.0969 -1.7735
  214MOL0     H28870   5.273   2.695   5.933  2.5196 -2.4773 -0.9005
  214MOL0     H28871   5.285   2.738   5.762  1.2176 -1.1210  0.8049
  214MOL0     H28872   6.332   2.951   5.473 -2.4726  1.0576  1.0574
  214MOL0     H28873   6.540   2.766   5.502 -1.1981 -3.1226 -1.2621
  214MOL0     H28874   6.642   2.495   5.900  0.2915  1.9841 -1.3219
  214MOL0     H28875   6.847   2.397   6.004  3.9677 -0.0345 -0.4269
  214MOL0     H28876   8.205   2.662   5.722 -0.6936  0.0812  1.2047
  214MOL0     H28877   8.431   2.564   5.710  1.1667  0.5991 -2.7072
  214MOL0     H28878   8.844   2.660   5.623  0.4501  1.4810 -0.2805
  214MOL0     H28879   9.078   2.634   5.597 -1.7474  0.4804  0.1582
  214MOL0     H28880   9.306   2.351   5.874  1.0878 -0.4726 -0.2096
  214MOL0     H28881   9.268   2.271   5.712  1.7183 -0.3913  0.1717
  214MOL0     H28882   9.441   2.379   5.612 -4.2199  1.8330  0.6652
  214MOL0     H28883   9.511   2.263   5.731  3.2327  1.7578  0.2592
  214MOL0     H28884   9.548   2.442   5.897 -2.3209  0.2445  0.3211
  214MOL0     H28885   9.493   2.564   5.780 -1.2676 -0.2972  3.2609
  214MOL0     H28886   9.742   2.526   5.802 -1.5576 -0.9199  2.3382
  214MOL0     H28887   9.680   2.481   5.634  0.3174  1.3944 -0.1106
  214MOL0     H28888   9.894   2.149   5.775 -0.4287 -0.0791 -0.5268
  214MOL0     H28889   9.080   2.371   5.947  2.9758 -0.7449 -1.0073
  214MOL0     H28890   8.870   2.426   5.994 -0.8796  0.0092 -0.2142
  215MOL0     O28891   5.200   0.654   6.946 -0.2758 -0.6640  0.5411
  215MOL0     C28892   5.190   0.532   6.953 -0.6427 -0.6847  1.4448
  215MOL0     O28893   5.071   0.467   6.967 -0.0873 -0.2850  0.1733
  215MOL0     C28894   4.952   0.518   7.006 -0.2388 -0.0146 -0.9136
  215MOL0     C28895   4.953   0.611   7.108 -0.5957 -0.7957 -0.4588
  215MOL0     C28896   4.837   0.666   7.168  0.5317  0.1844  0.5090
  215MOL0     C28897   4.714   0.631   7.109  0.4038 -0.3393  0.7311
  215MOL0     O28898   4.585   0.678   7.131  0.0928  0.3754 -0.2207
  215MOL0     C28899   4.579   0.785   7.222 -0.7293 -0.2680 -0.7180
  215MOL0     C28900   4.430   0.822   7.241 -0.6127 -0.0862 -0.3457
  215MOL0     C28901   4.340   0.704   7.286 -0.3000  0.2294  0.0127
  215MOL0     C28902   4.197   0.750   7.307 -0.1116  0.4908  0.1190
  215MOL0     C28903   4.100   0.637   7.348 -0.4629 -0.2664 -0.5134
  215MOL0     C28904   3.964   0.692   7.390 -0.2979 -0.0447 -0.0835
  215MOL0     C28905   3.866   0.577   7.444 -0.2500  0.1132  0.4839
  215MOL0     C28906   3.727   0.630   7.489  0.0090 -0.4829  0.3382
  215MOL0     N28907   3.715   0.745   7.581  0.8357 -0.5453 -0.5508
  215MOL0     C28908   3.790   0.773   7.697  0.3700  0.5334 -0.3775
  215MOL0     C28909   3.722   0.881   7.753  0.6659 -0.7356 -0.0997
  215MOL0     C28910   3.744   0.954   7.883 -0.2430 -0.0632  0.7096
  215MOL0     C28911   3.880   1.001   7.899  0.1553  0.1615 -0.4935
  215MOL0     C28912   3.979   0.913   7.968  0.6696 -0.4305 -1.2935
  215MOL0     C28913   4.112   0.991   7.976 -0.2961  0.4135 -0.4780
  215MOL0     O28914   4.217   0.896   8.003  0.3526  0.0636 -0.8655
  215MOL0     C28915   4.346   0.933   8.019  0.0930  0.8368  0.0101
  215MOL0     C28916   4.448   0.837   8.010 -0.2269  0.8433  0.3502
  215MOL0     C28917   4.592   0.851   8.019  0.5225  0.3043 -0.3656
  215MOL0     C28918   4.681   0.730   8.017 -0.7861  0.5004 -0.7997
  215MOL0     C28919   4.637   0.987   8.015 -0.1901 -0.2263  0.4795
  215MOL0     C28920   4.782   1.028   8.043 -0.5537 -0.1043  0.4983
  215MOL0     O28921   4.837   0.963   8.150  0.2458  0.4133  0.3253
  215MOL0     C28922   4.971   0.993   8.190 -0.4650 -0.6875 -0.0900
  215MOL0     C28923   5.075   1.015   8.089  0.3052  0.1523  0.5458
  215MOL0     C28924   5.201   1.036   8.133  0.5064 -0.0549 -1.0981
  215MOL0     C28925   5.240   1.018   8.270 -0.5456  0.1696 -0.0491
  215MOL0     O28926   5.374   1.024   8.301  0.0613  0.1208  0.1510
  215MOL0     C28927   5.425   0.968   8.425 -0.0665  0.1002  0.5481
  215MOL0     C28928   5.580   0.980   8.434 -0.0512  0.3998  0.4904
  215MOL0     C28929   5.652   0.960   8.301  0.1891  0.2584 -0.9720
  215MOL0     C28930   5.806   0.976   8.327 -0.2216 -0.4342 -0.2956
  215MOL0     C28931   5.892   0.963   8.202  0.3805  0.5867 -0.6611
  215MOL0     C28932   5.882   1.085   8.113 -0.1018  0.1069  0.2146
  215MOL0     C28933   5.966   1.075   7.989  0.1551  0.7348  0.0385
  215MOL0     C28934   5.951   1.197   7.888 -0.4450  0.1215  0.4950
  215MOL0    Cl28935   6.074   1.185   7.752 -0.3699  0.4514  0.1081
  215MOL0     C28936   5.146   0.985   8.364  1.2045  0.3445  0.3907
  215MOL0     C28937   5.007   0.979   8.327  0.7166  0.2650  0.3478
  215MOL0     O28938   4.836   1.115   7.976  0.0558 -0.4824  0.7000
  215MOL0     C28939   4.533   1.087   8.016 -0.7052 -0.6858  0.1259
  215MOL0     C28940   4.396   1.064   8.018 -0.4043 -0.2655 -0.2928
  215MOL0     N28941   3.610   0.913   7.676 -0.8952  0.2918 -0.5814
  215MOL0     N28942   3.608   0.834   7.582 -0.2334  0.9364  0.1433
  215MOL0     C28943   4.713   0.548   7.002  0.6483  0.5814  0.0970
  215MOL0     C28944   4.830   0.499   6.950 -0.2352 -0.0206 -0.6419
  215MOL0     C28945   5.310   0.450   6.906  0.3009 -0.5781 -0.3735
  215MOL0     C28946   5.411   0.517   6.833 -0.2710  0.4525  0.2850
  215MOL0     C28947   5.505   0.432   6.776 -0.2069  0.5622 -0.2654
  215MOL0     C28948   5.515   0.290   6.805 -0.3216 -0.6927  0.2215
  215MOL0     O28949   5.620   0.208   6.774  0.5639 -0.6383  0.0273
  215MOL0     C28950   5.738   0.260   6.716 -0.9536  0.1395  0.2666
  215MOL0     C28951   5.858   0.158   6.694 -0.7522  0.1549  0.0380
  215MOL0     C28952   5.994   0.236   6.688  0.1934 -0.0428  0.2725
  215MOL0     C28953   6.110   0.155   6.640  0.0256  0.1522 -0.5563
  215MOL0     C28954   6.155   0.041   6.729 -0.1934 -0.5579  0.0120
  215MOL0     C28955   6.190  -0.048   6.808 -0.9522 -0.9306  0.2225
  215MOL0     C28956   5.420   0.233   6.881  0.7199  0.0254  0.6285
  215MOL0     C28957   5.308   0.313   6.925 -0.1846 -0.0192  0.0733
  215MOL0     H28958   5.049   0.630   7.154  0.3382 -0.0296 -2.5809
  215MOL0     H28959   4.841   0.734   7.253  0.1946 -0.6103  1.1720
  215MOL0     H28960   4.617   0.745   7.317 -0.9914 -1.6915 -1.1881
  215MOL0     H28961   4.643   0.870   7.198 -1.0374  0.2844  0.3523
  215MOL0     H28962   4.410   0.903   7.311 -0.7306  0.0085 -0.4864
  215MOL0     H28963   4.384   0.868   7.153 -0.5933  1.3269  0.3577
  215MOL0     H28964   4.346   0.632   7.204  0.0322  0.9350 -0.5909
  215MOL0     H28965   4.374   0.667   7.383 -0.6958  3.6364  1.6171
  215MOL0     H28966   4.192   0.831   7.380  0.2887 -0.6794  1.4923
  215MOL0     H28967   4.156   0.780   7.210 -0.3304  1.3901  0.4861
  215MOL0     H28968   4.087   0.564   7.267  1.6927  1.0520 -2.1638
  215MOL0     H28969   4.137   0.586   7.437 -0.2655  1.7772  0.6268
  215MOL0     H28970   3.980   0.772   7.463 -1.6227 -2.2201  2.7622
  215MOL0     H28971   3.920   0.730   7.297  0.0311 -0.1205 -0.2686
  215MOL0     H28972   3.856   0.503   7.364  4.5366 -1.0315  0.6664
  215MOL0     H28973   3.922   0.524   7.521  0.3514 -1.7234 -1.1318
  215MOL0     H28974   3.662   0.550   7.524  1.6278 -1.7195  0.6662
  215MOL0     H28975   3.676   0.659   7.397  1.0489 -3.3932 -1.2833
  215MOL0     H28976   3.878   0.722   7.735 -0.5981 -2.9957 -2.4409
  215MOL0     H28977   3.681   1.042   7.898 -1.2696 -0.5978 -0.2759
  215MOL0     H28978   3.721   0.877   7.956  1.2036  1.2481  2.6572
  215MOL0     H28979   3.864   1.086   7.966 -2.6075 -1.6002  1.2922
  215MOL0     H28980   3.913   1.031   7.800  2.4153  2.3902  0.8209
  215MOL0     H28981   3.995   0.823   7.908 -2.1687 -0.6390 -1.9015
  215MOL0     H28982   3.948   0.884   8.068  1.6396  0.1741 -0.8060
  215MOL0     H28983   4.107   1.064   8.057 -0.3262 -0.8772  0.7198
  215MOL0     H28984   4.136   1.042   7.882 -1.3032 -0.5702 -1.3074
  215MOL0     H28985   4.420   0.732   7.999  0.0042  0.8307 -0.1183
  215MOL0     H28986   4.733   0.723   8.113  0.0297 -0.0087 -1.2666
  215MOL0     H28987   4.622   0.638   8.008 -3.0604  1.6561  1.1572
  215MOL0     H28988   4.754   0.732   7.935 -0.6871  2.9349 -0.7295
  215MOL0     H28989   5.059   1.002   7.982  2.2695  1.2945  0.0531
  215MOL0     H28990   5.285   1.069   8.073  2.4049  0.0056  1.4419
  215MOL0     H28991   5.385   1.017   8.513 -0.1636 -2.1159  1.8195
  215MOL0     H28992   5.406   0.860   8.421  1.5593 -0.1776 -1.2932
  215MOL0     H28993   5.602   1.076   8.481  1.0315  0.8274 -0.8332
  215MOL0     H28994   5.624   0.901   8.496 -0.5307 -1.8326 -1.8330
  215MOL0     H28995   5.606   1.027   8.228 -1.9113 -0.8527 -0.7390
  215MOL0     H28996   5.636   0.857   8.269  1.7901 -0.5644  0.6924
  215MOL0     H28997   5.815   1.074   8.374  0.1381 -0.5648 -0.0811
  215MOL0     H28998   5.844   0.908   8.405 -1.2745 -2.6472 -1.6190
  215MOL0     H28999   5.857   0.874   8.149  2.5271 -0.7778  0.0994
  215MOL0     H29000   5.996   0.949   8.233 -0.3480  2.4881  3.3667
  215MOL0     H29001   5.777   1.104   8.090  0.4234  0.2256 -2.3632
  215MOL0     H29002   5.914   1.178   8.162  0.0368 -0.4972  1.3031
  215MOL0     H29003   5.948   0.983   7.932  0.7408  0.9023 -0.4357
  215MOL0     H29004   6.074   1.071   8.008  0.5015 -3.2241 -1.6902
  215MOL0     H29005   5.955   1.291   7.943  2.2818  0.2071  0.3192
  215MOL0     H29006   5.848   1.198   7.851 -1.2294 -0.9423  2.5091
  215MOL0     H29007   5.174   0.964   8.466  0.5319 -0.1621  0.4758
  215MOL0     H29008   4.932   0.948   8.400  1.7588 -0.3351  1.2059
  215MOL0     H29009   4.576   1.186   8.030 -0.3076 -0.6739 -1.0693
  215MOL0     H29010   4.343   1.158   8.007  1.1457  0.5035 -1.4435
  215MOL0     H29011   4.621   0.513   6.955  0.0192  0.3660  1.4431
  215MOL0     H29012   4.829   0.435   6.863  1.1645 -0.2658 -0.5026
  215MOL0     H29013   5.414   0.622   6.805  0.6165  0.4333  0.3000
  215MOL0     H29014   5.577   0.480   6.711 -0.1440  1.6252  0.5639
  215MOL0     H29015   5.713   0.301   6.617  2.3460 -0.5942 -1.0070
  215MOL0     H29016   5.774   0.342   6.779  0.6556 -1.5185  1.5727
  215MOL0     H29017   5.846   0.124   6.591  0.2179 -2.7159  0.7641
  215MOL0     H29018   5.852   0.077   6.767 -1.3119  0.7013  0.6150
  215MOL0     H29019   6.018   0.263   6.791 -0.2805 -0.9822  0.6427
  215MOL0     H29020   5.977   0.324   6.625 -1.4486  0.4644  1.3372
  215MOL0     H29021   6.202   0.214   6.642 -1.0191  1.8043  1.1716
  215MOL0     H29022   6.089   0.125   6.536 -0.6858 -1.1277 -0.0699
  215MOL0     H29023   6.218  -0.122   6.879 -0.9978 -3.3752 -2.1351
  215MOL0     H29024   5.439   0.134   6.921  2.2258  0.3572  0.7865
  215MOL0     H29025   5.242   0.259   6.992  0.1647 -0.7005 -0.1162
  216MOL0     O29026   2.593   4.919   4.325  0.2124  0.1897 -0.4582
  216MOL0     C29027   2.617   4.980   4.219 -0.4080  0.3210 -0.0834
  216MOL0     O29028   2.526   5.004   4.119  0.1732 -0.6103  0.3237
  216MOL0     C29029   2.400   4.969   4.149  1.0001 -0.1926 -0.1226
  216MOL0     C29030   2.358   4.837   4.139  0.5515 -0.4442  0.4040
  216MOL0     C29031   2.236   4.798   4.184 -0.3122  0.4518  0.8290
  216MOL0     C29032   2.149   4.888   4.243 -0.2116 -1.0380 -0.1176
  216MOL0     O29033   2.025   4.856   4.302  0.3418  0.3939  0.7110
  216MOL0     C29034   1.982   4.720   4.302 -0.8460 -0.3468 -0.7240
  216MOL0     C29035   1.832   4.713   4.323  0.8152  0.1984  0.7100
  216MOL0     C29036   1.799   4.591   4.416 -0.6194 -0.5972  0.3340
  216MOL0     C29037   1.652   4.577   4.425 -0.0432 -0.0372 -0.5890
  216MOL0     C29038   1.610   4.451   4.501 -0.5666  0.2513  0.3674
  216MOL0     C29039   1.470   4.462   4.546  0.1997 -0.0965  0.1089
  216MOL0     C29040   1.395   4.338   4.496  0.0413 -0.4279  1.0371
  216MOL0     C29041   1.252   4.376   4.530 -0.5396 -0.1379  0.0368
  216MOL0     N29042   1.160   4.273   4.496  0.2041 -0.1603 -0.1584
  216MOL0     C29043   1.107   4.251   4.370  0.1443 -0.2921 -0.5689
  216MOL0     C29044   1.025   4.138   4.388  0.1900 -0.0053 -0.3316
  216MOL0     C29045   0.935   4.082   4.284 -0.1655 -0.3506 -0.1015
  216MOL0     C29046   1.015   4.024   4.169  0.4114 -0.6649  0.3398
  216MOL0     C29047   0.939   3.916   4.089 -0.1461 -0.4643  0.2640
  216MOL0     C29048   0.816   3.962   4.016 -1.1528  0.5577  0.3059
  216MOL0     O29049   0.703   3.988   4.106 -0.3347  0.7888  0.2103
  216MOL0     C29050   0.593   4.039   4.046  0.0032  0.1756  0.0197
  216MOL0     C29051   0.583   4.073   3.911  0.4885  0.4359  0.5305
  216MOL0     C29052   0.459   4.113   3.856 -0.9371 -0.4078 -0.5565
  216MOL0     C29053   0.453   4.139   3.702  0.8068  0.2428 -0.2042
  216MOL0     C29054   0.341   4.119   3.938 -1.1824  0.1297  0.6193
  216MOL0     C29055   0.215   4.170   3.895 -0.5574  0.3510 -0.2463
  216MOL0     O29056   0.148   4.264   3.974  0.1854  0.1311  0.2086
  216MOL0     C29057   0.011   4.255   3.958  0.9546  0.3614  0.4356
  216MOL0     C29058  -0.068   4.139   3.953  0.2090 -0.5104  0.0819
  216MOL0     C29059  -0.207   4.151   3.962 -0.6339 -0.4368  0.5548
  216MOL0     C29060  -0.268   4.278   3.966  0.0696  0.5440  0.9481
  216MOL0     O29061  -0.407   4.295   3.975  0.0018  0.6829  0.7666
  216MOL0     C29062  -0.477   4.222   3.873  0.1566  0.1158 -0.3789
  216MOL0     C29063  -0.618   4.289   3.860 -0.0674 -0.0914 -0.5744
  216MOL0     C29064  -0.701   4.291   3.990  0.7238  0.3046 -0.8222
  216MOL0     C29065  -0.730   4.152   4.054  0.0360 -0.4673  0.2081
  216MOL0     C29066  -0.850   4.165   4.153 -0.3357 -0.6457 -0.1850
  216MOL0     C29067  -0.986   4.189   4.081 -0.5206  0.1512 -0.0644
  216MOL0     C29068  -1.106   4.213   4.173  0.7744  0.3667  0.9876
  216MOL0     C29069  -1.130   4.112   4.283  0.7129  1.3586  0.4143
  216MOL0    Cl29070  -1.295   4.121   4.344 -0.0875 -0.0150  0.3889
  216MOL0     C29071  -0.182   4.391   3.960  0.0732  0.3373 -0.1516
  216MOL0     C29072  -0.046   4.374   3.960  0.1693 -0.5254 -1.2373
  216MOL0     O29073   0.175   4.131   3.787  0.5431  0.0435  0.1824
  216MOL0     C29074   0.356   4.103   4.072 -0.8624  0.5678 -0.0922
  216MOL0     C29075   0.477   4.052   4.132 -0.9240  0.0114  0.8261
  216MOL0     N29076   1.036   4.094   4.518 -0.3224 -0.6323 -0.3524
  216MOL0     N29077   1.125   4.169   4.579  0.3327  0.0954 -0.7170
  216MOL0     C29078   2.198   5.016   4.261  0.2056  0.3786 -0.7768
  216MOL0     C29079   2.317   5.060   4.213 -0.4378 -0.2442  0.1828
  216MOL0     C29080   2.752   5.030   4.213  0.0414 -0.1663 -0.2823
  216MOL0     C29081   2.816   5.035   4.090 -0.5975 -0.7459  0.1046
  216MOL0     C29082   2.940   5.095   4.075 -0.4796  0.3570 -0.1206
  216MOL0     C29083   3.018   5.120   4.191  0.2073 -0.9218 -0.3018
  216MOL0     O29084   3.139   5.173   4.168  0.4687  0.1815  0.3077
  216MOL0     C29085   3.243   5.122   4.245 -0.5507 -0.3434 -0.5642
  216MOL0     C29086   3.350   5.240   4.255 -0.6080  0.9345  0.3531
  216MOL0     C29087   3.485   5.176   4.279  0.0798 -0.4207 -0.3224
  216MOL0     C29088   3.585   5.278   4.341  0.6122  0.8833  0.0999
  216MOL0     C29089   3.721   5.229   4.351  0.0594 -0.0574 -0.2919
  216MOL0     C29090   3.818   5.177   4.393 -0.0255  0.3181 -0.3978
  216MOL0     C29091   2.952   5.108   4.322 -0.4245  0.5875 -0.7400
  216MOL0     C29092   2.823   5.054   4.329 -0.5162 -0.7889 -0.2073
  216MOL0     H29093   2.434   4.769   4.102  0.4186 -0.3907  0.0254
  216MOL0     H29094   2.210   4.693   4.183  2.9641 -0.4711  2.1480
  216MOL0     H29095   2.006   4.669   4.209  1.2130 -0.6706 -0.0470
  216MOL0     H29096   2.039   4.662   4.374  2.9494  0.4618 -2.8295
  216MOL0     H29097   1.804   4.811   4.364  0.9358  0.6813 -0.3229
  216MOL0     H29098   1.780   4.697   4.229  0.3953 -0.5627  1.0603
  216MOL0     H29099   1.837   4.499   4.371 -0.4212 -0.6785  0.6630
  216MOL0     H29100   1.845   4.596   4.515 -0.6664 -1.5329  0.4126
  216MOL0     H29101   1.623   4.676   4.461 -0.4592 -0.9654  1.8214
  216MOL0     H29102   1.619   4.563   4.321  2.2342 -2.6027 -1.0571
  216MOL0     H29103   1.627   4.366   4.435  1.4972 -0.0686  1.2347
  216MOL0     H29104   1.676   4.431   4.586 -2.7132  0.2222  2.1264
  216MOL0     H29105   1.474   4.450   4.655 -0.8277  0.0431  0.1781
  216MOL0     H29106   1.428   4.557   4.510 -0.5295 -0.6468 -0.5204
  216MOL0     H29107   1.408   4.328   4.388  2.0027  0.5431  1.1447
  216MOL0     H29108   1.421   4.248   4.553  0.9716 -1.7887 -1.3823
  216MOL0     H29109   1.223   4.461   4.467  2.6128 -0.6149 -2.2892
  216MOL0     H29110   1.241   4.397   4.637  3.7254 -0.2417  0.6729
  216MOL0     H29111   1.097   4.312   4.280  0.0775 -0.4663 -0.6808
  216MOL0     H29112   0.884   3.997   4.331  1.8156 -2.5310 -1.6685
  216MOL0     H29113   0.867   4.154   4.238 -1.2087 -1.9873 -1.2340
  216MOL0     H29114   1.111   3.986   4.207 -0.9220 -2.2591  2.3179
  216MOL0     H29115   1.047   4.099   4.096 -0.3432 -0.2810  0.3972
  216MOL0     H29116   0.909   3.835   4.157  0.3855 -0.9137 -0.0192
  216MOL0     H29117   1.012   3.872   4.019 -0.2659  0.2583 -0.3212
  216MOL0     H29118   0.798   3.895   3.931 -1.1518  3.6714 -2.3703
  216MOL0     H29119   0.842   4.051   3.959  0.1246 -0.4057 -0.6971
  216MOL0     H29120   0.662   4.066   3.836 -2.2839  0.4532 -2.6449
  216MOL0     H29121   0.545   4.161   3.646  0.2685 -0.6258 -1.4760
  216MOL0     H29122   0.394   4.064   3.649 -0.2953  1.3890 -0.6401
  216MOL0     H29123   0.388   4.227   3.690 -0.9718 -0.6616  2.0300
  216MOL0     H29124  -0.013   4.046   3.953  3.3792  1.1768  1.3716
  216MOL0     H29125  -0.259   4.058   3.943 -1.9068  0.6140 -1.4608
  216MOL0     H29126  -0.426   4.229   3.777 -1.8892 -1.5115 -1.6851
  216MOL0     H29127  -0.486   4.115   3.894  1.7865 -0.2264 -1.3008
  216MOL0     H29128  -0.609   4.395   3.833  1.8316 -0.1015 -0.1404
  216MOL0     H29129  -0.679   4.246   3.781 -0.9925 -0.4596  0.3175
  216MOL0     H29130  -0.797   4.338   3.968  0.5920 -0.0736 -1.0575
  216MOL0     H29131  -0.658   4.346   4.074  0.3195 -2.1441  1.0884
  216MOL0     H29132  -0.767   4.088   3.974 -2.1033  1.2178 -0.2427
  216MOL0     H29133  -0.638   4.120   4.104 -1.6609 -2.2860  2.3917
  216MOL0     H29134  -0.836   4.256   4.212  2.7429 -0.8672 -0.4342
  216MOL0     H29135  -0.857   4.079   4.220 -1.7539  0.7068  1.5000
  216MOL0     H29136  -0.979   4.278   4.018  1.2057 -0.2241 -0.4742
  216MOL0     H29137  -1.000   4.106   4.011  1.7467  0.7682 -1.3533
  216MOL0     H29138  -1.197   4.210   4.114  1.5079 -1.8494 -0.1671
  216MOL0     H29139  -1.095   4.311   4.219 -2.4174 -0.1641  3.2007
  216MOL0     H29140  -1.050   4.120   4.357  2.8963 -0.9072 -1.5133
  216MOL0     H29141  -1.127   4.011   4.241  0.7154  2.0212 -1.2412
  216MOL0     H29142  -0.223   4.491   3.958 -0.9443 -0.0481  0.6883
  216MOL0     H29143   0.017   4.461   3.974  2.3012 -2.2588  0.7603
  216MOL0     H29144   0.273   4.111   4.141  0.6520 -3.9410  2.7589
  216MOL0     H29145   0.480   4.004   4.229  0.5069 -1.2884  0.1806
  216MOL0     H29146   2.135   5.085   4.318 -0.3910  0.5803 -1.6618
  216MOL0     H29147   2.355   5.159   4.236  1.7458 -1.6586  3.5281
  216MOL0     H29148   2.763   5.008   4.000 -2.6789 -0.8362  1.2991
  216MOL0     H29149   2.975   5.120   3.975 -0.2540 -0.8497 -0.3582
  216MOL0     H29150   3.216   5.104   4.349 -0.4552 -1.0657 -0.6577
  216MOL0     H29151   3.286   5.036   4.194 -1.4591 -0.8522 -0.5033
  216MOL0     H29152   3.327   5.315   4.330  1.8085 -0.2829  2.4731
  216MOL0     H29153   3.356   5.291   4.158  0.0244  0.7906  0.3113
  216MOL0     H29154   3.530   5.130   4.190  1.2529 -0.5590  0.3216
  216MOL0     H29155   3.461   5.097   4.350  1.1517  0.7395  1.4074
  216MOL0     H29156   3.557   5.315   4.440 -1.1343 -2.0626  0.8572
  216MOL0     H29157   3.609   5.357   4.269  2.4270  0.7985  0.5867
  216MOL0     H29158   3.892   5.115   4.440  0.2139 -0.5849 -1.8988
  216MOL0     H29159   2.996   5.142   4.415 -0.7139 -0.5196 -0.1821
  216MOL0     H29160   2.772   5.035   4.423  2.8592 -0.8883  1.7787
  217MOL0     O29161   0.839   3.425   7.690  0.0805 -0.5090 -0.0327
  217MOL0     C29162   0.783   3.414   7.575 -0.5056  0.3678 -0.9876
  217MOL0     O29163   0.656   3.450   7.552 -0.4415 -0.2159 -0.1095
  217MOL0     C29164   0.582   3.544   7.628 -0.3464  0.6321 -0.6354
  217MOL0     C29165   0.444   3.537   7.621 -0.4296  0.2537 -0.1702
  217MOL0     C29166   0.363   3.632   7.685 -0.7233 -0.1544  0.3888
  217MOL0     C29167   0.418   3.744   7.740 -0.3712 -0.0952  1.1282
  217MOL0     O29168   0.333   3.835   7.800  0.2594 -0.4634  0.1241
  217MOL0     C29169   0.382   3.932   7.895  0.4431 -0.0314  0.0907
  217MOL0     C29170   0.274   3.977   7.986  0.6216 -0.6325 -1.3709
  217MOL0     C29171   0.323   4.079   8.083  0.3012 -0.3978  0.4150
  217MOL0     C29172   0.352   4.211   8.018  0.0270 -0.2611 -1.0426
  217MOL0     C29173   0.416   4.312   8.126 -0.4778 -0.6025  1.1272
  217MOL0     C29174   0.564   4.284   8.156 -0.5895  0.2853 -0.2813
  217MOL0     C29175   0.625   4.406   8.231 -0.5076 -0.4077 -0.7210
  217MOL0     C29176   0.570   4.423   8.365  0.2114 -0.4303 -0.8628
  217MOL0     N29177   0.618   4.321   8.458 -0.3757  0.0996  0.4695
  217MOL0     C29178   0.694   4.343   8.567 -0.4513 -0.3416  0.2874
  217MOL0     C29179   0.715   4.220   8.618  1.0259 -0.0393 -0.6594
  217MOL0     C29180   0.787   4.189   8.752  0.5133  0.2533  0.5229
  217MOL0     C29181   0.694   4.200   8.870 -0.1374 -0.2401  0.6750
  217MOL0     C29182   0.654   4.064   8.915  0.2190  0.1869 -0.9047
  217MOL0     C29183   0.571   3.987   8.821  0.2922 -0.2897 -0.1902
  217MOL0     O29184   0.513   3.876   8.903 -0.2372  0.0120  0.2151
  217MOL0     C29185   0.404   3.819   8.839  0.5268  1.0013  0.0210
  217MOL0     C29186   0.422   3.701   8.762 -0.6690 -0.7056  0.9656
  217MOL0     C29187   0.310   3.638   8.709 -0.1209 -0.2060 -0.3236
  217MOL0     C29188   0.332   3.505   8.652  0.5940  0.8282 -0.0229
  217MOL0     C29189   0.178   3.692   8.724  0.2195  0.0427 -0.4294
  217MOL0     C29190   0.061   3.640   8.657  0.0379  1.0405  0.3377
  217MOL0     O29191   0.054   3.504   8.641  0.3756  0.5128 -0.2355
  217MOL0     C29192  -0.031   3.450   8.552  0.2383  0.0418 -1.1750
  217MOL0     C29193  -0.142   3.386   8.606 -0.3511 -0.2339 -0.2563
  217MOL0     C29194  -0.247   3.339   8.528 -0.5834 -0.1749  0.5835
  217MOL0     C29195  -0.240   3.347   8.390  1.2481 -1.1289 -0.7971
  217MOL0     O29196  -0.360   3.325   8.323 -0.0729 -0.3913 -0.1432
  217MOL0     C29197  -0.438   3.445   8.307  0.0032  0.7683 -0.4609
  217MOL0     C29198  -0.580   3.410   8.250 -0.5274 -0.0414 -0.1524
  217MOL0     C29199  -0.663   3.338   8.352 -0.2574  0.7998 -0.0926
  217MOL0     C29200  -0.812   3.363   8.317 -0.5573  0.4996  0.8486
  217MOL0     C29201  -0.903   3.283   8.406 -0.6948 -0.2210 -0.5579
  217MOL0     C29202  -1.042   3.334   8.397 -0.2009  0.4044 -0.0667
  217MOL0     C29203  -1.122   3.265   8.504  0.3268  0.5998  0.1191
  217MOL0     C29204  -1.265   3.238   8.458 -0.4207 -1.1045 -0.1084
  217MOL0    Cl29205  -1.349   3.388   8.428  0.1529 -0.3910 -0.2219
  217MOL0     C29206  -0.115   3.399   8.333  0.4314 -0.3301  0.2829
  217MOL0     C29207  -0.018   3.463   8.414 -0.6771  0.3455 -0.7748
  217MOL0     O29208  -0.026   3.718   8.628 -0.3831 -0.1288 -0.1018
  217MOL0     C29209   0.170   3.794   8.817  1.1550 -0.8992 -0.7521
  217MOL0     C29210   0.276   3.868   8.866 -0.8366  0.7368  0.5010
  217MOL0     N29211   0.640   4.131   8.546  0.3754  0.4952 -1.0399
  217MOL0     N29212   0.597   4.188   8.446 -0.0558 -0.5630 -0.5602
  217MOL0     C29213   0.562   3.757   7.753 -0.3320 -0.4498 -0.1237
  217MOL0     C29214   0.641   3.652   7.700 -0.7368 -0.8015 -0.4498
  217MOL0     C29215   0.869   3.369   7.469  0.8291 -0.4183 -0.0715
  217MOL0     C29216   0.995   3.323   7.494 -0.5828 -0.5553 -0.2411
  217MOL0     C29217   1.092   3.292   7.397  0.5523 -0.1224  0.4802
  217MOL0     C29218   1.042   3.283   7.266  0.5728 -0.0079 -0.0428
  217MOL0     O29219   1.112   3.232   7.152  0.2119 -0.0254  0.4092
  217MOL0     C29220   1.198   3.114   7.173  0.2310  0.0989  0.6589
  217MOL0     C29221   1.299   3.093   7.055  0.1155  0.2179 -0.0774
  217MOL0     C29222   1.249   3.141   6.921  0.0628 -0.0672 -0.2414
  217MOL0     C29223   1.364   3.140   6.815 -0.2791  0.8155  0.5756
  217MOL0     C29224   1.446   3.260   6.812  0.3991  0.1010 -1.3786
  217MOL0     C29225   1.500   3.369   6.818 -0.1614 -0.5963  0.6326
  217MOL0     C29226   0.916   3.335   7.241 -0.0818  0.0850  0.4013
  217MOL0     C29227   0.827   3.379   7.338 -0.2767  0.3260 -0.1374
  217MOL0     H29228   0.395   3.457   7.567 -2.2488  0.3369  1.2703
  217MOL0     H29229   0.255   3.622   7.684 -0.8153  0.6598 -0.8917
  217MOL0     H29230   0.464   3.890   7.953  0.2600  0.7008  0.9022
  217MOL0     H29231   0.424   4.019   7.844 -1.0871  1.3592  1.1107
  217MOL0     H29232   0.194   4.022   7.927 -1.5466 -1.2393  0.9131
  217MOL0     H29233   0.234   3.894   8.045  3.6289 -1.0417  0.3193
  217MOL0     H29234   0.242   4.096   8.154 -1.0376  0.4517 -1.2567
  217MOL0     H29235   0.415   4.041   8.127  0.8916  1.4389  0.8338
  217MOL0     H29236   0.424   4.215   7.936  0.8201  0.9748 -0.3082
  217MOL0     H29237   0.258   4.248   7.975  1.3326  3.1003 -1.2904
  217MOL0     H29238   0.390   4.414   8.095  1.5659 -0.1695  0.7236
  217MOL0     H29239   0.354   4.296   8.215 -1.2017 -0.8389  0.5970
  217MOL0     H29240   0.563   4.192   8.215  0.2244  0.9218  0.7730
  217MOL0     H29241   0.624   4.275   8.065  0.5902  2.7399  0.1450
  217MOL0     H29242   0.734   4.397   8.236 -0.2820  1.9775 -0.0919
  217MOL0     H29243   0.601   4.493   8.170 -2.1488  2.8078  3.9316
  217MOL0     H29244   0.460   4.422   8.367  0.2104  0.2469  0.8930
  217MOL0     H29245   0.612   4.517   8.403  1.7805 -0.8774 -1.4156
  217MOL0     H29246   0.721   4.445   8.594  2.1414  0.0326 -3.0885
  217MOL0     H29247   0.826   4.087   8.741  0.9363  0.0012  3.3658
  217MOL0     H29248   0.869   4.258   8.771 -0.7162  1.9542 -0.1663
  217MOL0     H29249   0.605   4.261   8.856 -0.0777  0.0158  1.3506
  217MOL0     H29250   0.747   4.250   8.952 -1.5074  1.6932  0.4563
  217MOL0     H29251   0.590   4.073   9.003  2.0972 -0.4347  0.6166
  217MOL0     H29252   0.736   3.998   8.945 -0.2455  0.4837  1.1448
  217MOL0     H29253   0.622   3.946   8.733 -2.9702 -2.1435 -1.3741
  217MOL0     H29254   0.483   4.041   8.784  0.0852  1.9960  3.2227
  217MOL0     H29255   0.524   3.664   8.750 -0.3604  0.5771 -1.0877
  217MOL0     H29256   0.433   3.466   8.642 -0.6004 -2.7636  0.1696
  217MOL0     H29257   0.271   3.432   8.706 -0.1545  2.1647  0.9920
  217MOL0     H29258   0.294   3.493   8.550  0.5690  0.2306  0.0471
  217MOL0     H29259  -0.157   3.388   8.713 -1.5311 -1.3521 -0.3812
  217MOL0     H29260  -0.331   3.304   8.587 -0.6407 -0.4032  0.3681
  217MOL0     H29261  -0.452   3.501   8.400 -2.2926 -0.5419  0.0804
  217MOL0     H29262  -0.386   3.510   8.236 -2.2050  1.5494 -1.4543
  217MOL0     H29263  -0.621   3.510   8.235 -0.2016  0.8306  3.7357
  217MOL0     H29264  -0.562   3.351   8.159 -0.6409  0.4798 -0.5150
  217MOL0     H29265  -0.636   3.375   8.451  2.8336 -1.2543 -0.0151
  217MOL0     H29266  -0.634   3.233   8.343 -3.7142 -0.2743 -0.1989
  217MOL0     H29267  -0.838   3.468   8.334  0.8321  0.7503  1.5757
  217MOL0     H29268  -0.828   3.345   8.210 -2.2636  1.4326  0.9268
  217MOL0     H29269  -0.863   3.289   8.508 -2.3525 -0.2426  0.1279
  217MOL0     H29270  -0.919   3.178   8.378 -1.9131 -0.6051  1.3630
  217MOL0     H29271  -1.049   3.441   8.421  0.2111  0.4733 -0.2319
  217MOL0     H29272  -1.076   3.327   8.293  2.6625  0.4961 -1.1193
  217MOL0     H29273  -1.128   3.316   8.601  0.6333  2.7320 -0.9339
  217MOL0     H29274  -1.081   3.166   8.527  0.8271  1.0052  1.0345
  217MOL0     H29275  -1.311   3.182   8.540 -1.3609 -1.1722 -0.6708
  217MOL0     H29276  -1.276   3.181   8.365  1.0283  0.2478 -1.1599
  217MOL0     H29277  -0.118   3.399   8.224 -0.7027 -2.8353  0.2305
  217MOL0     H29278   0.067   3.516   8.373  0.5735  0.3451  1.6564
  217MOL0     H29279   0.075   3.841   8.840  2.2689  0.4988  1.4184
  217MOL0     H29280   0.250   3.949   8.934 -0.8251  1.3610 -0.2197
  217MOL0     H29281   0.613   3.848   7.782 -0.5879  0.3986 -2.1278
  217MOL0     H29282   0.750   3.648   7.703 -0.7497 -2.0192 -1.0157
  217MOL0     H29283   1.032   3.306   7.595  2.1684  2.6158 -0.5350
  217MOL0     H29284   1.192   3.280   7.438 -0.1358 -0.0843  2.2827
  217MOL0     H29285   1.258   3.117   7.265  0.5335 -1.7251  0.5428
  217MOL0     H29286   1.131   3.029   7.187 -1.8747  1.2922 -1.4436
  217MOL0     H29287   1.341   2.993   7.055  1.7098  0.7850  2.8630
  217MOL0     H29288   1.385   3.159   7.069  0.1358  0.1578  0.0837
  217MOL0     H29289   1.225   3.247   6.932 -0.5123 -0.4766  3.7419
  217MOL0     H29290   1.156   3.100   6.881  0.0884 -0.3713  0.0163
  217MOL0     H29291   1.319   3.136   6.715 -0.7460 -0.2264  0.8163
  217MOL0     H29292   1.428   3.052   6.818 -2.4724 -0.9188 -0.4497
  217MOL0     H29293   1.554   3.460   6.803 -0.8666 -0.3845 -0.7940
  217MOL0     H29294   0.896   3.354   7.136 -1.4852  2.4708  1.0061
  217MOL0     H29295   0.738   3.436   7.315 -2.8230 -2.7210  1.2831
  218MOL0     O29296   3.302   5.329   0.753 -0.8041  0.8363  0.0055
  218MOL0     C29297   3.394   5.411   0.771  0.9435  0.5194 -0.9469
  218MOL0     O29298   3.386   5.531   0.835  0.1299 -0.4108  0.1125
  218MOL0     C29299   3.270   5.566   0.903 -0.2527 -0.9242  0.2804
  218MOL0     C29300   3.157   5.598   0.829 -0.0391 -0.3141  0.2083
  218MOL0     C29301   3.027   5.630   0.892 -0.4719 -0.0594  0.3177
  218MOL0     C29302   3.042   5.643   1.037 -0.4020  0.3795 -0.5231
  218MOL0     O29303   2.939   5.676   1.114 -0.0355  0.3722 -0.6019
  218MOL0     C29304   2.813   5.690   1.051 -0.3408  0.3386  0.3656
  218MOL0     C29305   2.736   5.781   1.145  0.3145 -0.0528  0.3093
  218MOL0     C29306   2.585   5.776   1.118 -1.2734 -0.5843  0.1316
  218MOL0     C29307   2.504   5.875   1.201  0.0651  0.3078  0.3322
  218MOL0     C29308   2.369   5.915   1.135  0.3329  0.1419 -0.0862
  218MOL0     C29309   2.280   6.003   1.221  0.4467  0.3560  0.0354
  218MOL0     C29310   2.131   5.995   1.185  0.2455 -0.7114 -1.1142
  218MOL0     C29311   2.045   6.091   1.274  0.1563  0.3010 -0.5399
  218MOL0     N29312   1.912   6.104   1.219 -0.2832  0.4665 -0.7576
  218MOL0     C29313   1.797   6.025   1.243 -0.1403  0.1561  0.9700
  218MOL0     C29314   1.697   6.086   1.179 -0.1144 -0.5285  0.5160
  218MOL0     C29315   1.555   6.043   1.168 -0.1268  0.7581  0.3636
  218MOL0     C29316   1.490   5.986   1.297  0.1630 -0.0643  0.0353
  218MOL0     C29317   1.339   5.971   1.302 -0.2980  0.9028  0.1563
  218MOL0     C29318   1.277   5.905   1.170  0.5856 -0.1705 -0.8025
  218MOL0     O29319   1.140   5.877   1.209  0.2621 -0.3353 -0.4774
  218MOL0     C29320   1.041   5.945   1.138  0.0129  0.0007  0.0128
  218MOL0     C29321   0.941   5.860   1.083 -0.2325 -0.4052  0.4395
  218MOL0     C29322   0.845   5.914   1.000 -0.3324  0.6398  0.1316
  218MOL0     C29323   0.738   5.811   0.951  0.4564  0.5243 -0.1965
  218MOL0     C29324   0.830   6.050   0.982  0.1112  0.6491 -0.9946
  218MOL0     C29325   0.731   6.117   0.894 -0.1866 -0.0287  0.3332
  218MOL0     O29326   0.713   6.249   0.914  0.3530 -0.4342  0.2423
  218MOL0     C29327   0.626   6.315   0.828  1.2571  0.5927  0.1310
  218MOL0     C29328   0.652   6.321   0.691 -0.0428 -0.5487 -0.0377
  218MOL0     C29329   0.560   6.370   0.601 -0.1047 -0.3328 -0.5536
  218MOL0     C29330   0.444   6.428   0.652  0.7063 -1.0104 -0.4127
  218MOL0     O29331   0.364   6.498   0.568  0.0694 -0.9592 -0.6955
  218MOL0     C29332   0.226   6.456   0.568 -1.5985  0.2442 -0.2003
  218MOL0     C29333   0.178   6.381   0.436 -0.3790  1.2756  0.2292
  218MOL0     C29334   0.024   6.362   0.431 -0.6204 -0.5949 -0.9743
  218MOL0     C29335  -0.038   6.499   0.394  0.1419 -0.0050  0.9544
  218MOL0     C29336  -0.193   6.489   0.351 -0.1653 -0.2529  0.1315
  218MOL0     C29337  -0.273   6.469   0.488 -0.0031  0.4727 -0.1550
  218MOL0     C29338  -0.427   6.468   0.461 -0.1121  0.4201 -0.4264
  218MOL0     C29339  -0.504   6.477   0.593 -0.4356  0.6900  0.2924
  218MOL0    Cl29340  -0.675   6.439   0.570 -0.2799  0.5291  0.2507
  218MOL0     C29341   0.425   6.441   0.788  0.6875  0.6266 -0.4636
  218MOL0     C29342   0.506   6.368   0.875  0.1425 -0.1359  0.1336
  218MOL0     O29343   0.681   6.048   0.802  0.2119  0.0432  0.6221
  218MOL0     C29344   0.927   6.125   1.042 -1.1359 -0.6938 -0.7534
  218MOL0     C29345   1.033   6.079   1.105  0.1036 -0.1008  0.6090
  218MOL0     N29346   1.752   6.198   1.121  0.2466 -0.2626  0.5012
  218MOL0     N29347   1.878   6.211   1.149  0.2452  0.2766  0.6998
  218MOL0     C29348   3.163   5.617   1.101 -1.1753 -0.4853 -0.8957
  218MOL0     C29349   3.278   5.579   1.043  0.0953 -0.0719  0.2345
  218MOL0     C29350   3.532   5.363   0.735 -0.7162  1.0845 -0.0339
  218MOL0     C29351   3.551   5.248   0.663 -0.3366  0.0019  0.4401
  218MOL0     C29352   3.678   5.196   0.647 -0.1397 -0.4791 -0.0535
  218MOL0     C29353   3.793   5.265   0.700  0.2787 -0.1553  0.8105
  218MOL0     O29354   3.924   5.214   0.683  0.9542  0.0028 -0.3471
  218MOL0     C29355   3.943   5.081   0.637 -0.7912 -0.1873  0.1531
  218MOL0     C29356   4.094   5.042   0.647  0.5591  0.5624  0.2031
  218MOL0     C29357   4.126   4.984   0.790 -0.4681  0.0002 -0.3233
  218MOL0     C29358   4.217   4.867   0.795  0.7673 -0.0639 -0.1150
  218MOL0     C29359   4.357   4.907   0.783  0.0536  0.2595  0.4855
  218MOL0     C29360   4.476   4.924   0.766  0.2784  0.2655  0.7118
  218MOL0     C29361   3.772   5.386   0.761 -0.4187  0.7678  0.8198
  218MOL0     C29362   3.639   5.436   0.780  0.4414  0.0918  0.0626
  218MOL0     H29363   3.151   5.582   0.722 -4.0345 -0.8761  0.3551
  218MOL0     H29364   2.941   5.639   0.826 -0.1530  0.7908 -0.0059
  218MOL0     H29365   2.817   5.731   0.949 -2.4038  2.3908  1.0142
  218MOL0     H29366   2.779   5.586   1.052  1.9521 -0.4735  2.0125
  218MOL0     H29367   2.762   5.748   1.246 -0.0772  0.2503  0.5088
  218MOL0     H29368   2.781   5.879   1.129 -0.1883 -0.1502 -1.9669
  218MOL0     H29369   2.588   5.806   1.013 -0.4834 -6.3804 -1.9090
  218MOL0     H29370   2.552   5.674   1.140 -0.4084 -1.0397 -0.6078
  218MOL0     H29371   2.481   5.828   1.297  1.3505  0.3582  0.6902
  218MOL0     H29372   2.564   5.963   1.224  1.2940 -0.9186  2.1608
  218MOL0     H29373   2.375   5.975   1.044 -2.8408 -1.1443 -1.2923
  218MOL0     H29374   2.320   5.819   1.116  0.7111  0.0426 -0.5852
  218MOL0     H29375   2.304   5.978   1.325  0.9338 -0.8252 -0.3440
  218MOL0     H29376   2.314   6.106   1.205 -1.6644  1.2319  0.8508
  218MOL0     H29377   2.136   6.030   1.081 -0.1783  2.0238 -0.3182
  218MOL0     H29378   2.107   5.889   1.190  0.4203 -0.7224 -0.4423
  218MOL0     H29379   2.097   6.187   1.274  1.0486 -0.1498  1.2342
  218MOL0     H29380   2.035   6.050   1.375 -3.5411  0.2275 -0.7889
  218MOL0     H29381   1.802   5.927   1.290  0.1980 -0.7981 -0.9439
  218MOL0     H29382   1.497   6.124   1.124 -4.1955 -2.1389 -0.1014
  218MOL0     H29383   1.551   5.960   1.098 -0.5951  0.0122  1.2603
  218MOL0     H29384   1.514   6.053   1.380  1.8492 -0.3879 -0.1578
  218MOL0     H29385   1.533   5.891   1.330 -0.4316 -0.0010  1.0586
  218MOL0     H29386   1.303   6.074   1.306 -0.1329  0.9346  0.9225
  218MOL0     H29387   1.306   5.929   1.397  0.5257  2.7835  1.3145
  218MOL0     H29388   1.332   5.813   1.149 -0.3392 -0.4442 -2.1158
  218MOL0     H29389   1.284   5.964   1.078  2.2148 -1.3828 -1.5064
  218MOL0     H29390   0.951   5.762   1.129 -0.4467 -0.3932  0.5088
  218MOL0     H29391   0.635   5.847   0.960  0.2520 -0.4862  2.2755
  218MOL0     H29392   0.752   5.800   0.843 -1.7702  1.2547 -0.6181
  218MOL0     H29393   0.747   5.714   1.001  0.3063  0.2679 -0.6653
  218MOL0     H29394   0.748   6.282   0.660  1.1898  1.7626  0.6435
  218MOL0     H29395   0.572   6.374   0.493 -1.2986  1.5486 -0.6600
  218MOL0     H29396   0.204   6.405   0.663 -0.3513 -1.7196 -0.9117
  218MOL0     H29397   0.180   6.555   0.579  1.3542  1.4306  3.9997
  218MOL0     H29398   0.212   6.429   0.344  0.2782  1.1012  0.3716
  218MOL0     H29399   0.216   6.278   0.437 -2.4879  0.1971 -4.6252
  218MOL0     H29400  -0.009   6.333   0.531 -1.1046  1.2656 -0.5500
  218MOL0     H29401  -0.004   6.283   0.361  0.6442 -2.3015  0.3551
  218MOL0     H29402  -0.023   6.580   0.465 -2.9436  0.9854  0.6439
  218MOL0     H29403   0.002   6.532   0.297 -1.6374  0.8713  0.4629
  218MOL0     H29404  -0.209   6.403   0.286 -0.3500  0.7294 -1.1617
  218MOL0     H29405  -0.232   6.579   0.302  1.0028 -0.9810 -2.2873
  218MOL0     H29406  -0.248   6.383   0.551 -0.9015 -0.4533 -1.0282
  218MOL0     H29407  -0.248   6.559   0.545  1.1868  0.2427 -0.2862
  218MOL0     H29408  -0.440   6.371   0.414  2.1895 -0.2373  0.1687
  218MOL0     H29409  -0.456   6.539   0.383  1.2300 -0.5165 -1.8372
  218MOL0     H29410  -0.489   6.578   0.631 -0.4965  1.9960 -2.8465
  218MOL0     H29411  -0.462   6.401   0.660 -3.3943 -1.1900  0.2235
  218MOL0     H29412   0.341   6.499   0.823  0.0902 -1.3380  1.5715
  218MOL0     H29413   0.493   6.373   0.982 -0.5588 -1.5114  0.1459
  218MOL0     H29414   0.937   6.233   1.033 -1.6575 -0.2954  2.4553
  218MOL0     H29415   1.100   6.145   1.160 -0.7366 -0.2926  1.9175
  218MOL0     H29416   3.155   5.629   1.209 -1.1510 -2.0998 -0.6850
  218MOL0     H29417   3.372   5.557   1.093 -1.1008 -1.8395  1.8338
  218MOL0     H29418   3.460   5.197   0.632 -1.8801  2.3615  0.7929
  218MOL0     H29419   3.693   5.100   0.600  1.8915 -1.8476  3.0334
  218MOL0     H29420   3.890   5.010   0.702  0.2334 -0.5246  0.6409
  218MOL0     H29421   3.920   5.071   0.531  0.7067 -2.0118 -0.0439
  218MOL0     H29422   4.162   5.125   0.627  0.5281  0.2470 -1.3576
  218MOL0     H29423   4.117   4.963   0.575  4.3361  0.8649  0.8824
  218MOL0     H29424   4.032   4.955   0.837  1.6094 -1.0872  3.6374
  218MOL0     H29425   4.164   5.071   0.845  1.1070  1.5068 -3.5399
  218MOL0     H29426   4.189   4.789   0.723 -3.3161  0.7695  0.3004
  218MOL0     H29427   4.203   4.826   0.895 -1.3182 -0.2880 -0.4545
  218MOL0     H29428   4.581   4.934   0.750 -0.1580  1.2573 -2.1162
  218MOL0     H29429   3.846   5.460   0.787 -1.9878  2.5408  0.4111
  218MOL0     H29430   3.624   5.539   0.811  0.1582  0.0638  0.0263
  219MOL0     O29431   5.195   9.754  10.207  0.4568 -0.3197  0.9820
  219MOL0     C29432   5.197   9.786  10.323  0.3374  0.2466  0.0684
  219MOL0     O29433   5.096   9.849  10.392  0.5423  0.3388 -1.0886
  219MOL0     C29434   5.005   9.935  10.335 -0.2893 -1.1529  0.2494
  219MOL0     C29435   5.031  10.018  10.224  0.3867 -0.3449 -0.0421
  219MOL0     C29436   4.928  10.110  10.179 -0.3620  0.4587  0.3455
  219MOL0     C29437   4.806  10.120  10.241  0.3631 -0.4417 -0.1907
  219MOL0     O29438   4.712  10.210  10.195  0.4979 -0.7458  0.1548
  219MOL0     C29439   4.565  10.194  10.178 -0.3912 -0.2245 -0.1838
  219MOL0     C29440   4.494  10.333  10.183  0.0828 -0.1097 -0.5166
  219MOL0     C29441   4.476  10.377  10.331 -0.7595 -0.0762  0.6372
  219MOL0     C29442   4.377  10.499  10.319  0.3647  0.5492 -0.2545
  219MOL0     C29443   4.373  10.571  10.450  0.1700  1.2133 -1.4492
  219MOL0     C29444   4.289  10.702  10.452 -0.0090  0.2602 -1.0476
  219MOL0     C29445   4.281  10.771  10.583 -0.0675  0.2450 -0.1176
  219MOL0     C29446   4.194  10.699  10.689 -0.6067  0.3329 -0.0482
  219MOL0     N29447   4.050  10.692  10.659  0.1862 -0.3081  0.4000
  219MOL0     C29448   3.970  10.806  10.677 -0.3708  0.4858 -1.2153
  219MOL0     C29449   3.844  10.754  10.659 -0.0946  0.1629  1.0238
  219MOL0     C29450   3.706  10.809  10.680 -0.4213 -0.0276 -0.7497
  219MOL0     C29451   3.657  10.799  10.828 -0.4239  0.9462 -0.7722
  219MOL0     C29452   3.560  10.682  10.843  0.4098  0.0643 -0.2838
  219MOL0     C29453   3.500  10.682  10.981  1.0853  0.4178  0.1298
  219MOL0     O29454   3.391  10.581  10.994  0.7792  0.1212  0.2639
  219MOL0     C29455   3.286  10.611  11.080  0.8325 -0.0437  0.5558
  219MOL0     C29456   3.272  10.706  11.174 -0.5070 -0.2745 -0.4001
  219MOL0     C29457   3.166  10.719  11.260 -0.4643 -0.5395 -0.0729
  219MOL0     C29458   3.174  10.829  11.365  0.1158  0.7358 -0.0465
  219MOL0     C29459   3.050  10.636  11.245  0.2951 -0.5900 -0.4952
  219MOL0     C29460   2.928  10.639  11.324  0.4269 -0.0422 -0.2215
  219MOL0     O29461   2.863  10.521  11.324 -0.6180 -0.7227 -0.2322
  219MOL0     C29462   2.770  10.481  11.422  0.4094 -0.2466 -0.3720
  219MOL0     C29463   2.691  10.372  11.393 -0.1814 -0.8794 -0.6792
  219MOL0     C29464   2.602  10.321  11.486 -0.2952 -0.5615  0.2223
  219MOL0     C29465   2.594  10.371  11.614  0.2230  0.1741 -0.1859
  219MOL0     O29466   2.493  10.308  11.682 -0.1874 -0.1864  0.1482
  219MOL0     C29467   2.467  10.337  11.813 -0.6726  0.0912  0.0519
  219MOL0     C29468   2.330  10.298  11.865  1.3197  0.0759 -0.8182
  219MOL0     C29469   2.218  10.377  11.801 -0.2780  0.3143 -0.5209
  219MOL0     C29470   2.086  10.326  11.845 -0.0423  0.3588 -0.6757
  219MOL0     C29471   1.964  10.408  11.801  0.4399 -0.1119 -0.2374
  219MOL0     C29472   1.847  10.318  11.790  0.5093  0.7634  1.0043
  219MOL0     C29473   1.711  10.387  11.763 -0.4448 -0.2925  0.4262
  219MOL0     C29474   1.604  10.287  11.750  0.3736 -0.6002  0.2488
  219MOL0    Cl29475   1.451  10.379  11.775 -0.0128 -0.1826 -0.5684
  219MOL0     C29476   2.677  10.475  11.652 -0.3062 -0.2138  0.1152
  219MOL0     C29477   2.763  10.534  11.553 -0.1322  0.6606 -0.0466
  219MOL0     O29478   2.900  10.737  11.397  0.1748  0.7845 -0.0856
  219MOL0     C29479   3.064  10.530  11.149 -0.1093 -0.6619 -0.6662
  219MOL0     C29480   3.175  10.521  11.066 -0.0734 -0.4773 -0.8717
  219MOL0     N29481   3.866  10.621  10.615  0.2902  0.1836 -0.2243
  219MOL0     N29482   3.982  10.590  10.607  0.2384  0.2530  0.7207
  219MOL0     C29483   4.785  10.042  10.352  0.7150  0.0938  0.0674
  219MOL0     C29484   4.876   9.945  10.394 -0.4403  0.0820  0.4756
  219MOL0     C29485   5.325   9.765  10.397 -0.9143 -0.8209 -0.7668
  219MOL0     C29486   5.444   9.710  10.334  0.2247  0.2325  0.3077
  219MOL0     C29487   5.567   9.710  10.391 -0.1881  0.1545 -0.6037
  219MOL0     C29488   5.577   9.746  10.525 -1.2541  0.6383  0.0382
  219MOL0     O29489   5.703   9.741  10.585  0.3561  0.2259  0.1884
  219MOL0     C29490   5.712   9.685  10.718 -0.6593 -0.3567 -0.1207
  219MOL0     C29491   5.758   9.798  10.809  0.3776 -0.3122 -0.0908
  219MOL0     C29492   5.908   9.843  10.793  0.2038  0.0288  0.5635
  219MOL0     C29493   6.011   9.756  10.855 -0.1490  0.5760  0.1621
  219MOL0     C29494   6.018   9.635  10.775  0.0777  1.0470 -0.3987
  219MOL0     C29495   6.030   9.531  10.710 -0.6866  0.6660 -1.0337
  219MOL0     C29496   5.461   9.777  10.596  0.0905  0.3874  0.1987
  219MOL0     C29497   5.338   9.792  10.534  0.0564 -0.2100 -0.1499
  219MOL0     H29498   5.128  10.015  10.173  0.3328 -1.9431 -0.0983
  219MOL0     H29499   4.943  10.178  10.096  0.2718  0.0799  0.1448
  219MOL0     H29500   4.545  10.148  10.081  0.5411 -1.7909  0.3405
  219MOL0     H29501   4.521  10.124  10.249 -1.1822  0.5580  0.1183
  219MOL0     H29502   4.557  10.407  10.133  2.8671 -0.3210  2.3587
  219MOL0     H29503   4.396  10.311  10.140 -0.1807 -1.2507  0.5878
  219MOL0     H29504   4.433  10.293  10.387 -2.8117  1.8516  2.1359
  219MOL0     H29505   4.573  10.405  10.374 -0.9814  0.9535  0.5034
  219MOL0     H29506   4.406  10.563  10.236  0.7847 -0.0282 -0.5638
  219MOL0     H29507   4.285  10.449  10.286  0.0072  0.9491  0.1292
  219MOL0     H29508   4.330  10.495  10.515  1.4520 -1.4712 -3.5730
  219MOL0     H29509   4.474  10.594  10.487 -0.6810  0.9909  1.2818
  219MOL0     H29510   4.343  10.774  10.391  1.1568  0.5879  0.3014
  219MOL0     H29511   4.193  10.666  10.413 -0.9500  1.7578 -0.2037
  219MOL0     H29512   4.383  10.786  10.620 -0.6003  0.9744  1.1108
  219MOL0     H29513   4.240  10.872  10.572 -0.5884 -0.0248 -0.7552
  219MOL0     H29514   4.198  10.750  10.786  0.7102 -1.4213  0.8732
  219MOL0     H29515   4.232  10.597  10.700  0.0275  0.5075 -0.5203
  219MOL0     H29516   3.986  10.906  10.716  1.4742 -0.0055 -0.6277
  219MOL0     H29517   3.713  10.916  10.659 -0.7569  0.0876 -0.2928
  219MOL0     H29518   3.634  10.769  10.608 -0.8018 -1.0102  0.1552
  219MOL0     H29519   3.620  10.895  10.865  1.3382  1.4448 -0.2005
  219MOL0     H29520   3.746  10.784  10.890  0.7252  4.0263 -1.4947
  219MOL0     H29521   3.608  10.586  10.828 -0.1141  0.0506 -2.2918
  219MOL0     H29522   3.481  10.696  10.768  0.3051 -0.1207 -0.2071
  219MOL0     H29523   3.464  10.783  11.000 -1.2723 -0.3948  0.3877
  219MOL0     H29524   3.579  10.657  11.053 -0.7347  0.8992  2.4164
  219MOL0     H29525   3.362  10.763  11.194  1.0482 -3.0235  0.8930
  219MOL0     H29526   3.188  10.782  11.463 -2.0313 -0.9572 -0.4504
  219MOL0     H29527   3.256  10.895  11.339  2.4883 -1.9869  0.0308
  219MOL0     H29528   3.083  10.888  11.353 -2.2871 -2.3379  1.4369
  219MOL0     H29529   2.691  10.315  11.301 -0.5375 -2.9691  0.5453
  219MOL0     H29530   2.550  10.231  11.454 -0.3143 -0.8706  1.0963
  219MOL0     H29531   2.553  10.295  11.866 -1.7586 -0.3393  1.5655
  219MOL0     H29532   2.467  10.446  11.808 -1.4787  0.0310 -2.8136
  219MOL0     H29533   2.315  10.196  11.827 -1.5382  0.2500 -0.4153
  219MOL0     H29534   2.332  10.301  11.974  0.6556  0.3457 -0.8081
  219MOL0     H29535   2.235  10.358  11.695  4.3136 -1.3975  0.2978
  219MOL0     H29536   2.229  10.484  11.820 -0.5620  0.2371  0.1137
  219MOL0     H29537   2.071  10.226  11.805 -1.5395  0.8881 -1.5047
  219MOL0     H29538   2.089  10.318  11.954 -1.8872 -3.3243 -0.7660
  219MOL0     H29539   1.984  10.444  11.700  0.0179  2.0317  0.3923
  219MOL0     H29540   1.936  10.495  11.862 -0.2676  2.0132 -3.3751
  219MOL0     H29541   1.857  10.243  11.711  1.0355  1.0922  0.7582
  219MOL0     H29542   1.824  10.260  11.880  1.8545  1.5901  1.9177
  219MOL0     H29543   1.705  10.442  11.669  0.8363 -0.5264  0.1868
  219MOL0     H29544   1.693  10.458  11.845 -0.1892 -0.9298  1.0355
  219MOL0     H29545   1.609  10.220  11.836  0.8727 -2.8231 -1.4426
  219MOL0     H29546   1.622  10.235  11.656  1.9663  2.6032 -1.3842
  219MOL0     H29547   2.666  10.520  11.750  0.3691 -2.4369  1.2782
  219MOL0     H29548   2.831  10.615  11.580 -1.3908  3.1835 -3.6804
  219MOL0     H29549   2.981  10.461  11.141  0.3213 -1.1814 -0.7077
  219MOL0     H29550   3.181  10.459  10.977 -2.3515  0.3395 -1.6640
  219MOL0     H29551   4.686  10.053  10.396  0.1900  2.9521 -1.5760
  219MOL0     H29552   4.865   9.880  10.481 -0.4785 -2.5171 -1.3416
  219MOL0     H29553   5.440   9.683  10.229  0.3896 -2.0267  0.8332
  219MOL0     H29554   5.657   9.682  10.337 -0.8634  1.3559 -2.4182
  219MOL0     H29555   5.616   9.655  10.761 -0.5527  1.6828  1.6787
  219MOL0     H29556   5.774   9.596  10.730 -0.8174 -0.2321  2.1258
  219MOL0     H29557   5.729   9.771  10.911  1.5055  0.2917  0.4129
  219MOL0     H29558   5.693   9.882  10.781 -2.8605 -2.6368 -0.0387
  219MOL0     H29559   5.924   9.946  10.825 -2.4067  1.4658 -2.1933
  219MOL0     H29560   5.931   9.852  10.686 -0.2144 -1.5122  0.3113
  219MOL0     H29561   5.984   9.719  10.955 -1.9488  1.4669  0.0486
  219MOL0     H29562   6.100   9.818  10.838 -0.1749  0.7584  0.6839
  219MOL0     H29563   6.040   9.440  10.656  1.7615 -1.4067  2.4699
  219MOL0     H29564   5.469   9.796  10.702 -0.7369 -0.1231  0.3617
  219MOL0     H29565   5.258   9.839  10.591 -0.0110 -0.2531 -0.2092
  220MOL0     O29566   4.021   3.567   8.415  0.2744  0.0277 -0.0953
  220MOL0     C29567   4.043   3.605   8.298  0.0798  0.4094  0.1875
  220MOL0     O29568   3.949   3.620   8.195  0.2107  1.1893  0.1481
  220MOL0     C29569   3.817   3.585   8.199 -0.0396 -0.8320 -0.0586
  220MOL0     C29570   3.734   3.612   8.310  0.3768 -0.4698 -1.1568
  220MOL0     C29571   3.597   3.588   8.296  0.2578  0.3866 -0.7798
  220MOL0     C29572   3.542   3.522   8.182  0.2671 -0.6051 -0.0327
  220MOL0     O29573   3.409   3.508   8.166  0.2944  0.0655 -0.5440
  220MOL0     C29574   3.331   3.443   8.264 -0.3581 -0.1915  1.0989
  220MOL0     C29575   3.249   3.543   8.344  0.0294  0.5360 -0.1296
  220MOL0     C29576   3.125   3.613   8.284  0.0410  1.4894 -0.1451
  220MOL0     C29577   3.013   3.507   8.250  0.3711  0.0195  0.6141
  220MOL0     C29578   2.895   3.565   8.179 -0.8414  0.3911  0.1671
  220MOL0     C29579   2.786   3.466   8.138  1.4510 -0.1805  0.4081
  220MOL0     C29580   2.696   3.526   8.031 -0.3945 -0.5518 -0.0533
  220MOL0     C29581   2.610   3.637   8.084 -0.2423  0.5168  0.0363
  220MOL0     N29582   2.522   3.609   8.203  0.1012 -0.1557  1.2502
  220MOL0     C29583   2.391   3.634   8.211 -0.0143  0.1259 -0.6195
  220MOL0     C29584   2.357   3.633   8.338  1.1828  0.0452  0.0190
  220MOL0     C29585   2.204   3.658   8.381 -0.1454 -1.0948  0.2243
  220MOL0     C29586   2.116   3.542   8.422  0.0851  0.1209  0.2102
  220MOL0     C29587   2.164   3.475   8.561  0.9294  0.8822  0.8361
  220MOL0     C29588   2.116   3.547   8.676  0.3396  0.0775 -0.6343
  220MOL0     O29589   1.974   3.548   8.683  0.3762 -0.2693 -0.4870
  220MOL0     C29590   1.922   3.597   8.798 -0.1711 -0.2787  0.5030
  220MOL0     C29591   1.794   3.561   8.817  0.1922 -0.4135  0.0081
  220MOL0     C29592   1.717   3.592   8.927  0.3310  0.5406 -0.3909
  220MOL0     C29593   1.582   3.530   8.934  0.1114  1.0715  0.7675
  220MOL0     C29594   1.774   3.667   9.034 -1.0569 -0.4166 -0.1774
  220MOL0     C29595   1.701   3.716   9.140 -0.2067 -0.0854 -0.5348
  220MOL0     O29596   1.596   3.789   9.109 -0.5939  0.2199 -0.8845
  220MOL0     C29597   1.518   3.836   9.203  0.3261  0.6126  0.3849
  220MOL0     C29598   1.392   3.783   9.213  0.7413 -0.0149 -0.6723
  220MOL0     C29599   1.294   3.836   9.307 -0.0842 -0.3705 -0.1760
  220MOL0     C29600   1.334   3.948   9.389  0.6616 -0.0939  0.1072
  220MOL0     O29601   1.235   4.010   9.460  0.5035  0.1518  0.0411
  220MOL0     C29602   1.276   4.115   9.546  0.3223  0.5231 -0.3090
  220MOL0     C29603   1.161   4.156   9.639  0.5544  0.0163 -0.4245
  220MOL0     C29604   1.075   4.047   9.706 -0.7841 -0.2093 -0.3214
  220MOL0     C29605   1.090   4.052   9.860 -0.2588 -0.3450 -0.1747
  220MOL0     C29606   1.022   3.931   9.927 -0.0254 -0.2244 -0.6645
  220MOL0     C29607   0.995   3.954  10.075  0.8288 -0.3592 -0.0169
  220MOL0     C29608   0.893   4.064  10.113 -0.5285  0.5491  0.1248
  220MOL0     C29609   0.838   4.068  10.252 -0.5373 -0.6202 -0.7398
  220MOL0    Cl29610   0.965   4.031  10.378 -0.1585  0.0305 -0.3169
  220MOL0     C29611   1.467   3.988   9.385 -0.6486 -0.5401  1.0059
  220MOL0     C29612   1.558   3.934   9.291 -0.1697  0.3625 -0.3966
  220MOL0     O29613   1.738   3.701   9.254 -1.2813 -0.1053  0.0473
  220MOL0     C29614   1.913   3.699   9.032 -0.4415  0.5280 -0.1572
  220MOL0     C29615   1.985   3.676   8.912  0.5597  1.2372  0.2944
  220MOL0     N29616   2.471   3.605   8.413 -0.1522 -0.5008  0.2184
  220MOL0     N29617   2.577   3.594   8.329 -0.4453 -0.9247  0.1149
  220MOL0     C29618   3.630   3.504   8.071  0.2760 -0.0497 -0.1826
  220MOL0     C29619   3.767   3.540   8.077  0.0555 -0.7697 -0.6506
  220MOL0     C29620   4.181   3.632   8.261  0.0206 -0.0138  0.0605
  220MOL0     C29621   4.209   3.721   8.154 -0.8202  0.7657  0.6553
  220MOL0     C29622   4.348   3.753   8.121  0.2958 -0.0370 -1.4387
  220MOL0     C29623   4.457   3.687   8.181 -0.4286 -0.3468  0.4529
  220MOL0     O29624   4.585   3.711   8.129 -0.0818 -0.2471 -0.2079
  220MOL0     C29625   4.686   3.625   8.170 -0.2953  0.5024 -0.4851
  220MOL0     C29626   4.827   3.664   8.122 -0.4405 -0.0213 -0.4238
  220MOL0     C29627   4.832   3.637   7.969 -1.0628 -0.4638 -0.0928
  220MOL0     C29628   4.967   3.666   7.910 -0.4974  0.1692  0.3819
  220MOL0     C29629   4.967   3.658   7.768 -0.2193 -0.6476 -0.7784
  220MOL0     C29630   4.963   3.656   7.648 -0.0940 -0.1017 -0.7930
  220MOL0     C29631   4.421   3.617   8.294  0.4440 -0.0306  0.1217
  220MOL0     C29632   4.290   3.588   8.336  0.0652  0.0367  0.5552
  220MOL0     H29633   3.780   3.664   8.393  1.3197  2.4203 -3.3003
  220MOL0     H29634   3.527   3.615   8.375  0.4193 -1.8554  0.1946
  220MOL0     H29635   3.268   3.370   8.212 -1.9838  2.2608 -0.6267
  220MOL0     H29636   3.405   3.397   8.330  2.9909  1.7552 -0.9917
  220MOL0     H29637   3.217   3.482   8.430  0.3575  1.8519  0.9588
  220MOL0     H29638   3.313   3.621   8.387 -1.6452  0.5024  2.7096
  220MOL0     H29639   3.084   3.687   8.353  2.2009  1.6543  1.0622
  220MOL0     H29640   3.162   3.660   8.193  2.2275 -0.7699 -0.5579
  220MOL0     H29641   3.060   3.432   8.186 -1.0785  0.6659 -1.2757
  220MOL0     H29642   2.988   3.457   8.344 -0.4491  0.9462  0.9071
  220MOL0     H29643   2.849   3.640   8.244 -0.1692  2.2594 -1.4308
  220MOL0     H29644   2.934   3.618   8.092 -0.7878 -3.0693 -2.1386
  220MOL0     H29645   2.829   3.380   8.086 -0.1146 -0.2754 -0.8337
  220MOL0     H29646   2.733   3.415   8.219  2.1605 -1.6269 -0.0189
  220MOL0     H29647   2.765   3.565   7.955  2.1878 -1.0903  1.8650
  220MOL0     H29648   2.640   3.445   7.984 -1.3361 -0.0945  0.2574
  220MOL0     H29649   2.547   3.671   8.002  0.0796  1.1460  0.0510
  220MOL0     H29650   2.675   3.719   8.114  3.2616 -0.9450 -2.8288
  220MOL0     H29651   2.327   3.666   8.129 -0.9570  2.7586  1.0421
  220MOL0     H29652   2.207   3.730   8.464 -4.1762 -1.5579  0.9484
  220MOL0     H29653   2.147   3.713   8.307 -1.8274  1.9403  3.4689
  220MOL0     H29654   2.103   3.466   8.345  1.5391  0.6073 -0.5525
  220MOL0     H29655   2.016   3.582   8.440  0.0108 -0.5396  1.3854
  220MOL0     H29656   2.272   3.464   8.575  1.0213  2.4148  1.4505
  220MOL0     H29657   2.132   3.370   8.573 -1.1053  1.6311  2.7564
  220MOL0     H29658   2.153   3.650   8.674  1.5778 -0.3633 -1.7738
  220MOL0     H29659   2.156   3.500   8.767 -1.1920  1.4180  0.8077
  220MOL0     H29660   1.756   3.492   8.743  0.7011 -0.3560 -0.3092
  220MOL0     H29661   1.589   3.423   8.914  0.9949  1.7476 -3.5484
  220MOL0     H29662   1.537   3.542   9.033  1.4963  0.3592  1.4984
  220MOL0     H29663   1.512   3.565   8.857 -0.0886 -2.1344 -0.6273
  220MOL0     H29664   1.367   3.702   9.145 -1.3326  1.4409 -1.7568
  220MOL0     H29665   1.191   3.803   9.301  0.5399 -2.1813 -1.5129
  220MOL0     H29666   1.354   4.085   9.617  1.2572  3.7889  0.2089
  220MOL0     H29667   1.309   4.207   9.496 -1.9126  1.2471 -0.5634
  220MOL0     H29668   1.189   4.225   9.719 -0.5275  3.1810 -2.5855
  220MOL0     H29669   1.089   4.215   9.581 -0.3683 -2.0727 -1.5222
  220MOL0     H29670   1.104   3.944   9.681  1.0368  0.2086 -0.0591
  220MOL0     H29671   0.969   4.058   9.683 -1.8174 -2.0166  2.8531
  220MOL0     H29672   1.196   4.058   9.890 -0.6365 -2.5930  1.9526
  220MOL0     H29673   1.036   4.140   9.894 -2.8209 -2.0893  0.5536
  220MOL0     H29674   1.097   3.851   9.924  0.3941  0.1701 -0.8385
  220MOL0     H29675   0.931   3.900   9.873  0.7588 -0.6231 -1.8065
  220MOL0     H29676   0.962   3.866  10.132 -0.2088  0.3761  0.5499
  220MOL0     H29677   1.090   3.977  10.124  0.8365 -0.5402  0.0545
  220MOL0     H29678   0.803   4.044  10.054 -0.0651  1.2968 -0.8687
  220MOL0     H29679   0.948   4.155  10.088  1.3346 -1.2321 -2.7536
  220MOL0     H29680   0.749   4.006  10.267 -2.0199  1.3700 -0.8680
  220MOL0     H29681   0.804   4.172  10.256  1.0194 -0.0461 -1.4993
  220MOL0     H29682   1.513   4.058   9.454  2.9238 -1.9459  0.3192
  220MOL0     H29683   1.657   3.979   9.292 -0.3966  0.9212 -1.3888
  220MOL0     H29684   1.961   3.755   9.111  0.1544  1.6564 -1.2756
  220MOL0     H29685   2.090   3.703   8.915  0.8745  0.8553 -2.9242
  220MOL0     H29686   3.591   3.465   7.978 -0.8202  0.6377 -0.0352
  220MOL0     H29687   3.830   3.525   7.989  0.2254 -1.2230 -0.4571
  220MOL0     H29688   4.133   3.763   8.089  1.1475  0.4199 -2.0128
  220MOL0     H29689   4.365   3.820   8.037 -0.0428 -0.2999 -1.7220
  220MOL0     H29690   4.698   3.623   8.279  3.5472  4.5569 -0.5699
  220MOL0     H29691   4.656   3.522   8.147 -1.3109  0.0181  2.4863
  220MOL0     H29692   4.900   3.600   8.173 -0.7606 -0.4369 -0.4812
  220MOL0     H29693   4.839   3.771   8.139 -0.6948  0.1692 -1.3653
  220MOL0     H29694   4.760   3.692   7.909 -0.9021  1.4493  1.3950
  220MOL0     H29695   4.821   3.530   7.947  1.7026 -0.5090 -1.7365
  220MOL0     H29696   5.039   3.596   7.953  1.7124  2.6302  0.9017
  220MOL0     H29697   5.003   3.763   7.943 -1.0503  0.9368 -1.1737
  220MOL0     H29698   4.973   3.649   7.542  2.0752  1.1007 -0.7124
  220MOL0     H29699   4.499   3.580   8.360  0.0951 -0.7633  0.1368
  220MOL0     H29700   4.267   3.513   8.411 -1.9907 -1.1976 -1.1812
  221MOL0     O29701   5.407   0.623   8.367  0.1353  0.5715  0.2749
  221MOL0     C29702   5.462   0.579   8.261  1.0369  1.4934 -0.5046
  221MOL0     O29703   5.386   0.536   8.157 -0.1667 -0.2409 -0.9161
  221MOL0     C29704   5.251   0.527   8.180  0.0968  1.0814  0.1676
  221MOL0     C29705   5.196   0.396   8.207  0.3526  1.0799  0.7118
  221MOL0     C29706   5.065   0.379   8.210 -0.6302 -0.3449  0.2641
  221MOL0     C29707   4.968   0.483   8.202 -0.6970  0.5762 -0.6542
  221MOL0     O29708   4.827   0.472   8.205  0.9637  0.2468 -0.2202
  221MOL0     C29709   4.776   0.341   8.182  0.9299  0.1192 -0.0924
  221MOL0     C29710   4.643   0.357   8.105 -0.2650  0.1999  0.3417
  221MOL0     C29711   4.533   0.408   8.196  0.1119 -0.4537  0.6930
  221MOL0     C29712   4.400   0.407   8.117  0.6162 -0.2008  0.1648
  221MOL0     C29713   4.279   0.444   8.203  0.3176 -0.4210  0.3946
  221MOL0     C29714   4.157   0.489   8.124  0.2009 -1.0642 -1.0758
  221MOL0     C29715   4.040   0.508   8.219 -0.3220 -1.0819 -0.5279
  221MOL0     C29716   3.905   0.527   8.143  0.1919  0.1811  0.1209
  221MOL0     N29717   3.794   0.534   8.241  0.6945 -0.3621  0.6049
  221MOL0     C29718   3.713   0.645   8.263  0.9447  0.0621  0.1848
  221MOL0     C29719   3.619   0.604   8.358  0.0089  0.4886  0.9209
  221MOL0     C29720   3.521   0.696   8.434 -0.7026  0.2920 -0.3581
  221MOL0     C29721   3.373   0.658   8.402  0.6155 -0.0240 -0.1706
  221MOL0     C29722   3.264   0.759   8.447  0.5306 -0.4554 -0.9595
  221MOL0     C29723   3.229   0.737   8.598 -0.8275 -0.4522  0.3698
  221MOL0     O29724   3.172   0.606   8.613  1.0068  0.3993 -0.6385
  221MOL0     C29725   3.034   0.589   8.643  0.1347 -0.7630  0.5197
  221MOL0     C29726   2.932   0.679   8.603  0.4567  0.8680 -0.3775
  221MOL0     C29727   2.793   0.657   8.609  0.3831  0.5100 -0.0227
  221MOL0     C29728   2.703   0.768   8.550 -0.3201 -0.0286  0.0315
  221MOL0     C29729   2.747   0.547   8.685 -0.8871  0.1398 -0.6197
  221MOL0     C29730   2.603   0.518   8.696  0.4203 -0.2745 -0.2314
  221MOL0     O29731   2.573   0.400   8.764 -0.1016 -0.0641  0.5518
  221MOL0     C29732   2.447   0.357   8.797  0.8483  0.0501  0.6204
  221MOL0     C29733   2.411   0.301   8.922 -0.4615 -0.1892  0.5493
  221MOL0     C29734   2.280   0.266   8.949 -0.4904  0.9212 -0.1345
  221MOL0     C29735   2.186   0.256   8.847 -0.2652  0.4132 -0.1454
  221MOL0     O29736   2.060   0.206   8.881 -0.5610  0.3041 -0.5978
  221MOL0     C29737   1.979   0.149   8.782 -0.4301 -0.3850 -0.3105
  221MOL0     C29738   1.844   0.089   8.843  0.3457  0.1656  0.7173
  221MOL0     C29739   1.770   0.025   8.727  0.8614 -0.3462  0.5941
  221MOL0     C29740   1.630   0.014   8.784  0.5631  1.0272  0.2172
  221MOL0     C29741   1.534  -0.073   8.688 -0.2861  0.1483  0.3076
  221MOL0     C29742   1.407  -0.125   8.762 -0.3321  0.5175  0.5501
  221MOL0     C29743   1.323  -0.005   8.807  0.2389 -0.1090  0.1935
  221MOL0     C29744   1.175  -0.049   8.803 -0.0108 -1.1328 -0.6734
  221MOL0    Cl29745   1.138  -0.165   8.935 -0.0811 -0.1887  0.3227
  221MOL0     C29746   2.222   0.286   8.719  0.7100 -0.5274 -0.4482
  221MOL0     C29747   2.348   0.353   8.694 -0.4997 -0.1181 -0.2521
  221MOL0     O29748   2.517   0.605   8.672 -0.8443 -0.1209 -0.6349
  221MOL0     C29749   2.846   0.454   8.724 -0.1599  0.3573 -0.3330
  221MOL0     C29750   2.984   0.477   8.705  0.5222 -0.5653 -0.2494
  221MOL0     N29751   3.638   0.468   8.383  0.1514  0.3199 -0.1620
  221MOL0     N29752   3.740   0.431   8.309  0.1769 -0.2234 -0.0902
  221MOL0     C29753   5.019   0.609   8.179  0.0554  0.2390  0.3487
  221MOL0     C29754   5.161   0.638   8.167  0.6054  0.1654  0.2857
  221MOL0     C29755   5.608   0.577   8.252 -0.0223  0.0456  0.7863
  221MOL0     C29756   5.695   0.615   8.355 -0.3845  0.9611  0.3330
  221MOL0     C29757   5.835   0.611   8.346  0.3187  0.4551  0.0308
  221MOL0     C29758   5.882   0.544   8.234 -0.6902  0.4095  0.2427
  221MOL0     O29759   6.014   0.545   8.215  0.4048  0.7182  0.9217
  221MOL0     C29760   6.077   0.413   8.234 -0.4221 -0.2316 -0.5644
  221MOL0     C29761   6.209   0.434   8.314  0.3689 -0.2604 -0.7413
  221MOL0     C29762   6.285   0.296   8.331  1.1980  0.0171  0.3593
  221MOL0     C29763   6.403   0.299   8.419  0.0785  0.0976  0.5261
  221MOL0     C29764   6.510   0.207   8.374  0.1271  0.6681  0.1282
  221MOL0     C29765   6.594   0.134   8.333  0.0705 -1.0145  0.3316
  221MOL0     C29766   5.796   0.501   8.132 -0.1018  0.5215  0.1274
  221MOL0     C29767   5.667   0.515   8.140  1.1463  0.3336  0.4356
  221MOL0     H29768   5.254   0.305   8.216 -0.5686  0.0110 -2.7013
  221MOL0     H29769   5.023   0.281   8.230 -0.1460 -1.1705 -2.4072
  221MOL0     H29770   4.845   0.273   8.132  0.2163 -1.2987  0.7869
  221MOL0     H29771   4.747   0.294   8.276 -0.7075  0.0956 -0.5653
  221MOL0     H29772   4.657   0.419   8.016  0.2603  0.6085  0.7014
  221MOL0     H29773   4.611   0.258   8.070 -0.1913  0.5015 -0.6116
  221MOL0     H29774   4.515   0.354   8.289 -0.7449  0.6678  1.2037
  221MOL0     H29775   4.562   0.513   8.206 -3.6899  1.0531 -1.8399
  221MOL0     H29776   4.411   0.479   8.036 -0.6697 -0.7378 -0.5227
  221MOL0     H29777   4.380   0.308   8.075  0.0032 -0.1264  0.2605
  221MOL0     H29778   4.254   0.361   8.270 -1.1821  1.2516  2.0181
  221MOL0     H29779   4.316   0.514   8.279  2.5622 -1.5296  0.4382
  221MOL0     H29780   4.189   0.584   8.080 -0.3452  0.2659  1.2148
  221MOL0     H29781   4.127   0.435   8.034 -0.8316  0.1634 -1.4917
  221MOL0     H29782   4.024   0.425   8.288 -1.6280  0.3286  0.9778
  221MOL0     H29783   4.056   0.581   8.299 -1.8527 -1.8870  0.5499
  221MOL0     H29784   3.880   0.442   8.079  0.1731  0.5916 -0.4241
  221MOL0     H29785   3.901   0.622   8.090 -3.0629  1.9912  3.1580
  221MOL0     H29786   3.728   0.741   8.215  5.6147 -1.7490 -2.6846
  221MOL0     H29787   3.559   0.692   8.536 -1.2612 -0.2037 -0.1667
  221MOL0     H29788   3.537   0.797   8.393  2.0258 -0.9319 -2.6871
  221MOL0     H29789   3.375   0.564   8.458  2.5482  0.0452 -0.0661
  221MOL0     H29790   3.352   0.646   8.295  0.5061  2.3421 -0.4694
  221MOL0     H29791   3.178   0.731   8.384  1.8294 -1.2164 -2.4569
  221MOL0     H29792   3.284   0.864   8.426  1.4794 -0.1304  1.3100
  221MOL0     H29793   3.164   0.813   8.644 -0.3165 -0.6467  1.4476
  221MOL0     H29794   3.325   0.747   8.649 -1.1422  2.9739  0.5683
  221MOL0     H29795   2.962   0.771   8.555  1.0892  0.2889 -1.1198
  221MOL0     H29796   2.638   0.808   8.629 -1.2210 -0.3742 -0.5242
  221MOL0     H29797   2.758   0.857   8.518  0.8409 -1.2953 -1.6574
  221MOL0     H29798   2.646   0.739   8.462  1.2235  0.0328 -1.0129
  221MOL0     H29799   2.478   0.301   9.007  1.0687  1.6174 -0.5770
  221MOL0     H29800   2.251   0.224   9.045 -0.2778 -0.3440 -0.6022
  221MOL0     H29801   1.948   0.232   8.718 -3.1289 -1.4658 -0.5254
  221MOL0     H29802   2.041   0.072   8.736  2.0163  0.7352  0.9210
  221MOL0     H29803   1.865   0.017   8.922 -0.2792  0.4583  1.1514
  221MOL0     H29804   1.781   0.164   8.890 -2.2365 -2.5384  1.8395
  221MOL0     H29805   1.816  -0.069   8.696  0.5236 -1.0910  2.2669
  221MOL0     H29806   1.761   0.095   8.644 -1.3284 -0.1263  0.9611
  221MOL0     H29807   1.634  -0.029   8.885  0.7888  1.0639  0.2258
  221MOL0     H29808   1.587   0.112   8.804 -1.7930 -0.3602  2.6524
  221MOL0     H29809   1.577  -0.163   8.642 -0.1002 -0.0881  0.9365
  221MOL0     H29810   1.502  -0.002   8.612  1.2435  0.0833 -0.4464
  221MOL0     H29811   1.359  -0.174   8.677 -0.6662  2.4840 -0.4549
  221MOL0     H29812   1.437  -0.194   8.842 -0.6777  0.5558  0.7105
  221MOL0     H29813   1.322   0.075   8.732 -0.0329  0.3351  0.6640
  221MOL0     H29814   1.363   0.034   8.901  0.7345  1.4433 -0.6132
  221MOL0     H29815   1.150  -0.100   8.709 -3.2283 -0.1098 -0.5122
  221MOL0     H29816   1.114   0.042   8.797  1.7953  0.1099 -1.1992
  221MOL0     H29817   2.144   0.274   8.645 -0.3901 -1.0785  0.7591
  221MOL0     H29818   2.374   0.386   8.594 -0.0030  0.5445  0.0906
  221MOL0     H29819   2.827   0.367   8.786  2.1545 -0.9587 -1.3325
  221MOL0     H29820   3.052   0.395   8.721  0.1873 -0.7155  0.4571
  221MOL0     H29821   4.948   0.690   8.184 -1.6897 -0.8161 -3.4362
  221MOL0     H29822   5.202   0.738   8.153  1.1042 -0.0235  0.4071
  221MOL0     H29823   5.646   0.644   8.447 -0.3461 -0.5431  0.8509
  221MOL0     H29824   5.896   0.658   8.421 -0.9712  1.1413  0.6868
  221MOL0     H29825   6.015   0.349   8.298  3.0977 -2.6861  0.6635
  221MOL0     H29826   6.107   0.359   8.144  0.9977  1.3742 -1.1219
  221MOL0     H29827   6.181   0.486   8.406 -0.7856  0.8240 -1.6656
  221MOL0     H29828   6.277   0.504   8.264  2.2163  0.4324  2.4877
  221MOL0     H29829   6.311   0.259   8.231  3.1437  0.5342  0.6153
  221MOL0     H29830   6.211   0.224   8.366 -1.6016  1.7599 -1.5681
  221MOL0     H29831   6.366   0.271   8.518  1.8172  0.3234  1.2715
  221MOL0     H29832   6.445   0.400   8.425 -2.0970  1.1062 -0.1840
  221MOL0     H29833   6.672   0.078   8.286 -0.2291 -0.8849 -0.3389
  221MOL0     H29834   5.840   0.466   8.039  2.0365 -2.1711  1.9743
  221MOL0     H29835   5.610   0.466   8.061 -0.4668  0.6605  1.3723
  222MOL0     O29836  11.139   3.551   0.103 -0.0828  0.3869  0.6267
  222MOL0     C29837  11.228   3.634   0.083 -0.0773  0.4501  0.5758
  222MOL0     O29838  11.229   3.732  -0.011  0.3620 -0.0915  0.1418
  222MOL0     C29839  11.107   3.787  -0.056  0.0946  0.1526  0.0754
  222MOL0     C29840  11.124   3.870  -0.166  0.1957 -0.5775 -0.1198
  222MOL0     C29841  11.020   3.943  -0.208  0.1527 -0.2145  0.0845
  222MOL0     C29842  10.892   3.928  -0.146  0.1778  0.6761 -0.3342
  222MOL0     O29843  10.785   3.992  -0.199  0.2209 -0.2932  0.0226
  222MOL0     C29844  10.644   3.943  -0.175 -0.3679  0.5896  0.1690
  222MOL0     C29845  10.538   4.048  -0.209 -0.1726  0.4236 -0.1485
  222MOL0     C29846  10.561   4.102  -0.354  0.1554 -0.3069  0.1919
  222MOL0     C29847  10.464   4.218  -0.396  0.0839  0.1680  0.2918
  222MOL0     C29848  10.316   4.178  -0.378 -0.3260 -0.4673  0.2947
  222MOL0     C29849  10.277   4.058  -0.464 -0.4289 -0.8001  0.7252
  222MOL0     C29850  10.123   4.034  -0.464  0.4221 -0.1197  1.4713
  222MOL0     C29851  10.093   3.907  -0.550 -0.3194  0.3842  0.4019
  222MOL0     N29852   9.956   3.904  -0.600  0.6433 -0.1992 -0.5668
  222MOL0     C29853   9.911   3.951  -0.724 -0.8522 -0.1692 -0.0620
  222MOL0     C29854   9.775   3.942  -0.722 -0.5561 -0.5704 -0.1640
  222MOL0     C29855   9.689   3.988  -0.839 -1.3821 -0.2235 -0.3606
  222MOL0     C29856   9.550   4.038  -0.790 -0.2599  0.2741  1.2011
  222MOL0     C29857   9.550   4.171  -0.703  0.1735 -0.4164  0.6958
  222MOL0     C29858   9.608   4.286  -0.786 -0.2685  0.0783 -0.1086
  222MOL0     O29859   9.591   4.413  -0.732 -0.2617 -0.0331  0.2910
  222MOL0     C29860   9.678   4.437  -0.625  0.3336 -0.5239  0.2166
  222MOL0     C29861   9.808   4.472  -0.643  0.0890  0.1170  0.0787
  222MOL0     C29862   9.908   4.478  -0.551  0.0274  0.9026  0.6617
  222MOL0     C29863  10.054   4.502  -0.589  0.0464 -0.3850  0.6519
  222MOL0     C29864   9.872   4.463  -0.417  0.3470  0.4205  0.5143
  222MOL0     C29865   9.956   4.465  -0.288 -0.1036 -0.7334  0.0998
  222MOL0     O29866   9.894   4.441  -0.169  0.1497 -0.1751  0.0393
  222MOL0     C29867   9.976   4.418  -0.061  1.2782  0.1669 -0.2004
  222MOL0     C29868   9.981   4.290  -0.001 -0.3130 -0.3642  0.0708
  222MOL0     C29869  10.065   4.270   0.111 -0.7021 -0.3603 -0.2432
  222MOL0     C29870  10.130   4.378   0.167  0.2615 -0.0864  0.1837
  222MOL0     O29871  10.200   4.350   0.286 -0.2012 -0.3592  0.3040
  222MOL0     C29872  10.274   4.466   0.340  0.1050 -0.5139 -0.7291
  222MOL0     C29873  10.377   4.416   0.440 -0.1726  0.6522 -0.8180
  222MOL0     C29874  10.439   4.531   0.512 -0.2648 -0.1583 -0.1108
  222MOL0     C29875  10.528   4.474   0.625  0.4291  0.1765  0.8637
  222MOL0     C29876  10.592   4.592   0.714 -0.1931  0.3180  0.2496
  222MOL0     C29877  10.680   4.520   0.813  0.5100  0.5747  0.2492
  222MOL0     C29878  10.731   4.615   0.918  0.0594 -0.0904 -0.5572
  222MOL0     C29879  10.814   4.539   1.020  0.4237 -0.2144 -0.1472
  222MOL0    Cl29880  10.703   4.446   1.117 -0.1717 -0.2763 -0.1617
  222MOL0     C29881  10.104   4.508   0.117 -0.2711  0.1498 -0.3659
  222MOL0     C29882  10.033   4.525  -0.001 -0.9903 -0.4932  0.4036
  222MOL0     O29883  10.078   4.487  -0.296  0.5228  0.1159  1.0067
  222MOL0     C29884   9.738   4.425  -0.388 -0.0333 -1.7378 -0.2805
  222MOL0     C29885   9.648   4.422  -0.490 -0.2317  0.2344 -0.4480
  222MOL0     N29886   9.740   3.874  -0.603  0.5040  0.1804 -0.9185
  222MOL0     N29887   9.850   3.851  -0.538  0.6532 -0.5135  0.2019
  222MOL0     C29888  10.882   3.844  -0.032 -0.2342 -0.4202  0.6092
  222MOL0     C29889  10.984   3.774   0.011  0.8229 -0.3880 -0.1916
  222MOL0     C29890  11.358   3.609   0.150 -0.3600 -0.9243 -0.7796
  222MOL0     C29891  11.393   3.484   0.196  0.5956  0.1693 -0.2012
  222MOL0     C29892  11.513   3.454   0.250 -0.2016 -0.0688 -0.2609
  222MOL0     C29893  11.625   3.531   0.247 -0.2704  0.1144 -0.1823
  222MOL0     O29894  11.750   3.495   0.295  0.3419  0.2206 -0.1025
  222MOL0     C29895  11.788   3.571   0.411 -0.3030 -0.4703 -0.2285
  222MOL0     C29896  11.928   3.541   0.462 -0.3728  0.1783 -0.2814
  222MOL0     C29897  12.038   3.573   0.356  0.5911  0.3066  0.4235
  222MOL0     C29898  12.179   3.533   0.408 -0.1205 -0.1411 -0.2102
  222MOL0     C29899  12.217   3.576   0.538 -0.2907 -0.2098  0.2046
  222MOL0     C29900  12.234   3.620   0.645  0.1019 -0.3703 -0.2778
  222MOL0     C29901  11.603   3.656   0.177 -0.2520 -0.4745 -0.8185
  222MOL0     C29902  11.465   3.698   0.138 -0.0132 -0.2012 -0.2895
  222MOL0     H29903  11.226   3.882  -0.201  1.2211  0.2565  2.8868
  222MOL0     H29904  11.034   4.004  -0.296  1.2220 -1.5961 -0.7461
  222MOL0     H29905  10.629   3.857  -0.240  2.7445 -0.1965  0.3543
  222MOL0     H29906  10.624   3.918  -0.070  0.6879  1.2973  0.5642
  222MOL0     H29907  10.437   4.006  -0.205 -1.4256  3.1468 -1.0219
  222MOL0     H29908  10.537   4.131  -0.139  0.5381 -0.7658  1.3334
  222MOL0     H29909  10.651   4.163  -0.363 -1.1493  1.7648  0.5043
  222MOL0     H29910  10.562   4.023  -0.430 -2.0068  0.5772 -0.8368
  222MOL0     H29911  10.499   4.306  -0.342  0.4472  1.3591 -1.7768
  222MOL0     H29912  10.479   4.240  -0.502  0.8833 -0.8848  0.1657
  222MOL0     H29913  10.279   4.160  -0.276 -1.0351 -2.1915 -0.2272
  222MOL0     H29914  10.256   4.260  -0.417  1.6542  1.1330  0.3956
  222MOL0     H29915  10.306   4.063  -0.569 -1.2634 -3.0848  0.3205
  222MOL0     H29916  10.325   3.969  -0.422  1.0557 -1.5211 -2.2559
  222MOL0     H29917  10.095   4.007  -0.362  3.2508  1.8489  2.9270
  222MOL0     H29918  10.056   4.111  -0.503  0.3744 -1.6803 -1.8770
  222MOL0     H29919  10.114   3.814  -0.495 -0.8882  0.3181  0.5120
  222MOL0     H29920  10.153   3.908  -0.642  0.2081 -1.0753  0.6872
  222MOL0     H29921   9.985   3.996  -0.789 -2.0698  0.5802 -0.9924
  222MOL0     H29922   9.747   4.070  -0.884 -1.9271  2.1950  2.9694
  222MOL0     H29923   9.670   3.908  -0.911  2.0698 -0.5925 -1.0508
  222MOL0     H29924   9.502   3.965  -0.724 -0.8594 -1.7756 -1.3623
  222MOL0     H29925   9.482   4.045  -0.875  0.6873 -2.1617  0.1809
  222MOL0     H29926   9.610   4.147  -0.615  1.3201 -3.3868 -0.7172
  222MOL0     H29927   9.447   4.196  -0.679 -0.5157  1.7555 -3.4946
  222MOL0     H29928   9.561   4.303  -0.883 -0.0287  0.5353 -0.1482
  222MOL0     H29929   9.714   4.262  -0.797 -0.5770 -1.2617 -0.4410
  222MOL0     H29930   9.848   4.481  -0.743 -0.2365  0.5117 -0.0215
  222MOL0     H29931  10.065   4.520  -0.696  0.1572  1.3168  0.9166
  222MOL0     H29932  10.091   4.592  -0.540 -0.3217  0.4405 -0.5376
  222MOL0     H29933  10.117   4.416  -0.564 -0.3389 -0.3210  1.8937
  222MOL0     H29934   9.932   4.209  -0.053  1.3900 -0.8465 -0.8688
  222MOL0     H29935  10.073   4.166   0.143  0.2064 -0.9275 -2.1948
  222MOL0     H29936  10.331   4.508   0.257  0.1991 -0.7361 -0.7786
  222MOL0     H29937  10.207   4.538   0.387  3.0046  0.2711  2.6765
  222MOL0     H29938  10.328   4.352   0.512  0.4518  0.8968 -0.1587
  222MOL0     H29939  10.453   4.360   0.384  0.7779 -0.7087  1.6847
  222MOL0     H29940  10.357   4.592   0.553 -0.9026 -0.2757 -1.1714
  222MOL0     H29941  10.493   4.602   0.449 -0.0871  1.0678  1.3626
  222MOL0     H29942  10.468   4.408   0.689  0.9770 -0.6257  0.5672
  222MOL0     H29943  10.608   4.409   0.589  1.0904  1.9852 -1.1454
  222MOL0     H29944  10.514   4.650   0.765  0.4490  1.5088 -0.0752
  222MOL0     H29945  10.651   4.662   0.654  0.0863 -1.6211 -1.8626
  222MOL0     H29946  10.621   4.448   0.871  0.2312  0.5114 -0.1142
  222MOL0     H29947  10.772   4.482   0.768 -0.6023  0.5978 -2.2303
  222MOL0     H29948  10.641   4.663   0.957 -0.7070 -0.4421 -1.8629
  222MOL0     H29949  10.786   4.690   0.862 -2.3657  1.2470 -1.2846
  222MOL0     H29950  10.863   4.614   1.083 -0.8059  1.1670 -0.7883
  222MOL0     H29951  10.894   4.479   0.977 -0.0363 -0.7049 -0.3252
  222MOL0     H29952  10.164   4.591   0.152  1.6682 -0.3309 -2.3337
  222MOL0     H29953  10.028   4.620  -0.055 -1.1864 -0.1521  1.0151
  222MOL0     H29954   9.712   4.399  -0.286  3.5688 -1.4269  0.8359
  222MOL0     H29955   9.546   4.399  -0.463 -0.3223 -0.0329 -0.9905
  222MOL0     H29956  10.792   3.844   0.028 -1.4842  1.3822 -1.1399
  222MOL0     H29957  10.971   3.718   0.103 -3.6577  0.4412 -0.0642
  222MOL0     H29958  11.326   3.400   0.182  0.9393  0.2025 -2.4475
  222MOL0     H29959  11.534   3.356   0.291  2.6969  0.9261  0.8754
  222MOL0     H29960  11.773   3.675   0.382  0.6262 -0.6605 -1.5107
  222MOL0     H29961  11.721   3.549   0.494  1.8428 -1.3556  1.3664
  222MOL0     H29962  11.937   3.435   0.484  0.1403 -0.1348 -1.8450
  222MOL0     H29963  11.949   3.588   0.558 -0.2533 -1.0274  0.2851
  222MOL0     H29964  12.035   3.682   0.344  1.4564  0.4596  1.4114
  222MOL0     H29965  12.012   3.532   0.258  1.6327  0.3903  0.0967
  222MOL0     H29966  12.255   3.576   0.342  0.0330  2.3960  1.4680
  222MOL0     H29967  12.187   3.425   0.392  2.1439  0.0510 -0.6994
  222MOL0     H29968  12.246   3.663   0.743  2.3017  1.3299 -1.2129
  222MOL0     H29969  11.685   3.725   0.161 -0.6299  0.0932 -0.3495
  222MOL0     H29970  11.447   3.798   0.100 -0.4199  0.3699  1.3118
  223MOL0     O29971   8.612   7.425   8.153 -0.4519 -0.2737 -0.0856
  223MOL0     C29972   8.603   7.434   8.031 -0.6315  0.0853 -0.5601
  223MOL0     O29973   8.493   7.489   7.963 -0.1270  0.3573  0.2363
  223MOL0     C29974   8.389   7.522   8.041 -0.0418 -0.1420 -0.1442
  223MOL0     C29975   8.378   7.658   8.078 -0.6628  0.4865  0.3522
  223MOL0     C29976   8.267   7.702   8.153 -0.1955  0.4580 -0.5195
  223MOL0     C29977   8.173   7.617   8.207  0.4164  0.3506  0.2536
  223MOL0     O29978   8.069   7.649   8.300  0.0470 -0.6004 -0.3099
  223MOL0     C29979   8.044   7.787   8.345 -0.3998  0.5794  0.0830
  223MOL0     C29980   7.900   7.794   8.398  0.3057  0.5359  0.7542
  223MOL0     C29981   7.792   7.816   8.293 -0.8213  1.0712  0.6667
  223MOL0     C29982   7.728   7.682   8.244  0.0513 -0.0745 -0.4831
  223MOL0     C29983   7.623   7.705   8.144 -1.0994  0.2415  0.8966
  223MOL0     C29984   7.604   7.574   8.071 -0.0991 -0.6607  0.0939
  223MOL0     C29985   7.493   7.576   7.963 -0.4036  0.0081  0.2301
  223MOL0     C29986   7.466   7.440   7.896 -0.4359 -0.5560 -0.2320
  223MOL0     N29987   7.556   7.408   7.785  0.3446 -0.3516 -0.6252
  223MOL0     C29988   7.518   7.428   7.658  0.0740  0.1719  0.1168
  223MOL0     C29989   7.611   7.367   7.584 -0.5407 -0.4969  0.2218
  223MOL0     C29990   7.614   7.330   7.440  0.1995  0.1076 -0.3018
  223MOL0     C29991   7.720   7.401   7.365 -0.7936 -0.3760 -0.0604
  223MOL0     C29992   7.720   7.387   7.222 -0.1739  0.2393  0.0321
  223MOL0     C29993   7.662   7.506   7.151  0.1098 -0.3206  0.2134
  223MOL0     O29994   7.520   7.473   7.132 -0.0503 -0.0998 -0.4323
  223MOL0     C29995   7.441   7.572   7.067 -0.4897 -0.4686 -0.3634
  223MOL0     C29996   7.475   7.708   7.056  0.3583 -0.6584  0.3494
  223MOL0     C29997   7.389   7.808   7.007 -0.2661 -0.5061  0.2578
  223MOL0     C29998   7.431   7.958   7.023  0.0168 -0.1394  0.2240
  223MOL0     C29999   7.273   7.757   6.942 -0.7738 -0.0346 -0.4570
  223MOL0     C30000   7.175   7.849   6.873  0.4508 -1.0308  0.8890
  223MOL0     O30001   7.055   7.800   6.844  1.0279 -0.4780 -0.1401
  223MOL0     C30002   6.947   7.870   6.785 -1.5367 -0.1493  0.2522
  223MOL0     C30003   6.830   7.810   6.805  0.5427 -0.1580  0.5056
  223MOL0     C30004   6.710   7.860   6.760  0.2263  0.5243 -0.4180
  223MOL0     C30005   6.703   7.973   6.695 -0.3247 -0.5094  0.3558
  223MOL0     O30006   6.581   8.022   6.669  0.1378  0.0151 -0.0184
  223MOL0     C30007   6.572   8.175   6.654 -0.3328 -1.1561 -0.5897
  223MOL0     C30008   6.431   8.223   6.637  0.3886 -0.0611  0.1199
  223MOL0     C30009   6.344   8.184   6.757 -0.4640  0.1978 -0.1555
  223MOL0     C30010   6.207   8.244   6.742 -0.1084  0.1008  0.0245
  223MOL0     C30011   6.101   8.209   6.852  0.4043 -0.0250 -0.2068
  223MOL0     C30012   6.011   8.081   6.826  0.4308  0.0181  0.3042
  223MOL0     C30013   5.875   8.090   6.899  0.6868  0.0685 -0.0883
  223MOL0     C30014   5.867   8.088   7.051 -0.2402  0.4678 -0.2525
  223MOL0    Cl30015   5.895   8.254   7.108  0.0659  0.3146  0.1925
  223MOL0     C30016   6.818   8.041   6.673 -0.6005 -0.4547  0.2478
  223MOL0     C30017   6.949   7.996   6.725  0.0208 -0.0207 -0.5428
  223MOL0     O30018   7.216   7.964   6.836  0.5866  0.3647 -0.1333
  223MOL0     C30019   7.239   7.625   6.956  0.3317 -0.0325 -0.9423
  223MOL0     C30020   7.322   7.535   7.023  0.3676 -0.0450  0.3234
  223MOL0     N30021   7.696   7.323   7.677 -0.4287 -0.1763 -0.3457
  223MOL0     N30022   7.672   7.343   7.798  0.1744  0.3778 -0.0247
  223MOL0     C30023   8.191   7.480   8.178 -0.2600  0.3166 -0.4590
  223MOL0     C30024   8.295   7.434   8.094 -0.0346 -0.6096  0.0161
  223MOL0     C30025   8.720   7.389   7.950 -0.0557 -0.5423  0.2881
  223MOL0     C30026   8.712   7.367   7.811 -0.7146  0.1090  0.7800
  223MOL0     C30027   8.824   7.323   7.735 -0.1691  0.1761 -1.0174
  223MOL0     C30028   8.946   7.303   7.794  1.1398  0.2472 -0.1466
  223MOL0     O30029   9.049   7.266   7.716  0.3213  0.4558  0.9565
  223MOL0     C30030   9.181   7.267   7.765  0.2783  0.3014  0.3441
  223MOL0     C30031   9.269   7.280   7.649  0.0323  0.4204  1.0104
  223MOL0     C30032   9.417   7.242   7.664  0.6301 -0.2546 -0.2681
  223MOL0     C30033   9.499   7.317   7.777 -0.3004 -0.6853 -0.3879
  223MOL0     C30034   9.644   7.309   7.747 -0.2863 -0.0044 -0.1143
  223MOL0     C30035   9.759   7.290   7.703  0.7009  0.3978 -0.2365
  223MOL0     C30036   8.955   7.323   7.931  0.5401  0.3152  0.5419
  223MOL0     C30037   8.844   7.357   8.010  0.8756 -0.3519 -0.0576
  223MOL0     H30038   8.448   7.736   8.048  0.8614 -1.4301 -1.3793
  223MOL0     H30039   8.261   7.807   8.182 -0.4655  0.2174  0.3178
  223MOL0     H30040   8.106   7.801   8.434 -1.9466  1.0895  1.1179
  223MOL0     H30041   8.063   7.866   8.271 -0.9892  0.3333 -0.3341
  223MOL0     H30042   7.887   7.710   8.467  1.0321  1.3423  1.9198
  223MOL0     H30043   7.890   7.874   8.473  0.9955  0.5182  0.8707
  223MOL0     H30044   7.715   7.875   8.344  0.5897  3.2372  0.4206
  223MOL0     H30045   7.826   7.874   8.207  0.9870 -3.4511 -2.0784
  223MOL0     H30046   7.795   7.604   8.208 -0.7548  0.1682 -2.6371
  223MOL0     H30047   7.673   7.647   8.332 -3.3951  1.9459 -1.6582
  223MOL0     H30048   7.533   7.735   8.198 -1.7826 -0.1150 -0.0309
  223MOL0     H30049   7.648   7.780   8.068  1.0263 -2.3310 -1.1406
  223MOL0     H30050   7.699   7.534   8.035 -0.0920 -1.9009  1.4135
  223MOL0     H30051   7.560   7.508   8.147  0.2976 -1.9078 -0.7280
  223MOL0     H30052   7.402   7.608   8.014  0.5736  0.3192  1.8369
  223MOL0     H30053   7.523   7.657   7.896 -2.5164  2.3931  1.9802
  223MOL0     H30054   7.369   7.449   7.846  0.2392  0.5205 -1.4169
  223MOL0     H30055   7.458   7.356   7.966  2.3263  1.4376  2.7842
  223MOL0     H30056   7.420   7.468   7.635  0.8563  1.9534 -0.3159
  223MOL0     H30057   7.624   7.223   7.418  1.6084 -0.3786  2.2972
  223MOL0     H30058   7.516   7.373   7.421 -0.6822  0.7696  4.4582
  223MOL0     H30059   7.813   7.354   7.398  0.1650  0.8781 -0.8865
  223MOL0     H30060   7.725   7.505   7.399  0.1770 -0.8642  1.4283
  223MOL0     H30061   7.684   7.288   7.191 -1.6120  0.0735  2.1137
  223MOL0     H30062   7.827   7.391   7.200  0.0705 -0.5107  1.0403
  223MOL0     H30063   7.708   7.523   7.054 -0.2025 -0.0674  0.1089
  223MOL0     H30064   7.681   7.594   7.213  0.6194  0.0021 -0.3879
  223MOL0     H30065   7.562   7.750   7.106 -0.6179 -0.6258  2.0811
  223MOL0     H30066   7.342   8.016   7.050  0.5323 -0.3742  2.6515
  223MOL0     H30067   7.499   7.959   7.109  0.1271 -0.0466  0.1355
  223MOL0     H30068   7.478   8.003   6.935 -1.9903  0.0899 -0.7977
  223MOL0     H30069   6.824   7.724   6.871  1.3150 -0.0910  0.6673
  223MOL0     H30070   6.626   7.796   6.786  0.6956 -0.7045 -1.8307
  223MOL0     H30071   6.631   8.238   6.721 -2.3835 -0.0354  0.2509
  223MOL0     H30072   6.622   8.197   6.559  0.8013 -0.4217  0.1443
  223MOL0     H30073   6.426   8.331   6.620 -0.5544 -0.2021 -0.5884
  223MOL0     H30074   6.395   8.179   6.543 -3.9185 -0.3873  1.6919
  223MOL0     H30075   6.387   8.228   6.847 -2.5661  1.6966  0.1795
  223MOL0     H30076   6.353   8.076   6.766  0.0727  0.1911 -0.6986
  223MOL0     H30077   6.221   8.353   6.739  0.6217  0.0005 -0.3960
  223MOL0     H30078   6.168   8.208   6.647  3.1500 -2.4633 -0.5011
  223MOL0     H30079   6.033   8.295   6.856 -0.5799 -0.6839 -1.8408
  223MOL0     H30080   6.147   8.202   6.951 -1.7206 -1.1181  0.7607
  223MOL0     H30081   5.990   8.082   6.718 -1.8254  1.6253  0.7108
  223MOL0     H30082   6.063   7.986   6.845  1.7505  0.4143 -1.1254
  223MOL0     H30083   5.816   8.002   6.871  2.9175 -1.0755 -1.6026
  223MOL0     H30084   5.821   8.178   6.864  1.7300  1.0970  0.8220
  223MOL0     H30085   5.932   8.010   7.092 -0.9457 -0.2833 -0.5501
  223MOL0     H30086   5.766   8.056   7.077 -0.2592  0.8295  0.1294
  223MOL0     H30087   6.814   8.137   6.623 -2.0243 -1.0127 -0.7877
  223MOL0     H30088   7.034   8.064   6.719 -0.5449  0.9768  1.7110
  223MOL0     H30089   7.150   7.580   6.913  0.3145 -0.2440 -0.6860
  223MOL0     H30090   7.292   7.432   7.037  0.0180  0.0713  0.4426
  223MOL0     H30091   8.112   7.414   8.214  0.2704 -0.3252 -0.4350
  223MOL0     H30092   8.298   7.332   8.054 -0.5639 -0.9218  0.7579
  223MOL0     H30093   8.621   7.388   7.755  0.1225 -3.9176 -2.6160
  223MOL0     H30094   8.816   7.312   7.628 -0.1395 -1.4603 -0.8767
  223MOL0     H30095   9.205   7.340   7.844  0.8032 -1.9483  2.3608
  223MOL0     H30096   9.203   7.172   7.813  2.2328  0.0121 -0.9646
  223MOL0     H30097   9.247   7.383   7.618  0.9678  0.4088  0.2565
  223MOL0     H30098   9.239   7.205   7.575  3.6863 -0.9457  0.7490
  223MOL0     H30099   9.468   7.261   7.569 -2.1799  1.3132 -1.6005
  223MOL0     H30100   9.419   7.134   7.677  0.5024 -0.3463 -0.9903
  223MOL0     H30101   9.479   7.269   7.873 -1.2764  1.0000  0.2788
  223MOL0     H30102   9.471   7.421   7.794 -1.6109 -1.0654 -0.1501
  223MOL0     H30103   9.864   7.277   7.683  1.3422  0.8540  2.4902
  223MOL0     H30104   9.051   7.314   7.981  1.2295 -0.7574 -0.8933
  223MOL0     H30105   8.849   7.378   8.116  0.5122 -1.2525  0.1496
  224MOL0     O30106   6.722   6.696   7.553 -0.9910  0.4564 -0.0869
  224MOL0     C30107   6.642   6.730   7.469  0.2264 -0.5156 -0.0991
  224MOL0     O30108   6.671   6.753   7.341  0.0857 -0.1351 -0.1122
  224MOL0     C30109   6.802   6.751   7.299 -0.4613 -0.6581  0.1197
  224MOL0     C30110   6.873   6.876   7.299 -0.4747 -0.3699  0.1249
  224MOL0     C30111   7.005   6.872   7.255  0.1115  0.0916  0.1134
  224MOL0     C30112   7.066   6.762   7.196  0.8138 -0.8387  0.0996
  224MOL0     O30113   7.201   6.759   7.164  0.0216 -0.7786 -0.2119
  224MOL0     C30114   7.282   6.875   7.202 -0.1121  0.2056  0.5927
  224MOL0     C30115   7.424   6.848   7.153  0.0755  0.0429  0.0843
  224MOL0     C30116   7.474   6.707   7.173  0.5196  0.8005 -0.6866
  224MOL0     C30117   7.449   6.604   7.067 -0.5518 -0.6915  0.9289
  224MOL0     C30118   7.517   6.471   7.111  0.0254  0.2257  0.6287
  224MOL0     C30119   7.509   6.357   7.007 -0.8531 -0.1627 -0.6431
  224MOL0     C30120   7.597   6.242   7.043 -0.2783 -0.2663 -0.2726
  224MOL0     C30121   7.583   6.118   6.951  0.4563 -0.3591  0.1994
  224MOL0     N30122   7.449   6.049   6.955  0.0351  0.0491 -1.2324
  224MOL0     C30123   7.408   5.971   7.053 -0.1432  0.5674  0.0258
  224MOL0     C30124   7.294   5.908   7.001 -0.8434 -0.1662  0.6491
  224MOL0     C30125   7.221   5.788   7.046  0.4352  0.1532 -0.1569
  224MOL0     C30126   7.327   5.697   7.111 -0.1666  0.7865 -1.0239
  224MOL0     C30127   7.266   5.563   7.175 -0.0164  0.4612  0.2162
  224MOL0     C30128   7.168   5.486   7.077  0.1811  0.1120  0.7134
  224MOL0     O30129   7.120   5.373   7.159 -0.1167  0.1289 -0.1720
  224MOL0     C30130   7.021   5.289   7.124  0.0162  0.5540  0.8514
  224MOL0     C30131   6.980   5.193   7.216  0.1069  0.5719  0.1462
  224MOL0     C30132   6.867   5.112   7.189 -0.6529  0.5604  0.2060
  224MOL0     C30133   6.824   5.014   7.303 -0.7785 -0.3988  0.2400
  224MOL0     C30134   6.798   5.124   7.069  0.0560 -0.0057 -0.0098
  224MOL0     C30135   6.666   5.053   7.032  0.4546 -0.1661  0.4345
  224MOL0     O30136   6.627   5.050   6.903  0.2425  0.1859  0.2855
  224MOL0     C30137   6.511   4.997   6.870  0.2107  0.3897 -0.3460
  224MOL0     C30138   6.390   5.054   6.911  0.0425 -0.1365  0.5902
  224MOL0     C30139   6.270   4.991   6.878  1.0999  0.1283  0.8512
  224MOL0     C30140   6.268   4.871   6.805  0.4811  0.4803 -0.8124
  224MOL0     O30141   6.161   4.801   6.763  0.4824 -0.0071  0.3978
  224MOL0     C30142   6.050   4.783   6.858 -0.5619 -0.1259  0.0578
  224MOL0     C30143   5.999   4.644   6.833 -0.2344  1.2086 -0.4964
  224MOL0     C30144   6.092   4.524   6.855 -0.3393 -0.8969  0.4782
  224MOL0     C30145   6.027   4.381   6.854  0.0725 -0.1827 -0.6147
  224MOL0     C30146   5.931   4.349   6.733  0.2931  0.2857  0.7886
  224MOL0     C30147   5.871   4.211   6.752  0.6149  0.8993  0.1953
  224MOL0     C30148   5.767   4.177   6.645  0.1270  0.1946 -0.3812
  224MOL0     C30149   5.686   4.067   6.689 -0.0592  1.1743  0.7801
  224MOL0    Cl30150   5.553   4.117   6.801  0.4886  0.0376  0.1124
  224MOL0     C30151   6.387   4.817   6.768  0.8875  0.6546  0.3825
  224MOL0     C30152   6.506   4.875   6.804 -0.3095 -0.1591 -0.2324
  224MOL0     O30153   6.598   5.013   7.126 -0.1317  0.2342  0.1502
  224MOL0     C30154   6.850   5.217   6.976 -0.4290  0.2860 -1.0349
  224MOL0     C30155   6.963   5.292   6.999 -0.0356 -0.0896 -0.2359
  224MOL0     N30156   7.282   5.964   6.874 -0.4359 -0.8619  0.0267
  224MOL0     N30157   7.360   6.059   6.855 -0.6331  0.1826 -0.5480
  224MOL0     C30158   6.984   6.651   7.179 -0.3403 -0.1737  0.5657
  224MOL0     C30159   6.855   6.645   7.229  0.9301  0.1514  0.1056
  224MOL0     C30160   6.507   6.759   7.524  0.3194  0.2721  0.1958
  224MOL0     C30161   6.473   6.735   7.661 -0.2864  0.5543 -0.2513
  224MOL0     C30162   6.351   6.770   7.704 -0.3005 -0.8005 -0.2591
  224MOL0     C30163   6.249   6.834   7.621  0.7464 -1.2651 -0.3777
  224MOL0     O30164   6.126   6.851   7.678  0.3075  1.2725  0.3915
  224MOL0     C30165   6.016   6.896   7.597  0.2280 -0.8563  0.2137
  224MOL0     C30166   5.885   6.915   7.672 -0.3948 -0.8610  0.2701
  224MOL0     C30167   5.882   7.027   7.773 -0.2752  0.4323  0.0174
  224MOL0     C30168   5.736   7.055   7.816 -0.8748 -0.1140 -1.3264
  224MOL0     C30169   5.737   7.128   7.946 -0.6589  0.9486  0.0541
  224MOL0     C30170   5.739   7.209   8.035 -0.8468  0.1912  0.2474
  224MOL0     C30171   6.286   6.861   7.490  0.3124  0.3368 -0.5995
  224MOL0     C30172   6.414   6.827   7.440 -1.0893 -0.1274  0.6052
  224MOL0     H30173   6.837   6.965   7.349 -1.3325  0.0024 -1.1120
  224MOL0     H30174   7.064   6.962   7.244  1.1269 -0.5071  0.4789
  224MOL0     H30175   7.236   6.961   7.154 -0.2614 -0.4249 -0.4090
  224MOL0     H30176   7.276   6.879   7.312 -0.4989 -0.7579  0.6148
  224MOL0     H30177   7.436   6.875   7.048 -2.8218  0.4952 -0.2079
  224MOL0     H30178   7.484   6.917   7.214 -0.8517  1.7828 -0.8856
  224MOL0     H30179   7.583   6.720   7.182  0.1863  2.6870  1.4527
  224MOL0     H30180   7.444   6.668   7.271  1.6602  2.7155  0.5087
  224MOL0     H30181   7.341   6.587   7.056 -0.3851 -1.7007  0.8040
  224MOL0     H30182   7.497   6.645   6.978  2.4142  0.8667  3.0615
  224MOL0     H30183   7.622   6.494   7.133  1.7767 -3.1896 -2.9574
  224MOL0     H30184   7.481   6.430   7.206  0.6352  0.2843  0.8873
  224MOL0     H30185   7.404   6.326   7.010 -2.2348  3.4948 -3.1046
  224MOL0     H30186   7.520   6.384   6.901 -0.6122 -1.4707 -0.9798
  224MOL0     H30187   7.701   6.273   7.032 -0.6503  0.2895 -2.6507
  224MOL0     H30188   7.575   6.222   7.149  0.2391  0.6342  0.0109
  224MOL0     H30189   7.653   6.040   6.980  0.8539 -1.9916 -4.3440
  224MOL0     H30190   7.600   6.156   6.850 -2.1914  2.7317  0.7587
  224MOL0     H30191   7.460   5.966   7.147 -3.0751  3.0812  2.0039
  224MOL0     H30192   7.142   5.814   7.117 -0.3206  1.3743 -1.3909
  224MOL0     H30193   7.178   5.737   6.960 -0.5566 -0.4409  0.6745
  224MOL0     H30194   7.377   5.751   7.191 -1.1390  0.4489 -0.1686
  224MOL0     H30195   7.395   5.667   7.030  1.2751 -2.5387  1.1671
  224MOL0     H30196   7.208   5.585   7.265  1.7014 -0.1566  1.5394
  224MOL0     H30197   7.347   5.489   7.177 -0.6144 -0.2971 -1.4598
  224MOL0     H30198   7.222   5.449   6.990  1.9717  0.0110  1.8167
  224MOL0     H30199   7.095   5.555   7.035 -1.3034 -1.6595  0.2453
  224MOL0     H30200   7.027   5.194   7.314 -0.7174 -2.4772  0.6750
  224MOL0     H30201   6.740   5.059   7.356 -0.7469  0.4798 -0.4328
  224MOL0     H30202   6.796   4.916   7.262  1.7636 -2.0337  2.1190
  224MOL0     H30203   6.898   4.997   7.382 -3.0763  0.5305  2.7401
  224MOL0     H30204   6.397   5.142   6.974  1.5689 -1.4265  2.3232
  224MOL0     H30205   6.172   5.030   6.903  0.8169  0.6450 -0.9125
  224MOL0     H30206   6.083   4.799   6.961 -0.7927  0.1790  0.0843
  224MOL0     H30207   5.971   4.854   6.833  1.0288  1.0750 -1.8157
  224MOL0     H30208   5.911   4.633   6.897 -0.3987 -2.2693 -1.1313
  224MOL0     H30209   5.963   4.636   6.730 -1.4488 -0.2290 -0.0020
  224MOL0     H30210   6.157   4.534   6.942  0.3935 -2.0824  0.0939
  224MOL0     H30211   6.149   4.527   6.761 -0.9214  0.4953  0.1523
  224MOL0     H30212   6.113   4.315   6.868  1.3244  1.8237  2.0827
  224MOL0     H30213   5.980   4.385   6.953  3.3303  1.4331  1.0206
  224MOL0     H30214   5.984   4.366   6.638  0.2933  1.7193  1.0149
  224MOL0     H30215   5.853   4.426   6.725  2.6041  2.7121 -0.1648
  224MOL0     H30216   5.944   4.130   6.753  0.7622  1.0013  2.1610
  224MOL0     H30217   5.823   4.210   6.850  0.8128 -1.4629  0.3252
  224MOL0     H30218   5.823   4.156   6.554  2.2442  2.7267  0.2110
  224MOL0     H30219   5.702   4.263   6.624 -1.1654  0.0706  2.6066
  224MOL0     H30220   5.741   3.980   6.725 -3.1381 -1.8407 -1.1931
  224MOL0     H30221   5.634   4.033   6.600 -1.7304  1.7436  1.4990
  224MOL0     H30222   6.397   4.723   6.716 -2.2374  0.8686 -0.8150
  224MOL0     H30223   6.600   4.825   6.780 -0.3328 -0.1298 -0.3874
  224MOL0     H30224   6.799   5.232   6.881 -0.7773  0.0606 -0.8860
  224MOL0     H30225   6.990   5.352   6.912 -0.4158  0.0586 -0.2524
  224MOL0     H30226   7.021   6.557   7.141  1.5612  0.7551 -0.0248
  224MOL0     H30227   6.815   6.545   7.217  3.6194 -1.6441  3.8280
  224MOL0     H30228   6.541   6.674   7.720  0.0687  2.6927  1.7210
  224MOL0     H30229   6.324   6.738   7.804 -1.6154  0.9639  0.0056
  224MOL0     H30230   6.039   6.995   7.557 -1.2951  0.3141  2.0345
  224MOL0     H30231   6.000   6.836   7.508  0.7273 -2.0755  0.9312
  224MOL0     H30232   5.856   6.825   7.727 -1.1927  0.1404  1.5620
  224MOL0     H30233   5.819   6.944   7.590 -0.1872  0.8039  0.6490
  224MOL0     H30234   5.930   7.117   7.733 -0.3816 -0.0739 -1.3257
  224MOL0     H30235   5.946   6.983   7.849 -1.3204  0.0594  0.7013
  224MOL0     H30236   5.684   6.964   7.847 -0.3764  0.7060  2.4387
  224MOL0     H30237   5.678   7.111   7.741 -1.3309  0.5174 -0.5262
  224MOL0     H30238   5.745   7.261   8.129 -0.0719 -0.4982  0.5959
  224MOL0     H30239   6.213   6.909   7.425 -2.9865 -4.6187 -1.1005
  224MOL0     H30240   6.452   6.852   7.341 -0.8245  1.7052  1.1385
  225MOL0     O30241   5.025   9.232   1.908  0.5640 -0.6435 -0.3323
  225MOL0     C30242   5.010   9.113   1.870  0.9465 -0.7407 -1.0564
  225MOL0     O30243   4.899   9.044   1.876  0.9434 -0.3762  0.1167
  225MOL0     C30244   4.780   9.092   1.922 -0.1392 -0.1491  0.6317
  225MOL0     C30245   4.706   9.206   1.871  0.4381  0.3962  0.5788
  225MOL0     C30246   4.587   9.231   1.925  0.4768 -0.0200  0.2556
  225MOL0     C30247   4.529   9.163   2.031  0.1662 -0.5888  0.6722
  225MOL0     O30248   4.409   9.198   2.093  0.3521 -0.4800 -0.0349
  225MOL0     C30249   4.322   9.299   2.037  1.4789 -0.1529  0.3840
  225MOL0     C30250   4.181   9.292   2.101  0.3598  0.5243  0.0599
  225MOL0     C30251   4.108   9.155   2.077 -0.4439  0.5372 -0.0947
  225MOL0     C30252   4.059   9.138   1.925  0.3921 -0.6718  0.1178
  225MOL0     C30253   3.932   9.057   1.913  0.2224  0.4925  1.1695
  225MOL0     C30254   3.926   8.988   1.776  0.1507  0.4875 -0.6773
  225MOL0     C30255   3.802   8.893   1.773 -0.0378 -0.6186 -0.0596
  225MOL0     C30256   3.823   8.754   1.838  0.6099  0.8358  0.3476
  225MOL0     N30257   3.695   8.681   1.826  0.2092  0.1507  0.4558
  225MOL0     C30258   3.649   8.619   1.708  0.4301  0.4047 -0.9521
  225MOL0     C30259   3.531   8.565   1.744  0.0609 -0.4747 -0.1700
  225MOL0     C30260   3.440   8.497   1.648  0.7358  1.2386  0.2567
  225MOL0     C30261   3.427   8.345   1.699  0.1197  0.2910  0.0030
  225MOL0     C30262   3.567   8.288   1.713 -0.1975 -0.9020  0.6809
  225MOL0     C30263   3.555   8.139   1.716 -0.6013 -0.3266  0.2315
  225MOL0     O30264   3.518   8.076   1.588  0.3453  1.1588 -0.4084
  225MOL0     C30265   3.433   7.968   1.588 -0.9354 -0.3276 -0.1628
  225MOL0     C30266   3.338   7.966   1.488 -0.2398 -0.5947  0.1556
  225MOL0     C30267   3.241   7.870   1.482 -0.2575 -0.4130  0.2467
  225MOL0     C30268   3.169   7.856   1.356 -0.1881 -0.0311  0.0268
  225MOL0     C30269   3.233   7.764   1.582 -1.2602 -0.3489 -0.2329
  225MOL0     C30270   3.133   7.658   1.590 -0.1010  0.2119 -0.3048
  225MOL0     O30271   3.150   7.562   1.679  0.0105 -0.5459  1.0533
  225MOL0     C30272   3.061   7.462   1.679  0.6720  0.0038  0.4789
  225MOL0     C30273   3.064   7.368   1.572  0.1157  0.1690 -0.3314
  225MOL0     C30274   2.969   7.266   1.573  0.4249  0.0443  0.9023
  225MOL0     C30275   2.881   7.245   1.677  1.1064  0.0052 -0.3474
  225MOL0     O30276   2.808   7.131   1.667 -1.3517 -0.2531 -0.0513
  225MOL0     C30277   2.669   7.134   1.687  0.2845  0.6950 -0.7528
  225MOL0     C30278   2.600   7.121   1.549 -0.0948 -0.0330 -0.0830
  225MOL0     C30279   2.451   7.091   1.569  0.4212  1.0845  0.4027
  225MOL0     C30280   2.380   7.086   1.436 -0.4633  0.1727 -0.2525
  225MOL0     C30281   2.229   7.065   1.458  0.8827  0.5101  0.0745
  225MOL0     C30282   2.147   7.030   1.330  0.1671 -0.4041 -0.1907
  225MOL0     C30283   2.037   6.930   1.365 -1.9263 -0.4308  0.3538
  225MOL0     C30284   1.909   6.992   1.418 -0.0757 -0.3341 -0.1214
  225MOL0    Cl30285   1.852   7.142   1.339  0.0629 -0.3542 -0.2051
  225MOL0     C30286   2.888   7.334   1.789  1.1936  0.1150  0.5295
  225MOL0     C30287   2.974   7.444   1.791  0.8162 -0.4748  0.3082
  225MOL0     O30288   3.035   7.674   1.512  0.4411 -0.5627 -0.0337
  225MOL0     C30289   3.344   7.759   1.671  0.3782 -0.6184  0.6493
  225MOL0     C30290   3.444   7.859   1.675  0.6046  0.4813 -0.7739
  225MOL0     N30291   3.501   8.608   1.874 -0.0322 -0.1646  0.7058
  225MOL0     N30292   3.601   8.675   1.926 -0.6397  0.0081  0.1665
  225MOL0     C30293   4.606   9.062   2.089  0.7536  0.3048  1.1312
  225MOL0     C30294   4.727   9.027   2.033 -0.2214 -0.2043 -0.1057
  225MOL0     C30295   5.134   9.064   1.808 -0.5097  0.2115 -0.3344
  225MOL0     C30296   5.130   8.934   1.741  0.7367 -0.1392 -0.7510
  225MOL0     C30297   5.253   8.882   1.689  0.0653 -0.0188  0.1150
  225MOL0     C30298   5.374   8.955   1.690 -0.0918 -0.4916 -0.5557
  225MOL0     O30299   5.482   8.885   1.647 -0.2524 -0.3127 -0.2451
  225MOL0     C30300   5.606   8.950   1.626 -0.2106 -0.5376  0.4364
  225MOL0     C30301   5.671   8.887   1.501  0.7442  0.2694  0.4523
  225MOL0     C30302   5.823   8.911   1.513 -0.1851  0.3140  0.2487
  225MOL0     C30303   5.885   8.845   1.393 -0.3629  0.3977 -0.4384
  225MOL0     C30304   6.029   8.879   1.375 -0.1206  0.6078  0.3147
  225MOL0     C30305   6.153   8.892   1.367 -0.9071  0.6873  0.7740
  225MOL0     C30306   5.372   9.083   1.747  0.6490  0.1764  0.0928
  225MOL0     C30307   5.259   9.131   1.812  0.2366  0.4692 -0.2870
  225MOL0     H30308   4.737   9.256   1.779  1.8690  0.5026  1.0935
  225MOL0     H30309   4.540   9.323   1.891  3.4589  1.6955  0.4155
  225MOL0     H30310   4.361   9.397   2.067  0.8817 -0.7169  3.3972
  225MOL0     H30311   4.313   9.280   1.930  2.4997  0.9850  0.0669
  225MOL0     H30312   4.193   9.315   2.207 -2.2278  1.2791  0.2571
  225MOL0     H30313   4.105   9.363   2.068 -1.0513 -1.5812 -1.5460
  225MOL0     H30314   4.169   9.072   2.115 -1.4269 -0.5277 -0.7608
  225MOL0     H30315   4.019   9.143   2.140  0.1408  1.3468  0.8969
  225MOL0     H30316   4.035   9.233   1.875  1.3130  0.0745  1.0303
  225MOL0     H30317   4.140   9.094   1.867 -0.3371 -2.2638  0.2549
  225MOL0     H30318   3.935   8.973   1.983 -0.3623 -1.0388 -0.5378
  225MOL0     H30319   3.838   9.110   1.926 -0.7333 -0.9728  0.5512
  225MOL0     H30320   3.906   9.061   1.697 -2.0595 -0.4544 -1.0526
  225MOL0     H30321   4.020   8.934   1.761 -0.4172 -0.7108 -0.0635
  225MOL0     H30322   3.715   8.950   1.807 -0.5973 -1.5696  0.1380
  225MOL0     H30323   3.784   8.890   1.665 -0.0657  3.8930 -0.3771
  225MOL0     H30324   3.850   8.764   1.943  2.2875 -1.5862  0.2332
  225MOL0     H30325   3.895   8.688   1.789 -0.5076 -0.9244  1.0275
  225MOL0     H30326   3.711   8.621   1.619  2.1908 -0.3856  0.2082
  225MOL0     H30327   3.337   8.533   1.651  0.0733 -0.3255 -1.6632
  225MOL0     H30328   3.467   8.504   1.542 -0.4950 -1.3832 -0.2800
  225MOL0     H30329   3.359   8.301   1.626  1.4084  1.3667 -1.9255
  225MOL0     H30330   3.372   8.351   1.794  2.1035  1.8736  1.1438
  225MOL0     H30331   3.625   8.330   1.796  0.5474 -2.4148  0.9636
  225MOL0     H30332   3.626   8.302   1.622 -1.9200  1.2711 -0.1943
  225MOL0     H30333   3.482   8.112   1.793  1.3216 -0.4390  2.1290
  225MOL0     H30334   3.650   8.095   1.750 -1.0121 -0.9865  0.5479
  225MOL0     H30335   3.340   8.046   1.414  0.6012 -0.1598  0.6249
  225MOL0     H30336   3.215   7.899   1.266 -0.7014 -0.0586 -0.2523
  225MOL0     H30337   3.158   7.749   1.336 -1.6831  0.1683 -0.3869
  225MOL0     H30338   3.073   7.908   1.366  0.2086  0.7011  0.1098
  225MOL0     H30339   3.133   7.383   1.490  1.9754 -1.1962  0.9134
  225MOL0     H30340   2.952   7.200   1.489 -1.4160 -1.3927  2.3347
  225MOL0     H30341   2.641   7.068   1.770 -2.3492  3.9161  1.1615
  225MOL0     H30342   2.633   7.226   1.733  1.2720 -0.2784  2.2219
  225MOL0     H30343   2.616   7.215   1.496  0.0154  0.6502  1.1159
  225MOL0     H30344   2.650   7.040   1.495  1.7892  0.7385  0.4153
  225MOL0     H30345   2.414   7.165   1.641 -1.9961  0.3402  0.0080
  225MOL0     H30346   2.432   6.995   1.620  1.2786 -0.7227 -2.4538
  225MOL0     H30347   2.390   7.181   1.383 -1.1726  2.2096  2.9832
  225MOL0     H30348   2.428   7.002   1.385  2.5726  0.9816  1.0701
  225MOL0     H30349   2.182   7.145   1.515 -0.4067 -1.0157  1.2755
  225MOL0     H30350   2.220   6.975   1.520  2.0110  0.0840 -0.3591
  225MOL0     H30351   2.116   7.118   1.274 -0.8968 -0.7261 -0.1410
  225MOL0     H30352   2.219   6.976   1.269 -0.6210  0.3673 -1.8553
  225MOL0     H30353   2.076   6.843   1.418 -0.3808 -1.1282 -1.7768
  225MOL0     H30354   2.020   6.885   1.267  2.1017  0.8812 -1.1520
  225MOL0     H30355   1.921   7.009   1.525 -0.4913  0.9383 -0.2619
  225MOL0     H30356   1.822   6.928   1.399 -1.3330  0.6534  1.9822
  225MOL0     H30357   2.823   7.319   1.875  0.1272  1.5473  0.0137
  225MOL0     H30358   2.973   7.516   1.872 -2.5187 -1.8404  1.6600
  225MOL0     H30359   3.354   7.684   1.750 -1.8509 -0.2581  1.3409
  225MOL0     H30360   3.523   7.856   1.750  1.6229 -0.2903 -1.8396
  225MOL0     H30361   4.555   9.005   2.167 -1.8082  1.6709  0.5920
  225MOL0     H30362   4.780   8.938   2.066  0.2737  0.2028  0.2190
  225MOL0     H30363   5.043   8.871   1.750  0.1545  0.6117 -0.9888
  225MOL0     H30364   5.256   8.782   1.648  2.0463  0.7258 -1.7379
  225MOL0     H30365   5.583   9.055   1.606  0.6044 -0.5173 -0.4460
  225MOL0     H30366   5.667   8.942   1.716 -0.5842  1.0280  0.8521
  225MOL0     H30367   5.625   8.927   1.410 -0.1366 -2.1550 -0.2445
  225MOL0     H30368   5.656   8.780   1.514 -2.4037  0.5260 -0.1627
  225MOL0     H30369   5.863   8.868   1.606  0.8668 -1.6545 -1.0541
  225MOL0     H30370   5.842   9.019   1.509  0.6673  0.1350 -1.6995
  225MOL0     H30371   5.834   8.883   1.304  0.2386  2.7194  0.1216
  225MOL0     H30372   5.872   8.737   1.392  0.3388  0.3028 -0.1511
  225MOL0     H30373   6.258   8.909   1.353 -0.9181 -0.2848 -0.7219
  225MOL0     H30374   5.459   9.145   1.765  0.6361 -0.0200  0.8932
  225MOL0     H30375   5.249   9.226   1.865 -3.7213 -0.8604  1.7000
  226MOL0     O30376   4.322   1.543   7.928  0.1346 -0.3956 -0.1617
  226MOL0     C30377   4.377   1.460   7.858  0.2218 -0.0575  0.3882
  226MOL0     O30378   4.311   1.377   7.773 -0.2283 -0.4116 -0.0700
  226MOL0     C30379   4.173   1.359   7.784  0.0607  0.7393  0.1682
  226MOL0     C30380   4.088   1.372   7.895  0.1039  1.3110  0.3546
  226MOL0     C30381   3.948   1.369   7.876 -0.2140  0.0310 -1.4650
  226MOL0     C30382   3.889   1.350   7.748 -0.5217 -0.1038  0.4916
  226MOL0     O30383   3.746   1.354   7.741 -0.5921  0.2421  0.5745
  226MOL0     C30384   3.681   1.246   7.670  0.1485 -0.2732  0.4045
  226MOL0     C30385   3.643   1.299   7.526  0.7632  0.5359  0.9708
  226MOL0     C30386   3.534   1.224   7.455  0.8526  0.1884  0.5341
  226MOL0     C30387   3.392   1.272   7.479  0.6678  0.1710  0.4133
  226MOL0     C30388   3.285   1.163   7.445  0.7600 -0.6808  0.0615
  226MOL0     C30389   3.275   1.147   7.297  0.8230 -0.0259  0.4282
  226MOL0     C30390   3.171   1.036   7.242 -0.3738  0.3788  0.7453
  226MOL0     C30391   3.030   1.055   7.311 -0.2397 -0.4599 -0.6177
  226MOL0     N30392   2.938   0.969   7.234 -0.2865 -0.5603  0.1525
  226MOL0     C30393   2.887   0.990   7.109 -0.7190 -0.0306 -0.3168
  226MOL0     C30394   2.793   0.895   7.093  0.2314 -0.2556 -0.5955
  226MOL0     C30395   2.710   0.880   6.970 -0.2879 -0.2630 -0.6566
  226MOL0     C30396   2.565   0.907   6.998 -0.7765  0.3242 -0.2698
  226MOL0     C30397   2.495   0.804   7.094  0.1381 -0.1197 -0.1781
  226MOL0     C30398   2.343   0.815   7.092 -0.0075 -0.6418 -0.2543
  226MOL0     O30399   2.287   0.908   7.186 -0.9549  0.3011  1.0301
  226MOL0     C30400   2.159   0.939   7.163  0.3275 -0.6996  0.0287
  226MOL0     C30401   2.081   0.908   7.053  0.6932 -0.3105  0.0554
  226MOL0     C30402   1.942   0.949   7.036  1.1119  0.0555  0.0684
  226MOL0     C30403   1.888   0.934   6.892  0.0709 -0.0683  0.6791
  226MOL0     C30404   1.875   1.012   7.138 -1.1190 -0.3719  0.2611
  226MOL0     C30405   1.748   1.065   7.127 -0.1239  0.4219  0.0522
  226MOL0     O30406   1.731   1.171   7.198 -0.2938  0.2964 -0.5144
  226MOL0     C30407   1.610   1.225   7.225  0.5357  0.6965  0.2639
  226MOL0     C30408   1.572   1.251   7.354  0.2759 -0.9468  0.6293
  226MOL0     C30409   1.448   1.302   7.382 -0.1404 -0.2750 -0.0676
  226MOL0     C30410   1.355   1.309   7.286  0.0128 -0.0226  1.7918
  226MOL0     O30411   1.235   1.369   7.316 -0.1400 -0.1594  0.2620
  226MOL0     C30412   1.226   1.511   7.334  0.0154 -0.1479  1.0296
  226MOL0     C30413   1.074   1.553   7.348  0.4928 -0.6524 -0.1114
  226MOL0     C30414   1.003   1.501   7.470  0.3357  0.0776 -1.0799
  226MOL0     C30415   0.857   1.557   7.479 -1.0617  0.8485  0.0005
  226MOL0     C30416   0.793   1.488   7.594  0.7411 -0.2095 -1.1381
  226MOL0     C30417   0.644   1.513   7.591  0.0946  0.6052  0.9591
  226MOL0     C30418   0.617   1.666   7.626  0.0933 -0.2509 -0.5342
  226MOL0     C30419   0.463   1.701   7.633 -0.4495 -0.2234 -0.2334
  226MOL0    Cl30420   0.378   1.618   7.758 -0.2896 -0.0096 -0.1539
  226MOL0     C30421   1.387   1.280   7.151 -0.9846  0.3764 -0.6542
  226MOL0     C30422   1.523   1.250   7.126  0.1654 -0.4993  0.1755
  226MOL0     O30423   1.663   1.005   7.062  0.6192  0.0531  0.0366
  226MOL0     C30424   1.960   1.043   7.250 -0.4304 -0.0888 -0.2005
  226MOL0     C30425   2.094   1.009   7.260  0.5043  0.7398  0.2136
  226MOL0     N30426   2.802   0.811   7.207 -0.1855 -1.0812 -0.1266
  226MOL0     N30427   2.885   0.864   7.291  0.5356  0.2242 -0.5012
  226MOL0     C30428   3.974   1.341   7.639 -1.0365  0.1855  0.9465
  226MOL0     C30429   4.113   1.341   7.657 -1.0612 -0.6219 -1.1039
  226MOL0     C30430   4.527   1.479   7.843  0.6646 -0.7840  0.0236
  226MOL0     C30431   4.612   1.382   7.785  0.0125 -0.2388 -0.7844
  226MOL0     C30432   4.754   1.396   7.773  0.6992  0.4257 -1.0264
  226MOL0     C30433   4.820   1.508   7.826 -0.1690 -0.5064 -0.8053
  226MOL0     O30434   4.958   1.523   7.802  0.2827 -0.0342  0.4291
  226MOL0     C30435   5.030   1.609   7.893 -0.5096  0.0676  0.6954
  226MOL0     C30436   5.165   1.632   7.825 -0.6828  0.3832 -0.0500
  226MOL0     C30437   5.270   1.544   7.887 -0.8673  0.0265 -0.3311
  226MOL0     C30438   5.248   1.396   7.906  0.9324 -0.4131  0.1747
  226MOL0     C30439   5.373   1.323   7.915 -0.5353  0.1565  0.2880
  226MOL0     C30440   5.486   1.283   7.924  0.1327  0.2283 -0.2914
  226MOL0     C30441   4.735   1.610   7.886  0.1342  1.5711  0.3304
  226MOL0     C30442   4.594   1.596   7.892  0.3495 -0.0146 -0.1278
  226MOL0     H30443   4.131   1.382   7.994 -0.1651  0.1738  0.6029
  226MOL0     H30444   3.875   1.372   7.956 -0.3042 -0.3469 -1.5292
  226MOL0     H30445   3.740   1.155   7.655 -1.4316 -1.0019 -1.9772
  226MOL0     H30446   3.597   1.208   7.730  0.8331  0.8609  2.1840
  226MOL0     H30447   3.614   1.403   7.539  0.2373  0.6140 -0.6514
  226MOL0     H30448   3.729   1.301   7.459  1.2797  1.4259  1.6363
  226MOL0     H30449   3.546   1.226   7.346 -3.3893 -0.4759 -0.1159
  226MOL0     H30450   3.536   1.118   7.483 -0.6912 -0.1106 -0.3600
  226MOL0     H30451   3.377   1.299   7.584  0.9419  0.6254  0.3404
  226MOL0     H30452   3.363   1.354   7.412 -2.2222 -1.3933 -0.3980
  226MOL0     H30453   3.307   1.064   7.483 -1.0852 -1.5007 -0.8670
  226MOL0     H30454   3.184   1.195   7.473  0.0733 -0.8870 -1.9862
  226MOL0     H30455   3.242   1.239   7.249  0.8464 -0.9665 -1.4538
  226MOL0     H30456   3.372   1.117   7.256 -1.0505 -6.8084 -0.1442
  226MOL0     H30457   3.163   1.052   7.134 -1.9627 -2.4049  0.3394
  226MOL0     H30458   3.203   0.932   7.253 -1.2312  0.1209  0.8545
  226MOL0     H30459   3.001   1.160   7.300 -1.3979 -0.8410 -1.5257
  226MOL0     H30460   3.022   1.032   7.417 -1.7448  0.5264 -0.4763
  226MOL0     H30461   2.906   1.068   7.035  1.0466 -1.1274 -1.0966
  226MOL0     H30462   2.746   0.952   6.896 -3.1651 -0.3978 -2.3086
  226MOL0     H30463   2.726   0.777   6.938 -0.7478 -0.8125  0.7781
  226MOL0     H30464   2.515   0.908   6.900  2.7635  2.0975 -2.2754
  226MOL0     H30465   2.556   1.005   7.045 -2.0408  2.0123 -3.6867
  226MOL0     H30466   2.527   0.825   7.197  1.5709  2.6780 -1.0951
  226MOL0     H30467   2.507   0.701   7.062  1.3834 -1.0168  2.8415
  226MOL0     H30468   2.298   0.716   7.103  0.5712 -0.8340  0.4137
  226MOL0     H30469   2.323   0.858   6.993  2.6652  0.2770 -0.4861
  226MOL0     H30470   2.137   0.851   6.980  2.5724  1.0400  0.3381
  226MOL0     H30471   1.789   0.887   6.884 -1.1033  2.3474  0.0269
  226MOL0     H30472   1.885   1.035   6.850 -0.7963 -1.3325 -2.6804
  226MOL0     H30473   1.948   0.869   6.827 -3.2836 -1.2913 -1.5104
  226MOL0     H30474   1.647   1.240   7.432  2.8794 -1.0406 -1.7272
  226MOL0     H30475   1.432   1.352   7.477 -1.5686 -0.8476  0.0232
  226MOL0     H30476   1.277   1.542   7.425 -0.7803  2.8034  0.5862
  226MOL0     H30477   1.266   1.568   7.250  0.5178 -1.0155  0.6728
  226MOL0     H30478   1.067   1.662   7.351  0.5667 -0.6545  1.7908
  226MOL0     H30479   1.017   1.526   7.259 -1.9257  2.9846  0.1338
  226MOL0     H30480   1.066   1.513   7.559  0.3045  1.2342 -1.1998
  226MOL0     H30481   0.988   1.393   7.466  2.3464 -0.3045  0.1465
  226MOL0     H30482   0.867   1.663   7.505  1.4303  0.6113  0.1617
  226MOL0     H30483   0.811   1.546   7.380 -1.2264 -1.0973  0.2493
  226MOL0     H30484   0.832   1.526   7.688  0.5593  2.2419 -1.9762
  226MOL0     H30485   0.817   1.381   7.593 -2.0259 -0.9147 -2.0061
  226MOL0     H30486   0.596   1.486   7.496  3.5312 -0.9470 -0.4979
  226MOL0     H30487   0.595   1.451   7.666 -1.0443  1.0768  0.6397
  226MOL0     H30488   0.666   1.728   7.550  0.5086  1.4864  1.0676
  226MOL0     H30489   0.662   1.682   7.725 -1.1248  2.6134 -0.3563
  226MOL0     H30490   0.421   1.683   7.533  2.6007 -1.1962 -1.4643
  226MOL0     H30491   0.446   1.808   7.652 -0.1047 -0.1937 -0.0854
  226MOL0     H30492   1.327   1.295   7.062 -1.3363 -2.7978 -1.0887
  226MOL0     H30493   1.557   1.247   7.023  0.0716  1.1509  0.0696
  226MOL0     H30494   1.918   1.095   7.335 -0.1049  1.2184 -0.7967
  226MOL0     H30495   2.146   1.035   7.351 -0.7613 -2.8933  2.1625
  226MOL0     H30496   3.947   1.326   7.535  0.3354  0.3312  0.5484
  226MOL0     H30497   4.186   1.341   7.576  0.4299 -0.1042  0.1893
  226MOL0     H30498   4.560   1.294   7.748 -0.5183  1.0604 -3.2847
  226MOL0     H30499   4.821   1.322   7.731  0.5926 -0.2537 -0.0426
  226MOL0     H30500   4.986   1.708   7.906 -0.7512 -0.1264  1.4240
  226MOL0     H30501   5.036   1.560   7.991 -0.5820 -0.1412  0.5948
  226MOL0     H30502   5.188   1.739   7.830  1.8131 -0.1237  0.7541
  226MOL0     H30503   5.167   1.616   7.717  1.5609 -0.5381  0.0810
  226MOL0     H30504   5.293   1.578   7.988 -0.0100  0.0337 -0.5199
  226MOL0     H30505   5.358   1.565   7.826 -0.0965  1.0192  1.0693
  226MOL0     H30506   5.183   1.359   7.826  2.3489  0.3610 -1.3934
  226MOL0     H30507   5.184   1.380   7.994  1.2397  0.4555  0.5741
  226MOL0     H30508   5.575   1.227   7.944 -1.8015 -3.0380 -0.1334
  226MOL0     H30509   4.774   1.697   7.938 -0.0083  1.0125  1.4069
  226MOL0     H30510   4.533   1.667   7.947 -1.4581 -2.5755  1.3598
  227MOL0     O30511   8.911   1.382   6.659  0.1686  0.5709  0.6170
  227MOL0     C30512   8.959   1.448   6.749  1.0125  0.1094  0.2261
  227MOL0     O30513   8.879   1.511   6.844 -0.2775  0.7862  0.5557
  227MOL0     C30514   8.754   1.553   6.843 -0.3072  0.4980  0.3672
  227MOL0     C30515   8.670   1.548   6.736  0.0795  0.4835  0.3300
  227MOL0     C30516   8.542   1.594   6.734  0.7911  1.0438  0.4797
  227MOL0     C30517   8.485   1.644   6.852  1.1166  0.8054 -0.3171
  227MOL0     O30518   8.345   1.674   6.858 -0.0689  0.2913  0.0884
  227MOL0     C30519   8.264   1.572   6.918 -0.2994  0.2235 -0.1464
  227MOL0     C30520   8.146   1.546   6.837  0.9821 -0.4657 -0.1140
  227MOL0     C30521   8.048   1.454   6.909  0.3099 -0.3638 -0.5513
  227MOL0     C30522   7.923   1.444   6.817  0.1204 -0.2886 -0.3417
  227MOL0     C30523   7.817   1.364   6.888 -0.0653  0.1091  0.5428
  227MOL0     C30524   7.686   1.362   6.811 -0.1527  0.1873  0.2905
  227MOL0     C30525   7.569   1.335   6.895  0.2904  0.0825 -0.2777
  227MOL0     C30526   7.450   1.308   6.803 -0.3385  0.4978 -0.2345
  227MOL0     N30527   7.339   1.255   6.871 -0.6481  0.2706  0.1612
  227MOL0     C30528   7.340   1.143   6.945  0.8790 -0.0279 -0.1616
  227MOL0     C30529   7.218   1.137   6.998 -0.0083  0.9384  0.3971
  227MOL0     C30530   7.161   1.047   7.097 -0.4652  0.1021 -0.5841
  227MOL0     C30531   7.196   0.896   7.085 -1.2474 -0.3978 -0.1988
  227MOL0     C30532   7.134   0.804   7.192 -0.0193  0.4818  0.1779
  227MOL0     C30533   6.990   0.825   7.225  0.1281 -0.0044  0.2749
  227MOL0     O30534   6.909   0.832   7.109 -0.1323  0.3592  0.2038
  227MOL0     C30535   6.771   0.870   7.115 -0.2399  0.4928 -0.4215
  227MOL0     C30536   6.724   0.956   7.216  0.2098 -0.2307 -0.1094
  227MOL0     C30537   6.587   0.992   7.226 -0.1064  0.5612 -0.7296
  227MOL0     C30538   6.547   1.064   7.356 -0.5359  0.0560  0.2938
  227MOL0     C30539   6.489   0.935   7.131 -0.0313 -0.2751  0.5061
  227MOL0     C30540   6.344   0.970   7.130  0.8441  0.3385  0.2615
  227MOL0     O30541   6.306   1.089   7.180  0.5649 -0.8514 -0.1109
  227MOL0     C30542   6.181   1.147   7.152  0.2044  0.2287 -0.7208
  227MOL0     C30543   6.118   1.217   7.259 -0.9012  0.1442 -0.2277
  227MOL0     C30544   5.995   1.278   7.242 -0.3723 -0.0390  0.2373
  227MOL0     C30545   5.932   1.279   7.119  0.1161  0.7155 -0.0714
  227MOL0     O30546   5.810   1.332   7.105  0.3959  0.1640  0.0344
  227MOL0     C30547   5.815   1.465   7.061 -1.0934 -0.3536 -0.1922
  227MOL0     C30548   5.678   1.535   7.080 -0.2177  0.1597  0.2933
  227MOL0     C30549   5.570   1.452   7.015  0.3973  0.0513 -0.5289
  227MOL0     C30550   5.439   1.518   7.027  0.0483  0.2675  0.7717
  227MOL0     C30551   5.318   1.442   6.962  0.0920 -1.2885 -1.0029
  227MOL0     C30552   5.202   1.539   6.922 -0.5648 -0.4264  0.9088
  227MOL0     C30553   5.249   1.648   6.826  0.4537 -0.7790 -0.0793
  227MOL0     C30554   5.120   1.715   6.765 -0.6881 -0.2182 -0.0517
  227MOL0    Cl30555   5.168   1.833   6.642 -0.3373 -0.3498 -0.2773
  227MOL0     C30556   6.001   1.225   7.010  0.5201  0.2531  0.0505
  227MOL0     C30557   6.119   1.153   7.025  0.9435  0.8330 -0.2069
  227MOL0     O30558   6.264   0.880   7.103  0.0498  0.5298 -0.3236
  227MOL0     C30559   6.540   0.851   7.030  1.1028  0.1859 -0.0577
  227MOL0     C30560   6.676   0.826   7.025 -0.2066  0.6661 -0.4135
  227MOL0     N30561   7.147   1.247   6.955  1.1762  0.0791  1.3021
  227MOL0     N30562   7.213   1.317   6.874 -0.1950  0.3539  1.0833
  227MOL0     C30563   8.563   1.636   6.972 -0.4699 -0.4075 -0.2815
  227MOL0     C30564   8.702   1.596   6.967  0.3232 -0.1016 -0.0446
  227MOL0     C30565   9.100   1.480   6.742 -0.8453  0.5998  0.4412
  227MOL0     C30566   9.139   1.592   6.812  0.4266  0.1292  0.2033
  227MOL0     C30567   9.275   1.624   6.811  0.2829  0.2190  0.4110
  227MOL0     C30568   9.366   1.549   6.739 -0.4992 -0.3407  0.6394
  227MOL0     O30569   9.493   1.604   6.735  0.2998 -0.3316 -0.1287
  227MOL0     C30570   9.592   1.541   6.658  0.4105 -0.3414 -0.2052
  227MOL0     C30571   9.732   1.598   6.695 -0.0550  0.3660 -1.2574
  227MOL0     C30572   9.842   1.506   6.651  0.5733  0.1218 -0.0977
  227MOL0     C30573   9.967   1.533   6.734 -0.9179 -0.5916  0.0294
  227MOL0     C30574  10.064   1.420   6.732  1.2387 -1.1400  0.4511
  227MOL0     C30575  10.125   1.319   6.727 -0.5046  0.2170  0.3418
  227MOL0     C30576   9.323   1.429   6.677 -0.3198  0.7417 -0.3713
  227MOL0     C30577   9.192   1.390   6.685  0.6212 -0.0354  0.2885
  227MOL0     H30578   8.726   1.515   6.649  2.1079  0.6078  1.5055
  227MOL0     H30579   8.493   1.607   6.638  2.5062  1.1452 -0.4275
  227MOL0     H30580   8.308   1.472   6.914 -1.4542 -0.2647 -1.5542
  227MOL0     H30581   8.251   1.596   7.024  1.0163 -1.7500  0.5133
  227MOL0     H30582   8.107   1.644   6.810 -2.0866 -1.4708  0.2557
  227MOL0     H30583   8.189   1.501   6.746  1.5691 -2.2197  0.9722
  227MOL0     H30584   8.091   1.354   6.911 -1.6570 -1.2994 -1.6730
  227MOL0     H30585   8.026   1.483   7.012 -2.4546  1.2854 -1.5040
  227MOL0     H30586   7.887   1.548   6.811 -0.0921 -0.2746  0.8806
  227MOL0     H30587   7.946   1.402   6.719  1.0980 -3.9276  1.2761
  227MOL0     H30588   7.839   1.258   6.903 -1.9695 -0.5736 -1.0217
  227MOL0     H30589   7.803   1.427   6.977  1.6092  0.4786  0.5808
  227MOL0     H30590   7.678   1.460   6.763  2.8764 -0.2180 -1.2591
  227MOL0     H30591   7.697   1.288   6.731 -0.0219 -1.6401  1.9174
  227MOL0     H30592   7.591   1.245   6.952 -1.0496 -1.7253 -2.4338
  227MOL0     H30593   7.554   1.429   6.949  1.0287  0.6368 -1.0026
  227MOL0     H30594   7.482   1.233   6.729  0.2198  0.4947  0.0045
  227MOL0     H30595   7.418   1.399   6.753 -2.4215 -0.0101  0.0784
  227MOL0     H30596   7.426   1.082   6.970  2.0530  2.3508  2.1828
  227MOL0     H30597   7.198   1.093   7.190 -1.5446  0.3894 -0.2866
  227MOL0     H30598   7.053   1.059   7.085 -0.1738  4.6791 -0.4187
  227MOL0     H30599   7.303   0.871   7.087 -0.8165  0.9686 -2.3990
  227MOL0     H30600   7.161   0.870   6.985  0.1243  0.9997 -1.0922
  227MOL0     H30601   7.188   0.826   7.284  1.2504  3.3617 -1.1516
  227MOL0     H30602   7.146   0.702   7.153  0.4152  1.2024 -1.6883
  227MOL0     H30603   6.978   0.921   7.275  0.0000  0.6568 -0.9998
  227MOL0     H30604   6.956   0.738   7.283  3.2894 -1.6374 -0.1180
  227MOL0     H30605   6.792   0.998   7.289  2.0491 -0.4771 -1.5997
  227MOL0     H30606   6.530   1.169   7.331  1.2004  0.2756 -0.0958
  227MOL0     H30607   6.458   1.015   7.398  0.5172 -1.0841  1.2432
  227MOL0     H30608   6.618   1.062   7.439 -1.5896 -0.6506  1.1996
  227MOL0     H30609   6.162   1.209   7.358  4.8286 -0.5926 -2.4140
  227MOL0     H30610   5.936   1.321   7.323 -3.2613  1.2979 -2.3868
  227MOL0     H30611   5.892   1.523   7.113 -2.2631 -1.9938  3.6828
  227MOL0     H30612   5.845   1.455   6.956 -0.7369 -2.2904  0.0600
  227MOL0     H30613   5.648   1.538   7.185 -0.3936  1.5128  0.2226
  227MOL0     H30614   5.680   1.639   7.047  1.6473  0.7528  2.0341
  227MOL0     H30615   5.558   1.355   7.063 -1.7853 -1.9624 -4.6584
  227MOL0     H30616   5.590   1.425   6.911  0.8133 -1.3299 -0.1045
  227MOL0     H30617   5.401   1.534   7.128 -1.9250 -0.0415  0.1242
  227MOL0     H30618   5.446   1.619   6.984  0.6659 -0.0183  0.1865
  227MOL0     H30619   5.285   1.364   7.031  2.0954 -1.1790  0.1450
  227MOL0     H30620   5.342   1.385   6.871 -1.6786 -1.8352 -1.1727
  227MOL0     H30621   5.118   1.485   6.878 -3.0169  1.3337  3.1153
  227MOL0     H30622   5.157   1.584   7.012 -0.8998  0.1128  0.4813
  227MOL0     H30623   5.308   1.600   6.747  0.8465 -2.4529  1.1776
  227MOL0     H30624   5.301   1.730   6.875 -0.6100 -3.1981  6.0570
  227MOL0     H30625   5.070   1.771   6.844  0.2686  1.6296 -0.7082
  227MOL0     H30626   5.058   1.639   6.715 -0.6754  0.0136 -0.4258
  227MOL0     H30627   5.960   1.236   6.910  0.0671  0.1014  0.2187
  227MOL0     H30628   6.160   1.109   6.935  0.0417  0.9970 -0.7126
  227MOL0     H30629   6.481   0.806   6.951  2.0217 -0.9080 -0.1463
  227MOL0     H30630   6.716   0.773   6.939 -0.7857  2.7282 -2.0441
  227MOL0     H30631   8.527   1.672   7.068 -1.2733  1.9406 -1.3987
  227MOL0     H30632   8.753   1.597   7.062 -3.3629  0.2609  2.1100
  227MOL0     H30633   9.062   1.650   6.862  0.3105 -0.4901  0.7511
  227MOL0     H30634   9.302   1.716   6.861 -0.0162  0.0771  0.8320
  227MOL0     H30635   9.568   1.435   6.673 -1.3261 -0.4613 -3.1508
  227MOL0     H30636   9.575   1.562   6.552  1.5419  1.7548 -0.0131
  227MOL0     H30637   9.734   1.597   6.804  0.9042  0.0778 -1.2732
  227MOL0     H30638   9.743   1.702   6.665  0.4348  0.9308  0.7512
  227MOL0     H30639   9.844   1.510   6.542 -1.5933  4.0104 -0.1860
  227MOL0     H30640   9.810   1.404   6.673 -3.9903  1.3671 -0.0617
  227MOL0     H30641   9.939   1.560   6.836 -1.1060  1.1153 -0.4402
  227MOL0     H30642  10.014   1.621   6.689  1.5364 -1.4237  0.8365
  227MOL0     H30643  10.186   1.233   6.710 -2.5401 -1.0233 -1.1543
  227MOL0     H30644   9.391   1.356   6.633 -0.8877  0.5216 -0.8937
  227MOL0     H30645   9.157   1.293   6.651  0.7596 -0.7432  2.0716
  228MOL0     O30646   9.516   2.968   4.089 -0.0806  0.3720  0.0757
  228MOL0     C30647   9.623   2.997   4.149 -0.0708  0.4790  0.4578
  228MOL0     O30648   9.627   3.057   4.271 -1.1373 -0.9199  0.8006
  228MOL0     C30649   9.526   3.124   4.334  0.0062 -0.1907  0.1702
  228MOL0     C30650   9.445   3.058   4.425  0.3631 -0.5088 -0.3811
  228MOL0     C30651   9.357   3.134   4.506 -0.0473  1.0289  0.1308
  228MOL0     C30652   9.352   3.275   4.491 -0.4963  0.6076  0.4496
  228MOL0     O30653   9.271   3.357   4.558 -0.4681  0.3595  0.4673
  228MOL0     C30654   9.140   3.316   4.608 -0.0804 -0.2001 -0.0267
  228MOL0     C30655   9.071   3.439   4.654  0.1815  0.0023  0.0128
  228MOL0     C30656   8.925   3.420   4.699 -0.1743  0.0635  0.6662
  228MOL0     C30657   8.881   3.525   4.804  0.0337 -0.1439  0.1039
  228MOL0     C30658   8.731   3.537   4.812  0.0525  0.1920  0.6922
  228MOL0     C30659   8.701   3.641   4.927  0.4429  0.3038  0.4174
  228MOL0     C30660   8.556   3.677   4.930  0.8303  0.2771 -0.1499
  228MOL0     C30661   8.474   3.565   5.002  0.5651 -0.1834 -0.0821
  228MOL0     N30662   8.516   3.545   5.143  0.1957 -0.1122  0.4374
  228MOL0     C30663   8.592   3.442   5.188 -0.1703 -0.5344 -0.1053
  228MOL0     C30664   8.625   3.482   5.319  0.3124  0.3540 -0.1564
  228MOL0     C30665   8.701   3.403   5.419 -0.6316 -0.7863  0.0227
  228MOL0     C30666   8.631   3.272   5.451  0.0504 -0.7502 -0.4461
  228MOL0     C30667   8.506   3.297   5.533  0.0536 -0.1540 -0.0793
  228MOL0     C30668   8.423   3.176   5.553 -0.0870 -0.4748  0.3248
  228MOL0     O30669   8.385   3.107   5.429 -0.0330  0.0682 -0.0682
  228MOL0     C30670   8.265   3.137   5.368  0.1841  0.3641 -0.4087
  228MOL0     C30671   8.220   3.043   5.278  0.4176  0.1082  0.2402
  228MOL0     C30672   8.100   3.059   5.202  0.7451 -0.2973  0.5625
  228MOL0     C30673   8.067   2.952   5.106 -0.5366 -0.0272  0.2595
  228MOL0     C30674   8.015   3.170   5.227  0.9353  0.1294  0.2633
  228MOL0     C30675   7.880   3.209   5.167 -0.4924 -0.6114  0.1502
  228MOL0     O30676   7.798   3.280   5.249 -0.6164  0.0458  0.4819
  228MOL0     C30677   7.666   3.300   5.233 -0.1392 -1.4732  0.3369
  228MOL0     C30678   7.611   3.406   5.305 -0.5860 -0.2043  0.3339
  228MOL0     C30679   7.469   3.420   5.307  0.3511 -1.0249  0.0848
  228MOL0     C30680   7.380   3.338   5.235 -0.1999 -0.2534  0.5708
  228MOL0     O30681   7.241   3.362   5.241  0.2284 -0.6945  0.0934
  228MOL0     C30682   7.160   3.301   5.141 -0.1479 -0.9239 -0.6666
  228MOL0     C30683   7.052   3.397   5.103 -0.1670  0.2277  0.1199
  228MOL0     C30684   6.970   3.445   5.231  0.6330 -1.0207  0.1831
  228MOL0     C30685   6.844   3.541   5.193 -0.6047 -0.1480 -0.5183
  228MOL0     C30686   6.754   3.551   5.319 -0.3457 -0.2396 -0.2979
  228MOL0     C30687   6.607   3.585   5.278  0.2610 -0.3158  0.8952
  228MOL0     C30688   6.540   3.664   5.387  0.0074 -0.6396 -0.0855
  228MOL0     C30689   6.389   3.637   5.403  0.5311 -0.9563 -0.5527
  228MOL0    Cl30690   6.298   3.745   5.298  0.3446 -0.4775 -0.3757
  228MOL0     C30691   7.440   3.235   5.164 -0.1656 -0.0733 -0.5178
  228MOL0     C30692   7.579   3.227   5.153  0.0157  0.1640 -0.0163
  228MOL0     O30693   7.853   3.165   5.055 -0.4211  0.3181  0.0502
  228MOL0     C30694   8.058   3.259   5.329 -0.7861 -0.8479  0.4320
  228MOL0     C30695   8.177   3.242   5.399 -0.5480  0.3023  0.4880
  228MOL0     N30696   8.574   3.611   5.342 -0.0794  0.2060  0.5243
  228MOL0     N30697   8.513   3.645   5.234  1.1345  0.6558  0.2321
  228MOL0     C30698   9.434   3.336   4.402  0.0865  0.4497  0.5529
  228MOL0     C30699   9.516   3.257   4.313 -0.0844  0.1065 -0.4360
  228MOL0     C30700   9.750   2.955   4.090  0.2296 -0.2273 -0.0089
  228MOL0     C30701   9.874   3.005   4.137 -0.2221  0.0537  0.0773
  228MOL0     C30702   9.994   2.950   4.099 -0.4348 -0.6538  0.2667
  228MOL0     C30703  10.004   2.843   4.010 -0.1993  0.8348 -0.8257
  228MOL0     O30704  10.131   2.796   3.987  0.5648 -0.2480  0.8055
  228MOL0     C30705  10.158   2.687   3.901  0.8290  0.1357 -0.1731
  228MOL0     C30706  10.295   2.624   3.926  0.2855  1.1425  0.0270
  228MOL0     C30707  10.401   2.732   3.885  0.1061 -0.3043 -0.1595
  228MOL0     C30708  10.542   2.679   3.899 -0.5010  0.0327 -0.3179
  228MOL0     C30709  10.566   2.585   3.784 -0.4729  0.3312  0.1084
  228MOL0     C30710  10.553   2.516   3.687  0.0126  0.0901 -0.6775
  228MOL0     C30711   9.880   2.789   3.959  0.0648  0.0930 -0.9360
  228MOL0     C30712   9.760   2.850   3.989  0.3704 -0.2964 -1.2918
  228MOL0     H30713   9.463   2.952   4.439 -0.7112 -0.7403 -0.6133
  228MOL0     H30714   9.297   3.088   4.584 -1.2112  0.9911 -0.7583
  228MOL0     H30715   9.082   3.274   4.526 -0.7496 -0.1718  0.4258
  228MOL0     H30716   9.160   3.243   4.688  1.6183 -0.3537 -0.5423
  228MOL0     H30717   9.136   3.483   4.731 -1.2416  0.2489  1.1086
  228MOL0     H30718   9.074   3.507   4.568  2.0950  0.5533  0.4625
  228MOL0     H30719   8.861   3.431   4.611  2.6429 -3.6028 -2.1780
  228MOL0     H30720   8.904   3.320   4.740  1.2321  0.3944  2.3014
  228MOL0     H30721   8.923   3.479   4.894  2.3010 -0.0045 -0.8443
  228MOL0     H30722   8.924   3.625   4.796 -2.1849  1.0703  1.9174
  228MOL0     H30723   8.688   3.574   4.718  1.0386 -0.5651 -0.0819
  228MOL0     H30724   8.681   3.442   4.833  0.5480 -0.2369 -0.0507
  228MOL0     H30725   8.738   3.600   5.022  1.9837  0.4442 -0.0957
  228MOL0     H30726   8.755   3.732   4.897 -2.5725  2.1033  0.0853
  228MOL0     H30727   8.542   3.770   4.985  1.4460 -0.5158  1.4178
  228MOL0     H30728   8.522   3.689   4.827 -0.7069  0.4887  0.3534
  228MOL0     H30729   8.460   3.474   4.944  1.8844  0.1443 -0.9649
  228MOL0     H30730   8.374   3.607   5.012 -1.1191 -3.9590  0.4007
  228MOL0     H30731   8.610   3.350   5.133  1.2730 -0.9119  0.9591
  228MOL0     H30732   8.797   3.381   5.370 -0.2064 -0.7076  0.8089
  228MOL0     H30733   8.727   3.462   5.507 -2.1673  2.4244 -1.4920
  228MOL0     H30734   8.705   3.209   5.501 -0.8080 -1.8002 -0.4629
  228MOL0     H30735   8.617   3.216   5.358  2.3782 -0.5623 -0.9863
  228MOL0     H30736   8.445   3.376   5.487 -0.3772 -1.1330 -1.2719
  228MOL0     H30737   8.545   3.330   5.629 -2.0018  1.8686  0.1487
  228MOL0     H30738   8.339   3.191   5.622 -0.3808 -3.3501  0.7390
  228MOL0     H30739   8.482   3.096   5.599  0.3086 -1.4665 -1.7974
  228MOL0     H30740   8.276   2.950   5.274 -0.5744 -0.4755 -2.4120
  228MOL0     H30741   7.962   2.958   5.076 -0.4694 -0.1296 -0.0052
  228MOL0     H30742   8.121   2.969   5.012  0.2653  1.1473  0.9193
  228MOL0     H30743   8.083   2.850   5.143 -0.6798 -1.5104 -3.2818
  228MOL0     H30744   7.680   3.476   5.352  0.9762 -2.0063  0.8199
  228MOL0     H30745   7.429   3.501   5.367  2.7077  0.4956 -0.2323
  228MOL0     H30746   7.217   3.286   5.049  1.3659 -0.5577  0.1830
  228MOL0     H30747   7.116   3.208   5.181 -1.7519 -0.9034 -2.2449
  228MOL0     H30748   7.112   3.482   5.068 -0.1110  0.2232  0.2048
  228MOL0     H30749   6.988   3.351   5.028  0.1776  0.7229 -0.4832
  228MOL0     H30750   7.040   3.508   5.288 -1.7857  0.9581  1.1160
  228MOL0     H30751   6.939   3.352   5.279  0.0159 -1.1848 -0.5197
  228MOL0     H30752   6.874   3.640   5.159  0.3687 -1.2066 -3.0039
  228MOL0     H30753   6.795   3.491   5.109 -0.7167 -0.1484 -0.4534
  228MOL0     H30754   6.787   3.615   5.402  0.1839 -0.3689 -0.3997
  228MOL0     H30755   6.755   3.447   5.353  1.7210  0.4821  2.1670
  228MOL0     H30756   6.610   3.636   5.182  1.0079 -0.7052  0.7034
  228MOL0     H30757   6.554   3.491   5.259 -1.6423  0.3195  2.7344
  228MOL0     H30758   6.554   3.772   5.378  0.7249 -0.4706  2.1954
  228MOL0     H30759   6.582   3.632   5.483 -0.3808  0.4527  0.4658
  228MOL0     H30760   6.360   3.657   5.507  2.1129  0.3007 -0.3136
  228MOL0     H30761   6.363   3.534   5.377 -0.4758 -0.2474 -2.6213
  228MOL0     H30762   7.379   3.173   5.100 -0.6587 -0.0885 -0.0342
  228MOL0     H30763   7.620   3.145   5.095  0.2886 -0.3351  0.8714
  228MOL0     H30764   8.005   3.352   5.344  1.9750  1.0243 -0.7860
  228MOL0     H30765   8.213   3.318   5.468  1.5598 -2.1831  2.3031
  228MOL0     H30766   9.456   3.442   4.392  0.5437  0.2923 -0.1800
  228MOL0     H30767   9.594   3.294   4.248  0.8741 -1.2287 -0.0928
  228MOL0     H30768   9.888   3.088   4.205  1.2237 -0.7711  0.8339
  228MOL0     H30769  10.085   2.985   4.145 -0.5171  0.5329 -0.4519
  228MOL0     H30770  10.088   2.606   3.925 -0.6551  1.1911 -0.8048
  228MOL0     H30771  10.150   2.719   3.797  0.0962 -0.3132 -0.2674
  228MOL0     H30772  10.311   2.533   3.867 -1.7562  1.1256 -0.5530
  228MOL0     H30773  10.307   2.586   4.027 -1.6732 -1.9073 -0.7576
  228MOL0     H30774  10.397   2.820   3.949 -0.7725  0.6761 -1.5063
  228MOL0     H30775  10.387   2.759   3.780  2.0229 -0.8384 -0.5952
  228MOL0     H30776  10.561   2.629   3.994 -2.4882  0.2848  0.2440
  228MOL0     H30777  10.623   2.753   3.901 -1.0092  0.5962 -0.0965
  228MOL0     H30778  10.534   2.449   3.606 -2.6076 -1.5725  1.1475
  228MOL0     H30779   9.885   2.708   3.887  2.3976  0.7276 -1.5830
  228MOL0     H30780   9.675   2.805   3.940 -0.6801  0.1693  0.0687
  229MOL0     O30781   4.079   0.825   1.762 -0.1392 -0.1570  0.0683
  229MOL0     C30782   4.147   0.727   1.772  0.3099  0.0740  0.9677
  229MOL0     O30783   4.112   0.600   1.735 -0.2172  0.4389  0.2003
  229MOL0     C30784   3.988   0.565   1.713  1.0461 -0.3314  0.2673
  229MOL0     C30785   3.893   0.548   1.817  0.2052  0.3992  0.1178
  229MOL0     C30786   3.762   0.500   1.794 -0.0592  0.4783  0.0954
  229MOL0     C30787   3.719   0.473   1.668  0.7116  0.7157 -0.4190
  229MOL0     O30788   3.597   0.426   1.630  0.4482  0.0416  0.8716
  229MOL0     C30789   3.493   0.434   1.723 -0.4466 -0.1750 -0.3584
  229MOL0     C30790   3.366   0.378   1.659  0.4863 -1.0180  0.0284
  229MOL0     C30791   3.242   0.388   1.748  0.0361  0.2842  0.5007
  229MOL0     C30792   3.113   0.344   1.676  0.6369 -0.1772  0.2348
  229MOL0     C30793   3.011   0.284   1.769 -0.3906 -0.8367 -0.6988
  229MOL0     C30794   2.951   0.385   1.866 -0.9206  0.4666  0.2275
  229MOL0     C30795   2.861   0.497   1.811  0.4720  0.0647  0.1923
  229MOL0     C30796   2.727   0.447   1.777  0.6521  0.1763  0.7322
  229MOL0     N30797   2.629   0.435   1.891 -0.4011 -0.5384 -0.6191
  229MOL0     C30798   2.515   0.362   1.882  0.0635  0.4968  0.1864
  229MOL0     C30799   2.435   0.397   1.989 -0.6364  1.2384  0.5018
  229MOL0     C30800   2.297   0.337   2.015  0.2264 -0.1302  0.0487
  229MOL0     C30801   2.211   0.337   1.883  1.4201  0.0577  0.4927
  229MOL0     C30802   2.083   0.263   1.917  0.1164 -0.6448 -0.3103
  229MOL0     C30803   1.971   0.282   1.813 -0.6658 -0.0506  0.2521
  229MOL0     O30804   1.854   0.203   1.836 -0.4558  0.3637 -0.2939
  229MOL0     C30805   1.750   0.246   1.922  0.3621  0.0516  0.2294
  229MOL0     C30806   1.624   0.241   1.855 -0.0106 -0.1250  0.4832
  229MOL0     C30807   1.508   0.285   1.908  1.0336 -0.0740 -0.3635
  229MOL0     C30808   1.392   0.301   1.809  0.8167 -0.1883 -0.7457
  229MOL0     C30809   1.508   0.323   2.043 -0.5538 -0.6391 -0.1872
  229MOL0     C30810   1.390   0.366   2.119 -0.7379  0.6058 -0.9960
  229MOL0     O30811   1.267   0.328   2.075  0.0535  0.3792 -0.4605
  229MOL0     C30812   1.151   0.400   2.103 -0.1549 -0.3863  0.1984
  229MOL0     C30813   1.126   0.488   2.212  0.4266  0.6552 -0.0570
  229MOL0     C30814   0.992   0.527   2.238  0.1751  0.3486 -0.4979
  229MOL0     C30815   0.885   0.487   2.152 -0.5092 -0.6118 -0.1184
  229MOL0     O30816   0.762   0.548   2.156  0.8567 -0.7859 -0.5254
  229MOL0     C30817   0.730   0.646   2.263  0.4055  0.2277  0.1225
  229MOL0     C30818   0.587   0.699   2.259 -0.6444 -0.1430 -0.0921
  229MOL0     C30819   0.554   0.774   2.133  0.4393  0.1609  0.3346
  229MOL0     C30820   0.412   0.837   2.148 -0.1771  0.2399  0.4895
  229MOL0     C30821   0.371   0.932   2.038  0.7935  0.2338  0.2143
  229MOL0     C30822   0.381   0.884   1.892  1.1056  0.6341  0.6884
  229MOL0     C30823   0.312   0.746   1.863 -0.0056 -0.7756 -0.1302
  229MOL0     C30824   0.293   0.721   1.716  0.2492 -1.0237  0.4159
  229MOL0    Cl30825   0.199   0.852   1.636 -0.3308  0.0301 -0.1402
  229MOL0     C30826   0.911   0.402   2.048 -1.2482  0.2195  0.2488
  229MOL0     C30827   1.043   0.368   2.020  0.2251 -0.4886 -0.2735
  229MOL0     O30828   1.409   0.437   2.210 -0.5922  0.7212 -0.0778
  229MOL0     C30829   1.632   0.328   2.114 -0.1103 -0.3661  0.3052
  229MOL0     C30830   1.759   0.296   2.054 -0.2372 -0.9121 -0.2537
  229MOL0     N30831   2.501   0.500   2.056  0.7778 -0.9522  0.1503
  229MOL0     N30832   2.613   0.518   2.003 -0.6319  0.0019 -0.2646
  229MOL0     C30833   3.817   0.489   1.566 -0.2971  0.2128  0.2199
  229MOL0     C30834   3.945   0.535   1.582 -0.1248  0.3133  0.4368
  229MOL0     C30835   4.291   0.756   1.801  0.7134 -0.5809  0.0188
  229MOL0     C30836   4.338   0.885   1.793 -0.3519  0.3090  0.5813
  229MOL0     C30837   4.478   0.918   1.800  0.4544  0.4695  0.5347
  229MOL0     C30838   4.573   0.815   1.818 -0.6415 -0.0701 -0.8469
  229MOL0     O30839   4.711   0.822   1.818 -0.7536 -0.1472  0.6362
  229MOL0     C30840   4.771   0.955   1.844  0.5553  0.6794  0.4511
  229MOL0     C30841   4.931   0.945   1.850 -0.3098 -0.3181  0.0318
  229MOL0     C30842   5.001   1.070   1.929  0.7208  0.4207  0.4090
  229MOL0     C30843   5.148   1.054   1.921 -0.8099 -0.6756  0.5707
  229MOL0     C30844   5.208   1.155   2.014  0.2394  0.1800  0.4588
  229MOL0     C30845   5.260   1.239   2.081 -0.2498  1.2036  0.2353
  229MOL0     C30846   4.520   0.686   1.826 -0.5627 -0.4632 -0.0599
  229MOL0     C30847   4.384   0.652   1.823  0.1217 -0.1122 -0.6570
  229MOL0     H30848   3.917   0.573   1.920 -2.9299  2.9386  0.4148
  229MOL0     H30849   3.696   0.498   1.880  1.2901 -0.2240  1.1558
  229MOL0     H30850   3.518   0.383   1.817 -0.6174  2.4272  1.2127
  229MOL0     H30851   3.474   0.541   1.733  0.9454  0.3223 -2.4695
  229MOL0     H30852   3.353   0.428   1.562  4.6701  1.9196  0.7081
  229MOL0     H30853   3.381   0.271   1.641 -0.2066 -1.4415  1.7735
  229MOL0     H30854   3.260   0.321   1.833 -0.7359  0.4943  0.8425
  229MOL0     H30855   3.226   0.492   1.780 -1.6521  0.9731 -2.2304
  229MOL0     H30856   3.066   0.434   1.637 -2.1949 -0.2511  3.0661
  229MOL0     H30857   3.129   0.273   1.593  0.8637 -0.1965  0.2947
  229MOL0     H30858   2.927   0.244   1.712 -0.8446 -2.5248  1.0390
  229MOL0     H30859   3.065   0.211   1.831  3.1067  1.1120 -1.1819
  229MOL0     H30860   2.893   0.325   1.938 -2.7670  1.9544  0.0788
  229MOL0     H30861   3.028   0.431   1.929  1.0779 -0.9486 -1.0670
  229MOL0     H30862   2.844   0.568   1.892 -2.1897 -4.2614  3.8772
  229MOL0     H30863   2.906   0.549   1.725 -0.1284  2.0428  1.0145
  229MOL0     H30864   2.734   0.353   1.720 -2.0616 -1.9858  3.6259
  229MOL0     H30865   2.704   0.534   1.715  2.1530  0.3823  0.4271
  229MOL0     H30866   2.483   0.295   1.803 -0.3475  2.1246 -1.0868
  229MOL0     H30867   2.303   0.233   2.050 -0.2040 -0.6416 -1.3068
  229MOL0     H30868   2.244   0.394   2.092  0.1552  0.0256 -0.1160
  229MOL0     H30869   2.255   0.272   1.806 -0.4427 -1.0100  0.2773
  229MOL0     H30870   2.195   0.435   1.838  0.6726 -1.2789 -2.3877
  229MOL0     H30871   2.050   0.300   2.015  0.2182 -2.4927  0.4599
  229MOL0     H30872   2.109   0.157   1.919 -1.7074 -1.1485 -1.1528
  229MOL0     H30873   2.016   0.246   1.719  0.0895  0.7010  0.3141
  229MOL0     H30874   1.941   0.384   1.789  0.8476  0.4034  0.1633
  229MOL0     H30875   1.614   0.206   1.753  2.3244 -0.1862  0.2217
  229MOL0     H30876   1.318   0.221   1.802 -1.6926  1.6698  2.1643
  229MOL0     H30877   1.333   0.392   1.824  2.3370  0.4021  2.4307
  229MOL0     H30878   1.419   0.301   1.703  0.3493  3.4843 -0.9734
  229MOL0     H30879   1.195   0.513   2.292  1.6705  1.1557 -1.2442
  229MOL0     H30880   0.974   0.578   2.332  0.8710 -0.6706  0.2058
  229MOL0     H30881   0.756   0.603   2.360  0.6617  2.0389  0.8972
  229MOL0     H30882   0.803   0.725   2.242  1.6224 -1.2034 -1.3597
  229MOL0     H30883   0.518   0.614   2.266  0.6398 -1.2423 -0.4432
  229MOL0     H30884   0.577   0.766   2.344 -0.3292  0.2045 -0.3283
  229MOL0     H30885   0.545   0.704   2.049  1.9567 -0.4242  0.6231
  229MOL0     H30886   0.630   0.846   2.101 -0.1129  0.4552 -0.3435
  229MOL0     H30887   0.336   0.758   2.156  0.8979 -1.4109 -3.3496
  229MOL0     H30888   0.412   0.897   2.239 -2.2043  1.0911 -0.0308
  229MOL0     H30889   0.441   1.016   2.049 -2.0589  2.5629  2.5401
  229MOL0     H30890   0.273   0.979   2.047 -0.1614 -1.6012 -0.2638
  229MOL0     H30891   0.360   0.964   1.821  0.8541  0.3125  0.3965
  229MOL0     H30892   0.488   0.866   1.873  0.9251 -3.8318  2.6302
  229MOL0     H30893   0.219   0.729   1.919 -0.3667 -0.5832 -0.6603
  229MOL0     H30894   0.383   0.670   1.898 -0.7114 -1.5204 -0.2686
  229MOL0     H30895   0.238   0.626   1.709 -3.0734  0.5329  2.6522
  229MOL0     H30896   0.391   0.705   1.670  0.4423 -0.8256  0.7541
  229MOL0     H30897   0.837   0.373   1.975 -0.7335 -3.8078  1.0890
  229MOL0     H30898   1.070   0.308   1.934  2.5243 -0.4938  0.3644
  229MOL0     H30899   1.633   0.352   2.220  0.7179  1.4396 -0.0586
  229MOL0     H30900   1.849   0.289   2.114 -0.0307  0.7570 -0.3360
  229MOL0     H30901   3.800   0.471   1.461  1.6073 -0.8880  0.0385
  229MOL0     H30902   4.000   0.551   1.490 -1.1596  1.4513 -0.0053
  229MOL0     H30903   4.283   0.975   1.766  1.1697  0.5970 -1.9677
  229MOL0     H30904   4.511   1.020   1.785  2.0116  0.0303  0.8342
  229MOL0     H30905   4.744   1.010   1.753  0.8417  0.8565  0.4716
  229MOL0     H30906   4.728   1.007   1.930 -1.3696  1.4563 -0.8987
  229MOL0     H30907   4.965   0.936   1.747 -0.6558  2.6413 -0.4205
  229MOL0     H30908   4.949   0.850   1.900  0.8193 -0.5187 -0.7186
  229MOL0     H30909   4.964   1.065   2.032 -0.0512  0.8468  0.1622
  229MOL0     H30910   4.963   1.164   1.890  1.5404  0.4413 -0.3721
  229MOL0     H30911   5.175   1.061   1.815 -3.4723 -0.2813 -0.1570
  229MOL0     H30912   5.173   0.953   1.955  1.8250  0.2001  1.5353
  229MOL0     H30913   5.302   1.317   2.141  0.2424  1.3825 -0.3177
  229MOL0     H30914   4.590   0.606   1.849  0.9178  0.5254 -0.9544
  229MOL0     H30915   4.347   0.551   1.833 -1.7158  0.5964  0.3613
  230MOL0     O30916   0.053   1.323   3.555  0.1162 -0.1731  0.2756
  230MOL0     C30917   0.171   1.331   3.518  0.1967 -0.0728  0.1647
  230MOL0     O30918   0.218   1.335   3.398  0.8661 -0.3552 -1.0280
  230MOL0     C30919   0.130   1.382   3.300  0.0123  0.4745 -0.1036
  230MOL0     C30920   0.060   1.505   3.322 -0.2052 -0.1131 -0.0989
  230MOL0     C30921  -0.039   1.543   3.230  0.4572  0.1277 -0.0610
  230MOL0     C30922  -0.063   1.468   3.115  0.4847 -0.2967 -0.4299
  230MOL0     O30923  -0.162   1.512   3.025 -0.0687 -0.1912  0.4937
  230MOL0     C30924  -0.247   1.622   3.053  0.2785  0.2252  0.8169
  230MOL0     C30925  -0.354   1.639   2.942  0.3213  0.5902  0.2334
  230MOL0     C30926  -0.453   1.519   2.957 -0.5682  0.6082  0.8763
  230MOL0     C30927  -0.587   1.532   2.867  0.6333  1.1357 -0.0032
  230MOL0     C30928  -0.689   1.415   2.879  0.2712  0.5590  0.3482
  230MOL0     C30929  -0.826   1.457   2.822 -0.2707  0.3059 -0.4138
  230MOL0     C30930  -0.934   1.362   2.865 -0.2993 -0.4552  0.9512
  230MOL0     C30931  -0.900   1.216   2.844 -0.4923 -0.4491 -0.8860
  230MOL0     N30932  -0.872   1.191   2.706 -0.3243 -0.1173 -0.2664
  230MOL0     C30933  -0.965   1.202   2.605  0.3513  0.6022  0.5904
  230MOL0     C30934  -0.908   1.140   2.497 -0.7108  0.6289  0.7982
  230MOL0     C30935  -0.973   1.114   2.365  0.2034  0.0501  0.1888
  230MOL0     C30936  -0.942   1.223   2.268 -0.5917  0.0210 -0.3448
  230MOL0     C30937  -1.004   1.203   2.124 -0.1009 -0.8426 -0.9243
  230MOL0     C30938  -1.155   1.230   2.117  0.2856  0.5407  0.3918
  230MOL0     O30939  -1.209   1.259   1.991 -0.0698 -0.1331  0.5397
  230MOL0     C30940  -1.338   1.296   1.989 -0.3709  0.0155 -0.2381
  230MOL0     C30941  -1.369   1.334   1.860  0.7674  0.5985 -0.0183
  230MOL0     C30942  -1.496   1.379   1.826 -0.3127  0.4188  0.0898
  230MOL0     C30943  -1.513   1.424   1.679 -0.4757  0.6009 -0.1635
  230MOL0     C30944  -1.595   1.382   1.928  0.6499  0.1116  0.7487
  230MOL0     C30945  -1.734   1.444   1.905 -0.0843 -1.4674 -0.4040
  230MOL0     O30946  -1.843   1.370   1.953 -0.9368 -0.4542  0.0858
  230MOL0     C30947  -1.968   1.423   1.943  0.4102 -0.5464 -1.1578
  230MOL0     C30948  -2.075   1.351   1.893 -0.6870  0.0623 -0.9149
  230MOL0     C30949  -2.199   1.406   1.895 -0.1827 -0.5295  0.3686
  230MOL0     C30950  -2.235   1.538   1.942  0.2325  0.0303 -0.0568
  230MOL0     O30951  -2.366   1.575   1.938  0.5715 -0.6575  0.8033
  230MOL0     C30952  -2.391   1.712   1.923  0.3945  0.7883  0.6451
  230MOL0     C30953  -2.540   1.732   1.901  0.9800  0.0140 -0.0293
  230MOL0     C30954  -2.590   1.874   1.885  0.1443 -0.1573  0.7792
  230MOL0     C30955  -2.743   1.876   1.915 -0.4045 -0.1286 -1.0400
  230MOL0     C30956  -2.817   2.004   1.891 -0.1615  0.3948 -0.2834
  230MOL0     C30957  -2.961   1.987   1.954 -0.0043  0.2599  0.1195
  230MOL0     C30958  -3.065   2.072   1.882  0.6128 -0.1400  0.4110
  230MOL0     C30959  -3.212   2.055   1.946  0.1210 -0.3160 -0.2448
  230MOL0    Cl30960  -3.223   2.141   2.101  0.1629 -0.6750 -0.3314
  230MOL0     C30961  -2.128   1.617   1.998 -1.2108 -0.0007 -0.0303
  230MOL0     C30962  -1.996   1.556   1.992  0.5216 -0.1936 -0.2042
  230MOL0     O30963  -1.746   1.556   1.857  0.3849 -0.5282 -0.0432
  230MOL0     C30964  -1.558   1.357   2.058  0.1672  0.0328 -0.8635
  230MOL0     C30965  -1.431   1.308   2.090 -0.7316 -0.8149 -0.5181
  230MOL0     N30966  -0.777   1.115   2.524 -0.4179 -0.2519  0.4653
  230MOL0     N30967  -0.753   1.135   2.652  0.2912  0.3663  0.3611
  230MOL0     C30968   0.013   1.354   3.088  0.1156 -0.4899  0.2855
  230MOL0     C30969   0.105   1.305   3.182 -0.4058 -0.3988 -0.5738
  230MOL0     C30970   0.286   1.333   3.617  0.6485 -0.0703  0.8910
  230MOL0     C30971   0.273   1.382   3.750  0.0120  0.0928  0.2684
  230MOL0     C30972   0.380   1.370   3.849 -1.0709  0.1479 -1.3285
  230MOL0     C30973   0.503   1.311   3.810 -0.2916 -1.2892 -0.4531
  230MOL0     O30974   0.607   1.297   3.897  0.0341  0.0650 -0.5269
  230MOL0     C30975   0.609   1.157   3.939  0.2450 -0.5037 -0.3894
  230MOL0     C30976   0.719   1.149   4.053 -0.3516 -0.4402  0.0627
  230MOL0     C30977   0.708   1.014   4.133 -0.9503  0.2914 -0.5514
  230MOL0     C30978   0.730   0.881   4.055  0.3563  0.0962 -0.3089
  230MOL0     C30979   0.849   0.888   3.972 -0.3141 -0.5888  0.4589
  230MOL0     C30980   0.949   0.890   3.902  0.5450 -0.7309 -0.2942
  230MOL0     C30981   0.512   1.272   3.680 -1.1870  0.8053 -0.2593
  230MOL0     C30982   0.408   1.277   3.588 -1.0693  0.3599  0.3975
  230MOL0     H30983   0.079   1.553   3.417  1.3074  0.3470 -0.6008
  230MOL0     H30984  -0.098   1.633   3.248  2.2717  1.6038 -1.1954
  230MOL0     H30985  -0.291   1.614   3.153 -0.1902  1.1560  0.6951
  230MOL0     H30986  -0.188   1.714   3.056 -0.4573  0.7440 -0.2499
  230MOL0     H30987  -0.408   1.733   2.954  0.8058  0.8627  0.2988
  230MOL0     H30988  -0.305   1.619   2.846  2.2508 -3.1692  1.7633
  230MOL0     H30989  -0.391   1.439   2.916  1.3152  2.5327 -0.1498
  230MOL0     H30990  -0.474   1.509   3.065 -0.4559 -0.3571  0.8175
  230MOL0     H30991  -0.633   1.620   2.912  0.7421 -0.7838  4.4258
  230MOL0     H30992  -0.553   1.555   2.766  3.0784  1.9877  0.9287
  230MOL0     H30993  -0.641   1.331   2.829 -1.1105 -0.2197  0.2718
  230MOL0     H30994  -0.719   1.404   2.984  0.0519  1.0565  0.3412
  230MOL0     H30995  -0.853   1.559   2.853  0.1561  0.4731 -0.5873
  230MOL0     H30996  -0.814   1.458   2.714  3.6676  0.3077 -0.1359
  230MOL0     H30997  -0.962   1.377   2.970  0.3710 -1.7179  1.3316
  230MOL0     H30998  -1.026   1.385   2.811 -0.8470 -4.4661 -0.1892
  230MOL0     H30999  -0.988   1.159   2.875 -1.5403 -0.7950 -4.0982
  230MOL0     H31000  -0.811   1.195   2.904 -1.7238  1.1943  1.6810
  230MOL0     H31001  -1.070   1.231   2.597 -0.7523 -2.9575  0.7028
  230MOL0     H31002  -0.933   1.022   2.322  1.5406  1.3548 -1.5169
  230MOL0     H31003  -1.079   1.090   2.373 -0.1326  0.5674 -2.2318
  230MOL0     H31004  -0.833   1.221   2.261 -0.4581 -4.7984  0.0117
  230MOL0     H31005  -0.963   1.320   2.314  4.0495  1.3678 -0.5183
  230MOL0     H31006  -0.973   1.106   2.086 -3.4948 -1.7800 -1.6577
  230MOL0     H31007  -0.961   1.280   2.059 -0.6737  1.4541  1.2544
  230MOL0     H31008  -1.185   1.310   2.185 -4.4753  1.0948 -1.9486
  230MOL0     H31009  -1.207   1.139   2.149 -2.2655  1.3290 -1.2040
  230MOL0     H31010  -1.295   1.330   1.780 -0.3436  0.5378 -1.0763
  230MOL0     H31011  -1.414   1.443   1.636 -0.0556  3.1072  1.6957
  230MOL0     H31012  -1.568   1.344   1.629  2.9411 -1.1245 -1.5016
  230MOL0     H31013  -1.568   1.518   1.678  2.5366  2.4928 -0.6021
  230MOL0     H31014  -2.059   1.252   1.850  2.2394  0.5625 -1.1766
  230MOL0     H31015  -2.285   1.342   1.873 -1.1687  1.6738 -3.1086
  230MOL0     H31016  -2.355   1.772   2.007  0.6260  0.4410  0.7964
  230MOL0     H31017  -2.342   1.758   1.837 -1.8392  0.3924 -0.9152
  230MOL0     H31018  -2.567   1.672   1.814  2.1530 -0.5059 -0.0487
  230MOL0     H31019  -2.581   1.694   1.995  1.7925  2.8742  1.6307
  230MOL0     H31020  -2.567   1.915   1.786  2.2024  0.2345  1.3604
  230MOL0     H31021  -2.537   1.931   1.962  4.5603 -0.9949 -1.3035
  230MOL0     H31022  -2.795   1.808   1.846 -1.1023 -1.4071  0.6706
  230MOL0     H31023  -2.758   1.832   2.014 -1.1941  0.0570 -1.0678
  230MOL0     H31024  -2.816   2.029   1.784  1.7349 -0.8848 -0.6018
  230MOL0     H31025  -2.778   2.092   1.942  0.0193 -0.1781  0.5916
  230MOL0     H31026  -2.998   1.885   1.944 -3.2909  1.2928  0.6285
  230MOL0     H31027  -2.953   2.001   2.062  1.2617  2.1031 -0.1621
  230MOL0     H31028  -3.089   2.030   1.784 -0.4820 -3.0436  1.8002
  230MOL0     H31029  -3.040   2.178   1.885  1.5268 -0.3474  0.7482
  230MOL0     H31030  -3.218   1.950   1.976  1.9713 -0.7366 -1.1787
  230MOL0     H31031  -3.287   2.092   1.875 -0.3554 -0.3929  0.2122
  230MOL0     H31032  -2.125   1.709   2.056  2.4391 -0.2931  0.4678
  230MOL0     H31033  -1.908   1.605   2.030 -0.5578  1.3842  0.3648
  230MOL0     H31034  -1.614   1.390   2.145 -0.1972 -0.8941 -0.7337
  230MOL0     H31035  -1.417   1.300   2.197 -6.8678 -0.7728  0.6582
  230MOL0     H31036  -0.006   1.298   2.997  0.2593  2.0934 -1.4361
  230MOL0     H31037   0.150   1.207   3.171 -3.1323 -1.9569  1.0763
  230MOL0     H31038   0.174   1.419   3.775 -0.8879 -0.9393 -1.5314
  230MOL0     H31039   0.380   1.405   3.952  2.3916  0.0634 -1.1717
  230MOL0     H31040   0.510   1.134   3.980  0.0083  2.4288  0.9840
  230MOL0     H31041   0.629   1.078   3.866  1.0806 -1.7120  1.0880
  230MOL0     H31042   0.704   1.231   4.123  2.6755 -0.5870  1.0455
  230MOL0     H31043   0.823   1.167   4.023 -1.0754  2.5073 -1.0323
  230MOL0     H31044   0.607   1.016   4.175 -0.0214 -1.1660  1.9599
  230MOL0     H31045   0.785   1.013   4.211 -2.4271 -0.7668  0.9634
  230MOL0     H31046   0.643   0.867   3.990  0.7967  2.9546 -1.6910
  230MOL0     H31047   0.744   0.793   4.118 -1.5228  0.3457  0.5270
  230MOL0     H31048   1.045   0.883   3.855  0.8970 -3.3745  0.6059
  230MOL0     H31049   0.609   1.226   3.663 -0.7520  0.8379  1.8067
  230MOL0     H31050   0.416   1.233   3.489  0.1190 -0.4140  0.8270
  231MOL0     O31051   6.734   1.162   4.319 -0.3112 -0.5314 -0.3055
  231MOL0     C31052   6.734   1.105   4.210  0.2520 -0.2970 -0.5718
  231MOL0     O31053   6.636   1.100   4.123  0.0580 -0.0683 -0.2514
  231MOL0     C31054   6.504   1.128   4.157 -0.7623 -0.1354 -0.9557
  231MOL0     C31055   6.451   1.197   4.263 -0.1514 -0.3749  0.0106
  231MOL0     C31056   6.307   1.214   4.269  0.5655 -0.1565  0.2100
  231MOL0     C31057   6.224   1.170   4.167 -0.6749 -0.0633 -0.8371
  231MOL0     O31058   6.087   1.179   4.173  0.4098  0.5263  0.6475
  231MOL0     C31059   6.029   1.288   4.239 -0.2314  0.1995 -0.1936
  231MOL0     C31060   5.880   1.245   4.262 -0.4218  0.4816 -0.3750
  231MOL0     C31061   5.805   1.257   4.135  0.8006 -0.1988 -0.1212
  231MOL0     C31062   5.651   1.220   4.146  0.0186  0.3859  0.1718
  231MOL0     C31063   5.565   1.344   4.178  0.8163  0.2967  0.0112
  231MOL0     C31064   5.432   1.310   4.261  0.4933 -1.1788  1.3040
  231MOL0     C31065   5.330   1.239   4.177  0.2507 -1.1367  0.2814
  231MOL0     C31066   5.205   1.222   4.259  0.6281  0.1846 -0.6037
  231MOL0     N31067   5.095   1.157   4.191  1.1645  0.1287 -0.0664
  231MOL0     C31068   5.012   1.212   4.096 -0.0443 -1.3535 -0.5247
  231MOL0     C31069   4.908   1.122   4.098  0.4739 -0.5281  0.7983
  231MOL0     C31070   4.782   1.131   4.008 -0.2808  0.4672  0.2361
  231MOL0     C31071   4.686   1.231   4.080 -0.3965 -0.0846  0.1374
  231MOL0     C31072   4.548   1.208   4.021  0.9448 -0.3370  0.4600
  231MOL0     C31073   4.444   1.310   4.072  0.1338  0.5517  0.0911
  231MOL0     O31074   4.317   1.309   4.002 -0.1373  0.2456 -0.8572
  231MOL0     C31075   4.213   1.384   4.047  0.2324 -0.6034 -0.4776
  231MOL0     C31076   4.228   1.496   4.127  0.5513 -0.2313  0.3181
  231MOL0     C31077   4.113   1.575   4.160 -0.6624 -0.8133 -0.4930
  231MOL0     C31078   4.134   1.690   4.253  0.3508 -0.4044 -0.7708
  231MOL0     C31079   3.985   1.543   4.107  0.2275 -0.1609  0.3287
  231MOL0     C31080   3.856   1.626   4.126 -0.3818 -0.3698  0.2248
  231MOL0     O31081   3.749   1.569   4.063 -0.2352  0.5173  0.2042
  231MOL0     C31082   3.624   1.624   4.069  0.6967 -0.3413 -0.2990
  231MOL0     C31083   3.555   1.643   3.953 -0.2237 -0.1329  0.9425
  231MOL0     C31084   3.430   1.706   3.952 -0.0701  0.7942 -0.6002
  231MOL0     C31085   3.367   1.741   4.071  0.7808 -0.2007  0.3558
  231MOL0     O31086   3.240   1.795   4.073 -0.7537 -0.4382 -0.4668
  231MOL0     C31087   3.143   1.735   3.989 -0.3681 -0.8121 -0.2808
  231MOL0     C31088   3.009   1.794   4.010  0.3839  0.7200 -0.1751
  231MOL0     C31089   2.942   1.823   3.877  0.0295 -0.2622  0.2319
  231MOL0     C31090   2.796   1.868   3.883 -0.4486 -0.0814  0.1469
  231MOL0     C31091   2.740   1.879   3.740  0.2493  0.3095 -0.6188
  231MOL0     C31092   2.594   1.896   3.761 -0.0894  0.5356  0.5010
  231MOL0     C31093   2.524   1.907   3.622  0.7749 -0.1038  0.2413
  231MOL0     C31094   2.394   1.823   3.606 -0.0467  0.8027  0.6471
  231MOL0    Cl31095   2.332   1.834   3.439  0.0826 -0.1104 -0.3776
  231MOL0     C31096   3.434   1.725   4.187 -0.5333 -0.3136 -0.1715
  231MOL0     C31097   3.560   1.668   4.187  0.3742 -0.6706 -0.7387
  231MOL0     O31098   3.854   1.739   4.165  0.4751  0.1414 -0.2680
  231MOL0     C31099   3.981   1.428   4.021 -0.3163  0.1868 -0.6386
  231MOL0     C31100   4.094   1.351   3.993 -0.2247 -0.0163 -0.9133
  231MOL0     N31101   4.931   1.015   4.182  0.4233  0.0067 -0.4116
  231MOL0     N31102   5.047   1.034   4.229 -0.3896 -0.2046 -0.3588
  231MOL0     C31103   6.281   1.099   4.068  0.0862 -1.0103  0.3661
  231MOL0     C31104   6.418   1.077   4.062  0.1033 -0.1330 -0.7136
  231MOL0     C31105   6.869   1.051   4.172  0.3434  1.6112  0.0630
  231MOL0     C31106   6.907   1.040   4.038  1.6568  0.6949  0.1004
  231MOL0     C31107   7.036   1.008   4.004 -0.0923 -0.5679  0.5553
  231MOL0     C31108   7.135   0.978   4.094 -0.4309 -0.1777 -0.2065
  231MOL0     O31109   7.257   0.936   4.046  0.6344  0.3631  0.6909
  231MOL0     C31110   7.379   0.944   4.126 -0.2830  0.2036  0.4344
  231MOL0     C31111   7.486   0.858   4.058  0.6551 -0.4957  0.2640
  231MOL0     C31112   7.624   0.862   4.129 -0.0077  0.5152 -0.5876
  231MOL0     C31113   7.623   0.876   4.288 -0.0867 -0.2759 -0.1910
  231MOL0     C31114   7.758   0.854   4.333  0.9773  0.5474  0.2527
  231MOL0     C31115   7.874   0.839   4.365  0.2771 -0.7431 -0.4371
  231MOL0     C31116   7.100   0.977   4.231  0.2206 -0.1803 -0.0345
  231MOL0     C31117   6.964   1.007   4.267 -0.5059 -0.7834 -0.1296
  231MOL0     H31118   6.523   1.240   4.333  0.3749 -1.8702  0.4298
  231MOL0     H31119   6.263   1.266   4.354 -3.2166  0.7000 -2.0534
  231MOL0     H31120   6.071   1.307   4.338 -2.5606  0.9772  0.7099
  231MOL0     H31121   6.054   1.381   4.188  0.3158  0.0224 -0.2622
  231MOL0     H31122   5.883   1.142   4.297 -0.1641 -0.4680 -3.0075
  231MOL0     H31123   5.844   1.316   4.337 -1.9814 -1.3718  0.7152
  231MOL0     H31124   5.817   1.357   4.091 -4.2547  1.0035  0.5824
  231MOL0     H31125   5.861   1.197   4.062 -0.9042  1.8945 -3.4106
  231MOL0     H31126   5.607   1.163   4.064 -2.9010  3.1832 -0.4219
  231MOL0     H31127   5.655   1.148   4.228 -0.8179 -0.4231 -0.4725
  231MOL0     H31128   5.636   1.408   4.231  0.3519 -0.2288  1.3213
  231MOL0     H31129   5.538   1.391   4.083  1.7181  0.0723 -0.3633
  231MOL0     H31130   5.458   1.255   4.352  1.6187 -0.1019  1.6695
  231MOL0     H31131   5.391   1.409   4.280  2.6565  0.2960 -0.9620
  231MOL0     H31132   5.312   1.303   4.091 -2.4030 -0.5394  1.1824
  231MOL0     H31133   5.364   1.137   4.155  1.9544 -0.8309  1.3876
  231MOL0     H31134   5.178   1.321   4.298 -0.9763  0.6833 -2.7747
  231MOL0     H31135   5.230   1.164   4.348  0.4243  1.1856  0.1304
  231MOL0     H31136   5.017   1.306   4.043  0.1456 -1.9447 -1.5916
  231MOL0     H31137   4.809   1.162   3.907 -0.4139 -0.2204 -0.0179
  231MOL0     H31138   4.734   1.033   4.005 -1.2974  0.9388  0.5698
  231MOL0     H31139   4.721   1.335   4.072 -0.5991 -0.0251  0.0200
  231MOL0     H31140   4.674   1.212   4.187 -2.8215  0.1491 -0.0375
  231MOL0     H31141   4.505   1.116   4.060 -1.0475  0.5577  0.5197
  231MOL0     H31142   4.541   1.214   3.912 -0.9578  1.8378  0.6207
  231MOL0     H31143   4.490   1.408   4.055  2.2750 -1.0033 -5.0247
  231MOL0     H31144   4.426   1.289   4.178 -0.2589  1.9439  0.3227
  231MOL0     H31145   4.323   1.530   4.165  0.7728  0.1656 -0.5678
  231MOL0     H31146   4.067   1.694   4.340  2.0740  2.2223  0.5740
  231MOL0     H31147   4.237   1.688   4.291  0.4921 -1.2098 -1.1777
  231MOL0     H31148   4.121   1.785   4.201  0.3721  1.9711  3.1262
  231MOL0     H31149   3.602   1.623   3.857  1.2100  0.2892  1.5406
  231MOL0     H31150   3.383   1.729   3.857  0.5629  1.6215 -0.7262
  231MOL0     H31151   3.177   1.747   3.886 -0.2584  0.4143 -0.1206
  231MOL0     H31152   3.134   1.627   4.002 -1.9320 -0.6491  0.0969
  231MOL0     H31153   2.951   1.716   4.062  2.3615 -0.6014  0.1552
  231MOL0     H31154   3.021   1.885   4.069  0.5416  1.3053 -1.0882
  231MOL0     H31155   2.961   1.738   3.812  1.8051  1.0876 -1.1506
  231MOL0     H31156   2.994   1.904   3.824 -2.1544  0.5719 -0.7635
  231MOL0     H31157   2.745   1.787   3.937 -0.9007 -0.1859 -0.4301
  231MOL0     H31158   2.782   1.957   3.945 -2.0566  0.7801 -1.3689
  231MOL0     H31159   2.770   1.797   3.673 -2.4607 -0.4539 -1.0149
  231MOL0     H31160   2.784   1.973   3.706  1.4877  1.3586  3.4138
  231MOL0     H31161   2.562   1.814   3.825  0.4115 -0.4887 -0.5371
  231MOL0     H31162   2.589   1.991   3.816  0.5970  0.5989  0.4576
  231MOL0     H31163   2.596   1.893   3.541  1.0800  2.7642 -0.0588
  231MOL0     H31164   2.504   2.013   3.606  0.2252 -0.4584 -1.5854
  231MOL0     H31165   2.321   1.863   3.677  0.6382 -0.7485  2.3030
  231MOL0     H31166   2.412   1.720   3.637  2.4549  0.2439 -2.1698
  231MOL0     H31167   3.398   1.763   4.283 -0.4411  0.9233 -0.6026
  231MOL0     H31168   3.614   1.648   4.279 -0.1293 -0.0373 -0.2950
  231MOL0     H31169   3.891   1.408   3.963 -0.9312  2.2318 -0.4600
  231MOL0     H31170   4.082   1.264   3.929  0.3076 -0.0087 -1.0284
  231MOL0     H31171   6.221   1.064   3.985  0.4148 -0.1506 -0.2610
  231MOL0     H31172   6.465   1.037   3.973  3.0353 -0.2382  0.7554
  231MOL0     H31173   6.835   1.057   3.959  2.1086 -1.3962 -0.8292
  231MOL0     H31174   7.072   1.004   3.902  3.5150 -0.2058  1.6857
  231MOL0     H31175   7.413   1.046   4.150 -0.0635  0.7192 -1.8597
  231MOL0     H31176   7.359   0.887   4.217 -0.2019  0.4832  0.6274
  231MOL0     H31177   7.505   0.889   3.956  0.8123 -1.8224 -0.1346
  231MOL0     H31178   7.441   0.758   4.064 -0.8098  0.0232 -1.4116
  231MOL0     H31179   7.696   0.922   4.073  0.4338  0.0443 -0.5368
  231MOL0     H31180   7.661   0.761   4.109  1.0340  0.9792 -1.1024
  231MOL0     H31181   7.553   0.807   4.337 -2.1245  1.3787 -0.6341
  231MOL0     H31182   7.592   0.979   4.307  2.2164  0.6011 -0.9170
  231MOL0     H31183   7.977   0.832   4.391  1.2724 -1.8579 -4.1802
  231MOL0     H31184   7.164   0.958   4.316 -2.4973  3.5822  3.2257
  231MOL0     H31185   6.958   1.019   4.375 -2.9846  0.1929 -0.3080
  232MOL0     O31186   8.052   3.544   6.621  0.5187 -0.6328 -0.1192
  232MOL0     C31187   8.095   3.453   6.556 -0.8948  0.7348 -0.6157
  232MOL0     O31188   8.020   3.366   6.486  0.1826 -0.8095 -0.0918
  232MOL0     C31189   7.881   3.369   6.485  0.3219  0.9237  0.0575
  232MOL0     C31190   7.817   3.245   6.487  1.1895  0.0308 -0.0151
  232MOL0     C31191   7.676   3.230   6.499  0.3965 -0.5702  0.6953
  232MOL0     C31192   7.591   3.345   6.512 -0.4999  0.3439 -1.1130
  232MOL0     O31193   7.456   3.310   6.531  0.4302  0.3577  0.6028
  232MOL0     C31194   7.361   3.414   6.542 -0.2499 -0.1008 -0.1296
  232MOL0     C31195   7.221   3.349   6.549  0.1904  0.0045 -0.9634
  232MOL0     C31196   7.115   3.441   6.499 -0.1442 -0.1674  1.2749
  232MOL0     C31197   6.982   3.416   6.558  0.2931  0.8421  0.1974
  232MOL0     C31198   6.875   3.516   6.513  0.4807  0.6927  0.4789
  232MOL0     C31199   6.894   3.657   6.555 -0.2402 -0.5308 -0.1324
  232MOL0     C31200   6.768   3.744   6.562  0.5952  0.3074 -0.0735
  232MOL0     C31201   6.819   3.886   6.605  1.1016 -0.3002  0.3598
  232MOL0     N31202   6.848   3.981   6.501 -0.1767  0.4368  0.1280
  232MOL0     C31203   6.757   4.019   6.406 -0.3888 -0.6446  0.3767
  232MOL0     C31204   6.829   4.099   6.322  0.2917 -0.1500  0.0674
  232MOL0     C31205   6.776   4.174   6.206 -0.3441  0.0827  0.5769
  232MOL0     C31206   6.812   4.096   6.079 -0.3037  0.0274  0.6313
  232MOL0     C31207   6.795   4.170   5.948  0.2152 -0.2943 -0.0507
  232MOL0     C31208   6.675   4.266   5.945  1.0594 -0.3082  1.0544
  232MOL0     O31209   6.557   4.199   5.988 -0.8426 -0.6342 -0.6039
  232MOL0     C31210   6.432   4.238   5.950 -0.4672  0.3633 -0.0162
  232MOL0     C31211   6.325   4.153   5.969  0.3936  0.9926 -0.4969
  232MOL0     C31212   6.189   4.168   5.930  0.5050 -0.9363 -0.3110
  232MOL0     C31213   6.079   4.054   5.938  0.0112 -0.3452  0.3122
  232MOL0     C31214   6.158   4.294   5.865 -0.3712 -0.2748 -0.0018
  232MOL0     C31215   6.023   4.329   5.812 -0.3309 -0.7761  0.2369
  232MOL0     O31216   5.912   4.267   5.867  0.3121 -0.5580 -0.6246
  232MOL0     C31217   5.781   4.292   5.850  1.1391  0.4064  0.2009
  232MOL0     C31218   5.730   4.415   5.802 -0.1074 -0.0485 -0.0693
  232MOL0     C31219   5.595   4.451   5.785 -0.3036  0.2963  0.7891
  232MOL0     C31220   5.497   4.352   5.806  0.6991 -0.5497 -0.8242
  232MOL0     O31221   5.359   4.368   5.791  0.5271  0.6148  0.2650
  232MOL0     C31222   5.312   4.506   5.783  0.6263  0.3758 -0.1062
  232MOL0     C31223   5.162   4.520   5.779  0.2057  0.7041  0.3407
  232MOL0     C31224   5.101   4.661   5.765 -0.2451  0.5758 -0.4773
  232MOL0     C31225   4.950   4.652   5.735 -0.0851  0.6036 -0.0744
  232MOL0     C31226   4.882   4.789   5.741 -0.1777 -0.1296 -0.2452
  232MOL0     C31227   4.743   4.769   5.687 -0.4914  0.9220  0.0600
  232MOL0     C31228   4.661   4.900   5.666  0.0122 -1.1387 -0.2874
  232MOL0     C31229   4.672   4.995   5.789  0.3023  0.2206 -0.7166
  232MOL0    Cl31230   4.571   5.128   5.792 -0.0611  0.0127 -0.2114
  232MOL0     C31231   5.540   4.224   5.848 -0.2139  0.1602 -0.7305
  232MOL0     C31232   5.680   4.194   5.858 -0.0815 -0.3861  0.6100
  232MOL0     O31233   6.020   4.407   5.718 -0.3717 -0.2087 -0.0416
  232MOL0     C31234   6.265   4.387   5.848  0.1964 -0.7455 -0.9439
  232MOL0     C31235   6.395   4.358   5.896 -0.6840  0.1035 -0.2748
  232MOL0     N31236   6.958   4.108   6.362 -0.0391  0.9260 -0.2213
  232MOL0     N31237   6.968   4.036   6.467  0.5418  0.4887 -0.5197
  232MOL0     C31238   7.659   3.470   6.504 -0.0148  0.9213  0.1708
  232MOL0     C31239   7.788   3.484   6.481  0.2572 -0.2926 -0.0751
  232MOL0     C31240   8.243   3.437   6.565 -0.1700  0.6758  0.6551
  232MOL0     C31241   8.322   3.513   6.656 -0.1263  0.2176  0.2118
  232MOL0     C31242   8.456   3.510   6.641 -0.0894 -0.3651 -0.4146
  232MOL0     C31243   8.523   3.432   6.540 -0.5945 -0.0234 -0.6232
  232MOL0     O31244   8.661   3.437   6.534  0.2267 -0.2467  0.0674
  232MOL0     C31245   8.739   3.507   6.631 -0.9091 -0.2840  1.1246
  232MOL0     C31246   8.886   3.471   6.616 -0.1030 -0.3884 -0.2116
  232MOL0     C31247   8.914   3.320   6.644 -0.1953  0.0510 -0.0600
  232MOL0     C31248   9.059   3.283   6.598  0.3006  0.0692 -0.6493
  232MOL0     C31249   9.161   3.314   6.704 -1.0296 -0.5833 -0.6997
  232MOL0     C31250   9.245   3.339   6.792  0.1834 -0.2154 -0.3108
  232MOL0     C31251   8.447   3.353   6.457  0.1342 -0.1015  0.6509
  232MOL0     C31252   8.302   3.349   6.476 -0.4824 -0.5584  0.2625
  232MOL0     H31253   7.880   3.157   6.483  1.3142 -0.1149  2.8579
  232MOL0     H31254   7.630   3.132   6.493 -1.7810  0.4643 -1.2057
  232MOL0     H31255   7.384   3.474   6.630 -1.4912  2.4529 -1.4255
  232MOL0     H31256   7.369   3.483   6.458 -0.0693  1.9900  1.5196
  232MOL0     H31257   7.230   3.255   6.493 -0.9826 -0.0633 -1.0442
  232MOL0     H31258   7.206   3.324   6.654  1.0245 -0.4859 -0.9470
  232MOL0     H31259   7.140   3.547   6.504  0.1471 -0.0149 -1.5382
  232MOL0     H31260   7.107   3.430   6.390 -0.5521  0.1680  1.2741
  232MOL0     H31261   6.947   3.316   6.534  2.4236  0.1429 -0.2325
  232MOL0     H31262   6.993   3.423   6.666 -2.0458 -0.9509  0.6190
  232MOL0     H31263   6.874   3.503   6.404 -0.6317 -0.6293  0.6154
  232MOL0     H31264   6.780   3.478   6.551 -0.4915  0.5888 -1.8970
  232MOL0     H31265   6.931   3.654   6.658 -0.9231 -0.4306  0.1222
  232MOL0     H31266   6.964   3.711   6.491 -0.6155  2.3208  1.6447
  232MOL0     H31267   6.719   3.750   6.464  0.0221 -0.2950  0.1747
  232MOL0     H31268   6.695   3.707   6.634 -1.1827  0.7369 -1.5638
  232MOL0     H31269   6.904   3.886   6.674 -0.1155  0.8392  1.9349
  232MOL0     H31270   6.735   3.922   6.665 -0.7083 -2.1267 -0.9303
  232MOL0     H31271   6.651   4.001   6.389 -0.5713  1.2861 -0.9621
  232MOL0     H31272   6.667   4.186   6.213 -0.5485 -2.0473  2.1608
  232MOL0     H31273   6.821   4.274   6.209  1.3039 -0.4262 -2.7461
  232MOL0     H31274   6.760   4.000   6.077 -1.9034  0.8669 -0.4772
  232MOL0     H31275   6.917   4.065   6.082 -0.3797 -0.4560 -0.9667
  232MOL0     H31276   6.795   4.102   5.863 -0.0222 -2.0977  1.3324
  232MOL0     H31277   6.882   4.234   5.932  0.5185 -1.4145 -3.6916
  232MOL0     H31278   6.662   4.297   5.841 -0.2837 -1.1350  0.9474
  232MOL0     H31279   6.683   4.360   6.001 -0.6694  0.3206  0.3214
  232MOL0     H31280   6.344   4.062   6.023  1.0515  1.1077 -0.5332
  232MOL0     H31281   6.034   4.027   5.842 -0.5404  0.3853  0.3542
  232MOL0     H31282   6.136   3.967   5.971 -0.5776 -1.1450 -0.7300
  232MOL0     H31283   5.997   4.079   6.006 -0.3414 -0.6204 -0.0113
  232MOL0     H31284   5.798   4.499   5.792  1.0031 -0.6126  2.1593
  232MOL0     H31285   5.573   4.550   5.746  1.0990 -0.3021 -1.7028
  232MOL0     H31286   5.359   4.562   5.864  1.5052 -0.5832  0.0698
  232MOL0     H31287   5.349   4.543   5.687 -2.3888 -0.6117 -1.7858
  232MOL0     H31288   5.134   4.458   5.693  2.2660 -0.0357  0.1293
  232MOL0     H31289   5.124   4.474   5.871 -1.3169 -0.3481 -0.7652
  232MOL0     H31290   5.149   4.723   5.689 -1.3163  0.3227 -1.3905
  232MOL0     H31291   5.125   4.703   5.863  0.6932  0.0094 -0.4566
  232MOL0     H31292   4.934   4.603   5.638  4.4647 -0.2230 -0.6123
  232MOL0     H31293   4.904   4.596   5.817  1.7549 -2.5892 -1.0503
  232MOL0     H31294   4.935   4.852   5.670  1.5210 -1.9402 -0.6818
  232MOL0     H31295   4.888   4.835   5.840  2.0895  1.4106 -1.0281
  232MOL0     H31296   4.758   4.720   5.591  0.2370 -2.7252  1.8181
  232MOL0     H31297   4.691   4.700   5.755  4.3343 -2.4568  0.8095
  232MOL0     H31298   4.554   4.881   5.665 -0.7473  2.1714  1.9430
  232MOL0     H31299   4.692   4.953   5.575 -2.7341 -1.6793 -1.6465
  232MOL0     H31300   4.773   5.034   5.801 -0.6498  2.4186  0.8179
  232MOL0     H31301   4.650   4.933   5.877 -1.5424  1.3391 -0.3440
  232MOL0     H31302   5.460   4.154   5.867  1.1800 -1.6973 -1.4170
  232MOL0     H31303   5.713   4.097   5.893  1.1456  0.7895  3.0242
  232MOL0     H31304   6.227   4.482   5.814  0.1861 -1.2033 -2.2831
  232MOL0     H31305   6.456   4.446   5.880  0.5271 -0.5376  0.6605
  232MOL0     H31306   7.599   3.561   6.505  2.5511  2.7554  3.0474
  232MOL0     H31307   7.830   3.583   6.463 -0.2718 -0.0145  0.2185
  232MOL0     H31308   8.275   3.574   6.732 -1.7910  1.0125 -1.3768
  232MOL0     H31309   8.525   3.548   6.716  0.1951 -2.0845  0.2480
  232MOL0     H31310   8.720   3.614   6.616 -0.1236 -0.3688 -0.7009
  232MOL0     H31311   8.707   3.480   6.732  0.9548  2.2113  2.5146
  232MOL0     H31312   8.946   3.532   6.685 -2.4459 -0.7247  2.3039
  232MOL0     H31313   8.915   3.504   6.516  1.1278 -1.7548 -0.3530
  232MOL0     H31314   8.851   3.253   6.585  0.3233 -0.0506 -0.5026
  232MOL0     H31315   8.892   3.292   6.748  3.2936  1.9183  1.3703
  232MOL0     H31316   9.082   3.343   6.510 -2.4766  1.4668 -0.5262
  232MOL0     H31317   9.076   3.178   6.575 -1.3271 -0.3464 -0.0681
  232MOL0     H31318   9.303   3.358   6.879 -2.3113 -2.0480  1.9305
  232MOL0     H31319   8.491   3.309   6.368 -0.2283  0.3784  0.2307
  232MOL0     H31320   8.241   3.283   6.414  0.0489 -0.3766 -0.4618
  233MOL0     O31321   6.660   7.393   3.499  0.4006 -0.4098  0.3309
  233MOL0     C31322   6.739   7.349   3.411 -0.3654  0.2940  0.3101
  233MOL0     O31323   6.745   7.386   3.279 -0.2115  0.6985  0.7114
  233MOL0     C31324   6.658   7.486   3.236 -0.2504 -0.8502  0.5723
  233MOL0     C31325   6.621   7.607   3.300  0.4844  0.2702  0.5741
  233MOL0     C31326   6.531   7.692   3.229  0.0255 -0.7748  0.2347
  233MOL0     C31327   6.485   7.669   3.094  0.2117 -0.8198 -1.4401
  233MOL0     O31328   6.400   7.754   3.035 -0.4624 -0.2955  1.0777
  233MOL0     C31329   6.295   7.809   3.117 -0.0643 -0.5868 -0.0748
  233MOL0     C31330   6.192   7.881   3.028 -0.7037 -0.0239 -0.2520
  233MOL0     C31331   6.064   7.900   3.115  0.3011 -0.3414  0.4145
  233MOL0     C31332   5.960   7.975   3.032  0.1601 -0.1748 -0.2620
  233MOL0     C31333   5.824   7.991   3.101 -0.2655  0.0519  0.4235
  233MOL0     C31334   5.774   8.141   3.088 -0.1609  0.1531  0.2277
  233MOL0     C31335   5.635   8.142   3.148  0.0035  0.0022  0.1579
  233MOL0     C31336   5.647   8.162   3.302 -0.3786 -0.3713  0.3043
  233MOL0     N31337   5.512   8.172   3.365  0.7274  0.4656  0.8478
  233MOL0     C31338   5.411   8.079   3.349 -0.4384  0.3375 -0.8980
  233MOL0     C31339   5.288   8.141   3.368 -0.3223 -0.0857  0.0075
  233MOL0     C31340   5.160   8.076   3.325  0.0562  0.3564 -0.0046
  233MOL0     C31341   5.099   8.142   3.207  0.4391 -0.4701  0.0626
  233MOL0     C31342   5.191   8.129   3.071  0.5911 -0.3690 -0.2106
  233MOL0     C31343   5.152   8.243   2.977 -0.0842  0.2410  0.2786
  233MOL0     O31344   5.018   8.299   2.978 -0.5265  0.6348  0.6188
  233MOL0     C31345   4.930   8.256   2.879  0.2100 -0.4512  0.3843
  233MOL0     C31346   4.890   8.352   2.786 -0.2910 -0.0452 -0.3654
  233MOL0     C31347   4.772   8.327   2.710 -0.2251 -0.1957  0.7500
  233MOL0     C31348   4.739   8.437   2.601 -0.1018 -1.1834 -0.1491
  233MOL0     C31349   4.701   8.208   2.712  0.1407 -1.0146 -0.1746
  233MOL0     C31350   4.568   8.179   2.645  0.9854  0.1094 -0.1945
  233MOL0     O31351   4.502   8.067   2.687 -0.1531 -0.5814  0.3150
  233MOL0     C31352   4.381   8.046   2.629  0.0419 -0.7800  0.3337
  233MOL0     C31353   4.365   7.948   2.532  0.1610 -0.3906 -0.2721
  233MOL0     C31354   4.230   7.916   2.492 -0.1557 -0.3308 -0.5595
  233MOL0     C31355   4.115   7.985   2.543  0.9430  0.4777  0.3581
  233MOL0     O31356   3.990   7.940   2.496 -0.5056  0.5135 -0.2792
  233MOL0     C31357   3.908   8.053   2.477  0.1718 -0.4618  0.8913
  233MOL0     C31358   3.782   8.018   2.401  0.1928  0.3145 -0.7083
  233MOL0     C31359   3.671   7.936   2.480  0.1887  0.2419 -0.0952
  233MOL0     C31360   3.538   7.932   2.402 -0.2395  0.1027 -0.5400
  233MOL0     C31361   3.435   7.853   2.484  1.0449  0.4096 -0.0511
  233MOL0     C31362   3.303   7.860   2.411  0.2967 -0.3747 -0.5354
  233MOL0     C31363   3.175   7.799   2.490 -0.6899 -0.4571 -0.0237
  233MOL0     C31364   3.040   7.821   2.426 -0.7440 -0.7444 -0.2476
  233MOL0    Cl31365   2.897   7.814   2.528 -0.0523  0.1191  0.5443
  233MOL0     C31366   4.129   8.085   2.637  0.2350 -0.7927 -0.2653
  233MOL0     C31367   4.261   8.112   2.676  1.1404  0.2166 -0.1166
  233MOL0     O31368   4.520   8.270   2.574 -0.1404 -0.3369 -0.1650
  233MOL0     C31369   4.756   8.110   2.785  0.1679  0.1543  0.2498
  233MOL0     C31370   4.867   8.126   2.881 -0.1454  0.5306  1.0194
  233MOL0     N31371   5.322   8.264   3.408 -0.3959 -0.4776  0.1159
  233MOL0     N31372   5.446   8.286   3.406  0.5968 -0.6210  0.5171
  233MOL0     C31373   6.530   7.555   3.034 -0.6104 -0.4988 -0.3107
  233MOL0     C31374   6.605   7.462   3.108 -1.1867 -0.4906  0.0952
  233MOL0     C31375   6.846   7.254   3.465  0.0328 -0.9312  0.2623
  233MOL0     C31376   6.863   7.240   3.598  0.7226 -0.5545 -0.1090
  233MOL0     C31377   6.967   7.171   3.654  0.1371  0.8590  0.9772
  233MOL0     C31378   7.061   7.113   3.569  0.5651  0.9806 -0.5822
  233MOL0     O31379   7.171   7.041   3.613 -0.7589  0.4144 -0.1422
  233MOL0     C31380   7.190   6.998   3.747 -1.4751 -0.6798  0.2177
  233MOL0     C31381   7.324   6.927   3.761  0.0852 -0.1785 -1.6908
  233MOL0     C31382   7.358   6.897   3.911 -0.3327  0.7344 -0.8672
  233MOL0     C31383   7.493   6.825   3.916 -0.2247  0.4088  0.1932
  233MOL0     C31384   7.601   6.921   3.874 -0.5360  0.2709 -0.9808
  233MOL0     C31385   7.680   7.012   3.863 -0.4887 -0.2661 -0.9684
  233MOL0     C31386   7.055   7.132   3.436 -0.0655 -0.9654 -0.1044
  233MOL0     C31387   6.945   7.201   3.383 -0.1902  0.2553  0.2259
  233MOL0     H31388   6.646   7.637   3.402 -2.1897  0.5642  1.2121
  233MOL0     H31389   6.503   7.778   3.288 -0.7313 -0.8146 -0.0551
  233MOL0     H31390   6.242   7.721   3.153 -0.6406  0.0732  0.7344
  233MOL0     H31391   6.345   7.877   3.186  0.1917  1.1196 -1.8531
  233MOL0     H31392   6.229   7.983   3.012 -2.0144  0.6461  0.7496
  233MOL0     H31393   6.171   7.831   2.934  1.8621 -1.4309 -0.1677
  233MOL0     H31394   6.026   7.800   3.135 -0.5032 -0.1164  0.0556
  233MOL0     H31395   6.084   7.951   3.211  1.4477 -0.7809  0.4204
  233MOL0     H31396   6.000   8.074   3.012  1.3186  0.0778  2.7189
  233MOL0     H31397   5.942   7.923   2.937  1.0347  0.3447 -0.7234
  233MOL0     H31398   5.757   7.928   3.041  2.3461 -0.2828 -2.4124
  233MOL0     H31399   5.826   7.968   3.207  3.4447 -1.5511  0.1373
  233MOL0     H31400   5.848   8.211   3.130  1.9657 -0.0628 -2.8507
  233MOL0     H31401   5.775   8.160   2.980  0.7144 -0.7170  0.0652
  233MOL0     H31402   5.579   8.231   3.118  3.2326  3.9010  4.2085
  233MOL0     H31403   5.576   8.052   3.130  0.1200 -0.9117  3.6255
  233MOL0     H31404   5.710   8.251   3.310  2.7319 -1.6044 -5.1436
  233MOL0     H31405   5.703   8.083   3.353  0.0878  0.5668  1.2702
  233MOL0     H31406   5.421   7.978   3.312 -3.2398 -0.5720  0.5508
  233MOL0     H31407   5.172   7.969   3.303  0.1729  0.1035  1.2121
  233MOL0     H31408   5.088   8.081   3.408  0.5429 -0.1409  0.4666
  233MOL0     H31409   5.086   8.246   3.239  3.2520 -0.1855  0.5022
  233MOL0     H31410   5.000   8.095   3.196 -0.5960  1.4837  0.5495
  233MOL0     H31411   5.169   8.031   3.028 -2.3525 -0.3664  0.9844
  233MOL0     H31412   5.295   8.155   3.090  0.1256  1.1360  0.4521
  233MOL0     H31413   5.191   8.214   2.879 -1.0759 -2.7400  0.6689
  233MOL0     H31414   5.218   8.323   3.013 -0.4901 -0.3445  2.5106
  233MOL0     H31415   4.928   8.453   2.784  0.6043 -0.3682 -0.2402
  233MOL0     H31416   4.820   8.508   2.581 -1.1476  0.0074 -0.2244
  233MOL0     H31417   4.719   8.384   2.507  1.9624 -1.5589 -0.4405
  233MOL0     H31418   4.651   8.491   2.635  0.5086 -1.4983  2.0675
  233MOL0     H31419   4.450   7.895   2.491  1.2190  1.1213 -0.1080
  233MOL0     H31420   4.220   7.836   2.420 -2.2516 -1.1443  0.5433
  233MOL0     H31421   3.880   8.099   2.572  1.9945  2.7364  0.0231
  233MOL0     H31422   3.958   8.131   2.420 -0.5366 -0.2883  0.4869
  233MOL0     H31423   3.737   8.114   2.378  2.3147  1.6232  0.3188
  233MOL0     H31424   3.806   7.954   2.315  1.4348 -1.6557  0.9913
  233MOL0     H31425   3.651   7.978   2.579 -0.0384 -2.9422  1.3199
  233MOL0     H31426   3.712   7.835   2.487  2.2811  0.8519 -2.3163
  233MOL0     H31427   3.495   8.030   2.382 -1.2031 -0.3532 -0.7512
  233MOL0     H31428   3.565   7.890   2.304 -1.4819 -0.7917 -0.5273
  233MOL0     H31429   3.422   7.901   2.582  2.3618 -2.3120  1.5777
  233MOL0     H31430   3.467   7.750   2.499 -1.3818 -0.6236 -1.3977
  233MOL0     H31431   3.280   7.966   2.405  2.2581  0.2089  1.1375
  233MOL0     H31432   3.312   7.815   2.312 -1.5922 -2.2407  0.0681
  233MOL0     H31433   3.169   7.843   2.590 -1.0374 -2.7052  1.0029
  233MOL0     H31434   3.200   7.695   2.511  0.6513  0.4746  3.9672
  233MOL0     H31435   3.024   7.747   2.347  1.9900 -0.6679 -0.9914
  233MOL0     H31436   3.034   7.924   2.388 -2.0148 -1.4560 -2.1798
  233MOL0     H31437   4.042   8.137   2.675 -0.5594 -3.8733  2.6568
  233MOL0     H31438   4.260   8.181   2.760 -3.4589  1.2618 -0.7660
  233MOL0     H31439   4.695   8.020   2.785 -0.5638  0.5813 -2.3936
  233MOL0     H31440   4.896   8.040   2.940  0.4533  0.4743  0.6586
  233MOL0     H31441   6.509   7.528   2.931  0.9419 -3.9620  0.1281
  233MOL0     H31442   6.641   7.378   3.050 -2.1422 -0.0442 -1.2033
  233MOL0     H31443   6.800   7.297   3.665  0.7060 -0.5236 -0.1509
  233MOL0     H31444   6.964   7.155   3.761 -0.9432  0.7545  0.9388
  233MOL0     H31445   7.202   7.092   3.803  2.3474 -1.6549  1.3748
  233MOL0     H31446   7.099   6.948   3.781 -1.1539 -2.1977 -1.0285
  233MOL0     H31447   7.393   7.003   3.721  0.7752  0.2247  0.1558
  233MOL0     H31448   7.320   6.836   3.700 -1.3596 -0.0574 -1.8026
  233MOL0     H31449   7.282   6.827   3.948  4.0894 -2.5084  3.3762
  233MOL0     H31450   7.372   6.988   3.969  0.7520 -1.0817  1.9174
  233MOL0     H31451   7.481   6.738   3.851 -0.6419  0.1498  0.6062
  233MOL0     H31452   7.507   6.809   4.023  1.5087 -0.9719 -0.1988
  233MOL0     H31453   7.734   7.100   3.834  1.1006  0.3687  3.1487
  233MOL0     H31454   7.136   7.107   3.369  1.1560  1.0802  0.5068
  233MOL0     H31455   6.935   7.202   3.275  0.7561 -1.0959  0.0991
  234MOL0     O31456   0.782   7.365   7.225  0.0146  0.3697  0.2450
  234MOL0     C31457   0.795   7.355   7.343  0.7064  0.6845 -0.3330
  234MOL0     O31458   0.699   7.364   7.444 -0.0771 -0.5766  0.1215
  234MOL0     C31459   0.579   7.419   7.405  0.4517  0.6295  1.3987
  234MOL0     C31460   0.459   7.359   7.435 -0.2014 -1.2726  0.8310
  234MOL0     C31461   0.331   7.416   7.395 -0.2367 -0.1351  0.5694
  234MOL0     C31462   0.329   7.531   7.312 -0.2915  1.3214  0.1368
  234MOL0     O31463   0.212   7.595   7.282 -0.4594 -0.2207  0.0231
  234MOL0     C31464   0.178   7.702   7.365 -0.1255 -0.1353  0.3584
  234MOL0     C31465   0.033   7.753   7.337 -0.2944  0.2109 -0.2388
  234MOL0     C31466  -0.065   7.653   7.398  0.0695 -0.1134  0.2891
  234MOL0     C31467  -0.201   7.711   7.368  0.1481  1.0926  0.2514
  234MOL0     C31468  -0.315   7.611   7.390 -0.1199 -0.0397  0.7765
  234MOL0     C31469  -0.326   7.491   7.290  0.9221  0.5047 -0.4774
  234MOL0     C31470  -0.471   7.439   7.277 -0.6973 -0.0792  0.3499
  234MOL0     C31471  -0.506   7.357   7.402  0.1466  0.6886  0.5585
  234MOL0     N31472  -0.481   7.212   7.364 -0.6992  0.1376  0.0714
  234MOL0     C31473  -0.565   7.122   7.316  0.0525  0.7928 -0.7734
  234MOL0     C31474  -0.502   7.002   7.325  0.8344  0.3948  0.2723
  234MOL0     C31475  -0.554   6.870   7.271  0.3620 -0.6312  0.8124
  234MOL0     C31476  -0.604   6.793   7.393  0.7521 -0.0264  0.1366
  234MOL0     C31477  -0.670   6.660   7.352 -0.6281 -0.1322  0.1757
  234MOL0     C31478  -0.730   6.576   7.471 -0.1929  0.9882  0.1891
  234MOL0     O31479  -0.828   6.472   7.437  0.4820  0.2568  0.0076
  234MOL0     C31480  -0.956   6.509   7.425 -0.7713  0.7567  0.0121
  234MOL0     C31481  -1.033   6.392   7.411 -0.1852 -0.5297 -0.5870
  234MOL0     C31482  -1.171   6.399   7.390  0.1932  0.0958  0.3190
  234MOL0     C31483  -1.246   6.264   7.368  0.3822 -0.2188  0.8473
  234MOL0     C31484  -1.234   6.525   7.394  0.0314  0.2178 -0.2597
  234MOL0     C31485  -1.379   6.551   7.386  0.0320 -0.3387 -0.5064
  234MOL0     O31486  -1.467   6.435   7.387  0.0422 -0.4172  0.4368
  234MOL0     C31487  -1.594   6.454   7.423 -0.3169  0.2555  0.5630
  234MOL0     C31488  -1.651   6.395   7.535 -0.2195 -0.5576  0.9418
  234MOL0     C31489  -1.786   6.398   7.559  0.0282  0.5707 -0.0882
  234MOL0     C31490  -1.877   6.463   7.468 -0.1774 -0.1329 -0.2289
  234MOL0     O31491  -2.007   6.449   7.499 -0.0971  0.3942  0.0375
  234MOL0     C31492  -2.098   6.517   7.404  0.0738 -0.7677 -0.0326
  234MOL0     C31493  -2.245   6.497   7.463  0.4374  0.1924 -0.1059
  234MOL0     C31494  -2.358   6.574   7.391  0.6022 -0.4618  0.0010
  234MOL0     C31495  -2.494   6.516   7.435  0.8186 -0.6414 -0.5603
  234MOL0     C31496  -2.606   6.619   7.423 -0.2170  0.0176 -0.0599
  234MOL0     C31497  -2.623   6.697   7.298  0.2842 -0.0286  0.1340
  234MOL0     C31498  -2.664   6.594   7.190  0.1942 -1.1743 -0.6542
  234MOL0     C31499  -2.708   6.651   7.064 -0.2052  0.2037 -0.8183
  234MOL0    Cl31500  -2.770   6.519   6.959  0.0176  0.2774  0.2706
  234MOL0     C31501  -1.813   6.530   7.359 -0.5176  0.3490  1.0045
  234MOL0     C31502  -1.682   6.515   7.336 -0.5015 -0.5285 -0.0652
  234MOL0     O31503  -1.423   6.667   7.406  0.1853  0.2982 -0.6637
  234MOL0     C31504  -1.148   6.644   7.397  0.3192 -0.0188 -0.7119
  234MOL0     C31505  -1.012   6.631   7.405 -0.1801 -1.0179 -0.0113
  234MOL0     N31506  -0.373   7.029   7.357 -0.1781 -0.7664  0.0473
  234MOL0     N31507  -0.365   7.159   7.388 -0.0692  0.2734  1.3210
  234MOL0     C31508   0.450   7.581   7.286 -0.7772 -1.1467  0.0589
  234MOL0     C31509   0.573   7.538   7.331  0.1448 -0.2810  0.0210
  234MOL0     C31510   0.930   7.320   7.390  0.0596  1.2135 -0.7823
  234MOL0     C31511   1.028   7.269   7.309  0.1719 -1.1274  0.4988
  234MOL0     C31512   1.156   7.236   7.352  0.9311 -0.7406 -0.5164
  234MOL0     C31513   1.182   7.228   7.491  0.2259  0.5668  0.0832
  234MOL0     O31514   1.292   7.177   7.542  0.1072  0.4378  0.1493
  234MOL0     C31515   1.405   7.156   7.455 -0.3530  0.2198  0.3257
  234MOL0     C31516   1.531   7.178   7.528 -0.3833  1.0082 -0.0067
  234MOL0     C31517   1.551   7.338   7.541 -0.2526 -0.7383 -0.7828
  234MOL0     C31518   1.687   7.383   7.601 -0.3678  0.4762  0.4471
  234MOL0     C31519   1.727   7.319   7.724  0.1559 -0.0050  0.1077
  234MOL0     C31520   1.777   7.283   7.829 -0.6463  0.4898 -0.5835
  234MOL0     C31521   1.086   7.273   7.580 -0.2866 -0.5749  0.9982
  234MOL0     C31522   0.962   7.317   7.530 -0.0069  1.1136  0.8748
  234MOL0     H31523   0.464   7.269   7.495 -1.1546 -1.5496  0.5013
  234MOL0     H31524   0.233   7.378   7.422  0.8007 -2.1287  1.7558
  234MOL0     H31525   0.192   7.674   7.470 -0.3305 -1.3335  0.0754
  234MOL0     H31526   0.248   7.784   7.345 -0.9579  0.8723  1.4405
  234MOL0     H31527   0.015   7.854   7.376 -0.0181  0.0536  0.2981
  234MOL0     H31528   0.018   7.766   7.229 -1.2176 -2.1530 -0.4453
  234MOL0     H31529  -0.045   7.549   7.373  0.3283 -0.2325  0.9513
  234MOL0     H31530  -0.056   7.670   7.506 -0.5649  2.0544  0.0597
  234MOL0     H31531  -0.220   7.797   7.433  0.9277  2.3683 -1.1612
  234MOL0     H31532  -0.205   7.730   7.261 -1.7089 -1.3591 -0.2152
  234MOL0     H31533  -0.318   7.576   7.493  0.5967 -2.4468  0.0508
  234MOL0     H31534  -0.404   7.673   7.386  0.0396  0.1576 -0.0137
  234MOL0     H31535  -0.313   7.525   7.187 -3.6423  2.4822 -0.6602
  234MOL0     H31536  -0.259   7.408   7.316 -1.6949 -1.3099  1.0397
  234MOL0     H31537  -0.543   7.521   7.265 -2.0630 -1.1970  0.6620
  234MOL0     H31538  -0.465   7.384   7.183  0.6417  1.8506 -0.7753
  234MOL0     H31539  -0.613   7.374   7.420  0.4193  3.5157 -0.0009
  234MOL0     H31540  -0.449   7.375   7.493  1.6240 -1.0878  0.0398
  234MOL0     H31541  -0.660   7.147   7.270  1.7063  3.2261 -3.1778
  234MOL0     H31542  -0.635   6.889   7.199 -0.2090  4.4014  2.3644
  234MOL0     H31543  -0.470   6.816   7.227  0.5815 -0.0533  0.5244
  234MOL0     H31544  -0.686   6.856   7.429 -0.8887  0.1581 -3.4228
  234MOL0     H31545  -0.527   6.775   7.468 -0.0775  0.6192  1.1720
  234MOL0     H31546  -0.586   6.606   7.309  2.1030  0.3621  4.3408
  234MOL0     H31547  -0.747   6.691   7.280 -0.1837 -1.1671 -0.7638
  234MOL0     H31548  -0.782   6.645   7.537 -1.0196 -2.5452  3.5468
  234MOL0     H31549  -0.643   6.519   7.504 -1.3208 -1.0823 -0.2356
  234MOL0     H31550  -0.990   6.293   7.422 -2.1566 -1.3525  0.2963
  234MOL0     H31551  -1.173   6.182   7.357 -0.5179 -1.1769  1.8147
  234MOL0     H31552  -1.316   6.247   7.450  0.4433 -0.6788  0.8116
  234MOL0     H31553  -1.300   6.260   7.273  1.5393 -0.2327  0.1638
  234MOL0     H31554  -1.586   6.355   7.612 -0.6178  0.5548  1.8870
  234MOL0     H31555  -1.834   6.357   7.647  2.3665 -2.5380 -0.0825
  234MOL0     H31556  -2.075   6.622   7.384 -2.0392 -0.6156 -2.0667
  234MOL0     H31557  -2.081   6.470   7.307  0.0349 -0.3134 -0.2607
  234MOL0     H31558  -2.265   6.389   7.457 -0.7663  0.4272 -0.6705
  234MOL0     H31559  -2.242   6.530   7.567 -2.2699 -1.6018  0.6356
  234MOL0     H31560  -2.350   6.570   7.282 -0.6110  3.0160 -0.3318
  234MOL0     H31561  -2.334   6.679   7.410  2.1117 -0.1001 -3.2230
  234MOL0     H31562  -2.521   6.426   7.379 -0.2577 -2.0086  2.0032
  234MOL0     H31563  -2.493   6.501   7.543  0.4904  3.1926  0.1221
  234MOL0     H31564  -2.597   6.691   7.505 -2.1250  0.6708 -0.3561
  234MOL0     H31565  -2.699   6.562   7.429 -0.5718  0.1199 -3.1760
  234MOL0     H31566  -2.705   6.768   7.313  1.2507  1.0260  0.5823
  234MOL0     H31567  -2.530   6.744   7.266  1.1532 -0.8735  1.3195
  234MOL0     H31568  -2.747   6.531   7.222 -0.5905  0.7842  1.4567
  234MOL0     H31569  -2.578   6.531   7.167  1.6719  1.0335 -1.4712
  234MOL0     H31570  -2.619   6.696   7.020 -0.3023 -0.2339 -1.4815
  234MOL0     H31571  -2.786   6.726   7.083 -1.8872 -1.9295  1.3316
  234MOL0     H31572  -1.876   6.598   7.303  0.7580 -1.2266 -2.6041
  234MOL0     H31573  -1.643   6.563   7.246  0.8771  0.9771  1.2683
  234MOL0     H31574  -1.191   6.744   7.394 -0.9477 -0.5134  0.1229
  234MOL0     H31575  -0.950   6.719   7.389 -1.2728 -0.3234 -0.5959
  234MOL0     H31576   0.450   7.679   7.238  1.7818 -0.7344  0.7613
  234MOL0     H31577   0.668   7.588   7.312  0.7567 -1.4216 -0.0337
  234MOL0     H31578   1.012   7.269   7.202 -0.9586  0.8926  0.6169
  234MOL0     H31579   1.226   7.201   7.276 -1.2547 -2.1256 -1.9880
  234MOL0     H31580   1.394   7.054   7.418  1.4892  0.6390 -1.5760
  234MOL0     H31581   1.417   7.205   7.358  2.9584 -4.3406 -1.9336
  234MOL0     H31582   1.611   7.125   7.475 -1.0754  0.8243 -0.8712
  234MOL0     H31583   1.516   7.128   7.624 -0.5117 -0.8335 -0.9582
  234MOL0     H31584   1.475   7.374   7.611  0.3851  0.8905 -0.8851
  234MOL0     H31585   1.532   7.383   7.443 -1.1548 -1.9307 -1.1825
  234MOL0     H31586   1.668   7.486   7.633 -3.4046  0.0673  0.2618
  234MOL0     H31587   1.766   7.386   7.526  0.0365  2.9738  0.8848
  234MOL0     H31588   1.822   7.242   7.917 -0.1345 -0.1318 -1.1228
  234MOL0     H31589   1.084   7.264   7.688 -2.8550 -0.9032  0.9828
  234MOL0     H31590   0.889   7.332   7.609 -0.6962  3.8405 -0.1644
  235MOL0     O31591   0.094  10.073   7.758  0.1386 -0.5017  0.1836
  235MOL0     C31592   0.150   9.969   7.733 -0.1665 -0.0258  0.0190
  235MOL0     O31593   0.085   9.848   7.699  0.9689  0.6381 -0.2144
  235MOL0     C31594  -0.053   9.839   7.676 -0.3789 -0.5778  0.5220
  235MOL0     C31595  -0.098   9.762   7.564 -0.9325  0.4115  0.0335
  235MOL0     C31596  -0.238   9.736   7.542 -0.5974 -0.1713 -0.8139
  235MOL0     C31597  -0.336   9.781   7.639  0.1031 -0.6177  0.0496
  235MOL0     O31598  -0.473   9.756   7.636  0.3055 -0.1618 -0.1335
  235MOL0     C31599  -0.511   9.641   7.559  0.3155 -0.6411 -0.5508
  235MOL0     C31600  -0.667   9.625   7.577 -0.8545  0.1353  0.4113
  235MOL0     C31601  -0.731   9.515   7.498  0.9066  0.2538  0.5809
  235MOL0     C31602  -0.892   9.524   7.504  0.3185  0.5142 -0.3760
  235MOL0     C31603  -0.954   9.398   7.426  0.7368  0.2775  0.0217
  235MOL0     C31604  -1.109   9.381   7.458  1.2143  0.2292  0.0110
  235MOL0     C31605  -1.199   9.460   7.364  0.1384 -0.1556 -0.1675
  235MOL0     C31606  -1.348   9.440   7.411 -0.1362 -0.1816 -0.0275
  235MOL0     N31607  -1.437   9.530   7.321 -0.2641  0.7122  0.0678
  235MOL0     C31608  -1.560   9.572   7.373 -0.5697 -0.0562  0.6827
  235MOL0     C31609  -1.633   9.601   7.263  0.2936 -0.2049  0.1800
  235MOL0     C31610  -1.772   9.663   7.265  0.6137 -0.2532 -0.1192
  235MOL0     C31611  -1.865   9.592   7.168 -0.1035 -0.2054  0.3898
  235MOL0     C31612  -2.014   9.610   7.199 -0.2724 -0.7443 -0.5919
  235MOL0     C31613  -2.063   9.557   7.333 -0.9593 -0.3151  0.0628
  235MOL0     O31614  -2.024   9.617   7.455  0.1972 -0.0261  0.2406
  235MOL0     C31615  -2.106   9.565   7.549  0.1883  0.2918 -0.6478
  235MOL0     C31616  -2.050   9.473   7.635  0.1913 -0.3146  1.2095
  235MOL0     C31617  -2.123   9.408   7.727  0.3539  1.0126 -0.6096
  235MOL0     C31618  -2.059   9.288   7.800  0.6069 -0.3817 -0.8160
  235MOL0     C31619  -2.258   9.450   7.766 -0.2818  0.5287 -0.3380
  235MOL0     C31620  -2.343   9.382   7.866 -0.1467  0.1266 -0.4035
  235MOL0     O31621  -2.282   9.355   7.984 -1.0481  0.1246 -0.4522
  235MOL0     C31622  -2.357   9.279   8.073  0.6804 -0.1431  0.9076
  235MOL0     C31623  -2.445   9.334   8.169  0.3901 -0.9756 -0.5698
  235MOL0     C31624  -2.529   9.264   8.252  0.0419  0.2331  0.2404
  235MOL0     C31625  -2.543   9.134   8.233  0.6152  0.3506 -0.5955
  235MOL0     O31626  -2.634   9.072   8.315 -0.0125 -0.1991 -0.0805
  235MOL0     C31627  -2.752   9.003   8.267 -0.4345 -0.0298 -0.2641
  235MOL0     C31628  -2.848   9.090   8.180  0.0242 -0.0312  0.7050
  235MOL0     C31629  -2.922   9.194   8.271  0.0160 -0.5073  0.1847
  235MOL0     C31630  -3.056   9.243   8.211 -0.2733 -0.2289 -0.7897
  235MOL0     C31631  -3.113   9.364   8.299 -0.1892  0.1597  0.1339
  235MOL0     C31632  -3.241   9.415   8.235  0.2656  0.7493  0.3817
  235MOL0     C31633  -3.324   9.512   8.323 -0.5983 -0.4325  0.6080
  235MOL0     C31634  -3.471   9.505   8.276 -0.5923 -0.3872  0.6634
  235MOL0    Cl31635  -3.489   9.559   8.103 -0.0381 -0.1234 -0.0144
  235MOL0     C31636  -2.461   9.064   8.142 -0.0852  1.0007 -0.4694
  235MOL0     C31637  -2.371   9.135   8.062  0.0067  0.4629 -0.1112
  235MOL0     O31638  -2.464   9.367   7.845  0.2214 -0.2157  0.2524
  235MOL0     C31639  -2.304   9.563   7.684  0.4150  0.0819 -0.2457
  235MOL0     C31640  -2.233   9.612   7.575 -0.5169  0.2916 -0.3283
  235MOL0     N31641  -1.554   9.592   7.152 -0.1651  0.3784  0.4101
  235MOL0     N31642  -1.440   9.546   7.189 -0.5245 -0.9016 -1.0178
  235MOL0     C31643  -0.281   9.871   7.736  0.1393 -0.3843 -0.0765
  235MOL0     C31644  -0.146   9.903   7.755  0.5379 -0.6084  0.9502
  235MOL0     C31645   0.292   9.970   7.723  0.4098  0.9885 -0.1992
  235MOL0     C31646   0.372  10.081   7.744 -0.1173  0.1560  0.3848
  235MOL0     C31647   0.510  10.073   7.715 -0.3755 -0.2271  0.0194
  235MOL0     C31648   0.570   9.955   7.668  0.6592 -0.4272 -0.0224
  235MOL0     O31649   0.700   9.941   7.632  1.0486  0.3963  0.1134
  235MOL0     C31650   0.799   9.895   7.726  1.6615  0.0567 -1.3732
  235MOL0     C31651   0.934   9.875   7.656 -0.0812  0.6336  0.1539
  235MOL0     C31652   0.992  10.001   7.602 -0.4347  0.2489  0.2994
  235MOL0     C31653   1.136   9.970   7.564  0.0284  0.0316 -0.0631
  235MOL0     C31654   1.195  10.101   7.547 -0.6604 -0.2788  0.1054
  235MOL0     C31655   1.249  10.210   7.537  0.1212 -0.3946  0.2252
  235MOL0     C31656   0.492   9.844   7.651  0.5289  0.2135 -0.0620
  235MOL0     C31657   0.357   9.850   7.689  0.2144 -0.1129 -0.5008
  235MOL0     H31658  -0.023   9.731   7.493 -1.6056  3.9235 -2.5102
  235MOL0     H31659  -0.273   9.678   7.456  2.2546 -3.5537  0.0861
  235MOL0     H31660  -0.493   9.661   7.453  2.9080 -0.7396 -0.1992
  235MOL0     H31661  -0.463   9.549   7.594  2.3243  1.3148  2.2637
  235MOL0     H31662  -0.695   9.615   7.683 -2.0920 -0.6441  0.0291
  235MOL0     H31663  -0.712   9.716   7.538  0.7836 -0.4929 -3.3539
  235MOL0     H31664  -0.714   9.530   7.391  1.2855  0.5788  0.6852
  235MOL0     H31665  -0.705   9.411   7.520 -3.3392 -1.4514 -1.3346
  235MOL0     H31666  -0.929   9.528   7.607  0.2786 -0.6516 -0.3345
  235MOL0     H31667  -0.918   9.619   7.456  0.6370  1.6141  1.5332
  235MOL0     H31668  -0.940   9.423   7.320 -1.9428 -2.5268 -1.1773
  235MOL0     H31669  -0.906   9.300   7.434 -0.5655 -0.2542  2.1537
  235MOL0     H31670  -1.147   9.279   7.447 -0.5144  0.8181  0.1023
  235MOL0     H31671  -1.125   9.414   7.561  2.0655  1.8807 -0.3502
  235MOL0     H31672  -1.167   9.564   7.373  2.1576 -0.8627  1.9399
  235MOL0     H31673  -1.185   9.410   7.268  1.2344 -4.0791  1.8095
  235MOL0     H31674  -1.353   9.473   7.515  0.2859  1.1313 -0.3929
  235MOL0     H31675  -1.388   9.339   7.405 -0.7473 -0.1928  2.9450
  235MOL0     H31676  -1.590   9.577   7.477 -1.3017  2.2530  0.4271
  235MOL0     H31677  -1.804   9.669   7.369 -0.5356 -0.3626 -0.4572
  235MOL0     H31678  -1.767   9.769   7.238  1.4041  0.2755  1.9589
  235MOL0     H31679  -1.870   9.484   7.153 -1.7146  0.1989 -2.8916
  235MOL0     H31680  -1.844   9.619   7.064  0.0440 -2.1532 -0.1398
  235MOL0     H31681  -2.081   9.567   7.124 -2.0201 -1.1904  1.1382
  235MOL0     H31682  -2.029   9.718   7.207 -1.6701 -0.9721  0.2533
  235MOL0     H31683  -2.034   9.452   7.326  1.2420  0.2499  0.1210
  235MOL0     H31684  -2.171   9.577   7.327 -0.4680  2.6942 -0.4302
  235MOL0     H31685  -1.943   9.456   7.623  0.4441  0.6648  1.8626
  235MOL0     H31686  -1.962   9.269   7.752  2.0182  2.5319  0.6374
  235MOL0     H31687  -2.035   9.310   7.904 -0.5003  2.9725 -1.1735
  235MOL0     H31688  -2.124   9.200   7.801  2.4435 -1.7994 -0.1472
  235MOL0     H31689  -2.436   9.442   8.180 -4.3802 -0.0943 -2.6685
  235MOL0     H31690  -2.589   9.324   8.319 -0.9823  2.1606 -2.2394
  235MOL0     H31691  -2.728   8.909   8.218  1.5801 -1.0877  2.4365
  235MOL0     H31692  -2.804   8.971   8.358  0.3537 -1.1659 -0.1882
  235MOL0     H31693  -2.792   9.133   8.097  1.0227 -1.4544  0.6210
  235MOL0     H31694  -2.919   9.019   8.136  3.4315 -2.5758 -1.1320
  235MOL0     H31695  -2.863   9.283   8.293 -2.3358  1.0613  0.5313
  235MOL0     H31696  -2.952   9.152   8.367 -1.7378 -2.6655 -1.2125
  235MOL0     H31697  -3.040   9.276   8.107 -1.3838  0.2748 -0.8152
  235MOL0     H31698  -3.126   9.159   8.207 -3.8147  2.4825 -0.5429
  235MOL0     H31699  -3.043   9.447   8.306  2.2809 -1.7221 -0.9384
  235MOL0     H31700  -3.128   9.340   8.405  2.4294  1.9181  1.0017
  235MOL0     H31701  -3.213   9.468   8.143 -0.3596  0.6123  0.1036
  235MOL0     H31702  -3.298   9.325   8.208  2.4077 -1.4355  2.6663
  235MOL0     H31703  -3.290   9.615   8.312 -0.0114 -0.6690  0.1367
  235MOL0     H31704  -3.318   9.483   8.428  3.2730 -3.6155 -0.2405
  235MOL0     H31705  -3.523   9.577   8.340 -2.1050  0.9024 -1.8625
  235MOL0     H31706  -3.523   9.409   8.285  0.2820 -0.9679 -0.2110
  235MOL0     H31707  -2.476   8.957   8.133  0.5302  0.9481 -0.9473
  235MOL0     H31708  -2.315   9.081   7.986 -2.8917 -0.7137 -1.5678
  235MOL0     H31709  -2.405   9.600   7.693 -0.0640 -1.5020  1.6931
  235MOL0     H31710  -2.274   9.684   7.505 -2.5492 -0.7536 -0.2578
  235MOL0     H31711  -0.362   9.910   7.797 -1.0391  0.1385 -1.8649
  235MOL0     H31712  -0.116   9.965   7.840 -0.1708 -0.5729  1.1792
  235MOL0     H31713   0.318  10.173   7.763 -1.6855 -0.3032 -1.5012
  235MOL0     H31714   0.572  10.160   7.732 -2.6543  1.5613 -0.3777
  235MOL0     H31715   0.806   9.970   7.806  1.4148  0.7181 -1.9576
  235MOL0     H31716   0.771   9.797   7.766  2.0719  0.4439 -0.0956
  235MOL0     H31717   0.937   9.805   7.572  1.6038 -0.2206  0.8776
  235MOL0     H31718   0.991   9.832   7.739 -0.4494  0.0983  0.1392
  235MOL0     H31719   0.996  10.069   7.688 -2.2255  2.0573 -0.9592
  235MOL0     H31720   0.937  10.043   7.518  0.9754  0.4187 -0.5756
  235MOL0     H31721   1.120   9.909   7.475 -0.3988 -1.6757  1.1373
  235MOL0     H31722   1.198   9.917   7.636  0.5928 -0.5963 -0.9874
  235MOL0     H31723   1.303  10.302   7.543  1.5022 -1.1761  0.2106
  235MOL0     H31724   0.551   9.758   7.623  1.9425  1.3379 -0.6906
  235MOL0     H31725   0.300   9.760   7.667 -0.3918  0.2619 -0.5071
  236MOL0     O31726   7.850   6.307   9.439 -0.2672  0.4780 -0.0647
  236MOL0     C31727   7.904   6.381   9.363 -0.0773  0.2361 -0.1735
  236MOL0     O31728   7.852   6.419   9.240 -0.5493 -0.1745 -0.5649
  236MOL0     C31729   7.715   6.431   9.227  0.0624  0.2071 -0.8420
  236MOL0     C31730   7.672   6.445   9.100  0.3415 -0.6033  0.9442
  236MOL0     C31731   7.537   6.432   9.072  0.1067  0.6842 -0.2592
  236MOL0     C31732   7.439   6.414   9.176  0.2012  0.2105  0.0590
  236MOL0     O31733   7.301   6.402   9.158  0.1429 -0.5230 -0.3065
  236MOL0     C31734   7.257   6.331   9.037 -0.3510 -0.9763 -0.2745
  236MOL0     C31735   7.101   6.338   9.027  0.2797 -0.1388 -0.5374
  236MOL0     C31736   7.044   6.479   9.064  0.5084  0.5561  0.2798
  236MOL0     C31737   6.902   6.492   9.007  0.3537  0.3423  0.7882
  236MOL0     C31738   6.827   6.620   9.047  0.0053  0.5377 -0.6585
  236MOL0     C31739   6.788   6.614   9.195  0.3551  0.1826 -0.3146
  236MOL0     C31740   6.756   6.764   9.241 -0.0372  1.3159 -0.0260
  236MOL0     C31741   6.716   6.753   9.388  0.3405  0.3781  0.5496
  236MOL0     N31742   6.679   6.888   9.448  0.4520  0.8842 -0.7246
  236MOL0     C31743   6.586   6.973   9.392 -0.5065 -0.2549 -0.2107
  236MOL0     C31744   6.576   7.072   9.479  0.2544 -0.5777  0.8353
  236MOL0     C31745   6.486   7.183   9.442  0.4475  0.0856  0.0365
  236MOL0     C31746   6.508   7.306   9.528  0.5963 -0.5225  0.5476
  236MOL0     C31747   6.434   7.434   9.476  0.8730 -0.0047 -0.1528
  236MOL0     C31748   6.275   7.430   9.480 -0.2411  0.1933  0.3820
  236MOL0     O31749   6.230   7.460   9.612 -0.5953  0.3404 -0.0323
  236MOL0     C31750   6.095   7.474   9.630  0.1552  0.7132 -0.1072
  236MOL0     C31751   6.000   7.503   9.539  0.6337  0.2390  0.5516
  236MOL0     C31752   5.863   7.525   9.577  0.0709 -0.0286 -0.1020
  236MOL0     C31753   5.772   7.576   9.464  0.0249 -1.0096 -0.3657
  236MOL0     C31754   5.830   7.524   9.710  0.0452 -0.2882  0.2878
  236MOL0     C31755   5.693   7.560   9.769 -0.3898  0.0110 -0.1869
  236MOL0     O31756   5.596   7.599   9.682  0.0675  0.3327  0.1317
  236MOL0     C31757   5.488   7.674   9.719 -0.0406  1.1053 -0.5665
  236MOL0     C31758   5.488   7.745   9.838  0.6407 -0.0896  0.1563
  236MOL0     C31759   5.367   7.810   9.874  0.2222 -0.9957  0.4107
  236MOL0     C31760   5.254   7.812   9.802 -0.5510 -0.4317  1.0838
  236MOL0     O31761   5.133   7.866   9.831  0.3148 -0.1737 -0.3249
  236MOL0     C31762   5.096   7.866   9.971  0.1567 -0.9998 -0.0952
  236MOL0     C31763   4.953   7.936   9.980 -0.0210 -0.8365  0.0871
  236MOL0     C31764   4.900   7.987  10.112  0.2095  0.2632  0.4810
  236MOL0     C31765   4.805   7.876  10.169  1.3827 -0.0863 -0.0582
  236MOL0     C31766   4.763   7.898  10.314  0.0615 -0.6771 -0.0018
  236MOL0     C31767   4.689   8.028  10.352 -0.7167  0.6435 -0.0061
  236MOL0     C31768   4.561   8.061  10.276 -0.2309  0.0372  0.1633
  236MOL0     C31769   4.486   8.176  10.339  0.3692 -0.3118  0.5152
  236MOL0    Cl31770   4.419   8.111  10.495 -0.0692 -0.5219  0.2808
  236MOL0     C31771   5.261   7.753   9.670  0.1925 -0.5595 -0.6891
  236MOL0     C31772   5.384   7.682   9.638 -0.9509  0.2130 -0.6400
  236MOL0     O31773   5.671   7.536   9.885  0.4720 -0.0714  0.0016
  236MOL0     C31774   5.930   7.491   9.798 -0.4876 -0.5483 -0.0635
  236MOL0     C31775   6.060   7.466   9.760 -0.0252 -0.3464  0.1866
  236MOL0     N31776   6.660   7.054   9.586 -0.1080 -0.0137 -0.2361
  236MOL0     N31777   6.724   6.940   9.572  0.2063 -0.3733 -0.2219
  236MOL0     C31778   7.485   6.400   9.300  0.2558 -0.4628 -0.4933
  236MOL0     C31779   7.622   6.417   9.329 -0.0218 -0.7702  0.4931
  236MOL0     C31780   8.047   6.406   9.383 -0.1533 -0.7879 -0.2960
  236MOL0     C31781   8.114   6.346   9.493  0.7562  0.0203  0.4125
  236MOL0     C31782   8.248   6.341   9.500 -0.3387  0.2123 -0.0133
  236MOL0     C31783   8.329   6.415   9.414 -0.4302  0.1315 -0.3724
  236MOL0     O31784   8.469   6.421   9.431 -0.0969  0.4399  0.0421
  236MOL0     C31785   8.530   6.335   9.527  0.0725 -0.6266  0.0488
  236MOL0     C31786   8.678   6.389   9.551  0.9809  0.2455  0.5720
  236MOL0     C31787   8.764   6.353   9.429  0.8515  0.9904 -0.5821
  236MOL0     C31788   8.784   6.199   9.419 -0.1997  0.2934  0.8222
  236MOL0     C31789   8.884   6.172   9.312 -0.0914 -0.0663  0.5830
  236MOL0     C31790   8.961   6.135   9.220 -0.2917  0.0862  0.5469
  236MOL0     C31791   8.269   6.483   9.317  0.5092 -0.3373  0.0999
  236MOL0     C31792   8.127   6.488   9.299  0.6869  0.0778  0.1454
  236MOL0     H31793   7.739   6.446   9.015  2.0824 -1.8045  2.2332
  236MOL0     H31794   7.505   6.437   8.968 -2.9286  0.9110  0.5908
  236MOL0     H31795   7.308   6.383   8.955  1.1210  1.1226  1.8283
  236MOL0     H31796   7.295   6.230   9.050  1.6649 -0.1506  0.7057
  236MOL0     H31797   7.088   6.302   8.924 -0.7256 -2.1469  0.2312
  236MOL0     H31798   7.051   6.259   9.084  0.8392 -0.6629 -0.7633
  236MOL0     H31799   7.034   6.482   9.173  1.1816  2.1419  0.3325
  236MOL0     H31800   7.109   6.559   9.026  0.6605  1.3082  1.9934
  236MOL0     H31801   6.908   6.486   8.898 -0.9971 -2.4266  0.7844
  236MOL0     H31802   6.854   6.404   9.049 -0.5095 -0.3715 -1.5135
  236MOL0     H31803   6.898   6.701   9.028  0.9027  0.3540  1.6627
  236MOL0     H31804   6.734   6.629   8.989  0.7287 -0.7004 -2.0933
  236MOL0     H31805   6.709   6.538   9.201  1.8417 -1.4761 -0.7832
  236MOL0     H31806   6.869   6.567   9.252  0.0152 -1.7256 -1.3289
  236MOL0     H31807   6.848   6.823   9.231  0.3455  0.7392  0.0652
  236MOL0     H31808   6.685   6.818   9.178  0.9700  1.4590 -1.0653
  236MOL0     H31809   6.802   6.724   9.448  0.6872  0.6895  0.2057
  236MOL0     H31810   6.640   6.674   9.395  1.3401 -0.6333  0.2412
  236MOL0     H31811   6.539   6.967   9.295 -0.4110 -0.5712 -0.2387
  236MOL0     H31812   6.486   7.197   9.334  1.2292 -0.1952 -0.0038
  236MOL0     H31813   6.386   7.145   9.464  0.3108  0.0378 -0.6733
  236MOL0     H31814   6.613   7.324   9.555  0.7585  0.9902 -0.9228
  236MOL0     H31815   6.466   7.283   9.627 -0.6320 -1.1855 -0.1059
  236MOL0     H31816   6.473   7.444   9.374  1.7341  4.6986  0.4099
  236MOL0     H31817   6.473   7.519   9.533  1.6853 -1.5969  1.7905
  236MOL0     H31818   6.250   7.329   9.447  0.6401  0.1695 -0.2615
  236MOL0     H31819   6.231   7.505   9.413 -1.2682 -1.4785 -0.8821
  236MOL0     H31820   6.034   7.507   9.436 -0.4677  0.0208  0.1655
  236MOL0     H31821   5.829   7.602   9.374 -1.3895  2.9454 -0.3539
  236MOL0     H31822   5.687   7.510   9.445 -2.5556  2.3506 -1.6947
  236MOL0     H31823   5.724   7.669   9.499  0.5319 -1.2261  0.9804
  236MOL0     H31824   5.575   7.750   9.903  0.5146 -0.0020  0.3197
  236MOL0     H31825   5.363   7.864   9.968  3.1190 -1.7090  1.0501
  236MOL0     H31826   5.098   7.762  10.003  1.2548 -0.3769  1.9894
  236MOL0     H31827   5.171   7.922  10.027 -0.9987  0.5821 -0.0360
  236MOL0     H31828   4.972   8.019   9.911  3.2361 -2.6867 -1.4534
  236MOL0     H31829   4.886   7.864   9.931  1.3801  0.1753 -3.6700
  236MOL0     H31830   4.844   8.080  10.100 -1.2572 -0.5428  0.9224
  236MOL0     H31831   4.978   8.001  10.188 -0.7590 -0.8390  1.7102
  236MOL0     H31832   4.711   7.874  10.113  0.2012 -4.1271  1.6788
  236MOL0     H31833   4.849   7.776  10.166  0.6403 -0.4487  0.6237
  236MOL0     H31834   4.854   7.908  10.374  1.9138 -0.9779 -2.5713
  236MOL0     H31835   4.709   7.810  10.349  0.0552  0.4007  2.9908
  236MOL0     H31836   4.674   8.026  10.460  1.1925  1.7345  0.3366
  236MOL0     H31837   4.762   8.110  10.355 -0.6208  0.6059  4.2013
  236MOL0     H31838   4.492   7.975  10.274 -0.2402  0.0334 -1.8772
  236MOL0     H31839   4.571   8.082  10.169 -0.2152 -0.8081 -0.0073
  236MOL0     H31840   4.408   8.205  10.268  1.8392  2.1675 -0.2123
  236MOL0     H31841   4.550   8.264  10.354 -0.8081  0.6277  0.2065
  236MOL0     H31842   5.170   7.770   9.614  1.1255  1.1088 -1.7740
  236MOL0     H31843   5.389   7.634   9.541  1.3743 -0.0749 -0.4216
  236MOL0     H31844   5.913   7.473   9.903  4.2031 -1.1544  0.8164
  236MOL0     H31845   6.129   7.429   9.835 -0.1932 -1.9453 -0.3938
  236MOL0     H31846   7.421   6.379   9.386  1.7694 -0.4787  0.6673
  236MOL0     H31847   7.649   6.419   9.434  0.2726  0.5293  0.4162
  236MOL0     H31848   8.061   6.288   9.567 -0.5945 -2.4419 -2.2814
  236MOL0     H31849   8.287   6.292   9.588 -2.1049  0.0399  0.7124
  236MOL0     H31850   8.488   6.359   9.625 -1.3318  2.9987 -1.2607
  236MOL0     H31851   8.527   6.228   9.504  1.6327 -0.0470 -3.6396
  236MOL0     H31852   8.707   6.346   9.647 -1.7659 -2.3032  0.4154
  236MOL0     H31853   8.673   6.498   9.559  2.3172  0.2882  1.1334
  236MOL0     H31854   8.862   6.402   9.437  1.1751  0.5344 -1.5542
  236MOL0     H31855   8.717   6.397   9.340  3.0154  0.3736 -2.1212
  236MOL0     H31856   8.694   6.142   9.398  1.0337 -1.4529 -0.0313
  236MOL0     H31857   8.814   6.156   9.515 -0.3890 -1.5431  0.0938
  236MOL0     H31858   9.039   6.113   9.150 -0.7488 -3.0099  0.8644
  236MOL0     H31859   8.324   6.535   9.240 -2.2910 -1.4949 -2.9256
  236MOL0     H31860   8.090   6.528   9.205 -2.5308  0.6510  1.4947
  237MOL0     O31861   6.393   8.565   7.882  0.6430  0.1969 -0.6273
  237MOL0     C31862   6.339   8.575   7.994  0.4299  0.2012 -1.7241
  237MOL0     O31863   6.229   8.649   8.029 -0.8047 -0.0486  0.3514
  237MOL0     C31864   6.152   8.717   7.937  0.2029 -0.3314  0.3330
  237MOL0     C31865   6.147   8.697   7.797 -0.0553  0.2279  0.2762
  237MOL0     C31866   6.043   8.745   7.726  0.5105 -0.1217  0.3304
  237MOL0     C31867   5.952   8.836   7.783 -0.1908 -1.1656  0.3874
  237MOL0     O31868   5.873   8.899   7.689  0.1638  0.4329  0.5295
  237MOL0     C31869   5.770   8.986   7.728  0.2317  0.8068  0.7518
  237MOL0     C31870   5.715   9.063   7.604  0.3044 -0.3983  0.0471
  237MOL0     C31871   5.642   9.181   7.655  0.2375  0.5882 -0.2778
  237MOL0     C31872   5.559   9.236   7.541 -0.6028  0.0027 -1.0456
  237MOL0     C31873   5.501   9.364   7.597  0.0120 -0.5665 -0.2154
  237MOL0     C31874   5.351   9.385   7.589  1.2776  0.8162 -0.2997
  237MOL0     C31875   5.292   9.508   7.652 -0.5334 -0.1857 -0.8811
  237MOL0     C31876   5.142   9.524   7.624  0.9784 -0.5273  0.5743
  237MOL0     N31877   5.073   9.656   7.651 -0.2166 -0.2189  0.3619
  237MOL0     C31878   5.098   9.768   7.574 -0.0124  0.6978  0.1134
  237MOL0     C31879   4.985   9.842   7.592 -0.7678 -0.5138  0.7195
  237MOL0     C31880   4.974   9.996   7.569  0.4730 -0.1355  0.4457
  237MOL0     C31881   4.996  10.076   7.699  0.1729  0.6258 -0.1426
  237MOL0     C31882   4.877  10.092   7.794  0.6733  0.1520 -0.4453
  237MOL0     C31883   4.768  10.191   7.734  0.1382  0.0139 -0.4635
  237MOL0     O31884   4.659  10.219   7.813  0.6527  0.0168  0.0335
  237MOL0     C31885   4.568  10.118   7.816  0.8854  1.1310  0.6825
  237MOL0     C31886   4.570   9.994   7.749  0.3038  0.1949 -0.2849
  237MOL0     C31887   4.487   9.885   7.788  0.2885  0.1716 -0.5476
  237MOL0     C31888   4.504   9.741   7.725 -0.1143 -0.5384 -0.2399
  237MOL0     C31889   4.378   9.914   7.881  0.2921  0.6173 -0.4929
  237MOL0     C31890   4.273   9.820   7.920 -0.3144 -0.7358  0.2120
  237MOL0     O31891   4.208   9.859   8.033  0.1376  0.3580 -0.4997
  237MOL0     C31892   4.082   9.809   8.073 -0.5292  0.4054  0.4159
  237MOL0     C31893   3.997   9.720   7.995 -0.2593 -0.0229 -0.2338
  237MOL0     C31894   3.878   9.672   8.043  0.6817 -0.1022  0.1099
  237MOL0     C31895   3.841   9.698   8.173 -0.4981  0.2408 -0.6720
  237MOL0     O31896   3.712   9.660   8.215  0.0582  0.8152 -0.2358
  237MOL0     C31897   3.706   9.602   8.343  0.4977 -0.2656  0.5112
  237MOL0     C31898   3.608   9.482   8.351 -0.1036 -0.4105 -0.6577
  237MOL0     C31899   3.583   9.452   8.498  0.5570  0.5011  0.3958
  237MOL0     C31900   3.483   9.338   8.524 -0.2219 -0.5125  0.1924
  237MOL0     C31901   3.436   9.353   8.671  0.0934  0.8284  0.2912
  237MOL0     C31902   3.375   9.217   8.711  0.1495  0.0234  0.2641
  237MOL0     C31903   3.337   9.208   8.863 -0.0497  0.3505 -0.8045
  237MOL0     C31904   3.296   9.071   8.903 -0.2821 -0.1064  0.3405
  237MOL0    Cl31905   3.132   9.044   8.855  0.0456  0.3116  0.0325
  237MOL0     C31906   3.924   9.781   8.253 -0.0808 -0.1584  0.8737
  237MOL0     C31907   4.033   9.843   8.199 -0.4977 -0.4496  0.2298
  237MOL0     O31908   4.252   9.725   7.848 -0.7765  0.8186 -0.0949
  237MOL0     C31909   4.369  10.043   7.935 -0.2399 -0.0503  0.3487
  237MOL0     C31910   4.463  10.135   7.905 -0.0670 -0.4389 -0.2476
  237MOL0     N31911   4.888   9.767   7.651 -0.6186  0.4451  0.1075
  237MOL0     N31912   4.942   9.663   7.691 -0.4049 -0.3368  0.0052
  237MOL0     C31913   5.962   8.871   7.916 -0.6067  0.1341  0.1727
  237MOL0     C31914   6.068   8.811   7.992  0.4576 -0.0320 -0.3736
  237MOL0     C31915   6.429   8.529   8.106 -0.3994 -0.5131 -0.4174
  237MOL0     C31916   6.408   8.565   8.241  0.8930  0.6731  0.3930
  237MOL0     C31917   6.486   8.516   8.346 -0.5576  0.1850  0.1438
  237MOL0     C31918   6.601   8.436   8.319  0.0745  0.5753 -0.1268
  237MOL0     O31919   6.671   8.401   8.433  0.5110 -0.4135  0.8008
  237MOL0     C31920   6.783   8.314   8.432  0.3909 -0.2353  0.6176
  237MOL0     C31921   6.854   8.328   8.571  0.5666 -0.0037 -0.6965
  237MOL0     C31922   6.940   8.448   8.601  0.2208  0.0507  1.0285
  237MOL0     C31923   6.972   8.434   8.757  0.8794 -0.4922  0.0242
  237MOL0     C31924   7.068   8.539   8.791 -0.6754 -0.0662 -1.0433
  237MOL0     C31925   7.147   8.623   8.815 -0.2551  0.0789 -0.0887
  237MOL0     C31926   6.624   8.407   8.191 -0.5755  0.0327 -0.4404
  237MOL0     C31927   6.536   8.445   8.089 -0.8376 -0.0714  0.3539
  237MOL0     H31928   6.208   8.626   7.741 -1.1633 -0.6798  0.1861
  237MOL0     H31929   6.019   8.727   7.622  0.8382  0.6816  0.1095
  237MOL0     H31930   5.695   8.917   7.768  2.9373 -1.9115  1.5325
  237MOL0     H31931   5.800   9.060   7.804 -0.3381  1.5563  0.2619
  237MOL0     H31932   5.794   9.092   7.534  1.1780  0.4894  1.3471
  237MOL0     H31933   5.651   8.996   7.546  3.0492 -0.3265 -3.4628
  237MOL0     H31934   5.572   9.141   7.728  0.7340 -1.7985 -1.0317
  237MOL0     H31935   5.710   9.261   7.688  0.1850  2.7516 -4.6534
  237MOL0     H31936   5.620   9.262   7.454  0.9820  2.0726  0.5606
  237MOL0     H31937   5.482   9.161   7.520  0.6348 -1.9023  0.8158
  237MOL0     H31938   5.534   9.369   7.701  0.8721 -2.6696 -0.3320
  237MOL0     H31939   5.552   9.450   7.552 -2.4300  2.2445  2.0295
  237MOL0     H31940   5.329   9.385   7.482  0.4813 -2.9812 -0.2976
  237MOL0     H31941   5.302   9.299   7.637  1.0124  0.1071 -1.7859
  237MOL0     H31942   5.322   9.519   7.757  1.3894 -0.5798 -1.3411
  237MOL0     H31943   5.350   9.591   7.610 -0.8314  3.0381  4.1869
  237MOL0     H31944   5.085   9.446   7.674  0.7413  0.2853  1.5960
  237MOL0     H31945   5.130   9.522   7.515 -1.0626 -0.1317  0.7443
  237MOL0     H31946   5.191   9.793   7.525  0.4050 -0.3131  0.3688
  237MOL0     H31947   5.055  10.021   7.500  0.4831 -0.4861  0.3299
  237MOL0     H31948   4.874  10.018   7.531  0.1834 -1.6469  0.2691
  237MOL0     H31949   5.025  10.180   7.682 -0.3859  0.8043 -0.0243
  237MOL0     H31950   5.080  10.026   7.748  0.0822  1.1534  0.5647
  237MOL0     H31951   4.910  10.135   7.889 -0.1099  1.1714 -0.6116
  237MOL0     H31952   4.832   9.996   7.819  0.7279  0.6992  1.9903
  237MOL0     H31953   4.743  10.156   7.634  1.3721 -0.1858 -0.7210
  237MOL0     H31954   4.816  10.288   7.719  1.1369 -0.6650 -1.9449
  237MOL0     H31955   4.644   9.964   7.675 -0.9002  0.4743 -1.6383
  237MOL0     H31956   4.465   9.658   7.784 -2.9467  0.0666 -1.1031
  237MOL0     H31957   4.462   9.751   7.624 -1.7360  0.0853  0.4745
  237MOL0     H31958   4.611   9.717   7.720  0.3270  0.5900  2.1833
  237MOL0     H31959   4.037   9.677   7.903  2.2580 -0.5545  1.0110
  237MOL0     H31960   3.820   9.608   7.977  2.4275 -1.3270 -0.3277
  237MOL0     H31961   3.806   9.563   8.362  1.2490  0.7119 -1.2478
  237MOL0     H31962   3.678   9.679   8.417 -2.4335  1.6121 -2.2938
  237MOL0     H31963   3.516   9.501   8.295  0.4151 -0.4983 -1.5541
  237MOL0     H31964   3.653   9.389   8.315 -0.1695 -0.9070  0.4854
  237MOL0     H31965   3.566   9.532   8.571 -1.1989 -1.0769  1.8643
  237MOL0     H31966   3.673   9.403   8.538  1.9331  2.1025 -0.6357
  237MOL0     H31967   3.397   9.355   8.459 -1.0086  2.7286  1.8660
  237MOL0     H31968   3.525   9.240   8.497 -0.9987 -0.5828 -0.8310
  237MOL0     H31969   3.368   9.436   8.693 -0.1599  0.2404  1.9090
  237MOL0     H31970   3.524   9.358   8.736 -0.1221 -3.6160  1.2749
  237MOL0     H31971   3.289   9.197   8.646  1.3160 -2.0139 -0.7666
  237MOL0     H31972   3.449   9.142   8.682  0.8841 -0.1561  2.3861
  237MOL0     H31973   3.258   9.275   8.898  0.5468  0.1424  1.0396
  237MOL0     H31974   3.423   9.238   8.923 -1.7530  0.3235  1.7976
  237MOL0     H31975   3.308   9.067   9.011  3.4896 -1.1732  0.0173
  237MOL0     H31976   3.366   9.004   8.853 -0.1635  0.5901 -0.4538
  237MOL0     H31977   3.897   9.795   8.357  1.5725 -3.8263  1.9667
  237MOL0     H31978   4.102   9.901   8.260 -0.0563 -2.2464  1.5074
  237MOL0     H31979   4.291  10.076   8.003 -0.5342  4.3597 -1.7573
  237MOL0     H31980   4.451  10.230   7.955 -0.7317 -0.4920 -0.3045
  237MOL0     H31981   5.895   8.940   7.966 -0.4227  2.1137 -2.1391
  237MOL0     H31982   6.087   8.828   8.097  0.6430  0.3632 -0.4706
  237MOL0     H31983   6.328   8.633   8.267 -0.2517 -0.0724 -1.0497
  237MOL0     H31984   6.467   8.542   8.450 -2.7236 -1.4899  0.2329
  237MOL0     H31985   6.745   8.212   8.436 -1.3705  0.4265  3.8128
  237MOL0     H31986   6.848   8.330   8.346  0.0694  2.1029  0.7287
  237MOL0     H31987   6.922   8.243   8.589  0.9033  0.0505 -1.6773
  237MOL0     H31988   6.769   8.316   8.639  1.2445 -1.6375 -0.0653
  237MOL0     H31989   6.885   8.541   8.588  1.9516  0.8834 -0.9462
  237MOL0     H31990   7.019   8.447   8.526 -1.7378  0.4164 -1.1628
  237MOL0     H31991   7.013   8.337   8.787  0.6011 -0.4315  0.6178
  237MOL0     H31992   6.887   8.453   8.823  2.2791 -0.6465  1.9585
  237MOL0     H31993   7.223   8.687   8.854 -0.7386  0.3921  0.3544
  237MOL0     H31994   6.703   8.340   8.160 -4.5927 -5.1699 -0.7437
  237MOL0     H31995   6.558   8.420   7.985 -1.9389  1.7911 -0.3822
  238MOL0     O31996   5.041   7.844   0.855  0.2051  0.1612  1.2288
  238MOL0     C31997   5.090   7.901   0.949 -0.1923  0.3290  0.6201
  238MOL0     O31998   5.050   8.017   0.999  0.0898 -0.1324  0.0722
  238MOL0     C31999   4.933   8.078   0.959 -0.2713 -1.2894 -0.6630
  238MOL0     C32000   4.814   8.018   0.909  1.4653 -0.3140  0.0995
  238MOL0     C32001   4.699   8.092   0.869 -0.6632  0.0441 -0.2684
  238MOL0     C32002   4.707   8.228   0.896  0.6788 -0.5131  0.3382
  238MOL0     O32003   4.596   8.292   0.856 -0.2680  0.0525 -0.2222
  238MOL0     C32004   4.599   8.430   0.830  0.4210  0.6120  0.3042
  238MOL0     C32005   4.457   8.489   0.845  0.0945  0.4813  0.5837
  238MOL0     C32006   4.392   8.462   0.978 -0.8471  0.4897 -0.8128
  238MOL0     C32007   4.458   8.541   1.091 -0.2281  0.4994 -0.6793
  238MOL0     C32008   4.442   8.467   1.220 -0.0710  0.4757 -0.3375
  238MOL0     C32009   4.504   8.532   1.339 -0.2812 -0.1968 -0.4871
  238MOL0     C32010   4.641   8.582   1.313 -0.5143 -0.4224 -1.1106
  238MOL0     C32011   4.741   8.473   1.281  0.2324  0.1647  0.6414
  238MOL0     N32012   4.881   8.513   1.296 -0.1815 -0.1485  0.2710
  238MOL0     C32013   4.953   8.584   1.205 -0.0384 -0.0799  0.4156
  238MOL0     C32014   5.068   8.602   1.273 -0.5326 -0.6246  0.3538
  238MOL0     C32015   5.200   8.642   1.210  0.3349  0.6691 -0.0891
  238MOL0     C32016   5.270   8.533   1.146 -0.7618  0.4126  0.2578
  238MOL0     C32017   5.309   8.409   1.230  0.0966 -0.3803  0.9420
  238MOL0     C32018   5.332   8.276   1.157 -0.3225 -0.5280  0.0617
  238MOL0     O32019   5.400   8.175   1.233  0.3352 -0.2628  0.3306
  238MOL0     C32020   5.540   8.177   1.241  0.4622 -0.1816  0.2623
  238MOL0     C32021   5.592   8.080   1.324  0.2181  0.5116  0.0384
  238MOL0     C32022   5.732   8.058   1.337  0.0234 -0.0713  0.4219
  238MOL0     C32023   5.769   7.950   1.431  0.7054  0.1745 -0.7951
  238MOL0     C32024   5.824   8.153   1.276 -0.1249 -1.0118  0.1734
  238MOL0     C32025   5.970   8.140   1.272 -0.2378  0.4305 -0.9811
  238MOL0     O32026   6.040   8.252   1.238  0.0485  0.3908 -0.2204
  238MOL0     C32027   6.177   8.258   1.227  0.1687 -0.9421 -0.9834
  238MOL0     C32028   6.275   8.189   1.296  0.4181 -0.4985 -0.0631
  238MOL0     C32029   6.418   8.205   1.274 -0.0931  0.3967  0.1247
  238MOL0     C32030   6.463   8.298   1.188  0.1020 -0.0555  0.8553
  238MOL0     O32031   6.591   8.326   1.153 -0.0737  0.0208  0.5012
  238MOL0     C32032   6.694   8.237   1.204  0.3613 -0.0034  0.2097
  238MOL0     C32033   6.826   8.248   1.118  0.0814 -0.4944 -0.6098
  238MOL0     C32034   6.785   8.224   0.978  0.1348  0.4472  0.6799
  238MOL0     C32035   6.908   8.236   0.884  0.6425 -0.0269 -0.3828
  238MOL0     C32036   6.885   8.164   0.750 -0.4618  0.4115 -0.3340
  238MOL0     C32037   6.980   8.211   0.643  0.5167  0.1701  0.8554
  238MOL0     C32038   7.127   8.178   0.677 -0.2596 -0.6080  0.0935
  238MOL0     C32039   7.219   8.184   0.550 -0.0984  1.0025 -0.3811
  238MOL0    Cl32040   7.378   8.217   0.618 -0.3598  0.0216  0.1260
  238MOL0     C32041   6.370   8.377   1.124  0.1486  0.0354  0.1501
  238MOL0     C32042   6.231   8.355   1.133  0.2744 -0.2099  0.0423
  238MOL0     O32043   6.022   8.034   1.298  0.1701  0.2097 -0.3734
  238MOL0     C32044   5.764   8.269   1.207 -0.6775 -0.0008  0.0090
  238MOL0     C32045   5.624   8.275   1.185 -0.3121  0.2588 -0.2269
  238MOL0     N32046   5.050   8.555   1.399  0.4021 -0.1585 -0.2325
  238MOL0     N32047   4.938   8.499   1.410 -0.2500  0.0179 -1.3755
  238MOL0     C32048   4.823   8.286   0.950 -0.1055  0.3109  0.8647
  238MOL0     C32049   4.931   8.216   0.986 -0.3151  0.2848 -0.0299
  238MOL0     C32050   5.199   7.841   1.015  0.5400  1.1661  0.7713
  238MOL0     C32051   5.234   7.862   1.159  0.2573  0.1540  0.1400
  238MOL0     C32052   5.346   7.795   1.213  0.2771 -0.1261  0.1316
  238MOL0     C32053   5.413   7.692   1.143 -0.0482  0.0544 -0.9143
  238MOL0     O32054   5.516   7.610   1.182 -0.2572 -0.0117  0.2590
  238MOL0     C32055   5.585   7.653   1.307  0.2910  0.3888 -0.3855
  238MOL0     C32056   5.736   7.623   1.304 -0.1369  0.7841  0.1930
  238MOL0     C32057   5.776   7.475   1.271  0.0152 -0.2310 -0.1994
  238MOL0     C32058   5.929   7.433   1.285  0.0502 -0.2066  0.9279
  238MOL0     C32059   5.992   7.450   1.414  0.6364  0.2821  0.0883
  238MOL0     C32060   6.038   7.478   1.516  0.0433  0.5066 -0.3118
  238MOL0     C32061   5.379   7.673   1.005 -0.5792 -0.0370 -0.2437
  238MOL0     C32062   5.276   7.746   0.944  0.6754 -0.1860 -1.0945
  238MOL0     H32063   4.812   7.909   0.905  5.7215 -0.6690  1.6578
  238MOL0     H32064   4.612   8.038   0.834 -1.3945 -0.6690  2.4783
  238MOL0     H32065   4.654   8.496   0.897  0.5058 -0.7573  1.6218
  238MOL0     H32066   4.639   8.448   0.729  0.1573  1.1890  0.3017
  238MOL0     H32067   4.460   8.596   0.823  1.0368  0.4460  0.4765
  238MOL0     H32068   4.399   8.442   0.765 -1.2025  1.9816  0.6050
  238MOL0     H32069   4.285   8.484   0.983 -0.4268  2.9888  4.5260
  238MOL0     H32070   4.395   8.356   1.004 -0.1358  0.5585 -0.6030
  238MOL0     H32071   4.563   8.564   1.076  0.3911 -2.0292 -0.7572
  238MOL0     H32072   4.399   8.633   1.090 -0.0384  0.6437  0.2972
  238MOL0     H32073   4.335   8.445   1.231  0.1654 -1.9899 -2.0648
  238MOL0     H32074   4.475   8.363   1.208 -2.2559 -0.6293  2.2074
  238MOL0     H32075   4.442   8.621   1.354 -4.3706 -1.8726 -4.8468
  238MOL0     H32076   4.494   8.472   1.429  3.2364 -0.5418 -0.1678
  238MOL0     H32077   4.640   8.666   1.243 -0.3059  0.6165  0.0934
  238MOL0     H32078   4.670   8.622   1.411 -0.8338 -2.3878 -0.1485
  238MOL0     H32079   4.722   8.445   1.177  0.1571  0.6336  0.5278
  238MOL0     H32080   4.727   8.384   1.343  4.4383 -1.8883 -0.9616
  238MOL0     H32081   4.923   8.607   1.103 -1.8420 -2.3917  0.3488
  238MOL0     H32082   5.172   8.725   1.145 -0.9366  1.0470  0.9026
  238MOL0     H32083   5.263   8.689   1.286 -1.2595  1.3197  0.8967
  238MOL0     H32084   5.348   8.564   1.076 -1.9468  0.8989 -0.9006
  238MOL0     H32085   5.193   8.479   1.090 -1.2386  0.9930  0.3453
  238MOL0     H32086   5.247   8.385   1.318  0.3819 -0.2167  1.1899
  238MOL0     H32087   5.407   8.445   1.262  0.3032  0.5192 -0.6362
  238MOL0     H32088   5.391   8.294   1.066  3.0295 -1.6220  1.8494
  238MOL0     H32089   5.239   8.228   1.127 -0.3605 -1.3970  1.4697
  238MOL0     H32090   5.520   8.017   1.375 -3.1470  3.0069 -1.2849
  238MOL0     H32091   5.831   7.875   1.381  2.3508  1.6411 -1.0743
  238MOL0     H32092   5.834   7.983   1.513 -1.2910  0.1516  0.8721
  238MOL0     H32093   5.681   7.912   1.484  1.0854  0.6711  0.2199
  238MOL0     H32094   6.231   8.119   1.367 -0.6089  1.1893  1.0381
  238MOL0     H32095   6.481   8.147   1.340 -0.5808 -0.7080 -0.3646
  238MOL0     H32096   6.707   8.270   1.307  0.4490 -0.5329  0.3684
  238MOL0     H32097   6.660   8.133   1.206  0.2657 -0.0344 -1.5122
  238MOL0     H32098   6.868   8.349   1.123 -2.9895  1.0164 -2.1981
  238MOL0     H32099   6.903   8.180   1.155 -1.4051 -2.4019 -0.8771
  238MOL0     H32100   6.709   8.290   0.936  1.2285  1.9949  1.0493
  238MOL0     H32101   6.751   8.120   0.975  0.9314  0.2073 -0.9415
  238MOL0     H32102   6.936   8.337   0.851 -0.0588  0.0012 -0.9168
  238MOL0     H32103   6.995   8.199   0.940  0.2298  0.1668  0.3924
  238MOL0     H32104   6.783   8.176   0.711 -0.4524  4.0239  0.4483
  238MOL0     H32105   6.905   8.058   0.767 -1.5697  0.4927  1.8338
  238MOL0     H32106   6.949   8.170   0.546  0.6586  0.4069  0.7065
  238MOL0     H32107   6.952   8.316   0.626  0.0221 -0.0760  0.0649
  238MOL0     H32108   7.142   8.086   0.734  0.9300  0.4879  1.6298
  238MOL0     H32109   7.149   8.262   0.744 -1.7014  1.0379 -1.4005
  238MOL0     H32110   7.186   8.279   0.508  2.0730  1.2466 -1.7150
  238MOL0     H32111   7.195   8.099   0.487 -2.9026 -0.6363  2.6155
  238MOL0     H32112   6.415   8.453   1.061  0.2500 -1.5546 -1.7802
  238MOL0     H32113   6.176   8.424   1.070  2.1577  0.6072 -0.7961
  238MOL0     H32114   5.832   8.345   1.169  2.5574 -2.9853 -0.6930
  238MOL0     H32115   5.583   8.354   1.122 -1.3605 -0.3804 -0.3666
  238MOL0     H32116   4.821   8.393   0.969 -4.1747  0.4200  0.6114
  238MOL0     H32117   5.023   8.257   1.025 -0.7486  0.4776  0.8101
  238MOL0     H32118   5.186   7.921   1.237  1.2283 -0.1249  0.9842
  238MOL0     H32119   5.372   7.827   1.314  3.5614  0.0362 -0.6744
  238MOL0     H32120   5.585   7.761   1.323 -1.8977  0.3382  0.2769
  238MOL0     H32121   5.529   7.607   1.389 -2.8725  3.4511 -0.6118
  238MOL0     H32122   5.775   7.646   1.404 -0.0657 -2.9722  1.1753
  238MOL0     H32123   5.787   7.685   1.230 -0.6676  1.7626  0.6273
  238MOL0     H32124   5.741   7.460   1.169  0.0998 -1.0705 -0.1118
  238MOL0     H32125   5.715   7.401   1.324  1.6340 -1.0796  0.5688
  238MOL0     H32126   5.993   7.490   1.217  2.7085  0.3149  3.6217
  238MOL0     H32127   5.924   7.327   1.257 -0.3245  0.2459 -0.8223
  238MOL0     H32128   6.093   7.501   1.605  2.5542  0.0757 -1.6500
  238MOL0     H32129   5.440   7.606   0.944  3.4534  2.3002  0.8577
  238MOL0     H32130   5.254   7.714   0.842  0.7202 -0.1838 -1.1050
  239MOL0     O32131  10.854   3.967   1.903 -0.3519 -0.3232  1.1460
  239MOL0     C32132  10.916   4.074   1.907 -0.2586  0.0486  1.0002
  239MOL0     O32133  10.880   4.176   1.985 -1.0176  0.1233  0.2516
  239MOL0     C32134  10.768   4.158   2.058  0.0845 -0.0699 -0.0194
  239MOL0     C32135  10.638   4.180   2.016  0.3776  0.9039 -0.6007
  239MOL0     C32136  10.522   4.151   2.088 -0.5444  0.4327 -0.0189
  239MOL0     C32137  10.537   4.116   2.222 -0.7158 -0.3797  0.0272
  239MOL0     O32138  10.421   4.070   2.290  0.7285 -0.7008 -0.0989
  239MOL0     C32139  10.433   3.987   2.411  0.3870 -0.3350  0.0887
  239MOL0     C32140  10.287   3.933   2.421  0.3337 -0.0670  0.0325
  239MOL0     C32141  10.185   4.044   2.427  0.5509  0.2349 -0.3340
  239MOL0     C32142  10.049   4.006   2.465  1.3912 -0.3907 -0.4591
  239MOL0     C32143   9.947   4.133   2.471  1.3528 -0.4658  0.3999
  239MOL0     C32144   9.801   4.097   2.487 -0.4699  0.0570 -0.1987
  239MOL0     C32145   9.719   4.221   2.461 -1.1433 -0.8495 -0.1924
  239MOL0     C32146   9.571   4.204   2.481 -0.3186 -0.1734 -0.3593
  239MOL0     N32147   9.499   4.324   2.453 -0.0806 -0.4786  0.7295
  239MOL0     C32148   9.532   4.457   2.481  0.8076 -0.6439 -0.5447
  239MOL0     C32149   9.456   4.531   2.400  0.4760 -0.1736 -0.1212
  239MOL0     C32150   9.441   4.682   2.404  1.3634  0.3308  0.5511
  239MOL0     C32151   9.357   4.741   2.523 -0.2598 -0.2228  1.0569
  239MOL0     C32152   9.249   4.655   2.575 -0.9512  0.6683  0.0575
  239MOL0     C32153   9.158   4.733   2.674 -0.4605 -0.2159 -0.4219
  239MOL0     O32154   9.030   4.692   2.710  0.9614 -0.0009  0.2203
  239MOL0     C32155   8.934   4.690   2.610  0.4283 -0.0838  0.1039
  239MOL0     C32156   8.941   4.759   2.488  0.4255 -0.1535 -0.4276
  239MOL0     C32157   8.828   4.771   2.399 -0.1853 -0.0399 -1.4078
  239MOL0     C32158   8.858   4.850   2.279 -0.1738  0.1742  0.0585
  239MOL0     C32159   8.706   4.707   2.438  0.2694  0.4934  0.1852
  239MOL0     C32160   8.575   4.731   2.365 -0.0591  0.3490 -0.4119
  239MOL0     O32161   8.471   4.660   2.415  0.1338 -0.0372  0.5969
  239MOL0     C32162   8.366   4.738   2.442 -0.5420 -0.2467  0.0244
  239MOL0     C32163   8.278   4.775   2.340 -0.0692 -0.2937 -0.1788
  239MOL0     C32164   8.174   4.874   2.366 -0.0333  0.3230 -0.3919
  239MOL0     C32165   8.145   4.911   2.498 -0.0641  0.1114  0.0778
  239MOL0     O32166   8.043   4.986   2.537 -0.0237  0.0935 -0.2729
  239MOL0     C32167   7.926   5.012   2.454 -0.4663 -0.2191 -0.2722
  239MOL0     C32168   7.824   5.093   2.537 -0.3290  0.0825  0.5935
  239MOL0     C32169   7.688   5.112   2.469 -0.2907 -0.0198 -0.5796
  239MOL0     C32170   7.586   5.159   2.569 -0.2327  0.0026  0.3534
  239MOL0     C32171   7.446   5.157   2.500  0.7032  0.2461  0.5546
  239MOL0     C32172   7.409   5.297   2.433  0.1456 -0.3250 -0.8920
  239MOL0     C32173   7.277   5.290   2.369  0.1457 -0.5339  0.4220
  239MOL0     C32174   7.247   5.422   2.299  0.2620  0.1560  1.0966
  239MOL0    Cl32175   7.346   5.446   2.148 -0.2950  0.1657  0.1657
  239MOL0     C32176   8.229   4.863   2.603  0.4560 -0.7112 -0.5064
  239MOL0     C32177   8.335   4.773   2.573 -0.0416  0.2201  0.5718
  239MOL0     O32178   8.571   4.800   2.259  0.4169  0.2869 -0.9006
  239MOL0     C32179   8.705   4.638   2.557  0.2213 -0.7329 -0.0469
  239MOL0     C32180   8.811   4.626   2.639 -0.2571  0.7594  0.3573
  239MOL0     N32181   9.385   4.447   2.313 -0.4338 -0.6593 -0.1800
  239MOL0     N32182   9.414   4.328   2.347 -0.0260 -0.2713  0.1199
  239MOL0     C32183  10.667   4.095   2.267  0.7660  0.3799  0.0674
  239MOL0     C32184  10.782   4.107   2.188  0.3932 -0.4649  1.0750
  239MOL0     C32185  11.034   4.080   1.829 -0.0895  0.7210  1.0821
  239MOL0     C32186  11.118   4.194   1.836 -0.3084 -0.1884  0.1689
  239MOL0     C32187  11.246   4.198   1.772 -0.0867  0.2009 -0.8936
  239MOL0     C32188  11.285   4.092   1.688  1.0838  0.2038 -0.7037
  239MOL0     O32189  11.402   4.093   1.615 -0.4339  0.0718  0.2129
  239MOL0     C32190  11.492   4.201   1.631 -0.4470  0.0501 -0.7657
  239MOL0     C32191  11.602   4.200   1.525  0.2032  0.5854  0.0437
  239MOL0     C32192  11.713   4.094   1.535  0.0723 -0.0232  0.7303
  239MOL0     C32193  11.766   4.046   1.663 -0.7926 -0.0426  0.2455
  239MOL0     C32194  11.821   4.148   1.753 -0.1619 -0.4491  0.3393
  239MOL0     C32195  11.870   4.223   1.835  0.3737 -0.8202  0.1794
  239MOL0     C32196  11.195   3.997   1.663 -0.3787 -0.1265 -0.6032
  239MOL0     C32197  11.071   3.987   1.732 -0.2915  0.9533 -0.5428
  239MOL0     H32198  10.617   4.199   1.911 -2.8550 -1.4760 -0.5352
  239MOL0     H32199  10.426   4.138   2.040  0.8569 -3.8829 -2.1708
  239MOL0     H32200  10.510   3.910   2.404  1.0175  0.3906 -1.5678
  239MOL0     H32201  10.449   4.052   2.498 -1.9934  0.7061 -0.1616
  239MOL0     H32202  10.280   3.860   2.339  2.6926  0.5655 -0.8197
  239MOL0     H32203  10.277   3.869   2.509 -3.7569 -2.6423 -1.9992
  239MOL0     H32204  10.217   4.123   2.496  0.6081  0.7604 -0.9637
  239MOL0     H32205  10.180   4.099   2.333  1.8313 -0.2909 -0.7353
  239MOL0     H32206  10.014   3.941   2.385  1.3103 -2.5783  1.2573
  239MOL0     H32207  10.041   3.948   2.558 -1.7436 -1.2164 -1.1261
  239MOL0     H32208   9.968   4.204   2.552  0.1881 -1.0786  1.2688
  239MOL0     H32209   9.961   4.193   2.380  1.9692  1.8353  1.9033
  239MOL0     H32210   9.771   4.015   2.421  0.7574 -0.3568 -0.2619
  239MOL0     H32211   9.782   4.081   2.594 -0.2672  3.2487  0.4243
  239MOL0     H32212   9.748   4.297   2.533 -0.7467 -0.6148 -0.5988
  239MOL0     H32213   9.742   4.252   2.359 -0.7865  0.7210  0.3374
  239MOL0     H32214   9.557   4.187   2.588  0.2479  2.0818  0.1338
  239MOL0     H32215   9.539   4.116   2.425  0.1074  0.5886 -1.8712
  239MOL0     H32216   9.587   4.498   2.565  0.0203 -0.3063 -0.1836
  239MOL0     H32217   9.537   4.734   2.400  0.5926  1.7288 -2.1303
  239MOL0     H32218   9.389   4.701   2.310 -2.4153 -2.5300  1.8089
  239MOL0     H32219   9.319   4.840   2.495 -0.2946 -0.0407  1.7167
  239MOL0     H32220   9.424   4.754   2.609 -1.0178  0.8060  1.5171
  239MOL0     H32221   9.280   4.566   2.631 -3.9210 -1.7557 -1.7896
  239MOL0     H32222   9.185   4.619   2.494 -3.0673 -1.2453  2.4141
  239MOL0     H32223   9.166   4.837   2.642  1.9937 -0.2810 -0.1712
  239MOL0     H32224   9.207   4.732   2.771 -1.3784  0.5916  0.0584
  239MOL0     H32225   9.038   4.796   2.455  1.5898 -3.2829 -0.8835
  239MOL0     H32226   8.960   4.888   2.269  0.2205 -0.2426  2.1258
  239MOL0     H32227   8.846   4.777   2.198  0.1868 -0.4233  0.5324
  239MOL0     H32228   8.794   4.935   2.253 -1.1804 -1.0488 -1.6897
  239MOL0     H32229   8.301   4.745   2.238  0.6662  0.4681 -0.2438
  239MOL0     H32230   8.118   4.920   2.284  3.1485  0.8183 -2.4872
  239MOL0     H32231   7.959   5.073   2.369  0.3661  2.0194  1.5624
  239MOL0     H32232   7.887   4.916   2.421  1.5167 -1.0274 -0.4151
  239MOL0     H32233   7.811   5.036   2.629 -0.8318 -0.8721 -0.0456
  239MOL0     H32234   7.875   5.188   2.556 -1.4136  0.5976  0.9759
  239MOL0     H32235   7.657   5.017   2.426 -2.3681 -1.0382  2.7834
  239MOL0     H32236   7.705   5.179   2.384 -0.3930  1.0435  0.2072
  239MOL0     H32237   7.595   5.099   2.660  2.3805 -0.2416  0.0052
  239MOL0     H32238   7.606   5.263   2.596  0.3605  0.1236 -0.5144
  239MOL0     H32239   7.363   5.151   2.571 -0.9179 -0.3742 -1.3044
  239MOL0     H32240   7.443   5.067   2.439 -2.8814 -0.7315  1.9573
  239MOL0     H32241   7.395   5.366   2.516 -0.5567  1.6843 -2.6087
  239MOL0     H32242   7.492   5.327   2.369 -0.3686  1.1406 -0.9096
  239MOL0     H32243   7.203   5.255   2.442 -1.5984  0.7146 -0.6700
  239MOL0     H32244   7.279   5.220   2.286 -0.4935  1.1075 -1.0354
  239MOL0     H32245   7.266   5.502   2.372 -1.1951  4.1132 -2.4275
  239MOL0     H32246   7.141   5.433   2.273  0.7991 -1.8047 -2.7088
  239MOL0     H32247   8.220   4.889   2.708  2.6001  0.2347 -0.4964
  239MOL0     H32248   8.401   4.727   2.645  3.1708 -0.9808 -2.8433
  239MOL0     H32249   8.618   4.592   2.602 -1.0354 -0.8914 -2.4723
  239MOL0     H32250   8.791   4.580   2.736 -2.0676  0.6421 -0.0378
  239MOL0     H32251  10.686   4.058   2.368 -0.8846 -2.0535 -0.4148
  239MOL0     H32252  10.880   4.070   2.215  0.5246 -1.4255 -0.6124
  239MOL0     H32253  11.094   4.265   1.914 -1.8640 -2.3923  1.8020
  239MOL0     H32254  11.299   4.293   1.781 -1.6557  1.0323  0.0732
  239MOL0     H32255  11.432   4.288   1.602  1.8955  2.3761  0.9522
  239MOL0     H32256  11.529   4.212   1.733 -3.0743 -2.3480  0.6064
  239MOL0     H32257  11.659   4.293   1.521  0.5373  0.3882 -3.9215
  239MOL0     H32258  11.545   4.201   1.432  0.6325  0.6762 -0.2202
  239MOL0     H32259  11.784   4.146   1.470 -1.0170  1.4218  0.6515
  239MOL0     H32260  11.685   4.008   1.474  0.3186 -0.9205  1.8391
  239MOL0     H32261  11.850   3.981   1.635  1.4266  1.1207  3.5459
  239MOL0     H32262  11.683   3.991   1.709 -1.2784  1.5423  1.3441
  239MOL0     H32263  11.905   4.293   1.908 -1.1248 -0.0258  0.1779
  239MOL0     H32264  11.215   3.911   1.599  1.3064  0.9879 -1.6491
  239MOL0     H32265  11.001   3.907   1.707  0.1962  0.2396  0.3135
  240MOL0     O32266   1.541   2.843  11.100 -0.2165 -0.1460  0.3839
  240MOL0     C32267   1.581   2.925  11.019  0.0442 -0.9152 -0.0093
  240MOL0     O32268   1.507   2.968  10.916 -0.4419 -0.7364 -0.5342
  240MOL0     C32269   1.389   2.905  10.895 -0.5488 -1.4363  0.0731
  240MOL0     C32270   1.284   2.888  10.997 -0.2330 -0.3032  0.3237
  240MOL0     C32271   1.174   2.808  10.960 -0.3019  0.2830 -0.0667
  240MOL0     C32272   1.171   2.741  10.833 -0.6408 -0.2854  0.7106
  240MOL0     O32273   1.062   2.675  10.790 -0.2981 -0.9328  0.5411
  240MOL0     C32274   0.940   2.690  10.857 -0.0596  0.5349  0.9887
  240MOL0     C32275   0.828   2.635  10.769  0.7826  0.7895  0.8251
  240MOL0     C32276   0.688   2.630  10.838 -1.1682  0.3173 -0.5812
  240MOL0     C32277   0.587   2.558  10.753 -0.0553 -0.4161 -0.0612
  240MOL0     C32278   0.448   2.518  10.810  0.0326 -0.1680  0.2284
  240MOL0     C32279   0.331   2.546  10.698  0.2796 -0.1508 -0.4775
  240MOL0     C32280   0.176   2.545  10.740 -0.4419  0.8811  0.2217
  240MOL0     C32281   0.083   2.584  10.624 -1.0558 -0.1570  0.6572
  240MOL0     N32282  -0.052   2.631  10.654  0.8298  0.3417  0.2605
  240MOL0     C32283  -0.171   2.567  10.662  1.2134 -0.0990  0.2628
  240MOL0     C32284  -0.256   2.665  10.689  0.9897  0.7247  0.0650
  240MOL0     C32285  -0.407   2.643  10.695 -0.9178  0.7019 -0.4060
  240MOL0     C32286  -0.478   2.658  10.567  1.0673 -0.1446  0.3695
  240MOL0     C32287  -0.474   2.803  10.512 -0.5430 -0.1279 -0.5101
  240MOL0     C32288  -0.544   2.812  10.381  0.6344  0.1073 -0.0657
  240MOL0     O32289  -0.545   2.948  10.336 -0.6126 -0.4251 -0.1928
  240MOL0     C32290  -0.636   2.994  10.237 -0.8265  0.2291 -0.2660
  240MOL0     C32291  -0.658   2.921  10.122  1.1030  0.3439  0.2951
  240MOL0     C32292  -0.756   2.962  10.026  0.9396 -0.4916  0.6333
  240MOL0     C32293  -0.753   2.894   9.898 -0.0517  0.9026 -0.1233
  240MOL0     C32294  -0.824   3.089  10.044  0.8897  0.2326  0.6736
  240MOL0     C32295  -0.944   3.140   9.959 -0.2473  0.0354 -0.1438
  240MOL0     O32296  -0.952   3.271   9.971  0.1166 -0.0072 -0.3614
  240MOL0     C32297  -1.044   3.339   9.901 -0.0067  0.2649  0.0316
  240MOL0     C32298  -1.011   3.445   9.818 -0.6469 -0.4737  0.0640
  240MOL0     C32299  -1.112   3.513   9.750  0.4385 -1.3941 -0.6447
  240MOL0     C32300  -1.254   3.477   9.753 -0.5898 -0.5151 -0.1266
  240MOL0     O32301  -1.366   3.522   9.686 -0.8213 -0.8204 -0.6329
  240MOL0     C32302  -1.339   3.635   9.595 -0.8610  0.0234  0.5995
  240MOL0     C32303  -1.472   3.695   9.571  0.0149  0.6675 -0.0387
  240MOL0     C32304  -1.472   3.799   9.458 -0.2639  0.1462  0.1578
  240MOL0     C32305  -1.619   3.824   9.426 -0.1298  0.0283  0.3888
  240MOL0     C32306  -1.635   3.920   9.303 -0.5142  0.5047 -0.3561
  240MOL0     C32307  -1.576   4.055   9.332  0.4718 -0.6206  0.0558
  240MOL0     C32308  -1.586   4.155   9.211  0.0600  0.2620  0.2645
  240MOL0     C32309  -1.593   4.306   9.257 -0.2898 -0.6725  0.2134
  240MOL0    Cl32310  -1.437   4.367   9.310 -0.3221 -0.1781 -0.1690
  240MOL0     C32311  -1.281   3.365   9.838  0.3874 -0.1971 -0.1412
  240MOL0     C32312  -1.179   3.302   9.916 -0.2425 -0.2541 -0.5640
  240MOL0     O32313  -1.011   3.058   9.898 -0.1132 -0.6390 -0.2989
  240MOL0     C32314  -0.777   3.167  10.153  0.1947 -0.3069 -0.3531
  240MOL0     C32315  -0.687   3.120  10.249 -0.0239 -0.1989  0.3185
  240MOL0     N32316  -0.189   2.786  10.708  0.3192 -0.4073 -1.0693
  240MOL0     N32317  -0.064   2.764  10.680 -0.0066  0.6543  0.0987
  240MOL0     C32318   1.276   2.752  10.745  0.6588 -0.4333 -0.1826
  240MOL0     C32319   1.383   2.837  10.772  0.4371  0.3058  0.5387
  240MOL0     C32320   1.709   2.987  11.042 -0.3677 -0.7240 -0.6290
  240MOL0     C32321   1.799   2.925  11.135 -0.5553  0.2479  0.3784
  240MOL0     C32322   1.923   2.983  11.162  0.4550  0.2942  0.1067
  240MOL0     C32323   1.959   3.106  11.100  1.1693  0.1470  0.2396
  240MOL0     O32324   2.087   3.156  11.124 -0.1621 -0.7596  0.8618
  240MOL0     C32325   2.091   3.294  11.178  0.3325 -0.3085  1.2785
  240MOL0     C32326   2.174   3.313  11.298  0.7200  1.3150 -0.2162
  240MOL0     C32327   2.106   3.243  11.426  0.2964 -0.6507  0.0730
  240MOL0     C32328   2.169   3.302  11.557  1.2572  0.3681  0.3057
  240MOL0     C32329   2.272   3.218  11.611  0.1468  0.4391 -0.0813
  240MOL0     C32330   2.363   3.156  11.663  0.4599 -0.2908 -0.8031
  240MOL0     C32331   1.868   3.169  11.016 -0.4186 -0.2392 -0.0077
  240MOL0     C32332   1.751   3.103  10.984 -0.7382 -0.3784  0.2477
  240MOL0     H32333   1.280   2.945  11.089 -0.8161 -0.6667  0.5237
  240MOL0     H32334   1.093   2.811  11.032 -2.3135 -1.5764 -2.0847
  240MOL0     H32335   0.938   2.634  10.951 -0.0667  0.0563  0.7077
  240MOL0     H32336   0.919   2.795  10.876 -3.4151  0.6082 -1.8821
  240MOL0     H32337   0.816   2.698  10.680 -0.4661  0.0120  0.4161
  240MOL0     H32338   0.836   2.531  10.736 -0.1155  0.5246  1.4052
  240MOL0     H32339   0.705   2.562  10.922  1.8908 -0.8384 -1.9570
  240MOL0     H32340   0.640   2.722  10.870  0.1686  0.7391  0.3065
  240MOL0     H32341   0.570   2.622  10.667 -0.9733 -0.7912 -0.1767
  240MOL0     H32342   0.637   2.465  10.723  1.7320  1.1986 -2.4713
  240MOL0     H32343   0.450   2.411  10.830 -0.2342 -0.3466 -0.6596
  240MOL0     H32344   0.428   2.568  10.905  1.1540  1.0401 -0.1473
  240MOL0     H32345   0.357   2.647  10.666 -0.8721  0.1758 -0.4346
  240MOL0     H32346   0.354   2.482  10.613 -0.0138 -0.7848 -0.0863
  240MOL0     H32347   0.161   2.441  10.772  2.1519  1.1635  2.8745
  240MOL0     H32348   0.154   2.595  10.835  0.0546 -0.0527  0.8456
  240MOL0     H32349   0.086   2.508  10.546 -0.7770 -2.0396  2.4346
  240MOL0     H32350   0.134   2.672  10.584 -1.8629  0.8620  1.7961
  240MOL0     H32351  -0.210   2.468  10.645 -1.7912  0.7136  1.8240
  240MOL0     H32352  -0.430   2.544  10.736 -1.0802  0.6770 -0.5540
  240MOL0     H32353  -0.449   2.717  10.764 -2.7141 -1.5772  1.1309
  240MOL0     H32354  -0.574   2.606  10.576  2.2155 -2.7471 -1.0367
  240MOL0     H32355  -0.420   2.594  10.499  2.5897 -0.1325  1.5983
  240MOL0     H32356  -0.371   2.835  10.492 -1.1617  1.7615 -0.8082
  240MOL0     H32357  -0.523   2.865  10.587  2.5360 -0.7424  2.3101
  240MOL0     H32358  -0.649   2.789  10.402  0.8628 -0.2001  0.7912
  240MOL0     H32359  -0.500   2.755  10.299 -4.4564 -0.0234 -3.1376
  240MOL0     H32360  -0.618   2.823  10.096 -2.8035 -0.8022 -2.3024
  240MOL0     H32361  -0.664   2.927   9.844 -0.3553 -0.0742 -1.2728
  240MOL0     H32362  -0.744   2.787   9.918 -2.9053  0.7901  0.9053
  240MOL0     H32363  -0.841   2.908   9.834 -2.5612 -3.1020  2.0109
  240MOL0     H32364  -0.906   3.470   9.809 -0.5974  2.9158  5.3280
  240MOL0     H32365  -1.079   3.595   9.686 -0.3643 -1.5970 -1.3365
  240MOL0     H32366  -1.291   3.724   9.636 -0.8878  0.6461 -0.6770
  240MOL0     H32367  -1.301   3.606   9.496 -1.3846  2.6493 -0.4355
  240MOL0     H32368  -1.547   3.617   9.556 -0.4919  1.1971 -0.2760
  240MOL0     H32369  -1.506   3.741   9.664 -0.3527  0.4390 -0.0590
  240MOL0     H32370  -1.418   3.756   9.373 -2.3290 -3.4153  0.4137
  240MOL0     H32371  -1.416   3.884   9.498  3.4069 -1.2230 -1.5683
  240MOL0     H32372  -1.666   3.728   9.401  0.0660 -0.2870  1.1969
  240MOL0     H32373  -1.670   3.857   9.517 -1.5114  0.1397 -0.4013
  240MOL0     H32374  -1.740   3.933   9.274 -0.8056 -1.1732 -0.2133
  240MOL0     H32375  -1.566   3.887   9.225 -1.7562 -0.7138 -0.9932
  240MOL0     H32376  -1.638   4.108   9.404 -1.2552 -3.3268  0.7112
  240MOL0     H32377  -1.472   4.049   9.366 -0.3311  1.1362  3.2107
  240MOL0     H32378  -1.673   4.137   9.148  0.8613 -1.9591 -0.3041
  240MOL0     H32379  -1.499   4.139   9.147  1.6940  0.8377  2.2340
  240MOL0     H32380  -1.664   4.313   9.341  1.3810  2.3013  1.5499
  240MOL0     H32381  -1.639   4.363   9.176 -2.4010  0.9899  2.4182
  240MOL0     H32382  -1.384   3.331   9.844  0.4308 -0.3185 -0.0868
  240MOL0     H32383  -1.202   3.218   9.981  4.0941 -0.1533  1.4251
  240MOL0     H32384  -0.823   3.264  10.166 -0.5264 -0.5886 -0.7623
  240MOL0     H32385  -0.645   3.186  10.325  1.3257 -0.4313 -0.1978
  240MOL0     H32386   1.264   2.701  10.650 -1.9909 -1.0582  0.3956
  240MOL0     H32387   1.454   2.833  10.690 -2.1340 -2.6191 -1.8371
  240MOL0     H32388   1.773   2.831  11.183 -2.3614  0.2220 -0.5583
  240MOL0     H32389   1.994   2.933  11.227  0.5783  0.6795  0.2715
  240MOL0     H32390   2.144   3.350  11.101 -0.1360  0.3070  1.3933
  240MOL0     H32391   1.997   3.348  11.191  1.2457  1.6177  0.3543
  240MOL0     H32392   2.193   3.418  11.318  2.3047  0.9030  0.6634
  240MOL0     H32393   2.276   3.280  11.273  0.5945  0.6165  0.1415
  240MOL0     H32394   2.099   3.134  11.422 -2.6429 -0.5597  0.0641
  240MOL0     H32395   2.003   3.280  11.438  0.2673  0.6279 -3.1811
  240MOL0     H32396   2.099   3.302  11.641  1.0811 -6.6786  0.7795
  240MOL0     H32397   2.213   3.400  11.539  0.8567  0.1189 -2.4253
  240MOL0     H32398   2.461   3.120  11.684  0.2217  0.9256  3.3053
  240MOL0     H32399   1.880   3.266  10.969 -1.0442  0.3740  1.0584
  240MOL0     H32400   1.689   3.148  10.907  2.0597  0.9243 -1.3970
  241MOL0     O32401   4.323   0.793   4.667 -0.3292 -0.0183  0.5813
  241MOL0     C32402   4.403   0.729   4.737 -0.0117  0.2418 -0.2702
  241MOL0     O32403   4.369   0.618   4.811 -0.4392  0.7067  0.0126
  241MOL0     C32404   4.238   0.588   4.833 -0.8460  0.3083 -0.4871
  241MOL0     C32405   4.157   0.677   4.900  0.6384  1.2736 -0.3258
  241MOL0     C32406   4.015   0.653   4.906  0.9201  0.2615  0.0887
  241MOL0     C32407   3.953   0.540   4.848 -0.1334 -0.2565  0.2124
  241MOL0     O32408   3.817   0.524   4.849 -0.8748 -0.8600 -0.6228
  241MOL0     C32409   3.741   0.639   4.817 -0.0415 -0.0452  0.1943
  241MOL0     C32410   3.720   0.661   4.662 -0.0110 -0.0384  0.0712
  241MOL0     C32411   3.599   0.746   4.622  0.8026 -0.0292 -1.0124
  241MOL0     C32412   3.591   0.753   4.472  0.0835  0.8977  0.2725
  241MOL0     C32413   3.480   0.856   4.436  0.4490  0.5202  0.4016
  241MOL0     C32414   3.334   0.789   4.455 -0.5328 -0.8046  0.0005
  241MOL0     C32415   3.212   0.874   4.431 -0.5246  0.5715 -0.1258
  241MOL0     C32416   3.084   0.792   4.416 -0.0734 -0.0851  0.3255
  241MOL0     N32417   2.972   0.886   4.404  0.2304  1.0359  0.2121
  241MOL0     C32418   2.852   0.875   4.469  0.3159 -0.5878  0.2900
  241MOL0     C32419   2.771   0.965   4.411  0.3338  0.2221 -0.1855
  241MOL0     C32420   2.635   1.004   4.454  0.0741 -0.4070  0.8950
  241MOL0     C32421   2.562   0.886   4.511 -0.2126  0.1392 -0.1501
  241MOL0     C32422   2.421   0.930   4.549 -0.5248  0.0441  0.0215
  241MOL0     C32423   2.351   0.814   4.611 -0.0111  0.3024 -0.8110
  241MOL0     O32424   2.322   0.719   4.517  0.1574 -0.0341  0.2763
  241MOL0     C32425   2.197   0.734   4.462 -0.4104  0.1207  0.3222
  241MOL0     C32426   2.189   0.729   4.326 -0.3659 -0.1584  0.6622
  241MOL0     C32427   2.069   0.716   4.252  0.8731  0.4239  0.3145
  241MOL0     C32428   2.078   0.708   4.095 -0.0091 -0.0519  0.3517
  241MOL0     C32429   1.941   0.712   4.326  0.0886 -0.2803 -0.5251
  241MOL0     C32430   1.804   0.680   4.270 -0.2543 -0.4952  0.2116
  241MOL0     O32431   1.692   0.649   4.348 -0.7776 -0.1218  0.2785
  241MOL0     C32432   1.597   0.602   4.270  0.6371 -0.6375 -0.3568
  241MOL0     C32433   1.490   0.688   4.248 -0.2385 -0.0550  0.1941
  241MOL0     C32434   1.375   0.648   4.181 -0.8437 -0.7599  0.5916
  241MOL0     C32435   1.371   0.519   4.133 -0.1591 -0.0778  0.2392
  241MOL0     O32436   1.255   0.483   4.076 -0.0388 -0.7656  0.0084
  241MOL0     C32437   1.265   0.395   3.961  0.1671  0.0121 -0.2190
  241MOL0     C32438   1.130   0.365   3.893 -0.8852  0.7442  0.3202
  241MOL0     C32439   1.069   0.248   3.973 -0.4507 -0.5698  0.0887
  241MOL0     C32440   0.935   0.228   3.913 -0.2915 -0.4350  0.0728
  241MOL0     C32441   0.876   0.088   3.950  0.4834  0.3467  0.3215
  241MOL0     C32442   0.855   0.070   4.102 -0.7272  0.4172  0.5621
  241MOL0     C32443   0.811  -0.072   4.132  0.4319  0.3515 -0.4469
  241MOL0     C32444   0.815  -0.103   4.290  0.4912  0.5188  0.4629
  241MOL0    Cl32445   0.972  -0.067   4.360  0.4383  0.2133 -0.4206
  241MOL0     C32446   1.485   0.441   4.135 -0.4569  0.1334 -0.1789
  241MOL0     C32447   1.606   0.476   4.207  0.1298 -0.0300 -0.7578
  241MOL0     O32448   1.796   0.706   4.147  0.2630  0.1298  0.2145
  241MOL0     C32449   1.942   0.726   4.460 -0.7612  0.4600 -1.2445
  241MOL0     C32450   2.069   0.737   4.529 -0.7315  0.0175  0.3616
  241MOL0     N32451   2.840   1.027   4.310  0.0383 -0.2146  0.0190
  241MOL0     N32452   2.960   0.982   4.307 -0.2888 -0.2340 -0.5105
  241MOL0     C32453   4.031   0.448   4.781  0.1011 -0.3674 -0.1561
  241MOL0     C32454   4.171   0.477   4.774  0.0058  1.2833  0.5228
  241MOL0     C32455   4.548   0.769   4.731  0.9940 -0.1094 -0.6000
  241MOL0     C32456   4.591   0.890   4.683 -0.1570 -0.2855 -0.5367
  241MOL0     C32457   4.733   0.913   4.660 -0.1539 -0.1874 -0.0271
  241MOL0     C32458   4.826   0.819   4.694  0.2637  0.5966 -1.3045
  241MOL0     O32459   4.963   0.832   4.673 -0.2745 -0.1958  0.3159
  241MOL0     C32460   5.020   0.955   4.616  0.5816  0.3111 -0.5510
  241MOL0     C32461   5.168   0.939   4.584  0.4494 -0.7210  0.4812
  241MOL0     C32462   5.249   0.859   4.685 -0.1939 -0.5241 -0.0235
  241MOL0     C32463   5.395   0.855   4.643  0.7555 -0.1107 -0.7357
  241MOL0     C32464   5.473   0.785   4.742 -0.7205  0.3764 -0.2518
  241MOL0     C32465   5.543   0.725   4.820 -0.4504  0.1391  0.1371
  241MOL0     C32466   4.783   0.703   4.757 -0.3956 -0.0315 -0.1077
  241MOL0     C32467   4.644   0.683   4.781 -0.7043  0.8249  0.2543
  241MOL0     H32468   4.196   0.760   4.958 -1.9213  1.1134  1.8191
  241MOL0     H32469   3.957   0.722   4.968 -0.1352 -0.0741 -0.5111
  241MOL0     H32470   3.644   0.610   4.859  0.4205 -0.1408  1.2336
  241MOL0     H32471   3.772   0.733   4.863 -0.7242  0.5544 -0.5606
  241MOL0     H32472   3.811   0.697   4.613  1.3151 -2.3427  0.6623
  241MOL0     H32473   3.704   0.560   4.624  0.8305 -0.9043  1.8609
  241MOL0     H32474   3.507   0.709   4.669  0.0354  0.7314 -1.8853
  241MOL0     H32475   3.620   0.846   4.660  1.8268 -0.3511 -0.6888
  241MOL0     H32476   3.686   0.789   4.433  0.2741 -0.3125 -0.4537
  241MOL0     H32477   3.578   0.652   4.431  0.6742  1.8915 -2.6172
  241MOL0     H32478   3.493   0.945   4.498  1.2024 -0.4306  1.6510
  241MOL0     H32479   3.497   0.877   4.330 -1.2712 -1.3853 -0.3261
  241MOL0     H32480   3.328   0.696   4.399 -0.7632 -1.1945  0.6583
  241MOL0     H32481   3.326   0.757   4.560  1.2102 -0.7446  0.1954
  241MOL0     H32482   3.213   0.945   4.513  0.1475 -1.6971  1.9274
  241MOL0     H32483   3.219   0.918   4.331 -0.5057 -2.0477 -1.3588
  241MOL0     H32484   3.073   0.727   4.503 -0.2985 -1.2806 -0.5629
  241MOL0     H32485   3.085   0.723   4.331  0.9234 -1.0555  1.0921
  241MOL0     H32486   2.822   0.814   4.554  0.4595  0.7136  1.3084
  241MOL0     H32487   2.639   1.080   4.533 -2.2237  2.5904 -1.6262
  241MOL0     H32488   2.576   1.049   4.374  0.7424 -0.7060  0.2257
  241MOL0     H32489   2.613   0.850   4.601 -0.0762  0.0019 -0.2816
  241MOL0     H32490   2.554   0.807   4.436 -1.5681  0.6486 -0.5692
  241MOL0     H32491   2.366   0.966   4.461 -0.1920 -1.1484 -0.6914
  241MOL0     H32492   2.433   1.012   4.621 -1.1034 -1.2575  1.6554
  241MOL0     H32493   2.256   0.853   4.649 -1.7598  0.0217 -4.4757
  241MOL0     H32494   2.417   0.776   4.689  0.9084  0.0546 -1.6917
  241MOL0     H32495   2.279   0.725   4.265  0.2909 -0.9601  1.6450
  241MOL0     H32496   2.010   0.789   4.066 -0.2683  0.0445  1.1900
  241MOL0     H32497   2.178   0.732   4.059  0.0668 -1.4712 -0.4296
  241MOL0     H32498   2.040   0.609   4.069 -1.4400 -0.5914  3.9426
  241MOL0     H32499   1.499   0.790   4.284 -1.4726  0.6008 -1.2837
  241MOL0     H32500   1.294   0.721   4.175 -1.2957 -1.3747 -1.8691
  241MOL0     H32501   1.335   0.445   3.893 -1.8966  1.9046 -1.0867
  241MOL0     H32502   1.326   0.305   3.974  0.4410  0.0728 -1.0069
  241MOL0     H32503   1.061   0.450   3.897 -1.5292  0.2132  0.6885
  241MOL0     H32504   1.142   0.335   3.789 -0.3725 -1.0726  0.8650
  241MOL0     H32505   1.053   0.264   4.080 -0.9751 -0.6353  0.0239
  241MOL0     H32506   1.133   0.160   3.968 -0.2371 -0.4178  0.1421
  241MOL0     H32507   0.877   0.308   3.958  0.0615 -0.5711  0.7959
  241MOL0     H32508   0.938   0.227   3.804  2.4939  2.5927 -0.0080
  241MOL0     H32509   0.953   0.012   3.930  1.2595  0.9120  1.1367
  241MOL0     H32510   0.785   0.071   3.891  0.3591 -0.6821  0.7882
  241MOL0     H32511   0.949   0.098   4.151 -0.5007 -0.5762  0.7207
  241MOL0     H32512   0.777   0.135   4.143 -0.1059  1.4195  0.2165
  241MOL0     H32513   0.882  -0.141   4.087  3.4152  2.0172  1.4058
  241MOL0     H32514   0.712  -0.097   4.092 -0.2125  0.3400  1.0867
  241MOL0     H32515   0.792  -0.210   4.296  0.0424  0.4545 -1.7085
  241MOL0     H32516   0.737  -0.037   4.329 -2.0062 -2.0215  0.0938
  241MOL0     H32517   1.477   0.339   4.099  1.2478  0.3305 -1.2456
  241MOL0     H32518   1.691   0.409   4.217  0.2223  0.2133  0.1693
  241MOL0     H32519   1.855   0.711   4.524 -0.1460  0.7607 -0.3130
  241MOL0     H32520   2.071   0.747   4.637  3.4757  4.4850  0.1982
  241MOL0     H32521   3.989   0.365   4.726  0.7498 -0.3674 -0.6681
  241MOL0     H32522   4.232   0.417   4.707 -1.2102  1.3888 -0.7227
  241MOL0     H32523   4.531   0.963   4.631  0.6364 -1.3976 -3.1966
  241MOL0     H32524   4.762   1.011   4.622 -1.5731  0.7578  1.2058
  241MOL0     H32525   4.952   0.976   4.532 -1.1844  0.9315  0.9609
  241MOL0     H32526   5.005   1.039   4.685  0.2217 -1.5795  1.7998
  241MOL0     H32527   5.214   1.038   4.574  1.6936 -1.4508 -1.4948
  241MOL0     H32528   5.174   0.888   4.488  1.5375  0.6824 -0.2371
  241MOL0     H32529   5.206   0.758   4.688  1.4880 -1.4627 -2.9189
  241MOL0     H32530   5.252   0.910   4.781 -0.8713  3.3519 -1.8424
  241MOL0     H32531   5.432   0.956   4.623  1.6581 -0.5406 -1.2779
  241MOL0     H32532   5.403   0.796   4.551  1.3787  1.2039 -1.5559
  241MOL0     H32533   5.604   0.669   4.888  3.0301  1.9479 -1.2221
  241MOL0     H32534   4.859   0.634   4.793 -0.5376 -0.2843 -0.2953
  241MOL0     H32535   4.620   0.583   4.815 -1.1348  0.3727 -1.2915
  242MOL0     O32536   7.387   9.909   1.911  0.1390  0.0673  0.3634
  242MOL0     C32537   7.445   9.948   1.813  0.4115 -0.7506  0.3978
  242MOL0     O32538   7.381   9.976   1.691  0.3860 -0.3606 -0.4452
  242MOL0     C32539   7.241   9.970   1.689 -0.6801 -0.7291 -0.9666
  242MOL0     C32540   7.171  10.092   1.718  0.9690 -0.3742  0.3424
  242MOL0     C32541   7.035  10.094   1.709  0.5388 -0.1384  0.7834
  242MOL0     C32542   6.964   9.983   1.654 -0.7787 -0.3177  0.0834
  242MOL0     O32543   6.828   9.968   1.635 -0.4315  0.3226 -0.6427
  242MOL0     C32544   6.756  10.091   1.653  0.0684  0.5832 -0.1362
  242MOL0     C32545   6.614  10.070   1.600  0.0146 -0.2037 -0.4121
  242MOL0     C32546   6.524  10.193   1.624  0.1399  0.6861  0.1926
  242MOL0     C32547   6.399  10.187   1.538  0.0399 -0.1277 -0.3410
  242MOL0     C32548   6.300  10.304   1.552  0.3349  0.4048 -0.0394
  242MOL0     C32549   6.216  10.299   1.684 -0.7865  0.3318 -0.0333
  242MOL0     C32550   6.114  10.181   1.669 -0.1463 -0.3889  0.0909
  242MOL0     C32551   6.005  10.188   1.773  0.4649  0.3856 -0.9162
  242MOL0     N32552   5.910  10.074   1.771  0.0433  0.0430 -0.2636
  242MOL0     C32553   5.862   9.999   1.875  0.8318 -0.7893 -0.4564
  242MOL0     C32554   5.756   9.931   1.831 -0.1861  0.4605 -0.3235
  242MOL0     C32555   5.665   9.853   1.926  0.6349 -0.3497  0.0101
  242MOL0     C32556   5.519   9.891   1.888  0.1742  0.1137  0.0409
  242MOL0     C32557   5.416   9.845   1.992  0.3438  0.3529 -0.2791
  242MOL0     C32558   5.286   9.918   1.968  0.7271 -0.3331 -0.3977
  242MOL0     O32559   5.239   9.910   1.835 -1.0159 -0.3254  0.3432
  242MOL0     C32560   5.109   9.946   1.809 -0.3335  0.3826  0.4356
  242MOL0     C32561   5.059   9.917   1.683 -0.2890 -0.3912 -0.7655
  242MOL0     C32562   4.928   9.961   1.655  0.0313  0.0951 -0.3140
  242MOL0     C32563   4.879   9.919   1.518 -0.7369  0.4392  0.0551
  242MOL0     C32564   4.851  10.035   1.746  0.0616  0.3690 -0.1095
  242MOL0     C32565   4.709  10.080   1.726  0.8057 -0.4301 -0.5266
  242MOL0     O32566   4.665  10.116   1.600  0.0103  0.2476  0.8644
  242MOL0     C32567   4.546  10.190   1.592 -0.1411 -0.0722 -0.2869
  242MOL0     C32568   4.512  10.293   1.687  0.3013  0.4817  0.5809
  242MOL0     C32569   4.382  10.348   1.678 -0.4156 -0.1674  0.5006
  242MOL0     C32570   4.297  10.311   1.571  0.2434  0.8163  0.5767
  242MOL0     O32571   4.169  10.368   1.557  0.1398 -0.0848  0.0811
  242MOL0     C32572   4.156  10.511   1.565  0.0403 -0.2985 -0.0765
  242MOL0     C32573   4.011  10.544   1.507  0.0608 -0.4868  0.3291
  242MOL0     C32574   3.961  10.673   1.564  0.6168  0.2238  1.1360
  242MOL0     C32575   3.839  10.721   1.473  0.2752 -0.1390 -0.2087
  242MOL0     C32576   3.758  10.827   1.537  0.6275  0.4031  0.0250
  242MOL0     C32577   3.632  10.859   1.448 -0.2528  0.0346 -0.1193
  242MOL0     C32578   3.519  10.927   1.527  0.0363  0.6808  0.0359
  242MOL0     C32579   3.442  10.824   1.613 -0.0228 -0.5579  0.0677
  242MOL0    Cl32580   3.271  10.881   1.625 -0.2204 -0.1525 -0.0236
  242MOL0     C32581   4.333  10.218   1.481  0.2859  0.2245 -0.2963
  242MOL0     C32582   4.460  10.162   1.488 -0.0259  1.0712 -0.0894
  242MOL0     O32583   4.644  10.095   1.829  0.3440 -0.3096  0.9239
  242MOL0     C32584   4.911  10.072   1.868  0.1901  0.1096  0.2880
  242MOL0     C32585   5.043  10.026   1.899 -0.2868  0.4962 -0.0717
  242MOL0     N32586   5.749   9.947   1.694 -0.5712  0.2419  0.1071
  242MOL0     N32587   5.843  10.038   1.660 -0.2160  0.4958  0.7386
  242MOL0     C32588   7.039   9.865   1.629 -0.0402 -0.3746  0.2439
  242MOL0     C32589   7.172   9.851   1.653  0.6645  0.8222 -0.8711
  242MOL0     C32590   7.588   9.988   1.815 -1.0000 -0.0933 -0.8968
  242MOL0     C32591   7.659   9.995   1.937 -0.2237 -0.0426 -0.3441
  242MOL0     C32592   7.799  10.031   1.928  0.4560  0.7140 -0.0108
  242MOL0     C32593   7.856  10.068   1.809  0.3306  0.4334 -0.8905
  242MOL0     O32594   7.983  10.116   1.796  0.0489  0.7655  0.2514
  242MOL0     C32595   8.085  10.025   1.833  1.0949  0.1787 -0.0471
  242MOL0     C32596   8.144   9.965   1.702 -0.5405 -0.3623 -1.0718
  242MOL0     C32597   8.279   9.905   1.730  0.2339  0.0295  0.0837
  242MOL0     C32598   8.377  10.006   1.788 -0.1189 -0.9943  0.3778
  242MOL0     C32599   8.387  10.137   1.714  0.2560 -0.3680 -0.1509
  242MOL0     C32600   8.387  10.237   1.649  0.3292  0.1434  0.4733
  242MOL0     C32601   7.784  10.058   1.694 -0.3299 -0.1051  0.1991
  242MOL0     C32602   7.651  10.022   1.691  1.0059 -0.8902 -0.5060
  242MOL0     H32603   7.223  10.186   1.734  3.6194 -0.7426 -4.3011
  242MOL0     H32604   6.980  10.187   1.718 -0.3063 -0.3183 -1.7728
  242MOL0     H32605   6.748  10.129   1.755  0.2879  1.4246 -0.4212
  242MOL0     H32606   6.803  10.164   1.586 -1.5685  1.3732 -0.4839
  242MOL0     H32607   6.633  10.046   1.496 -0.7741 -0.6463 -0.4598
  242MOL0     H32608   6.575   9.982   1.652  4.2327 -2.7848 -1.2331
  242MOL0     H32609   6.503  10.190   1.731  0.8649  0.4804  0.3351
  242MOL0     H32610   6.572  10.291   1.616  1.6197 -0.1164 -1.3859
  242MOL0     H32611   6.417  10.184   1.430 -0.5597 -1.4176 -0.4239
  242MOL0     H32612   6.346  10.092   1.554  3.7856 -2.2523  0.7292
  242MOL0     H32613   6.336  10.407   1.548  0.5868  0.4920  2.5220
  242MOL0     H32614   6.241  10.286   1.462  1.5265  0.8898 -0.9472
  242MOL0     H32615   6.287  10.287   1.767 -0.5588  1.6479 -0.0123
  242MOL0     H32616   6.166  10.395   1.700  0.2121  1.1264 -1.5236
  242MOL0     H32617   6.057  10.180   1.575 -1.4501  0.4900  0.8562
  242MOL0     H32618   6.180  10.093   1.673  1.8455  0.8195 -2.5917
  242MOL0     H32619   5.945  10.280   1.773 -1.9237 -1.0222 -3.5237
  242MOL0     H32620   6.053  10.174   1.870 -1.0756 -1.4165 -0.3390
  242MOL0     H32621   5.897  10.014   1.977 -1.8226  0.7827  0.3367
  242MOL0     H32622   5.672   9.745   1.910  0.7436 -0.5105  1.0418
  242MOL0     H32623   5.679   9.887   2.029  2.4339 -2.9595  0.7206
  242MOL0     H32624   5.499   9.841   1.793  3.1086 -1.5917  0.1868
  242MOL0     H32625   5.507   9.998   1.870  0.0167 -0.2152 -2.0798
  242MOL0     H32626   5.457   9.857   2.093 -0.4259  0.8311 -0.0134
  242MOL0     H32627   5.395   9.738   1.987  1.3725 -0.3873  5.1248
  242MOL0     H32628   5.295  10.024   1.990 -2.2844 -0.4348  1.9278
  242MOL0     H32629   5.212   9.887   2.042  1.5070 -1.9618 -0.2546
  242MOL0     H32630   5.115   9.853   1.615 -0.6972  1.2024 -2.7133
  242MOL0     H32631   4.781   9.872   1.530 -0.5871  0.0964 -0.0484
  242MOL0     H32632   4.852   9.993   1.441 -0.0195  1.4185  0.7347
  242MOL0     H32633   4.945   9.844   1.474 -0.1360  0.3606  1.0672
  242MOL0     H32634   4.588  10.335   1.753 -0.9267  1.1984  1.5860
  242MOL0     H32635   4.357  10.423   1.753  0.0991  1.1484 -0.5936
  242MOL0     H32636   4.157  10.547   1.668 -0.4144  1.3431 -0.6271
  242MOL0     H32637   4.239  10.566   1.518  0.4566  0.2498  1.2559
  242MOL0     H32638   4.028  10.546   1.399  1.2427 -2.7569  0.4123
  242MOL0     H32639   3.944  10.459   1.519 -1.6127  1.0866  3.4405
  242MOL0     H32640   4.036  10.752   1.559 -0.5049  1.2288 -0.6138
  242MOL0     H32641   3.925  10.647   1.664 -1.7390 -2.9089 -0.3269
  242MOL0     H32642   3.869  10.736   1.369  1.2598  2.9851  0.4515
  242MOL0     H32643   3.766  10.639   1.479  0.6017 -0.3288  1.7451
  242MOL0     H32644   3.809  10.923   1.553  2.0795 -0.5928  1.5720
  242MOL0     H32645   3.730  10.794   1.637  1.2503 -2.4065 -0.6539
  242MOL0     H32646   3.663  10.933   1.374 -0.0766 -0.0776 -0.1571
  242MOL0     H32647   3.602  10.766   1.397  0.6879 -0.6796  0.5880
  242MOL0     H32648   3.457  10.964   1.445  0.6898 -0.2142 -0.8824
  242MOL0     H32649   3.558  11.016   1.577  0.8669  1.8875 -2.5611
  242MOL0     H32650   3.489  10.812   1.712  0.2122  0.5878  0.1137
  242MOL0     H32651   3.439  10.730   1.557 -1.3132 -0.2590 -0.3937
  242MOL0     H32652   4.262  10.191   1.403 -0.3844 -0.3192  0.4923
  242MOL0     H32653   4.500  10.101   1.408  0.9764  2.0972 -0.4098
  242MOL0     H32654   4.857  10.126   1.945 -0.5591  0.1651 -0.2681
  242MOL0     H32655   5.082  10.064   1.993  1.6933 -1.9704  0.1838
  242MOL0     H32656   6.991   9.771   1.603 -0.6664 -0.7799  2.6029
  242MOL0     H32657   7.230   9.766   1.621  1.3377  1.1909 -0.6415
  242MOL0     H32658   7.613   9.972   2.033  0.2881 -0.7176 -0.2574
  242MOL0     H32659   7.854  10.039   2.021 -0.7892  3.1011  0.6213
  242MOL0     H32660   8.164  10.076   1.889  3.5025 -1.5301 -1.6960
  242MOL0     H32661   8.043   9.942   1.890 -0.2073 -1.3050 -2.9904
  242MOL0     H32662   8.158  10.029   1.615  2.3559 -0.3403 -0.6946
  242MOL0     H32663   8.072   9.887   1.674 -0.3552 -2.2796  3.0766
  242MOL0     H32664   8.316   9.858   1.639 -0.0289  1.6787 -0.9259
  242MOL0     H32665   8.255   9.832   1.808  0.9401  0.2756  0.5375
  242MOL0     H32666   8.475   9.958   1.794  0.4209  0.0864  0.3519
  242MOL0     H32667   8.356  10.038   1.890  0.6238  0.2015  0.1719
  242MOL0     H32668   8.371  10.329   1.596 -1.5244 -0.3584  0.0827
  242MOL0     H32669   7.839  10.087   1.605 -0.8240  0.7245  0.1517
  242MOL0     H32670   7.607  10.015   1.592  0.9692 -1.0072 -0.4821
  243MOL0     O32671   5.608   2.668   1.307  0.3721  0.2660 -0.1189
  243MOL0     C32672   5.615   2.711   1.193  1.2004 -0.0095 -0.1438
  243MOL0     O32673   5.503   2.756   1.122  0.2849 -0.5420 -0.9170
  243MOL0     C32674   5.371   2.739   1.140 -0.8693  1.1544  0.1295
  243MOL0     C32675   5.287   2.825   1.069 -0.0567 -0.2401  0.0226
  243MOL0     C32676   5.152   2.803   1.077 -0.0030 -0.3280 -0.7450
  243MOL0     C32677   5.098   2.707   1.160  0.6641 -0.5260  0.3019
  243MOL0     O32678   4.960   2.715   1.178 -0.2953  0.0811  0.0052
  243MOL0     C32679   4.888   2.659   1.290 -0.0934  0.1409 -0.3183
  243MOL0     C32680   4.732   2.653   1.281 -0.1240 -0.0618  0.0224
  243MOL0     C32681   4.689   2.567   1.160 -0.0277 -0.1039  0.3303
  243MOL0     C32682   4.544   2.522   1.181 -0.6678  0.2397  0.6818
  243MOL0     C32683   4.485   2.447   1.056 -0.0013 -0.8924  0.0956
  243MOL0     C32684   4.340   2.444   1.075  0.9442  0.6674  0.6838
  243MOL0     C32685   4.290   2.336   1.180 -0.2847  0.4429 -0.6992
  243MOL0     C32686   4.145   2.357   1.201 -0.5463  0.1532  0.2102
  243MOL0     N32687   4.091   2.237   1.265  0.1140 -0.6633 -0.4882
  243MOL0     C32688   4.083   2.224   1.401 -0.3630  1.0483 -0.0300
  243MOL0     C32689   4.033   2.102   1.429  0.4138 -0.3967  0.2751
  243MOL0     C32690   3.992   2.071   1.572  0.5392  0.5782  0.5812
  243MOL0     C32691   3.846   2.118   1.600  0.7987  0.3737 -0.4692
  243MOL0     C32692   3.791   2.064   1.731  0.9566  0.3763  0.2502
  243MOL0     C32693   3.639   2.079   1.736 -0.0673  0.4802  0.8390
  243MOL0     O32694   3.584   2.041   1.865  0.3114 -0.9372 -0.2187
  243MOL0     C32695   3.450   2.031   1.870 -0.2188  0.4181  0.7221
  243MOL0     C32696   3.402   1.957   1.972 -0.1057  0.8507 -0.1357
  243MOL0     C32697   3.267   1.926   1.982 -0.3791  1.2002 -0.0691
  243MOL0     C32698   3.215   1.834   2.087  0.5123  0.4775  0.4783
  243MOL0     C32699   3.173   1.974   1.884 -0.3042 -0.8204 -1.1173
  243MOL0     C32700   3.027   1.940   1.877 -0.0432  0.1695  0.1354
  243MOL0     O32701   2.958   2.033   1.805 -0.1574 -0.4089  0.4692
  243MOL0     C32702   2.835   2.078   1.834  0.1275 -0.0781 -0.2198
  243MOL0     C32703   2.724   2.003   1.865  0.3362  1.1193 -0.7929
  243MOL0     C32704   2.604   2.063   1.887 -0.8792 -0.2251 -0.9106
  243MOL0     C32705   2.580   2.196   1.863  0.7198 -0.5506 -0.2630
  243MOL0     O32706   2.456   2.257   1.875  0.2382  0.3934  0.0920
  243MOL0     C32707   2.361   2.222   1.774 -0.6384 -0.0887  0.4874
  243MOL0     C32708   2.219   2.209   1.829 -0.5608  1.0223  0.9001
  243MOL0     C32709   2.171   2.325   1.901 -0.2161 -0.4820  0.2232
  243MOL0     C32710   2.024   2.319   1.949 -0.2608 -0.6026 -0.8176
  243MOL0     C32711   1.983   2.452   2.021  0.6549  1.0839 -0.5169
  243MOL0     C32712   1.850   2.456   2.092  0.2650 -0.2675  0.0461
  243MOL0     C32713   1.862   2.413   2.248  0.2351  0.2235  1.1179
  243MOL0     C32714   1.906   2.528   2.337 -0.1617  0.6293  0.2708
  243MOL0    Cl32715   1.752   2.617   2.368 -0.0119  0.0928  0.4186
  243MOL0     C32716   2.692   2.271   1.829  0.3615 -0.0408 -0.6363
  243MOL0     C32717   2.820   2.217   1.811  0.5323 -0.0524 -0.8219
  243MOL0     O32718   2.982   1.847   1.941  0.6401 -0.2360 -0.0182
  243MOL0     C32719   3.226   2.056   1.775  0.0568  0.2807 -0.6134
  243MOL0     C32720   3.357   2.080   1.779 -0.5288 -0.4886  0.6426
  243MOL0     N32721   4.002   2.046   1.308 -0.0441 -0.3379  0.0547
  243MOL0     N32722   4.048   2.120   1.213  0.8301 -0.2112  0.3813
  243MOL0     C32723   5.179   2.632   1.246 -0.0921 -1.3549 -0.9619
  243MOL0     C32724   5.315   2.647   1.236 -0.3242  0.0594  0.2825
  243MOL0     C32725   5.743   2.751   1.140 -0.4485  0.3687  0.2277
  243MOL0     C32726   5.859   2.737   1.215 -0.0524 -0.3969 -0.4542
  243MOL0     C32727   5.983   2.779   1.163  0.1574 -0.3511  0.1531
  243MOL0     C32728   5.988   2.855   1.048 -0.0329  0.3922  0.2344
  243MOL0     O32729   6.105   2.916   1.006 -0.2406 -0.2812  0.4288
  243MOL0     C32730   6.122   3.051   1.057 -0.3537  0.2681 -0.2126
  243MOL0     C32731   6.252   3.103   1.005  0.0245  0.0898  0.0257
  243MOL0     C32732   6.365   3.031   1.074 -0.9262 -0.2328 -0.8486
  243MOL0     C32733   6.496   3.103   1.043  0.0289  0.8142 -0.2243
  243MOL0     C32734   6.581   3.092   1.167  0.4260 -0.1039  0.5829
  243MOL0     C32735   6.630   3.070   1.270  0.3474 -0.7354 -0.1059
  243MOL0     C32736   5.879   2.856   0.965 -0.2792 -0.4277  0.4395
  243MOL0     C32737   5.758   2.814   1.019  0.4686 -1.1978  0.1548
  243MOL0     H32738   5.334   2.900   1.008  1.5036  0.2880  1.7791
  243MOL0     H32739   5.080   2.856   1.015 -1.2657 -1.7596 -0.5608
  243MOL0     H32740   4.926   2.559   1.312  2.9036  0.9927 -1.1400
  243MOL0     H32741   4.907   2.721   1.379  0.9813 -1.9581  0.9805
  243MOL0     H32742   4.692   2.605   1.371  0.3004  1.6216  1.1566
  243MOL0     H32743   4.697   2.755   1.265  0.7946  0.0434 -1.5040
  243MOL0     H32744   4.684   2.626   1.068 -3.3292 -1.1486 -0.2915
  243MOL0     H32745   4.745   2.474   1.147 -2.3173 -1.4980 -0.0901
  243MOL0     H32746   4.549   2.464   1.274  3.2093  0.7926  0.9826
  243MOL0     H32747   4.480   2.608   1.201 -2.4593 -0.7688 -0.4866
  243MOL0     H32748   4.522   2.496   0.966  0.5630 -1.0305  0.2440
  243MOL0     H32749   4.524   2.345   1.064  0.9541 -0.4322  1.9285
  243MOL0     H32750   4.316   2.549   1.096 -0.7027 -0.1172  3.1020
  243MOL0     H32751   4.292   2.415   0.980  0.1102 -0.0656  1.3162
  243MOL0     H32752   4.315   2.240   1.135  0.8859 -0.9539  2.6454
  243MOL0     H32753   4.347   2.346   1.273  0.6437  2.4205 -1.4251
  243MOL0     H32754   4.091   2.373   1.107  1.5695  0.3467 -1.0323
  243MOL0     H32755   4.130   2.449   1.258  0.5822 -0.3400  1.3609
  243MOL0     H32756   4.104   2.304   1.471  0.4027 -0.5854  1.7304
  243MOL0     H32757   3.989   1.963   1.581  3.3678  0.4014  0.3943
  243MOL0     H32758   4.064   2.117   1.641 -1.2239  1.6131  1.8461
  243MOL0     H32759   3.779   2.064   1.532 -0.7992 -0.0894  1.3870
  243MOL0     H32760   3.831   2.223   1.574 -1.3910  0.4570  0.9545
  243MOL0     H32761   3.828   2.118   1.818 -1.8271  0.4866  1.4937
  243MOL0     H32762   3.811   1.957   1.737  2.2800  0.6311  0.6614
  243MOL0     H32763   3.599   2.013   1.659  0.6904 -0.7488  1.4759
  243MOL0     H32764   3.605   2.180   1.710 -0.5003  0.2769  0.6064
  243MOL0     H32765   3.457   1.914   2.055 -1.0386  0.2401  0.1751
  243MOL0     H32766   3.292   1.794   2.154 -1.3661 -0.1352  2.3812
  243MOL0     H32767   3.142   1.880   2.153 -1.0369  1.1532 -1.6352
  243MOL0     H32768   3.176   1.747   2.033  0.9043  2.0962 -2.6706
  243MOL0     H32769   2.730   1.895   1.868 -1.7772  0.9714  1.5312
  243MOL0     H32770   2.525   2.005   1.933 -1.0586 -0.7037 -1.7974
  243MOL0     H32771   2.350   2.294   1.693  1.7974 -3.3803 -3.1398
  243MOL0     H32772   2.392   2.129   1.724 -1.0794 -0.8867  1.6443
  243MOL0     H32773   2.151   2.189   1.746  1.7263  2.5627 -1.4822
  243MOL0     H32774   2.222   2.118   1.891  3.0822  1.1739  1.1865
  243MOL0     H32775   2.177   2.417   1.843 -2.2323 -0.6754 -0.3690
  243MOL0     H32776   2.230   2.330   1.993  0.6983  3.2193 -0.3987
  243MOL0     H32777   1.959   2.300   1.863  0.4229  0.7189 -1.6602
  243MOL0     H32778   2.017   2.235   2.019  1.3129 -1.1304 -1.2542
  243MOL0     H32779   1.980   2.537   1.952 -0.9339  0.6835 -1.0011
  243MOL0     H32780   2.061   2.443   2.096  0.9393 -2.6732 -1.0603
  243MOL0     H32781   1.844   2.565   2.090  2.1567  0.0016 -5.0599
  243MOL0     H32782   1.773   2.405   2.032  1.0543 -0.1683 -1.0827
  243MOL0     H32783   1.925   2.326   2.271 -1.5519 -1.9244 -1.5231
  243MOL0     H32784   1.761   2.388   2.281  0.2645  0.4482  1.3897
  243MOL0     H32785   1.987   2.586   2.293 -0.1250 -0.4019 -1.0730
  243MOL0     H32786   1.938   2.501   2.438 -1.2465  2.3797  1.1383
  243MOL0     H32787   2.680   2.378   1.821  4.1171  1.1470  4.4003
  243MOL0     H32788   2.904   2.283   1.791 -0.1286  1.0118 -0.2218
  243MOL0     H32789   3.151   2.095   1.707  0.0144 -0.3527 -0.9360
  243MOL0     H32790   3.401   2.145   1.704 -0.2888  1.3304  2.2796
  243MOL0     H32791   5.132   2.562   1.314 -1.0990  1.1689  1.1303
  243MOL0     H32792   5.378   2.572   1.281 -1.2169 -1.6818 -1.2399
  243MOL0     H32793   5.863   2.699   1.317 -0.1372  2.0295  0.5201
  243MOL0     H32794   6.062   2.770   1.237 -1.2398  2.1618  2.1249
  243MOL0     H32795   6.038   3.111   1.020  0.7130  1.6160 -0.4924
  243MOL0     H32796   6.120   3.055   1.167  1.9015  1.1167 -0.1618
  243MOL0     H32797   6.254   3.212   1.016  2.0737  0.2007 -0.9734
  243MOL0     H32798   6.250   3.089   0.896 -0.1527 -2.7086  0.3243
  243MOL0     H32799   6.371   2.926   1.045 -0.0533  0.2551 -2.6347
  243MOL0     H32800   6.349   3.027   1.182  0.2854 -2.1369 -0.6988
  243MOL0     H32801   6.479   3.203   1.003  0.7971 -0.2425 -3.5708
  243MOL0     H32802   6.545   3.056   0.957  2.6217 -0.1574  1.6560
  243MOL0     H32803   6.681   3.062   1.364 -1.3906  2.0154  1.1904
  243MOL0     H32804   5.866   2.908   0.871 -3.4148  2.5812  2.2924
  243MOL0     H32805   5.669   2.831   0.959 -0.0822 -1.2979  0.9324
  244MOL0     O32806   5.083   6.317   9.712  0.0146  0.4580  0.4109
  244MOL0     C32807   5.200   6.311   9.741  1.6483  0.5720 -0.2700
  244MOL0     O32808   5.265   6.408   9.806 -0.3622  0.2521 -0.4086
  244MOL0     C32809   5.196   6.518   9.834  0.1928 -0.5650 -0.4376
  244MOL0     C32810   5.079   6.518   9.906 -0.0237  0.2972 -0.7040
  244MOL0     C32811   5.021   6.627   9.950  1.0529  0.3225  0.3765
  244MOL0     C32812   5.057   6.754   9.906 -0.0587  0.1326  0.1491
  244MOL0     O32813   4.996   6.855   9.969  0.4372 -0.1127  0.8921
  244MOL0     C32814   5.027   6.989   9.920  0.0379  0.1719 -0.5790
  244MOL0     C32815   4.929   7.097   9.971  0.1770 -0.5527  0.2295
  244MOL0     C32816   4.785   7.075   9.930 -0.5342  0.1289 -0.6541
  244MOL0     C32817   4.703   7.196   9.950  0.1664 -0.1369 -1.2318
  244MOL0     C32818   4.558   7.156   9.946  0.3640 -0.5363 -0.1803
  244MOL0     C32819   4.463   7.268   9.989 -0.0936  0.7454 -0.0759
  244MOL0     C32820   4.315   7.219   9.969 -0.8900 -0.0202 -0.9135
  244MOL0     C32821   4.213   7.309  10.045  0.1204 -0.0340  0.1354
  244MOL0     N32822   4.214   7.451  10.000  1.6504 -0.4744 -0.3830
  244MOL0     C32823   4.172   7.485   9.871 -0.2790 -1.4411  0.3533
  244MOL0     C32824   4.173   7.627   9.866  0.2390 -0.2780  0.2821
  244MOL0     C32825   4.145   7.707   9.752 -0.1101  0.0553 -0.4861
  244MOL0     C32826   4.228   7.681   9.619  0.1755  0.7206 -0.1113
  244MOL0     C32827   4.372   7.731   9.618  1.3004 -0.0745  0.5793
  244MOL0     C32828   4.443   7.685   9.755 -0.2782  0.1854 -0.0966
  244MOL0     O32829   4.584   7.703   9.732  0.0295 -0.4350 -0.9956
  244MOL0     C32830   4.681   7.660   9.821 -0.0008 -0.2109 -0.2136
  244MOL0     C32831   4.650   7.615   9.953 -0.9468  0.0920  0.3688
  244MOL0     C32832   4.746   7.550  10.036 -0.1086 -0.2260  0.3386
  244MOL0     C32833   4.704   7.509  10.166  0.2570 -0.1398  0.3227
  244MOL0     C32834   4.882   7.548   9.991  0.1218  0.0537 -0.0535
  244MOL0     C32835   4.988   7.503  10.079 -0.3212 -0.8551  0.2397
  244MOL0     O32836   5.098   7.459  10.010  0.0500  0.3745 -0.3867
  244MOL0     C32837   5.207   7.403  10.072 -0.2168  0.6479 -0.0720
  244MOL0     C32838   5.330   7.472  10.057 -0.0609 -0.2567 -0.0630
  244MOL0     C32839   5.451   7.422  10.112  0.3158 -0.4321  0.0330
  244MOL0     C32840   5.458   7.309  10.182  0.1834  0.1430  0.2481
  244MOL0     O32841   5.578   7.285  10.242 -0.4919  0.5776  0.5108
  244MOL0     C32842   5.599   7.151  10.277 -0.1140  1.6645 -0.5003
  244MOL0     C32843   5.747   7.131  10.267 -0.7838 -0.1372  0.1466
  244MOL0     C32844   5.790   6.989  10.299 -0.1720 -0.1479  0.2497
  244MOL0     C32845   5.937   6.972  10.259 -0.4685  0.2960 -0.1499
  244MOL0     C32846   5.982   6.837  10.305  0.2216 -0.6883  0.1053
  244MOL0     C32847   6.128   6.838  10.317  0.1641 -0.1553 -0.8937
  244MOL0     C32848   6.174   6.730  10.407 -0.3182  0.3704 -0.6069
  244MOL0     C32849   6.319   6.703  10.391  0.1121 -0.2220  0.2175
  244MOL0    Cl32850   6.369   6.572  10.499  0.1722 -0.0577  0.1144
  244MOL0     C32851   5.339   7.239  10.201 -0.7514 -0.0683  0.1054
  244MOL0     C32852   5.216   7.293  10.154 -0.0639  0.4837  0.6676
  244MOL0     O32853   4.980   7.511  10.201 -0.0186  0.0842 -0.2862
  244MOL0     C32854   4.912   7.594   9.863  0.0245 -0.4197 -0.4372
  244MOL0     C32855   4.816   7.644   9.781 -0.0410 -0.3286  0.6969
  244MOL0     N32856   4.222   7.669   9.990 -0.5192  0.1413  0.4051
  244MOL0     N32857   4.244   7.569  10.067  0.5240 -0.3274  0.5675
  244MOL0     C32858   5.167   6.766   9.817  0.1995 -0.2187  0.9633
  244MOL0     C32859   5.239   6.646   9.785  0.6820  0.2112  0.1566
  244MOL0     C32860   5.265   6.192   9.695 -0.2394 -0.6966 -0.2252
  244MOL0     C32861   5.404   6.188   9.701 -1.3480 -0.4059  0.2617
  244MOL0     C32862   5.479   6.081   9.654 -0.6276 -0.2974  0.0008
  244MOL0     C32863   5.410   5.969   9.608  1.0302  0.0887 -0.0784
  244MOL0     O32864   5.457   5.848   9.560 -0.6631 -0.6412 -0.8163
  244MOL0     C32865   5.610   5.838   9.556 -0.0771 -0.4566 -0.1323
  244MOL0     C32866   5.649   5.724   9.654  0.2256  0.2528  0.1028
  244MOL0     C32867   5.610   5.588   9.596  0.4025  0.1084 -0.0097
  244MOL0     C32868   5.593   5.470   9.690 -0.2385 -0.5673  0.2696
  244MOL0     C32869   5.717   5.447   9.764 -0.5773  0.3326 -0.7623
  244MOL0     C32870   5.825   5.426   9.824  0.6758 -1.0380 -0.7737
  244MOL0     C32871   5.271   5.968   9.610  0.1407  0.6288 -0.1065
  244MOL0     C32872   5.196   6.074   9.658 -0.5544 -0.0806 -0.2391
  244MOL0     H32873   5.045   6.419   9.935  1.3233 -0.8005 -2.6775
  244MOL0     H32874   4.947   6.629  10.030 -0.1347  0.4120 -0.6836
  244MOL0     H32875   5.126   7.024   9.949 -0.1525  0.2402 -0.0117
  244MOL0     H32876   5.025   6.997   9.811 -3.3277  3.3379 -0.4748
  244MOL0     H32877   4.926   7.105  10.080 -2.8252 -0.9783  0.2464
  244MOL0     H32878   4.966   7.191   9.929  0.4986 -0.9783 -0.4431
  244MOL0     H32879   4.775   7.054   9.823  1.8286  1.8682 -1.3106
  244MOL0     H32880   4.747   6.990   9.988  2.0679 -0.7518 -0.0838
  244MOL0     H32881   4.729   7.241  10.046 -0.2819  0.0268 -1.1855
  244MOL0     H32882   4.730   7.272   9.876  4.4799  2.4310  2.4874
  244MOL0     H32883   4.539   7.105   9.852  4.3366  0.0234 -1.4577
  244MOL0     H32884   4.549   7.079  10.024  1.3993 -1.9486 -1.4169
  244MOL0     H32885   4.481   7.296  10.094  3.1887 -1.8661  0.2399
  244MOL0     H32886   4.470   7.352   9.921  2.0392 -1.2369 -2.5118
  244MOL0     H32887   4.295   7.212   9.861  0.2865 -1.6003 -1.0581
  244MOL0     H32888   4.305   7.119  10.010 -1.6731  0.8387  1.1300
  244MOL0     H32889   4.231   7.308  10.153  0.7892  2.5539  0.0973
  244MOL0     H32890   4.114   7.264  10.030  0.3440 -0.2555 -0.7298
  244MOL0     H32891   4.150   7.425   9.784 -0.1610  1.1304 -1.5790
  244MOL0     H32892   4.038   7.692   9.733 -0.1584 -1.0293  0.4876
  244MOL0     H32893   4.161   7.812   9.777 -1.0429  0.6064 -2.0535
  244MOL0     H32894   4.172   7.734   9.541  0.5526  1.9896  0.4558
  244MOL0     H32895   4.230   7.577   9.588  1.6687  0.1025  1.8319
  244MOL0     H32896   4.373   7.840   9.618 -2.8828  0.2102  2.8429
  244MOL0     H32897   4.419   7.687   9.530  1.1871 -2.4152  1.6024
  244MOL0     H32898   4.429   7.578   9.772  0.5526 -0.2357 -1.7536
  244MOL0     H32899   4.411   7.747   9.839 -1.8435  3.2578 -2.7215
  244MOL0     H32900   4.547   7.626   9.984 -1.4068  1.1156 -1.3853
  244MOL0     H32901   4.598   7.485  10.156  0.3641  0.0640 -2.0347
  244MOL0     H32902   4.755   7.418  10.197 -1.7376 -1.1771  0.7277
  244MOL0     H32903   4.712   7.594  10.234  1.0457  0.8393 -0.9392
  244MOL0     H32904   5.336   7.565  10.000  0.5368 -0.5770 -0.5354
  244MOL0     H32905   5.546   7.472  10.098 -0.9934  2.1155 -0.3181
  244MOL0     H32906   5.564   7.128  10.378 -2.5349 -0.9424 -1.7850
  244MOL0     H32907   5.546   7.080  10.213  0.2174 -0.1209  1.0866
  244MOL0     H32908   5.781   7.150  10.165 -3.0180  1.4449 -0.3816
  244MOL0     H32909   5.797   7.204  10.332  1.2308 -0.2153 -1.2252
  244MOL0     H32910   5.738   6.908  10.248  4.2302 -1.3029 -3.0345
  244MOL0     H32911   5.773   6.982  10.407 -1.3474 -2.6472 -0.0484
  244MOL0     H32912   5.948   6.975  10.150 -0.6420  0.0489 -0.1767
  244MOL0     H32913   5.985   7.052  10.317 -0.2000  0.4574 -0.5934
  244MOL0     H32914   5.954   6.769  10.224 -1.4720 -1.0496  0.9446
  244MOL0     H32915   5.929   6.810  10.397 -0.9492 -1.1103 -0.6684
  244MOL0     H32916   6.180   6.824  10.222  1.4253 -1.5394 -0.0457
  244MOL0     H32917   6.170   6.935  10.346  1.2076  0.1410 -3.1906
  244MOL0     H32918   6.125   6.639  10.370 -0.7700  0.8415 -1.1909
  244MOL0     H32919   6.140   6.754  10.508 -1.4056  4.3610 -1.7725
  244MOL0     H32920   6.368   6.791  10.434  1.3474 -0.5904 -0.3867
  244MOL0     H32921   6.347   6.682  10.287  1.3283  1.1700  0.2429
  244MOL0     H32922   5.350   7.154  10.268 -1.4094  0.1318  0.4803
  244MOL0     H32923   5.131   7.228  10.172  1.3737 -0.9240  2.9118
  244MOL0     H32924   5.018   7.593   9.838  0.9301  0.0193  2.8825
  244MOL0     H32925   4.837   7.674   9.679 -2.6269  0.2339  0.2388
  244MOL0     H32926   5.210   6.859   9.782  2.1266 -2.5723 -3.7301
  244MOL0     H32927   5.328   6.639   9.724 -0.6621  0.7654 -2.0064
  244MOL0     H32928   5.461   6.277   9.726 -0.3658 -0.5576 -1.2798
  244MOL0     H32929   5.587   6.077   9.666 -0.7959 -1.6931  1.3608
  244MOL0     H32930   5.649   5.812   9.456 -1.1859  1.8563 -1.2350
  244MOL0     H32931   5.667   5.929   9.575  2.4532 -1.8667 -0.4813
  244MOL0     H32932   5.592   5.743   9.746 -0.2230  0.4833 -0.2172
  244MOL0     H32933   5.755   5.719   9.681 -0.1384  0.2410  1.6510
  244MOL0     H32934   5.677   5.570   9.512  2.5890  1.6934  1.2702
  244MOL0     H32935   5.509   5.597   9.553 -0.2803 -2.9488  0.7416
  244MOL0     H32936   5.552   5.381   9.641 -0.4341 -0.2882 -0.0838
  244MOL0     H32937   5.520   5.498   9.767  0.7067 -0.8711  1.2924
  244MOL0     H32938   5.911   5.412   9.887 -2.2473 -2.3510  3.3928
  244MOL0     H32939   5.225   5.877   9.572 -0.3719  1.5085 -1.6878
  244MOL0     H32940   5.087   6.075   9.662 -0.6570  3.2900 -0.8386
  245MOL0     O32941   6.603   5.621   5.230  0.9045  1.1861  0.0628
  245MOL0     C32942   6.611   5.496   5.235 -0.6065 -0.9936 -0.2214
  245MOL0     O32943   6.511   5.407   5.241 -0.1706  1.2548  0.3571
  245MOL0     C32944   6.376   5.437   5.226 -0.2648 -0.4916 -0.4046
  245MOL0     C32945   6.320   5.545   5.298  0.3777 -0.7114 -0.0106
  245MOL0     C32946   6.179   5.571   5.281  1.0677  0.1003  0.4895
  245MOL0     C32947   6.107   5.494   5.192  0.3304  0.2279  0.2675
  245MOL0     O32948   5.977   5.522   5.159  0.7021  0.0742  0.6761
  245MOL0     C32949   5.908   5.634   5.210  0.4036 -0.0056 -0.3264
  245MOL0     C32950   5.754   5.617   5.183 -0.2659 -0.0549 -0.8089
  245MOL0     C32951   5.670   5.749   5.193 -0.6034 -0.1076 -0.0370
  245MOL0     C32952   5.525   5.729   5.183 -1.3699  0.4187  0.4765
  245MOL0     C32953   5.455   5.863   5.165  0.4356  0.2674  0.6371
  245MOL0     C32954   5.469   5.958   5.287  0.2304  0.1104  0.7244
  245MOL0     C32955   5.390   6.089   5.266  0.4089 -0.7540  1.0197
  245MOL0     C32956   5.239   6.067   5.277 -0.2901 -0.5815  0.5665
  245MOL0     N32957   5.184   6.204   5.273  0.8805 -0.2321  0.0433
  245MOL0     C32958   5.074   6.241   5.197  0.5046  0.4594  0.8365
  245MOL0     C32959   5.089   6.375   5.190 -0.3908 -0.3356  0.3466
  245MOL0     C32960   5.029   6.456   5.090  0.1243  0.3929  0.7278
  245MOL0     C32961   4.881   6.457   5.115 -0.6865  0.3176 -0.5333
  245MOL0     C32962   4.822   6.534   4.995 -0.1702 -0.2561  0.5652
  245MOL0     C32963   4.676   6.521   4.992 -1.2143  0.2547  0.5844
  245MOL0     O32964   4.627   6.612   4.889  0.4518  0.2354 -0.1499
  245MOL0     C32965   4.489   6.636   4.888 -0.4079  0.4122  0.1895
  245MOL0     C32966   4.441   6.760   4.897  0.2765 -0.1559  1.1409
  245MOL0     C32967   4.299   6.786   4.895 -0.0273 -0.5628 -0.0004
  245MOL0     C32968   4.256   6.933   4.903  0.1154  0.4355  0.7161
  245MOL0     C32969   4.208   6.676   4.888  0.2297  1.1652  0.1060
  245MOL0     C32970   4.062   6.695   4.868 -0.4727 -0.3667  0.1686
  245MOL0     O32971   4.001   6.577   4.832  0.1086  0.4073 -0.1283
  245MOL0     C32972   3.878   6.572   4.767  0.0049 -0.0942 -0.4585
  245MOL0     C32973   3.878   6.469   4.665 -0.4541  0.7463  0.3640
  245MOL0     C32974   3.773   6.459   4.580  0.2088 -0.0540 -0.6024
  245MOL0     C32975   3.664   6.541   4.590  0.1172  0.1041 -0.1636
  245MOL0     O32976   3.569   6.531   4.499 -0.0724  0.6505 -0.3598
  245MOL0     C32977   3.460   6.631   4.489  0.7857 -0.2333 -0.7753
  245MOL0     C32978   3.399   6.638   4.356  1.0681 -0.8073  0.5912
  245MOL0     C32979   3.358   6.491   4.307  0.2536 -1.1416 -0.1846
  245MOL0     C32980   3.286   6.496   4.172  0.5804  0.3465  0.0926
  245MOL0     C32981   3.353   6.569   4.050 -0.9295  0.7941 -0.0261
  245MOL0     C32982   3.260   6.566   3.924 -0.0018  0.5501 -0.0257
  245MOL0     C32983   3.250   6.421   3.872 -0.1511  0.3768  0.7250
  245MOL0     C32984   3.213   6.424   3.716 -0.3982 -0.6597 -0.9504
  245MOL0    Cl32985   3.047   6.486   3.709  0.3264 -0.3379 -0.1941
  245MOL0     C32986   3.654   6.634   4.697  0.3135 -0.4008  0.4241
  245MOL0     C32987   3.764   6.649   4.785 -0.1360  0.9151 -0.2122
  245MOL0     O32988   4.001   6.801   4.882  0.4558  0.3865 -1.1016
  245MOL0     C32989   4.257   6.549   4.868 -0.4325 -0.0061 -0.2442
  245MOL0     C32990   4.399   6.535   4.870 -0.6042  0.9298  0.2370
  245MOL0     N32991   5.184   6.413   5.287  0.5204  0.3608 -0.2785
  245MOL0     N32992   5.239   6.308   5.334 -0.1622  0.4676 -0.2305
  245MOL0     C32993   6.160   5.383   5.121 -0.9065 -0.2486 -0.1497
  245MOL0     C32994   6.296   5.352   5.144  0.1266  0.1236 -0.4252
  245MOL0     C32995   6.753   5.449   5.247 -0.3759 -1.4631 -0.2785
  245MOL0     C32996   6.792   5.313   5.222  0.5463  0.8474 -1.0380
  245MOL0     C32997   6.929   5.276   5.229 -0.7585  0.9218  0.0000
  245MOL0     C32998   7.030   5.367   5.248  0.0860  0.3214 -0.3983
  245MOL0     O32999   7.150   5.301   5.263 -0.1486 -0.3300  0.8926
  245MOL0     C33000   7.256   5.357   5.344 -0.2690 -0.2099 -0.0688
  245MOL0     C33001   7.369   5.253   5.334  0.2901 -0.2343  0.6065
  245MOL0     C33002   7.497   5.305   5.413  0.4742 -0.2174 -0.0415
  245MOL0     C33003   7.565   5.424   5.348 -0.5972 -0.0308  0.8557
  245MOL0     C33004   7.638   5.373   5.230 -0.5290 -0.2864  0.3937
  245MOL0     C33005   7.712   5.333   5.136 -0.1192  0.1434  0.4800
  245MOL0     C33006   6.999   5.506   5.272 -0.4751  0.7172  0.0871
  245MOL0     C33007   6.859   5.537   5.266  0.2952 -0.3016  0.1755
  245MOL0     H33008   6.380   5.605   5.366  0.5993 -1.2035  0.2312
  245MOL0     H33009   6.132   5.649   5.340  0.7229  0.0210  0.3205
  245MOL0     H33010   5.919   5.640   5.319 -2.0993  2.0656 -0.0675
  245MOL0     H33011   5.948   5.725   5.165  2.8873 -1.0318 -0.3316
  245MOL0     H33012   5.744   5.567   5.087 -0.5713 -1.9613  0.1716
  245MOL0     H33013   5.712   5.551   5.259  1.4877 -0.1473  0.1417
  245MOL0     H33014   5.702   5.802   5.284  0.4524  1.5202 -1.2946
  245MOL0     H33015   5.707   5.812   5.111 -1.8663 -1.6007 -1.8253
  245MOL0     H33016   5.513   5.663   5.097  0.0989  1.4171 -0.5500
  245MOL0     H33017   5.495   5.682   5.277 -2.0369 -0.2420 -0.0593
  245MOL0     H33018   5.510   5.914   5.085  1.3769 -1.7356 -0.0518
  245MOL0     H33019   5.348   5.856   5.146  0.0573 -1.4664  3.0050
  245MOL0     H33020   5.437   5.914   5.382 -1.7173  1.8343  0.9286
  245MOL0     H33021   5.575   5.979   5.304  0.1425 -0.4549  2.0730
  245MOL0     H33022   5.417   6.146   5.355  1.4112 -0.8973  0.8105
  245MOL0     H33023   5.409   6.137   5.170 -1.2034 -2.1715 -0.0580
  245MOL0     H33024   5.212   6.013   5.368 -0.7792  1.3923  1.6532
  245MOL0     H33025   5.199   6.004   5.197 -2.0343  2.4624 -1.1268
  245MOL0     H33026   5.000   6.181   5.144 -0.7102  2.4342  0.2133
  245MOL0     H33027   5.059   6.560   5.106 -0.9102  0.6938  0.7984
  245MOL0     H33028   5.053   6.424   4.988 -2.2958  0.2714  0.1471
  245MOL0     H33029   4.864   6.491   5.217  1.2426 -1.7582  0.5680
  245MOL0     H33030   4.850   6.352   5.115  3.1139 -0.9603  0.8899
  245MOL0     H33031   4.866   6.487   4.907 -1.9119 -0.7986 -0.0449
  245MOL0     H33032   4.847   6.640   4.999 -0.5967 -0.1757  2.0132
  245MOL0     H33033   4.634   6.532   5.093  1.8080  0.3753  1.9476
  245MOL0     H33034   4.651   6.420   4.959 -3.1670  1.0704 -0.6084
  245MOL0     H33035   4.509   6.845   4.902 -0.1967  0.3135 -0.0860
  245MOL0     H33036   4.192   6.974   4.824  0.9761  1.5523  0.5865
  245MOL0     H33037   4.206   6.949   4.999 -1.9515 -1.3319  0.0449
  245MOL0     H33038   4.347   6.993   4.894  1.2083 -1.4260 -2.0290
  245MOL0     H33039   3.959   6.398   4.656 -0.3101  0.9520  0.0308
  245MOL0     H33040   3.783   6.385   4.501 -0.1667 -0.3383 -0.3848
  245MOL0     H33041   3.380   6.609   4.560 -0.7519  1.7031 -1.8249
  245MOL0     H33042   3.492   6.734   4.508 -1.2345  0.3290 -0.2091
  245MOL0     H33043   3.308   6.699   4.358 -0.5410 -3.0649  0.5356
  245MOL0     H33044   3.476   6.687   4.294  1.5155  0.2701  1.9461
  245MOL0     H33045   3.287   6.452   4.381  1.0106 -1.3596  0.4434
  245MOL0     H33046   3.446   6.426   4.295  1.2579  0.2126 -0.4178
  245MOL0     H33047   3.254   6.394   4.149  1.9437 -0.1135  0.1654
  245MOL0     H33048   3.197   6.557   4.191 -1.4638 -1.9769 -1.4714
  245MOL0     H33049   3.447   6.521   4.022 -3.1694 -5.1659  1.2671
  245MOL0     H33050   3.360   6.678   4.060 -0.4877  1.0111 -2.1137
  245MOL0     H33051   3.160   6.594   3.956 -0.4125 -0.4397 -0.4003
  245MOL0     H33052   3.298   6.641   3.855  0.4864 -0.8737 -1.3575
  245MOL0     H33053   3.175   6.357   3.920 -0.2972  0.1302  0.1786
  245MOL0     H33054   3.348   6.375   3.891  1.3475  2.3087 -1.8477
  245MOL0     H33055   3.228   6.325   3.672  0.2123 -1.8366  1.6559
  245MOL0     H33056   3.289   6.476   3.656  1.2288 -0.6265  1.0235
  245MOL0     H33057   3.558   6.677   4.722  1.5565  1.2504  2.7706
  245MOL0     H33058   3.741   6.712   4.870  3.2413  1.5762  0.3503
  245MOL0     H33059   4.196   6.461   4.851 -1.7123  0.4630  1.6448
  245MOL0     H33060   4.445   6.438   4.853  1.7105  2.2354 -1.6398
  245MOL0     H33061   6.096   5.317   5.064  1.2210 -2.5170 -0.0853
  245MOL0     H33062   6.338   5.266   5.093 -1.4951 -0.5813 -0.6327
  245MOL0     H33063   6.711   5.240   5.219 -0.5301  1.6633  2.8189
  245MOL0     H33064   6.958   5.173   5.211 -0.6400  0.7921  0.8751
  245MOL0     H33065   7.297   5.449   5.302  5.2327 -2.8538 -1.3465
  245MOL0     H33066   7.224   5.378   5.447  1.2409  1.7458  0.0631
  245MOL0     H33067   7.402   5.241   5.230  1.3795  3.0949  0.4608
  245MOL0     H33068   7.337   5.156   5.374  0.1405  0.2063  1.5957
  245MOL0     H33069   7.576   5.230   5.426  1.2917 -0.3362 -4.3771
  245MOL0     H33070   7.451   5.328   5.510  1.9979 -3.3610  1.5806
  245MOL0     H33071   7.634   5.459   5.425 -0.9727 -0.7845  1.5548
  245MOL0     H33072   7.495   5.503   5.318  2.7477  2.3951 -1.2988
  245MOL0     H33073   7.779   5.327   5.053 -1.9280  1.0965 -1.1352
  245MOL0     H33074   7.079   5.578   5.281 -0.2024  0.6683 -1.6507
  245MOL0     H33075   6.840   5.643   5.280  1.9356 -0.3028  3.2920
  246MOL0     O33076   0.712   6.586   7.887 -0.1946  0.3448  0.5117
  246MOL0     C33077   0.761   6.701   7.885  0.0951  0.3243 -0.2568
  246MOL0     O33078   0.687   6.814   7.869  0.6153  0.1180  0.2530
  246MOL0     C33079   0.547   6.813   7.883 -0.3693  0.7812  0.3015
  246MOL0     C33080   0.452   6.794   7.783 -0.1459 -0.4499  0.1746
  246MOL0     C33081   0.320   6.818   7.804 -0.8024 -0.2718  0.3612
  246MOL0     C33082   0.270   6.865   7.930  0.5242  0.0749 -0.2077
  246MOL0     O33083   0.136   6.888   7.959  0.2269  0.3900  0.8428
  246MOL0     C33084   0.040   6.907   7.856 -0.3335  0.7072 -0.0052
  246MOL0     C33085  -0.088   6.975   7.922 -0.0915 -0.1541  0.3455
  246MOL0     C33086  -0.217   6.966   7.834 -0.5873 -0.1433  0.1905
  246MOL0     C33087  -0.327   7.069   7.872 -0.2912  0.7181 -1.0703
  246MOL0     C33088  -0.428   7.058   7.760 -0.7074  0.2652 -0.2256
  246MOL0     C33089  -0.563   7.106   7.803  0.3256  0.3304 -0.0816
  246MOL0     C33090  -0.659   7.077   7.697 -0.8783  0.0817 -0.3422
  246MOL0     C33091  -0.791   7.149   7.723  1.0015 -0.5719  0.7205
  246MOL0     N33092  -0.859   7.179   7.593 -0.7485  0.5426  0.0586
  246MOL0     C33093  -0.932   7.092   7.518 -0.8777 -0.0107 -1.3661
  246MOL0     C33094  -0.960   7.156   7.406 -0.7932 -0.6819  0.8606
  246MOL0     C33095  -1.044   7.104   7.284 -1.2532  0.6908  1.2747
  246MOL0     C33096  -1.167   7.020   7.341 -0.2441  0.8903  0.4925
  246MOL0     C33097  -1.250   7.102   7.437 -0.6327  0.2076 -0.0071
  246MOL0     C33098  -1.379   7.050   7.479 -0.1246 -0.1604 -0.2539
  246MOL0     O33099  -1.462   7.041   7.364  0.3285  0.2755 -0.1134
  246MOL0     C33100  -1.599   7.007   7.375  0.0487 -0.3083  0.4369
  246MOL0     C33101  -1.671   7.058   7.270 -0.0149  0.1006 -0.5768
  246MOL0     C33102  -1.806   7.028   7.259 -0.1825  0.8983 -0.1078
  246MOL0     C33103  -1.875   7.092   7.143 -0.6322 -0.1042  0.1794
  246MOL0     C33104  -1.871   6.965   7.371  0.0118  0.3016 -0.5777
  246MOL0     C33105  -2.016   6.941   7.380  0.3844 -0.5163 -0.9852
  246MOL0     O33106  -2.064   6.950   7.507  1.1573  0.6153  0.0574
  246MOL0     C33107  -2.203   6.937   7.524  0.1766 -0.8689  0.1644
  246MOL0     C33108  -2.289   7.040   7.473  0.3195  0.1932 -0.2307
  246MOL0     C33109  -2.423   7.033   7.498 -0.3037  0.3410  0.4727
  246MOL0     C33110  -2.480   6.932   7.579 -0.3686 -0.2494  0.2495
  246MOL0     O33111  -2.605   6.919   7.615  0.8331 -0.4473  0.2359
  246MOL0     C33112  -2.704   7.021   7.579 -0.1543  0.6892 -0.8937
  246MOL0     C33113  -2.840   6.966   7.624 -0.6622 -0.0021  0.0194
  246MOL0     C33114  -2.953   7.053   7.574  0.1875  0.4769 -1.0092
  246MOL0     C33115  -2.971   7.052   7.422 -0.5326  0.3921  0.3956
  246MOL0     C33116  -3.122   7.082   7.399 -0.0724 -0.3869  1.2821
  246MOL0     C33117  -3.133   7.099   7.243  0.0656 -0.9849 -0.2132
  246MOL0     C33118  -3.273   7.110   7.198  0.2929 -0.6044 -0.0575
  246MOL0     C33119  -3.350   6.983   7.200  0.6153 -0.8845 -0.0151
  246MOL0    Cl33120  -3.516   7.011   7.133 -0.3498 -0.2591 -0.1451
  246MOL0     C33121  -2.388   6.840   7.634  0.2861  0.7984 -0.2821
  246MOL0     C33122  -2.254   6.840   7.605 -0.7349 -0.1352  0.8975
  246MOL0     O33123  -2.073   6.900   7.282  0.4145 -0.0535 -0.2150
  246MOL0     C33124  -1.788   6.899   7.464  0.6342  0.7602 -0.1076
  246MOL0     C33125  -1.650   6.917   7.467  0.3922 -0.4481 -0.6371
  246MOL0     N33126  -0.915   7.285   7.417 -0.0246  0.5943 -0.1756
  246MOL0     N33127  -0.844   7.287   7.523  0.8991  0.2343  0.3455
  246MOL0     C33128   0.372   6.884   8.034  0.2034 -0.2630 -0.1309
  246MOL0     C33129   0.505   6.866   8.004  0.4467  0.3836 -0.3782
  246MOL0     C33130   0.910   6.722   7.904 -0.1385 -0.5743  0.0196
  246MOL0     C33131   1.000   6.620   7.880 -0.3265  0.3169  0.4188
  246MOL0     C33132   1.138   6.649   7.874  0.2284 -0.2713 -0.8480
  246MOL0     C33133   1.187   6.780   7.904 -1.0144  0.7934 -0.2877
  246MOL0     O33134   1.328   6.793   7.906  0.6624 -0.3564 -0.2917
  246MOL0     C33135   1.388   6.911   7.863 -0.6022 -0.2087  0.5138
  246MOL0     C33136   1.530   6.868   7.817 -0.3818 -0.7690  0.0987
  246MOL0     C33137   1.521   6.796   7.685 -0.9359 -0.0543  0.6198
  246MOL0     C33138   1.626   6.688   7.668 -0.6302 -0.0678 -0.4386
  246MOL0     C33139   1.767   6.726   7.718  1.9558  0.8716  0.5680
  246MOL0     C33140   1.874   6.752   7.769 -0.7244 -0.1976 -0.0496
  246MOL0     C33141   1.098   6.880   7.931 -0.4445  0.1340 -1.4544
  246MOL0     C33142   0.957   6.854   7.937 -0.6724 -0.9762  0.4291
  246MOL0     H33143   0.496   6.753   7.693  0.4242  0.2396  0.1309
  246MOL0     H33144   0.252   6.781   7.729 -1.6156  0.7102  0.5887
  246MOL0     H33145   0.091   6.962   7.777  1.5052 -1.6149 -0.5234
  246MOL0     H33146   0.014   6.804   7.829  0.6366  0.1116  1.2270
  246MOL0     H33147  -0.099   6.916   8.014 -0.1158 -1.0384 -0.2103
  246MOL0     H33148  -0.080   7.082   7.944  0.3168  0.0164 -0.6005
  246MOL0     H33149  -0.187   6.972   7.729  0.8561 -0.5804  0.5526
  246MOL0     H33150  -0.260   6.867   7.854 -1.3424 -0.3418 -2.1148
  246MOL0     H33151  -0.358   7.038   7.972 -1.5187 -1.2800 -2.0043
  246MOL0     H33152  -0.303   7.175   7.877 -0.6596  0.7666 -0.0289
  246MOL0     H33153  -0.388   7.107   7.671  0.2602 -0.4278 -0.1921
  246MOL0     H33154  -0.438   6.952   7.734 -0.0812  0.4696 -1.3068
  246MOL0     H33155  -0.593   7.060   7.898 -2.6261  2.0997 -0.0135
  246MOL0     H33156  -0.562   7.214   7.820  1.2152  0.1649  1.0452
  246MOL0     H33157  -0.622   7.116   7.602  0.0389 -0.9497 -0.4222
  246MOL0     H33158  -0.678   6.970   7.684 -0.3044  0.2030 -2.6984
  246MOL0     H33159  -0.776   7.248   7.767  1.2924  0.3174 -1.2860
  246MOL0     H33160  -0.846   7.087   7.794  3.9800 -0.3522  3.4053
  246MOL0     H33161  -0.955   6.992   7.554 -0.8813  1.1194  2.1381
  246MOL0     H33162  -1.073   7.189   7.223  0.4367  1.8519  1.9978
  246MOL0     H33163  -0.977   7.040   7.226 -1.5069  0.0744  1.6473
  246MOL0     H33164  -1.127   6.932   7.392  1.4088 -0.0803 -2.2569
  246MOL0     H33165  -1.234   6.994   7.259  1.6557 -2.1923 -0.2550
  246MOL0     H33166  -1.276   7.197   7.389  1.3529  1.4653  1.2452
  246MOL0     H33167  -1.198   7.133   7.528 -3.2796 -1.7740  2.3633
  246MOL0     H33168  -1.421   7.122   7.550 -0.6987 -0.0620 -0.6882
  246MOL0     H33169  -1.361   6.952   7.523  0.6478  0.4204  0.7811
  246MOL0     H33170  -1.619   7.111   7.190 -0.4177 -3.2470 -3.3111
  246MOL0     H33171  -1.873   7.201   7.150  1.1343  0.0993 -2.2649
  246MOL0     H33172  -1.818   7.085   7.050 -0.6472  3.9981 -0.3595
  246MOL0     H33173  -1.972   7.045   7.124 -0.0460 -1.6013  0.7260
  246MOL0     H33174  -2.244   7.123   7.422 -1.4227  1.3780  0.0763
  246MOL0     H33175  -2.483   7.107   7.445  1.2226 -0.8961 -3.3140
  246MOL0     H33176  -2.674   7.114   7.628 -1.3808  1.5449 -1.7018
  246MOL0     H33177  -2.708   7.038   7.471 -2.2522  2.1079 -0.6526
  246MOL0     H33178  -2.836   6.868   7.575  0.5059  0.2755 -0.5022
  246MOL0     H33179  -2.852   6.945   7.730 -0.5310 -0.7694 -0.1084
  246MOL0     H33180  -2.943   7.156   7.609  0.6408  0.4476 -1.0451
  246MOL0     H33181  -3.045   7.015   7.621  0.1830  0.6714 -0.8602
  246MOL0     H33182  -2.922   7.138   7.375 -1.0594  0.6085  0.2427
  246MOL0     H33183  -2.932   6.962   7.374  1.1830  2.3111 -2.0898
  246MOL0     H33184  -3.152   7.166   7.463 -1.5959 -0.6110  0.9113
  246MOL0     H33185  -3.184   6.994   7.419 -0.0421 -1.1114 -1.4269
  246MOL0     H33186  -3.077   7.186   7.208  1.6933 -0.8967  2.3710
  246MOL0     H33187  -3.070   7.025   7.193 -0.1178 -1.2645 -0.0359
  246MOL0     H33188  -3.274   7.138   7.092  1.4694 -1.5564 -0.3438
  246MOL0     H33189  -3.320   7.195   7.249  0.7600 -0.8134  0.7216
  246MOL0     H33190  -3.352   6.932   7.297  0.4967 -0.2268  0.3327
  246MOL0     H33191  -3.307   6.913   7.127  1.4351  0.3095 -0.6985
  246MOL0     H33192  -2.435   6.764   7.696  0.5448  0.3432 -0.6327
  246MOL0     H33193  -2.190   6.758   7.639  1.6249  1.0410 -0.4383
  246MOL0     H33194  -1.835   6.830   7.533  1.8411 -3.2644 -2.9178
  246MOL0     H33195  -1.602   6.848   7.536 -1.8242 -0.2246  1.2400
  246MOL0     H33196   0.339   6.925   8.128 -1.0516  0.3970 -0.8289
  246MOL0     H33197   0.575   6.887   8.085 -0.3628  1.7668 -0.0173
  246MOL0     H33198   0.958   6.520   7.875 -1.0333  0.4179  2.9503
  246MOL0     H33199   1.217   6.579   7.851 -1.2439 -1.6450 -1.9370
  246MOL0     H33200   1.320   6.954   7.789  1.4391 -0.1239 -1.4323
  246MOL0     H33201   1.396   6.977   7.949  2.7115  2.8317 -1.8177
  246MOL0     H33202   1.566   6.800   7.895 -1.8432 -0.2045  1.3193
  246MOL0     H33203   1.594   6.957   7.806 -0.8476 -0.6663 -2.4059
  246MOL0     H33204   1.520   6.869   7.603  1.2726 -0.7944 -0.1311
  246MOL0     H33205   1.419   6.756   7.685 -1.5121  1.2593  2.5094
  246MOL0     H33206   1.631   6.669   7.560 -0.0651 -0.0224 -0.4192
  246MOL0     H33207   1.596   6.602   7.729 -2.4232 -0.3728 -1.6550
  246MOL0     H33208   1.968   6.758   7.820 -1.4979  1.1013  1.2874
  246MOL0     H33209   1.137   6.975   7.966 -0.1141 -0.9395  1.2611
  246MOL0     H33210   0.899   6.942   7.961 -0.3031 -0.1905 -1.3514
  247MOL0     O33211   1.110   6.441   3.537 -0.3579 -0.6918  0.0976
  247MOL0     C33212   1.139   6.380   3.641  0.8160  0.8438  0.4663
  247MOL0     O33213   1.059   6.287   3.704  0.8215  0.1544  0.3318
  247MOL0     C33214   0.933   6.253   3.653 -0.7908 -0.0985  0.0592
  247MOL0     C33215   0.891   6.269   3.524 -0.7499  0.4076 -0.1939
  247MOL0     C33216   0.757   6.251   3.496  0.4117  0.7904 -0.5187
  247MOL0     C33217   0.662   6.217   3.601 -0.7531  0.7655 -0.4663
  247MOL0     O33218   0.532   6.192   3.563  0.5180 -0.0685 -0.2748
  247MOL0     C33219   0.468   6.080   3.623  0.9445  0.5517  0.6238
  247MOL0     C33220   0.487   5.962   3.538  0.3007  0.0582 -0.2451
  247MOL0     C33221   0.401   5.836   3.578  0.0890  0.2791 -0.2615
  247MOL0     C33222   0.260   5.852   3.522 -0.3361 -1.0720 -0.7359
  247MOL0     C33223   0.162   5.747   3.575  0.6956  0.1504  0.0860
  247MOL0     C33224   0.016   5.775   3.513 -0.4443 -0.2812 -0.6535
  247MOL0     C33225  -0.081   5.662   3.553 -0.9478 -0.3763  0.6852
  247MOL0     C33226  -0.091   5.644   3.704  0.7444  0.3235 -0.5774
  247MOL0     N33227  -0.232   5.629   3.747  0.0973  0.2167 -0.6266
  247MOL0     C33228  -0.293   5.505   3.789  0.6727  0.5553  0.0777
  247MOL0     C33229  -0.420   5.542   3.825  0.0476  0.3237 -0.6028
  247MOL0     C33230  -0.526   5.452   3.876  0.0205 -0.5156  0.3684
  247MOL0     C33231  -0.599   5.382   3.759  0.4600 -0.4142 -0.3437
  247MOL0     C33232  -0.672   5.485   3.663  0.0569 -0.3834 -0.4030
  247MOL0     C33233  -0.794   5.559   3.711 -0.7848 -0.6913 -0.3232
  247MOL0     O33234  -0.889   5.457   3.758  0.0584  0.0181 -0.1105
  247MOL0     C33235  -1.012   5.498   3.798  0.3362  0.6022  0.8665
  247MOL0     C33236  -1.109   5.397   3.799 -0.9439  0.9767  0.6095
  247MOL0     C33237  -1.244   5.429   3.818  0.4168 -0.0193  0.2988
  247MOL0     C33238  -1.329   5.314   3.864 -0.3941  0.0049 -0.0486
  247MOL0     C33239  -1.286   5.567   3.829 -0.5047 -0.0686 -0.0608
  247MOL0     C33240  -1.417   5.608   3.870  0.9098  0.1619 -0.0180
  247MOL0     O33241  -1.456   5.727   3.829 -0.2622 -0.5480 -0.2123
  247MOL0     C33242  -1.583   5.773   3.871 -0.0280 -0.3020  0.5049
  247MOL0     C33243  -1.707   5.691   3.858 -0.1683 -0.5132 -0.6494
  247MOL0     C33244  -1.826   5.751   3.900 -0.4442  0.7622  0.4699
  247MOL0     C33245  -1.835   5.880   3.952  0.5074 -0.1165  0.1949
  247MOL0     O33246  -1.963   5.929   3.986  0.0622  0.1513  0.0417
  247MOL0     C33247  -1.962   6.064   4.029  0.6438 -0.2818  0.2299
  247MOL0     C33248  -2.104   6.117   4.056  0.3635 -0.6306  0.7509
  247MOL0     C33249  -2.173   6.038   4.172  0.1182 -0.0269 -0.0744
  247MOL0     C33250  -2.327   6.041   4.167 -0.8502  0.3419 -0.0448
  247MOL0     C33251  -2.397   5.911   4.106 -0.0881  0.6533  0.7090
  247MOL0     C33252  -2.552   5.912   4.117  0.3486 -0.4899 -0.4415
  247MOL0     C33253  -2.609   5.778   4.090 -0.3322  0.2615 -0.5262
  247MOL0     C33254  -2.764   5.781   4.082 -0.0137  0.3723  0.8656
  247MOL0    Cl33255  -2.826   5.614   4.052  0.3096  0.5148  0.3494
  247MOL0     C33256  -1.717   5.957   3.969  0.4988 -0.3357  0.5681
  247MOL0     C33257  -1.597   5.896   3.932 -0.2021 -0.0343 -0.2436
  247MOL0     O33258  -1.477   5.539   3.941 -0.2442 -0.2352  0.7241
  247MOL0     C33259  -1.186   5.667   3.828 -0.4701 -0.5390 -0.3169
  247MOL0     C33260  -1.052   5.629   3.804 -0.4871  0.3887  0.2793
  247MOL0     N33261  -0.433   5.677   3.799  0.0507  0.0220 -0.0103
  247MOL0     N33262  -0.326   5.725   3.748  0.8810 -0.4032 -0.0885
  247MOL0     C33263   0.710   6.217   3.733  0.0551  0.3202  0.4629
  247MOL0     C33264   0.843   6.218   3.752  0.0037 -0.5563  0.4938
  247MOL0     C33265   1.280   6.403   3.698 -0.1024  0.2450 -0.9351
  247MOL0     C33266   1.364   6.509   3.662 -0.4158  0.2217 -0.0382
  247MOL0     C33267   1.490   6.529   3.719  0.2207  0.1836  0.6972
  247MOL0     C33268   1.543   6.435   3.810 -0.3231  0.1673  0.1052
  247MOL0     O33269   1.664   6.460   3.859 -0.8799  0.0398 -0.2378
  247MOL0     C33270   1.733   6.362   3.931 -0.0319  0.5021 -0.0863
  247MOL0     C33271   1.883   6.389   3.953 -0.7736 -0.6182 -0.1452
  247MOL0     C33272   1.912   6.495   4.058  0.0176  0.0340 -0.4109
  247MOL0     C33273   2.064   6.490   4.109  0.3185 -0.8611 -0.0783
  247MOL0     C33274   2.156   6.504   3.994  0.2365  0.6390  0.1510
  247MOL0     C33275   2.223   6.524   3.900 -0.0483 -0.6214 -0.1182
  247MOL0     C33276   1.462   6.322   3.835  0.3076 -0.0584 -0.0184
  247MOL0     C33277   1.329   6.305   3.793  0.7193  0.0434  0.0347
  247MOL0     H33278   0.961   6.282   3.442 -1.5230 -2.6146 -1.4687
  247MOL0     H33279   0.712   6.257   3.398 -1.2347  0.1039  0.1530
  247MOL0     H33280   0.493   6.058   3.727  2.5059 -0.2080  0.1115
  247MOL0     H33281   0.363   6.110   3.618  0.5665 -0.9688 -1.6076
  247MOL0     H33282   0.457   5.989   3.436 -7.0066  0.5662  1.4479
  247MOL0     H33283   0.593   5.935   3.533  0.1535 -0.3263 -2.0856
  247MOL0     H33284   0.435   5.741   3.535 -0.1104 -0.3926  1.0048
  247MOL0     H33285   0.399   5.826   3.687  4.6063  0.2254 -0.0320
  247MOL0     H33286   0.220   5.949   3.549 -1.8618 -1.8836  0.0369
  247MOL0     H33287   0.264   5.843   3.413  0.3202  1.7773 -1.0170
  247MOL0     H33288   0.195   5.647   3.545  0.6221  0.1542 -0.0096
  247MOL0     H33289   0.157   5.761   3.683 -1.9973 -0.1546  0.0699
  247MOL0     H33290  -0.009   5.869   3.563  2.5832  1.1344 -1.5067
  247MOL0     H33291   0.019   5.789   3.405  2.4622 -0.6697 -0.7261
  247MOL0     H33292  -0.174   5.697   3.507 -0.1826 -0.2734 -0.8513
  247MOL0     H33293  -0.045   5.572   3.503  1.2854 -0.0930  1.6671
  247MOL0     H33294  -0.066   5.739   3.752  0.4630 -0.3198  0.8965
  247MOL0     H33295  -0.022   5.567   3.739 -0.7757 -0.5969  0.5022
  247MOL0     H33296  -0.253   5.405   3.791  0.3264  0.4255  1.5999
  247MOL0     H33297  -0.494   5.375   3.947 -1.5931 -1.7089 -0.1371
  247MOL0     H33298  -0.600   5.523   3.915 -1.0977 -0.4348 -1.7284
  247MOL0     H33299  -0.677   5.315   3.799 -0.5054  1.0622  0.3479
  247MOL0     H33300  -0.531   5.316   3.706  0.6109  0.2472 -0.9821
  247MOL0     H33301  -0.706   5.416   3.585 -1.5675 -2.3378  1.8918
  247MOL0     H33302  -0.596   5.549   3.615  0.2439  0.5434  1.0760
  247MOL0     H33303  -0.839   5.621   3.632  1.3266  1.0341 -0.2607
  247MOL0     H33304  -0.754   5.621   3.791 -0.3092 -2.3375  0.7481
  247MOL0     H33305  -1.065   5.299   3.788 -0.1109  1.4154 -0.0836
  247MOL0     H33306  -1.418   5.302   3.801 -1.7047  0.5006  1.6264
  247MOL0     H33307  -1.263   5.227   3.857  2.4493  1.7807  2.2193
  247MOL0     H33308  -1.365   5.334   3.965  0.7953 -0.9229  0.5800
  247MOL0     H33309  -1.730   5.601   3.803 -3.2165 -3.3307  4.5030
  247MOL0     H33310  -1.911   5.684   3.900  1.4541 -1.7901  0.1960
  247MOL0     H33311  -1.903   6.082   4.120  0.0261  2.9854  0.1030
  247MOL0     H33312  -1.913   6.120   3.950  1.2839 -2.1151 -0.7200
  247MOL0     H33313  -2.105   6.225   4.068 -0.0861 -0.6437  0.8576
  247MOL0     H33314  -2.165   6.095   3.968  1.0206 -2.4593  0.6944
  247MOL0     H33315  -2.150   6.092   4.264 -2.7999  1.8943 -0.3224
  247MOL0     H33316  -2.130   5.938   4.179  0.0419  0.0383  1.5924
  247MOL0     H33317  -2.365   6.056   4.268 -2.7462  1.5220 -0.8683
  247MOL0     H33318  -2.363   6.125   4.107  3.9982  2.7069 -0.1671
  247MOL0     H33319  -2.358   5.825   4.160  0.8979 -0.8055 -2.0874
  247MOL0     H33320  -2.353   5.902   4.006  0.2737  3.1285  0.5871
  247MOL0     H33321  -2.577   5.945   4.218 -1.3412  1.4848 -1.4266
  247MOL0     H33322  -2.601   5.984   4.050 -0.5784 -1.1420 -0.4814
  247MOL0     H33323  -2.573   5.702   4.160 -0.1090  0.0522 -0.8640
  247MOL0     H33324  -2.579   5.748   3.989 -2.9135 -2.3237 -0.6504
  247MOL0     H33325  -2.813   5.855   4.018  1.9622 -0.7116 -2.1439
  247MOL0     H33326  -2.801   5.809   4.181 -2.4445  0.0713  0.1076
  247MOL0     H33327  -1.711   6.061   4.001  2.2821  0.6097 -2.4162
  247MOL0     H33328  -1.509   5.960   3.941  0.0200 -0.5245  1.5509
  247MOL0     H33329  -1.199   5.775   3.829 -0.1319 -0.4311 -2.4340
  247MOL0     H33330  -0.980   5.710   3.800 -1.0577  0.8861 -0.1105
  247MOL0     H33331   0.643   6.196   3.816  1.2521  0.6982  1.5547
  247MOL0     H33332   0.879   6.212   3.854 -1.9621  1.2947  1.3840
  247MOL0     H33333   1.331   6.580   3.587 -1.6360 -0.2989 -0.0225
  247MOL0     H33334   1.554   6.614   3.697  0.0841  0.1093 -0.0011
  247MOL0     H33335   1.693   6.332   4.028 -1.9595 -2.8505 -1.7361
  247MOL0     H33336   1.730   6.274   3.866 -1.0249  1.7854 -1.8696
  247MOL0     H33337   1.927   6.414   3.856 -2.0698 -0.6383 -0.7609
  247MOL0     H33338   1.929   6.295   3.983 -0.3408 -0.3848 -0.0729
  247MOL0     H33339   1.846   6.485   4.144  0.5412 -0.6712 -0.0786
  247MOL0     H33340   1.899   6.591   4.007  2.4873 -0.3233 -1.9108
  247MOL0     H33341   2.096   6.394   4.150  5.1546  0.2612 -0.5140
  247MOL0     H33342   2.066   6.577   4.176 -1.2705  0.4557 -1.6469
  247MOL0     H33343   2.282   6.548   3.814  1.5292 -0.8874  0.8671
  247MOL0     H33344   1.500   6.257   3.913  4.4279  2.0667  0.0269
  247MOL0     H33345   1.273   6.217   3.824  1.8843 -0.4206  0.9109
  248MOL0     O33346  10.404   5.082  10.811  0.2677  0.1064  0.4448
  248MOL0     C33347  10.405   5.010  10.914 -0.3262  0.2410  0.1430
  248MOL0     O33348  10.354   4.887  10.919  0.3653 -1.1911 -0.2348
  248MOL0     C33349  10.269   4.849  10.817  0.0833  0.0162 -0.4272
  248MOL0     C33350  10.136   4.896  10.820 -0.2450  0.9091 -0.0336
  248MOL0     C33351  10.049   4.869  10.716  0.1264  0.6980  0.1989
  248MOL0     C33352  10.098   4.802  10.604  0.3660 -0.2693  0.6513
  248MOL0     O33353  10.024   4.775  10.492 -0.3258 -0.1936 -0.1991
  248MOL0     C33354   9.896   4.826  10.473 -0.3533  0.1257  0.1400
  248MOL0     C33355   9.831   4.721  10.377 -0.4464 -0.0214 -0.4607
  248MOL0     C33356   9.681   4.749  10.347 -0.1004  0.9768  0.7371
  248MOL0     C33357   9.606   4.653  10.256 -0.0216 -0.5809  0.0165
  248MOL0     C33358   9.588   4.714  10.117  0.3031 -1.0974  0.1151
  248MOL0     C33359   9.521   4.617  10.021  0.2881 -0.2109  0.0226
  248MOL0     C33360   9.433   4.677   9.913  0.1509  0.6411 -0.8895
  248MOL0     C33361   9.294   4.715   9.969 -0.3531 -0.6172 -0.0336
  248MOL0     N33362   9.209   4.603   9.987 -0.3761  0.3511  0.5047
  248MOL0     C33363   9.102   4.614  10.075  0.2689  0.3971  0.0540
  248MOL0     C33364   9.031   4.505  10.037 -0.2158  0.6608 -0.7322
  248MOL0     C33365   8.920   4.445  10.123  1.1121  0.3198 -0.4413
  248MOL0     C33366   8.791   4.456  10.045  0.2277 -0.6958  0.6422
  248MOL0     C33367   8.677   4.388  10.124  0.6617  0.3479  0.7383
  248MOL0     C33368   8.534   4.382  10.060 -0.6918  0.9024  0.3046
  248MOL0     O33369   8.551   4.323   9.926  0.2655  0.4384  0.1243
  248MOL0     C33370   8.461   4.358   9.825  0.5205 -0.3839 -0.9285
  248MOL0     C33371   8.327   4.381   9.848  0.3126  0.0710  0.5736
  248MOL0     C33372   8.233   4.409   9.753 -0.2193 -0.0723 -0.0817
  248MOL0     C33373   8.091   4.423   9.798 -0.8411 -0.4408 -0.2337
  248MOL0     C33374   8.278   4.420   9.611 -1.5739 -0.2858 -0.2031
  248MOL0     C33375   8.189   4.447   9.499 -1.0811 -0.5139  0.4366
  248MOL0     O33376   8.245   4.451   9.366 -0.0429 -0.6426  0.1986
  248MOL0     C33377   8.164   4.474   9.265  0.3339  0.7835  0.0653
  248MOL0     C33378   8.138   4.612   9.218 -0.2426  0.5983  0.0592
  248MOL0     C33379   8.079   4.629   9.093 -0.6543  1.1466  0.0580
  248MOL0     C33380   8.010   4.520   9.031  0.5912 -0.9440  0.2407
  248MOL0     O33381   7.924   4.527   8.925  0.6392  0.2332  0.7321
  248MOL0     C33382   7.907   4.656   8.865  0.0089 -0.1881  0.5940
  248MOL0     C33383   7.809   4.646   8.741 -0.0041  0.0526 -0.8287
  248MOL0     C33384   7.672   4.612   8.784 -0.0020  0.0583  0.0608
  248MOL0     C33385   7.576   4.579   8.661 -1.2194  1.0222  0.8656
  248MOL0     C33386   7.469   4.494   8.706  0.5840  0.5830  0.4069
  248MOL0     C33387   7.366   4.478   8.588  0.5592 -0.1155  0.8638
  248MOL0     C33388   7.265   4.378   8.649 -0.3230 -0.1920 -0.2530
  248MOL0     C33389   7.158   4.331   8.554  0.4632 -1.0900 -0.0269
  248MOL0    Cl33390   7.060   4.486   8.521  0.2244  0.1949  0.0085
  248MOL0     C33391   8.027   4.391   9.085  0.3325  0.0672 -0.4082
  248MOL0     C33392   8.101   4.366   9.195 -0.0727  0.5926  0.5072
  248MOL0     O33393   8.072   4.476   9.520  0.2055  0.5244 -0.0657
  248MOL0     C33394   8.421   4.404   9.590 -0.2335  0.7210  0.2629
  248MOL0     C33395   8.503   4.370   9.696  0.1280  0.3577  0.6778
  248MOL0     N33396   9.079   4.438   9.925 -0.3751  0.4229 -0.3754
  248MOL0     N33397   9.186   4.505   9.894 -0.4922  0.0582 -0.5446
  248MOL0     C33398  10.227   4.767  10.593 -0.0654 -0.4422  0.1414
  248MOL0     C33399  10.315   4.784  10.698 -1.0911 -0.1030  0.1298
  248MOL0     C33400  10.458   5.067  11.043 -0.0279  1.2937  0.0047
  248MOL0     C33401  10.477   4.982  11.156  0.4364  0.2771 -0.6647
  248MOL0     C33402  10.509   5.035  11.286 -0.8763  0.2894  0.3401
  248MOL0     C33403  10.523   5.175  11.297  0.2844  1.1401  0.2749
  248MOL0     O33404  10.553   5.241  11.409  0.9965  0.4549 -0.2071
  248MOL0     C33405  10.460   5.225  11.517  0.6734 -0.0690  0.6552
  248MOL0     C33406  10.515   5.294  11.637 -0.4538 -0.6878 -0.6590
  248MOL0     C33407  10.407   5.282  11.750  0.1992  0.9197  0.4165
  248MOL0     C33408  10.451   5.363  11.878 -0.4050  0.0445  0.7281
  248MOL0     C33409  10.469   5.505  11.843  0.0395  0.4611  0.1214
  248MOL0     C33410  10.477   5.626  11.821 -0.8604  0.1765 -0.3603
  248MOL0     C33411  10.512   5.251  11.177 -0.0123 -0.5048  0.8285
  248MOL0     C33412  10.475   5.201  11.053 -0.5312  0.7520 -0.0542
  248MOL0     H33413  10.103   4.938  10.914  1.8298 -0.9562  1.6317
  248MOL0     H33414   9.948   4.908  10.722 -0.8670 -1.5174 -0.9658
  248MOL0     H33415   9.841   4.841  10.566  1.9506 -0.9663  1.7689
  248MOL0     H33416   9.900   4.918  10.413  1.0342 -0.9490 -1.5163
  248MOL0     H33417   9.896   4.704  10.291  1.8490 -0.7963  1.3011
  248MOL0     H33418   9.828   4.626  10.433 -0.0636  1.4197  2.1817
  248MOL0     H33419   9.633   4.730  10.443  1.7742 -0.2796  1.4920
  248MOL0     H33420   9.670   4.853  10.315 -0.6049  0.0725 -2.3800
  248MOL0     H33421   9.667   4.563  10.243 -0.6717 -1.4518  2.4275
  248MOL0     H33422   9.507   4.624  10.291  0.4569 -3.8348 -0.9457
  248MOL0     H33423   9.524   4.799  10.144  4.8295  2.5566  0.6724
  248MOL0     H33424   9.681   4.753  10.076 -0.2462 -0.6953 -0.7758
  248MOL0     H33425   9.599   4.564   9.965 -1.8883  0.0568 -3.5426
  248MOL0     H33426   9.473   4.533  10.071 -1.4683  1.3313  1.0391
  248MOL0     H33427   9.492   4.766   9.890  2.7197 -0.4659  0.9142
  248MOL0     H33428   9.416   4.616   9.824 -0.5241 -0.3731 -0.0900
  248MOL0     H33429   9.250   4.774   9.888  3.4332  0.5440 -1.4607
  248MOL0     H33430   9.293   4.783  10.055 -3.6372 -1.1339  0.4610
  248MOL0     H33431   9.086   4.688  10.153  2.9884  0.8533  0.2729
  248MOL0     H33432   8.956   4.345  10.152  0.5678  0.3289  0.3051
  248MOL0     H33433   8.892   4.507  10.209 -3.4069 -0.5715 -1.0053
  248MOL0     H33434   8.798   4.408   9.947 -0.7879  2.6857 -1.2561
  248MOL0     H33435   8.767   4.560  10.022  1.4782 -0.8334 -1.6602
  248MOL0     H33436   8.661   4.432  10.223 -0.2648  0.2637  0.6347
  248MOL0     H33437   8.715   4.286  10.137  0.8759  0.3519  0.1830
  248MOL0     H33438   8.499   4.485  10.044 -1.1140  0.5339 -1.3440
  248MOL0     H33439   8.462   4.325  10.119  1.3616 -0.5498  1.5149
  248MOL0     H33440   8.278   4.379   9.944 -2.0393  3.1802 -0.4022
  248MOL0     H33441   8.036   4.331   9.773 -2.0636  0.5117 -1.1531
  248MOL0     H33442   8.077   4.430   9.906 -1.8565  0.3417 -0.4022
  248MOL0     H33443   8.043   4.512   9.757  3.3885  1.5050 -1.5214
  248MOL0     H33444   8.198   4.691   9.262  0.5875  1.3224 -2.2114
  248MOL0     H33445   8.087   4.728   9.048  1.2510  1.6812  1.4589
  248MOL0     H33446   7.871   4.732   8.935 -3.3781  0.3881 -1.5626
  248MOL0     H33447   8.008   4.683   8.833  0.5442 -1.6136  1.0217
  248MOL0     H33448   7.817   4.737   8.682  1.3074  0.3451 -0.2401
  248MOL0     H33449   7.833   4.556   8.683 -2.8462 -0.9153 -0.6738
  248MOL0     H33450   7.630   4.698   8.838  0.7807  0.4324  0.0828
  248MOL0     H33451   7.678   4.533   8.859 -1.0774  0.1251  0.2376
  248MOL0     H33452   7.541   4.677   8.627  0.8771  2.4606  2.5608
  248MOL0     H33453   7.624   4.519   8.583 -3.0450 -1.9648  1.9009
  248MOL0     H33454   7.419   4.530   8.796  1.8009 -1.6131  2.0699
  248MOL0     H33455   7.521   4.401   8.733  1.7884  0.3327 -2.4080
  248MOL0     H33456   7.316   4.574   8.574 -0.8459 -0.8363  0.7992
  248MOL0     H33457   7.415   4.433   8.501  1.7511 -3.5552  3.0929
  248MOL0     H33458   7.221   4.422   8.739  2.9098  1.5035  0.6486
  248MOL0     H33459   7.328   4.289   8.666  3.1929  1.9912 -0.7519
  248MOL0     H33460   7.084   4.269   8.606 -2.8696  3.2543  1.0127
  248MOL0     H33461   7.192   4.280   8.463 -0.2732 -3.8783  1.1472
  248MOL0     H33462   7.978   4.305   9.041 -1.3525  0.7122  0.1253
  248MOL0     H33463   8.119   4.263   9.225 -0.1356  0.2991 -0.4266
  248MOL0     H33464   8.467   4.407   9.492 -1.2764 -1.9465 -0.3981
  248MOL0     H33465   8.608   4.370   9.670 -0.4117  2.4508 -1.9271
  248MOL0     H33466  10.257   4.731  10.495 -0.9040  0.1694 -0.3390
  248MOL0     H33467  10.418   4.754  10.684 -1.1358  1.2089 -6.4408
  248MOL0     H33468  10.465   4.875  11.146  0.4818  0.2989 -0.9677
  248MOL0     H33469  10.514   4.977  11.377 -0.0219 -0.7607 -0.3464
  248MOL0     H33470  10.368   5.278  11.487 -0.0661 -0.9672  1.2828
  248MOL0     H33471  10.442   5.121  11.546  2.9458 -0.8097 -0.3793
  248MOL0     H33472  10.517   5.397  11.603 -2.6379  0.0954  1.2741
  248MOL0     H33473  10.610   5.253  11.671 -0.0221  2.0239  1.8164
  248MOL0     H33474  10.385   5.184  11.793 -0.1458  0.4276 -0.8389
  248MOL0     H33475  10.311   5.323  11.717 -0.9773 -2.4648 -0.8073
  248MOL0     H33476  10.545   5.330  11.923  0.4065  2.0676  0.6025
  248MOL0     H33477  10.363   5.346  11.940 -2.9752  1.0952 -2.3453
  248MOL0     H33478  10.477   5.732  11.807  3.6233  0.3139 -0.5951
  248MOL0     H33479  10.520   5.359  11.175 -0.7131 -0.4486 -0.9349
  248MOL0     H33480  10.466   5.272  10.971 -0.2121  1.8443  0.8240
  249MOL0     O33481   3.543   1.293   2.617 -0.8167  0.5422 -0.6596
  249MOL0     C33482   3.555   1.365   2.712 -0.3606  0.5545  0.2666
  249MOL0     O33483   3.450   1.411   2.783 -0.2666 -0.3247 -0.3703
  249MOL0     C33484   3.311   1.386   2.763 -0.5174  0.6007 -0.3691
  249MOL0     C33485   3.251   1.295   2.673  0.1772 -0.1186  0.3376
  249MOL0     C33486   3.114   1.299   2.660  0.1115 -1.0339  0.1482
  249MOL0     C33487   3.027   1.385   2.724  0.7178 -0.2682 -0.1981
  249MOL0     O33488   2.891   1.378   2.716  0.1149  0.7622  0.5907
  249MOL0     C33489   2.799   1.482   2.771  0.4132  0.0735  0.7164
  249MOL0     C33490   2.655   1.439   2.735  0.3827 -1.2453  0.9794
  249MOL0     C33491   2.613   1.318   2.808 -0.7166  0.2850 -0.4986
  249MOL0     C33492   2.476   1.257   2.779 -0.5601 -0.7633  0.2114
  249MOL0     C33493   2.450   1.123   2.846  0.3990  0.2004  0.2818
  249MOL0     C33494   2.307   1.077   2.805  0.2666 -0.0117 -0.2591
  249MOL0     C33495   2.294   0.936   2.863 -0.5886 -0.6893 -0.0789
  249MOL0     C33496   2.159   0.874   2.831  0.6389 -0.5210  0.1001
  249MOL0     N33497   2.076   0.834   2.948 -0.4214  0.0817 -0.7325
  249MOL0     C33498   1.939   0.846   2.947 -0.3880  0.2502  0.1354
  249MOL0     C33499   1.905   0.814   3.076  0.0079 -0.6374 -0.3485
  249MOL0     C33500   1.767   0.808   3.140 -0.1573 -0.2634 -0.3080
  249MOL0     C33501   1.661   0.805   3.032  0.4290  0.4409 -0.0906
  249MOL0     C33502   1.540   0.724   3.073  0.7087  0.2684  0.2335
  249MOL0     C33503   1.437   0.716   2.962 -0.5690  0.0217  0.2716
  249MOL0     O33504   1.388   0.850   2.934 -0.0464  0.1604  0.1719
  249MOL0     C33505   1.295   0.869   2.835  0.8031  0.4534  0.0403
  249MOL0     C33506   1.253   0.767   2.746  0.2753  0.2644 -0.9937
  249MOL0     C33507   1.178   0.793   2.627  0.3180 -0.7550  0.5486
  249MOL0     C33508   1.158   0.687   2.526 -0.8509  0.4554 -0.4832
  249MOL0     C33509   1.137   0.929   2.606  0.4612  0.7125  0.3011
  249MOL0     C33510   1.037   0.966   2.490 -0.0743  0.0819 -0.4451
  249MOL0     O33511   0.988   1.089   2.493  0.4269 -0.3905 -0.3451
  249MOL0     C33512   0.872   1.117   2.427 -0.0736  0.1173  0.0061
  249MOL0     C33513   0.778   1.179   2.510  0.3380 -0.0499  0.2028
  249MOL0     C33514   0.661   1.223   2.455 -0.0995 -0.1637 -0.3667
  249MOL0     C33515   0.627   1.213   2.316 -0.8168 -0.0751  0.0993
  249MOL0     O33516   0.516   1.270   2.259 -0.3985  0.3253  0.1692
  249MOL0     C33517   0.393   1.251   2.321  0.9070 -0.3247  0.2103
  249MOL0     C33518   0.277   1.328   2.254 -0.3554 -0.0755 -0.0122
  249MOL0     C33519   0.150   1.303   2.332  0.2336 -0.3888 -0.3267
  249MOL0     C33520   0.026   1.383   2.293 -0.0803 -0.0348 -0.0722
  249MOL0     C33521  -0.004   1.353   2.146 -0.6213 -0.3787 -0.0494
  249MOL0     C33522  -0.136   1.426   2.098  0.0823  0.3394  0.5014
  249MOL0     C33523  -0.166   1.396   1.949 -0.1630  0.1707 -0.0298
  249MOL0     C33524  -0.284   1.481   1.901 -0.7752  0.4330 -0.2217
  249MOL0    Cl33525  -0.306   1.438   1.729 -0.1088  0.2378 -0.1307
  249MOL0     C33526   0.719   1.146   2.232  0.7950  0.2204  0.7883
  249MOL0     C33527   0.842   1.100   2.285  0.3004  0.3588 -0.7414
  249MOL0     O33528   1.003   0.882   2.408 -0.2189  0.0634  0.2172
  249MOL0     C33529   1.161   1.025   2.703 -0.2751  0.3086  0.0360
  249MOL0     C33530   1.239   1.000   2.815  0.1774  0.2463  0.7514
  249MOL0     N33531   2.022   0.800   3.156 -0.9559  0.2523  0.5598
  249MOL0     N33532   2.126   0.803   3.074  0.1055  0.7026  0.1067
  249MOL0     C33533   3.092   1.476   2.812  0.9488  0.2963 -0.2018
  249MOL0     C33534   3.227   1.483   2.821  0.0320 -0.2323 -0.5438
  249MOL0     C33535   3.682   1.429   2.735 -1.6097  0.8503  0.2152
  249MOL0     C33536   3.694   1.529   2.836  0.6242  0.1920 -0.5912
  249MOL0     C33537   3.817   1.593   2.855  0.2907 -0.2490 -0.5267
  249MOL0     C33538   3.934   1.544   2.795 -0.4427 -0.7178 -0.2994
  249MOL0     O33539   4.046   1.621   2.825 -0.0742 -0.1726  0.3159
  249MOL0     C33540   4.176   1.583   2.788 -0.2092  0.2350  0.5484
  249MOL0     C33541   4.235   1.495   2.889  0.5645 -0.0254 -1.0764
  249MOL0     C33542   4.363   1.412   2.859  0.3270  0.0374 -0.0031
  249MOL0     C33543   4.479   1.491   2.798 -0.4421 -0.5377 -0.7631
  249MOL0     C33544   4.597   1.425   2.734  0.5162  0.2371  0.2994
  249MOL0     C33545   4.679   1.374   2.660  0.7450  0.5279  0.3918
  249MOL0     C33546   3.920   1.441   2.693 -0.1634 -0.2465 -0.2705
  249MOL0     C33547   3.796   1.390   2.660  0.3490  0.9405 -0.1052
  249MOL0     H33548   3.304   1.215   2.621 -1.7761 -0.8961 -0.5773
  249MOL0     H33549   3.060   1.236   2.590 -1.1529  0.6146 -0.4273
  249MOL0     H33550   2.808   1.506   2.877  0.1210  1.6186  0.4229
  249MOL0     H33551   2.811   1.581   2.725  0.3226 -0.3953 -0.3491
  249MOL0     H33552   2.588   1.524   2.754 -0.4790 -0.5103 -3.9593
  249MOL0     H33553   2.646   1.433   2.626 -0.1562 -0.8330  0.9966
  249MOL0     H33554   2.678   1.232   2.790  0.0062  0.7020  0.0961
  249MOL0     H33555   2.615   1.336   2.916  1.8622 -1.7153 -0.0983
  249MOL0     H33556   2.398   1.325   2.813  0.4336  0.6557 -0.2517
  249MOL0     H33557   2.475   1.254   2.670 -1.0462  2.0727  0.0661
  249MOL0     H33558   2.528   1.050   2.820  0.5123 -1.2620  4.1259
  249MOL0     H33559   2.464   1.142   2.953 -0.1609 -0.2376  0.4365
  249MOL0     H33560   2.226   1.141   2.843 -1.3199 -1.8245 -0.4489
  249MOL0     H33561   2.292   1.082   2.697 -3.3282 -1.5984  0.0274
  249MOL0     H33562   2.379   0.870   2.844 -0.1211  0.2049 -1.1897
  249MOL0     H33563   2.302   0.947   2.971 -2.4236  2.5681 -0.1520
  249MOL0     H33564   2.167   0.789   2.762 -1.6769  1.0157 -2.2251
  249MOL0     H33565   2.095   0.945   2.779 -0.0383 -1.7075 -0.7584
  249MOL0     H33566   1.873   0.855   2.861  0.0881 -2.2019 -0.5704
  249MOL0     H33567   1.769   0.710   3.188  0.2375  0.3332  0.9365
  249MOL0     H33568   1.754   0.896   3.203 -1.4144  1.0154 -2.2552
  249MOL0     H33569   1.698   0.749   2.946 -2.9407  0.5411 -1.7747
  249MOL0     H33570   1.655   0.909   2.998 -2.7542 -0.1203 -1.5584
  249MOL0     H33571   1.490   0.766   3.162  0.5978  1.6891 -0.4697
  249MOL0     H33572   1.576   0.626   3.104  0.5318  0.5828  1.4914
  249MOL0     H33573   1.353   0.655   2.995 -0.2184  0.2623  1.6644
  249MOL0     H33574   1.498   0.685   2.877  2.1198  0.7375  1.8171
  249MOL0     H33575   1.285   0.664   2.756  1.0842  0.2959 -2.9016
  249MOL0     H33576   1.205   0.717   2.432  2.1472 -2.3690 -0.0517
  249MOL0     H33577   1.199   0.589   2.549 -1.5603 -0.2828 -2.2384
  249MOL0     H33578   1.051   0.669   2.511  0.0218 -4.8805 -2.1106
  249MOL0     H33579   0.786   1.167   2.617  0.6239 -2.4152 -0.0237
  249MOL0     H33580   0.586   1.271   2.517  0.5138 -0.0761  0.3251
  249MOL0     H33581   0.366   1.145   2.318 -0.0408 -0.4059  4.7336
  249MOL0     H33582   0.397   1.285   2.425  0.9083  1.8257 -0.4317
  249MOL0     H33583   0.306   1.433   2.244  0.2846 -0.2689 -0.2700
  249MOL0     H33584   0.265   1.292   2.151  1.2989  0.8248 -0.5642
  249MOL0     H33585   0.176   1.332   2.434 -1.2341 -2.0343  0.5685
  249MOL0     H33586   0.130   1.195   2.332 -0.1374 -0.3220 -0.4316
  249MOL0     H33587  -0.052   1.340   2.356 -1.0346  2.0655  0.2535
  249MOL0     H33588   0.027   1.492   2.288  0.4899  0.0181  1.0807
  249MOL0     H33589  -0.017   1.247   2.122 -2.5973 -0.5212  1.3885
  249MOL0     H33590   0.073   1.397   2.082  0.3784 -0.7324  0.8853
  249MOL0     H33591  -0.219   1.392   2.160  0.1874  1.8724  1.5353
  249MOL0     H33592  -0.135   1.532   2.126 -2.3659  0.3005  0.9193
  249MOL0     H33593  -0.191   1.291   1.932 -1.0396  0.4042 -0.2304
  249MOL0     H33594  -0.076   1.425   1.893 -1.4583  3.1485 -0.7869
  249MOL0     H33595  -0.271   1.589   1.905  1.6446  0.2261 -0.9650
  249MOL0     H33596  -0.377   1.455   1.954  0.1547 -3.5113 -0.1954
  249MOL0     H33597   0.699   1.138   2.126  1.3435  0.9097  0.6289
  249MOL0     H33598   0.911   1.060   2.213 -0.8668 -0.6903 -1.3243
  249MOL0     H33599   1.132   1.130   2.706 -1.0548  0.0962  0.1768
  249MOL0     H33600   1.261   1.088   2.875  0.7842 -0.5920  1.8056
  249MOL0     H33601   3.031   1.541   2.873 -0.2623  0.6214 -1.7030
  249MOL0     H33602   3.270   1.568   2.873 -0.1597  0.8914 -2.1675
  249MOL0     H33603   3.613   1.568   2.897 -0.0338  0.0821 -1.3690
  249MOL0     H33604   3.828   1.674   2.927 -0.8838 -0.7788  0.2856
  249MOL0     H33605   4.178   1.519   2.699  0.6950  0.3859  0.4445
  249MOL0     H33606   4.239   1.672   2.775  0.4992 -0.4358 -0.9787
  249MOL0     H33607   4.168   1.421   2.933 -0.0695  1.4895  0.6570
  249MOL0     H33608   4.257   1.562   2.973  0.4242 -1.7983  0.4561
  249MOL0     H33609   4.341   1.335   2.785  0.8765 -0.0755 -0.0487
  249MOL0     H33610   4.396   1.375   2.956 -2.1222 -1.4787  0.3426
  249MOL0     H33611   4.528   1.549   2.877 -0.1618  0.9964 -2.0075
  249MOL0     H33612   4.430   1.566   2.735 -0.7445 -0.1999 -0.1402
  249MOL0     H33613   4.759   1.336   2.599 -1.0191  0.3211 -1.9305
  249MOL0     H33614   4.001   1.405   2.631 -0.6296 -0.9618 -0.4830
  249MOL0     H33615   3.786   1.315   2.582  0.3391  0.0275  0.7471
  250MOL0     O33616   2.557   9.974   0.585 -0.2000  0.1530 -0.5311
  250MOL0     C33617   2.614   9.955   0.475 -0.1888 -0.2911  0.0743
  250MOL0     O33618   2.579   9.863   0.377  0.8173 -0.0687 -0.5678
  250MOL0     C33619   2.482   9.763   0.404  0.5650 -0.1547 -0.3794
  250MOL0     C33620   2.515   9.623   0.385 -0.1741  0.0107 -0.2876
  250MOL0     C33621   2.414   9.527   0.408 -0.5068  0.2170 -0.9085
  250MOL0     C33622   2.289   9.569   0.455 -0.0475 -0.2895 -0.2476
  250MOL0     O33623   2.197   9.482   0.496 -0.0030  0.3168 -0.4365
  250MOL0     C33624   2.096   9.471   0.399  0.1672  0.0411  0.0649
  250MOL0     C33625   1.959   9.486   0.471  0.5277  0.0443 -0.3635
  250MOL0     C33626   1.840   9.459   0.371 -0.5246  0.3106 -0.3855
  250MOL0     C33627   1.702   9.454   0.431  0.3467 -0.2122  0.5185
  250MOL0     C33628   1.597   9.477   0.326 -0.3781  0.6074  0.6193
  250MOL0     C33629   1.450   9.456   0.378  0.8327 -0.0014  0.6140
  250MOL0     C33630   1.336   9.487   0.275  0.2286  0.2753  0.1655
  250MOL0     C33631   1.360   9.571   0.148  0.8549  0.5918 -0.4688
  250MOL0     N33632   1.234   9.601   0.074 -0.0089  0.1243 -0.9894
  250MOL0     C33633   1.192   9.532  -0.038 -0.0694 -0.4419 -0.4867
  250MOL0     C33634   1.063   9.579  -0.064  0.2343  0.9712  0.5299
  250MOL0     C33635   0.971   9.527  -0.176 -0.0309  0.2292  0.3036
  250MOL0     C33636   0.839   9.477  -0.133 -0.1035  0.5568  0.1194
  250MOL0     C33637   0.747   9.423  -0.246  0.0780  0.3333 -0.0792
  250MOL0     C33638   0.662   9.316  -0.182  0.4928 -0.6126  0.2072
  250MOL0     O33639   0.618   9.240  -0.297  0.7483 -0.4973 -0.0726
  250MOL0     C33640   0.487   9.266  -0.320  0.4847  0.8409  0.0079
  250MOL0     C33641   0.450   9.379  -0.389  0.8506  0.3246  0.7751
  250MOL0     C33642   0.322   9.386  -0.438 -1.0119 -0.9950  0.2623
  250MOL0     C33643   0.298   9.511  -0.519  0.6116 -0.2773  0.4186
  250MOL0     C33644   0.225   9.287  -0.407  0.0186 -0.3894  0.0899
  250MOL0     C33645   0.086   9.288  -0.458 -0.5985 -0.4326  0.2223
  250MOL0     O33646   0.042   9.167  -0.513 -0.0285 -0.1544  0.1655
  250MOL0     C33647  -0.091   9.150  -0.553 -0.4251  1.1113 -0.0274
  250MOL0     C33648  -0.116   9.070  -0.665  0.0313 -0.0956 -0.0327
  250MOL0     C33649  -0.247   9.056  -0.703  0.6198  0.7582  0.3893
  250MOL0     C33650  -0.352   9.129  -0.639 -0.3603 -1.3552  0.4026
  250MOL0     O33651  -0.475   9.113  -0.689  0.1733 -0.0733  0.5133
  250MOL0     C33652  -0.587   9.181  -0.621 -0.4269 -0.1063 -0.6796
  250MOL0     C33653  -0.713   9.164  -0.704 -0.7619  1.1160  0.0277
  250MOL0     C33654  -0.754   9.020  -0.696  0.1076  1.1032 -0.1582
  250MOL0     C33655  -0.897   8.990  -0.739 -0.6944 -1.0026  0.1050
  250MOL0     C33656  -0.917   8.847  -0.767 -0.1932 -0.0623  0.5344
  250MOL0     C33657  -1.061   8.811  -0.811 -0.1874 -0.2537 -0.2964
  250MOL0     C33658  -1.174   8.865  -0.725 -0.0920  0.4568 -0.4820
  250MOL0     C33659  -1.303   8.808  -0.762 -0.0559  0.6647  0.0629
  250MOL0    Cl33660  -1.320   8.650  -0.674  0.1104  0.4641 -0.3888
  250MOL0     C33661  -0.324   9.201  -0.520  0.1061  0.4926 -0.2759
  250MOL0     C33662  -0.192   9.213  -0.482  0.1286  0.3781  0.0332
  250MOL0     O33663   0.020   9.396  -0.457  0.0520 -0.5397  0.2358
  250MOL0     C33664   0.260   9.179  -0.322  0.0745  0.5051  0.7428
  250MOL0     C33665   0.391   9.164  -0.281  0.8045 -0.0082 -0.2906
  250MOL0     N33666   1.038   9.677   0.026  0.6390  0.6892 -0.4087
  250MOL0     N33667   1.139   9.690   0.112  0.5983  0.3303 -0.1177
  250MOL0     C33668   2.264   9.706   0.481 -0.3135  0.5145 -0.4669
  250MOL0     C33669   2.360   9.803   0.457 -0.4064 -0.0023 -0.5264
  250MOL0     C33670   2.736  10.030   0.437  0.2269  0.9278 -0.1511
  250MOL0     C33671   2.812  10.005   0.319  0.7030 -0.2078  0.2708
  250MOL0     C33672   2.920  10.093   0.292 -0.1310  0.0969 -0.2441
  250MOL0     C33673   2.976  10.176   0.389  0.3330  0.6250  0.3037
  250MOL0     O33674   3.091  10.256   0.372  0.1714  0.8747 -0.6675
  250MOL0     C33675   3.145  10.269   0.239 -1.0525 -0.1307 -0.1686
  250MOL0     C33676   3.261  10.377   0.222  0.3032  0.2101  0.1762
  250MOL0     C33677   3.226  10.498   0.310 -0.5365  0.0175  0.0686
  250MOL0     C33678   3.331  10.612   0.296  0.2910 -0.4346 -0.6821
  250MOL0     C33679   3.463  10.577   0.343 -0.2065  0.0977 -0.0959
  250MOL0     C33680   3.571  10.550   0.381 -0.8268  0.3704  0.3648
  250MOL0     C33681   2.905  10.194   0.502  0.4930  0.2186  0.1151
  250MOL0     C33682   2.777  10.134   0.520 -0.6301  0.4573  0.3871
  250MOL0     H33683   2.614   9.593   0.354  0.4315  1.4018  0.2198
  250MOL0     H33684   2.428   9.421   0.393  2.0315 -0.0776  2.3886
  250MOL0     H33685   2.101   9.541   0.315 -1.2995  0.5467  0.3714
  250MOL0     H33686   2.102   9.372   0.353  0.2338  0.5383 -1.0126
  250MOL0     H33687   1.947   9.407   0.545 -4.9822  0.7623 -0.0893
  250MOL0     H33688   1.949   9.584   0.520 -1.5303 -0.3049 -0.0060
  250MOL0     H33689   1.855   9.541   0.300 -2.7054  0.0297 -1.2569
  250MOL0     H33690   1.848   9.373   0.304 -2.3739 -0.3688  0.2034
  250MOL0     H33691   1.685   9.357   0.479  1.3935 -0.1629  1.0136
  250MOL0     H33692   1.696   9.528   0.511 -2.5409  0.7134 -0.4225
  250MOL0     H33693   1.609   9.578   0.287 -1.5725  1.0308  1.2999
  250MOL0     H33694   1.623   9.406   0.247 -0.5810  1.4425 -0.2117
  250MOL0     H33695   1.439   9.356   0.422 -1.7259  0.1700  0.5353
  250MOL0     H33696   1.432   9.531   0.456 -1.6466  0.4938 -0.3549
  250MOL0     H33697   1.305   9.388   0.242  2.3959 -0.5815  0.5378
  250MOL0     H33698   1.247   9.525   0.328  1.2833  1.4061  1.2044
  250MOL0     H33699   1.425   9.520   0.077 -2.1258 -1.8292 -1.6763
  250MOL0     H33700   1.406   9.663   0.185  0.2534 -0.4347  3.2192
  250MOL0     H33701   1.254   9.464  -0.095 -1.0101  0.6762 -2.9980
  250MOL0     H33702   0.964   9.590  -0.265 -2.3920 -0.3195  0.0392
  250MOL0     H33703   1.028   9.443  -0.218 -0.2558  1.9124 -3.8617
  250MOL0     H33704   0.781   9.554  -0.083 -1.7666  0.6100 -1.7506
  250MOL0     H33705   0.857   9.402  -0.056  0.5317 -1.3132 -1.7416
  250MOL0     H33706   0.803   9.383  -0.331 -3.7470 -1.0566 -2.1775
  250MOL0     H33707   0.677   9.501  -0.277 -0.6414  0.3342  1.4513
  250MOL0     H33708   0.577   9.361  -0.130  0.6515  1.8023 -1.4691
  250MOL0     H33709   0.737   9.254  -0.131  1.5708  1.9503  1.9289
  250MOL0     H33710   0.527   9.447  -0.426 -0.0354  0.5965 -0.6695
  250MOL0     H33711   0.219   9.502  -0.594 -0.0446 -0.5680  1.1325
  250MOL0     H33712   0.278   9.588  -0.444 -2.4356 -2.7897  2.4466
  250MOL0     H33713   0.388   9.539  -0.575  1.0112  2.9724  2.4143
  250MOL0     H33714  -0.039   9.024  -0.726  0.4159  1.9329 -1.1307
  250MOL0     H33715  -0.272   9.003  -0.794 -0.8563  2.3061 -0.1744
  250MOL0     H33716  -0.595   9.153  -0.515 -1.9383 -0.0560 -0.7653
  250MOL0     H33717  -0.561   9.286  -0.608 -1.6051  0.3204 -1.5947
  250MOL0     H33718  -0.795   9.227  -0.667 -3.1558 -2.0186  0.5087
  250MOL0     H33719  -0.692   9.198  -0.805  0.3828  1.3146  0.3238
  250MOL0     H33720  -0.756   8.988  -0.591 -2.6752  0.6559 -0.2771
  250MOL0     H33721  -0.688   8.954  -0.753  1.4789  2.5709 -0.3321
  250MOL0     H33722  -0.946   9.023  -0.647  2.8691 -2.4760  2.7447
  250MOL0     H33723  -0.925   9.049  -0.827  1.8963 -2.1090 -1.5842
  250MOL0     H33724  -0.890   8.807  -0.668 -2.6204  0.9740  1.7051
  250MOL0     H33725  -0.840   8.803  -0.830  2.7650  0.3705  3.5490
  250MOL0     H33726  -1.058   8.823  -0.920  3.8298  0.5718 -0.2649
  250MOL0     H33727  -1.088   8.707  -0.790  1.2734 -0.7777 -0.8680
  250MOL0     H33728  -1.191   8.972  -0.741 -1.3076  0.5752  1.2590
  250MOL0     H33729  -1.152   8.838  -0.621  0.9636 -0.8479 -1.0289
  250MOL0     H33730  -1.302   8.798  -0.870 -0.5108 -2.7873  0.2778
  250MOL0     H33731  -1.388   8.873  -0.738 -0.7874 -0.2452 -0.0104
  250MOL0     H33732  -0.392   9.255  -0.456  0.6560  1.1595 -0.2438
  250MOL0     H33733  -0.181   9.255  -0.383 -3.2551 -2.5446  1.8955
  250MOL0     H33734   0.185   9.104  -0.300 -0.0838 -0.1662 -1.7031
  250MOL0     H33735   0.422   9.070  -0.235 -0.2516  0.8234  2.3521
  250MOL0     H33736   2.176   9.740   0.535  2.1457  2.0366  2.9957
  250MOL0     H33737   2.323   9.898   0.493  1.1722  0.5493 -0.3150
  250MOL0     H33738   2.790   9.946   0.231  2.0509  0.7379 -0.7470
  250MOL0     H33739   2.969  10.092   0.195  0.8964  2.6973  0.1606
  250MOL0     H33740   3.190  10.176   0.204  0.2318  0.9676 -1.6192
  250MOL0     H33741   3.060  10.294   0.175  0.8877  2.2979 -2.0181
  250MOL0     H33742   3.264  10.402   0.115 -2.8715 -1.6883 -0.4723
  250MOL0     H33743   3.362  10.341   0.245  0.5606  2.5309  3.3491
  250MOL0     H33744   3.216  10.456   0.410 -1.4281 -6.0592 -2.1558
  250MOL0     H33745   3.132  10.545   0.280 -1.0047 -1.4910 -0.9841
  250MOL0     H33746   3.276  10.689   0.350 -1.9735 -1.9052 -0.7734
  250MOL0     H33747   3.332  10.639   0.190 -0.4287  0.4893 -0.4600
  250MOL0     H33748   3.667  10.515   0.415 -1.4558 -1.6565  0.2012
  250MOL0     H33749   2.933  10.270   0.575 -2.9366  2.3215 -0.4742
  250MOL0     H33750   2.720  10.158   0.609 -0.2996 -1.4495  1.1619
  251MOL0     O33751   5.643  11.003   8.409  0.1408 -0.0055 -0.3809
  251MOL0     C33752   5.666  11.082   8.499 -0.5691 -0.3202 -0.1126
  251MOL0     O33753   5.576  11.161   8.569 -0.2893  0.5143  0.4082
  251MOL0     C33754   5.443  11.176   8.537  0.7576  0.3903 -0.2578
  251MOL0     C33755   5.409  11.186   8.403  0.7813 -0.2665 -0.5035
  251MOL0     C33756   5.274  11.228   8.366 -0.4083 -0.0551 -0.0633
  251MOL0     C33757   5.180  11.257   8.460  0.5414  0.4735 -0.5016
  251MOL0     O33758   5.052  11.277   8.421 -0.0790  0.2948 -0.1635
  251MOL0     C33759   4.939  11.241   8.504  0.3204  0.6593  0.0517
  251MOL0     C33760   4.901  11.361   8.589 -0.2379 -0.3700 -0.0319
  251MOL0     C33761   4.933  11.501   8.530  0.2672  0.1058 -0.7052
  251MOL0     C33762   4.891  11.611   8.626  0.5698 -0.3102  0.0839
  251MOL0     C33763   4.753  11.667   8.584  0.2273  0.4443 -0.3413
  251MOL0     C33764   4.704  11.752   8.695 -0.3897  0.0665  0.4304
  251MOL0     C33765   4.569  11.822   8.666  0.1805 -0.0526 -0.5904
  251MOL0     C33766   4.460  11.716   8.670  0.2711 -0.1856  0.6902
  251MOL0     N33767   4.333  11.789   8.649  0.4449  0.1526 -0.5750
  251MOL0     C33768   4.261  11.833   8.752 -0.1164 -0.1368 -0.4720
  251MOL0     C33769   4.153  11.897   8.691 -0.1030 -0.4804  0.2205
  251MOL0     C33770   4.037  11.974   8.739  0.4117  0.2508 -0.6043
  251MOL0     C33771   3.912  11.916   8.663  0.1001 -0.1690 -0.5519
  251MOL0     C33772   3.778  11.943   8.738  0.8964 -0.3164  0.2796
  251MOL0     C33773   3.773  11.837   8.851 -0.6480  0.7939 -0.4676
  251MOL0     O33774   3.638  11.797   8.879  0.7874 -0.5356 -0.0513
  251MOL0     C33775   3.541  11.886   8.920  0.1629 -0.0862  0.2582
  251MOL0     C33776   3.563  12.005   8.992 -0.3838 -0.3604  0.3163
  251MOL0     C33777   3.458  12.080   9.036  0.0076  0.3854 -0.0891
  251MOL0     C33778   3.482  12.186   9.131 -0.3591 -0.4653  0.1216
  251MOL0     C33779   3.325  12.034   9.012 -0.3457  0.0766 -0.6283
  251MOL0     C33780   3.200  12.103   9.060 -0.8191  0.2238 -0.8582
  251MOL0     O33781   3.086  12.020   9.070  0.0513  0.1355 -0.4217
  251MOL0     C33782   2.965  12.068   9.109  0.5317  0.2047  0.4327
  251MOL0     C33783   2.946  12.148   9.224  0.2497 -0.7708 -1.0479
  251MOL0     C33784   2.823  12.209   9.258 -0.3285 -0.0761  0.8343
  251MOL0     C33785   2.714  12.193   9.168 -0.1448  0.6643  0.8693
  251MOL0     O33786   2.602  12.264   9.192  1.0596  0.2457  0.4342
  251MOL0     C33787   2.482  12.190   9.185  0.6224  0.7762  0.0120
  251MOL0     C33788   2.374  12.280   9.241 -0.7012  0.5366 -0.0429
  251MOL0     C33789   2.388  12.293   9.391 -0.5508  0.0281  0.2259
  251MOL0     C33790   2.287  12.390   9.453 -0.3595  0.7141 -0.6355
  251MOL0     C33791   2.271  12.382   9.604  0.3198  0.9887  0.3861
  251MOL0     C33792   2.134  12.434   9.657  0.2707 -0.1189  0.2344
  251MOL0     C33793   2.086  12.561   9.587 -0.1013 -0.0375 -0.2901
  251MOL0     C33794   1.934  12.609   9.624 -0.9979 -0.7309 -0.1025
  251MOL0    Cl33795   1.945  12.666   9.787 -0.1886  0.2054 -0.2228
  251MOL0     C33796   2.723  12.104   9.058 -0.2330  0.6114 -0.0066
  251MOL0     C33797   2.847  12.041   9.030 -0.1114  0.3190  0.1309
  251MOL0     O33798   3.204  12.224   9.088  0.8871  0.0377 -0.1700
  251MOL0     C33799   3.305  11.919   8.946 -0.2265 -0.3556  0.7619
  251MOL0     C33800   3.410  11.846   8.893  0.6606  0.2651  0.3940
  251MOL0     N33801   4.176  11.893   8.553 -0.0293  0.6589  0.1245
  251MOL0     N33802   4.288  11.841   8.536  0.2767  0.1194 -0.3640
  251MOL0     C33803   5.214  11.241   8.600 -0.4158  0.9628  0.6421
  251MOL0     C33804   5.345  11.208   8.637  0.4374  0.4156  0.8070
  251MOL0     C33805   5.807  11.072   8.562 -0.0012 -0.7079  0.7133
  251MOL0     C33806   5.822  11.126   8.689 -0.1304 -0.1966 -0.0328
  251MOL0     C33807   5.943  11.121   8.757 -0.1803 -0.2302  0.0812
  251MOL0     C33808   6.052  11.049   8.692  1.2221  0.0632  0.6655
  251MOL0     O33809   6.152  11.016   8.779 -0.4432  0.3962  0.4053
  251MOL0     C33810   6.266  10.939   8.734 -0.2326 -0.1218  0.9283
  251MOL0     C33811   6.368  11.031   8.658  0.7825  0.2945 -0.3734
  251MOL0     C33812   6.508  10.965   8.639  0.6588 -0.3379 -0.0169
  251MOL0     C33813   6.587  11.046   8.550  0.2032 -0.2151 -0.5593
  251MOL0     C33814   6.704  10.964   8.515 -0.9360  0.1338  0.5535
  251MOL0     C33815   6.808  10.904   8.489  0.0446  1.0360 -0.2379
  251MOL0     C33816   6.037  11.015   8.554  0.2394 -0.5294  0.0486
  251MOL0     C33817   5.916  11.025   8.492 -0.1293 -0.4075  0.1142
  251MOL0     H33818   5.469  11.148   8.321  0.0522  2.3782 -2.3983
  251MOL0     H33819   5.255  11.222   8.260  0.6516 -1.0440 -0.2306
  251MOL0     H33820   4.853  11.224   8.438  0.0481 -2.1088  1.0092
  251MOL0     H33821   4.960  11.149   8.560 -1.2567 -2.9343 -4.6175
  251MOL0     H33822   4.797  11.345   8.617 -0.3031 -1.5259 -0.8617
  251MOL0     H33823   4.936  11.356   8.693 -0.8210  1.6693  0.3101
  251MOL0     H33824   5.042  11.509   8.528  0.3000 -0.4045 -1.6226
  251MOL0     H33825   4.894  11.509   8.428  1.5196 -1.6600 -1.3670
  251MOL0     H33826   4.888  11.578   8.730  1.7578  1.3256  0.6886
  251MOL0     H33827   4.968  11.688   8.613 -2.7231  3.2186 -0.1250
  251MOL0     H33828   4.778  11.730   8.499  0.7047  2.4866  1.2164
  251MOL0     H33829   4.681  11.587   8.563  0.7276 -0.0216 -0.2897
  251MOL0     H33830   4.691  11.700   8.790 -1.4136 -0.2377  0.1347
  251MOL0     H33831   4.773  11.836   8.709  1.3861 -1.0950 -0.9432
  251MOL0     H33832   4.554  11.897   8.744  0.5085  0.8905 -1.4123
  251MOL0     H33833   4.566  11.876   8.571 -0.1457  0.6142 -0.2025
  251MOL0     H33834   4.463  11.655   8.760  3.7356 -1.5273 -0.1655
  251MOL0     H33835   4.471  11.648   8.585  1.1467 -1.1378  1.5447
  251MOL0     H33836   4.272  11.810   8.858 -0.1913 -2.0209 -0.8574
  251MOL0     H33837   4.037  11.979   8.848  3.2374  1.0891 -0.5631
  251MOL0     H33838   4.040  12.077   8.705  0.6692  0.2930 -0.4533
  251MOL0     H33839   3.897  11.810   8.641  0.4010 -0.2989 -0.1485
  251MOL0     H33840   3.910  11.972   8.569 -4.0216  1.6238  0.3756
  251MOL0     H33841   3.693  11.927   8.671  0.1611  2.2976  0.4847
  251MOL0     H33842   3.768  12.046   8.773 -1.4216 -0.4023  0.0397
  251MOL0     H33843   3.822  11.879   8.939 -0.5849 -2.1928  1.0478
  251MOL0     H33844   3.822  11.744   8.820 -0.1740  0.4161  1.3317
  251MOL0     H33845   3.661  12.037   9.027 -2.1634  5.0035  1.3416
  251MOL0     H33846   3.475  12.286   9.087 -0.3884 -0.7491 -0.5334
  251MOL0     H33847   3.412  12.179   9.215 -0.9761 -0.6263 -0.3984
  251MOL0     H33848   3.584  12.182   9.171 -0.5168 -0.2858  0.5482
  251MOL0     H33849   3.031  12.165   9.290  1.3123 -3.3264 -1.6308
  251MOL0     H33850   2.812  12.269   9.347  1.0067  3.3041 -1.0668
  251MOL0     H33851   2.454  12.156   9.085 -1.6759 -1.2416  1.2196
  251MOL0     H33852   2.485  12.109   9.258 -0.2901  1.3360  0.6930
  251MOL0     H33853   2.393  12.382   9.208 -2.8982  1.7789  2.2299
  251MOL0     H33854   2.273  12.252   9.210 -0.6600 -0.8686  0.9552
  251MOL0     H33855   2.491  12.326   9.410 -0.2047 -0.8679 -0.0167
  251MOL0     H33856   2.361  12.198   9.439 -0.9507  0.0232 -0.0065
  251MOL0     H33857   2.328  12.491   9.440  2.5654  0.1516  2.7342
  251MOL0     H33858   2.192  12.371   9.402  0.2345  0.2491 -1.5907
  251MOL0     H33859   2.345  12.450   9.648 -1.2548  3.6493 -0.8360
  251MOL0     H33860   2.297  12.282   9.638  1.9271  1.0872 -0.4453
  251MOL0     H33861   2.056  12.359   9.639  0.3397 -0.2642  0.5392
  251MOL0     H33862   2.143  12.457   9.763  1.6979  0.9963 -0.0914
  251MOL0     H33863   2.093  12.547   9.479  0.9266 -0.6878 -0.1573
  251MOL0     H33864   2.146  12.650   9.607  1.9938 -1.0475 -1.6892
  251MOL0     H33865   1.864  12.525   9.625 -0.6708 -1.0340  1.8007
  251MOL0     H33866   1.886  12.689   9.566  0.1335 -0.1331 -0.2535
  251MOL0     H33867   2.635  12.092   8.994 -0.0640  0.2591 -0.1745
  251MOL0     H33868   2.850  11.982   8.938 -1.5778  1.4437 -0.6921
  251MOL0     H33869   3.205  11.884   8.925 -0.9899  0.6386  2.5694
  251MOL0     H33870   3.388  11.757   8.834 -0.7086  0.0353  1.1954
  251MOL0     H33871   5.138  11.266   8.673 -2.8535  1.1613 -1.8350
  251MOL0     H33872   5.373  11.214   8.742  0.3245 -2.0953  1.0407
  251MOL0     H33873   5.741  11.171   8.745  0.5674 -1.5045  2.1563
  251MOL0     H33874   5.960  11.149   8.861  1.9423  0.8788 -0.4970
  251MOL0     H33875   6.322  10.886   8.812 -0.1941 -0.9888  0.3264
  251MOL0     H33876   6.228  10.867   8.661 -2.2940  2.6265 -0.8966
  251MOL0     H33877   6.372  11.119   8.723 -2.8177 -0.1999  0.7404
  251MOL0     H33878   6.331  11.059   8.559  0.2673  1.9323  0.2480
  251MOL0     H33879   6.499  10.861   8.607 -1.6554 -0.4825  0.9165
  251MOL0     H33880   6.556  10.956   8.737  0.3352 -2.6418 -0.0106
  251MOL0     H33881   6.613  11.139   8.602 -2.2441 -0.4047  1.1756
  251MOL0     H33882   6.526  11.085   8.468 -1.1375  2.9345  1.7294
  251MOL0     H33883   6.905  10.859   8.494  0.5329  2.1658  1.1476
  251MOL0     H33884   6.113  10.974   8.488 -0.4541 -1.5245 -0.1514
  251MOL0     H33885   5.906  10.982   8.393 -1.4060 -0.5101  0.2734
  252MOL0     O33886   4.847   9.279   2.613  0.7029  0.0476 -0.0115
  252MOL0     C33887   4.897   9.301   2.500  0.0604  0.0823  0.3916
  252MOL0     O33888   4.835   9.359   2.397 -0.5070  0.0424 -0.0616
  252MOL0     C33889   4.716   9.421   2.421 -0.3258  0.5087 -0.7748
  252MOL0     C33890   4.715   9.556   2.461  0.5847  0.4478 -0.8134
  252MOL0     C33891   4.595   9.620   2.470 -0.8592  0.1453  0.3774
  252MOL0     C33892   4.478   9.562   2.423  0.3055 -0.5347 -0.0885
  252MOL0     O33893   4.369   9.645   2.422  0.3047 -0.0950 -0.3933
  252MOL0     C33894   4.347   9.711   2.303  0.0911  0.7075  0.5552
  252MOL0     C33895   4.235   9.810   2.331 -0.4443  0.1761 -0.0649
  252MOL0     C33896   4.109   9.726   2.339  0.6485  0.1312 -0.2887
  252MOL0     C33897   3.985   9.821   2.345 -0.1880 -0.0158 -0.1780
  252MOL0     C33898   3.843   9.751   2.347 -0.4551 -0.4721  0.4773
  252MOL0     C33899   3.814   9.708   2.491  0.8905  0.0408  0.8371
  252MOL0     C33900   3.670   9.681   2.527 -0.4612  0.6055  0.7909
  252MOL0     C33901   3.614   9.551   2.463 -0.2118 -0.0001 -0.5307
  252MOL0     N33902   3.465   9.563   2.448 -0.4043 -0.3300 -0.2234
  252MOL0     C33903   3.386   9.587   2.333  0.2941 -0.0027  0.3180
  252MOL0     C33904   3.262   9.544   2.366  0.0394  0.0547 -0.1337
  252MOL0     C33905   3.145   9.527   2.274 -0.6189  0.2386 -0.5587
  252MOL0     C33906   3.084   9.377   2.274  0.0939 -0.1236  0.1693
  252MOL0     C33907   3.187   9.287   2.216  0.5660  1.4221 -0.1679
  252MOL0     C33908   3.123   9.151   2.190  0.1564  0.4198 -1.0790
  252MOL0     O33909   3.103   9.078   2.310  0.2092 -0.7490 -0.4141
  252MOL0     C33910   3.006   8.980   2.303 -0.6841  0.5822  0.0100
  252MOL0     C33911   2.957   8.930   2.184  0.3439  0.2331 -0.1584
  252MOL0     C33912   2.839   8.833   2.185 -0.6179  0.0890  0.1393
  252MOL0     C33913   2.802   8.765   2.051  0.0641  0.4832  0.2366
  252MOL0     C33914   2.794   8.787   2.305 -0.2839 -0.0938 -0.6830
  252MOL0     C33915   2.679   8.699   2.315  0.4112 -0.2228  0.5398
  252MOL0     O33916   2.579   8.722   2.230  0.3152  0.1061 -0.7670
  252MOL0     C33917   2.457   8.666   2.247 -0.1971 -0.5383  0.4775
  252MOL0     C33918   2.397   8.663   2.374 -0.0306  0.3432  0.2924
  252MOL0     C33919   2.268   8.604   2.375 -1.1280 -0.1638 -0.0378
  252MOL0     C33920   2.198   8.567   2.260  0.6500  1.0641 -0.0278
  252MOL0     O33921   2.067   8.525   2.271  0.0877  0.0246 -0.1683
  252MOL0     C33922   1.990   8.472   2.162  0.2596 -0.2274 -0.0904
  252MOL0     C33923   1.845   8.434   2.214 -0.0145 -0.0443 -0.5083
  252MOL0     C33924   1.767   8.559   2.231 -0.0259  0.2022 -0.4395
  252MOL0     C33925   1.642   8.552   2.321 -0.0338 -0.3933  1.1502
  252MOL0     C33926   1.553   8.672   2.287 -0.2690 -0.0102 -1.1433
  252MOL0     C33927   1.409   8.645   2.349  0.6172 -0.4295  0.1386
  252MOL0     C33928   1.304   8.762   2.321 -1.2299 -0.1161 -0.1106
  252MOL0     C33929   1.168   8.706   2.276 -0.1873  0.0584 -0.1511
  252MOL0    Cl33930   1.063   8.847   2.254  0.2132  0.1718 -0.0588
  252MOL0     C33931   2.257   8.587   2.133  0.7003  0.5924 -0.0454
  252MOL0     C33932   2.387   8.639   2.134 -0.6280 -0.4638 -0.3142
  252MOL0     O33933   2.682   8.610   2.397  0.0613  0.5705 -0.4307
  252MOL0     C33934   2.862   8.824   2.420  0.4163 -0.2100 -0.3413
  252MOL0     C33935   2.963   8.918   2.419 -0.1735  0.5530  0.1587
  252MOL0     N33936   3.265   9.516   2.500  0.1316 -0.5773  0.4235
  252MOL0     N33937   3.381   9.529   2.545 -0.3695 -0.0938  0.3505
  252MOL0     C33938   4.480   9.430   2.381  0.1058 -0.0956 -0.5580
  252MOL0     C33939   4.603   9.357   2.381  0.3828  0.1264  0.0745
  252MOL0     C33940   5.041   9.256   2.485  0.2002 -0.2185 -0.3730
  252MOL0     C33941   5.118   9.296   2.379  0.4913 -0.5307  0.2960
  252MOL0     C33942   5.242   9.249   2.356  0.5220  0.2651 -0.4823
  252MOL0     C33943   5.294   9.156   2.439 -1.6118 -0.1048 -0.2329
  252MOL0     O33944   5.427   9.122   2.401 -0.0581 -0.1044 -0.0720
  252MOL0     C33945   5.494   9.028   2.484 -0.0166  0.4312  0.1185
  252MOL0     C33946   5.617   8.976   2.414  0.1486  0.3075  0.1120
  252MOL0     C33947   5.710   9.075   2.336  0.2673  0.2277 -0.1042
  252MOL0     C33948   5.748   9.204   2.414  0.1941  0.7147 -0.0885
  252MOL0     C33949   5.868   9.262   2.359 -0.5012 -0.2465  0.4410
  252MOL0     C33950   5.973   9.303   2.312  0.7347 -0.4526 -0.1068
  252MOL0     C33951   5.226   9.118   2.560  0.8629  0.7301 -0.6544
  252MOL0     C33952   5.095   9.169   2.584 -0.0244  1.0152 -0.6766
  252MOL0     H33953   4.801   9.613   2.497 -1.3992  2.8182  0.4491
  252MOL0     H33954   4.590   9.720   2.513 -1.3558  0.0570  0.5363
  252MOL0     H33955   4.435   9.766   2.268  0.4539  0.1438  0.5689
  252MOL0     H33956   4.311   9.649   2.220  2.9470 -1.4629  0.7632
  252MOL0     H33957   4.262   9.855   2.428  0.9162  0.7764 -0.6944
  252MOL0     H33958   4.229   9.889   2.255 -0.6686  1.4997  1.2766
  252MOL0     H33959   4.096   9.672   2.244 -0.4883  0.4918 -0.3515
  252MOL0     H33960   4.108   9.662   2.428  3.0380  1.2091  0.5936
  252MOL0     H33961   3.997   9.884   2.433 -1.5131 -1.0396  0.7816
  252MOL0     H33962   3.980   9.881   2.253 -0.9294 -1.2258 -0.9647
  252MOL0     H33963   3.772   9.827   2.313 -0.1052 -0.8080 -1.0779
  252MOL0     H33964   3.838   9.674   2.270 -1.3580 -0.8677  0.9222
  252MOL0     H33965   3.881   9.626   2.518  0.3378 -1.2283 -1.3744
  252MOL0     H33966   3.844   9.795   2.549  1.2467 -0.0466  0.7830
  252MOL0     H33967   3.668   9.667   2.635  1.7277  1.2116  0.9527
  252MOL0     H33968   3.618   9.773   2.498 -0.7501  0.0626 -0.4885
  252MOL0     H33969   3.636   9.468   2.530 -0.3114  1.7345  1.7580
  252MOL0     H33970   3.665   9.549   2.366  1.6770 -0.1074  0.4139
  252MOL0     H33971   3.407   9.595   2.227 -3.0314 -1.7424 -0.6075
  252MOL0     H33972   3.067   9.588   2.320 -0.5887 -0.1696  0.0444
  252MOL0     H33973   3.166   9.558   2.171 -1.3485  0.8161 -0.5412
  252MOL0     H33974   2.996   9.372   2.209 -0.0674  2.3802  0.0889
  252MOL0     H33975   3.054   9.344   2.374 -2.1401  0.3453 -0.2949
  252MOL0     H33976   3.273   9.261   2.278  0.5052 -1.0369 -1.0212
  252MOL0     H33977   3.217   9.322   2.117  0.0357 -1.0179 -1.2616
  252MOL0     H33978   3.179   9.085   2.123  1.0074 -1.0768  1.0129
  252MOL0     H33979   3.024   9.167   2.145 -0.8735 -0.0004  0.9270
  252MOL0     H33980   2.986   8.956   2.083 -3.6364  1.7764 -1.0759
  252MOL0     H33981   2.790   8.656   2.057 -1.9353  0.5849 -1.0231
  252MOL0     H33982   2.705   8.803   2.019 -0.0709 -0.3726 -0.3917
  252MOL0     H33983   2.878   8.794   1.978  0.3799  2.7302  1.3583
  252MOL0     H33984   2.447   8.696   2.464  1.7987 -2.0460  0.2492
  252MOL0     H33985   2.218   8.597   2.471 -1.8646  0.6078 -0.3458
  252MOL0     H33986   1.977   8.552   2.088  2.2890 -0.0483 -0.3281
  252MOL0     H33987   2.039   8.385   2.117 -0.4558 -1.8271  2.0984
  252MOL0     H33988   1.791   8.370   2.143  1.8487  0.0646 -2.1050
  252MOL0     H33989   1.848   8.380   2.309 -0.9034  1.9680  0.7042
  252MOL0     H33990   1.748   8.594   2.129  2.4529  3.1239 -0.0211
  252MOL0     H33991   1.828   8.641   2.271  0.0503  0.3404 -0.8341
  252MOL0     H33992   1.583   8.461   2.310 -0.7628  0.1104  0.7816
  252MOL0     H33993   1.678   8.570   2.423  0.8901 -1.0868  0.9584
  252MOL0     H33994   1.541   8.680   2.178  0.0008 -1.7072 -1.3118
  252MOL0     H33995   1.595   8.765   2.326 -2.5272  0.1313  1.2641
  252MOL0     H33996   1.379   8.543   2.320 -0.7770  0.4295 -1.6585
  252MOL0     H33997   1.426   8.644   2.457  2.5384  1.2860 -0.0846
  252MOL0     H33998   1.342   8.831   2.246  1.7313 -0.9273  0.5090
  252MOL0     H33999   1.296   8.830   2.406 -3.9655  0.5824 -0.8400
  252MOL0     H34000   1.128   8.640   2.354 -2.9005 -0.5446 -1.8774
  252MOL0     H34001   1.170   8.642   2.187 -0.8852 -1.2525  0.7329
  252MOL0     H34002   2.206   8.564   2.040  3.2205  2.1745 -1.9506
  252MOL0     H34003   2.444   8.657   2.044  1.0063 -0.7031  0.6260
  252MOL0     H34004   2.838   8.793   2.522 -4.0258  0.9928 -0.7823
  252MOL0     H34005   3.015   8.948   2.510  1.2830  0.4733 -0.6230
  252MOL0     H34006   4.385   9.386   2.351 -1.3112  2.9396 -0.8993
  252MOL0     H34007   4.611   9.253   2.351 -2.0969 -0.7882  2.1999
  252MOL0     H34008   5.070   9.368   2.313 -0.2711 -2.9460 -1.9214
  252MOL0     H34009   5.300   9.280   2.269  0.9677  0.1519 -0.2301
  252MOL0     H34010   5.529   9.079   2.575  3.1221 -0.0116 -0.7181
  252MOL0     H34011   5.418   8.953   2.507 -0.3851  0.3688 -1.2257
  252MOL0     H34012   5.603   8.895   2.342  0.1180 -0.8225  1.3510
  252MOL0     H34013   5.669   8.926   2.496 -2.3761  1.7809  2.7986
  252MOL0     H34014   5.673   9.116   2.241 -3.0807  1.8161  1.7271
  252MOL0     H34015   5.803   9.020   2.320 -1.3478 -3.2137  1.5086
  252MOL0     H34016   5.773   9.181   2.518  0.5220  0.1310 -0.2927
  252MOL0     H34017   5.663   9.272   2.419 -0.3411  0.0233  0.6116
  252MOL0     H34018   6.063   9.337   2.264 -0.9081  0.1424 -2.9566
  252MOL0     H34019   5.251   9.039   2.630 -1.4651 -0.0648 -0.6382
  252MOL0     H34020   5.046   9.130   2.673  1.7773  0.6365  0.1932
  253MOL0     O34021   1.645   1.396   5.461  0.0938  0.0512  0.2060
  253MOL0     C34022   1.665   1.434   5.342 -0.3830  0.0073 -0.8115
  253MOL0     O34023   1.599   1.389   5.237  0.2489  0.5356  0.1505
  253MOL0     C34024   1.476   1.324   5.241  0.1585 -0.4150  0.8054
  253MOL0     C34025   1.442   1.246   5.126  0.4287  0.2001 -0.0531
  253MOL0     C34026   1.311   1.184   5.123  0.6242  0.9823 -1.1137
  253MOL0     C34027   1.214   1.196   5.226 -0.0295 -0.0927  0.1791
  253MOL0     O34028   1.090   1.142   5.222 -0.3774  0.1085 -0.1763
  253MOL0     C34029   0.982   1.237   5.196 -0.1337 -0.2515  0.2263
  253MOL0     C34030   0.852   1.182   5.253  0.2795  0.2954 -0.9591
  253MOL0     C34031   0.771   1.099   5.158  0.9048 -0.0399 -0.2859
  253MOL0     C34032   0.630   1.064   5.209  0.0513 -0.3658  0.9339
  253MOL0     C34033   0.576   0.984   5.098 -0.1021 -0.5944 -0.0426
  253MOL0     C34034   0.445   0.931   5.135  0.5002 -0.1912  0.0002
  253MOL0     C34035   0.403   0.845   5.015 -0.1096  0.7398 -0.0508
  253MOL0     C34036   0.256   0.820   5.051 -0.0167  0.2348  0.4536
  253MOL0     N34037   0.190   0.734   4.951 -0.5294  0.4417  0.2248
  253MOL0     C34038   0.207   0.596   4.936  0.0469  0.7625 -0.4107
  253MOL0     C34039   0.119   0.563   4.840  0.2408  0.1097  0.0291
  253MOL0     C34040   0.099   0.417   4.791 -0.1377 -0.4025  0.8891
  253MOL0     C34041   0.064   0.433   4.641  0.3811 -0.6068  0.7110
  253MOL0     C34042  -0.081   0.392   4.617  0.1956  0.6353  0.4285
  253MOL0     C34043  -0.172   0.495   4.665 -0.7505  0.1765 -0.4548
  253MOL0     O34044  -0.314   0.455   4.647 -0.5516 -0.3330 -1.1385
  253MOL0     C34045  -0.411   0.549   4.653  0.4868 -0.3776 -0.3106
  253MOL0     C34046  -0.389   0.683   4.677  0.1525  0.2719 -0.3264
  253MOL0     C34047  -0.499   0.768   4.673 -0.2497 -0.9695  0.1613
  253MOL0     C34048  -0.452   0.914   4.684 -0.2156 -0.2778  0.2710
  253MOL0     C34049  -0.638   0.730   4.651 -1.2399  0.3835 -1.7219
  253MOL0     C34050  -0.757   0.813   4.646  0.2242 -0.0854  0.2992
  253MOL0     O34051  -0.848   0.766   4.569  0.4173  0.1499 -0.1267
  253MOL0     C34052  -0.985   0.799   4.573 -0.1839 -0.3669  0.8722
  253MOL0     C34053  -1.081   0.694   4.540  0.0925  0.4559  0.1084
  253MOL0     C34054  -1.214   0.725   4.520  1.0199 -0.1102 -0.3960
  253MOL0     C34055  -1.259   0.857   4.517 -0.0759 -0.2005 -0.0191
  253MOL0     O34056  -1.391   0.885   4.482 -0.3781  0.2608  0.2671
  253MOL0     C34057  -1.447   0.996   4.555 -0.3421  0.0044  0.0262
  253MOL0     C34058  -1.598   0.989   4.538  0.3702 -0.2666  0.3032
  253MOL0     C34059  -1.643   0.990   4.391  0.6525  0.3575 -0.3026
  253MOL0     C34060  -1.783   1.055   4.380  1.2966  0.1033 -0.0245
  253MOL0     C34061  -1.817   1.084   4.236 -0.4487 -0.6583 -0.5419
  253MOL0     C34062  -1.963   1.143   4.228 -0.4387 -0.4494  0.3979
  253MOL0     C34063  -1.983   1.164   4.077  0.4278 -0.6896 -0.2900
  253MOL0     C34064  -2.124   1.195   4.039  0.6256  0.4984  0.5934
  253MOL0    Cl34065  -2.139   1.215   3.873  0.1056 -0.1596  0.2462
  253MOL0     C34066  -1.165   0.959   4.536 -0.1012  0.2462  0.6074
  253MOL0     C34067  -1.037   0.932   4.570 -0.0235  0.6399 -0.8352
  253MOL0     O34068  -0.763   0.909   4.718  0.3876  0.0338  0.2658
  253MOL0     C34069  -0.649   0.589   4.627 -0.7400 -0.6096  0.9540
  253MOL0     C34070  -0.536   0.503   4.635 -0.5059  0.1224  0.5082
  253MOL0     N34071   0.052   0.677   4.798  0.7839  0.2391  0.4746
  253MOL0     N34072   0.105   0.777   4.857 -0.1936 -0.2878  0.1919
  253MOL0     C34073   1.257   1.274   5.334  0.0463 -0.7002  0.9417
  253MOL0     C34074   1.381   1.338   5.335 -0.0112 -0.8964  0.2813
  253MOL0     C34075   1.780   1.533   5.317  0.5553  0.5992 -0.4877
  253MOL0     C34076   1.810   1.572   5.190 -0.2985 -0.6459  0.2281
  253MOL0     C34077   1.897   1.678   5.174 -0.9635  0.2304  0.5217
  253MOL0     C34078   1.976   1.732   5.279 -0.3448  0.7908 -0.0684
  253MOL0     O34079   2.068   1.832   5.265 -0.2205  0.1219  0.5202
  253MOL0     C34080   2.119   1.866   5.131 -0.3364 -0.0700  0.2091
  253MOL0     C34081   2.197   1.996   5.149 -0.1605  0.4701 -0.0558
  253MOL0     C34082   2.091   2.107   5.162 -0.1089 -0.7986  0.4651
  253MOL0     C34083   2.148   2.223   5.240 -0.0339  0.5832 -0.2132
  253MOL0     C34084   2.136   2.196   5.391 -0.2988  0.4873 -0.0251
  253MOL0     C34085   2.122   2.177   5.508  0.2369 -0.3898 -0.0180
  253MOL0     C34086   1.947   1.690   5.401 -0.2556 -0.3443  0.2278
  253MOL0     C34087   1.852   1.589   5.426 -0.3722 -0.5369  0.6046
  253MOL0     H34088   1.513   1.237   5.045 -1.5685  0.2545 -1.9045
  253MOL0     H34089   1.279   1.124   5.037  0.0352 -0.2260 -0.0828
  253MOL0     H34090   1.011   1.332   5.241  0.1069 -1.9647  4.0006
  253MOL0     H34091   0.985   1.239   5.086 -1.9814 -1.2490  0.1098
  253MOL0     H34092   0.860   1.143   5.355 -1.6686  3.3965  0.5389
  253MOL0     H34093   0.789   1.271   5.261 -2.6346 -1.7059 -0.0360
  253MOL0     H34094   0.760   1.156   5.066 -2.6476  2.2077  1.3107
  253MOL0     H34095   0.830   1.007   5.153 -0.9642 -1.4367  1.4331
  253MOL0     H34096   0.643   1.008   5.301  2.1362 -1.3632  0.0857
  253MOL0     H34097   0.572   1.154   5.235 -5.1515 -2.1747 -2.7150
  253MOL0     H34098   0.560   1.043   5.007  0.7660 -2.1989 -1.2863
  253MOL0     H34099   0.638   0.896   5.080  1.5798 -0.0845  2.5988
  253MOL0     H34100   0.439   0.868   5.224  1.4055 -0.4591 -0.1206
  253MOL0     H34101   0.373   1.011   5.153 -2.1827 -2.7326  1.4119
  253MOL0     H34102   0.398   0.901   4.921  1.9046  0.7023 -0.2060
  253MOL0     H34103   0.454   0.748   5.012 -1.4588 -0.1182  2.0279
  253MOL0     H34104   0.198   0.913   5.050 -1.6162 -0.7267 -0.6755
  253MOL0     H34105   0.252   0.776   5.151 -1.2363 -1.7984 -0.4551
  253MOL0     H34106   0.278   0.538   4.995 -1.2498  1.1879  1.6933
  253MOL0     H34107   0.184   0.349   4.797  1.6163  1.5387 -0.3230
  253MOL0     H34108   0.030   0.358   4.852 -0.7186  0.3931  1.0270
  253MOL0     H34109   0.113   0.352   4.586 -1.7216  0.0526 -2.3475
  253MOL0     H34110   0.110   0.524   4.601  1.4622 -0.7586  1.5690
  253MOL0     H34111  -0.097   0.294   4.661  0.9397 -0.0194 -0.7113
  253MOL0     H34112  -0.082   0.381   4.508  1.8568  4.8214 -0.1972
  253MOL0     H34113  -0.144   0.594   4.627  0.1864  1.2350  2.6574
  253MOL0     H34114  -0.155   0.517   4.771 -2.0680 -1.9545  0.2820
  253MOL0     H34115  -0.292   0.724   4.701 -0.5519  0.2882  2.9875
  253MOL0     H34116  -0.446   0.951   4.581  0.5236 -2.3937 -0.4899
  253MOL0     H34117  -0.515   0.981   4.743  1.5540 -0.3858  2.4317
  253MOL0     H34118  -0.349   0.917   4.722  0.4478 -2.5251 -1.1568
  253MOL0     H34119  -1.052   0.590   4.538  0.1808  0.4539  1.1084
  253MOL0     H34120  -1.297   0.662   4.490 -0.6311  2.1106 -0.7515
  253MOL0     H34121  -1.424   0.992   4.662 -0.9219  0.9376  0.2050
  253MOL0     H34122  -1.403   1.092   4.527  1.8228 -0.4309  1.6521
  253MOL0     H34123  -1.612   0.883   4.562  0.5048 -0.2900  0.2738
  253MOL0     H34124  -1.653   1.053   4.608 -0.4419  0.2476 -0.7706
  253MOL0     H34125  -1.655   0.890   4.347 -3.7465  0.8660 -0.7524
  253MOL0     H34126  -1.577   1.052   4.330  0.2591  2.5188  1.3692
  253MOL0     H34127  -1.865   0.996   4.421 -0.3927  1.8009 -0.8529
  253MOL0     H34128  -1.792   1.144   4.443 -0.1168  0.9509 -1.3631
  253MOL0     H34129  -1.810   0.992   4.178  1.6051  0.1001 -1.6023
  253MOL0     H34130  -1.748   1.156   4.191 -0.8467  0.6280  0.8020
  253MOL0     H34131  -2.027   1.066   4.273 -0.1901 -1.0408 -0.2521
  253MOL0     H34132  -1.966   1.241   4.277  0.6566 -0.7888  1.1778
  253MOL0     H34133  -1.955   1.075   4.021  2.2849 -0.7800  0.7072
  253MOL0     H34134  -1.917   1.247   4.053  1.2524 -1.0468  0.6666
  253MOL0     H34135  -2.147   1.295   4.078  2.3500  0.6161  1.4104
  253MOL0     H34136  -2.193   1.115   4.067  0.2205  0.6840  0.1411
  253MOL0     H34137  -1.182   1.064   4.516 -1.1664  0.2525  1.4370
  253MOL0     H34138  -0.970   1.016   4.589 -0.2022  0.3924  1.1080
  253MOL0     H34139  -0.742   0.538   4.603 -2.1334  1.3792  1.8323
  253MOL0     H34140  -0.554   0.396   4.633 -0.6674  0.1199  1.7033
  253MOL0     H34141   1.194   1.275   5.423  1.0560  2.0025  1.7345
  253MOL0     H34142   1.400   1.409   5.416 -2.1531  0.3126 -0.2122
  253MOL0     H34143   1.755   1.527   5.108 -0.9825  1.0100 -0.2609
  253MOL0     H34144   1.890   1.712   5.071  0.9368  1.5657  0.7791
  253MOL0     H34145   2.198   1.794   5.106  1.9809  2.2292  0.5169
  253MOL0     H34146   2.048   1.877   5.049  1.0719  3.7296 -0.7115
  253MOL0     H34147   2.266   2.009   5.066  1.2277  0.2851  1.0303
  253MOL0     H34148   2.259   1.974   5.237  1.5539 -0.8144 -1.5227
  253MOL0     H34149   2.001   2.070   5.212 -0.3812 -0.2169  0.4203
  253MOL0     H34150   2.061   2.147   5.065 -0.4244  2.4873  1.7986
  253MOL0     H34151   2.091   2.315   5.229 -1.0100 -0.1272 -1.3982
  253MOL0     H34152   2.253   2.240   5.215  0.1008 -0.8981 -0.7906
  253MOL0     H34153   2.102   2.151   5.610  0.7754  0.2663  0.2548
  253MOL0     H34154   2.001   1.731   5.486 -1.2213 -1.2090  1.2886
  253MOL0     H34155   1.829   1.572   5.530  0.7870 -0.1310  0.9319
  254MOL0     O34156   8.993   6.607   5.967  0.0891 -0.6649 -0.0189
  254MOL0     C34157   8.986   6.508   6.035  0.8367  0.5704  0.1154
  254MOL0     O34158   8.871   6.443   6.057  0.6458  0.8142  0.1204
  254MOL0     C34159   8.745   6.493   6.006 -0.8071  0.4889 -0.1031
  254MOL0     C34160   8.644   6.494   6.095 -0.4218 -0.1965  0.3361
  254MOL0     C34161   8.518   6.505   6.054 -0.4761  0.0296 -0.1937
  254MOL0     C34162   8.490   6.538   5.919  0.8484 -0.1978 -0.4358
  254MOL0     O34163   8.358   6.556   5.871  0.5999 -0.0150 -0.2742
  254MOL0     C34164   8.254   6.528   5.971  0.2992 -1.1014  0.6523
  254MOL0     C34165   8.110   6.514   5.909  0.6113  0.6394 -0.0510
  254MOL0     C34166   8.040   6.638   5.874 -0.2316  0.2541  0.3781
  254MOL0     C34167   7.927   6.597   5.782  0.1449  0.0135  0.1726
  254MOL0     C34168   7.819   6.714   5.777  0.4911 -0.0754 -0.6696
  254MOL0     C34169   7.690   6.671   5.710 -0.4096 -0.5277  0.5213
  254MOL0     C34170   7.594   6.779   5.690 -0.1764  0.4107  0.3795
  254MOL0     C34171   7.449   6.737   5.664  0.0241  0.6356  0.1227
  254MOL0     N34172   7.360   6.852   5.646 -0.3043  0.3163  0.6955
  254MOL0     C34173   7.334   6.952   5.732  0.0666  0.4554 -0.3960
  254MOL0     C34174   7.245   7.037   5.670  0.4612  0.6515 -1.2701
  254MOL0     C34175   7.185   7.175   5.717  0.2374  0.4027 -0.2558
  254MOL0     C34176   7.111   7.175   5.844 -0.3074  0.2862  0.7076
  254MOL0     C34177   6.963   7.129   5.816  0.4778  0.1131 -0.0118
  254MOL0     C34178   6.890   7.079   5.949  0.4044 -0.0667  0.5307
  254MOL0     O34179   6.761   7.015   5.924 -0.2328 -0.3461  1.0523
  254MOL0     C34180   6.684   6.995   6.040  0.0444  0.0671 -0.1267
  254MOL0     C34181   6.735   6.988   6.173 -0.4266 -0.3823  0.4049
  254MOL0     C34182   6.649   6.972   6.283 -0.3089  0.0152 -0.2109
  254MOL0     C34183   6.702   6.964   6.420  0.8179 -0.5095  0.2624
  254MOL0     C34184   6.509   6.959   6.257 -0.0241  0.5351 -0.0934
  254MOL0     C34185   6.411   6.901   6.351 -0.2488  0.5163 -0.7727
  254MOL0     O34186   6.298   6.849   6.296  0.4956 -0.6389 -0.1917
  254MOL0     C34187   6.192   6.814   6.376  0.0643  0.4775 -0.0989
  254MOL0     C34188   6.127   6.694   6.336 -0.4120 -0.7712  0.8819
  254MOL0     C34189   6.015   6.653   6.406 -0.8831  0.5093 -0.6796
  254MOL0     C34190   5.963   6.721   6.518 -0.3254  0.8904  0.6658
  254MOL0     O34191   5.874   6.658   6.600  1.3360  0.7295 -0.5546
  254MOL0     C34192   5.751   6.736   6.608  0.0076 -0.7285 -0.3054
  254MOL0     C34193   5.627   6.655   6.635 -0.1336  0.2064  0.2045
  254MOL0     C34194   5.510   6.758   6.666  0.2276  0.7983 -0.3152
  254MOL0     C34195   5.387   6.681   6.719  0.3463  0.0184 -0.2406
  254MOL0     C34196   5.273   6.779   6.699  0.0492  0.6306  0.1203
  254MOL0     C34197   5.147   6.751   6.783  0.5929  0.2813  0.4875
  254MOL0     C34198   5.026   6.816   6.711 -0.2957 -0.3601  0.1279
  254MOL0     C34199   4.895   6.789   6.766  0.6344  0.1293 -0.6976
  254MOL0    Cl34200   4.875   6.802   6.939 -0.1077 -0.2378 -0.5310
  254MOL0     C34201   6.027   6.852   6.543  0.3306 -0.0214  0.5898
  254MOL0     C34202   6.141   6.892   6.478 -0.2086 -0.0170 -0.2670
  254MOL0     O34203   6.437   6.898   6.472 -0.7021  0.4910 -0.5766
  254MOL0     C34204   6.467   6.978   6.125 -0.1943 -0.4210  0.0638
  254MOL0     C34205   6.548   7.000   6.021 -0.6779  0.2398  0.5486
  254MOL0     N34206   7.223   6.985   5.546  0.2805  0.3344 -0.3735
  254MOL0     N34207   7.285   6.866   5.536  0.1479  0.4252 -0.2783
  254MOL0     C34208   8.589   6.556   5.829  0.1451 -0.5854 -0.1995
  254MOL0     C34209   8.726   6.530   5.870 -0.4565 -0.2967 -0.2477
  254MOL0     C34210   9.104   6.471   6.108 -0.3524 -0.3599 -0.4594
  254MOL0     C34211   9.090   6.378   6.211  0.1301  0.2808  0.3929
  254MOL0     C34212   9.196   6.329   6.284  0.4033  0.8267 -0.1002
  254MOL0     C34213   9.326   6.382   6.265  0.3933 -0.1662 -0.1169
  254MOL0     O34214   9.437   6.349   6.345  0.1366  0.7940 -0.5057
  254MOL0     C34215   9.411   6.320   6.483 -0.4364 -1.0371  1.0855
  254MOL0     C34216   9.539   6.322   6.568 -0.1900  0.6079 -0.2586
  254MOL0     C34217   9.611   6.200   6.539  0.4761 -0.3315  0.7374
  254MOL0     C34218   9.750   6.206   6.588 -0.4424 -0.0642  0.0235
  254MOL0     C34219   9.807   6.075   6.569 -0.1791  0.1055  0.4116
  254MOL0     C34220   9.847   5.959   6.568  0.7235  0.6199 -0.4608
  254MOL0     C34221   9.348   6.486   6.167 -0.3502  1.1215 -0.6449
  254MOL0     C34222   9.234   6.525   6.091 -0.6249 -0.1478 -0.1155
  254MOL0     H34223   8.673   6.469   6.196  1.5104 -0.6318 -0.2748
  254MOL0     H34224   8.443   6.489   6.131 -0.3218 -0.9866 -0.2387
  254MOL0     H34225   8.283   6.434   6.019 -1.2948 -1.7864  0.3212
  254MOL0     H34226   8.264   6.610   6.043  3.2098 -0.9504  0.1909
  254MOL0     H34227   8.129   6.445   5.826  0.1068 -1.6395  1.6097
  254MOL0     H34228   8.042   6.455   5.972 -0.3644  2.8434  1.0760
  254MOL0     H34229   8.000   6.696   5.958  0.9927  1.1629  0.3531
  254MOL0     H34230   8.118   6.702   5.834  0.6232 -0.4935  0.8144
  254MOL0     H34231   7.971   6.572   5.685 -0.1367  1.0718 -0.2464
  254MOL0     H34232   7.870   6.511   5.820  1.5006  0.0515  2.4989
  254MOL0     H34233   7.790   6.758   5.873 -1.9767  0.3629 -1.5641
  254MOL0     H34234   7.872   6.790   5.719 -0.7787 -0.6396 -2.6706
  254MOL0     H34235   7.716   6.630   5.612  1.2524  2.9060 -0.6288
  254MOL0     H34236   7.634   6.592   5.760 -1.8881  0.9931  1.3919
  254MOL0     H34237   7.595   6.837   5.784 -0.4592  2.8782 -1.0461
  254MOL0     H34238   7.618   6.848   5.609  3.1668 -0.1945  0.7136
  254MOL0     H34239   7.408   6.665   5.735  1.2927  2.3792  2.7672
  254MOL0     H34240   7.462   6.689   5.566 -0.0424 -0.7663  0.7744
  254MOL0     H34241   7.382   6.963   5.829  2.4796  0.8903 -1.5532
  254MOL0     H34242   7.269   7.244   5.729 -0.0910  0.8430 -0.4787
  254MOL0     H34243   7.109   7.209   5.647  2.6329  0.3375 -3.0645
  254MOL0     H34244   7.117   7.268   5.901 -2.8393  0.1211  1.3761
  254MOL0     H34245   7.161   7.091   5.894  1.3377  0.5490 -0.4363
  254MOL0     H34246   6.964   7.049   5.742 -1.8325  1.5040 -1.6832
  254MOL0     H34247   6.911   7.211   5.766  1.2301  0.1892 -0.6991
  254MOL0     H34248   6.873   7.155   6.026 -0.7787 -2.5336  2.8765
  254MOL0     H34249   6.949   7.000   5.995 -1.9768 -0.4140  3.2259
  254MOL0     H34250   6.843   6.995   6.184 -0.5056 -0.8435  1.6416
  254MOL0     H34251   6.670   7.052   6.477 -2.2926 -1.1477 -0.3043
  254MOL0     H34252   6.673   6.870   6.468  1.0849 -0.2745  0.8964
  254MOL0     H34253   6.811   6.970   6.422  0.8360 -0.9536  1.8573
  254MOL0     H34254   6.171   6.636   6.255 -0.9743 -0.8920  0.6613
  254MOL0     H34255   5.958   6.563   6.384 -0.3310  0.3135 -1.3373
  254MOL0     H34256   5.771   6.800   6.695  2.0676 -1.5917 -0.0771
  254MOL0     H34257   5.737   6.803   6.522  1.7969  1.0836  0.7147
  254MOL0     H34258   5.602   6.606   6.541  1.2122  0.3780 -0.2590
  254MOL0     H34259   5.646   6.588   6.720 -2.4194  2.0558  2.3292
  254MOL0     H34260   5.486   6.799   6.567  0.1441 -1.2896 -1.2153
  254MOL0     H34261   5.532   6.835   6.741  0.4168 -1.6121  2.2466
  254MOL0     H34262   5.363   6.590   6.663 -2.9012  0.7036 -0.1196
  254MOL0     H34263   5.401   6.667   6.827 -1.3877  2.3268  0.3497
  254MOL0     H34264   5.234   6.784   6.597 -2.2339  0.9457  0.9388
  254MOL0     H34265   5.302   6.881   6.724 -0.0095  0.0029  3.1059
  254MOL0     H34266   5.132   6.643   6.795 -1.0783  0.3922 -0.3981
  254MOL0     H34267   5.173   6.800   6.877  2.2902  1.7933 -0.6889
  254MOL0     H34268   5.034   6.771   6.612 -0.0798 -3.0802  1.2968
  254MOL0     H34269   5.036   6.925   6.714 -0.6328 -0.3478  1.7554
  254MOL0     H34270   4.875   6.683   6.744 -0.3169  0.0361  0.5584
  254MOL0     H34271   4.822   6.862   6.731 -1.9894 -1.0056  1.9499
  254MOL0     H34272   5.990   6.921   6.618 -0.0595 -0.5143  0.8552
  254MOL0     H34273   6.201   6.982   6.491  0.5284 -0.6493  0.8746
  254MOL0     H34274   6.361   6.972   6.106 -0.2445 -0.8728  0.4841
  254MOL0     H34275   6.511   7.010   5.920  1.4492  0.2127 -0.2848
  254MOL0     H34276   8.577   6.592   5.727 -1.3136 -1.0431 -0.1989
  254MOL0     H34277   8.816   6.528   5.810 -1.6682 -2.2008 -2.1358
  254MOL0     H34278   8.989   6.343   6.232  1.0002 -0.7662  3.3604
  254MOL0     H34279   9.172   6.246   6.349 -2.6220  1.9165  0.3053
  254MOL0     H34280   9.343   6.400   6.515 -0.1659 -0.0595 -0.6552
  254MOL0     H34281   9.358   6.224   6.489 -0.4363 -1.1570 -0.3980
  254MOL0     H34282   9.508   6.332   6.673  0.2256  0.6516 -0.1394
  254MOL0     H34283   9.607   6.404   6.543  1.2220 -0.9155 -1.6532
  254MOL0     H34284   9.623   6.177   6.433  0.1090  1.5650  0.2488
  254MOL0     H34285   9.563   6.119   6.594  2.6215 -0.4646  2.5790
  254MOL0     H34286   9.747   6.229   6.695 -1.7665 -1.0620  0.2332
  254MOL0     H34287   9.805   6.285   6.537 -1.8541  0.3914 -0.8681
  254MOL0     H34288   9.891   5.862   6.555 -0.3158 -0.0991  1.2090
  254MOL0     H34289   9.445   6.528   6.144  0.2972  0.4524  0.7300
  254MOL0     H34290   9.235   6.608   6.021 -1.5357 -0.9847 -1.1472
  255MOL0     O34291   8.426   0.445   0.132  0.1018 -0.1093 -0.3133
  255MOL0     C34292   8.397   0.329   0.174  0.1379 -0.3998 -0.9504
  255MOL0     O34293   8.268   0.283   0.201  0.0401 -0.1899  0.2910
  255MOL0     C34294   8.157   0.358   0.177 -0.8976 -0.4368 -0.0260
  255MOL0     C34295   8.098   0.342   0.051  0.5132 -0.0343  0.2483
  255MOL0     C34296   7.980   0.418   0.022  0.0713  0.2809 -0.5816
  255MOL0     C34297   7.935   0.509   0.115 -0.6298 -0.2917 -0.2636
  255MOL0     O34298   7.827   0.592   0.101 -0.0292  0.5631 -0.2883
  255MOL0     C34299   7.716   0.543   0.029  0.1466  0.5217  0.3604
  255MOL0     C34300   7.600   0.628   0.023  1.6814 -0.2511 -0.5945
  255MOL0     C34301   7.550   0.661   0.164 -0.1896  0.3911  0.3144
  255MOL0     C34302   7.451   0.777   0.185 -0.1768  0.0638 -0.0459
  255MOL0     C34303   7.434   0.810   0.338 -0.2523  0.3686  0.1658
  255MOL0     C34304   7.380   0.690   0.410 -0.0158 -0.7289  0.7177
  255MOL0     C34305   7.326   0.729   0.545  0.9890 -0.1715 -0.1147
  255MOL0     C34306   7.277   0.602   0.617  0.4440 -0.4737  0.0120
  255MOL0     N34307   7.249   0.627   0.760 -0.1851 -0.8594  0.1134
  255MOL0     C34308   7.183   0.737   0.815  0.4300  0.0064  0.0782
  255MOL0     C34309   7.232   0.749   0.938 -0.7552  0.4755  0.4546
  255MOL0     C34310   7.201   0.845   1.043  0.3581  0.5082 -0.8078
  255MOL0     C34311   7.073   0.826   1.121  0.6924 -0.1091 -0.0700
  255MOL0     C34312   7.064   0.943   1.219 -0.0428  0.8222 -0.7364
  255MOL0     C34313   6.934   0.932   1.296  0.5962 -0.8732  0.1407
  255MOL0     O34314   6.835   0.979   1.197 -0.3192  0.8356  0.0792
  255MOL0     C34315   6.712   1.020   1.233 -0.5788 -0.5793 -0.0952
  255MOL0     C34316   6.633   1.094   1.145 -0.3157  0.4934  0.1000
  255MOL0     C34317   6.509   1.147   1.179  0.8070  0.4739 -1.1515
  255MOL0     C34318   6.426   1.208   1.067 -0.4278  1.3470  0.5402
  255MOL0     C34319   6.454   1.129   1.311  0.5630  0.7947  0.2635
  255MOL0     C34320   6.320   1.178   1.357  0.2988  0.8736 -0.2874
  255MOL0     O34321   6.264   1.107   1.458 -0.5988 -0.5678  0.4654
  255MOL0     C34322   6.135   1.139   1.495  0.1753 -0.1004  0.0584
  255MOL0     C34323   6.026   1.057   1.458  0.2159 -0.3048 -0.5036
  255MOL0     C34324   5.896   1.102   1.498 -0.2476  0.8480  1.2283
  255MOL0     C34325   5.877   1.199   1.588  0.3806 -0.4110  0.9671
  255MOL0     O34326   5.746   1.226   1.620  0.4769 -0.4481 -0.5335
  255MOL0     C34327   5.697   1.367   1.639 -0.1598  0.5494  0.4864
  255MOL0     C34328   5.570   1.403   1.575  0.9327 -0.1658 -0.4361
  255MOL0     C34329   5.453   1.316   1.627  0.3525  0.3379 -0.6095
  255MOL0     C34330   5.318   1.394   1.618 -1.1182  0.9247 -0.3456
  255MOL0     C34331   5.271   1.466   1.743 -0.1357  0.6774  0.6603
  255MOL0     C34332   5.127   1.519   1.736 -0.1613  0.1819  0.1859
  255MOL0     C34333   5.027   1.399   1.737  0.2004 -0.0142 -0.0777
  255MOL0     C34334   4.883   1.445   1.732  0.4398 -1.0398  0.0420
  255MOL0    Cl34335   4.766   1.315   1.766  0.4668  0.1283  0.0994
  255MOL0     C34336   5.989   1.271   1.633  0.5588 -0.1368 -0.1040
  255MOL0     C34337   6.119   1.245   1.577 -0.2183  0.3703 -0.2789
  255MOL0     O34338   6.267   1.273   1.301 -0.3559  0.7076  0.3474
  255MOL0     C34339   6.535   1.053   1.393  0.1273  0.2641 -0.4750
  255MOL0     C34340   6.658   0.994   1.356  1.1482  0.0699 -0.1309
  255MOL0     N34341   7.335   0.655   0.952  0.4306  0.2444  0.4798
  255MOL0     N34342   7.346   0.587   0.844  0.3531 -0.3129 -0.1296
  255MOL0     C34343   7.992   0.523   0.243 -0.5183 -0.1692  0.0501
  255MOL0     C34344   8.094   0.438   0.278 -1.0211 -1.0128 -1.1960
  255MOL0     C34345   8.509   0.232   0.193  0.5799  0.7291 -0.4300
  255MOL0     C34346   8.481   0.094   0.223  0.2567 -0.2062 -0.1990
  255MOL0     C34347   8.587   0.013   0.248  0.5420 -0.5819  0.0252
  255MOL0     C34348   8.720   0.046   0.227  0.2549  0.8983 -0.0033
  255MOL0     O34349   8.813  -0.055   0.240  0.0704  0.3471 -0.0676
  255MOL0     C34350   8.952  -0.025   0.214  0.4663  0.1033 -0.1228
  255MOL0     C34351   9.055  -0.129   0.288 -0.0105 -0.4165 -0.1497
  255MOL0     C34352   9.055  -0.276   0.242  0.4404  0.2995 -0.1090
  255MOL0     C34353   9.118  -0.289   0.102  0.2661 -0.5973 -0.9868
  255MOL0     C34354   9.162  -0.421   0.067 -0.9129 -0.5491 -0.7574
  255MOL0     C34355   9.186  -0.536   0.053 -0.3324 -0.4266  0.3974
  255MOL0     C34356   8.744   0.184   0.202  0.1383  0.1273  0.3610
  255MOL0     C34357   8.643   0.273   0.176  0.4260  0.5002  0.5859
  255MOL0     H34358   8.137   0.261  -0.009 -2.0580 -0.6291 -0.7792
  255MOL0     H34359   7.921   0.398  -0.067 -0.8118  2.4555 -0.5378
  255MOL0     H34360   7.739   0.538  -0.077 -0.6156  1.4243  0.1440
  255MOL0     H34361   7.690   0.439   0.055 -0.8751  0.0432 -2.2433
  255MOL0     H34362   7.625   0.724  -0.024  0.9269  1.6821  2.6535
  255MOL0     H34363   7.527   0.574  -0.038  0.6352  0.0876  0.3290
  255MOL0     H34364   7.497   0.576   0.208 -3.2547  2.5177  1.1101
  255MOL0     H34365   7.633   0.684   0.230  1.5550  3.2091 -2.5804
  255MOL0     H34366   7.489   0.858   0.122  0.1802 -2.3835 -3.2144
  255MOL0     H34367   7.355   0.759   0.137 -0.5093 -1.2460  1.0438
  255MOL0     H34368   7.527   0.849   0.381  0.2235  0.8890 -1.2798
  255MOL0     H34369   7.365   0.895   0.336 -2.6097 -1.4066 -2.0726
  255MOL0     H34370   7.294   0.653   0.352  0.8358 -0.2381 -0.9032
  255MOL0     H34371   7.454   0.611   0.427  0.2284 -0.0859  2.9109
  255MOL0     H34372   7.410   0.771   0.602  0.9936  0.7655 -0.7837
  255MOL0     H34373   7.247   0.805   0.539  0.5507 -0.7304 -1.6362
  255MOL0     H34374   7.343   0.515   0.616  0.8711 -0.1767  0.9752
  255MOL0     H34375   7.198   0.570   0.548  1.4562  1.3077 -2.1230
  255MOL0     H34376   7.115   0.802   0.761  1.6524  1.7619  0.5460
  255MOL0     H34377   7.285   0.842   1.113 -1.3807  1.8156  1.4603
  255MOL0     H34378   7.204   0.946   1.001  2.1344  0.6343 -0.4489
  255MOL0     H34379   7.073   0.724   1.162  2.1085  0.1364  0.5969
  255MOL0     H34380   6.992   0.832   1.047  0.3933 -1.8575  0.0764
  255MOL0     H34381   7.081   1.040   1.170 -3.9258  0.9568 -2.1080
  255MOL0     H34382   7.135   0.925   1.301 -1.0138  0.3326  0.0130
  255MOL0     H34383   6.949   1.004   1.378  2.2965 -1.3453  0.2740
  255MOL0     H34384   6.908   0.835   1.337 -1.3731 -0.2442  0.4920
  255MOL0     H34385   6.686   1.104   1.051 -1.6291 -5.2201 -1.6376
  255MOL0     H34386   6.331   1.154   1.078  0.5452 -0.1598  2.1173
  255MOL0     H34387   6.404   1.311   1.095 -0.6373  0.8030  2.5891
  255MOL0     H34388   6.470   1.198   0.968 -1.3943 -1.1591  0.2796
  255MOL0     H34389   6.048   0.974   1.392  3.2427 -0.9623  1.1529
  255MOL0     H34390   5.816   1.039   1.460  0.2093 -0.0128  1.6951
  255MOL0     H34391   5.678   1.383   1.745 -3.1454 -0.4210  0.2082
  255MOL0     H34392   5.772   1.435   1.597  1.4139 -1.0899  0.5093
  255MOL0     H34393   5.547   1.504   1.609 -1.5319 -0.1240 -1.9766
  255MOL0     H34394   5.574   1.398   1.466 -0.8544 -4.4177 -0.5171
  255MOL0     H34395   5.473   1.274   1.726 -0.0719 -0.0178 -0.6714
  255MOL0     H34396   5.450   1.233   1.557  4.4611 -0.6968  0.1737
  255MOL0     H34397   5.301   1.448   1.524  0.9129 -0.3959 -1.5556
  255MOL0     H34398   5.244   1.315   1.601 -0.1806  0.0851 -0.6738
  255MOL0     H34399   5.342   1.549   1.751  0.1100  0.8864 -2.4815
  255MOL0     H34400   5.283   1.392   1.823 -2.5479  1.0664  1.4646
  255MOL0     H34401   5.105   1.582   1.823 -0.5089  0.3652 -0.0335
  255MOL0     H34402   5.123   1.579   1.644 -0.8377 -0.6257 -0.3271
  255MOL0     H34403   5.050   1.345   1.829 -1.0835 -1.3767 -0.5059
  255MOL0     H34404   5.049   1.322   1.662  1.3904  0.7378 -0.5155
  255MOL0     H34405   4.859   1.483   1.633 -0.9834  5.0696  2.2903
  255MOL0     H34406   4.873   1.528   1.803  1.9594 -1.8641  1.3036
  255MOL0     H34407   5.973   1.352   1.703  2.1470  1.3353 -1.3566
  255MOL0     H34408   6.206   1.303   1.609  0.6150 -1.4492  0.9132
  255MOL0     H34409   6.501   1.043   1.496 -2.5605 -0.7204 -1.3752
  255MOL0     H34410   6.712   0.931   1.427  4.7960  0.6700 -2.1420
  255MOL0     H34411   7.965   0.612   0.298 -0.5450  0.5516 -1.0878
  255MOL0     H34412   8.131   0.438   0.380 -2.8256 -2.3531 -0.4859
  255MOL0     H34413   8.384   0.045   0.227  0.7444 -1.4986 -2.5550
  255MOL0     H34414   8.564  -0.092   0.263 -1.9946 -0.2780 -1.2561
  255MOL0     H34415   8.968  -0.022   0.106  2.5462  0.0454  0.1350
  255MOL0     H34416   8.976   0.075   0.250  1.0696 -1.2012  3.6065
  255MOL0     H34417   9.023  -0.132   0.392 -3.0520 -0.5129 -0.9827
  255MOL0     H34418   9.156  -0.086   0.290  0.5633 -1.7377  0.3872
  255MOL0     H34419   8.956  -0.320   0.228 -0.0572  0.4823  2.4720
  255MOL0     H34420   9.100  -0.333   0.323  2.1298  2.1021  0.3233
  255MOL0     H34421   9.208  -0.226   0.100 -1.4001  2.0162  0.1687
  255MOL0     H34422   9.060  -0.241   0.022  4.1244  0.1502 -3.6235
  255MOL0     H34423   9.213  -0.639   0.043  0.4048  0.0273 -3.8383
  255MOL0     H34424   8.840   0.233   0.194  1.2716 -2.2070 -1.5330
  255MOL0     H34425   8.661   0.379   0.161 -0.5509  0.4423 -1.1793
  256MOL0     O34426   2.688   9.208   9.186  0.0224  0.4913  0.2861
  256MOL0     C34427   2.736   9.093   9.192 -0.1157  0.5772  0.8347
  256MOL0     O34428   2.668   8.975   9.205 -0.0476 -0.2554 -0.0049
  256MOL0     C34429   2.533   8.987   9.206 -0.7344 -0.1779 -0.2728
  256MOL0     C34430   2.462   9.002   9.325 -0.9409 -0.8598  0.0252
  256MOL0     C34431   2.322   9.024   9.320 -0.4096  0.2623  0.7955
  256MOL0     C34432   2.251   9.015   9.192  0.5767  0.2500  0.8085
  256MOL0     O34433   2.111   9.021   9.173  0.0154 -0.7915 -1.1184
  256MOL0     C34434   2.030   9.024   9.298 -0.7431 -0.0352  0.4234
  256MOL0     C34435   1.875   9.035   9.252  0.1346  0.2561 -0.6940
  256MOL0     C34436   1.783   8.941   9.329 -0.4216  0.1642 -0.3643
  256MOL0     C34437   1.636   8.921   9.268  0.2877  0.2067 -0.2249
  256MOL0     C34438   1.576   9.059   9.249 -0.6887 -0.8791 -0.3013
  256MOL0     C34439   1.432   9.054   9.225 -0.5118  0.2975  0.0074
  256MOL0     C34440   1.398   8.969   9.105 -0.4071  0.1661  0.5278
  256MOL0     C34441   1.254   8.988   9.076 -0.2823 -1.0380  0.6285
  256MOL0     N34442   1.163   8.959   9.184  0.0457 -0.1650  0.6660
  256MOL0     C34443   1.110   8.834   9.210  0.3194 -0.4333  0.4520
  256MOL0     C34444   1.016   8.851   9.310  0.5108  1.1029  0.1137
  256MOL0     C34445   0.951   8.738   9.386 -0.4976 -0.3525 -0.2571
  256MOL0     C34446   0.799   8.764   9.394  0.1976 -0.0636 -0.6841
  256MOL0     C34447   0.737   8.661   9.487 -0.5896  0.0399  0.1972
  256MOL0     C34448   0.584   8.672   9.477  0.4778  0.5033 -0.8855
  256MOL0     O34449   0.528   8.638   9.605  0.4728 -0.3776  0.0180
  256MOL0     C34450   0.397   8.594   9.622  0.4632  0.1333  0.3444
  256MOL0     C34451   0.352   8.547   9.746 -0.8774 -0.0647 -0.7997
  256MOL0     C34452   0.221   8.507   9.776 -0.1452 -0.2961  0.3376
  256MOL0     C34453   0.202   8.451   9.915  0.5262 -0.0946  0.4086
  256MOL0     C34454   0.132   8.514   9.669 -0.0052 -0.8828  0.2304
  256MOL0     C34455  -0.014   8.462   9.686 -0.1836 -0.4788  0.1730
  256MOL0     O34456  -0.100   8.532   9.621 -0.5867  0.1045 -0.2432
  256MOL0     C34457  -0.229   8.484   9.589  1.0904  0.1470 -0.5005
  256MOL0     C34458  -0.342   8.561   9.621  0.0911  0.5135 -0.1099
  256MOL0     C34459  -0.472   8.536   9.590 -0.1337 -0.4709  0.2877
  256MOL0     C34460  -0.501   8.406   9.544  0.3850  0.1315  0.3995
  256MOL0     O34461  -0.630   8.365   9.522  0.0833  0.5946  0.1317
  256MOL0     C34462  -0.728   8.454   9.468 -0.4463 -0.7855 -0.2352
  256MOL0     C34463  -0.849   8.373   9.432  0.0178  0.4201  0.2883
  256MOL0     C34464  -0.824   8.265   9.321 -0.0461 -1.0526  0.5859
  256MOL0     C34465  -0.943   8.245   9.228  0.3007  0.1272  0.1462
  256MOL0     C34466  -0.917   8.332   9.099  0.5761  0.3376  0.5374
  256MOL0     C34467  -1.030   8.289   9.003 -0.0546 -0.4183  1.2100
  256MOL0     C34468  -0.990   8.344   8.859  0.0468  0.6641  0.1332
  256MOL0     C34469  -1.117   8.364   8.784  0.3572  0.1933  0.7901
  256MOL0    Cl34470  -1.186   8.217   8.727  0.7183 -0.1870  0.0996
  256MOL0     C34471  -0.394   8.314   9.530  1.1221  0.0576  0.4009
  256MOL0     C34472  -0.261   8.361   9.540  0.5061  0.5525  0.0335
  256MOL0     O34473  -0.040   8.376   9.770  0.1690  0.0204  0.0379
  256MOL0     C34474   0.167   8.570   9.549  0.7549 -0.7077  0.1620
  256MOL0     C34475   0.296   8.609   9.523  0.4806  0.3052  0.7579
  256MOL0     N34476   0.998   8.988   9.328 -0.0426  0.3369  0.2695
  256MOL0     N34477   1.079   9.045   9.250 -0.8782  0.0650 -0.0348
  256MOL0     C34478   2.333   8.982   9.079  0.6294  0.3495 -1.4763
  256MOL0     C34479   2.468   8.961   9.083 -1.4090 -0.3217  0.1820
  256MOL0     C34480   2.879   9.094   9.204  0.6584  0.0673  0.3780
  256MOL0     C34481   2.955   8.983   9.152  0.7945  0.0837  1.3381
  256MOL0     C34482   3.094   8.971   9.163 -0.0589  0.0901 -1.1055
  256MOL0     C34483   3.163   9.060   9.248  0.4984 -0.1245 -0.2574
  256MOL0     O34484   3.297   9.042   9.263 -0.3875 -0.0504 -0.0420
  256MOL0     C34485   3.364   9.113   9.369  0.1793  0.6790  0.4442
  256MOL0     C34486   3.509   9.079   9.370 -0.8542  0.3130 -0.9044
  256MOL0     C34487   3.575   9.074   9.230  0.2893  0.4935 -0.3334
  256MOL0     C34488   3.714   9.134   9.220  0.0821  0.0432  1.0839
  256MOL0     C34489   3.779   9.100   9.091  0.3975 -0.1047  0.1036
  256MOL0     C34490   3.840   9.083   8.984  0.4167  0.5399  0.1212
  256MOL0     C34491   3.088   9.168   9.300  0.0376 -0.4187  0.3489
  256MOL0     C34492   2.954   9.193   9.270 -0.4916 -0.2252  0.2140
  256MOL0     H34493   2.516   8.996   9.419 -1.9895 -3.2960  0.5365
  256MOL0     H34494   2.275   9.046   9.415  2.4120  2.5640  1.8106
  256MOL0     H34495   2.045   8.929   9.349  0.1629 -1.3308 -2.0731
  256MOL0     H34496   2.052   9.110   9.362  3.8222  1.4103 -2.6014
  256MOL0     H34497   1.838   9.136   9.270 -1.3562 -0.4935  0.7706
  256MOL0     H34498   1.874   9.013   9.145  2.6472  0.4135 -0.7961
  256MOL0     H34499   1.827   8.842   9.343 -0.7683  0.2649  1.7567
  256MOL0     H34500   1.761   8.989   9.425  0.4625  2.9818 -1.4699
  256MOL0     H34501   1.639   8.856   9.180  1.3381 -0.1966  0.0935
  256MOL0     H34502   1.573   8.871   9.341 -0.8409  1.7317 -0.1190
  256MOL0     H34503   1.584   9.127   9.334 -1.8423 -0.0418 -0.8335
  256MOL0     H34504   1.614   9.100   9.155  2.4073  0.8929  1.5414
  256MOL0     H34505   1.380   9.008   9.309 -1.4085 -0.9098 -1.1847
  256MOL0     H34506   1.398   9.158   9.214  2.8013  1.3098 -2.1022
  256MOL0     H34507   1.449   9.002   9.014 -1.6648 -2.0439 -1.0719
  256MOL0     H34508   1.413   8.863   9.128  0.1022 -0.2261 -1.4510
  256MOL0     H34509   1.229   8.919   8.994 -0.2720 -1.6854  1.1617
  256MOL0     H34510   1.254   9.091   9.040  3.7515  0.5737  4.4091
  256MOL0     H34511   1.139   8.751   9.147  0.7878  0.3455 -0.3745
  256MOL0     H34512   0.982   8.638   9.353 -1.7829 -1.8927  2.8869
  256MOL0     H34513   0.984   8.737   9.490 -0.4909  4.0193 -0.0316
  256MOL0     H34514   0.749   8.752   9.298 -2.9327 -0.8952  0.9292
  256MOL0     H34515   0.777   8.866   9.424  1.1761  0.3376 -1.2657
  256MOL0     H34516   0.768   8.683   9.590 -1.9310 -2.2604  1.1900
  256MOL0     H34517   0.773   8.560   9.465 -0.2738  0.3823 -0.9059
  256MOL0     H34518   0.546   8.618   9.390 -2.3279 -1.9868  1.6404
  256MOL0     H34519   0.545   8.774   9.470  0.3876  0.5571  0.2249
  256MOL0     H34520   0.434   8.542   9.817  0.1877  0.7580 -1.9206
  256MOL0     H34521   0.126   8.505   9.972 -0.1255  0.0227 -0.5513
  256MOL0     H34522   0.178   8.344   9.908 -1.8789  0.3703  0.5985
  256MOL0     H34523   0.294   8.462   9.972  1.5097 -3.3089 -0.3324
  256MOL0     H34524  -0.311   8.660   9.653 -0.1630  1.3289 -2.2384
  256MOL0     H34525  -0.550   8.609   9.608 -0.9950 -1.4157  0.4605
  256MOL0     H34526  -0.755   8.529   9.543  0.1978 -0.8775  0.1017
  256MOL0     H34527  -0.680   8.505   9.384  0.7954 -0.0669  0.8726
  256MOL0     H34528  -0.888   8.323   9.521 -1.3895 -0.4037 -0.7640
  256MOL0     H34529  -0.928   8.440   9.398  1.5047  1.3262 -1.6505
  256MOL0     H34530  -0.788   8.171   9.364  0.1308 -1.4119 -0.3177
  256MOL0     H34531  -0.744   8.308   9.259 -0.7145  1.0837  1.1211
  256MOL0     H34532  -0.946   8.138   9.207 -1.4726 -0.1877  1.6711
  256MOL0     H34533  -1.032   8.276   9.284 -0.3945 -0.3576 -0.6627
  256MOL0     H34534  -0.822   8.312   9.047 -0.3715  1.3574 -1.6970
  256MOL0     H34535  -0.903   8.436   9.128  2.5636 -0.2665  2.0154
  256MOL0     H34536  -1.036   8.180   9.010 -1.0006 -0.2555  4.8650
  256MOL0     H34537  -1.120   8.341   9.037  0.5581  0.9479  0.8466
  256MOL0     H34538  -0.925   8.274   8.806  0.3000 -0.1844  1.5126
  256MOL0     H34539  -0.937   8.438   8.880  1.1134  0.4001 -1.2761
  256MOL0     H34540  -1.099   8.428   8.697 -1.1650  0.3884  0.6005
  256MOL0     H34541  -1.184   8.414   8.855  1.7122  2.8247  0.3364
  256MOL0     H34542  -0.413   8.210   9.505  0.3965  0.1883  0.3662
  256MOL0     H34543  -0.176   8.296   9.521 -1.6404 -2.6807  0.6770
  256MOL0     H34544   0.094   8.589   9.471  1.4671  0.0675 -0.3331
  256MOL0     H34545   0.320   8.645   9.424 -1.3185  0.5206  0.3655
  256MOL0     H34546   2.274   8.965   8.989  1.0819 -2.3295 -1.3587
  256MOL0     H34547   2.523   8.946   8.991  0.3661 -1.2547  1.3302
  256MOL0     H34548   2.907   8.902   9.097  2.6087  2.1494 -3.9536
  256MOL0     H34549   3.162   8.897   9.121  1.3984  1.0925 -0.6194
  256MOL0     H34550   3.357   9.221   9.359  2.1018  0.7767 -0.3448
  256MOL0     H34551   3.331   9.079   9.467  1.9675 -0.0143  0.8437
  256MOL0     H34552   3.530   8.984   9.421 -1.1802  0.1591 -1.0525
  256MOL0     H34553   3.561   9.151   9.433 -0.3510 -1.2841  0.5932
  256MOL0     H34554   3.511   9.128   9.160 -1.1619 -0.6611  0.0494
  256MOL0     H34555   3.563   8.972   9.192 -2.5245 -0.1132  1.7997
  256MOL0     H34556   3.776   9.115   9.308 -0.8299  1.4678  2.0684
  256MOL0     H34557   3.695   9.242   9.220 -0.7054 -0.0762  0.0464
  256MOL0     H34558   3.890   9.049   8.896  0.5509 -1.4975  0.9387
  256MOL0     H34559   3.127   9.254   9.354 -2.3159  3.0705 -2.9853
  256MOL0     H34560   2.907   9.283   9.308 -0.5602  0.1837 -0.8170
  257MOL0     O34561   1.080   5.709   4.310  0.2028  0.2032  0.0560
  257MOL0     C34562   1.137   5.628   4.237  0.3111  0.1949  0.5751
  257MOL0     O34563   1.065   5.538   4.158  0.2347 -0.2240  0.0556
  257MOL0     C34564   0.926   5.550   4.148 -0.1005  0.4914  0.2757
  257MOL0     C34565   0.851   5.603   4.038  0.0088 -0.6532 -0.0948
  257MOL0     C34566   0.705   5.576   4.034 -0.2579  0.3166  0.6374
  257MOL0     C34567   0.649   5.512   4.144 -0.4061 -1.0179  0.6094
  257MOL0     O34568   0.513   5.496   4.144 -0.6155 -0.2519  0.3776
  257MOL0     C34569   0.458   5.373   4.178 -0.2568  0.0862 -0.0285
  257MOL0     C34570   0.313   5.384   4.198  1.4173 -0.9138  0.0032
  257MOL0     C34571   0.279   5.488   4.305  0.0590  0.1716 -0.6895
  257MOL0     C34572   0.136   5.525   4.316 -0.0775  0.6312 -0.3533
  257MOL0     C34573   0.122   5.615   4.446  0.6293 -0.1042 -0.6287
  257MOL0     C34574  -0.022   5.670   4.450  0.1139 -0.7315  0.3288
  257MOL0     C34575  -0.074   5.708   4.588  0.9405 -0.1126 -0.6295
  257MOL0     C34576  -0.136   5.590   4.665 -0.5505 -0.4478  0.2473
  257MOL0     N34577  -0.175   5.646   4.798  0.6659 -0.3292  0.3019
  257MOL0     C34578  -0.127   5.612   4.918 -0.1962 -0.8681  0.9240
  257MOL0     C34579  -0.208   5.666   5.007 -0.2383  0.5590 -0.1894
  257MOL0     C34580  -0.204   5.609   5.147 -0.4549  0.4959  0.5648
  257MOL0     C34581  -0.187   5.719   5.246 -0.2058 -0.6435 -0.1324
  257MOL0     C34582  -0.322   5.786   5.276  0.5369 -0.5168 -0.4781
  257MOL0     C34583  -0.312   5.885   5.386 -0.1148 -0.5067  0.5026
  257MOL0     O34584  -0.400   5.987   5.362 -0.3505 -0.4684  0.3537
  257MOL0     C34585  -0.528   5.972   5.386 -0.1905  0.2794  0.5614
  257MOL0     C34586  -0.582   5.879   5.480 -0.0308 -0.8029 -0.3148
  257MOL0     C34587  -0.720   5.861   5.484  0.0035 -0.2180  0.8273
  257MOL0     C34588  -0.753   5.732   5.550  0.4552 -0.4228  0.5453
  257MOL0     C34589  -0.812   5.945   5.409 -0.1770 -0.1112  0.2368
  257MOL0     C34590  -0.957   5.945   5.423  0.5700  0.1325 -0.5296
  257MOL0     O34591  -1.005   5.836   5.485 -0.2391  1.0949  0.3457
  257MOL0     C34592  -1.125   5.828   5.537 -0.0207  0.1660  0.0578
  257MOL0     C34593  -1.149   5.833   5.675 -0.2018 -0.4466  0.1167
  257MOL0     C34594  -1.279   5.810   5.718  0.4247 -0.4688  0.1224
  257MOL0     C34595  -1.385   5.780   5.628 -0.4158  0.5040 -0.1978
  257MOL0     O34596  -1.510   5.760   5.694  0.3927 -1.1492  0.0543
  257MOL0     C34597  -1.623   5.719   5.622  0.2637  0.1210  0.1512
  257MOL0     C34598  -1.735   5.684   5.720 -0.4304 -0.4397 -0.9598
  257MOL0     C34599  -1.860   5.649   5.640 -0.4705 -0.3716 -0.1514
  257MOL0     C34600  -1.969   5.635   5.742  1.1230  0.6336  0.7234
  257MOL0     C34601  -2.097   5.577   5.687  0.1688  0.5684  0.3005
  257MOL0     C34602  -2.218   5.571   5.787 -0.4540  0.7959  1.1346
  257MOL0     C34603  -2.278   5.715   5.815 -1.0349  0.6756 -0.5932
  257MOL0     C34604  -2.429   5.696   5.847 -0.1730  0.0850  0.1065
  257MOL0    Cl34605  -2.447   5.592   5.990 -0.4711  0.0098  0.0081
  257MOL0     C34606  -1.359   5.780   5.490  0.7651  0.7847 -1.0253
  257MOL0     C34607  -1.230   5.802   5.445  0.4103  0.3885 -0.5951
  257MOL0     O34608  -1.019   6.045   5.399  0.0133 -0.3044 -0.1021
  257MOL0     C34609  -0.751   6.038   5.328  0.2997 -0.6085  0.0176
  257MOL0     C34610  -0.612   6.057   5.310 -0.4837  0.3896  0.1743
  257MOL0     N34611  -0.316   5.727   4.938 -0.1812  0.2782 -0.2937
  257MOL0     N34612  -0.289   5.723   4.816  0.0875  0.0605  0.0891
  257MOL0     C34613   0.722   5.482   4.254 -0.0187  0.2248  0.4132
  257MOL0     C34614   0.860   5.489   4.252  1.3920  0.9316  0.0629
  257MOL0     C34615   1.279   5.624   4.252 -0.8312  0.0482  0.7439
  257MOL0     C34616   1.357   5.514   4.203  0.1135 -0.4252  0.1443
  257MOL0     C34617   1.494   5.499   4.222 -0.0823  0.1360  0.6367
  257MOL0     C34618   1.559   5.593   4.297  0.4069 -0.0494  0.7728
  257MOL0     O34619   1.684   5.552   4.329 -0.6433 -0.2109  0.3421
  257MOL0     C34620   1.771   5.637   4.405  0.0632 -0.4294  0.1499
  257MOL0     C34621   1.885   5.548   4.459  0.0795 -0.6010  0.1497
  257MOL0     C34622   1.983   5.504   4.349 -0.8317  0.0192 -0.0041
  257MOL0     C34623   2.098   5.420   4.413 -0.3282  0.8843  0.6241
  257MOL0     C34624   2.167   5.490   4.518 -0.9503  0.3514 -0.2186
  257MOL0     C34625   2.232   5.555   4.600 -0.0269  0.8073  1.0460
  257MOL0     C34626   1.496   5.713   4.331 -0.5391  0.3766 -0.0189
  257MOL0     C34627   1.359   5.729   4.317  0.0974  0.3136  0.3821
  257MOL0     H34628   0.888   5.670   3.960  3.1182 -2.4493 -0.3431
  257MOL0     H34629   0.647   5.603   3.946  0.1971 -2.9301 -0.8252
  257MOL0     H34630   0.478   5.305   4.095  2.3919  0.2941  0.3607
  257MOL0     H34631   0.494   5.330   4.272 -0.0175  0.1833 -0.0752
  257MOL0     H34632   0.263   5.406   4.103  0.7765  0.7147  0.6676
  257MOL0     H34633   0.265   5.295   4.240  0.4529  0.2564  1.5101
  257MOL0     H34634   0.322   5.447   4.398  3.6159  1.1243 -1.7660
  257MOL0     H34635   0.325   5.584   4.282  3.4996 -1.2815 -0.4918
  257MOL0     H34636   0.115   5.590   4.230  1.7857 -0.1044 -1.4167
  257MOL0     H34637   0.059   5.447   4.321  0.1868  0.3750 -0.3119
  257MOL0     H34638   0.133   5.562   4.541  0.8716  0.2813 -0.4410
  257MOL0     H34639   0.199   5.693   4.446  0.8183 -0.2813 -1.3392
  257MOL0     H34640  -0.030   5.763   4.393  0.7307 -0.5994  0.4470
  257MOL0     H34641  -0.078   5.590   4.401  0.2840 -0.6533  0.0060
  257MOL0     H34642  -0.007   5.772   4.645 -2.4873  1.1848  2.3062
  257MOL0     H34643  -0.157   5.775   4.564  2.1207  0.5390 -3.2922
  257MOL0     H34644  -0.060   5.512   4.673 -0.8479 -0.5907  2.0396
  257MOL0     H34645  -0.226   5.564   4.607 -0.4889  0.0629 -0.0902
  257MOL0     H34646  -0.047   5.542   4.940  0.0632 -0.1757  2.3480
  257MOL0     H34647  -0.293   5.548   5.164 -1.9217  2.3408 -0.0320
  257MOL0     H34648  -0.120   5.541   5.158 -0.9256 -0.0297  0.9438
  257MOL0     H34649  -0.110   5.789   5.213 -1.2029  0.3996 -0.3390
  257MOL0     H34650  -0.145   5.680   5.339  1.2598  0.9916 -0.0485
  257MOL0     H34651  -0.389   5.704   5.303  1.5181 -1.1869  0.0003
  257MOL0     H34652  -0.370   5.830   5.189 -0.4479 -2.2960 -0.8837
  257MOL0     H34653  -0.214   5.929   5.367 -2.0006  3.7575 -0.5463
  257MOL0     H34654  -0.318   5.833   5.483 -1.2450  2.6132  2.2313
  257MOL0     H34655  -0.527   5.805   5.537 -1.4121  0.7604  3.3975
  257MOL0     H34656  -0.671   5.660   5.555 -1.5103 -2.7692  0.8731
  257MOL0     H34657  -0.781   5.760   5.652  1.3880 -1.8269  1.2198
  257MOL0     H34658  -0.839   5.685   5.502 -0.4953  0.8048  0.9899
  257MOL0     H34659  -1.072   5.857   5.747  0.4494 -2.2775  0.0961
  257MOL0     H34660  -1.311   5.822   5.821 -2.3492  4.0473 -1.0086
  257MOL0     H34661  -1.656   5.788   5.544 -2.4159  1.0853  1.9565
  257MOL0     H34662  -1.607   5.625   5.568  1.2187  0.7933 -0.7626
  257MOL0     H34663  -1.692   5.599   5.773 -1.0572 -1.0248 -1.3801
  257MOL0     H34664  -1.747   5.773   5.783 -1.6346  0.1497 -1.9726
  257MOL0     H34665  -1.863   5.561   5.575 -2.0810  0.3752 -1.1539
  257MOL0     H34666  -1.883   5.734   5.576  0.6277  0.6609  0.7727
  257MOL0     H34667  -1.939   5.580   5.832 -4.2325  0.1826  2.6012
  257MOL0     H34668  -2.002   5.731   5.782 -0.8238 -0.0483  0.8691
  257MOL0     H34669  -2.099   5.471   5.663  0.0822  0.6321  0.0314
  257MOL0     H34670  -2.127   5.640   5.603 -1.1255  2.0687  1.7959
  257MOL0     H34671  -2.290   5.508   5.734 -0.0803  0.1290  1.4160
  257MOL0     H34672  -2.192   5.513   5.876 -0.4685  0.1025  0.6939
  257MOL0     H34673  -2.263   5.775   5.724  3.9718  1.2503  0.2881
  257MOL0     H34674  -2.230   5.762   5.902  0.8072 -1.5000 -0.3410
  257MOL0     H34675  -2.490   5.667   5.761 -1.4308  1.6873  0.4040
  257MOL0     H34676  -2.470   5.794   5.873 -0.6267 -0.1729  0.3961
  257MOL0     H34677  -1.441   5.759   5.422  0.9161  2.9042 -1.9487
  257MOL0     H34678  -1.214   5.799   5.338  1.6484 -0.0899 -0.4142
  257MOL0     H34679  -0.809   6.103   5.263  0.4747 -1.6863 -1.2516
  257MOL0     H34680  -0.572   6.123   5.234  0.8378 -1.6098 -0.9710
  257MOL0     H34681   0.666   5.438   4.336 -0.7232  0.0532 -0.1469
  257MOL0     H34682   0.923   5.448   4.329 -0.3141  1.8488  2.0343
  257MOL0     H34683   1.298   5.437   4.154 -2.5350  2.2359 -1.1724
  257MOL0     H34684   1.549   5.405   4.212 -0.9176 -0.5114  1.8768
  257MOL0     H34685   1.816   5.715   4.342 -1.7621 -0.9431 -1.9023
  257MOL0     H34686   1.723   5.680   4.494 -0.8531  1.2473 -1.0939
  257MOL0     H34687   1.850   5.458   4.512 -1.4427  0.2514  0.6670
  257MOL0     H34688   1.930   5.600   4.544  2.3064  0.2382 -1.4575
  257MOL0     H34689   2.034   5.592   4.307 -0.3264  0.5577  1.6886
  257MOL0     H34690   1.926   5.449   4.273 -0.7045 -0.5100  0.2801
  257MOL0     H34691   2.161   5.406   4.325 -2.8149 -0.5213 -1.0291
  257MOL0     H34692   2.063   5.321   4.441  0.2179  0.6068  0.3472
  257MOL0     H34693   2.280   5.611   4.678  3.9567 -0.6457 -0.1318
  257MOL0     H34694   1.558   5.787   4.380 -0.6859  0.1695  0.4784
  257MOL0     H34695   1.311   5.817   4.359  1.1523  0.5840  1.0624
  258MOL0     O34696   1.002   8.116   7.102 -0.0650 -0.1356 -0.2256
  258MOL0     C34697   1.012   8.151   6.988 -0.7349  0.2945 -0.1646
  258MOL0     O34698   0.935   8.231   6.928  0.3234  0.5146  0.3133
  258MOL0     C34699   0.800   8.234   6.966 -0.4718  0.5340  0.2977
  258MOL0     C34700   0.703   8.168   6.886  0.4417 -0.4652  1.3612
  258MOL0     C34701   0.560   8.188   6.906 -0.2542 -0.6972 -0.0757
  258MOL0     C34702   0.526   8.254   7.029  0.5196 -0.7108 -1.0013
  258MOL0     O34703   0.400   8.258   7.064  0.9056  0.2901  0.1344
  258MOL0     C34704   0.321   8.144   7.049  0.2847 -0.6481 -0.1207
  258MOL0     C34705   0.186   8.182   7.122  0.0043  0.4170 -0.2555
  258MOL0     C34706   0.077   8.086   7.077  0.5492  0.0999  0.0600
  258MOL0     C34707  -0.058   8.125   7.147 -0.0535 -0.0469 -0.3729
  258MOL0     C34708  -0.164   8.010   7.146 -0.7385 -0.9572  0.7558
  258MOL0     C34709  -0.289   8.059   7.212  0.1440 -0.0232 -0.5930
  258MOL0     C34710  -0.401   7.970   7.158 -0.5013  0.1981  0.9061
  258MOL0     C34711  -0.533   8.003   7.213 -0.0816  0.2279 -0.9301
  258MOL0     N34712  -0.648   7.897   7.201 -0.3978 -0.5649  0.3500
  258MOL0     C34713  -0.656   7.779   7.262  0.6551  0.4108 -0.3052
  258MOL0     C34714  -0.758   7.719   7.201  0.6406 -1.0395  0.2405
  258MOL0     C34715  -0.809   7.578   7.222 -0.9256  0.2819  0.1190
  258MOL0     C34716  -0.966   7.562   7.218 -0.9393  0.6718  0.3263
  258MOL0     C34717  -1.024   7.602   7.351  0.5607  0.8045  1.1657
  258MOL0     C34718  -1.171   7.554   7.353  0.6076 -1.0423 -0.5831
  258MOL0     O34719  -1.251   7.616   7.462  0.3444 -0.5889 -0.3395
  258MOL0     C34720  -1.384   7.595   7.469  0.3149 -0.7430  0.4249
  258MOL0     C34721  -1.459   7.512   7.378 -0.3298 -0.8498 -0.2042
  258MOL0     C34722  -1.599   7.501   7.398  1.1916  1.3097  0.1671
  258MOL0     C34723  -1.673   7.416   7.293  0.5514  0.4847 -0.7572
  258MOL0     C34724  -1.668   7.575   7.493 -0.8234  0.3412 -0.4395
  258MOL0     C34725  -1.822   7.583   7.507 -0.3909  0.0760 -0.0229
  258MOL0     O34726  -1.899   7.561   7.399 -0.1827 -0.0868  0.4371
  258MOL0     C34727  -2.035   7.558   7.414 -0.0442 -0.2284  0.2409
  258MOL0     C34728  -2.094   7.460   7.326 -0.1123 -0.5705 -0.6241
  258MOL0     C34729  -2.233   7.443   7.326  0.1787 -0.7149 -0.5501
  258MOL0     C34730  -2.318   7.534   7.401 -0.0878  0.5670  0.7086
  258MOL0     O34731  -2.456   7.532   7.396 -0.3674  0.1825  0.0529
  258MOL0     C34732  -2.529   7.454   7.303  0.0023  0.5002 -0.0917
  258MOL0     C34733  -2.677   7.501   7.307  1.0008  0.4470  0.2014
  258MOL0     C34734  -2.737   7.469   7.445 -0.0716  0.2805  0.0840
  258MOL0     C34735  -2.893   7.495   7.446 -1.0635  0.0960 -0.9461
  258MOL0     C34736  -2.958   7.500   7.584 -1.3816  0.1549  0.5119
  258MOL0     C34737  -3.100   7.550   7.585 -0.5849  0.0098  0.0856
  258MOL0     C34738  -3.210   7.457   7.533  0.0886 -1.0541  0.9059
  258MOL0     C34739  -3.315   7.433   7.631 -0.3479  0.0039 -0.5306
  258MOL0    Cl34740  -3.232   7.382   7.789  0.0220 -0.0298 -0.2333
  258MOL0     C34741  -2.259   7.618   7.491 -0.2935  0.6240  0.0884
  258MOL0     C34742  -2.120   7.631   7.499  0.2430  0.9901  0.2009
  258MOL0     O34743  -1.868   7.624   7.617  0.2288  0.2023 -0.3708
  258MOL0     C34744  -1.588   7.659   7.576 -0.0906  0.2812  0.2396
  258MOL0     C34745  -1.456   7.674   7.553 -0.6355  0.6281 -1.0997
  258MOL0     N34746  -0.819   7.813   7.118 -0.0144 -0.5626 -0.2786
  258MOL0     N34747  -0.755   7.923   7.121  0.3619 -0.0150  0.0516
  258MOL0     C34748   0.630   8.298   7.119 -0.1088  0.2288  0.3443
  258MOL0     C34749   0.762   8.310   7.084 -0.0530 -0.4977  0.1822
  258MOL0     C34750   1.118   8.085   6.907  0.8258  0.2550 -0.5373
  258MOL0     C34751   1.189   7.991   6.980 -0.2531 -0.0029 -0.1715
  258MOL0     C34752   1.288   7.912   6.920 -0.8441  0.3203 -0.2436
  258MOL0     C34753   1.309   7.928   6.783 -0.2245 -0.2268  0.4691
  258MOL0     O34754   1.417   7.857   6.730 -0.2926 -0.2385  0.4070
  258MOL0     C34755   1.455   7.848   6.593  0.2845  0.4627  0.6217
  258MOL0     C34756   1.548   7.737   6.595 -0.4015  0.3197  0.5447
  258MOL0     C34757   1.600   7.699   6.454 -0.4456  0.0149 -0.0598
  258MOL0     C34758   1.670   7.815   6.380  0.9519  0.5281  0.6559
  258MOL0     C34759   1.744   7.768   6.263  0.4359 -0.4617  0.6749
  258MOL0     C34760   1.797   7.743   6.164 -0.3775 -0.7843  0.5870
  258MOL0     C34761   1.240   8.028   6.708 -0.1838 -0.1429 -1.1555
  258MOL0     C34762   1.147   8.100   6.776 -0.0893 -0.7335  0.1287
  258MOL0     H34763   0.726   8.114   6.795  0.5836 -0.7724  1.5751
  258MOL0     H34764   0.485   8.131   6.853 -1.1726 -1.0077  1.5049
  258MOL0     H34765   0.296   8.126   6.944 -1.9772 -1.1500  0.4427
  258MOL0     H34766   0.371   8.052   7.079 -0.1375 -0.8160  0.0880
  258MOL0     H34767   0.192   8.178   7.231  0.8895 -1.0857 -0.3324
  258MOL0     H34768   0.158   8.282   7.086 -2.3937 -0.6417 -1.5843
  258MOL0     H34769   0.067   8.085   6.968  0.9944 -0.9448  0.0156
  258MOL0     H34770   0.103   7.985   7.110 -2.0124 -1.3276 -1.8676
  258MOL0     H34771  -0.040   8.166   7.247  1.6265 -0.9286 -0.2761
  258MOL0     H34772  -0.097   8.203   7.082 -1.0788 -0.8819 -0.7894
  258MOL0     H34773  -0.169   7.979   7.041  2.1284  2.3422 -0.5573
  258MOL0     H34774  -0.131   7.923   7.204 -3.5923 -1.2019  2.1490
  258MOL0     H34775  -0.283   8.049   7.321  0.4342 -1.2223 -0.7056
  258MOL0     H34776  -0.315   8.164   7.192 -1.0776 -0.9435 -4.7363
  258MOL0     H34777  -0.400   7.981   7.049  0.0955  1.6486  1.0335
  258MOL0     H34778  -0.389   7.865   7.184 -1.9639  0.1393  1.3816
  258MOL0     H34779  -0.563   8.103   7.178 -1.9816  0.3176  0.7487
  258MOL0     H34780  -0.509   8.013   7.319 -0.7930 -2.0551 -0.5013
  258MOL0     H34781  -0.591   7.721   7.327  1.2246 -1.3410 -2.3219
  258MOL0     H34782  -0.760   7.497   7.167 -3.1843 -2.0439  1.3202
  258MOL0     H34783  -0.780   7.551   7.324 -1.5004  1.3602  0.5848
  258MOL0     H34784  -1.000   7.458   7.213  1.4505 -0.2709  2.0034
  258MOL0     H34785  -1.010   7.619   7.135  0.2082  0.8624 -0.1729
  258MOL0     H34786  -1.017   7.710   7.366  0.6542  0.8577  0.7276
  258MOL0     H34787  -0.975   7.550   7.434  1.5875  0.5734  0.4213
  258MOL0     H34788  -1.177   7.445   7.367 -1.4517 -0.8034  0.7701
  258MOL0     H34789  -1.212   7.592   7.259 -2.4053  1.8179  1.6763
  258MOL0     H34790  -1.405   7.439   7.318  0.3381 -2.3963  2.1094
  258MOL0     H34791  -1.608   7.379   7.213  1.2154 -0.1164  0.0430
  258MOL0     H34792  -1.711   7.328   7.347  0.1274  1.2338  0.1852
  258MOL0     H34793  -1.764   7.457   7.248 -1.6157  0.9472  3.5281
  258MOL0     H34794  -2.032   7.390   7.272 -0.8827 -2.7835  1.2045
  258MOL0     H34795  -2.277   7.371   7.258 -0.6088 -0.8836  0.1117
  258MOL0     H34796  -2.481   7.461   7.204  2.1507  0.3132  0.8734
  258MOL0     H34797  -2.528   7.349   7.332 -1.3138  1.5058  4.2897
  258MOL0     H34798  -2.683   7.608   7.289 -1.0666  0.5312  1.0323
  258MOL0     H34799  -2.739   7.449   7.233  2.0310  0.4115 -0.6517
  258MOL0     H34800  -2.693   7.540   7.515 -1.1024 -1.8333  3.0501
  258MOL0     H34801  -2.703   7.369   7.474  0.9134  0.8041  0.7730
  258MOL0     H34802  -2.914   7.590   7.396 -0.5910  2.5274  3.0307
  258MOL0     H34803  -2.933   7.411   7.388  0.0682 -0.0236 -1.5892
  258MOL0     H34804  -2.899   7.561   7.653  1.7662  0.1803 -1.9677
  258MOL0     H34805  -2.966   7.398   7.621  0.1464  0.9543  3.3702
  258MOL0     H34806  -3.118   7.579   7.689 -0.6769  0.1656  0.0259
  258MOL0     H34807  -3.098   7.638   7.519  0.6289  0.8637  1.2062
  258MOL0     H34808  -3.158   7.367   7.498 -0.2069 -0.5382 -0.9694
  258MOL0     H34809  -3.254   7.508   7.446 -0.0810  1.9121  2.5991
  258MOL0     H34810  -3.379   7.351   7.596  3.3629 -2.8558 -1.1601
  258MOL0     H34811  -3.377   7.521   7.654  2.7761  1.8274  1.6003
  258MOL0     H34812  -2.313   7.684   7.558  1.1510  0.3922  1.5398
  258MOL0     H34813  -2.092   7.713   7.566  0.7308  1.7369 -0.8790
  258MOL0     H34814  -1.631   7.725   7.650 -2.4276  1.3356 -1.8726
  258MOL0     H34815  -1.387   7.731   7.614  1.2984 -1.9589 -0.6641
  258MOL0     H34816   0.600   8.337   7.216 -1.2338 -3.5034  1.6573
  258MOL0     H34817   0.826   8.369   7.149  0.7006 -0.4454 -0.5995
  258MOL0     H34818   1.186   7.970   7.086 -0.3306 -0.6496 -0.2974
  258MOL0     H34819   1.336   7.829   6.971 -4.1323 -1.1960  0.6375
  258MOL0     H34820   1.365   7.831   6.532  1.0507  1.4418 -0.8553
  258MOL0     H34821   1.498   7.940   6.552  0.5917  0.0680  0.0442
  258MOL0     H34822   1.491   7.654   6.638 -0.5672 -0.6584 -1.4512
  258MOL0     H34823   1.630   7.771   6.658  0.3802  1.4532 -1.0111
  258MOL0     H34824   1.523   7.649   6.396  0.7672 -0.4789 -1.2857
  258MOL0     H34825   1.667   7.613   6.459 -2.3477 -1.5619 -0.6144
  258MOL0     H34826   1.739   7.872   6.443  0.5765  2.4917 -0.6438
  258MOL0     H34827   1.599   7.890   6.345 -0.1421 -0.6741  0.2004
  258MOL0     H34828   1.827   7.724   6.063  1.5963 -1.0344  1.1838
  258MOL0     H34829   1.259   8.049   6.604 -0.5138  0.3366 -1.1182
  258MOL0     H34830   1.093   8.173   6.717  1.2371 -0.0880 -0.3367
  259MOL0     O34831   5.390   4.061   2.783 -0.1332 -0.7263 -0.2987
  259MOL0     C34832   5.428   4.077   2.902 -0.2112  0.4147  1.2480
  259MOL0     O34833   5.354   4.100   3.009 -0.0711 -0.0154  0.3277
  259MOL0     C34834   5.216   4.103   2.998 -0.3981 -0.1571  0.0964
  259MOL0     C34835   5.149   4.010   3.076 -0.1519 -0.6212  0.2478
  259MOL0     C34836   5.011   4.001   3.073 -0.1686  0.1169  0.7438
  259MOL0     C34837   4.945   4.088   2.991  0.2338 -0.9738 -0.3810
  259MOL0     O34838   4.809   4.068   3.009  0.9115  0.4516  0.0742
  259MOL0     C34839   4.726   4.152   2.927  0.2445 -0.0178 -0.6162
  259MOL0     C34840   4.583   4.121   2.969 -0.5606  0.1198  0.2051
  259MOL0     C34841   4.555   4.130   3.127  0.7975  0.8514  0.1139
  259MOL0     C34842   4.407   4.071   3.140  0.0872 -0.8746  0.3154
  259MOL0     C34843   4.375   4.090   3.293 -0.1921  0.6913 -0.3888
  259MOL0     C34844   4.240   4.027   3.338  0.6346  0.0324  0.1826
  259MOL0     C34845   4.214   4.062   3.485  0.0897 -0.4543  0.8038
  259MOL0     C34846   4.094   3.997   3.550 -0.4714  0.6668 -0.7242
  259MOL0     N34847   3.974   4.050   3.487  0.0676  0.6896 -0.6705
  259MOL0     C34848   3.916   4.161   3.529  0.3200  0.0920 -0.0465
  259MOL0     C34849   3.799   4.168   3.464 -0.3618 -0.0583 -0.2395
  259MOL0     C34850   3.689   4.261   3.511 -0.0397  0.3649 -0.3125
  259MOL0     C34851   3.563   4.192   3.563  0.0782  0.0261  0.1498
  259MOL0     C34852   3.573   4.097   3.684  0.1972 -0.3298  0.4462
  259MOL0     C34853   3.438   4.040   3.746  0.1638 -0.6869  0.0140
  259MOL0     O34854   3.348   4.147   3.787 -0.1318 -0.4364 -0.7795
  259MOL0     C34855   3.217   4.117   3.801  0.8548  0.6822 -1.0370
  259MOL0     C34856   3.137   4.229   3.785  0.1709  0.9438  0.6673
  259MOL0     C34857   2.996   4.221   3.781 -1.2664 -0.0898 -1.0834
  259MOL0     C34858   2.914   4.343   3.759  0.0042 -0.2033  0.6287
  259MOL0     C34859   2.936   4.096   3.800 -0.9156  0.8961 -0.0903
  259MOL0     C34860   2.792   4.074   3.792  0.4373  0.3704 -0.3291
  259MOL0     O34861   2.706   4.163   3.849  0.0134 -0.7932  0.3776
  259MOL0     C34862   2.574   4.144   3.825  0.3075 -0.1303  0.0967
  259MOL0     C34863   2.486   4.093   3.933  0.2386 -0.5854  0.5271
  259MOL0     C34864   2.352   4.090   3.906 -0.3525 -0.8932  0.9827
  259MOL0     C34865   2.292   4.129   3.784  0.9731  0.0742 -0.6652
  259MOL0     O34866   2.157   4.119   3.765  0.0343  0.5467  0.6538
  259MOL0     C34867   2.122   4.054   3.636 -0.6685 -0.0781 -0.7160
  259MOL0     C34868   1.977   4.006   3.635 -0.8126  1.5061  0.3687
  259MOL0     C34869   1.875   4.117   3.586  0.0394  0.0091 -0.2509
  259MOL0     C34870   1.725   4.071   3.607 -0.7427 -0.1833 -0.6100
  259MOL0     C34871   1.684   3.957   3.513  0.5893  0.5557 -0.3614
  259MOL0     C34872   1.533   3.962   3.469 -0.4426 -0.1008 -0.5293
  259MOL0     C34873   1.442   3.946   3.595  0.4920  0.2705 -0.6363
  259MOL0     C34874   1.307   4.002   3.563  0.2980 -0.5709 -0.4343
  259MOL0    Cl34875   1.252   3.943   3.403 -0.2733  0.2519  0.1809
  259MOL0     C34876   2.376   4.168   3.684  1.1389 -0.3970  0.0391
  259MOL0     C34877   2.515   4.186   3.707 -0.1326 -0.5877 -0.2116
  259MOL0     O34878   2.759   3.961   3.754 -0.2728  0.2703 -0.7406
  259MOL0     C34879   3.020   3.979   3.810 -0.2410  0.8400 -0.3567
  259MOL0     C34880   3.164   3.982   3.820 -0.1784  0.1534  0.0081
  259MOL0     N34881   3.787   4.059   3.384 -0.4959  0.1447  0.1424
  259MOL0     N34882   3.893   3.989   3.393  0.1954  0.0384 -0.6760
  259MOL0     C34883   5.005   4.179   2.904 -0.7475  0.3111  0.6143
  259MOL0     C34884   5.140   4.192   2.911 -0.2454 -0.1967  0.5270
  259MOL0     C34885   5.577   4.081   2.928 -0.0677 -0.9046  0.3336
  259MOL0     C34886   5.674   4.088   2.827  0.4157  0.2610 -0.4623
  259MOL0     C34887   5.808   4.084   2.853 -0.1816  0.0214  0.5271
  259MOL0     C34888   5.860   4.063   2.979  0.3996 -0.3965  0.2698
  259MOL0     O34889   5.996   4.060   2.988 -0.6694  0.6031  0.1049
  259MOL0     C34890   6.074   4.173   3.036 -0.6479  1.1567  0.2939
  259MOL0     C34891   6.190   4.140   3.137  0.1900 -0.3073 -0.3043
  259MOL0     C34892   6.288   4.033   3.092 -0.1948 -0.2404  0.3780
  259MOL0     C34893   6.386   3.986   3.200  0.4467 -0.2353 -0.1885
  259MOL0     C34894   6.491   4.093   3.218 -0.2835  0.1883  0.2558
  259MOL0     C34895   6.578   4.174   3.227 -0.8708 -0.1300 -1.4703
  259MOL0     C34896   5.768   4.050   3.084 -0.0333 -0.4871  0.7228
  259MOL0     C34897   5.635   4.062   3.057 -0.4750 -0.7063 -0.1606
  259MOL0     H34898   5.204   3.941   3.140 -1.7544 -1.3111  0.9272
  259MOL0     H34899   4.950   3.930   3.127 -3.3328  1.8460 -0.3079
  259MOL0     H34900   4.740   4.259   2.945 -2.1499  0.3421 -0.5750
  259MOL0     H34901   4.720   4.151   2.818 -2.0627  1.2410 -0.5524
  259MOL0     H34902   4.513   4.187   2.916 -2.5901  0.2815  2.8435
  259MOL0     H34903   4.560   4.024   2.925  1.2897  1.5118 -4.3972
  259MOL0     H34904   4.636   4.078   3.179 -0.3299 -0.4177  0.6555
  259MOL0     H34905   4.557   4.235   3.157  1.8779  0.9655 -0.2996
  259MOL0     H34906   4.329   4.110   3.075  0.1203 -0.2435  0.6448
  259MOL0     H34907   4.420   3.963   3.127  2.1410 -1.3257  4.4971
  259MOL0     H34908   4.462   4.059   3.352  1.1881  2.8258 -1.1606
  259MOL0     H34909   4.378   4.198   3.311  2.1701  0.5211  0.6208
  259MOL0     H34910   4.174   4.063   3.259  1.6876  1.7130  0.0176
  259MOL0     H34911   4.241   3.918   3.338  3.9141 -0.1014  2.2654
  259MOL0     H34912   4.303   4.057   3.548 -0.2302 -0.7241  1.2331
  259MOL0     H34913   4.192   4.169   3.482 -1.9444 -0.8004  1.6419
  259MOL0     H34914   4.084   4.034   3.653  0.8624  1.6322 -0.9186
  259MOL0     H34915   4.087   3.889   3.536  1.6490  0.2607  0.7742
  259MOL0     H34916   3.950   4.223   3.612 -1.9749  0.8621  0.3729
  259MOL0     H34917   3.732   4.325   3.588 -3.3226  3.0669 -0.4696
  259MOL0     H34918   3.652   4.324   3.430 -2.0692 -1.3660 -0.8210
  259MOL0     H34919   3.508   4.146   3.481 -1.2737 -1.3075  1.7182
  259MOL0     H34920   3.511   4.279   3.605  1.9884  0.5255  1.6323
  259MOL0     H34921   3.632   4.133   3.769  1.0252 -0.0395 -0.2364
  259MOL0     H34922   3.626   4.008   3.647 -5.2359 -3.1056 -1.8266
  259MOL0     H34923   3.470   3.971   3.825  1.4496 -1.5457 -1.1997
  259MOL0     H34924   3.391   3.974   3.672  0.8820 -1.2644  0.0617
  259MOL0     H34925   3.187   4.319   3.751 -1.3256  2.0123  1.1459
  259MOL0     H34926   2.979   4.425   3.727  1.8496 -2.3057 -1.4220
  259MOL0     H34927   2.835   4.327   3.685 -0.2310  0.1555  0.8048
  259MOL0     H34928   2.860   4.367   3.851 -0.1349 -1.8149  1.0110
  259MOL0     H34929   2.524   4.058   4.028 -0.1779 -0.4239  0.7527
  259MOL0     H34930   2.282   4.042   3.974 -1.0764 -2.1153 -0.5407
  259MOL0     H34931   2.144   4.129   3.559  1.7436 -2.1630 -2.2143
  259MOL0     H34932   2.190   3.969   3.632  1.4476  1.0698  3.8944
  259MOL0     H34933   1.987   3.925   3.562  1.1740  2.4547 -0.4916
  259MOL0     H34934   1.950   3.949   3.724  1.0619 -1.3669 -0.7888
  259MOL0     H34935   1.906   4.146   3.485 -2.8091  1.6124 -0.7890
  259MOL0     H34936   1.894   4.202   3.652 -2.8588 -0.3603  1.2505
  259MOL0     H34937   1.716   4.031   3.709 -3.3201 -0.2410 -0.8052
  259MOL0     H34938   1.665   4.162   3.603 -0.0473  0.2724 -0.9813
  259MOL0     H34939   1.712   3.867   3.568 -2.1254 -0.0440  0.2000
  259MOL0     H34940   1.749   3.958   3.425  1.8707 -1.0987  0.5114
  259MOL0     H34941   1.516   4.060   3.424  0.6249 -0.1349 -1.0336
  259MOL0     H34942   1.507   3.878   3.403 -1.3489 -1.4295  1.4038
  259MOL0     H34943   1.487   3.986   3.686  1.2050 -1.3259 -0.2526
  259MOL0     H34944   1.428   3.841   3.624 -0.7391  0.6495  0.1829
  259MOL0     H34945   1.302   4.112   3.559  2.5645 -0.4682 -1.6479
  259MOL0     H34946   1.232   3.960   3.631 -0.2930 -1.2603 -1.4879
  259MOL0     H34947   2.336   4.206   3.590  0.0639  0.2600  0.7415
  259MOL0     H34948   2.572   4.222   3.622 -1.6226 -0.5153 -1.2237
  259MOL0     H34949   2.973   3.881   3.808  0.1582  0.5734  1.5820
  259MOL0     H34950   3.223   3.892   3.831  1.7111  1.2638 -0.4676
  259MOL0     H34951   4.937   4.224   2.832 -0.5106 -3.8053 -2.5939
  259MOL0     H34952   5.188   4.260   2.841  0.5810 -3.2960 -2.1731
  259MOL0     H34953   5.632   4.083   2.727 -0.3107  0.4917 -0.1729
  259MOL0     H34954   5.876   4.086   2.769 -0.0223 -2.0799  0.5666
  259MOL0     H34955   6.120   4.208   2.943 -1.2765 -3.0341 -1.8303
  259MOL0     H34956   6.021   4.259   3.078 -1.1730  0.3831  1.2696
  259MOL0     H34957   6.142   4.098   3.226 -1.7352 -1.4196 -1.8012
  259MOL0     H34958   6.237   4.235   3.163  0.7926 -0.7955  0.4304
  259MOL0     H34959   6.348   4.071   3.009 -0.5594 -0.6268 -0.0612
  259MOL0     H34960   6.227   3.947   3.065 -0.3169 -0.1609  0.3998
  259MOL0     H34961   6.440   3.898   3.167  1.0797  0.1827 -0.2844
  259MOL0     H34962   6.331   3.956   3.290 -0.7087  0.5877 -0.5926
  259MOL0     H34963   6.666   4.235   3.233  0.2297 -1.8098  1.5567
  259MOL0     H34964   5.801   4.037   3.187 -0.7205 -1.1046  0.8786
  259MOL0     H34965   5.570   4.055   3.144 -0.9635 -1.5163 -0.5686
  260MOL0     O34966   3.072   7.039   6.881  0.4548 -0.8584 -0.5422
  260MOL0     C34967   3.041   7.141   6.937  0.7610  0.4258  0.0786
  260MOL0     O34968   2.913   7.189   6.953 -0.2449 -0.6035  0.4633
  260MOL0     C34969   2.802   7.110   6.936  0.5002  0.1372  0.3225
  260MOL0     C34970   2.799   6.977   6.977  0.3368  0.6765  0.3014
  260MOL0     C34971   2.674   6.901   6.958  0.2415  0.1879 -0.3882
  260MOL0     C34972   2.559   6.960   6.899 -0.2095  0.0793  0.3944
  260MOL0     O34973   2.433   6.900   6.891  0.0326  0.3535 -0.4066
  260MOL0     C34974   2.423   6.757   6.873 -0.3569  0.0346  0.2906
  260MOL0     C34975   2.298   6.719   6.790  0.2492  0.2445 -0.1035
  260MOL0     C34976   2.310   6.563   6.773  0.2188 -0.4719 -0.2284
  260MOL0     C34977   2.235   6.515   6.651  0.0662  0.1462  0.5955
  260MOL0     C34978   2.082   6.534   6.668 -0.2946 -0.1888 -0.2980
  260MOL0     C34979   2.008   6.481   6.549  0.3321  0.3210  0.3423
  260MOL0     C34980   1.855   6.483   6.574 -0.5908  0.8894 -0.1250
  260MOL0     C34981   1.806   6.349   6.628  0.5234  0.3884 -0.8151
  260MOL0     N34982   1.658   6.358   6.642  0.3762  0.0957 -0.6374
  260MOL0     C34983   1.568   6.391   6.538 -0.3619 -0.3270 -0.1046
  260MOL0     C34984   1.449   6.398   6.611  0.6044  0.3922  0.2724
  260MOL0     C34985   1.315   6.428   6.549 -0.4502 -0.3977  0.2495
  260MOL0     C34986   1.226   6.505   6.650  0.1651  0.0260  0.0116
  260MOL0     C34987   1.156   6.626   6.594 -0.1080 -0.1955  0.2123
  260MOL0     C34988   1.012   6.604   6.559 -0.7076 -0.5630 -0.8407
  260MOL0     O34989   0.956   6.738   6.569 -0.0639 -0.4551 -0.0232
  260MOL0     C34990   0.827   6.758   6.529  0.9051  0.0739 -0.8722
  260MOL0     C34991   0.781   6.889   6.492  0.3279  0.0134 -1.1238
  260MOL0     C34992   0.642   6.918   6.456  1.5075  0.1832  0.3248
  260MOL0     C34993   0.615   7.054   6.405 -0.4520 -0.0586  0.5875
  260MOL0     C34994   0.541   6.822   6.469 -0.3007  0.6818 -0.4599
  260MOL0     C34995   0.392   6.839   6.432 -0.8528 -0.1428  0.8870
  260MOL0     O34996   0.306   6.762   6.505  0.0092  0.4552  0.2632
  260MOL0     C34997   0.170   6.773   6.477 -0.2016 -1.1495  0.1661
  260MOL0     C34998   0.079   6.802   6.581  0.2270  0.1370 -0.0781
  260MOL0     C34999  -0.058   6.813   6.555 -0.1269 -0.4775 -0.6890
  260MOL0     C35000  -0.107   6.789   6.428  0.7360  0.1557  0.6849
  260MOL0     O35001  -0.247   6.795   6.404 -0.1508  0.3886 -0.4964
  260MOL0     C35002  -0.324   6.884   6.490  0.5906  0.6514 -0.0898
  260MOL0     C35003  -0.471   6.874   6.440  0.2539 -0.4979  0.5936
  260MOL0     C35004  -0.528   6.735   6.444  0.0444 -0.3503  0.1866
  260MOL0     C35005  -0.516   6.656   6.309  0.7974 -0.1657  0.3096
  260MOL0     C35006  -0.547   6.508   6.309  0.3476 -0.3796  0.3125
  260MOL0     C35007  -0.687   6.489   6.274  0.1391 -0.3274 -0.0069
  260MOL0     C35008  -0.722   6.514   6.137 -0.6906 -0.5497 -0.1138
  260MOL0     C35009  -0.880   6.485   6.106 -0.6524  0.2267  0.2328
  260MOL0    Cl35010  -0.998   6.578   6.201  0.0570  0.3108 -0.0842
  260MOL0     C35011  -0.022   6.756   6.323 -1.0348  0.6008  0.2083
  260MOL0     C35012   0.112   6.743   6.349 -0.8212  0.7662  0.8696
  260MOL0     O35013   0.369   6.908   6.335  0.0887 -0.5620  0.0096
  260MOL0     C35014   0.584   6.695   6.516  0.2012  0.0204  0.3619
  260MOL0     C35015   0.725   6.657   6.539 -0.2799  0.6144 -0.1880
  260MOL0     N35016   1.475   6.380   6.745  0.1315 -0.3845 -0.1868
  260MOL0     N35017   1.594   6.346   6.763  0.1784 -0.6090 -0.1142
  260MOL0     C35018   2.574   7.090   6.855  0.0553 -0.1926 -0.2910
  260MOL0     C35019   2.687   7.163   6.878  0.5848 -0.5204 -0.4257
  260MOL0     C35020   3.146   7.225   6.974 -0.8442 -0.6738 -0.1386
  260MOL0     C35021   3.136   7.316   7.083  0.1440 -0.3463  0.1005
  260MOL0     C35022   3.249   7.400   7.123 -0.5419  0.2527 -0.1314
  260MOL0     C35023   3.372   7.396   7.048  0.3507  0.0485 -0.4968
  260MOL0     O35024   3.489   7.465   7.066  0.5032  0.1197 -1.0821
  260MOL0     C35025   3.507   7.546   7.188 -0.0002  0.7153  0.8148
  260MOL0     C35026   3.637   7.619   7.190 -0.1670 -0.3659  0.7636
  260MOL0     C35027   3.760   7.528   7.182 -0.3653  0.3258 -0.1825
  260MOL0     C35028   3.794   7.484   7.035  0.1056 -0.2627  0.1214
  260MOL0     C35029   3.927   7.429   7.037 -0.6474 -0.6955 -0.0938
  260MOL0     C35030   4.039   7.392   7.065  1.1626  0.2549  0.0686
  260MOL0     C35031   3.373   7.310   6.930  0.2835  0.2717  0.0572
  260MOL0     C35032   3.267   7.223   6.902 -0.0654  0.3576 -0.4929
  260MOL0     H35033   2.888   6.923   7.007 -0.9244 -1.3525  0.5639
  260MOL0     H35034   2.668   6.793   6.971  0.4862 -0.0178 -1.7444
  260MOL0     H35035   2.511   6.716   6.823 -1.3172 -0.7281 -0.8357
  260MOL0     H35036   2.400   6.721   6.974  0.1233  0.7024  0.6456
  260MOL0     H35037   2.195   6.742   6.818 -1.1639 -2.9933 -2.0401
  260MOL0     H35038   2.317   6.767   6.693  2.2819  1.7310  0.9398
  260MOL0     H35039   2.416   6.537   6.765  1.0005  1.1745  3.1951
  260MOL0     H35040   2.262   6.519   6.861  0.3374 -2.3772 -1.0656
  260MOL0     H35041   2.280   6.571   6.568  3.8826 -1.9910  1.0009
  260MOL0     H35042   2.274   6.417   6.622  0.4216 -0.2500  2.3089
  260MOL0     H35043   2.051   6.481   6.759 -1.7410  1.6740  0.3570
  260MOL0     H35044   2.042   6.635   6.678 -3.3907 -1.2700 -0.7040
  260MOL0     H35045   2.024   6.545   6.461 -1.0911 -1.3639 -1.2005
  260MOL0     H35046   2.049   6.383   6.525  2.5033  1.0077  1.0091
  260MOL0     H35047   1.829   6.564   6.642 -2.1028  0.9909 -0.7690
  260MOL0     H35048   1.808   6.524   6.484 -0.4390  0.8784 -0.2101
  260MOL0     H35049   1.843   6.320   6.727  0.1759 -0.1904 -0.8483
  260MOL0     H35050   1.829   6.273   6.553  0.4369 -0.3181 -0.1349
  260MOL0     H35051   1.582   6.394   6.430  0.2020 -2.2226 -0.1232
  260MOL0     H35052   1.327   6.485   6.456  2.2687  2.4332  2.1230
  260MOL0     H35053   1.260   6.336   6.525  0.3492 -1.1697  1.3259
  260MOL0     H35054   1.288   6.542   6.732 -0.6354  0.9315  0.2251
  260MOL0     H35055   1.157   6.432   6.692 -1.5350  1.7171  0.2744
  260MOL0     H35056   1.203   6.656   6.501  0.1293  1.5063  0.8502
  260MOL0     H35057   1.164   6.711   6.662  1.9837 -0.9336  0.9575
  260MOL0     H35058   0.968   6.540   6.636  1.5999 -0.6100  0.5353
  260MOL0     H35059   1.006   6.562   6.458 -1.2775 -3.1046  0.1763
  260MOL0     H35060   0.848   6.974   6.487 -0.1048  0.3833 -0.7088
  260MOL0     H35061   0.687   7.117   6.457  0.2146 -1.5758  1.5699
  260MOL0     H35062   0.631   7.058   6.297 -1.6820  2.0098  0.4260
  260MOL0     H35063   0.519   7.105   6.416 -0.5402 -0.1572  0.2940
  260MOL0     H35064   0.105   6.818   6.686 -3.0545 -3.3848  1.5402
  260MOL0     H35065  -0.126   6.843   6.634  1.1724  1.0544 -0.0882
  260MOL0     H35066  -0.332   6.857   6.596 -2.0523  0.8646 -0.1670
  260MOL0     H35067  -0.301   6.991   6.490  1.0941  0.8223  5.2206
  260MOL0     H35068  -0.534   6.933   6.507  0.7788  1.0661 -0.2606
  260MOL0     H35069  -0.483   6.919   6.342 -3.3002 -3.5242 -0.6068
  260MOL0     H35070  -0.636   6.734   6.460  0.0723 -2.3536  0.3800
  260MOL0     H35071  -0.490   6.681   6.531  1.5547  0.9073  0.3565
  260MOL0     H35072  -0.575   6.715   6.238 -2.4207 -0.5198  2.4604
  260MOL0     H35073  -0.413   6.653   6.273  0.2010 -2.7918 -1.4398
  260MOL0     H35074  -0.527   6.482   6.413 -1.1790 -0.1989  0.6773
  260MOL0     H35075  -0.485   6.449   6.241  2.2435  2.4994 -0.6873
  260MOL0     H35076  -0.715   6.384   6.287 -1.4991  0.0449 -0.3015
  260MOL0     H35077  -0.749   6.550   6.341 -0.3589  2.7111 -2.9399
  260MOL0     H35078  -0.659   6.444   6.083 -1.7073 -0.4320 -1.5054
  260MOL0     H35079  -0.698   6.615   6.103  2.0194 -0.9136  0.5164
  260MOL0     H35080  -0.901   6.381   6.133  1.6003  0.6793  4.4813
  260MOL0     H35081  -0.904   6.491   5.999 -1.7667 -2.3643  0.2568
  260MOL0     H35082  -0.065   6.737   6.225  0.1717  1.0212 -0.4229
  260MOL0     H35083   0.178   6.711   6.269 -1.6376 -0.0114  0.4921
  260MOL0     H35084   0.507   6.621   6.535 -0.8143  0.2131 -2.4552
  260MOL0     H35085   0.740   6.558   6.580 -1.8459  1.0326  1.5532
  260MOL0     H35086   2.485   7.139   6.819 -1.3364 -1.1735  1.6054
  260MOL0     H35087   2.676   7.269   6.853 -2.3697 -0.2722  1.4907
  260MOL0     H35088   3.043   7.320   7.139 -0.6314 -2.1189 -0.9658
  260MOL0     H35089   3.261   7.453   7.217 -0.3855  1.4182 -0.7932
  260MOL0     H35090   3.425   7.617   7.204 -0.9455 -0.6203  2.2009
  260MOL0     H35091   3.502   7.475   7.272 -1.0493 -1.7958 -1.2358
  260MOL0     H35092   3.644   7.686   7.277 -0.8966 -0.2454  0.7351
  260MOL0     H35093   3.648   7.691   7.108  2.0261  0.4799  1.7314
  260MOL0     H35094   3.759   7.445   7.253  1.9518 -0.8655 -1.4455
  260MOL0     H35095   3.834   7.596   7.226  2.0687 -0.8426 -2.2267
  260MOL0     H35096   3.777   7.573   6.974 -2.1983  0.2317  1.3685
  260MOL0     H35097   3.739   7.392   7.009 -1.7715  1.5808 -3.0788
  260MOL0     H35098   4.139   7.364   7.093  0.8963 -2.5251 -1.3796
  260MOL0     H35099   3.459   7.294   6.867 -1.4117 -1.6109 -1.9466
  260MOL0     H35100   3.283   7.162   6.813  0.2413 -0.2470 -0.0305
  261MOL0     O35101   3.360   1.465   3.212 -0.1895 -0.2973 -0.4678
  261MOL0     C35102   3.365   1.589   3.227 -0.8292  0.2767  0.2066
  261MOL0     O35103   3.262   1.671   3.251 -0.5253  0.4615 -0.2153
  261MOL0     C35104   3.136   1.608   3.266 -0.4734  0.6298  0.7926
  261MOL0     C35105   3.082   1.518   3.183  0.0520  0.2136 -0.5121
  261MOL0     C35106   2.947   1.496   3.192  0.1387  0.8476 -0.2076
  261MOL0     C35107   2.861   1.548   3.287  0.9572 -0.5924 -0.5362
  261MOL0     O35108   2.721   1.518   3.276 -0.6042  1.3901 -0.2299
  261MOL0     C35109   2.609   1.588   3.331 -0.0127 -0.4155  0.8507
  261MOL0     C35110   2.475   1.551   3.275  0.7548 -0.2167 -0.4958
  261MOL0     C35111   2.454   1.602   3.135 -0.2540  0.5217 -0.4795
  261MOL0     C35112   2.323   1.548   3.076 -0.6985 -0.4678 -0.2902
  261MOL0     C35113   2.303   1.614   2.927 -0.2721  0.3336 -0.2791
  261MOL0     C35114   2.166   1.591   2.879  0.4364 -0.5945 -0.0620
  261MOL0     C35115   2.156   1.634   2.732 -0.0211 -0.5113 -0.1330
  261MOL0     C35116   2.164   1.527   2.620 -0.2287 -0.2517  0.6639
  261MOL0     N35117   2.082   1.410   2.651  0.2303 -0.2882 -0.1363
  261MOL0     C35118   1.945   1.410   2.688 -0.1729  0.3008  0.0500
  261MOL0     C35119   1.912   1.281   2.723 -0.3443  0.0221 -0.5146
  261MOL0     C35120   1.776   1.250   2.767 -0.0609 -0.0360 -0.2346
  261MOL0     C35121   1.670   1.257   2.653 -0.9260 -0.5997  0.0545
  261MOL0     C35122   1.535   1.225   2.710  0.4386 -1.0741  0.7722
  261MOL0     C35123   1.428   1.248   2.593  0.8095  0.5523 -0.4801
  261MOL0     O35124   1.432   1.380   2.542  0.1440 -0.3005  0.2064
  261MOL0     C35125   1.331   1.435   2.472 -0.4230 -0.9827 -0.4356
  261MOL0     C35126   1.337   1.569   2.434  0.7135  0.6038  0.8204
  261MOL0     C35127   1.237   1.630   2.362 -0.1758 -0.0237  0.7701
  261MOL0     C35128   1.254   1.773   2.328  0.5631 -0.3234 -0.3814
  261MOL0     C35129   1.120   1.554   2.336 -0.3902 -0.0606  0.2227
  261MOL0     C35130   0.999   1.617   2.277 -0.7301 -0.2371 -0.2380
  261MOL0     O35131   0.885   1.583   2.344 -0.0431 -0.4578  0.3848
  261MOL0     C35132   0.774   1.656   2.316 -0.7047 -0.2131  1.2682
  261MOL0     C35133   0.675   1.573   2.261 -0.6019  0.2546 -0.2691
  261MOL0     C35134   0.552   1.628   2.219 -0.0367 -0.1788  0.4407
  261MOL0     C35135   0.526   1.765   2.221 -0.7896  0.8183 -0.3386
  261MOL0     O35136   0.429   1.818   2.143 -0.3953 -0.1339 -0.1277
  261MOL0     C35137   0.365   1.936   2.185  0.3866  0.0905 -0.6977
  261MOL0     C35138   0.223   1.952   2.133 -0.5238 -0.4903  0.2846
  261MOL0     C35139   0.145   1.833   2.192  0.2007  0.6039  0.9194
  261MOL0     C35140   0.003   1.810   2.136 -0.3385 -0.0989  0.7803
  261MOL0     C35141  -0.099   1.925   2.167  0.4470  0.7222  0.6776
  261MOL0     C35142  -0.240   1.879   2.123 -0.1681  0.9782  0.1356
  261MOL0     C35143  -0.333   1.996   2.119  0.9264  0.4393 -0.1023
  261MOL0     C35144  -0.472   1.935   2.084 -0.2657  0.1744  0.4423
  261MOL0    Cl35145  -0.475   1.829   1.937 -0.3429  0.2236 -0.5148
  261MOL0     C35146   0.629   1.836   2.284  0.6564  0.3113 -0.0763
  261MOL0     C35147   0.747   1.793   2.328 -0.8606  0.7407  0.5108
  261MOL0     O35148   1.010   1.686   2.174  0.0285  0.3605 -0.2827
  261MOL0     C35149   1.110   1.419   2.358  0.5107 -0.3583 -0.3050
  261MOL0     C35150   1.220   1.359   2.430 -0.0048  0.0963  0.5207
  261MOL0     N35151   2.016   1.202   2.675  0.3077  0.0149 -0.5317
  261MOL0     N35152   2.122   1.278   2.659 -0.2965 -0.1719 -0.1464
  261MOL0     C35153   2.915   1.647   3.366  0.5898  0.1242 -0.4725
  261MOL0     C35154   3.053   1.668   3.364  0.1164  0.4044 -0.6835
  261MOL0     C35155   3.491   1.666   3.198  0.1840  1.1140 -0.3503
  261MOL0     C35156   3.494   1.802   3.193 -0.3660  0.5730  0.0416
  261MOL0     C35157   3.619   1.866   3.167 -1.1017  0.2512  1.4342
  261MOL0     C35158   3.737   1.787   3.161 -0.2404 -0.2151 -0.3782
  261MOL0     O35159   3.847   1.865   3.133 -0.0791  0.7662 -0.4497
  261MOL0     C35160   3.977   1.805   3.124 -0.2603  0.1630 -0.4285
  261MOL0     C35161   4.039   1.799   3.266  0.2243 -0.3318 -0.8189
  261MOL0     C35162   4.047   1.939   3.342 -0.4356 -0.2914  0.2839
  261MOL0     C35163   4.190   1.950   3.406 -0.2076  0.8204  0.1370
  261MOL0     C35164   4.246   2.081   3.414 -0.3157  0.0382  0.3839
  261MOL0     C35165   4.307   2.184   3.401  0.1181  0.4270 -0.4558
  261MOL0     C35166   3.732   1.656   3.173  0.3029  0.9036  0.1152
  261MOL0     C35167   3.609   1.592   3.183  0.6927 -0.7036 -0.3728
  261MOL0     H35168   3.133   1.467   3.101  0.2164 -0.3203 -0.0832
  261MOL0     H35169   2.906   1.425   3.120  1.7865  0.4445 -0.7919
  261MOL0     H35170   2.614   1.575   3.440 -0.4521  1.8904  1.2184
  261MOL0     H35171   2.624   1.697   3.325 -1.9731 -0.0874  1.0847
  261MOL0     H35172   2.470   1.442   3.279  0.3702 -0.2048 -0.6623
  261MOL0     H35173   2.393   1.583   3.339  1.4029 -0.2701  0.3868
  261MOL0     H35174   2.455   1.711   3.146  3.3132  0.4296  1.7727
  261MOL0     H35175   2.543   1.576   3.077  0.6369  1.9341  0.1942
  261MOL0     H35176   2.324   1.440   3.060  0.6719 -0.3501 -1.2179
  261MOL0     H35177   2.239   1.563   3.145 -1.7090 -4.0611 -0.5179
  261MOL0     H35178   2.329   1.720   2.937  0.2048  0.0741  1.6131
  261MOL0     H35179   2.372   1.574   2.851 -0.3266  1.7417 -1.1099
  261MOL0     H35180   2.135   1.487   2.894  0.4761 -0.3884  1.6071
  261MOL0     H35181   2.097   1.656   2.934 -1.2880 -1.5820 -0.9640
  261MOL0     H35182   2.066   1.695   2.719  0.3642  0.4182  1.4172
  261MOL0     H35183   2.234   1.709   2.716 -0.7490  0.3726  0.3650
  261MOL0     H35184   2.269   1.496   2.616  0.3189  1.6308 -0.7409
  261MOL0     H35185   2.136   1.578   2.528 -2.2581  2.0330  2.4133
  261MOL0     H35186   1.879   1.495   2.699 -0.3203  0.5438 -2.2471
  261MOL0     H35187   1.772   1.151   2.814 -3.6777  0.5852  1.0764
  261MOL0     H35188   1.757   1.321   2.848 -0.0344 -1.2212  0.8472
  261MOL0     H35189   1.700   1.183   2.579 -1.8309 -0.2371 -0.6957
  261MOL0     H35190   1.672   1.361   2.617 -2.2994 -0.8406 -0.7764
  261MOL0     H35191   1.507   1.282   2.799  0.8236  0.9506 -0.3147
  261MOL0     H35192   1.531   1.117   2.722  0.3041 -1.3400 -1.3368
  261MOL0     H35193   1.329   1.224   2.634  0.0264  1.8507 -1.5000
  261MOL0     H35194   1.447   1.180   2.509 -4.6299  1.0029 -2.5276
  261MOL0     H35195   1.429   1.621   2.459  0.6850  0.3446  1.4838
  261MOL0     H35196   1.170   1.818   2.273  1.0307  0.0300 -0.8244
  261MOL0     H35197   1.275   1.833   2.417 -2.0427 -1.0827  0.8592
  261MOL0     H35198   1.342   1.792   2.266  1.3244 -0.2054  0.7265
  261MOL0     H35199   0.692   1.467   2.249  0.0035  0.3156  0.0100
  261MOL0     H35200   0.466   1.576   2.178  1.0630  0.1472 -2.5023
  261MOL0     H35201   0.372   1.946   2.294 -1.2826 -2.0843 -0.3276
  261MOL0     H35202   0.421   2.021   2.144 -0.4588 -0.5834 -3.4573
  261MOL0     H35203   0.181   2.043   2.177 -1.6628 -1.5873  1.5699
  261MOL0     H35204   0.219   1.953   2.024  2.7424 -0.6407  0.0641
  261MOL0     H35205   0.133   1.847   2.300 -1.3532 -3.3068  1.3934
  261MOL0     H35206   0.206   1.743   2.187 -0.7139 -0.0961  2.0293
  261MOL0     H35207   0.013   1.811   2.027 -2.4104 -0.0305  0.5477
  261MOL0     H35208  -0.033   1.717   2.180  0.0199 -1.9877 -2.6136
  261MOL0     H35209  -0.061   2.011   2.111  1.1383  0.6239  0.9918
  261MOL0     H35210  -0.105   1.955   2.271 -1.5978  0.3309  0.7152
  261MOL0     H35211  -0.228   1.829   2.026  0.6715 -4.2264  2.5981
  261MOL0     H35212  -0.277   1.805   2.194  0.7849  1.8956  1.6442
  261MOL0     H35213  -0.300   2.079   2.056  0.1710  2.9045  2.5571
  261MOL0     H35214  -0.335   2.038   2.220  1.8452 -1.1150  0.6032
  261MOL0     H35215  -0.554   2.007   2.076 -2.2058 -1.6865  2.1314
  261MOL0     H35216  -0.503   1.879   2.173 -1.9574  0.2074 -0.0987
  261MOL0     H35217   0.616   1.944   2.280  1.1616  0.5286  2.5056
  261MOL0     H35218   0.819   1.864   2.367 -1.2273 -0.4710  3.7179
  261MOL0     H35219   1.024   1.362   2.324  0.9746 -1.5585  0.4528
  261MOL0     H35220   1.204   1.253   2.448 -2.3636  0.3284  0.0075
  261MOL0     H35221   2.849   1.698   3.435  3.0220  2.3891  0.3391
  261MOL0     H35222   3.096   1.745   3.427 -0.3097  0.0038  0.1138
  261MOL0     H35223   3.404   1.861   3.198 -0.2910  0.5739  1.7301
  261MOL0     H35224   3.644   1.970   3.150  0.5044 -0.5235 -1.5940
  261MOL0     H35225   3.978   1.707   3.075 -0.1790 -0.2156  0.3082
  261MOL0     H35226   4.042   1.869   3.065 -0.7050  0.3936 -0.6711
  261MOL0     H35227   4.125   1.732   3.277 -0.1506 -0.5377  1.2127
  261MOL0     H35228   3.966   1.740   3.321 -2.6119  3.6518  0.1341
  261MOL0     H35229   3.965   1.945   3.414  0.3658 -1.4186  1.3274
  261MOL0     H35230   4.056   2.025   3.274  0.6281 -1.5838 -1.2886
  261MOL0     H35231   4.249   1.893   3.334 -1.4786 -1.4461  0.7734
  261MOL0     H35232   4.180   1.899   3.503 -1.1974  1.6172  0.4730
  261MOL0     H35233   4.353   2.280   3.395 -0.9475  1.5555  4.8056
  261MOL0     H35234   3.820   1.593   3.168 -2.2958 -3.0344 -4.5208
  261MOL0     H35235   3.596   1.485   3.193 -3.6691 -0.5197 -1.9642
  262MOL0     O35236   1.332   7.559   6.944 -0.1385 -0.0942 -0.1032
  262MOL0     C35237   1.323   7.499   6.834 -0.5550  0.2970  0.1789
  262MOL0     O35238   1.213   7.491   6.762  0.6018  0.5506  0.5171
  262MOL0     C35239   1.095   7.557   6.810  0.3123 -0.5842 -0.3832
  262MOL0     C35240   1.070   7.693   6.787  0.2281 -0.0512 -0.0869
  262MOL0     C35241   0.954   7.755   6.839  0.6440  0.2239 -0.0171
  262MOL0     C35242   0.856   7.681   6.912  0.4791 -0.1772  0.5866
  262MOL0     O35243   0.738   7.741   6.938 -0.2964  0.3932  0.7199
  262MOL0     C35244   0.623   7.662   6.916 -0.1003  0.0474 -0.4128
  262MOL0     C35245   0.501   7.761   6.925 -0.6416  0.8311 -0.1442
  262MOL0     C35246   0.382   7.663   6.894 -0.5704  0.3969  0.0854
  262MOL0     C35247   0.246   7.737   6.896 -0.6202 -0.9567 -0.8616
  262MOL0     C35248   0.128   7.648   6.847 -0.0416 -0.5306 -0.9442
  262MOL0     C35249  -0.003   7.722   6.891 -0.1604 -0.0472  0.5373
  262MOL0     C35250  -0.134   7.643   6.870  0.5267  0.1932 -0.6746
  262MOL0     C35251  -0.253   7.724   6.932 -0.2957  0.6446  0.8948
  262MOL0     N35252  -0.379   7.646   6.912 -0.2325 -0.2105 -0.7103
  262MOL0     C35253  -0.431   7.587   6.806  0.0897  0.4823  0.2821
  262MOL0     C35254  -0.561   7.565   6.831 -0.3303 -0.3496 -0.0054
  262MOL0     C35255  -0.664   7.525   6.726  0.7055  0.4903  0.3592
  262MOL0     C35256  -0.819   7.520   6.774 -0.0038  0.5214  0.1601
  262MOL0     C35257  -0.870   7.662   6.791  0.2454 -0.2829 -0.1367
  262MOL0     C35258  -1.018   7.672   6.843 -0.0634  0.5357 -0.1824
  262MOL0     O35259  -1.073   7.557   6.912 -0.6789 -0.2668  0.8200
  262MOL0     C35260  -1.204   7.525   6.898 -0.6388 -0.0352 -0.0293
  262MOL0     C35261  -1.294   7.571   6.799 -0.3547  0.3214 -0.6614
  262MOL0     C35262  -1.432   7.532   6.803  0.1072  0.4108 -0.4998
  262MOL0     C35263  -1.535   7.579   6.700 -0.1359  0.1488 -0.8429
  262MOL0     C35264  -1.477   7.446   6.906 -1.1503  0.1116 -0.7677
  262MOL0     C35265  -1.619   7.402   6.935 -0.2624  0.9362  0.3294
  262MOL0     O35266  -1.727   7.479   6.885 -0.2748  0.1970  0.0502
  262MOL0     C35267  -1.853   7.418   6.888  0.4811 -0.0758  0.0506
  262MOL0     C35268  -1.903   7.322   6.803 -0.3451 -0.8923  0.4456
  262MOL0     C35269  -2.042   7.290   6.800 -0.4470  0.4039  0.0931
  262MOL0     C35270  -2.125   7.341   6.902  0.4320 -0.4463  1.2032
  262MOL0     O35271  -2.258   7.316   6.913  0.0937 -0.5623 -0.5663
  262MOL0     C35272  -2.332   7.287   6.792  0.6000 -0.9871 -0.2647
  262MOL0     C35273  -2.480   7.296   6.808  0.6492 -0.7234 -0.2756
  262MOL0     C35274  -2.544   7.439   6.825 -1.0304 -0.0998  0.0385
  262MOL0     C35275  -2.685   7.425   6.868  0.3806 -0.2866 -0.1939
  262MOL0     C35276  -2.753   7.560   6.876  0.3485 -0.3403 -0.1637
  262MOL0     C35277  -2.901   7.545   6.900  0.3180 -0.8009  0.1267
  262MOL0     C35278  -2.943   7.510   7.044  0.1209  0.7286 -0.3805
  262MOL0     C35279  -3.093   7.472   7.038 -0.5499  0.3818  0.0978
  262MOL0    Cl35280  -3.165   7.456   7.201 -0.0822  0.2084  0.2822
  262MOL0     C35281  -2.071   7.439   6.989  0.1370  0.8436  0.2743
  262MOL0     C35282  -1.944   7.476   6.984 -0.3292  0.0213  0.0205
  262MOL0     O35283  -1.637   7.286   6.990 -0.9011 -0.7102  0.7622
  262MOL0     C35284  -1.379   7.403   7.004  0.3210  0.4764 -1.0942
  262MOL0     C35285  -1.247   7.435   6.995 -0.4173  0.6763 -0.7097
  262MOL0     N35286  -0.579   7.609   6.958  0.4678 -0.1018 -0.2083
  262MOL0     N35287  -0.467   7.629   7.012  0.1957 -0.2757 -0.0413
  262MOL0     C35288   0.887   7.547   6.937  0.7600 -1.3924 -0.1839
  262MOL0     C35289   1.008   7.485   6.897 -0.0248  0.4305  0.4836
  262MOL0     C35290   1.446   7.437   6.776 -0.6582  0.1947  0.0654
  262MOL0     C35291   1.424   7.364   6.654 -0.1690  0.8739 -0.3085
  262MOL0     C35292   1.530   7.282   6.609 -0.0158  0.8961 -0.3424
  262MOL0     C35293   1.663   7.297   6.661  0.6501 -1.1697 -0.2230
  262MOL0     O35294   1.783   7.255   6.608  0.1078 -0.2879  0.3286
  262MOL0     C35295   1.780   7.219   6.465 -0.0911 -0.2257 -0.1664
  262MOL0     C35296   1.914   7.189   6.414  0.5169 -0.4958 -0.3576
  262MOL0     C35297   1.923   7.205   6.255  0.2837 -0.1918 -0.3979
  262MOL0     C35298   2.059   7.181   6.190  0.1001  0.3321  0.1972
  262MOL0     C35299   2.159   7.272   6.237 -0.6773  0.7730  0.0285
  262MOL0     C35300   2.235   7.355   6.272 -0.7127 -0.4134 -0.8354
  262MOL0     C35301   1.678   7.383   6.770  0.2769  0.0950  0.3445
  262MOL0     C35302   1.578   7.449   6.832 -0.0573  0.7527 -0.3706
  262MOL0     H35303   1.144   7.754   6.737  1.9172  0.2479  2.6015
  262MOL0     H35304   0.927   7.858   6.818 -0.7682 -0.1688 -0.2901
  262MOL0     H35305   0.631   7.604   6.824  0.8631 -1.4817  0.5828
  262MOL0     H35306   0.625   7.592   7.001  2.2110  1.0374  0.4205
  262MOL0     H35307   0.478   7.806   7.022  0.7786 -1.8369  1.5671
  262MOL0     H35308   0.514   7.832   6.843  1.4559  1.8571  0.9778
  262MOL0     H35309   0.394   7.607   6.800  1.7180  0.7376  0.1314
  262MOL0     H35310   0.369   7.590   6.974  0.8919  1.1955  1.0937
  262MOL0     H35311   0.232   7.762   7.001  0.5497 -1.4384 -0.5802
  262MOL0     H35312   0.268   7.820   6.828 -0.4446 -2.8354 -3.2430
  262MOL0     H35313   0.143   7.642   6.739 -0.9859  0.4803 -1.1390
  262MOL0     H35314   0.136   7.551   6.897 -1.9791  0.2511  1.0115
  262MOL0     H35315   0.012   7.746   6.997 -1.4459  2.6731  0.1975
  262MOL0     H35316  -0.014   7.821   6.844 -0.3412 -0.7162 -0.8767
  262MOL0     H35317  -0.146   7.633   6.761  2.1189  0.4790 -0.9036
  262MOL0     H35318  -0.122   7.543   6.911 -3.3813 -0.2787 -0.3019
  262MOL0     H35319  -0.266   7.817   6.877 -1.7186 -1.7476 -3.2397
  262MOL0     H35320  -0.227   7.738   7.037  2.6725 -1.6880  0.6299
  262MOL0     H35321  -0.379   7.571   6.713 -0.3517 -3.2492  0.5128
  262MOL0     H35322  -0.669   7.592   6.639  0.9512 -1.0595 -0.8808
  262MOL0     H35323  -0.637   7.429   6.682  0.9975  1.5546 -1.9400
  262MOL0     H35324  -0.828   7.466   6.869 -1.5886  0.5728  0.0593
  262MOL0     H35325  -0.866   7.454   6.701  1.2156 -2.5590  1.9743
  262MOL0     H35326  -0.875   7.700   6.688  0.5632 -1.0076 -0.4255
  262MOL0     H35327  -0.813   7.730   6.855 -0.2288 -0.1786  0.1802
  262MOL0     H35328  -1.076   7.682   6.751  0.1556 -2.2034 -0.7003
  262MOL0     H35329  -1.045   7.764   6.895  2.7176  1.5041 -0.2985
  262MOL0     H35330  -1.272   7.641   6.719  1.4402  1.2438  0.5758
  262MOL0     H35331  -1.589   7.499   6.650 -0.0627  1.6055 -3.3992
  262MOL0     H35332  -1.601   7.649   6.753  0.1960 -0.1954  0.0423
  262MOL0     H35333  -1.491   7.638   6.620  0.4789 -0.5719 -1.0434
  262MOL0     H35334  -1.842   7.283   6.722 -0.5665 -1.7023  0.6673
  262MOL0     H35335  -2.079   7.209   6.739 -1.7933 -0.4942  1.9984
  262MOL0     H35336  -2.297   7.364   6.722 -0.5039 -0.7017 -0.5121
  262MOL0     H35337  -2.306   7.193   6.741  2.7394  0.7643 -2.6795
  262MOL0     H35338  -2.539   7.248   6.729 -0.4928  0.6707 -0.3073
  262MOL0     H35339  -2.509   7.241   6.898 -0.5879 -1.1500 -0.9114
  262MOL0     H35340  -2.533   7.487   6.727  0.4077 -1.0910 -0.3259
  262MOL0     H35341  -2.484   7.481   6.906 -1.1071 -0.5044  0.3092
  262MOL0     H35342  -2.736   7.358   6.799 -0.2199 -2.0231  1.8143
  262MOL0     H35343  -2.688   7.385   6.970  0.3213  0.6797  0.1937
  262MOL0     H35344  -2.732   7.610   6.781  2.0433 -1.0000 -0.1755
  262MOL0     H35345  -2.718   7.625   6.956  0.5536  0.7468 -1.1164
  262MOL0     H35346  -2.945   7.643   6.881 -0.8875 -1.1816  0.9052
  262MOL0     H35347  -2.938   7.482   6.819 -0.3796  0.7259 -0.7952
  262MOL0     H35348  -2.915   7.595   7.107  3.5295  0.3983 -1.2164
  262MOL0     H35349  -2.888   7.422   7.078  2.0422  2.0517  0.1041
  262MOL0     H35350  -3.108   7.382   6.977 -2.2693  1.5287 -1.2668
  262MOL0     H35351  -3.155   7.540   6.979  0.3977 -1.2384 -2.9812
  262MOL0     H35352  -2.144   7.480   7.058  1.0874 -1.6678  3.0096
  262MOL0     H35353  -1.893   7.555   7.039  0.6771  1.5390 -2.8783
  262MOL0     H35354  -1.407   7.344   7.091 -0.0522 -0.5191 -1.8668
  262MOL0     H35355  -1.173   7.395   7.063  0.8456  0.1497 -2.3201
  262MOL0     H35356   0.813   7.490   6.992 -0.3728  0.2027  0.0293
  262MOL0     H35357   1.035   7.382   6.913  0.9670  0.0699 -2.7065
  262MOL0     H35358   1.331   7.335   6.606  0.3015  1.8006 -1.8285
  262MOL0     H35359   1.505   7.220   6.524 -0.7192  0.0107  0.4957
  262MOL0     H35360   1.720   7.130   6.444  0.3493 -0.7552  0.7840
  262MOL0     H35361   1.737   7.302   6.408 -0.1708 -0.0057  0.2086
  262MOL0     H35362   1.940   7.087   6.446  2.8971  0.8154  2.3487
  262MOL0     H35363   1.984   7.262   6.455  0.9301  0.2430 -2.2364
  262MOL0     H35364   1.890   7.304   6.224  0.0623 -0.0766  0.1963
  262MOL0     H35365   1.853   7.135   6.209 -0.9644 -0.2909  1.5321
  262MOL0     H35366   2.057   7.176   6.081  3.2447  1.9917 -0.0487
  262MOL0     H35367   2.102   7.086   6.223 -2.1080 -0.6999  0.3090
  262MOL0     H35368   2.299   7.438   6.297 -0.9027 -0.6083  0.3693
  262MOL0     H35369   1.780   7.395   6.807  0.7676  0.7191 -1.1144
  262MOL0     H35370   1.591   7.519   6.914  0.9818  0.8875 -0.6422
  263MOL0     O35371   4.846  11.202   7.101  0.4897  0.5927  0.2410
  263MOL0     C35372   4.925  11.162   7.180 -0.4119  0.6610 -0.5633
  263MOL0     O35373   4.898  11.124   7.311  0.6954 -0.2702 -0.4997
  263MOL0     C35374   4.767  11.113   7.357  0.9242 -0.2761  1.1985
  263MOL0     C35375   4.656  11.075   7.279  1.0691  0.3181  0.5767
  263MOL0     C35376   4.530  11.065   7.333  0.2110  0.0069  0.4747
  263MOL0     C35377   4.510  11.087   7.463 -0.0454  0.5910 -0.5021
  263MOL0     O35378   4.392  11.086   7.524 -0.3885  0.3526 -0.5003
  263MOL0     C35379   4.298  10.973   7.506  0.1485 -0.5967  0.6385
  263MOL0     C35380   4.157  10.982   7.575 -0.5036  0.9653 -1.3600
  263MOL0     C35381   4.058  11.036   7.478  0.0921 -0.6560  0.4585
  263MOL0     C35382   3.916  11.025   7.535  0.0454 -0.8149 -0.3551
  263MOL0     C35383   3.822  11.133   7.488  0.2969 -0.2561  0.4597
  263MOL0     C35384   3.669  11.086   7.494 -0.0729 -0.8610  1.4006
  263MOL0     C35385   3.567  11.189   7.436  0.6481  0.4090 -0.3214
  263MOL0     C35386   3.511  11.289   7.545 -0.4719 -0.3403  0.2495
  263MOL0     N35387   3.404  11.384   7.499 -0.1350 -0.5500 -0.1837
  263MOL0     C35388   3.274  11.366   7.506  0.0010 -0.1939 -0.7972
  263MOL0     C35389   3.208  11.489   7.518  0.5638 -0.1201  0.7445
  263MOL0     C35390   3.068  11.522   7.557  0.4183  0.3256 -0.1546
  263MOL0     C35391   3.062  11.585   7.696 -0.3363 -0.5577  0.1599
  263MOL0     C35392   2.921  11.628   7.736  0.9292  0.5335  0.2914
  263MOL0     C35393   2.917  11.680   7.882 -0.4931 -0.6458  0.8873
  263MOL0     O35394   2.986  11.811   7.886  0.2326 -0.6750 -0.6847
  263MOL0     C35395   2.910  11.915   7.919  0.3603  0.4000 -0.8510
  263MOL0     C35396   2.904  11.957   8.050 -0.3091  0.0686  0.3879
  263MOL0     C35397   2.827  12.066   8.091  0.2242 -0.2377  0.3865
  263MOL0     C35398   2.828  12.102   8.235 -0.4903 -0.3526  0.5543
  263MOL0     C35399   2.744  12.131   7.993 -0.2677  0.9800 -0.1947
  263MOL0     C35400   2.658  12.250   8.031  0.2835  0.1515  0.0426
  263MOL0     O35401   2.523  12.235   7.999  0.3655  0.2297  0.0061
  263MOL0     C35402   2.434  12.312   8.071 -0.0292  0.8823  0.7944
  263MOL0     C35403   2.440  12.335   8.210 -0.0025 -0.5572 -1.1105
  263MOL0     C35404   2.347  12.420   8.264 -0.4190 -0.1673  0.0950
  263MOL0     C35405   2.244  12.476   8.195 -0.2544 -0.2023 -0.6342
  263MOL0     O35406   2.151  12.562   8.248 -0.6801 -0.1480 -0.3031
  263MOL0     C35407   2.189  12.651   8.359  0.8955 -0.0134  0.2727
  263MOL0     C35408   2.160  12.600   8.500 -0.2443 -0.7618  0.5870
  263MOL0     C35409   2.012  12.582   8.530 -0.0665 -0.8168  0.5970
  263MOL0     C35410   1.940  12.709   8.567 -0.2347 -0.1028 -0.1274
  263MOL0     C35411   1.801  12.684   8.618  0.1596  0.0310 -1.1142
  263MOL0     C35412   1.720  12.803   8.587  0.3063 -0.7490 -0.7451
  263MOL0     C35413   1.587  12.805   8.672  0.5953 -0.6437  0.9094
  263MOL0     C35414   1.511  12.939   8.644  0.6796 -0.1726 -0.0645
  263MOL0    Cl35415   1.381  12.948   8.755  0.2794  0.0254  0.2146
  263MOL0     C35416   2.226  12.437   8.066  0.2221 -0.0259 -0.2974
  263MOL0     C35417   2.322  12.354   7.998 -0.4315 -0.5713  0.0207
  263MOL0     O35418   2.709  12.341   8.095 -0.6859  0.0404 -0.0313
  263MOL0     C35419   2.746  12.092   7.854 -0.9395  0.1624 -0.6285
  263MOL0     C35420   2.829  11.972   7.821 -0.0199 -1.0436 -0.2403
  263MOL0     N35421   3.309  11.578   7.515 -1.3386  0.0456  0.1700
  263MOL0     N35422   3.418  11.517   7.515 -0.4548 -0.3404  0.3523
  263MOL0     C35423   4.617  11.123   7.547 -1.4113 -0.3485  0.3834
  263MOL0     C35424   4.742  11.129   7.489 -0.5282  0.2789  0.1120
  263MOL0     C35425   5.070  11.162   7.147  0.7027 -0.4373 -0.4904
  263MOL0     C35426   5.123  11.166   7.013 -0.2532 -0.0402 -0.5008
  263MOL0     C35427   5.258  11.167   6.987 -0.1781  0.4402 -0.1208
  263MOL0     C35428   5.343  11.170   7.094 -0.5822 -0.0693  0.0129
  263MOL0     O35429   5.471  11.173   7.049 -0.2127 -0.6532  0.6004
  263MOL0     C35430   5.580  11.193   7.141 -0.3307  0.2145 -0.4700
  263MOL0     C35431   5.718  11.219   7.078  0.3271 -0.1261 -0.4150
  263MOL0     C35432   5.770  11.101   6.996  0.2610  0.4270 -0.5711
  263MOL0     C35433   5.915  11.128   6.953  0.3628 -0.8586  0.1502
  263MOL0     C35434   5.960  11.038   6.843  0.2203  0.3746  0.9490
  263MOL0     C35435   5.966  10.965   6.749 -0.2307 -0.8695  0.5456
  263MOL0     C35436   5.298  11.160   7.223 -0.5402 -0.5778  0.0221
  263MOL0     C35437   5.161  11.167   7.247  0.4583  0.6195 -0.4854
  263MOL0     H35438   4.675  11.047   7.176  1.1340  1.1919  0.3366
  263MOL0     H35439   4.456  11.044   7.256  0.9342 -1.8454  0.2154
  263MOL0     H35440   4.278  10.964   7.399 -0.4168  0.0515  0.6825
  263MOL0     H35441   4.349  10.880   7.536  0.0759 -1.2648 -1.1903
  263MOL0     H35442   4.132  10.879   7.601 -0.2010  0.1853 -3.8573
  263MOL0     H35443   4.159  11.042   7.666  0.8155 -0.8389 -0.1223
  263MOL0     H35444   4.080  11.142   7.463 -3.6340  0.4788  1.7857
  263MOL0     H35445   4.066  10.990   7.380  2.1485 -0.5382  0.5191
  263MOL0     H35446   3.866  10.929   7.523 -3.6461  0.3183  3.2974
  263MOL0     H35447   3.919  11.028   7.645 -0.5114  1.7619 -0.3420
  263MOL0     H35448   3.829  11.221   7.553 -0.5328  0.4456 -0.3608
  263MOL0     H35449   3.849  11.166   7.387 -0.9505  2.4676  0.9270
  263MOL0     H35450   3.667  10.993   7.438 -0.4544  0.2915 -0.6168
  263MOL0     H35451   3.652  11.073   7.602  1.7998 -0.4265  1.7833
  263MOL0     H35452   3.598  11.242   7.346 -0.2893 -1.9226 -2.1122
  263MOL0     H35453   3.492  11.120   7.396  0.8937  0.7754 -1.4480
  263MOL0     H35454   3.596  11.344   7.587  0.9150 -3.4922  1.8419
  263MOL0     H35455   3.474  11.228   7.629  1.0199 -0.9402  0.4963
  263MOL0     H35456   3.239  11.264   7.515 -1.9511  0.4704 -0.0342
  263MOL0     H35457   3.022  11.586   7.482  0.7407 -0.3262 -0.9233
  263MOL0     H35458   3.001  11.436   7.553 -0.3637  0.7320  2.4428
  263MOL0     H35459   3.118  11.679   7.703 -0.5888 -0.3372 -0.6889
  263MOL0     H35460   3.113  11.515   7.762  0.9031 -0.2961 -0.4989
  263MOL0     H35461   2.847  11.547   7.731 -0.5369  1.7759  0.8438
  263MOL0     H35462   2.879  11.700   7.666  0.4315  1.2841  1.3362
  263MOL0     H35463   2.972  11.606   7.941 -1.3924 -2.7264 -0.7311
  263MOL0     H35464   2.813  11.691   7.912 -0.9566 -0.8591 -0.5769
  263MOL0     H35465   2.967  11.908   8.124 -0.2080  1.1843  1.0634
  263MOL0     H35466   2.864  12.022   8.300  0.6875  2.4347  3.6081
  263MOL0     H35467   2.895  12.185   8.257 -1.4934  0.3944  0.8944
  263MOL0     H35468   2.727  12.124   8.273  0.6224  2.5102  2.1932
  263MOL0     H35469   2.524  12.295   8.266  1.1387  0.0982 -2.2922
  263MOL0     H35470   2.364  12.442   8.369  0.2867  2.1763 -0.4469
  263MOL0     H35471   2.295  12.680   8.357  1.2393 -0.9518  2.3693
  263MOL0     H35472   2.135  12.744   8.339 -0.0396 -0.7073 -0.5353
  263MOL0     H35473   2.219  12.509   8.509  3.3375  1.2693 -0.4597
  263MOL0     H35474   2.198  12.669   8.576  1.6163 -0.6953 -0.3563
  263MOL0     H35475   2.019  12.515   8.616  0.1497 -2.1646 -0.4297
  263MOL0     H35476   1.961  12.527   8.450 -1.0239 -0.2381  0.8024
  263MOL0     H35477   2.004  12.766   8.634 -2.4834  1.9427  0.4244
  263MOL0     H35478   1.931  12.767   8.475  2.5151  1.2325  0.3424
  263MOL0     H35479   1.792  12.671   8.726 -0.9015 -4.1865 -1.5184
  263MOL0     H35480   1.749  12.604   8.564 -1.2815  1.3123 -1.6939
  263MOL0     H35481   1.780  12.893   8.607 -1.5751  0.3478  0.3096
  263MOL0     H35482   1.710  12.792   8.479  2.4573  1.2084 -1.2365
  263MOL0     H35483   1.613  12.802   8.778 -1.0044  1.2266  1.4136
  263MOL0     H35484   1.524  12.719   8.652 -0.6217  0.3031  0.5739
  263MOL0     H35485   1.468  12.951   8.544 -0.2874 -2.9696 -0.0597
  263MOL0     H35486   1.582  13.020   8.665 -0.9414  0.9256  1.4279
  263MOL0     H35487   2.139  12.476   8.016 -0.3937  0.4495  1.1070
  263MOL0     H35488   2.298  12.318   7.898 -4.4159  0.2490  0.5240
  263MOL0     H35489   2.674  12.135   7.784 -0.8269 -0.5954 -1.2194
  263MOL0     H35490   2.820  11.939   7.719 -4.2430 -0.2319 -0.2977
  263MOL0     H35491   4.619  11.136   7.654 -2.7229 -0.5076  0.4348
  263MOL0     H35492   4.833  11.146   7.545 -1.3940  1.9203  1.1057
  263MOL0     H35493   5.044  11.164   6.938 -1.2712 -2.1893  0.5362
  263MOL0     H35494   5.300  11.176   6.887 -0.0844 -1.3986 -0.2829
  263MOL0     H35495   5.566  11.274   7.214 -0.5383 -0.0595 -0.2065
  263MOL0     H35496   5.590  11.099   7.196 -1.7249 -0.1843 -0.8624
  263MOL0     H35497   5.795  11.255   7.147 -1.6149  2.0020  0.8194
  263MOL0     H35498   5.699  11.304   7.011  3.8960  1.1674  0.0247
  263MOL0     H35499   5.704  11.076   6.913 -0.6587 -1.3469  0.6251
  263MOL0     H35500   5.772  11.013   7.061  1.5500  1.6733  1.1757
  263MOL0     H35501   5.983  11.138   7.038  2.5434  0.2030 -1.6116
  263MOL0     H35502   5.906  11.228   6.909 -4.0664 -0.3681  1.6709
  263MOL0     H35503   5.953  10.892   6.672 -2.1636  0.1546 -0.1799
  263MOL0     H35504   5.382  11.150   7.290  0.6846 -0.1899 -1.4000
  263MOL0     H35505   5.139  11.161   7.353  1.8437 -0.6540 -0.2242
  264MOL0     O35506   0.294   0.767   9.709 -0.6968  0.1947  0.4209
  264MOL0     C35507   0.328   0.725   9.594  0.0717  0.2224  0.1219
  264MOL0     O35508   0.258   0.633   9.527  0.3610  0.6388 -0.1116
  264MOL0     C35509   0.119   0.607   9.549 -0.0025  0.8619  0.6200
  264MOL0     C35510   0.049   0.617   9.671 -0.3725 -0.9676  1.0793
  264MOL0     C35511  -0.076   0.561   9.678 -0.5716  0.4939  0.2669
  264MOL0     C35512  -0.137   0.487   9.578 -0.5142  0.0772  0.9460
  264MOL0     O35513  -0.263   0.440   9.585  0.0072  0.2420 -0.9420
  264MOL0     C35514  -0.343   0.481   9.703 -0.1842 -0.3531 -0.7657
  264MOL0     C35515  -0.473   0.399   9.688 -0.1700  0.1291  0.3930
  264MOL0     C35516  -0.574   0.461   9.782 -0.4008  0.5091 -0.1703
  264MOL0     C35517  -0.709   0.389   9.768 -0.7676 -0.5234  0.3689
  264MOL0     C35518  -0.794   0.453   9.667  0.9122  0.7103 -0.4567
  264MOL0     C35519  -0.929   0.376   9.633 -0.0907  0.1201 -0.7199
  264MOL0     C35520  -1.017   0.450   9.529 -0.3457  0.2580 -0.3594
  264MOL0     C35521  -0.966   0.439   9.389 -0.6791  0.1216 -0.0447
  264MOL0     N35522  -1.055   0.500   9.291 -0.9551  0.2956  0.2396
  264MOL0     C35523  -1.186   0.486   9.256  0.1823 -0.4951 -0.2061
  264MOL0     C35524  -1.218   0.588   9.179 -0.4750 -0.4150  0.4241
  264MOL0     C35525  -1.346   0.621   9.112 -0.2503  0.3865 -0.2224
  264MOL0     C35526  -1.411   0.741   9.200 -0.4004 -0.3626  0.0136
  264MOL0     C35527  -1.560   0.763   9.155 -0.1296 -0.3595  0.1589
  264MOL0     C35528  -1.611   0.871   9.244  0.4883 -0.0421  0.4760
  264MOL0     O35529  -1.744   0.902   9.212  0.3489 -0.8117  0.2972
  264MOL0     C35530  -1.840   0.910   9.312 -0.2998 -0.4222  0.2962
  264MOL0     C35531  -1.821   0.946   9.445 -0.0655 -0.1263 -0.3430
  264MOL0     C35532  -1.922   0.982   9.538  0.5841 -0.1468 -0.0966
  264MOL0     C35533  -1.878   1.027   9.678  0.0540  0.1514 -0.1991
  264MOL0     C35534  -2.055   0.975   9.483 -0.6714  0.4775 -0.3512
  264MOL0     C35535  -2.169   1.016   9.567  0.1923 -0.1236 -0.4398
  264MOL0     O35536  -2.146   1.107   9.662 -0.5626  0.7619 -0.2833
  264MOL0     C35537  -2.259   1.137   9.740  0.2102 -0.1885 -0.0750
  264MOL0     C35538  -2.285   1.065   9.854  0.5751 -0.7491 -0.3322
  264MOL0     C35539  -2.403   1.082   9.927 -0.1747  0.1396 -0.2996
  264MOL0     C35540  -2.498   1.176   9.890  0.6443  0.0329 -0.3050
  264MOL0     O35541  -2.610   1.203   9.965 -0.0745  0.1681 -0.2511
  264MOL0     C35542  -2.620   1.168  10.101  0.0412  0.4640 -0.4611
  264MOL0     C35543  -2.754   1.218  10.164 -1.1806 -0.1338  0.9155
  264MOL0     C35544  -2.724   1.197  10.321 -0.5926  0.4759 -1.2081
  264MOL0     C35545  -2.847   1.241  10.403 -0.0319  0.2680  1.3395
  264MOL0     C35546  -2.825   1.241  10.557  0.2795 -0.0035  0.0284
  264MOL0     C35547  -2.923   1.336  10.629 -0.2675  1.0864  0.0573
  264MOL0     C35548  -2.916   1.337  10.777 -0.5808  0.7354  0.7908
  264MOL0     C35549  -2.973   1.462  10.837  0.3101 -0.6606  0.3274
  264MOL0    Cl35550  -3.149   1.454  10.842 -0.4858 -0.4441  0.2012
  264MOL0     C35551  -2.473   1.253   9.775  0.7209 -0.4571  0.8150
  264MOL0     C35552  -2.358   1.233   9.693  0.3175 -0.8738  0.4933
  264MOL0     O35553  -2.275   0.969   9.541  0.3630  0.3334 -0.4237
  264MOL0     C35554  -2.081   0.929   9.355  0.4736  0.4197 -0.0391
  264MOL0     C35555  -1.972   0.889   9.272  0.1438 -0.6719  0.6655
  264MOL0     N35556  -1.108   0.663   9.157  0.1486 -0.7358 -0.4992
  264MOL0     N35557  -1.016   0.610   9.224  0.5130  0.2443 -0.2721
  264MOL0     C35558  -0.055   0.473   9.460  0.2550  1.0575  0.2597
  264MOL0     C35559   0.070   0.531   9.446  0.5833  0.7349 -0.4693
  264MOL0     C35560   0.442   0.780   9.524 -0.0515 -0.5677 -0.7764
  264MOL0     C35561   0.537   0.860   9.601  0.2622 -0.3299  0.3047
  264MOL0     C35562   0.643   0.920   9.536  0.1135 -0.0623  0.4777
  264MOL0     C35563   0.669   0.872   9.402 -0.2280 -0.0689  0.2894
  264MOL0     O35564   0.782   0.901   9.325 -0.0070 -0.3211  0.0147
  264MOL0     C35565   0.853   1.015   9.356  0.4265 -0.2955 -0.2458
  264MOL0     C35566   0.977   1.000   9.441  0.0125  0.1406  0.2147
  264MOL0     C35567   1.050   0.863   9.402 -0.3010 -0.6485 -0.2081
  264MOL0     C35568   1.100   0.860   9.250 -0.9380  0.1623 -0.7107
  264MOL0     C35569   1.231   0.929   9.259  0.9817  0.3638  0.0255
  264MOL0     C35570   1.341   0.975   9.266  0.2793 -0.7609  0.4570
  264MOL0     C35571   0.588   0.777   9.336 -0.2513 -0.2898 -0.8894
  264MOL0     C35572   0.467   0.740   9.398  0.0715  0.4269 -0.3819
  264MOL0     H35573   0.100   0.671   9.750  0.9409  1.8218 -1.5198
  264MOL0     H35574  -0.121   0.568   9.777 -0.2555 -0.6722  0.5162
  264MOL0     H35575  -0.299   0.456   9.800 -2.0385 -0.2164  0.1476
  264MOL0     H35576  -0.368   0.587   9.703 -3.8203 -1.0822 -0.7200
  264MOL0     H35577  -0.514   0.386   9.587 -0.1340 -0.2653  0.4277
  264MOL0     H35578  -0.446   0.296   9.715 -0.0568 -0.1992 -0.8942
  264MOL0     H35579  -0.545   0.443   9.886 -1.5415 -1.8972 -0.2057
  264MOL0     H35580  -0.585   0.568   9.765 -0.9968  0.2296 -1.7281
  264MOL0     H35581  -0.686   0.285   9.745  1.2777 -0.1625  0.6253
  264MOL0     H35582  -0.760   0.409   9.864 -0.5998  0.4943  0.2628
  264MOL0     H35583  -0.809   0.558   9.690  0.5927  1.2504 -2.8749
  264MOL0     H35584  -0.735   0.458   9.576  0.1453 -0.2263 -1.0355
  264MOL0     H35585  -0.896   0.277   9.601  0.9070 -0.0078  0.6058
  264MOL0     H35586  -0.977   0.362   9.731  0.4626  2.0823 -0.1272
  264MOL0     H35587  -1.113   0.397   9.529 -1.2540  1.6838 -3.6327
  264MOL0     H35588  -1.021   0.555   9.559  0.8951  0.6322 -1.4171
  264MOL0     H35589  -0.956   0.337   9.352  0.7235  0.4724 -0.6903
  264MOL0     H35590  -0.863   0.475   9.392 -0.4857 -0.4708  0.7392
  264MOL0     H35591  -1.242   0.398   9.287  0.8478 -1.6193 -1.9838
  264MOL0     H35592  -1.334   0.666   9.013 -0.8678  3.4141  0.9553
  264MOL0     H35593  -1.423   0.544   9.101 -0.0242  0.0273  0.5820
  264MOL0     H35594  -1.349   0.829   9.183 -1.5475  0.4397 -0.1687
  264MOL0     H35595  -1.396   0.707   9.303  1.2400 -1.0309 -0.4200
  264MOL0     H35596  -1.621   0.673   9.169  0.0851 -0.2387  1.9924
  264MOL0     H35597  -1.567   0.799   9.052  0.9463  2.7952  1.0878
  264MOL0     H35598  -1.550   0.961   9.228  2.6611 -1.0040  2.6241
  264MOL0     H35599  -1.597   0.848   9.351 -1.5649 -1.6165  0.4609
  264MOL0     H35600  -1.719   0.969   9.474 -0.0477  0.3554 -0.7663
  264MOL0     H35601  -1.861   1.135   9.678 -2.9478  0.7935 -3.0978
  264MOL0     H35602  -1.959   1.006   9.749 -1.0850  0.6759 -1.3103
  264MOL0     H35603  -1.793   0.964   9.708  0.6183  0.3234 -1.4039
  264MOL0     H35604  -2.215   0.987   9.881 -0.1414 -0.6987  1.8155
  264MOL0     H35605  -2.420   1.031  10.021 -0.5842  1.3838  0.3275
  264MOL0     H35606  -2.613   1.062  10.128  0.5263  0.0177 -2.1695
  264MOL0     H35607  -2.542   1.222  10.156 -0.4119  0.3195  0.3254
  264MOL0     H35608  -2.772   1.324  10.147 -1.0490  0.1215  2.2108
  264MOL0     H35609  -2.827   1.143  10.132 -0.3970 -0.2306 -0.7025
  264MOL0     H35610  -2.642   1.266  10.346 -1.2831  1.6831 -2.1749
  264MOL0     H35611  -2.698   1.092  10.338  1.2633  0.8977 -1.2207
  264MOL0     H35612  -2.877   1.342  10.372  0.9971  0.5898  1.3554
  264MOL0     H35613  -2.931   1.172  10.388  0.7882 -0.1867 -1.8604
  264MOL0     H35614  -2.724   1.278  10.579  0.3647  0.5005 -1.1608
  264MOL0     H35615  -2.840   1.141  10.599  0.3950  0.2991  0.8123
  264MOL0     H35616  -2.903   1.436  10.590 -1.5061  1.3322  0.0263
  264MOL0     H35617  -3.027   1.310  10.607 -0.2464  1.6937 -0.8030
  264MOL0     H35618  -2.810   1.330  10.802  0.8123  3.9164 -2.9819
  264MOL0     H35619  -2.964   1.247  10.814 -0.9794  1.4436  2.0353
  264MOL0     H35620  -2.939   1.555  10.790  4.3719 -0.9814  2.2316
  264MOL0     H35621  -2.940   1.459  10.941 -2.7161 -1.7444  1.3868
  264MOL0     H35622  -2.543   1.331   9.748  1.6725  0.6394  1.4259
  264MOL0     H35623  -2.347   1.281   9.597 -2.1508  0.3068  0.7232
  264MOL0     H35624  -2.183   0.915   9.319 -0.2685 -0.9275  2.3445
  264MOL0     H35625  -2.000   0.850   9.175 -0.8820 -1.4238  1.2527
  264MOL0     H35626  -0.073   0.398   9.384 -0.4479  0.4863  0.9670
  264MOL0     H35627   0.126   0.513   9.355  0.3154  2.2732 -0.9759
  264MOL0     H35628   0.519   0.869   9.708  3.4445 -1.5546  1.0461
  264MOL0     H35629   0.709   0.997   9.573 -2.0917  0.8962  2.7211
  264MOL0     H35630   0.887   1.059   9.262 -1.8170 -0.8381 -1.3903
  264MOL0     H35631   0.785   1.085   9.406 -0.4319 -1.4269  0.2142
  264MOL0     H35632   0.948   1.004   9.546  1.2703  0.3777  0.5797
  264MOL0     H35633   1.033   1.092   9.422 -1.4952  1.0345 -0.0429
  264MOL0     H35634   0.970   0.789   9.418 -1.1071  0.4608  1.1494
  264MOL0     H35635   1.127   0.838   9.475  2.8995  1.5604 -2.5389
  264MOL0     H35636   1.035   0.898   9.171  0.2299 -0.2182 -1.8931
  264MOL0     H35637   1.125   0.757   9.223  0.6507 -0.0204  1.2534
  264MOL0     H35638   1.433   1.030   9.271 -0.4659  0.5300  0.5541
  264MOL0     H35639   0.597   0.733   9.237 -0.2286  1.1875 -1.5755
  264MOL0     H35640   0.397   0.673   9.349 -0.0595  0.8444 -0.7666
  265MOL0     O35641  10.978   2.502   0.922 -0.2775 -0.0537 -0.8897
  265MOL0     C35642  11.013   2.440   0.822  0.1072 -0.0013  0.2970
  265MOL0     O35643  10.938   2.428   0.714 -0.5865 -0.1128  0.4277
  265MOL0     C35644  10.808   2.480   0.707  0.4453  0.3439  0.2631
  265MOL0     C35645  10.773   2.521   0.574  0.0383 -0.0127  0.5397
  265MOL0     C35646  10.642   2.561   0.546 -0.1701 -0.3650  0.6098
  265MOL0     C35647  10.545   2.558   0.657  0.9787 -0.4350  0.0173
  265MOL0     O35648  10.412   2.595   0.626 -1.0568  0.6177 -0.1562
  265MOL0     C35649  10.369   2.709   0.684 -0.0550 -0.8069  0.0618
  265MOL0     C35650  10.391   2.817   0.576 -0.4761 -0.6958 -0.9511
  265MOL0     C35651  10.327   2.959   0.614 -0.5520  0.4220  1.1144
  265MOL0     C35652  10.326   3.049   0.492 -0.4602  0.8035 -0.7905
  265MOL0     C35653  10.251   3.178   0.511 -0.2182 -0.3447 -0.2480
  265MOL0     C35654  10.272   3.252   0.374 -0.8581 -0.5038  0.2272
  265MOL0     C35655  10.221   3.392   0.384  0.1194 -0.3812  0.2484
  265MOL0     C35656  10.070   3.406   0.357  0.5897  0.3168  0.0201
  265MOL0     N35657  10.034   3.353   0.220  0.0991 -0.4970  0.8166
  265MOL0     C35658   9.975   3.231   0.180  0.8399 -0.3017  0.3930
  265MOL0     C35659   9.964   3.238   0.050  0.6113  0.2424 -0.9088
  265MOL0     C35660   9.923   3.117  -0.033 -0.3750  1.3019  0.0701
  265MOL0     C35661   9.808   3.027   0.018 -0.3920  0.0276 -0.7126
  265MOL0     C35662   9.667   3.103   0.008 -0.3765 -0.6245 -0.0837
  265MOL0     C35663   9.607   3.121  -0.129 -0.0642 -0.3602 -0.9513
  265MOL0     O35664   9.471   3.173  -0.112 -0.6509 -1.0899 -0.1512
  265MOL0     C35665   9.396   3.224  -0.211  0.4945  0.2079  0.0850
  265MOL0     C35666   9.441   3.246  -0.338 -0.0290 -0.9337  0.5479
  265MOL0     C35667   9.341   3.286  -0.435  0.0766  0.5288 -0.6751
  265MOL0     C35668   9.390   3.317  -0.574  0.1444  0.7935  0.4210
  265MOL0     C35669   9.206   3.290  -0.402  0.4072 -0.0492 -0.2316
  265MOL0     C35670   9.097   3.332  -0.494 -0.2986 -0.1554  0.2750
  265MOL0     O35671   9.103   3.283  -0.623  0.5667 -0.4455 -0.8622
  265MOL0     C35672   9.001   3.319  -0.702  0.1415  0.2733 -0.2068
  265MOL0     C35673   8.892   3.234  -0.713 -0.1707  0.2874  0.2210
  265MOL0     C35674   8.772   3.267  -0.776  0.1592  0.7026  0.7919
  265MOL0     C35675   8.752   3.403  -0.810 -0.5066  0.2779  0.5992
  265MOL0     O35676   8.631   3.446  -0.865 -0.5640 -0.2961 -0.2014
  265MOL0     C35677   8.510   3.394  -0.806 -0.1834  0.5149 -1.1877
  265MOL0     C35678   8.502   3.411  -0.644 -0.2035  0.4912 -0.2660
  265MOL0     C35679   8.549   3.553  -0.609  0.1847 -0.9806  0.6108
  265MOL0     C35680   8.529   3.588  -0.458  0.3219  1.3454  0.4422
  265MOL0     C35681   8.542   3.737  -0.429 -0.0515  0.3085  0.0143
  265MOL0     C35682   8.409   3.803  -0.445  0.3024 -0.3907  0.4649
  265MOL0     C35683   8.415   3.957  -0.394  0.1984  0.5661  0.6998
  265MOL0     C35684   8.284   4.038  -0.401  0.7439  0.3857  0.1172
  265MOL0    Cl35685   8.232   4.062  -0.569  0.0133  0.4229 -0.2697
  265MOL0     C35686   8.862   3.492  -0.811 -0.0907  0.0273 -0.1701
  265MOL0     C35687   8.981   3.452  -0.752 -0.2572  0.4296 -0.4516
  265MOL0     O35688   9.016   3.413  -0.449  0.4056 -1.1386 -0.5659
  265MOL0     C35689   9.165   3.260  -0.266  0.2252 -0.4196  0.2034
  265MOL0     C35690   9.264   3.241  -0.172  0.2881  0.1377 -0.2529
  265MOL0     N35691  10.006   3.358   0.007  0.0930  0.6927 -0.2795
  265MOL0     N35692  10.051   3.424   0.108  0.3083  0.1126  0.4215
  265MOL0     C35693  10.581   2.520   0.786 -0.6980  0.1219 -0.0605
  265MOL0     C35694  10.712   2.482   0.809  0.5426 -0.4748  0.0051
  265MOL0     C35695  11.145   2.368   0.804 -0.0109 -0.0025  0.1575
  265MOL0     C35696  11.264   2.414   0.874 -0.7775  0.4519 -0.0461
  265MOL0     C35697  11.388   2.336   0.842 -0.3981 -0.4071 -0.2049
  265MOL0     C35698  11.392   2.235   0.751 -0.6510 -0.1687 -0.0305
  265MOL0     O35699  11.507   2.166   0.714 -0.3956 -0.2787 -0.1961
  265MOL0     C35700  11.635   2.209   0.779  0.4888 -1.1855  0.4003
  265MOL0     C35701  11.741   2.122   0.730 -0.6956  0.0208  0.7598
  265MOL0     C35702  11.877   2.139   0.805  0.2795  0.1904  0.1346
  265MOL0     C35703  11.871   2.083   0.949 -0.5230 -0.3912  0.6919
  265MOL0     C35704  12.009   2.070   1.005  0.0948  0.4172  0.8951
  265MOL0     C35705  12.123   2.061   1.049  0.2640 -0.2684  0.6097
  265MOL0     C35706  11.278   2.191   0.708  1.2617  1.4925 -0.0191
  265MOL0     C35707  11.148   2.245   0.726  0.5330  0.3394 -0.2252
  265MOL0     H35708  10.855   2.525   0.503  0.7828 -0.1668  1.3742
  265MOL0     H35709  10.607   2.601   0.451  1.9032  0.3655  0.0950
  265MOL0     H35710  10.265   2.703   0.715  0.6056  0.0170  2.7070
  265MOL0     H35711  10.427   2.730   0.774  1.8976  0.6515 -1.4410
  265MOL0     H35712  10.500   2.830   0.569 -0.5255  2.5264  1.6812
  265MOL0     H35713  10.356   2.783   0.478 -1.7726 -2.3679  0.0302
  265MOL0     H35714  10.220   2.946   0.635 -0.4750 -1.8817  0.3755
  265MOL0     H35715  10.376   3.006   0.699  2.6220  1.0982 -0.9257
  265MOL0     H35716  10.432   3.067   0.469 -0.1654  1.0441  0.6243
  265MOL0     H35717  10.281   2.988   0.413 -0.5856 -2.4551  1.5827
  265MOL0     H35718  10.149   3.161   0.547 -0.0490 -1.0750 -0.0909
  265MOL0     H35719  10.309   3.233   0.586  1.5962 -1.0015 -1.1015
  265MOL0     H35720  10.380   3.258   0.359 -0.7175 -1.6390  0.6838
  265MOL0     H35721  10.225   3.203   0.289 -1.1723  2.7387 -1.6554
  265MOL0     H35722  10.242   3.424   0.487 -1.3435  1.5127  0.0332
  265MOL0     H35723  10.274   3.462   0.319  2.6326  1.8361  4.2439
  265MOL0     H35724  10.052   3.514   0.356 -0.5130  0.1502 -1.7208
  265MOL0     H35725  10.023   3.353   0.441  1.2969  1.2047  1.0061
  265MOL0     H35726   9.967   3.145   0.246 -0.7921 -0.1372  0.4405
  265MOL0     H35727   9.901   3.156  -0.133 -4.7765 -1.7087 -0.3799
  265MOL0     H35728  10.010   3.050  -0.033 -0.4715  1.1743  0.5382
  265MOL0     H35729   9.830   3.001   0.122  3.7270 -0.4370 -1.5418
  265MOL0     H35730   9.809   2.926  -0.026 -1.7897  0.2223 -1.2313
  265MOL0     H35731   9.684   3.206   0.042  1.0238  0.0587 -2.5643
  265MOL0     H35732   9.590   3.058   0.071 -0.8045 -0.7823 -0.7126
  265MOL0     H35733   9.607   3.037  -0.198  0.9930 -1.9576  0.8803
  265MOL0     H35734   9.667   3.198  -0.178 -0.2518  0.3550 -0.0890
  265MOL0     H35735   9.546   3.234  -0.362  0.8820 -2.8496  4.6842
  265MOL0     H35736   9.495   3.346  -0.563  0.5883  0.4879 -2.4004
  265MOL0     H35737   9.398   3.242  -0.653  0.1578  1.3650 -0.1245
  265MOL0     H35738   9.337   3.403  -0.616  0.9879  0.2504 -1.8721
  265MOL0     H35739   8.887   3.129  -0.686  0.1875  0.9104  3.0166
  265MOL0     H35740   8.692   3.197  -0.794  1.3892 -0.5291 -0.0635
  265MOL0     H35741   8.431   3.456  -0.851  0.3668  1.3987 -0.9656
  265MOL0     H35742   8.488   3.293  -0.842 -3.7576 -0.0166  1.8285
  265MOL0     H35743   8.398   3.396  -0.617 -0.4340  0.0852 -1.3263
  265MOL0     H35744   8.567   3.334  -0.600  1.6730  1.2564 -1.5339
  265MOL0     H35745   8.485   3.614  -0.672  2.0060  1.4857  0.9681
  265MOL0     H35746   8.648   3.580  -0.647 -0.8782 -2.1476 -3.4928
  265MOL0     H35747   8.432   3.548  -0.426  0.4030 -0.2616 -1.1492
  265MOL0     H35748   8.608   3.531  -0.410 -1.0073 -1.3370 -0.3643
  265MOL0     H35749   8.627   3.773  -0.487  2.1095 -1.8859  1.6237
  265MOL0     H35750   8.577   3.752  -0.326 -0.8379  0.0545  0.3299
  265MOL0     H35751   8.401   3.812  -0.554  0.2551  2.9645  0.6479
  265MOL0     H35752   8.319   3.749  -0.411  1.5691 -4.0965 -1.4582
  265MOL0     H35753   8.487   4.009  -0.456 -0.1505  2.4274  1.7713
  265MOL0     H35754   8.460   3.966  -0.294  0.4748  0.0080  0.6327
  265MOL0     H35755   8.290   4.134  -0.350  0.0197  1.0174 -0.9618
  265MOL0     H35756   8.205   3.978  -0.355 -1.7714  2.4792 -1.2533
  265MOL0     H35757   8.833   3.592  -0.840 -0.4418  0.9926  3.1030
  265MOL0     H35758   9.057   3.528  -0.743 -2.6755  3.0631 -0.8524
  265MOL0     H35759   9.058   3.272  -0.253 -0.3630 -2.3777 -2.0617
  265MOL0     H35760   9.242   3.226  -0.066  1.9719  0.4842  0.1644
  265MOL0     H35761  10.500   2.510   0.858 -0.3209 -1.8164  0.1722
  265MOL0     H35762  10.730   2.441   0.908 -0.9767  0.3037  0.6336
  265MOL0     H35763  11.269   2.498   0.942  0.7885 -1.5836  2.5254
  265MOL0     H35764  11.475   2.367   0.898 -0.7270  0.8903 -0.3895
  265MOL0     H35765  11.648   2.315   0.755  0.4464 -1.5660 -1.4059
  265MOL0     H35766  11.628   2.183   0.885  1.5864  0.0155  0.7966
  265MOL0     H35767  11.757   2.134   0.622  0.1929  2.3149  1.1102
  265MOL0     H35768  11.700   2.020   0.731 -1.7332  0.4231  0.7765
  265MOL0     H35769  11.891   2.247   0.815  1.9908  0.1372 -1.2318
  265MOL0     H35770  11.951   2.088   0.742 -1.0605 -1.7318 -0.0030
  265MOL0     H35771  11.828   1.983   0.959  2.8730 -2.1890 -1.0874
  265MOL0     H35772  11.819   2.151   1.017 -4.9647 -0.9790 -1.7616
  265MOL0     H35773  12.212   2.065   1.108  0.7990 -2.0191 -0.0270
  265MOL0     H35774  11.288   2.113   0.633 -0.0605  1.3074 -0.0220
  265MOL0     H35775  11.059   2.204   0.680 -0.1796  1.6700 -0.0693
  266MOL0     O35776   5.198  10.578   7.264 -0.2913 -0.0782 -0.1815
  266MOL0     C35777   5.260  10.525   7.356  0.0276  0.0239  0.0171
  266MOL0     O35778   5.209  10.426   7.432  0.3873  0.5455 -0.7517
  266MOL0     C35779   5.078  10.386   7.413 -0.0194 -0.1396 -0.0832
  266MOL0     C35780   4.977  10.436   7.491 -0.0913  0.4774 -0.4353
  266MOL0     C35781   4.841  10.395   7.475  0.3010 -0.7470  0.1226
  266MOL0     C35782   4.811  10.310   7.366  0.4480  0.1765  0.4424
  266MOL0     O35783   4.682  10.279   7.347  0.1450 -0.4227 -0.0205
  266MOL0     C35784   4.638  10.197   7.235 -0.3647  0.0786 -0.2473
  266MOL0     C35785   4.490  10.155   7.236 -0.1830 -0.3568 -0.0150
  266MOL0     C35786   4.442  10.090   7.365 -0.6395 -0.2162  0.3282
  266MOL0     C35787   4.305  10.142   7.387 -0.7861  0.0117  0.5572
  266MOL0     C35788   4.258  10.104   7.529  0.5915 -0.3225  0.6655
  266MOL0     C35789   4.106  10.123   7.547 -0.1432 -0.6817 -0.1477
  266MOL0     C35790   4.069  10.092   7.698  0.3147 -0.1770  0.3474
  266MOL0     C35791   3.916  10.085   7.723 -0.8783 -0.8039  0.1076
  266MOL0     N35792   3.856  10.226   7.710 -0.7662  0.6002 -0.3856
  266MOL0     C35793   3.856  10.312   7.815 -0.0727 -0.3831  0.1951
  266MOL0     C35794   3.786  10.419   7.769 -0.3474  0.2314  0.2950
  266MOL0     C35795   3.761  10.546   7.847 -0.3144  0.9136  0.0354
  266MOL0     C35796   3.866  10.652   7.802  0.3914  0.9650  0.5797
  266MOL0     C35797   3.854  10.781   7.875 -0.7082 -0.9969  1.2013
  266MOL0     C35798   3.711  10.847   7.881 -1.1719 -0.6400 -0.6645
  266MOL0     O35799   3.645  10.874   7.754 -0.1369 -0.1607  0.1289
  266MOL0     C35800   3.512  10.907   7.750 -0.7552 -0.1411 -0.6032
  266MOL0     C35801   3.439  10.903   7.629 -0.4280  0.5946 -1.0015
  266MOL0     C35802   3.312  10.939   7.620 -0.0966 -0.5895 -0.4364
  266MOL0     C35803   3.248  10.923   7.487 -0.5317 -0.1792 -0.1285
  266MOL0     C35804   3.247  10.999   7.733  0.1939  0.1032  0.1314
  266MOL0     C35805   3.104  11.037   7.729  0.0118  0.5770  0.0717
  266MOL0     O35806   3.045  11.034   7.848  0.3233  0.0701  0.3133
  266MOL0     C35807   2.941  11.114   7.872  0.6595  0.0658 -0.4773
  266MOL0     C35808   2.811  11.071   7.840  0.3558 -1.1654  0.0997
  266MOL0     C35809   2.699  11.157   7.859 -0.8871 -0.0508  0.3190
  266MOL0     C35810   2.712  11.285   7.927 -0.6085  0.7255  0.7340
  266MOL0     O35811   2.610  11.369   7.955  0.7235 -0.0122 -0.0163
  266MOL0     C35812   2.504  11.351   7.860 -0.1213 -0.8128  0.1038
  266MOL0     C35813   2.439  11.489   7.847  0.5078  1.1062 -0.3267
  266MOL0     C35814   2.538  11.600   7.814 -0.4866  0.0221  0.3389
  266MOL0     C35815   2.499  11.692   7.694  0.3831 -0.9411  0.6320
  266MOL0     C35816   2.367  11.771   7.720  0.0160 -0.1633 -0.2554
  266MOL0     C35817   2.345  11.885   7.628 -0.0542 -0.6057  0.4896
  266MOL0     C35818   2.444  11.998   7.665 -0.2136 -0.3694 -0.2900
  266MOL0     C35819   2.399  12.125   7.587  0.5250  0.0746  0.5590
  266MOL0    Cl35820   2.226  12.175   7.621  0.4383 -0.0618  0.1029
  266MOL0     C35821   2.839  11.315   7.971 -0.5146  0.3641 -0.4937
  266MOL0     C35822   2.955  11.239   7.939 -0.1431  0.3516 -0.4578
  266MOL0     O35823   3.062  11.087   7.629  0.4603  0.4570  0.2366
  266MOL0     C35824   3.321  11.018   7.848 -0.1920 -0.7037 -0.3498
  266MOL0     C35825   3.453  10.972   7.856 -0.3050  0.0523 -0.2044
  266MOL0     N35826   3.773  10.404   7.630  0.0437 -0.5203  0.1988
  266MOL0     N35827   3.804  10.284   7.601  0.0252 -0.0480 -0.0987
  266MOL0     C35828   4.916  10.258   7.295 -0.1147 -0.0456 -0.6587
  266MOL0     C35829   5.049  10.289   7.314  0.7136 -0.0706 -0.4149
  266MOL0     C35830   5.401  10.573   7.393  0.5309 -0.0686  1.2842
  266MOL0     C35831   5.488  10.514   7.485 -0.2329  0.2826 -0.7209
  266MOL0     C35832   5.604  10.582   7.514  0.1097 -0.5481  0.1949
  266MOL0     C35833   5.640  10.708   7.472 -0.8665 -0.2671 -0.5871
  266MOL0     O35834   5.762  10.757   7.520 -0.2292 -0.3626 -0.0753
  266MOL0     C35835   5.787  10.901   7.504  0.1652 -0.2197 -0.7958
  266MOL0     C35836   5.890  10.951   7.403  0.2484 -0.0043  0.3841
  266MOL0     C35837   6.028  10.872   7.425  0.9181 -0.8806 -0.1465
  266MOL0     C35838   6.143  10.960   7.375  0.3437  0.4142  0.5226
  266MOL0     C35839   6.182  10.927   7.239  0.2814 -0.4440  0.1481
  266MOL0     C35840   6.204  10.898   7.121  0.7506 -0.8619 -0.3570
  266MOL0     C35841   5.570  10.755   7.368 -0.2059  0.7267 -0.4027
  266MOL0     C35842   5.451  10.693   7.331 -0.5368  0.5749 -0.5879
  266MOL0     H35843   4.996  10.520   7.556 -1.7350 -0.2203  1.0343
  266MOL0     H35844   4.767  10.435   7.543 -1.0148 -1.1773 -1.0253
  266MOL0     H35845   4.660  10.243   7.138  0.2563  1.0246  0.3179
  266MOL0     H35846   4.698  10.106   7.236  0.0044  0.2921 -1.5629
  266MOL0     H35847   4.433  10.242   7.203  2.0737  0.8590 -0.9878
  266MOL0     H35848   4.481  10.082   7.155  0.7480 -1.3168  0.7124
  266MOL0     H35849   4.424   9.983   7.352 -1.1417  0.0501 -1.4763
  266MOL0     H35850   4.516  10.104   7.445  0.0612 -0.2678 -0.2921
  266MOL0     H35851   4.298  10.251   7.382 -0.3565  0.1266  1.9247
  266MOL0     H35852   4.233  10.112   7.311 -2.4379  2.2295  1.1190
  266MOL0     H35853   4.280   9.999   7.550  0.6402 -0.0848  1.8964
  266MOL0     H35854   4.318  10.168   7.596 -1.4203  3.8292 -1.1259
  266MOL0     H35855   4.075  10.226   7.526  0.6135 -0.3151  0.4892
  266MOL0     H35856   4.057  10.049   7.482 -0.8937 -1.7928  1.6154
  266MOL0     H35857   4.102   9.991   7.723 -0.0521 -0.1770  0.8625
  266MOL0     H35858   4.123  10.157   7.767 -0.5545 -0.5016  1.3519
  266MOL0     H35859   3.904  10.043   7.823 -0.1168 -1.7554 -0.1855
  266MOL0     H35860   3.870  10.016   7.651 -0.7831  0.4677 -1.2191
  266MOL0     H35861   3.894  10.295   7.915  0.0461  0.5923  0.3214
  266MOL0     H35862   3.660  10.583   7.828 -1.1102 -1.0381  0.2473
  266MOL0     H35863   3.780  10.524   7.953 -3.6174  0.0839  0.5458
  266MOL0     H35864   3.853  10.674   7.696  1.5445 -2.9495 -0.5587
  266MOL0     H35865   3.965  10.606   7.808 -0.8046 -2.3466 -1.9453
  266MOL0     H35866   3.913  10.858   7.824 -2.1223 -0.0970  0.8791
  266MOL0     H35867   3.896  10.755   7.972  1.3414 -1.0217  0.3580
  266MOL0     H35868   3.722  10.944   7.929 -1.1677 -0.7711 -0.3964
  266MOL0     H35869   3.644  10.781   7.939  1.9348 -0.8276  3.1059
  266MOL0     H35870   3.494  10.867   7.542  0.7639 -1.2461  0.4342
  266MOL0     H35871   3.244  11.023   7.444  0.4716 -0.1811 -0.2515
  266MOL0     H35872   3.310  10.869   7.414 -0.0653  1.1890 -0.7689
  266MOL0     H35873   3.143  10.891   7.497 -1.6543  3.0572 -0.5409
  266MOL0     H35874   2.800  10.975   7.792  0.3545 -0.2611 -1.7696
  266MOL0     H35875   2.603  11.127   7.819 -0.9105 -1.2363  1.1889
  266MOL0     H35876   2.540  11.328   7.759 -0.6913 -0.9221 -0.0810
  266MOL0     H35877   2.428  11.280   7.894 -1.9217  1.4827  1.0964
  266MOL0     H35878   2.360  11.480   7.771 -0.4064 -3.6202  0.8699
  266MOL0     H35879   2.383  11.516   7.937 -1.0340 -1.1872 -0.5222
  266MOL0     H35880   2.635  11.563   7.781 -0.2319  1.8497 -1.1419
  266MOL0     H35881   2.560  11.652   7.908  2.0134  0.1858 -0.2644
  266MOL0     H35882   2.576  11.769   7.685 -0.3713 -0.3704 -1.4909
  266MOL0     H35883   2.501  11.632   7.603 -1.1922 -1.3426  0.8428
  266MOL0     H35884   2.358  11.809   7.822  0.3588  0.1320 -0.3364
  266MOL0     H35885   2.273  11.715   7.713 -0.5156  0.7945 -1.1010
  266MOL0     H35886   2.363  11.858   7.524  2.6615  0.6654  0.5279
  266MOL0     H35887   2.242  11.919   7.645 -0.0465 -0.1835 -0.2868
  266MOL0     H35888   2.549  11.981   7.638 -0.1105 -0.0567 -0.0922
  266MOL0     H35889   2.445  12.022   7.771  2.6222 -2.8196  0.3735
  266MOL0     H35890   2.400  12.114   7.479 -1.5236 -1.3978  0.6452
  266MOL0     H35891   2.470  12.202   7.619  0.6234  0.4287 -0.4962
  266MOL0     H35892   2.858  11.413   8.015 -3.7914  0.8754  0.0366
  266MOL0     H35893   3.051  11.283   7.964 -0.4097  1.5906 -1.5252
  266MOL0     H35894   3.275  11.070   7.932  0.3984 -0.5981 -0.0914
  266MOL0     H35895   3.505  10.976   7.951 -0.5757 -2.4111  0.1120
  266MOL0     H35896   4.885  10.199   7.209 -2.1666 -1.9759  1.2874
  266MOL0     H35897   5.122  10.237   7.252  0.2825 -3.1294  1.4291
  266MOL0     H35898   5.470  10.417   7.529  1.0277  0.9146  1.3123
  266MOL0     H35899   5.671  10.533   7.585  1.7015 -0.1400 -0.9805
  266MOL0     H35900   5.691  10.946   7.479 -1.0477 -2.3179 -0.1188
  266MOL0     H35901   5.823  10.940   7.599  0.9595  1.7865 -1.8523
  266MOL0     H35902   5.900  11.059   7.394 -0.2910 -0.0513 -1.0943
  266MOL0     H35903   5.849  10.922   7.305 -0.8062 -0.6745  0.9898
  266MOL0     H35904   6.016  10.775   7.375 -2.6240 -2.3197  2.9796
  266MOL0     H35905   6.043  10.857   7.532  0.3971  1.3842  0.2824
  266MOL0     H35906   6.229  10.938   7.438  0.9596 -0.2489 -0.5183
  266MOL0     H35907   6.128  11.068   7.386 -1.6745  0.5492 -2.3189
  266MOL0     H35908   6.236  10.878   7.021  1.6419  0.9823 -0.4883
  266MOL0     H35909   5.590  10.842   7.305 -0.9735 -0.0434 -1.7462
  266MOL0     H35910   5.392  10.733   7.249  0.9395 -1.6044 -2.8807
  267MOL0     O35911   8.873   7.158   6.152 -0.8886  0.8580 -0.1098
  267MOL0     C35912   8.938   7.122   6.248  0.4709  0.2344 -0.4403
  267MOL0     O35913   8.897   7.139   6.376  0.1460  0.9092  0.3064
  267MOL0     C35914   8.768   7.174   6.397 -0.2644  0.2926  0.2016
  267MOL0     C35915   8.664   7.079   6.385  0.8163  0.3500 -0.0368
  267MOL0     C35916   8.536   7.111   6.420 -0.1285  0.2957 -0.8958
  267MOL0     C35917   8.508   7.242   6.474  0.7106  0.0567  0.3468
  267MOL0     O35918   8.375   7.263   6.506 -0.4319  1.0663  0.7993
  267MOL0     C35919   8.335   7.401   6.496  0.1425 -0.2688 -0.1647
  267MOL0     C35920   8.185   7.405   6.487 -1.1829  0.9618 -0.2047
  267MOL0     C35921   8.134   7.493   6.368 -0.6705  0.3582 -1.0878
  267MOL0     C35922   7.986   7.507   6.378 -0.2407 -0.3762  0.2614
  267MOL0     C35923   7.938   7.583   6.253  0.0056  0.2504 -0.9878
  267MOL0     C35924   7.787   7.614   6.260 -0.2196 -0.1523  0.5921
  267MOL0     C35925   7.726   7.662   6.125 -0.1897  0.1212 -0.0412
  267MOL0     C35926   7.569   7.657   6.134 -0.6916 -0.3656 -0.3144
  267MOL0     N35927   7.520   7.772   6.210 -0.2962 -0.4271 -0.4888
  267MOL0     C35928   7.384   7.796   6.221  0.4543 -0.5347  0.5008
  267MOL0     C35929   7.364   7.913   6.269  0.0723 -0.3554 -0.5858
  267MOL0     C35930   7.226   7.976   6.293  0.4634  0.5199 -0.1705
  267MOL0     C35931   7.216   8.116   6.230  0.5226 -0.1199 -0.6470
  267MOL0     C35932   7.115   8.202   6.309 -0.1857 -0.0385  0.0151
  267MOL0     C35933   6.971   8.178   6.286  0.3286 -0.4398  0.2137
  267MOL0     O35934   6.896   8.294   6.322  0.0602  0.7371  0.1406
  267MOL0     C35935   6.757   8.301   6.325  0.4950 -0.4614  0.5615
  267MOL0     C35936   6.680   8.194   6.283 -0.5075 -0.1984  0.0795
  267MOL0     C35937   6.536   8.197   6.275  0.4847  0.5043  0.2405
  267MOL0     C35938   6.470   8.066   6.226  0.7970 -0.8403  0.1772
  267MOL0     C35939   6.470   8.315   6.308  0.2855 -0.6531 -0.2918
  267MOL0     C35940   6.324   8.347   6.287  0.4746 -0.3707  0.1338
  267MOL0     O35941   6.276   8.475   6.307 -0.4526 -0.6765  0.0759
  267MOL0     C35942   6.143   8.494   6.347  0.2438  0.8587 -0.5796
  267MOL0     C35943   6.049   8.525   6.255 -0.7090 -0.2691  0.3443
  267MOL0     C35944   5.912   8.523   6.281  0.3936 -0.3991 -0.1642
  267MOL0     C35945   5.859   8.510   6.404 -0.5642  0.1854  0.3763
  267MOL0     O35946   5.727   8.518   6.430  0.1428 -0.1045 -0.1460
  267MOL0     C35947   5.631   8.535   6.320  0.2054 -0.4121 -0.2873
  267MOL0     C35948   5.504   8.587   6.388  0.4519 -0.4050  0.2123
  267MOL0     C35949   5.453   8.495   6.497  0.0246  0.2805 -0.3082
  267MOL0     C35950   5.325   8.525   6.576  0.3173 -0.2871 -0.0027
  267MOL0     C35951   5.211   8.572   6.482  1.1803  0.1800 -0.3267
  267MOL0     C35952   5.074   8.580   6.547 -0.1870 -0.2656 -0.1497
  267MOL0     C35953   4.962   8.624   6.443 -0.1243  0.3328  0.3737
  267MOL0     C35954   4.842   8.673   6.522  0.0504  0.2453  0.3653
  267MOL0    Cl35955   4.706   8.667   6.408  0.1198 -0.0882 -0.2320
  267MOL0     C35956   5.952   8.482   6.507 -1.2174 -0.5385 -0.5145
  267MOL0     C35957   6.091   8.473   6.475  0.3840 -1.1063 -0.4307
  267MOL0     O35958   6.251   8.257   6.252 -0.2289 -0.1458 -0.4233
  267MOL0     C35959   6.547   8.413   6.362 -0.0943  0.5299  0.1229
  267MOL0     C35960   6.687   8.417   6.365 -0.4840 -0.1531 -0.1310
  267MOL0     N35961   7.490   7.967   6.300  0.3861 -0.5605 -1.0940
  267MOL0     N35962   7.584   7.884   6.263  0.9373 -0.2156 -0.2865
  267MOL0     C35963   8.607   7.337   6.482  0.1236  0.6134 -0.4021
  267MOL0     C35964   8.738   7.297   6.445  0.3321  0.4770 -0.0145
  267MOL0     C35965   9.062   7.051   6.228 -0.2494  0.8477 -0.0009
  267MOL0     C35966   9.091   6.995   6.104 -0.3299 -0.4899 -0.1379
  267MOL0     C35967   9.216   6.933   6.079  0.5305  0.0986 -0.1039
  267MOL0     C35968   9.318   6.920   6.180  0.2758  0.7460  0.7326
  267MOL0     O35969   9.433   6.857   6.154 -0.0397  0.2181  0.1701
  267MOL0     C35970   9.502   6.890   6.024  0.0359  0.1621 -0.5939
  267MOL0     C35971   9.648   6.854   6.057 -0.4204  0.1270 -0.5912
  267MOL0     C35972   9.738   6.977   6.098  0.1922  1.1021  0.3216
  267MOL0     C35973   9.883   6.955   6.061 -0.1897  0.2040 -0.8591
  267MOL0     C35974   9.975   7.050   6.132  0.0611 -0.2389  0.1811
  267MOL0     C35975  10.048   7.119   6.203  0.2269 -1.1288 -0.0085
  267MOL0     C35976   9.286   6.963   6.308 -0.1199 -0.2097  0.2323
  267MOL0     C35977   9.153   7.027   6.334  0.0372  0.1073 -0.1927
  267MOL0     H35978   8.674   6.975   6.354  1.1899  0.4091 -0.1241
  267MOL0     H35979   8.451   7.043   6.425  0.4172 -0.2909  1.1758
  267MOL0     H35980   8.369   7.455   6.585 -0.9560 -0.3649  0.3262
  267MOL0     H35981   8.381   7.449   6.409  1.6911 -1.0247  0.1911
  267MOL0     H35982   8.153   7.304   6.460  2.8815 -0.7042  0.5800
  267MOL0     H35983   8.142   7.426   6.586 -0.3941 -2.7747  1.1058
  267MOL0     H35984   8.174   7.595   6.377 -0.6135  0.3987 -1.7708
  267MOL0     H35985   8.158   7.438   6.277 -1.6337 -0.1863 -1.0188
  267MOL0     H35986   7.941   7.408   6.381  0.7844 -0.8840 -0.2243
  267MOL0     H35987   7.968   7.565   6.469  2.6555  1.4740 -0.1921
  267MOL0     H35988   8.004   7.668   6.232 -1.3607  1.3491 -0.9580
  267MOL0     H35989   7.953   7.523   6.162 -1.8056 -0.3509 -0.9146
  267MOL0     H35990   7.733   7.521   6.281  1.2849 -1.1594  0.1281
  267MOL0     H35991   7.769   7.690   6.336 -1.4480 -0.7586  0.9364
  267MOL0     H35992   7.756   7.763   6.097 -2.3174  0.6782 -0.4661
  267MOL0     H35993   7.768   7.600   6.046  1.7227 -0.5526  1.4055
  267MOL0     H35994   7.528   7.563   6.175 -2.8945  0.9705  0.7582
  267MOL0     H35995   7.524   7.650   6.035 -3.1320 -0.5164  0.7262
  267MOL0     H35996   7.298   7.732   6.202  1.3940 -1.7969  0.3744
  267MOL0     H35997   7.156   7.903   6.251  2.4141 -2.7560  1.8037
  267MOL0     H35998   7.184   7.967   6.394 -0.7032 -1.7287 -0.7995
  267MOL0     H35999   7.185   8.107   6.126  0.2880  2.4667 -0.8694
  267MOL0     H36000   7.305   8.174   6.258 -2.0197  2.8360  2.3356
  267MOL0     H36001   7.144   8.304   6.282  3.6849  0.2179  4.0559
  267MOL0     H36002   7.129   8.214   6.416  0.2609 -1.0723  0.0894
  267MOL0     H36003   6.948   8.092   6.349  0.9144  0.1424  1.2508
  267MOL0     H36004   6.971   8.158   6.178  2.0948  3.6457 -0.7566
  267MOL0     H36005   6.732   8.109   6.240 -0.3821 -0.5461  0.9068
  267MOL0     H36006   6.453   8.070   6.118  1.4789  2.8842  0.0610
  267MOL0     H36007   6.531   7.979   6.254  0.7376 -1.2031 -0.7984
  267MOL0     H36008   6.380   8.041   6.282  1.6296 -4.8613  0.0154
  267MOL0     H36009   6.075   8.525   6.149 -0.4509  2.8286  0.3078
  267MOL0     H36010   5.850   8.533   6.193  0.4988 -0.6963 -0.2737
  267MOL0     H36011   5.667   8.619   6.260  0.3521  0.7906  1.3891
  267MOL0     H36012   5.609   8.444   6.264 -0.8495  0.5809 -1.5416
  267MOL0     H36013   5.531   8.682   6.434 -0.3236  0.4784 -1.0776
  267MOL0     H36014   5.425   8.598   6.313  0.0535 -1.8389  0.3797
  267MOL0     H36015   5.531   8.491   6.574 -0.9277 -3.6243  0.6577
  267MOL0     H36016   5.447   8.398   6.447 -1.3065  1.9512 -3.6880
  267MOL0     H36017   5.277   8.446   6.634  1.7719 -1.2477 -0.0547
  267MOL0     H36018   5.354   8.603   6.646  1.1135 -0.3951 -0.2050
  267MOL0     H36019   5.203   8.498   6.401  1.1341 -1.2842  0.9643
  267MOL0     H36020   5.222   8.666   6.428 -2.5950  0.5669 -0.6877
  267MOL0     H36021   5.050   8.479   6.579  0.2016 -0.1957  0.3685
  267MOL0     H36022   5.074   8.641   6.637 -2.4325 -1.3592  0.6547
  267MOL0     H36023   4.936   8.537   6.382 -2.6009 -0.9824  3.0875
  267MOL0     H36024   5.005   8.700   6.378 -2.3333  0.7719 -0.6561
  267MOL0     H36025   4.852   8.780   6.538 -0.3942  0.8375 -2.6303
  267MOL0     H36026   4.841   8.612   6.613  1.2611 -3.3431 -1.7843
  267MOL0     H36027   5.913   8.464   6.606  1.3075  0.8270  0.8190
  267MOL0     H36028   6.168   8.463   6.551  0.1830  1.8005  0.2797
  267MOL0     H36029   6.498   8.505   6.391 -1.8264 -0.0473 -0.7979
  267MOL0     H36030   6.725   8.504   6.418 -1.3623 -2.1987  4.3203
  267MOL0     H36031   8.583   7.433   6.527 -1.6251  1.0982 -2.2545
  267MOL0     H36032   8.813   7.373   6.467  3.1840 -1.7554 -1.4222
  267MOL0     H36033   9.015   7.015   6.029 -1.7195 -2.5256  0.6125
  267MOL0     H36034   9.229   6.896   5.978  1.0602  1.0317 -0.3888
  267MOL0     H36035   9.463   6.815   5.955 -0.4184 -0.8965  0.7690
  267MOL0     H36036   9.482   6.993   5.992  2.0188  1.1877  1.2034
  267MOL0     H36037   9.691   6.810   5.966  0.8925 -1.0081  0.5382
  267MOL0     H36038   9.650   6.782   6.139  0.0423 -1.1310 -1.6686
  267MOL0     H36039   9.723   6.998   6.204 -0.5904  0.3853  0.3634
  267MOL0     H36040   9.708   7.063   6.036  1.7728 -0.4216 -2.7995
  267MOL0     H36041   9.899   6.961   5.953  0.1461  0.4983 -0.7949
  267MOL0     H36042   9.912   6.859   6.104 -2.0971  0.6408  1.5914
  267MOL0     H36043  10.109   7.168   6.276 -1.4854 -1.3082  1.5873
  267MOL0     H36044   9.346   6.955   6.397 -2.8348 -1.2600  2.1067
  267MOL0     H36045   9.136   7.060   6.436  1.7083 -3.5689  1.4942
  268MOL0     O36046   5.062   9.390   5.615  0.7394  0.8062  0.2648
  268MOL0     C36047   5.054   9.391   5.491 -0.1293 -0.1816  0.2776
  268MOL0     O36048   4.939   9.395   5.412  0.7882  0.6131  0.3608
  268MOL0     C36049   4.813   9.392   5.470 -0.0975 -0.0395  0.3400
  268MOL0     C36050   4.723   9.292   5.445 -0.8049  0.1504  0.1446
  268MOL0     C36051   4.589   9.303   5.493  0.1092 -0.8779 -0.2281
  268MOL0     C36052   4.540   9.434   5.542  0.2207 -0.2880 -0.3950
  268MOL0     O36053   4.413   9.454   5.592 -0.2945  0.3145  0.2784
  268MOL0     C36054   4.314   9.358   5.556  0.6625 -0.1847  0.0486
  268MOL0     C36055   4.173   9.398   5.602  0.6737  1.0415 -0.4130
  268MOL0     C36056   4.069   9.297   5.570 -0.9689 -0.1190 -0.0425
  268MOL0     C36057   3.926   9.356   5.570  0.1196  0.1442  0.0191
  268MOL0     C36058   3.806   9.267   5.566 -0.1550 -0.6333 -0.0547
  268MOL0     C36059   3.828   9.159   5.461 -0.0880  0.3163 -0.5961
  268MOL0     C36060   3.715   9.058   5.456  0.4820 -0.5681  0.3497
  268MOL0     C36061   3.586   9.123   5.419  0.0280  0.3488  0.2685
  268MOL0     N36062   3.480   9.022   5.394  0.1024  0.2751  0.2859
  268MOL0     C36063   3.467   8.897   5.450  0.1152 -0.7114  0.2013
  268MOL0     C36064   3.350   8.850   5.410 -0.5353 -0.3607 -0.1035
  268MOL0     C36065   3.296   8.713   5.439 -0.0365  0.4397  0.7418
  268MOL0     C36066   3.229   8.718   5.579 -0.3851  0.4665  0.0723
  268MOL0     C36067   3.220   8.586   5.653  0.7720  1.0301 -0.6145
  268MOL0     C36068   3.134   8.469   5.599 -0.4204  0.5974 -0.3428
  268MOL0     O36069   3.003   8.510   5.614  0.6143 -1.2371  0.1390
  268MOL0     C36070   2.895   8.431   5.651 -0.6119 -0.4918  0.7436
  268MOL0     C36071   2.903   8.294   5.649  0.0548  0.5878 -0.2058
  268MOL0     C36072   2.793   8.212   5.683 -0.1151 -0.1249 -0.2790
  268MOL0     C36073   2.826   8.066   5.687 -0.2397  0.1577 -0.0876
  268MOL0     C36074   2.672   8.271   5.710 -0.5037  0.5009 -1.3740
  268MOL0     C36075   2.556   8.195   5.756  0.8021 -0.6264  0.3822
  268MOL0     O36076   2.436   8.255   5.732 -0.5273  0.5494 -0.0539
  268MOL0     C36077   2.327   8.175   5.746 -0.0519 -0.2942 -0.1347
  268MOL0     C36078   2.215   8.219   5.819 -0.0073  0.3554 -0.2764
  268MOL0     C36079   2.096   8.149   5.825  0.6365  0.4309 -0.0500
  268MOL0     C36080   2.076   8.026   5.754 -0.3580 -0.4420 -0.6605
  268MOL0     O36081   1.961   7.954   5.757  0.5660 -0.4223  0.6002
  268MOL0     C36082   1.847   8.006   5.832  0.3503  0.1175 -0.3172
  268MOL0     C36083   1.743   7.898   5.808 -0.1814 -0.4455  0.6273
  268MOL0     C36084   1.627   7.907   5.910  0.4165 -0.1808 -0.1826
  268MOL0     C36085   1.553   7.776   5.884 -0.8651 -0.4502  0.0048
  268MOL0     C36086   1.441   7.761   5.975 -0.2329  0.0633  0.3559
  268MOL0     C36087   1.324   7.864   5.958 -0.4728  0.5471 -0.2952
  268MOL0     C36088   1.187   7.814   6.018  0.9702 -0.4493 -0.4840
  268MOL0     C36089   1.210   7.796   6.175 -0.1669 -1.0553 -0.4737
  268MOL0    Cl36090   1.283   7.940   6.270 -0.3643 -0.5958 -0.0620
  268MOL0     C36091   2.182   7.990   5.671 -0.0412  0.1028 -0.1847
  268MOL0     C36092   2.307   8.053   5.671 -0.7008 -1.1750  0.0811
  268MOL0     O36093   2.580   8.094   5.822 -0.5246  0.5995  0.6865
  268MOL0     C36094   2.663   8.416   5.720 -0.4341  0.2634 -0.5690
  268MOL0     C36095   2.774   8.498   5.683  0.7346 -0.5163  0.5187
  268MOL0     N36096   3.292   8.946   5.332 -0.8866  0.6162 -0.0746
  268MOL0     N36097   3.376   9.037   5.310  0.5896 -0.7395  0.2067
  268MOL0     C36098   4.635   9.537   5.563 -0.9066 -0.5863  0.5956
  268MOL0     C36099   4.768   9.511   5.523 -0.3990  0.1457 -0.6737
  268MOL0     C36100   5.179   9.359   5.416  0.4782 -0.3081  0.1268
  268MOL0     C36101   5.301   9.317   5.476  0.0629  0.8742  0.7786
  268MOL0     C36102   5.426   9.320   5.416 -0.6532  0.7134  0.4560
  268MOL0     C36103   5.431   9.339   5.280 -0.0930  0.7473 -0.3845
  268MOL0     O36104   5.548   9.333   5.213  0.1758  0.7083  0.0273
  268MOL0     C36105   5.609   9.206   5.178 -0.0742 -0.2132 -0.6027
  268MOL0     C36106   5.558   9.119   5.066 -1.2486  0.1178  0.3785
  268MOL0     C36107   5.597   9.168   4.924  0.1701  0.6001 -0.3564
  268MOL0     C36108   5.470   9.217   4.848 -1.2595  0.4271 -0.3581
  268MOL0     C36109   5.360   9.125   4.835 -0.2497  0.2303 -0.5468
  268MOL0     C36110   5.263   9.050   4.815 -0.5801 -0.4275  0.7379
  268MOL0     C36111   5.316   9.371   5.208  0.3565 -0.2335  0.3170
  268MOL0     C36112   5.189   9.386   5.274 -0.1671 -0.2340 -0.3780
  268MOL0     H36113   4.746   9.202   5.389  1.1209  0.4966  0.3108
  268MOL0     H36114   4.511   9.230   5.474 -0.4788  0.2246 -2.4044
  268MOL0     H36115   4.316   9.355   5.446  0.0431  3.3898 -0.1557
  268MOL0     H36116   4.340   9.258   5.594 -0.4637 -0.7158 -0.5291
  268MOL0     H36117   4.181   9.403   5.711 -0.2389  1.5858 -0.3668
  268MOL0     H36118   4.131   9.493   5.567 -2.3585  0.4206  1.1743
  268MOL0     H36119   4.080   9.251   5.471  0.0637 -1.0952  0.4990
  268MOL0     H36120   4.086   9.217   5.643 -2.7351  1.4539  2.2771
  268MOL0     H36121   3.925   9.433   5.647  2.9079  1.5180 -1.1837
  268MOL0     H36122   3.911   9.403   5.472 -3.7573 -1.3092 -0.2821
  268MOL0     H36123   3.791   9.219   5.663  1.0270 -2.0824 -0.5404
  268MOL0     H36124   3.719   9.330   5.545 -0.0196  0.0288  1.2990
  268MOL0     H36125   3.819   9.214   5.367 -0.7114  1.9492  0.3634
  268MOL0     H36126   3.922   9.103   5.462 -0.5595 -0.4811 -0.7435
  268MOL0     H36127   3.744   8.980   5.386 -2.3366 -1.0489 -0.3995
  268MOL0     H36128   3.710   9.005   5.552  1.2948  0.3914  0.9425
  268MOL0     H36129   3.608   9.186   5.331  1.7358  0.6599  0.8669
  268MOL0     H36130   3.550   9.181   5.504 -1.0839 -1.8795  1.3667
  268MOL0     H36131   3.545   8.848   5.507  0.1838  0.8160  1.4855
  268MOL0     H36132   3.213   8.690   5.372 -0.3466  1.0145  0.9259
  268MOL0     H36133   3.366   8.629   5.436 -3.1962 -2.4408  1.9195
  268MOL0     H36134   3.125   8.751   5.573 -1.0141 -1.2834  0.6565
  268MOL0     H36135   3.282   8.788   5.645 -2.2192  2.6310 -0.6313
  268MOL0     H36136   3.196   8.599   5.759 -0.0133 -0.6515 -0.5566
  268MOL0     H36137   3.321   8.544   5.657  0.2810 -0.1168  0.4315
  268MOL0     H36138   3.165   8.387   5.664  2.8939  1.4427 -0.6652
  268MOL0     H36139   3.164   8.452   5.495 -2.5900  0.2609 -0.9676
  268MOL0     H36140   3.001   8.249   5.637  0.7565  1.8023  0.7053
  268MOL0     H36141   2.906   8.045   5.616  1.1404  0.1320  1.4204
  268MOL0     H36142   2.862   8.037   5.786 -0.0752  3.4417  0.9486
  268MOL0     H36143   2.743   8.001   5.658  0.2552 -0.8011  0.6179
  268MOL0     H36144   2.230   8.310   5.876 -1.0426  1.0509 -1.0628
  268MOL0     H36145   2.020   8.188   5.892  1.7788  1.9718  0.3900
  268MOL0     H36146   1.871   8.027   5.936 -0.0147 -0.3869 -0.1258
  268MOL0     H36147   1.809   8.096   5.782 -2.1568  0.2578  1.6355
  268MOL0     H36148   1.704   7.914   5.707 -0.7133  0.8136  1.0121
  268MOL0     H36149   1.801   7.806   5.820  0.3756  0.2389  4.3136
  268MOL0     H36150   1.566   7.995   5.884 -1.6278 -1.0523  1.3600
  268MOL0     H36151   1.658   7.912   6.014  3.6676  0.1883 -1.0644
  268MOL0     H36152   1.512   7.770   5.783 -2.1472  0.8437  0.4039
  268MOL0     H36153   1.620   7.690   5.895 -1.7662 -1.3153 -1.0329
  268MOL0     H36154   1.477   7.759   6.078  0.5256  1.5218  0.1466
  268MOL0     H36155   1.393   7.664   5.958 -0.2628 -0.0502  1.0472
  268MOL0     H36156   1.359   7.957   6.003 -2.1555  0.3898  1.5006
  268MOL0     H36157   1.305   7.893   5.854  2.4584  1.2022 -0.7323
  268MOL0     H36158   1.143   7.723   5.976 -2.0828  0.9676 -0.6947
  268MOL0     H36159   1.115   7.896   6.002 -2.3459 -3.1780 -0.7412
  268MOL0     H36160   1.282   7.714   6.176  0.9265 -0.1416 -1.2964
  268MOL0     H36161   1.114   7.772   6.221 -0.3887  1.5610  0.5967
  268MOL0     H36162   2.176   7.905   5.603 -0.4251  0.1431 -0.1983
  268MOL0     H36163   2.386   8.019   5.604  0.1663 -0.3185  0.6449
  268MOL0     H36164   2.573   8.467   5.753 -0.1526  1.7332 -1.9488
  268MOL0     H36165   2.780   8.606   5.679 -1.6101 -0.3583 -0.0794
  268MOL0     H36166   4.620   9.637   5.603 -3.1373  0.8304 -3.2737
  268MOL0     H36167   4.848   9.581   5.545 -1.3614  0.7864  0.9274
  268MOL0     H36168   5.299   9.296   5.582  0.7314 -0.0280  0.6259
  268MOL0     H36169   5.516   9.297   5.471 -1.6219 -0.7360  1.5085
  268MOL0     H36170   5.711   9.233   5.148 -0.4165  0.7414 -0.9534
  268MOL0     H36171   5.597   9.139   5.263 -0.8790  0.6830  0.0098
  268MOL0     H36172   5.449   9.109   5.075 -1.5685  1.6708 -1.2027
  268MOL0     H36173   5.611   9.025   5.081  0.2387  0.5253 -1.8829
  268MOL0     H36174   5.650   9.090   4.870  0.8250 -0.2888  1.4764
  268MOL0     H36175   5.669   9.249   4.937  2.1434 -1.4577  2.8873
  268MOL0     H36176   5.496   9.236   4.743 -1.8561  0.6525 -0.4698
  268MOL0     H36177   5.437   9.314   4.885  0.7396  0.9319  0.2196
  268MOL0     H36178   5.171   8.996   4.814  0.1474 -1.7170  0.9895
  268MOL0     H36179   5.312   9.402   5.104  2.0021  2.7517  1.0287
  268MOL0     H36180   5.101   9.427   5.225 -0.4085 -1.0091 -0.6109
  269MOL0     O36181   2.119   1.997   1.079 -0.0506 -0.7592 -0.1332
  269MOL0     C36182   2.111   2.078   0.989  1.2500 -0.2199  0.1125
  269MOL0     O36183   2.195   2.087   0.887  0.1935 -0.7117  0.1206
  269MOL0     C36184   2.316   2.027   0.893  0.0635 -0.7454 -1.0894
  269MOL0     C36185   2.424   2.087   0.967  0.5607  0.5003  0.4496
  269MOL0     C36186   2.554   2.036   0.958 -0.4811  0.1169  0.4978
  269MOL0     C36187   2.573   1.909   0.907 -0.1610 -0.7833 -0.0337
  269MOL0     O36188   2.697   1.869   0.881 -0.0119  0.4587 -0.4024
  269MOL0     C36189   2.775   1.858   1.009 -0.4374  0.0710  0.7950
  269MOL0     C36190   2.927   1.846   0.982  0.4772  1.1057  0.6720
  269MOL0     C36191   2.993   1.778   1.110 -0.2960 -0.0825 -1.0221
  269MOL0     C36192   3.145   1.740   1.088  0.1367 -0.3306 -0.8058
  269MOL0     C36193   3.229   1.680   1.197 -0.5694  0.6706 -0.3902
  269MOL0     C36194   3.287   1.788   1.285 -0.4198  0.5671 -0.4246
  269MOL0     C36195   3.392   1.880   1.206  0.2229  0.7265 -0.5292
  269MOL0     C36196   3.488   1.949   1.303 -0.3411  0.6855 -0.0145
  269MOL0     N36197   3.592   1.873   1.374  0.7294  0.0262  0.1340
  269MOL0     C36198   3.716   1.832   1.328  0.4904 -0.0809  0.6013
  269MOL0     C36199   3.774   1.770   1.433  0.2645  0.3502  0.1453
  269MOL0     C36200   3.896   1.691   1.438 -0.3993  0.2653 -0.5406
  269MOL0     C36201   3.896   1.544   1.404 -0.5284  0.0144 -1.0024
  269MOL0     C36202   3.789   1.472   1.483  0.0627 -0.2496 -0.0284
  269MOL0     C36203   3.774   1.327   1.451  0.7610 -0.7880  0.3592
  269MOL0     O36204   3.694   1.318   1.337  0.4046  0.4580  0.1421
  269MOL0     C36205   3.561   1.318   1.347  0.0444 -0.4764 -0.2356
  269MOL0     C36206   3.487   1.331   1.464 -0.5261 -0.1526 -0.2678
  269MOL0     C36207   3.348   1.303   1.466  1.5878 -0.1434  0.4030
  269MOL0     C36208   3.280   1.271   1.596  0.1196  0.2670 -0.6111
  269MOL0     C36209   3.278   1.300   1.350  0.2648  0.0352  0.1962
  269MOL0     C36210   3.127   1.287   1.339  0.0356  0.7707  0.0440
  269MOL0     O36211   3.079   1.287   1.212 -0.4066 -0.2672  0.0988
  269MOL0     C36212   2.944   1.296   1.184  0.1173  0.8228  0.0251
  269MOL0     C36213   2.858   1.192   1.207  0.0953  0.3076 -0.4487
  269MOL0     C36214   2.722   1.197   1.172  0.4225 -0.1063  0.5654
  269MOL0     C36215   2.663   1.321   1.117 -1.0491  1.0532  0.0145
  269MOL0     O36216   2.527   1.327   1.111  0.2493 -0.3708 -0.0423
  269MOL0     C36217   2.470   1.442   1.047  0.5385  0.0233  0.6207
  269MOL0     C36218   2.328   1.415   1.016 -0.1270 -0.4380  0.0424
  269MOL0     C36219   2.265   1.543   0.975 -0.0682  0.2961 -0.0583
  269MOL0     C36220   2.128   1.538   0.913  0.1819 -0.4456 -0.3503
  269MOL0     C36221   2.077   1.680   0.877  0.3877  0.3662  0.1854
  269MOL0     C36222   1.937   1.677   0.836  0.1214  0.4312 -0.1654
  269MOL0     C36223   1.883   1.822   0.791  0.1154  0.2831 -0.1146
  269MOL0     C36224   1.741   1.841   0.765 -0.7310  0.6895 -0.4963
  269MOL0    Cl36225   1.717   2.016   0.724  0.4301 -0.1185 -0.1556
  269MOL0     C36226   2.756   1.421   1.086 -0.4165 -0.1068  0.5819
  269MOL0     C36227   2.886   1.404   1.118 -0.7836  0.0915 -0.2074
  269MOL0     O36228   3.045   1.274   1.429 -0.2213  0.3139  0.4066
  269MOL0     C36229   3.356   1.297   1.231  0.9143 -0.2930  0.1343
  269MOL0     C36230   3.493   1.304   1.229 -0.8662 -0.3334  0.3933
  269MOL0     N36231   3.679   1.782   1.541 -0.0717  0.4494  0.0158
  269MOL0     N36232   3.568   1.821   1.495  0.1786 -0.3130 -0.6159
  269MOL0     C36233   2.468   1.846   0.835  0.0078 -0.3072  0.4943
  269MOL0     C36234   2.346   1.912   0.819  0.5429 -0.0818  1.1929
  269MOL0     C36235   1.990   2.160   0.971  0.0064 -0.4191  0.2339
  269MOL0     C36236   1.945   2.209   0.855 -0.4746 -0.1452  0.3137
  269MOL0     C36237   1.840   2.298   0.853 -0.0417  1.0517  0.7360
  269MOL0     C36238   1.777   2.339   0.965 -0.3762  0.3881 -0.0280
  269MOL0     O36239   1.675   2.428   0.968  0.0338 -0.2875 -0.2836
  269MOL0     C36240   1.552   2.370   0.937 -0.6949 -0.0385  0.8056
  269MOL0     C36241   1.438   2.451   0.991  0.4571 -0.5870 -0.2488
  269MOL0     C36242   1.421   2.424   1.135  1.1391  0.2143 -0.0552
  269MOL0     C36243   1.283   2.469   1.196 -0.4641  0.6702 -0.6222
  269MOL0     C36244   1.175   2.370   1.177 -0.3078 -0.7656  0.1299
  269MOL0     C36245   1.093   2.289   1.150  0.3138 -0.4533 -0.2066
  269MOL0     C36246   1.811   2.279   1.088 -0.2575  0.1204  0.2962
  269MOL0     C36247   1.917   2.190   1.092 -0.0237 -0.0708  0.7772
  269MOL0     H36248   2.409   2.184   1.011 -0.4805 -0.5119  2.4724
  269MOL0     H36249   2.642   2.085   0.997 -0.2684 -2.8195  4.3205
  269MOL0     H36250   2.747   1.935   1.081 -1.9673  0.2761  0.0126
  269MOL0     H36251   2.729   1.774   1.062  0.0871 -0.2351  0.7678
  269MOL0     H36252   2.937   1.789   0.889 -3.6377  3.3155 -1.3895
  269MOL0     H36253   2.972   1.945   0.968 -0.1902  1.0085 -3.5174
  269MOL0     H36254   2.987   1.851   1.191  1.2921  0.1050 -1.0360
  269MOL0     H36255   2.944   1.691   1.155  2.8939 -1.1117  0.8056
  269MOL0     H36256   3.158   1.655   1.021 -0.4418 -2.6157  1.7982
  269MOL0     H36257   3.199   1.824   1.044  1.0310  0.5347  1.7857
  269MOL0     H36258   3.162   1.616   1.256 -1.3646  0.6443 -1.2920
  269MOL0     H36259   3.308   1.625   1.146  0.1673  3.5939 -2.6178
  269MOL0     H36260   3.208   1.853   1.323 -0.7680 -0.1791  0.1389
  269MOL0     H36261   3.346   1.739   1.363 -0.9442  0.6024 -0.0057
  269MOL0     H36262   3.446   1.820   1.133  1.6428 -0.2227  1.2281
  269MOL0     H36263   3.339   1.949   1.139 -1.3676  0.9884  0.9169
  269MOL0     H36264   3.419   1.986   1.379 -2.3334 -0.0767 -1.3500
  269MOL0     H36265   3.531   2.040   1.260 -2.6052  1.9366  0.2113
  269MOL0     H36266   3.760   1.854   1.231 -2.0870 -1.3287 -0.9690
  269MOL0     H36267   3.978   1.738   1.384  0.8295  0.9816  1.7966
  269MOL0     H36268   3.922   1.691   1.544 -0.7703 -0.8006 -0.4312
  269MOL0     H36269   3.992   1.493   1.420 -1.6420 -1.9816 -0.3246
  269MOL0     H36270   3.875   1.536   1.297 -0.5041 -1.3521 -0.9201
  269MOL0     H36271   3.700   1.528   1.452  0.5306  0.8535  0.5640
  269MOL0     H36272   3.804   1.476   1.591 -0.5945  0.9853  0.0356
  269MOL0     H36273   3.726   1.282   1.539  1.6201 -2.1545  0.1699
  269MOL0     H36274   3.873   1.281   1.446  0.1105 -2.4357  1.6197
  269MOL0     H36275   3.535   1.348   1.559 -0.5725 -0.3407 -0.2102
  269MOL0     H36276   3.245   1.169   1.611  0.6208  0.1831  0.0331
  269MOL0     H36277   3.345   1.304   1.678  0.5761 -0.0584 -0.8387
  269MOL0     H36278   3.188   1.325   1.618 -0.6322 -1.5583  1.0008
  269MOL0     H36279   2.882   1.101   1.261 -2.3464  0.3076  0.7585
  269MOL0     H36280   2.661   1.111   1.199  2.0245 -0.9929  1.5609
  269MOL0     H36281   2.483   1.527   1.114  1.9118  1.0426 -0.8572
  269MOL0     H36282   2.517   1.453   0.949 -1.2460 -2.7910 -0.7027
  269MOL0     H36283   2.321   1.340   0.936 -3.8049  0.7416 -0.9374
  269MOL0     H36284   2.270   1.382   1.103 -3.5401  0.9859 -1.5041
  269MOL0     H36285   2.325   1.596   0.900 -0.9408  0.0081 -0.9811
  269MOL0     H36286   2.264   1.602   1.067  1.6699  0.9499 -0.4142
  269MOL0     H36287   2.123   1.472   0.826  0.8521  0.0928 -0.8096
  269MOL0     H36288   2.064   1.489   0.986 -0.8417 -3.4109 -2.9995
  269MOL0     H36289   2.145   1.737   0.813  2.1459  0.2822  1.8885
  269MOL0     H36290   2.078   1.741   0.968 -1.7753  0.1687  0.3831
  269MOL0     H36291   1.908   1.604   0.759  0.1791  0.0582  0.1613
  269MOL0     H36292   1.874   1.664   0.925  0.6201 -0.6783  0.0506
  269MOL0     H36293   1.945   1.854   0.707  0.0934  1.7358  0.3936
  269MOL0     H36294   1.897   1.895   0.871 -1.4154  0.6545 -0.1454
  269MOL0     H36295   1.676   1.824   0.852 -0.1948 -0.2685 -0.2780
  269MOL0     H36296   1.703   1.771   0.691 -0.1712 -1.3093  1.0227
  269MOL0     H36297   2.729   1.513   1.035  1.8789 -0.6338 -1.8389
  269MOL0     H36298   2.959   1.475   1.080  1.2030 -2.1818 -0.9328
  269MOL0     H36299   3.311   1.288   1.133  0.4673  0.1669  0.2874
  269MOL0     H36300   3.547   1.309   1.134 -1.3342  0.5920  0.1666
  269MOL0     H36301   2.492   1.755   0.781  0.9120  0.9541 -1.3460
  269MOL0     H36302   2.280   1.864   0.746  1.6801 -3.0816  1.9662
  269MOL0     H36303   2.010   2.183   0.772 -0.1395 -2.5750  1.2512
  269MOL0     H36304   1.823   2.345   0.757  0.6183 -0.4608 -0.1597
  269MOL0     H36305   1.546   2.383   0.828  0.6653 -1.5839  0.5028
  269MOL0     H36306   1.547   2.264   0.961 -3.1219 -0.6353 -1.7482
  269MOL0     H36307   1.344   2.414   0.949  0.4594 -0.2041 -0.5949
  269MOL0     H36308   1.440   2.558   0.971 -0.2836  0.0167  2.4567
  269MOL0     H36309   1.505   2.465   1.191  2.6311 -0.8777 -1.3902
  269MOL0     H36310   1.426   2.316   1.154 -2.1184  0.2573  2.0178
  269MOL0     H36311   1.240   2.563   1.160  0.1569  2.5095  2.8974
  269MOL0     H36312   1.296   2.477   1.305  1.4868 -4.4900 -0.1609
  269MOL0     H36313   1.024   2.208   1.136  1.8209 -1.8923  0.4269
  269MOL0     H36314   1.752   2.295   1.178  0.5245 -1.9373  1.2410
  269MOL0     H36315   1.933   2.139   1.186 -2.2963 -0.1596  1.1578
  270MOL0     O36316   6.909   2.505  10.352  0.5201 -0.8951  0.0460
  270MOL0     C36317   6.994   2.567  10.420  0.8655  0.0717 -0.2147
  270MOL0     O36318   6.971   2.640  10.528 -0.2418  0.3088  0.5215
  270MOL0     C36319   6.851   2.649  10.591  0.0174 -0.1360 -1.2856
  270MOL0     C36320   6.859   2.662  10.723 -0.1281 -0.1877  0.0602
  270MOL0     C36321   6.745   2.654  10.799 -0.6747  0.5099  0.2874
  270MOL0     C36322   6.622   2.645  10.743 -0.3782 -0.8818 -0.3177
  270MOL0     O36323   6.509   2.635  10.820 -0.1134  0.1508 -0.0974
  270MOL0     C36324   6.477   2.737  10.912  0.6616  0.8891  0.1669
  270MOL0     C36325   6.368   2.831  10.855  0.0464  0.1463 -0.8447
  270MOL0     C36326   6.237   2.826  10.947  0.0357 -0.1362  0.4087
  270MOL0     C36327   6.117   2.804  10.850 -0.2651 -0.1983 -0.2529
  270MOL0     C36328   5.985   2.793  10.930 -0.7505 -0.2266 -0.2902
  270MOL0     C36329   5.862   2.790  10.843  0.3905  1.0170 -0.7086
  270MOL0     C36330   5.730   2.778  10.919  0.4605  0.2038 -0.0169
  270MOL0     C36331   5.610   2.727  10.829  0.6693 -0.1059  0.3193
  270MOL0     N36332   5.490   2.696  10.915 -0.3588  0.0135 -0.7032
  270MOL0     C36333   5.370   2.763  10.910 -0.8012  0.8760  0.2519
  270MOL0     C36334   5.282   2.718  11.007 -0.5387 -0.5357  0.5082
  270MOL0     C36335   5.165   2.796  11.055 -0.8822 -0.2517 -0.6014
  270MOL0     C36336   5.036   2.711  11.064  0.1219  0.6521 -0.3333
  270MOL0     C36337   5.008   2.658  10.921  0.1035 -0.8164 -0.8651
  270MOL0     C36338   4.854   2.642  10.892  0.4940  0.6002 -0.3112
  270MOL0     O36339   4.784   2.597  11.015 -0.5783  0.8673  0.0070
  270MOL0     C36340   4.654   2.563  11.010  1.2158 -0.0782 -0.2726
  270MOL0     C36341   4.604   2.508  11.118  0.2193 -0.5880  0.5548
  270MOL0     C36342   4.466   2.463  11.123 -0.4750 -0.8477  0.1713
  270MOL0     C36343   4.426   2.395  11.254  0.3609  0.4429  0.4567
  270MOL0     C36344   4.377   2.487  11.009 -0.5908 -0.1837 -0.2639
  270MOL0     C36345   4.240   2.447  10.996  1.1918 -0.2604  0.0243
  270MOL0     O36346   4.165   2.492  10.896 -0.2784 -0.0248  0.2716
  270MOL0     C36347   4.043   2.436  10.879  0.2384  0.0646 -0.1725
  270MOL0     C36348   3.923   2.494  10.938 -1.1531 -0.4589  0.7324
  270MOL0     C36349   3.801   2.441  10.916  0.1393  0.2448 -0.2575
  270MOL0     C36350   3.781   2.328  10.839 -0.1196  0.9643  0.3571
  270MOL0     O36351   3.666   2.263  10.809 -0.7192 -0.0288 -0.1303
  270MOL0     C36352   3.540   2.325  10.828  0.6089  1.0367 -0.7397
  270MOL0     C36353   3.442   2.268  10.724  0.9650 -0.0674  0.1412
  270MOL0     C36354   3.441   2.356  10.595 -0.4867 -0.4189  0.1596
  270MOL0     C36355   3.338   2.321  10.483  0.5395  1.0382 -0.7854
  270MOL0     C36356   3.350   2.177  10.432 -0.0525  0.2406  0.7620
  270MOL0     C36357   3.239   2.156  10.335  0.1514 -0.5502  0.1790
  270MOL0     C36358   3.238   2.020  10.261  1.2901 -0.5302  0.0185
  270MOL0     C36359   3.117   2.026  10.170 -0.0926 -0.6510 -0.1450
  270MOL0    Cl36360   3.118   1.868  10.083 -0.2522 -0.0630 -0.1874
  270MOL0     C36361   3.894   2.278  10.774 -1.1292 -0.0495 -0.4930
  270MOL0     C36362   4.029   2.329  10.794  0.1095  0.2413 -0.1469
  270MOL0     O36363   4.203   2.373  11.088  0.1125 -0.3424 -0.8126
  270MOL0     C36364   4.438   2.550  10.897 -0.0032 -1.0988  0.7566
  270MOL0     C36365   4.565   2.591  10.904 -0.8016  0.7531  0.3770
  270MOL0     N36366   5.345   2.616  11.068 -0.3082 -0.5422  0.6161
  270MOL0     N36367   5.460   2.597  11.010 -0.3994  1.0373 -0.2180
  270MOL0     C36368   6.606   2.653  10.609 -0.4572 -0.2084  0.7013
  270MOL0     C36369   6.723   2.654  10.528 -0.2651  0.5264  0.7965
  270MOL0     C36370   7.133   2.579  10.372  0.4365  0.7173  0.6175
  270MOL0     C36371   7.239   2.633  10.451  0.2769 -0.9121  0.4545
  270MOL0     C36372   7.369   2.643  10.389  0.2227 -0.2084 -0.6701
  270MOL0     C36373   7.393   2.596  10.258 -0.8047 -0.3534 -0.6069
  270MOL0     O36374   7.523   2.589  10.201  0.5324  0.0469 -0.2960
  270MOL0     C36375   7.634   2.583  10.285  0.0780  0.7747  0.1109
  270MOL0     C36376   7.762   2.538  10.195  0.4528  0.6419 -0.7052
  270MOL0     C36377   7.897   2.567  10.258  0.5443  0.7027 -0.2441
  270MOL0     C36378   8.009   2.500  10.170 -0.3855 -0.1101  0.7262
  270MOL0     C36379   8.133   2.549  10.230  0.5340 -0.4073  0.4281
  270MOL0     C36380   8.248   2.556  10.270 -0.4249 -0.1629 -0.3475
  270MOL0     C36381   7.293   2.540  10.177 -0.5367  0.0631 -0.8669
  270MOL0     C36382   7.165   2.524  10.242 -0.4730  0.5549  0.4099
  270MOL0     H36383   6.956   2.665  10.773 -0.3999  0.6857  0.5625
  270MOL0     H36384   6.760   2.649  10.907 -0.7056 -1.0804  0.2322
  270MOL0     H36385   6.435   2.685  10.999 -0.1367  1.0135 -0.1341
  270MOL0     H36386   6.560   2.799  10.946 -0.5912  2.8696 -0.2405
  270MOL0     H36387   6.405   2.933  10.842 -0.2562  0.1287 -1.8815
  270MOL0     H36388   6.340   2.796  10.756  0.6760  0.1558 -1.0288
  270MOL0     H36389   6.241   2.747  11.023  1.9680 -1.6726 -1.1474
  270MOL0     H36390   6.226   2.924  10.992 -1.4380  0.3096 -0.8671
  270MOL0     H36391   6.126   2.892  10.786 -1.0864  0.9916  1.2272
  270MOL0     H36392   6.122   2.708  10.796  0.3722  0.3927 -1.2809
  270MOL0     H36393   5.996   2.704  10.993  1.2670 -1.2608 -1.9976
  270MOL0     H36394   5.974   2.883  10.992 -1.9986 -0.4870 -0.1005
  270MOL0     H36395   5.849   2.883  10.788  0.9361  1.4446 -0.1319
  270MOL0     H36396   5.875   2.706  10.773  1.3998  0.1295  0.4756
  270MOL0     H36397   5.743   2.705  10.999  2.3528  0.4442 -0.0759
  270MOL0     H36398   5.700   2.875  10.960 -1.5471 -0.0301 -0.7965
  270MOL0     H36399   5.639   2.646  10.762 -1.2592 -0.1577 -0.5325
  270MOL0     H36400   5.587   2.806  10.757 -0.5806  1.3076  2.1572
  270MOL0     H36401   5.366   2.855  10.852  2.4595  1.9564  1.4730
  270MOL0     H36402   5.191   2.838  11.152  1.4800 -0.7636 -0.9488
  270MOL0     H36403   5.147   2.876  10.982 -0.8779 -0.4604 -0.8340
  270MOL0     H36404   4.954   2.775  11.098 -1.0382 -0.9121 -0.1090
  270MOL0     H36405   5.050   2.632  11.138  1.3365 -0.2969 -1.5211
  270MOL0     H36406   5.047   2.556  10.926  0.5327 -0.6011  2.7290
  270MOL0     H36407   5.059   2.707  10.838  1.2135  0.7471  0.6690
  270MOL0     H36408   4.843   2.573  10.808 -0.4983  0.4718 -0.0810
  270MOL0     H36409   4.818   2.743  10.870  0.1794  0.8835  1.3864
  270MOL0     H36410   4.668   2.495  11.205  0.5236  2.1161  0.8221
  270MOL0     H36411   4.508   2.380  11.325 -1.6410  0.3917  2.9140
  270MOL0     H36412   4.347   2.454  11.302  1.4449  3.0871 -0.8412
  270MOL0     H36413   4.386   2.295  11.234  2.7500 -0.1681 -1.8623
  270MOL0     H36414   3.940   2.568  11.015 -0.2344 -1.4201  1.4800
  270MOL0     H36415   3.726   2.485  10.981  0.4072 -1.7088  1.4691
  270MOL0     H36416   3.500   2.309  10.929  0.1888  2.9598 -0.5619
  270MOL0     H36417   3.549   2.433  10.818  2.2289  1.0036  0.1017
  270MOL0     H36418   3.465   2.164  10.696 -1.5390 -0.5753 -0.3255
  270MOL0     H36419   3.347   2.276  10.778  1.2885 -0.8920  0.8714
  270MOL0     H36420   3.543   2.355  10.554 -0.1089  1.5243  0.9615
  270MOL0     H36421   3.432   2.462  10.616  0.3398  0.0864 -1.7726
  270MOL0     H36422   3.246   2.334  10.541  0.1241  0.4017 -1.2892
  270MOL0     H36423   3.349   2.393  10.402 -0.8975 -0.9029 -2.8299
  270MOL0     H36424   3.353   2.108  10.517 -3.3773  1.8621  2.3762
  270MOL0     H36425   3.448   2.176  10.382 -0.3690  0.5123  0.1350
  270MOL0     H36426   3.143   2.158  10.388 -0.4666  0.4046 -0.9252
  270MOL0     H36427   3.226   2.246  10.274 -2.8455  0.5551  2.2182
  270MOL0     H36428   3.232   1.938  10.334 -2.4742 -0.5925 -0.2058
  270MOL0     H36429   3.325   1.995  10.199  1.4870  0.6787 -0.2165
  270MOL0     H36430   3.022   2.047  10.221 -0.4870  1.0326 -1.4735
  270MOL0     H36431   3.129   2.099  10.090  0.6089 -1.5712 -0.9083
  270MOL0     H36432   3.867   2.199  10.705  1.0429  0.7214 -2.3945
  270MOL0     H36433   4.121   2.281  10.762  0.2841  1.0670 -0.9228
  270MOL0     H36434   4.384   2.572  10.805  2.9888  0.7989 -0.6864
  270MOL0     H36435   4.606   2.647  10.821  1.6687 -0.0889  0.9297
  270MOL0     H36436   6.505   2.644  10.571 -1.1168 -0.1163  2.3433
  270MOL0     H36437   6.720   2.650  10.420 -2.8114 -0.4239  0.8403
  270MOL0     H36438   7.222   2.661  10.554  0.2585 -0.5279  0.3474
  270MOL0     H36439   7.456   2.683  10.441 -1.1181 -1.8322  3.1609
  270MOL0     H36440   7.653   2.675  10.342 -0.6562  0.1645  1.3697
  270MOL0     H36441   7.613   2.510  10.363 -4.3101  0.2914 -1.2515
  270MOL0     H36442   7.755   2.587  10.098 -0.8977 -0.2351 -1.0854
  270MOL0     H36443   7.753   2.429  10.187 -1.6492  0.3379  3.0207
  270MOL0     H36444   7.896   2.516  10.354  3.7764 -0.0804 -0.5108
  270MOL0     H36445   7.899   2.676  10.269 -0.3868  0.5149  2.1791
  270MOL0     H36446   8.000   2.537  10.068 -0.6359  1.6890  1.3540
  270MOL0     H36447   8.013   2.391  10.178  1.1103 -0.1251  0.1255
  270MOL0     H36448   8.352   2.549  10.296 -1.1424 -0.7453  2.7702
  270MOL0     H36449   7.314   2.481  10.088 -0.3642 -0.9835 -0.1512
  270MOL0     H36450   7.090   2.465  10.191  1.5039 -1.0809 -0.7630
  271MOL0     O36451   3.038   6.598   5.056  0.5805 -0.4662  0.9509
  271MOL0     C36452   3.025   6.485   5.094 -0.5274  0.5282 -0.5138
  271MOL0     O36453   2.911   6.425   5.135  0.6539 -0.2620 -0.0664
  271MOL0     C36454   2.809   6.506   5.168 -0.1188  0.0974  0.6583
  271MOL0     C36455   2.809   6.635   5.237  0.4236 -0.3278  0.1637
  271MOL0     C36456   2.694   6.714   5.250  0.0065  0.3388 -0.5743
  271MOL0     C36457   2.571   6.679   5.190 -0.5158 -1.0155 -0.6548
  271MOL0     O36458   2.451   6.745   5.205  0.5689  0.0342  0.1544
  271MOL0     C36459   2.450   6.888   5.219 -0.0169 -0.0176  0.3181
  271MOL0     C36460   2.305   6.928   5.231 -0.2599 -0.8543  0.3120
  271MOL0     C36461   2.229   6.899   5.102 -0.0294 -0.4001 -0.5966
  271MOL0     C36462   2.076   6.903   5.113 -0.0839 -0.6228 -0.1449
  271MOL0     C36463   2.011   6.828   4.998 -0.1307 -1.0828  0.0823
  271MOL0     C36464   1.863   6.780   5.042 -0.1568  0.2666  0.7640
  271MOL0     C36465   1.783   6.727   4.914 -0.2031  0.0733 -0.2581
  271MOL0     C36466   1.836   6.600   4.851  0.2526 -0.0814 -1.9275
  271MOL0     N36467   1.857   6.483   4.948 -0.0510  0.1548  0.7758
  271MOL0     C36468   1.762   6.424   5.027 -0.3627  0.4290  0.6431
  271MOL0     C36469   1.834   6.329   5.092  0.4103 -0.5924  0.3051
  271MOL0     C36470   1.782   6.239   5.198  0.8266  0.0644 -0.0575
  271MOL0     C36471   1.631   6.202   5.187 -0.4615 -0.4694  0.2925
  271MOL0     C36472   1.605   6.122   5.060 -0.4222  1.3655  0.5361
  271MOL0     C36473   1.469   6.070   5.027  0.0040  0.1056 -0.2038
  271MOL0     O36474   1.387   6.179   4.990  0.5962  0.3101  0.1475
  271MOL0     C36475   1.257   6.153   4.940  0.0924  0.0687 -0.2612
  271MOL0     C36476   1.190   6.270   4.904 -0.8143 -0.3509  0.4924
  271MOL0     C36477   1.052   6.272   4.875 -0.8887  0.7464 -0.6306
  271MOL0     C36478   0.988   6.406   4.840  0.8270  0.1487 -0.4012
  271MOL0     C36479   0.988   6.146   4.863 -0.2258  0.0394 -0.4143
  271MOL0     C36480   0.849   6.136   4.806 -0.1565 -0.0411 -0.3799
  271MOL0     O36481   0.793   6.228   4.724 -0.4769  0.1955  0.7848
  271MOL0     C36482   0.665   6.220   4.683  0.7997 -0.6376 -0.4609
  271MOL0     C36483   0.626   6.320   4.591 -0.4745  0.5004 -0.8406
  271MOL0     C36484   0.495   6.338   4.547 -0.2356  0.1154  0.2096
  271MOL0     C36485   0.394   6.259   4.600  1.0437 -0.1517 -0.4202
  271MOL0     O36486   0.260   6.260   4.560 -0.6009 -0.2090  0.0442
  271MOL0     C36487   0.212   6.131   4.518  0.1333 -0.4012  0.5316
  271MOL0     C36488   0.144   6.131   4.380  0.3995 -0.1176 -0.4987
  271MOL0     C36489   0.004   6.184   4.379 -0.8291 -0.3080 -0.5810
  271MOL0     C36490  -0.094   6.129   4.489  0.7858 -0.5656 -0.6849
  271MOL0     C36491  -0.244   6.163   4.470  0.0309 -0.1646 -0.7311
  271MOL0     C36492  -0.356   6.098   4.553 -0.0172 -0.3413 -0.5070
  271MOL0     C36493  -0.333   6.105   4.712  0.2584 -0.0048  0.0972
  271MOL0     C36494  -0.448   6.028   4.777 -0.2965  0.0914  0.4313
  271MOL0    Cl36495  -0.615   6.098   4.736  0.0740  0.0631  0.0746
  271MOL0     C36496   0.427   6.164   4.698 -0.6593  1.0838  0.4744
  271MOL0     C36497   0.559   6.146   4.734  0.2197 -0.2461 -0.7557
  271MOL0     O36498   0.800   6.029   4.829 -0.1629  0.1580 -0.3633
  271MOL0     C36499   1.056   6.033   4.909  0.5144 -0.7080  0.2685
  271MOL0     C36500   1.186   6.032   4.946 -0.1013  0.0593  0.0983
  271MOL0     N36501   1.960   6.328   5.038  0.2257  0.7890 -0.7265
  271MOL0     N36502   1.979   6.417   4.961 -0.8624  0.1286 -0.7519
  271MOL0     C36503   2.562   6.548   5.142  0.4395 -0.0893 -0.1238
  271MOL0     C36504   2.682   6.470   5.124 -0.3282 -0.3577  0.0311
  271MOL0     C36505   3.142   6.399   5.102  0.1964  0.7554 -0.2164
  271MOL0     C36506   3.271   6.454   5.074 -0.1017  0.2543 -0.1722
  271MOL0     C36507   3.379   6.367   5.073  0.4462  0.5487 -0.1847
  271MOL0     C36508   3.366   6.230   5.104  0.2453 -1.2690  1.5621
  271MOL0     O36509   3.472   6.146   5.101  0.0838 -0.2971  0.0850
  271MOL0     C36510   3.494   6.058   5.209 -0.1034  0.4866 -0.5988
  271MOL0     C36511   3.522   6.138   5.332 -0.1469  0.0307 -0.1687
  271MOL0     C36512   3.641   6.246   5.317  0.2102  0.0757 -0.5562
  271MOL0     C36513   3.778   6.177   5.318  0.0622  0.2014  0.9003
  271MOL0     C36514   3.880   6.275   5.354 -0.3403 -0.4952  0.6462
  271MOL0     C36515   3.979   6.343   5.373  0.0871 -0.8446 -0.1939
  271MOL0     C36516   3.233   6.177   5.135 -0.1025  1.0986  0.2024
  271MOL0     C36517   3.120   6.255   5.129  0.1308 -0.2033  0.6491
  271MOL0     H36518   2.895   6.674   5.289  0.0304 -0.2589  0.7714
  271MOL0     H36519   2.704   6.800   5.315 -2.3781 -0.0684  0.4370
  271MOL0     H36520   2.502   6.913   5.311 -1.1335  0.1832  0.9028
  271MOL0     H36521   2.500   6.930   5.131  0.2307 -0.1236  0.4077
  271MOL0     H36522   2.264   6.873   5.316 -2.6296  0.7689  0.3178
  271MOL0     H36523   2.282   7.034   5.247  0.1020 -0.9475  1.4827
  271MOL0     H36524   2.257   6.965   5.020  1.0281  2.6023  1.9803
  271MOL0     H36525   2.236   6.795   5.069 -2.2536 -0.7522 -0.1682
  271MOL0     H36526   2.050   6.844   5.201  1.1856 -1.1521 -0.0972
  271MOL0     H36527   2.027   7.001   5.117  1.2578  0.1195 -1.0015
  271MOL0     H36528   2.002   6.894   4.911  3.0081 -0.1521  0.3336
  271MOL0     H36529   2.076   6.744   4.975  0.6898 -0.7962  1.2527
  271MOL0     H36530   1.867   6.697   5.113  0.4585 -3.5206 -3.2752
  271MOL0     H36531   1.821   6.872   5.084  0.7317  2.8431 -3.3436
  271MOL0     H36532   1.680   6.702   4.938 -1.2388  1.6859 -2.6019
  271MOL0     H36533   1.793   6.807   4.839 -1.3600  0.8561  0.3852
  271MOL0     H36534   1.933   6.611   4.801  0.2894 -1.2197 -2.1138
  271MOL0     H36535   1.765   6.574   4.773 -2.5909 -1.5645  0.9278
  271MOL0     H36536   1.657   6.450   5.038 -0.0900  1.4678  0.9053
  271MOL0     H36537   1.850   6.153   5.198  2.0767  1.0160 -1.2501
  271MOL0     H36538   1.787   6.298   5.290 -2.4655  2.3812 -1.1776
  271MOL0     H36539   1.576   6.296   5.182 -0.6910 -0.5589  1.0642
  271MOL0     H36540   1.604   6.142   5.275  2.5215 -2.0784  0.2630
  271MOL0     H36541   1.667   6.032   5.069 -2.5398 -0.6005 -2.4993
  271MOL0     H36542   1.632   6.179   4.970 -2.4453  0.8394 -0.4673
  271MOL0     H36543   1.437   6.006   5.109  2.9429  0.0919  1.0725
  271MOL0     H36544   1.474   6.001   4.942  0.0381 -1.5088  1.0524
  271MOL0     H36545   1.259   6.353   4.890  0.3291 -1.6688 -2.4152
  271MOL0     H36546   0.985   6.416   4.731 -0.6921 -1.4480 -0.5346
  271MOL0     H36547   0.886   6.400   4.878  1.4430  1.5789  1.6593
  271MOL0     H36548   1.040   6.488   4.891 -2.4236  3.2653 -1.6194
  271MOL0     H36549   0.710   6.374   4.548  0.3841  0.9935  1.2974
  271MOL0     H36550   0.474   6.419   4.477 -1.4741  0.1685  0.6102
  271MOL0     H36551   0.291   6.057   4.501  0.4408  0.5639 -3.1471
  271MOL0     H36552   0.141   6.098   4.595 -1.1243  0.3403 -0.2775
  271MOL0     H36553   0.216   6.177   4.312  0.4012  3.8347  1.8781
  271MOL0     H36554   0.127   6.028   4.348  1.3721  0.1160 -1.8583
  271MOL0     H36555  -0.044   6.173   4.281  2.5265  1.9778 -2.6878
  271MOL0     H36556   0.012   6.291   4.396  3.2991 -0.6121  0.4497
  271MOL0     H36557  -0.085   6.020   4.478  0.7307 -0.5193 -1.1852
  271MOL0     H36558  -0.066   6.166   4.588  2.6809 -2.6508 -0.3610
  271MOL0     H36559  -0.274   6.144   4.367 -1.4861 -0.4037 -0.2780
  271MOL0     H36560  -0.249   6.271   4.488  0.2542 -0.1704 -0.6228
  271MOL0     H36561  -0.447   6.153   4.527  1.6098  2.5551 -0.5877
  271MOL0     H36562  -0.374   5.994   4.527 -1.4487 -0.5183  0.9994
  271MOL0     H36563  -0.332   6.209   4.744 -1.6079  0.1823 -0.2915
  271MOL0     H36564  -0.239   6.057   4.739 -0.3317 -0.7752  0.8531
  271MOL0     H36565  -0.435   6.026   4.886 -0.3482 -3.5245  0.4892
  271MOL0     H36566  -0.444   5.927   4.735 -1.8823  0.8954 -1.8316
  271MOL0     H36567   0.348   6.098   4.732 -0.1196  0.1393 -0.0677
  271MOL0     H36568   0.575   6.074   4.813  0.4906  0.2881 -0.3115
  271MOL0     H36569   1.002   5.941   4.890 -2.7380  1.3531 -1.4999
  271MOL0     H36570   1.237   5.944   4.983 -1.7997 -0.7875  0.5546
  271MOL0     H36571   2.458   6.518   5.134 -0.6877  3.3540 -0.0032
  271MOL0     H36572   2.683   6.380   5.063 -1.1827 -1.0287  0.9815
  271MOL0     H36573   3.273   6.561   5.052 -0.7937 -0.2989 -3.4130
  271MOL0     H36574   3.477   6.414   5.068  0.7194 -0.0618 -0.7434
  271MOL0     H36575   3.412   5.986   5.219  2.5254 -2.4994  1.4438
  271MOL0     H36576   3.581   5.996   5.183  0.1998  0.8311 -0.4025
  271MOL0     H36577   3.550   6.071   5.414  0.9638 -1.6875 -1.8297
  271MOL0     H36578   3.432   6.193   5.358  1.1972  3.4213 -2.0356
  271MOL0     H36579   3.639   6.314   5.402  2.6094  1.7423 -1.7111
  271MOL0     H36580   3.639   6.314   5.231  0.2159  0.7892  0.0079
  271MOL0     H36581   3.798   6.136   5.219  0.1615  0.1743  0.9319
  271MOL0     H36582   3.787   6.097   5.392  3.4812  0.4094  0.8656
  271MOL0     H36583   4.045   6.426   5.384  0.9656 -0.7989 -4.1222
  271MOL0     H36584   3.215   6.072   5.158  0.4689  0.9464 -0.0315
  271MOL0     H36585   3.029   6.210   5.169  0.4085 -2.0604 -0.6828
  272MOL0     O36586   2.096   4.307   1.461  0.6042  0.3221  0.0803
  272MOL0     C36587   2.177   4.235   1.513 -0.1882 -0.1034 -0.2572
  272MOL0     O36588   2.167   4.102   1.526  0.4062 -0.2462  0.5841
  272MOL0     C36589   2.050   4.046   1.469 -1.1664 -0.2785  0.8245
  272MOL0     C36590   1.913   4.078   1.506  0.0468 -0.6899 -0.4874
  272MOL0     C36591   1.805   4.021   1.440 -0.8248 -0.5720  0.2107
  272MOL0     C36592   1.826   3.925   1.336 -0.1046 -0.7563 -0.2329
  272MOL0     O36593   1.713   3.884   1.267 -0.2825 -0.6069 -0.0098
  272MOL0     C36594   1.726   3.806   1.148 -0.0967 -0.3254 -0.1833
  272MOL0     C36595   1.589   3.744   1.109 -0.2648  0.0756 -0.4411
  272MOL0     C36596   1.555   3.624   1.200  0.7867  0.1423 -0.0497
  272MOL0     C36597   1.427   3.572   1.135  0.9693  0.2747 -0.9442
  272MOL0     C36598   1.393   3.434   1.189  0.2695  0.2121 -0.3384
  272MOL0     C36599   1.257   3.367   1.140  0.2152  0.2453 -0.0952
  272MOL0     C36600   1.144   3.471   1.149  0.1026  0.4582 -0.8277
  272MOL0     C36601   0.998   3.424   1.138  0.0357 -0.4225  0.5636
  272MOL0     N36602   0.976   3.321   1.038  0.4732  0.2324 -0.6878
  272MOL0     C36603   0.933   3.362   0.909 -0.4730  1.0556  0.1877
  272MOL0     C36604   0.927   3.246   0.843  0.0155 -0.2411 -0.5188
  272MOL0     C36605   0.887   3.239   0.700  0.6681  0.5632  0.0515
  272MOL0     C36606   0.731   3.231   0.686 -0.0473  0.3499 -0.1700
  272MOL0     C36607   0.670   3.107   0.758 -0.5895 -1.0318  0.0271
  272MOL0     C36608   0.524   3.079   0.708 -0.1522  0.1639  0.6097
  272MOL0     O36609   0.452   3.197   0.711  0.3307  0.5633  0.8000
  272MOL0     C36610   0.323   3.208   0.666 -0.2349 -0.1526  0.7479
  272MOL0     C36611   0.264   3.334   0.673  0.0977 -0.1007  0.0322
  272MOL0     C36612   0.129   3.349   0.620  0.5099  0.3777  0.0800
  272MOL0     C36613   0.068   3.491   0.619 -0.5634 -0.0068  0.7645
  272MOL0     C36614   0.056   3.237   0.574 -0.3519 -0.2749  0.8538
  272MOL0     C36615  -0.086   3.246   0.521 -0.2025  0.5280  0.0435
  272MOL0     O36616  -0.175   3.332   0.569  0.1475  0.0761  0.1326
  272MOL0     C36617  -0.287   3.360   0.494 -0.2046 -0.0633 -0.7684
  272MOL0     C36618  -0.398   3.268   0.474  0.5636  0.1065  0.2032
  272MOL0     C36619  -0.502   3.294   0.388  0.0058 -0.2978  0.6549
  272MOL0     C36620  -0.519   3.412   0.324 -0.0838 -0.8114 -0.7762
  272MOL0     O36621  -0.622   3.435   0.232 -0.1615  0.1080 -0.6977
  272MOL0     C36622  -0.583   3.499   0.106  0.8311  0.2881 -0.1699
  272MOL0     C36623  -0.705   3.492   0.020 -0.0542  0.0263 -0.5236
  272MOL0     C36624  -0.676   3.541  -0.121  0.0413  0.6385 -1.0494
  272MOL0     C36625  -0.780   3.503  -0.217 -0.6626 -0.3307  0.4312
  272MOL0     C36626  -0.910   3.591  -0.203 -0.4509 -0.2568 -0.2851
  272MOL0     C36627  -1.010   3.568  -0.311  0.2304 -0.5014 -1.2442
  272MOL0     C36628  -1.060   3.419  -0.308 -0.5107  0.1114 -0.2767
  272MOL0     C36629  -1.204   3.395  -0.345  0.3812 -0.0976 -0.0537
  272MOL0    Cl36630  -1.219   3.437  -0.517  0.0916  0.1995  0.3094
  272MOL0     C36631  -0.420   3.504   0.351  0.4199 -0.0277 -0.4600
  272MOL0     C36632  -0.306   3.480   0.428 -0.1451  0.4511 -0.3562
  272MOL0     O36633  -0.106   3.167   0.427 -0.2955 -0.3184 -0.3268
  272MOL0     C36634   0.126   3.123   0.559  0.4470  1.4550 -0.1003
  272MOL0     C36635   0.257   3.105   0.609 -0.3334 -0.0596  0.0368
  272MOL0     N36636   0.961   3.141   0.922  0.3259 -0.0343  0.1661
  272MOL0     N36637   0.991   3.181   1.041 -0.5508  0.6453 -0.2596
  272MOL0     C36638   1.954   3.889   1.302 -0.7316  0.4710 -1.0300
  272MOL0     C36639   2.066   3.947   1.372  1.0878 -0.9941  0.3037
  272MOL0     C36640   2.306   4.290   1.558  0.1050 -0.4690 -0.1716
  272MOL0     C36641   2.415   4.212   1.589  0.5299  0.6543  1.1831
  272MOL0     C36642   2.533   4.262   1.637 -0.3814 -0.4154  0.1041
  272MOL0     C36643   2.549   4.392   1.664  0.0608 -0.3879 -0.4207
  272MOL0     O36644   2.679   4.421   1.704 -0.3358  0.0219  0.7875
  272MOL0     C36645   2.712   4.550   1.750 -0.7647 -0.1284  0.0347
  272MOL0     C36646   2.825   4.533   1.839  0.0512 -0.1820  0.7420
  272MOL0     C36647   2.874   4.672   1.895  0.8095  1.0940 -0.3360
  272MOL0     C36648   3.016   4.662   1.935  0.0313 -0.3887  0.4169
  272MOL0     C36649   3.060   4.775   2.014 -0.5823  0.3213  0.0167
  272MOL0     C36650   3.108   4.862   2.081  0.2632 -1.1313 -0.3199
  272MOL0     C36651   2.448   4.489   1.642  0.0705  0.6447  0.4306
  272MOL0     C36652   2.328   4.434   1.588  0.2820  0.6439  0.3907
  272MOL0     H36653   1.885   4.151   1.581 -0.0952 -0.7753 -0.4565
  272MOL0     H36654   1.702   4.035   1.473 -0.5916  1.1434  0.2828
  272MOL0     H36655   1.769   3.871   1.071 -0.1875 -1.0569 -0.8661
  272MOL0     H36656   1.795   3.724   1.173  1.6950  0.6107 -1.7577
  272MOL0     H36657   1.515   3.824   1.113 -0.1363  0.1615  2.1413
  272MOL0     H36658   1.591   3.703   1.008 -2.8154 -0.8466 -0.1864
  272MOL0     H36659   1.641   3.557   1.199  1.5836  1.1500 -0.3774
  272MOL0     H36660   1.531   3.660   1.301 -0.8832  2.7365 -1.2533
  272MOL0     H36661   1.346   3.638   1.167  0.5329  0.0102 -1.4982
  272MOL0     H36662   1.431   3.568   1.026  0.6949  5.1896 -1.3563
  272MOL0     H36663   1.476   3.368   1.161  1.6000  1.6877 -0.0310
  272MOL0     H36664   1.386   3.439   1.298  2.7985 -0.2928 -0.0881
  272MOL0     H36665   1.272   3.332   1.038  2.0158  1.2648 -0.2291
  272MOL0     H36666   1.233   3.290   1.214 -0.9011 -0.2118 -0.9070
  272MOL0     H36667   1.164   3.525   1.242  2.3398  0.5591 -1.3085
  272MOL0     H36668   1.169   3.541   1.068 -1.6793  1.7109 -0.3635
  272MOL0     H36669   0.937   3.510   1.110 -0.7928 -1.4064 -0.7582
  272MOL0     H36670   0.964   3.389   1.236 -2.1722 -0.6154 -0.2321
  272MOL0     H36671   0.919   3.460   0.864 -3.2941  0.4479 -0.4632
  272MOL0     H36672   0.922   3.329   0.649  0.2132  2.1802  2.4168
  272MOL0     H36673   0.937   3.149   0.661  1.0119  0.0518  1.6081
  272MOL0     H36674   0.715   3.211   0.579  0.9543 -1.2953 -0.0561
  272MOL0     H36675   0.681   3.326   0.708  1.0313  0.9820 -0.3547
  272MOL0     H36676   0.676   3.132   0.865  0.1652  2.2949 -0.6880
  272MOL0     H36677   0.737   3.024   0.732  0.5836  0.3175 -1.4770
  272MOL0     H36678   0.486   3.001   0.775  1.9854 -2.9067 -1.4624
  272MOL0     H36679   0.519   3.031   0.610 -3.6428  0.5782  0.4785
  272MOL0     H36680   0.314   3.422   0.713  0.5320 -0.5964  0.5978
  272MOL0     H36681   0.052   3.519   0.514  1.4527 -0.6219  0.2556
  272MOL0     H36682  -0.024   3.489   0.678 -0.3226  0.0699  1.1416
  272MOL0     H36683   0.123   3.576   0.661  1.6756 -0.8230 -0.3751
  272MOL0     H36684  -0.400   3.172   0.525 -5.2070 -0.3034 -0.0857
  272MOL0     H36685  -0.581   3.220   0.374  0.3781 -0.5993  0.0963
  272MOL0     H36686  -0.570   3.607   0.100  0.8675  0.2126 -3.1676
  272MOL0     H36687  -0.505   3.444   0.052  0.5271  1.8077 -2.2800
  272MOL0     H36688  -0.728   3.385   0.018 -2.3532  0.4449  0.3915
  272MOL0     H36689  -0.786   3.549   0.068  1.0400 -1.3387  3.2641
  272MOL0     H36690  -0.587   3.491  -0.161  0.1247 -0.7432  0.7278
  272MOL0     H36691  -0.656   3.648  -0.122  0.6496  0.7364  3.3592
  272MOL0     H36692  -0.746   3.526  -0.318 -0.0731  2.4179  1.1590
  272MOL0     H36693  -0.795   3.395  -0.217  1.3182 -0.7295 -2.6519
  272MOL0     H36694  -0.888   3.698  -0.210  0.3340 -0.3083  1.1023
  272MOL0     H36695  -0.949   3.568  -0.104 -0.4324 -0.1958 -0.2643
  272MOL0     H36696  -1.092   3.638  -0.292  1.7623  0.9550  0.3769
  272MOL0     H36697  -0.970   3.588  -0.411 -0.3633 -1.4297 -1.6844
  272MOL0     H36698  -1.041   3.372  -0.211  0.3289 -0.6507 -0.7994
  272MOL0     H36699  -0.992   3.360  -0.370  1.9127  3.5571 -1.2074
  272MOL0     H36700  -1.270   3.454  -0.281  0.4790 -0.2928  0.2281
  272MOL0     H36701  -1.225   3.291  -0.318 -0.1822  0.4062  1.5719
  272MOL0     H36702  -0.436   3.603   0.310  0.4626 -0.8630 -2.5984
  272MOL0     H36703  -0.221   3.547   0.439 -0.0361  0.6833 -2.2803
  272MOL0     H36704   0.075   3.035   0.520  2.2955 -0.2298  1.0911
  272MOL0     H36705   0.292   3.002   0.619  1.0402  0.3344 -0.4934
  272MOL0     H36706   1.980   3.821   1.222 -2.4064 -2.6222  0.8227
  272MOL0     H36707   2.166   3.925   1.335  1.7852 -0.2202  1.6286
  272MOL0     H36708   2.412   4.105   1.571 -1.1652  0.6126  1.6077
  272MOL0     H36709   2.610   4.185   1.639  1.1771  1.0177  3.7230
  272MOL0     H36710   2.739   4.622   1.672 -1.7977  0.1062 -0.1218
  272MOL0     H36711   2.628   4.595   1.804  2.4152  0.8446  4.7705
  272MOL0     H36712   2.906   4.498   1.776 -2.3098 -0.9839 -2.0516
  272MOL0     H36713   2.808   4.457   1.916  0.2010 -0.8983  0.0800
  272MOL0     H36714   2.810   4.697   1.981 -1.6860 -1.2296 -1.3981
  272MOL0     H36715   2.871   4.739   1.809 -0.5091 -4.2655 -5.0493
  272MOL0     H36716   3.080   4.637   1.851  0.5626  0.1554  0.6515
  272MOL0     H36717   3.014   4.573   1.999 -1.0510 -0.6530  0.0420
  272MOL0     H36718   3.136   4.946   2.141 -0.3440 -0.2089 -1.2878
  272MOL0     H36719   2.455   4.594   1.667  0.8851  0.6665  0.1450
  272MOL0     H36720   2.255   4.509   1.558 -1.7293 -1.2613  0.2261
  273MOL0     O36721   4.819  10.745  11.061 -0.3139 -0.0893  0.2826
  273MOL0     C36722   4.900  10.709  11.144 -0.7478  0.3831 -0.7275
  273MOL0     O36723   4.867  10.679  11.272  0.2036 -0.9714 -0.0180
  273MOL0     C36724   4.739  10.697  11.322 -0.5262 -0.3252 -0.4839
  273MOL0     C36725   4.724  10.738  11.459 -0.1907 -0.2448  0.2846
  273MOL0     C36726   4.595  10.743  11.513 -0.1208 -0.1244 -0.2512
  273MOL0     C36727   4.479  10.713  11.440 -0.7927  1.0926  1.1324
  273MOL0     O36728   4.356  10.733  11.492 -0.1264  0.3732  0.6246
  273MOL0     C36729   4.242  10.681  11.428  0.2531 -0.2262  0.1765
  273MOL0     C36730   4.123  10.727  11.508 -0.6112 -0.5516 -1.0052
  273MOL0     C36731   4.109  10.876  11.508  0.0955  0.3119 -0.5847
  273MOL0     C36732   3.995  10.921  11.592 -0.0705 -0.2493  0.9227
  273MOL0     C36733   3.861  10.886  11.520 -0.5763 -0.5801 -0.3650
  273MOL0     C36734   3.772  10.995  11.544  0.0543  0.3908  0.9989
  273MOL0     C36735   3.720  11.002  11.686 -0.4823 -1.5467  0.6795
  273MOL0     C36736   3.659  10.886  11.738  0.8683 -0.8328 -0.3001
  273MOL0     N36737   3.653  10.900  11.885  0.1026  0.0872 -0.3610
  273MOL0     C36738   3.761  10.914  11.973 -0.8284  0.2549 -0.3473
  273MOL0     C36739   3.710  10.893  12.096 -0.1094  0.1149 -0.3957
  273MOL0     C36740   3.782  10.901  12.228 -0.2018 -0.5064 -0.7007
  273MOL0     C36741   3.821  10.756  12.267 -0.6303  0.1910  0.1121
  273MOL0     C36742   3.898  10.741  12.410  0.6847  0.1353  0.5510
  273MOL0     C36743   4.051  10.753  12.378  0.4217 -0.1440 -0.9228
  273MOL0     O36744   4.133  10.792  12.496 -0.5206 -0.2794  0.6018
  273MOL0     C36745   4.264  10.755  12.498 -0.7725  0.1197  0.2398
  273MOL0     C36746   4.337  10.721  12.379 -0.4050 -0.1793 -0.0942
  273MOL0     C36747   4.470  10.679  12.383 -0.2692 -0.1119 -0.4012
  273MOL0     C36748   4.547  10.660  12.248 -0.1880  0.0745  0.6297
  273MOL0     C36749   4.528  10.652  12.509 -0.0145 -0.0559  0.0049
  273MOL0     C36750   4.657  10.583  12.542  0.4905 -0.0594 -0.0142
  273MOL0     O36751   4.732  10.619  12.653 -0.1948  0.1773  0.1700
  273MOL0     C36752   4.847  10.549  12.686 -0.1511 -0.0256  0.1114
  273MOL0     C36753   4.979  10.583  12.667 -0.3629 -0.7544 -0.8572
  273MOL0     C36754   5.084  10.513  12.730 -0.2411  0.6527  0.5564
  273MOL0     C36755   5.061  10.400  12.800 -0.6139  0.4323 -0.2419
  273MOL0     O36756   5.171  10.334  12.837 -0.5012  0.2746  0.5762
  273MOL0     C36757   5.181  10.269  12.961 -0.8912  1.1409 -0.2397
  273MOL0     C36758   5.153  10.361  13.082  0.3472 -0.1729  0.7588
  273MOL0     C36759   5.289  10.412  13.133 -1.0245  0.3543 -0.3063
  273MOL0     C36760   5.289  10.504  13.254  0.0510  0.6678 -0.3910
  273MOL0     C36761   5.416  10.587  13.269 -0.0100 -0.6658  0.7815
  273MOL0     C36762   5.537  10.497  13.289 -0.4992  0.1547  0.2062
  273MOL0     C36763   5.665  10.581  13.316  0.5082  0.1183 -0.1411
  273MOL0     C36764   5.787  10.485  13.329  0.4949 -0.1519 -0.1778
  273MOL0    Cl36765   5.937  10.570  13.268  0.3819 -0.7836 -0.2140
  273MOL0     C36766   4.930  10.346  12.805  0.0431  0.6462 -0.2441
  273MOL0     C36767   4.823  10.430  12.764 -0.1592  0.4029 -0.1290
  273MOL0     O36768   4.689  10.493  12.468 -0.2331  0.0054 -0.1695
  273MOL0     C36769   4.458  10.688  12.627  0.0288 -0.9075 -0.0682
  273MOL0     C36770   4.329  10.743  12.619 -0.7037  0.9225 -0.2020
  273MOL0     N36771   3.576  10.878  12.079 -0.4674  0.3715  0.0090
  273MOL0     N36772   3.537  10.889  11.958 -0.2627 -0.1080  0.4770
  273MOL0     C36773   4.496  10.666  11.312 -0.5995  0.0330  1.2953
  273MOL0     C36774   4.626  10.655  11.249 -0.1494 -0.0785 -0.7996
  273MOL0     C36775   5.042  10.671  11.095 -0.3954 -0.1587  0.0883
  273MOL0     C36776   5.063  10.666  10.959 -0.3404 -0.0934  0.2195
  273MOL0     C36777   5.191  10.630  10.918  0.8875  0.0489 -0.7106
  273MOL0     C36778   5.292  10.592  11.011 -0.5156  0.0929  0.6737
  273MOL0     O36779   5.408  10.528  10.973  0.1731 -0.2868 -0.0512
  273MOL0     C36780   5.389  10.438  10.869  1.3930 -0.1320 -0.1027
  273MOL0     C36781   5.505  10.324  10.869 -0.2979 -0.9392  0.2206
  273MOL0     C36782   5.627  10.388  10.802  0.3877  0.3033 -0.6254
  273MOL0     C36783   5.748  10.294  10.789  0.0205  0.6265  0.1636
  273MOL0     C36784   5.714  10.195  10.683  0.2231  0.0671  0.3789
  273MOL0     C36785   5.678  10.104  10.612 -0.1558  0.4975  0.7026
  273MOL0     C36786   5.275  10.599  11.149  1.0489 -0.8758 -0.3220
  273MOL0     C36787   5.147  10.641  11.187 -0.3198  0.2028 -0.8358
  273MOL0     H36788   4.802  10.764  11.529  0.8711 -1.7866 -0.2722
  273MOL0     H36789   4.575  10.777  11.614 -0.2464 -3.1448  0.8650
  273MOL0     H36790   4.245  10.729  11.330  0.7498 -1.3866 -0.3960
  273MOL0     H36791   4.229  10.573  11.419  2.2498 -0.5824  0.9472
  273MOL0     H36792   4.028  10.688  11.470  0.9294 -1.4746 -4.2236
  273MOL0     H36793   4.124  10.699  11.614 -0.2124 -1.0121 -1.1276
  273MOL0     H36794   4.204  10.919  11.541 -0.5011  0.9947  0.2841
  273MOL0     H36795   4.083  10.907  11.406 -1.1454  1.4361  0.0607
  273MOL0     H36796   4.000  10.872  11.690 -0.3177 -2.3271 -0.0498
  273MOL0     H36797   4.009  11.030  11.593  1.4257 -0.1466 -4.0283
  273MOL0     H36798   3.883  10.895  11.413 -0.1292  1.0381 -0.1597
  273MOL0     H36799   3.833  10.786  11.553  0.7833 -0.4634  1.3124
  273MOL0     H36800   3.821  11.090  11.520  2.3026 -1.5266 -3.1272
  273MOL0     H36801   3.695  10.974  11.469  1.6877 -1.6751 -0.1921
  273MOL0     H36802   3.802  11.032  11.751 -0.4487 -1.6515  0.6848
  273MOL0     H36803   3.648  11.084  11.679  1.1224 -0.1222  0.1768
  273MOL0     H36804   3.717  10.797  11.709  3.1976  0.0658  1.2734
  273MOL0     H36805   3.558  10.884  11.697  0.2173  3.7762  0.5628
  273MOL0     H36806   3.865  10.934  11.948 -0.7475 -0.7861 -0.8952
  273MOL0     H36807   3.878  10.954  12.220  0.1092 -0.9764 -0.0449
  273MOL0     H36808   3.715  10.955  12.295 -0.2391 -0.5039 -0.7401
  273MOL0     H36809   3.874  10.709  12.184 -0.2268 -0.9958  1.0202
  273MOL0     H36810   3.735  10.689  12.279  0.0918 -1.3523 -2.4634
  273MOL0     H36811   3.867  10.648  12.458  0.6482 -0.5892 -0.8332
  273MOL0     H36812   3.866  10.826  12.472  1.4590  1.1315 -0.3782
  273MOL0     H36813   4.069  10.825  12.298  0.6406 -0.6801 -1.3641
  273MOL0     H36814   4.071  10.655  12.333  0.4390 -0.7507  0.3746
  273MOL0     H36815   4.288  10.728  12.282  0.9199 -5.5656 -1.4765
  273MOL0     H36816   4.551  10.758  12.198 -1.2509 -1.4078 -2.6052
  273MOL0     H36817   4.642  10.610  12.266 -1.9999 -2.6494  3.8967
  273MOL0     H36818   4.494  10.594  12.180  0.6107 -0.5266  0.5871
  273MOL0     H36819   4.988  10.673  12.606  1.3073  0.5539  1.1767
  273MOL0     H36820   5.188  10.539  12.714  0.3652 -0.1409  2.8961
  273MOL0     H36821   5.090  10.210  12.968 -1.0754  1.3309 -0.9437
  273MOL0     H36822   5.271  10.206  12.971  0.5941  3.2242  0.1051
  273MOL0     H36823   5.090  10.442  13.045  0.3487 -0.9398 -1.0834
  273MOL0     H36824   5.086  10.312  13.154 -0.4814  1.1196  0.8862
  273MOL0     H36825   5.340  10.459  13.048  2.4133  1.7287  2.2858
  273MOL0     H36826   5.357  10.328  13.143 -2.0258 -0.4173  0.2193
  273MOL0     H36827   5.198  10.564  13.263 -0.5383 -0.4932  4.8224
  273MOL0     H36828   5.273  10.441  13.342  0.5063  1.3627  0.2053
  273MOL0     H36829   5.408  10.650  13.358 -5.3513  2.0927 -1.1736
  273MOL0     H36830   5.436  10.646  13.179  0.8213 -1.8839  0.1291
  273MOL0     H36831   5.526  10.429  13.373 -0.2324  0.0238  0.1370
  273MOL0     H36832   5.561  10.442  13.198  0.9679 -0.6555  1.0380
  273MOL0     H36833   5.643  10.645  13.402  0.4338 -0.0332 -0.0468
  273MOL0     H36834   5.681  10.653  13.235  0.4883 -1.7871 -1.9277
  273MOL0     H36835   5.766  10.389  13.280 -0.9519 -0.3608  0.7984
  273MOL0     H36836   5.801  10.460  13.434  2.1137 -0.0675 -0.3343
  273MOL0     H36837   4.922  10.247  12.848  3.2082  0.4222  0.0982
  273MOL0     H36838   4.721  10.395  12.775 -0.1384  0.3341 -0.1533
  273MOL0     H36839   4.501  10.671  12.725  0.0558  0.7372  0.2410
  273MOL0     H36840   4.283  10.773  12.713 -0.7546 -0.1227  0.1210
  273MOL0     H36841   4.417  10.637  11.243  2.0019  1.6609 -2.7079
  273MOL0     H36842   4.631  10.611  11.149 -1.4921 -0.5225 -0.6909
  273MOL0     H36843   4.981  10.688  10.891 -2.8489 -1.9271  2.4519
  273MOL0     H36844   5.208  10.629  10.811  0.3658 -0.0917 -0.7947
  273MOL0     H36845   5.290  10.392  10.878  1.5021 -0.5101 -0.7290
  273MOL0     H36846   5.389  10.480  10.768  2.0666  3.1727  1.1382
  273MOL0     H36847   5.478  10.241  10.804  0.1272  0.5130 -1.9468
  273MOL0     H36848   5.539  10.298  10.970  2.2681  0.6545 -0.1316
  273MOL0     H36849   5.659  10.479  10.853  0.7749  0.1992 -0.6827
  273MOL0     H36850   5.598  10.421  10.702 -1.1064 -1.3297 -0.7790
  273MOL0     H36851   5.760  10.242  10.885  1.3163  0.1157 -0.2500
  273MOL0     H36852   5.841  10.345  10.764 -0.2112  1.1889  0.4405
  273MOL0     H36853   5.631  10.032  10.547 -3.1986 -0.1883  3.3870
  273MOL0     H36854   5.337  10.549  11.223 -0.7210 -2.0013  0.4696
  273MOL0     H36855   5.131  10.623  11.293  0.9767 -1.7229 -0.9211
  274MOL0     O36856   4.837   8.074   9.077 -0.5955 -0.1587  0.0633
  274MOL0     C36857   4.862   8.123   8.973  0.1012  0.5611 -0.2982
  274MOL0     O36858   4.781   8.129   8.869 -0.5402  0.3291  0.2013
  274MOL0     C36859   4.653   8.160   8.876  0.3867 -0.4665 -0.2974
  274MOL0     C36860   4.605   8.287   8.859 -0.4977 -0.3653  0.4126
  274MOL0     C36861   4.465   8.310   8.842 -0.2098 -0.3079  0.7155
  274MOL0     C36862   4.375   8.205   8.863 -0.1509  0.0555  0.4361
  274MOL0     O36863   4.239   8.223   8.857  0.3588  0.4074 -1.0604
  274MOL0     C36864   4.188   8.345   8.902 -0.4661 -0.1075 -0.3202
  274MOL0     C36865   4.047   8.304   8.966 -0.2403 -0.1113 -0.5697
  274MOL0     C36866   3.954   8.227   8.869  0.6840  0.3217  0.7184
  274MOL0     C36867   3.813   8.220   8.946  1.0451 -0.0329  0.1795
  274MOL0     C36868   3.704   8.161   8.857  0.9736  0.0795 -0.5599
  274MOL0     C36869   3.561   8.182   8.919  1.3258  0.1787 -0.5625
  274MOL0     C36870   3.446   8.123   8.829 -0.4463 -0.2307 -0.0925
  274MOL0     C36871   3.331   8.095   8.915  0.1502 -1.1939 -0.2811
  274MOL0     N36872   3.209   8.064   8.837 -0.3225  0.3888  0.5328
  274MOL0     C36873   3.140   7.952   8.863  0.1347  0.5177 -0.3476
  274MOL0     C36874   3.022   7.972   8.802  0.0098 -0.0059 -0.0370
  274MOL0     C36875   2.913   7.866   8.784  0.2966  0.1514  0.1150
  274MOL0     C36876   2.771   7.899   8.825  0.1526 -1.0639  0.2668
  274MOL0     C36877   2.677   7.779   8.829 -0.1002  0.1574 -0.0455
  274MOL0     C36878   2.533   7.813   8.825 -0.0112 -0.6299  0.6299
  274MOL0     O36879   2.446   7.736   8.901  1.6608  0.7481 -0.2373
  274MOL0     C36880   2.311   7.772   8.906  0.7090 -0.2440 -0.1304
  274MOL0     C36881   2.233   7.719   9.005  0.5360  0.5681  0.1719
  274MOL0     C36882   2.095   7.731   9.004  0.5971  0.6722  0.1382
  274MOL0     C36883   2.025   7.644   9.100 -0.1646  0.3864 -0.0299
  274MOL0     C36884   2.034   7.814   8.920 -0.7956 -0.2748 -0.0631
  274MOL0     C36885   1.891   7.847   8.917 -0.9390  0.2402  0.1501
  274MOL0     O36886   1.843   7.910   8.800  0.1784 -0.1313  0.3839
  274MOL0     C36887   1.717   7.950   8.815 -0.3439 -0.1199 -0.0505
  274MOL0     C36888   1.683   8.084   8.831 -0.2299 -0.6032 -0.5148
  274MOL0     C36889   1.546   8.126   8.854 -0.0167 -0.7050  0.5280
  274MOL0     C36890   1.444   8.030   8.853  0.3245  0.0541 -0.9288
  274MOL0     O36891   1.321   8.077   8.889 -0.0724 -0.5292  0.1753
  274MOL0     C36892   1.220   7.981   8.926  0.0656 -0.4077  0.0398
  274MOL0     C36893   1.085   8.052   8.935 -0.1543 -0.0363  0.7430
  274MOL0     C36894   1.062   8.146   8.814 -0.0260 -0.2659  0.6727
  274MOL0     C36895   0.937   8.122   8.724 -0.3405 -0.5890 -0.5437
  274MOL0     C36896   0.955   8.186   8.587  0.5370  0.1584  1.3824
  274MOL0     C36897   0.839   8.148   8.482  0.2800  0.0062  0.0754
  274MOL0     C36898   0.718   8.242   8.499 -0.7199 -0.2635 -0.3855
  274MOL0     C36899   0.636   8.234   8.374 -0.3658 -0.0290  0.4273
  274MOL0    Cl36900   0.555   8.076   8.344 -0.2503  0.0343 -0.4526
  274MOL0     C36901   1.480   7.894   8.827 -0.2692 -0.8726 -0.0855
  274MOL0     C36902   1.614   7.858   8.804 -0.3051  0.6362 -0.2108
  274MOL0     O36903   1.827   7.819   9.022 -0.4087 -0.4562 -0.3833
  274MOL0     C36904   2.112   7.856   8.805  0.0406  0.0244 -1.3323
  274MOL0     C36905   2.251   7.849   8.809 -0.3797 -0.5895 -0.0015
  274MOL0     N36906   3.032   8.089   8.719  0.0217  0.2412  0.1737
  274MOL0     N36907   3.151   8.140   8.744  0.5635 -0.0554 -0.1715
  274MOL0     C36908   4.428   8.083   8.904  0.6805  0.1890 -0.3276
  274MOL0     C36909   4.562   8.057   8.911  0.8713 -0.2688  0.8382
  274MOL0     C36910   4.988   8.185   8.960 -0.0343 -0.1666  0.8445
  274MOL0     C36911   5.019   8.256   8.834 -0.5662 -0.6894 -0.0307
  274MOL0     C36912   5.147   8.318   8.814  0.0500 -0.0142  0.4066
  274MOL0     C36913   5.245   8.301   8.910 -0.0795 -0.6467 -0.5380
  274MOL0     O36914   5.378   8.348   8.903 -0.5613  0.1947  0.6805
  274MOL0     C36915   5.434   8.419   8.791  0.0878 -1.5665 -0.9028
  274MOL0     C36916   5.478   8.314   8.677 -0.2894 -0.3761  0.5234
  274MOL0     C36917   5.587   8.381   8.588 -0.0062  0.2491 -0.1167
  274MOL0     C36918   5.620   8.305   8.464  0.3348  0.9152  0.0644
  274MOL0     C36919   5.660   8.160   8.490  0.1856 -0.2709  0.3659
  274MOL0     C36920   5.707   8.049   8.514  0.1498 -0.4626 -0.4083
  274MOL0     C36921   5.202   8.240   9.038  0.0830 -0.2613  0.0224
  274MOL0     C36922   5.076   8.192   9.059 -0.2237  0.2871 -0.4146
  274MOL0     H36923   4.674   8.365   8.828 -0.7395 -1.2662 -2.7491
  274MOL0     H36924   4.447   8.413   8.811 -0.0958  0.4645  3.0065
  274MOL0     H36925   4.249   8.390   8.980 -1.5891 -1.2606  1.2832
  274MOL0     H36926   4.181   8.416   8.819 -0.2305 -0.7402 -0.9003
  274MOL0     H36927   4.064   8.238   9.052  1.9220 -2.3328 -2.5412
  274MOL0     H36928   3.994   8.393   9.001  0.1572 -0.4506  0.9906
  274MOL0     H36929   3.938   8.289   8.780 -0.0718 -0.2141  0.4693
  274MOL0     H36930   3.994   8.132   8.833  1.7071  1.2116 -0.6049
  274MOL0     H36931   3.826   8.147   9.027  1.1078  0.4088  0.5660
  274MOL0     H36932   3.785   8.322   8.973  1.3223  1.0875 -3.2946
  274MOL0     H36933   3.713   8.196   8.754  3.0232 -0.9787 -0.7816
  274MOL0     H36934   3.731   8.055   8.858 -0.3367 -0.2949  1.5248
  274MOL0     H36935   3.564   8.132   9.016  0.8258  1.7604  0.3114
  274MOL0     H36936   3.535   8.288   8.923  0.4308 -0.0564  2.8012
  274MOL0     H36937   3.416   8.195   8.752 -0.9128 -1.7627 -1.4033
  274MOL0     H36938   3.472   8.025   8.786 -1.6983 -0.3918 -0.5190
  274MOL0     H36939   3.304   8.188   8.966  1.0303  0.1539 -2.1229
  274MOL0     H36940   3.371   8.014   8.976  0.3353 -0.6862  0.2809
  274MOL0     H36941   3.169   7.863   8.918 -2.3255 -0.1787 -0.0494
  274MOL0     H36942   2.912   7.836   8.679 -1.6536  0.2649  0.0669
  274MOL0     H36943   2.942   7.786   8.853 -0.1468  0.3838  0.5900
  274MOL0     H36944   2.734   7.959   8.741  1.3581 -0.8254 -0.1100
  274MOL0     H36945   2.764   7.947   8.923  2.1127 -3.6318  1.7561
  274MOL0     H36946   2.697   7.714   8.914 -1.1288 -0.8432 -0.5415
  274MOL0     H36947   2.706   7.711   8.748 -1.7014 -1.9451  1.0572
  274MOL0     H36948   2.496   7.817   8.722  2.0408 -0.2720 -0.1514
  274MOL0     H36949   2.528   7.917   8.860 -2.9564 -0.4136 -0.1622
  274MOL0     H36950   2.295   7.670   9.079 -0.3983 -1.8755 -0.5820
  274MOL0     H36951   1.937   7.600   9.053  0.9929  0.9749 -2.9130
  274MOL0     H36952   2.087   7.558   9.127  2.8561  2.5217  0.3178
  274MOL0     H36953   2.004   7.698   9.193 -1.9185 -0.4989  0.1364
  274MOL0     H36954   1.766   8.154   8.828 -0.5244 -0.2637 -1.8923
  274MOL0     H36955   1.512   8.227   8.874 -2.8248 -0.5135 -3.7677
  274MOL0     H36956   1.221   7.902   8.850  0.9762 -1.0167  0.6493
  274MOL0     H36957   1.244   7.928   9.019  2.0683 -1.6550 -1.0904
  274MOL0     H36958   1.001   7.982   8.941  1.5841 -2.6101 -2.1165
  274MOL0     H36959   1.077   8.117   9.022  2.3631  1.8056 -0.2624
  274MOL0     H36960   1.154   8.153   8.755 -1.1308 -1.4736 -1.3138
  274MOL0     H36961   1.046   8.247   8.854  0.2986  0.9006 -1.9191
  274MOL0     H36962   0.909   8.016   8.713  0.7178 -0.6505 -4.3278
  274MOL0     H36963   0.856   8.176   8.773 -0.8843 -0.1967 -1.8223
  274MOL0     H36964   1.046   8.143   8.543  0.6890 -0.0513  1.8797
  274MOL0     H36965   0.964   8.295   8.586 -0.5509  0.2481  0.3997
  274MOL0     H36966   0.883   8.143   8.382 -2.0841 -7.2424 -1.1969
  274MOL0     H36967   0.813   8.042   8.489  0.9388 -0.2139 -0.6249
  274MOL0     H36968   0.745   8.348   8.503 -0.5525 -0.2419 -1.7361
  274MOL0     H36969   0.654   8.204   8.579 -2.1035 -1.6018 -2.0458
  274MOL0     H36970   0.695   8.263   8.286  3.5692 -2.0764  2.1146
  274MOL0     H36971   0.557   8.306   8.393  0.5098  0.7490  1.2023
  274MOL0     H36972   1.415   7.808   8.834 -0.1137 -0.9317  0.7239
  274MOL0     H36973   1.628   7.751   8.793  1.0317  0.7485  0.3101
  274MOL0     H36974   2.068   7.927   8.736  2.1147  2.4376 -0.2955
  274MOL0     H36975   2.312   7.891   8.730 -2.0836  1.1772 -0.4742
  274MOL0     H36976   4.357   8.004   8.926 -0.0563  0.1861 -2.4324
  274MOL0     H36977   4.578   7.951   8.932  3.6903  0.0452  0.6299
  274MOL0     H36978   4.956   8.256   8.746  0.3955  1.3922 -0.8061
  274MOL0     H36979   5.173   8.352   8.714  0.1732 -0.3694  0.3152
  274MOL0     H36980   5.365   8.496   8.757 -0.3661 -2.5946 -2.4357
  274MOL0     H36981   5.516   8.476   8.835 -0.7436 -1.4420  0.5616
  274MOL0     H36982   5.391   8.291   8.614  0.4567  2.3983 -1.7553
  274MOL0     H36983   5.528   8.228   8.721  6.0262  3.2164  1.6657
  274MOL0     H36984   5.680   8.403   8.643 -0.0337  0.1597 -0.0323
  274MOL0     H36985   5.552   8.479   8.555 -0.8965 -1.3019 -4.3170
  274MOL0     H36986   5.709   8.358   8.429 -0.8855  3.5852  0.7319
  274MOL0     H36987   5.537   8.323   8.396  0.6951 -0.1599 -0.6911
  274MOL0     H36988   5.755   7.958   8.544  2.9166  0.4327 -1.8396
  274MOL0     H36989   5.284   8.234   9.110  2.2684  1.1695 -2.1974
  274MOL0     H36990   5.056   8.162   9.161  1.2616 -2.9051 -0.9527
  275MOL0     O36991   1.223   8.774   8.802  0.5567  0.8495  0.5977
  275MOL0     C36992   1.257   8.719   8.695  0.5165  0.0010 -0.5680
  275MOL0     O36993   1.185   8.634   8.618 -0.0099  0.5282  0.0621
  275MOL0     C36994   1.055   8.622   8.664  0.5976  0.4620  0.4612
  275MOL0     C36995   0.953   8.708   8.627 -0.5039  0.0582 -0.8841
  275MOL0     C36996   0.816   8.681   8.667  0.6130  0.6237 -1.0426
  275MOL0     C36997   0.790   8.566   8.744  0.5321  0.5480 -0.3882
  275MOL0     O36998   0.663   8.548   8.790  0.1768 -0.6728  0.5992
  275MOL0     C36999   0.568   8.506   8.696  0.7018  0.3153  0.1868
  275MOL0     C37000   0.429   8.520   8.754 -0.1123 -0.4809 -0.3833
  275MOL0     C37001   0.396   8.656   8.815 -1.6234 -0.0780 -0.3542
  275MOL0     C37002   0.246   8.687   8.803 -0.8027  1.0735  0.0948
  275MOL0     C37003   0.156   8.588   8.866 -0.2002  1.1000 -0.3554
  275MOL0     C37004   0.002   8.615   8.846  0.5782 -0.7832  0.1537
  275MOL0     C37005  -0.034   8.621   8.692  0.5180 -0.0453 -0.2210
  275MOL0     C37006  -0.186   8.617   8.654 -0.8525 -0.6462  0.0583
  275MOL0     N37007  -0.210   8.587   8.513  0.4533 -0.3078 -0.4624
  275MOL0     C37008  -0.316   8.506   8.460  0.3123 -0.4518 -0.5126
  275MOL0     C37009  -0.297   8.510   8.333 -1.1865  0.7116  0.3486
  275MOL0     C37010  -0.382   8.452   8.225  0.7433  1.1806  0.4727
  275MOL0     C37011  -0.502   8.376   8.268 -0.4607  0.2668 -0.3969
  275MOL0     C37012  -0.596   8.369   8.147 -0.1597 -0.6147  0.5624
  275MOL0     C37013  -0.544   8.291   8.020  0.1542 -0.5121  0.4317
  275MOL0     O37014  -0.659   8.254   7.934  0.0838 -0.3949 -0.0762
  275MOL0     C37015  -0.733   8.359   7.877 -0.2373  0.8006 -0.4191
  275MOL0     C37016  -0.674   8.468   7.832  0.0520 -0.0702  0.5258
  275MOL0     C37017  -0.748   8.568   7.765  0.0414 -0.2956  0.4356
  275MOL0     C37018  -0.672   8.692   7.722  0.7397  0.3363  0.4152
  275MOL0     C37019  -0.882   8.545   7.729 -1.1028  0.3462 -0.7106
  275MOL0     C37020  -0.965   8.631   7.651 -0.6031 -0.1253 -1.1459
  275MOL0     O37021  -1.089   8.588   7.624  0.6586 -0.3975 -0.4107
  275MOL0     C37022  -1.157   8.642   7.520  0.2997  0.3966  0.7497
  275MOL0     C37023  -1.292   8.662   7.538  0.3432  0.0729 -0.5449
  275MOL0     C37024  -1.377   8.715   7.441  0.1098  0.9549  0.2913
  275MOL0     C37025  -1.328   8.762   7.318  0.3108 -1.0194 -1.0054
  275MOL0     O37026  -1.404   8.822   7.221 -0.5480 -0.5131 -1.3218
  275MOL0     C37027  -1.542   8.821   7.228  0.3887  0.1357 -0.2519
  275MOL0     C37028  -1.588   8.899   7.107  0.0302  0.3177  0.4773
  275MOL0     C37029  -1.737   8.895   7.083  0.5903 -0.4244 -0.2066
  275MOL0     C37030  -1.777   9.010   6.987  0.3051  0.0605  1.1571
  275MOL0     C37031  -1.929   9.018   6.957  0.3327 -1.1897 -0.5625
  275MOL0     C37032  -1.966   9.147   6.877  0.1817 -0.5981  0.0657
  275MOL0     C37033  -2.118   9.157   6.847 -0.3896  1.1109 -0.6671
  275MOL0     C37034  -2.165   9.278   6.769 -0.1452  0.0566  0.1808
  275MOL0    Cl37035  -2.101   9.432   6.823 -0.3586 -0.3339  0.2867
  275MOL0     C37036  -1.192   8.758   7.307  0.1432 -0.4190  0.2491
  275MOL0     C37037  -1.109   8.698   7.403  0.8736  0.6902  0.8535
  275MOL0     O37038  -0.925   8.743   7.622 -0.7746  0.3393 -0.0518
  275MOL0     C37039  -0.942   8.422   7.779  0.2463  0.3559 -0.7192
  275MOL0     C37040  -0.865   8.327   7.854  0.2644 -0.1819 -0.4236
  275MOL0     N37041  -0.183   8.583   8.298 -0.2225 -0.2393 -0.1530
  275MOL0     N37042  -0.132   8.625   8.410 -0.0190 -0.2133 -0.2834
  275MOL0     C37043   0.891   8.473   8.776  0.7472  0.2492  0.2758
  275MOL0     C37044   1.021   8.506   8.734  0.9495  0.5066  0.3350
  275MOL0     C37045   1.406   8.741   8.650  0.3004  0.3313 -0.0094
  275MOL0     C37046   1.497   8.817   8.720  0.0243  0.4852 -0.4450
  275MOL0     C37047   1.631   8.838   8.652  0.3821  0.2250  0.0689
  275MOL0     C37048   1.661   8.782   8.526 -0.6772  0.2537 -0.1665
  275MOL0     O37049   1.772   8.834   8.469  0.0195 -0.5524 -0.1377
  275MOL0     C37050   1.792   8.821   8.325  0.6170 -0.0548 -0.2251
  275MOL0     C37051   1.929   8.880   8.288  0.2414  0.4431  0.2947
  275MOL0     C37052   1.935   9.041   8.285  0.4797 -0.5097 -0.6645
  275MOL0     C37053   2.025   9.094   8.406  0.9235  0.3013  0.5393
  275MOL0     C37054   2.034   9.237   8.410 -0.4094 -1.0931  0.1207
  275MOL0     C37055   2.040   9.355   8.432 -0.7829 -0.1617 -0.7609
  275MOL0     C37056   1.568   8.689   8.474 -0.3978 -0.7055  0.5740
  275MOL0     C37057   1.441   8.676   8.530 -0.3791 -0.1160 -0.0647
  275MOL0     H37058   0.978   8.794   8.567  3.6650 -1.1070 -1.0873
  275MOL0     H37059   0.736   8.748   8.637  0.7529  0.3139 -2.1356
  275MOL0     H37060   0.563   8.560   8.600 -2.0339 -0.1343  0.0058
  275MOL0     H37061   0.589   8.401   8.672  1.2517  0.7357 -1.3011
  275MOL0     H37062   0.347   8.492   8.687 -2.6061 -0.3509  2.4057
  275MOL0     H37063   0.416   8.453   8.840 -0.1832  0.4111  0.3123
  275MOL0     H37064   0.423   8.641   8.920  1.3720 -2.3614 -1.3127
  275MOL0     H37065   0.460   8.734   8.774 -0.4472 -0.8770 -0.0931
  275MOL0     H37066   0.228   8.786   8.846  0.2777  0.9238  0.9207
  275MOL0     H37067   0.221   8.704   8.697  2.8414 -0.6857 -1.2043
  275MOL0     H37068   0.187   8.491   8.824  4.3751  3.2454 -2.6122
  275MOL0     H37069   0.176   8.577   8.973 -0.0143  0.5288 -0.4414
  275MOL0     H37070  -0.063   8.541   8.893  0.1394 -0.1499  0.5441
  275MOL0     H37071  -0.017   8.714   8.888  0.4351 -0.7950  0.1172
  275MOL0     H37072   0.008   8.711   8.645  1.9558  0.0424  1.1351
  275MOL0     H37073   0.013   8.537   8.640 -0.9928 -0.2206 -1.3637
  275MOL0     H37074  -0.242   8.702   8.693 -0.3812 -0.7773  1.0412
  275MOL0     H37075  -0.217   8.530   8.711  2.2317 -0.3206  2.4802
  275MOL0     H37076  -0.396   8.449   8.505 -2.0690  1.9047 -1.4962
  275MOL0     H37077  -0.422   8.534   8.166 -1.5395 -0.0859  0.1245
  275MOL0     H37078  -0.317   8.391   8.161  1.6159 -1.7533  3.8523
  275MOL0     H37079  -0.544   8.415   8.360  0.9137 -1.1742  0.9072
  275MOL0     H37080  -0.474   8.275   8.300 -1.8059 -0.2776 -0.8930
  275MOL0     H37081  -0.626   8.473   8.126 -1.2411 -1.0793 -0.3318
  275MOL0     H37082  -0.686   8.316   8.179  0.7528 -1.9301  1.0129
  275MOL0     H37083  -0.492   8.197   8.042 -1.0554 -1.9662 -2.3170
  275MOL0     H37084  -0.467   8.352   7.971 -2.2852  1.9797 -0.5779
  275MOL0     H37085  -0.567   8.474   7.848 -0.0302 -0.1670  1.1224
  275MOL0     H37086  -0.707   8.782   7.772  1.3735  0.7908  0.0477
  275MOL0     H37087  -0.570   8.667   7.752  1.4229 -0.4043 -2.2358
  275MOL0     H37088  -0.678   8.708   7.614 -2.9951 -1.2250  0.2239
  275MOL0     H37089  -1.336   8.633   7.633  1.9439 -2.0912 -0.3981
  275MOL0     H37090  -1.481   8.720   7.471  0.4357 -1.2167  2.0279
  275MOL0     H37091  -1.575   8.718   7.210  2.7737 -0.6505 -0.4020
  275MOL0     H37092  -1.587   8.863   7.318 -1.1144 -3.0358  0.6532
  275MOL0     H37093  -1.566   9.003   7.132 -0.3392  0.1077  1.7345
  275MOL0     H37094  -1.553   8.866   7.008 -1.5570 -1.3540  0.4135
  275MOL0     H37095  -1.799   8.907   7.172 -0.3860 -1.9304 -0.6435
  275MOL0     H37096  -1.762   8.798   7.038 -1.7425  0.5714 -1.2029
  275MOL0     H37097  -1.742   9.107   7.022  0.4749 -0.4561  2.5083
  275MOL0     H37098  -1.733   8.996   6.888 -1.1275  1.7120  0.2302
  275MOL0     H37099  -1.985   9.004   7.051  0.5981 -2.3778 -0.5699
  275MOL0     H37100  -1.957   8.925   6.906 -1.8434 -1.4043  0.8772
  275MOL0     H37101  -1.933   9.228   6.943  1.0102  1.9012 -3.1971
  275MOL0     H37102  -1.908   9.149   6.785 -0.0287 -3.3350 -0.2031
  275MOL0     H37103  -2.180   9.160   6.937  0.5230 -3.0187  0.3333
  275MOL0     H37104  -2.143   9.067   6.790  1.9310 -0.6332  0.8518
  275MOL0     H37105  -2.274   9.280   6.769 -0.1720  2.2337 -1.4303
  275MOL0     H37106  -2.142   9.269   6.662 -0.6374  1.0422 -0.0142
  275MOL0     H37107  -1.162   8.798   7.211 -0.1396  0.0472  0.3544
  275MOL0     H37108  -1.001   8.701   7.393  0.8309 -0.8106 -0.4990
  275MOL0     H37109  -1.046   8.403   7.754  0.1625 -1.4805  0.8219
  275MOL0     H37110  -0.897   8.232   7.894 -0.8781 -0.6493 -2.3260
  275MOL0     H37111   0.860   8.391   8.839 -0.3469  0.6004  0.2129
  275MOL0     H37112   1.099   8.433   8.751 -0.0519 -0.3976  1.2614
  275MOL0     H37113   1.468   8.866   8.812 -1.1124 -3.1202  1.3032
  275MOL0     H37114   1.702   8.896   8.709 -1.0068  1.0559  1.0203
  275MOL0     H37115   1.792   8.718   8.288  0.9887  0.6570 -2.3548
  275MOL0     H37116   1.712   8.876   8.275  0.4334  0.9183  1.0943
  275MOL0     H37117   1.940   8.840   8.187 -0.0393  0.6310  0.1905
  275MOL0     H37118   2.005   8.841   8.357  0.4665  1.9736  0.9492
  275MOL0     H37119   1.837   9.085   8.302  0.7378 -0.7787  1.8521
  275MOL0     H37120   1.961   9.080   8.186  1.7017  0.8921  0.1820
  275MOL0     H37121   2.124   9.053   8.386  0.5435 -0.7717  0.7651
  275MOL0     H37122   1.981   9.056   8.498 -0.8552 -2.0072 -1.1363
  275MOL0     H37123   2.061   9.458   8.450  0.9240 -0.7040  0.7166
  275MOL0     H37124   1.596   8.624   8.392  2.0665 -2.6869  2.8113
  275MOL0     H37125   1.379   8.601   8.482 -1.3195 -1.7920  3.4039
  276MOL0     O37126   1.389  10.034   1.431 -0.2801 -0.7955  0.3373
  276MOL0     C37127   1.409  10.020   1.312  0.0391 -0.0730  0.7701
  276MOL0     O37128   1.313  10.026   1.218 -0.4304 -0.5390 -0.3843
  276MOL0     C37129   1.180  10.060   1.237 -0.0372 -0.5380  0.1180
  276MOL0     C37130   1.078   9.998   1.161 -0.6445  0.6374  0.0405
  276MOL0     C37131   0.942   9.999   1.191  1.2871  0.1384 -0.0460
  276MOL0     C37132   0.904  10.086   1.295  0.7575 -0.7007  0.8129
  276MOL0     O37133   0.771  10.106   1.331  0.6041  0.3776 -0.3861
  276MOL0     C37134   0.659  10.072   1.245 -0.3468 -0.3719 -0.4947
  276MOL0     C37135   0.530  10.114   1.311 -0.6229  0.4377  0.0138
  276MOL0     C37136   0.409  10.111   1.221  0.8841 -0.1341  0.8860
  276MOL0     C37137   0.300  10.201   1.270 -0.4711 -0.4712  0.1172
  276MOL0     C37138   0.178  10.205   1.178 -0.5522  0.5391  0.0643
  276MOL0     C37139   0.072  10.306   1.220  0.3616  0.5739 -0.4166
  276MOL0     C37140   0.125  10.451   1.210  0.4143  0.5915  1.0395
  276MOL0     C37141   0.152  10.495   1.064  0.0769  0.0477  0.4057
  276MOL0     N37142   0.026  10.506   0.979  0.9579 -0.1842 -0.6109
  276MOL0     C37143  -0.105  10.503   1.027 -0.4796  0.7981 -0.6727
  276MOL0     C37144  -0.173  10.566   0.930 -0.0010 -0.2259  0.1768
  276MOL0     C37145  -0.322  10.603   0.936  0.6472 -0.1195  0.3348
  276MOL0     C37146  -0.425  10.489   0.919 -0.4469  1.1169  0.2896
  276MOL0     C37147  -0.479  10.472   0.779 -0.1980  0.4852 -0.4987
  276MOL0     C37148  -0.579  10.582   0.736  0.1997  0.4471  0.0646
  276MOL0     O37149  -0.707  10.581   0.803  0.6880 -0.4318  0.1107
  276MOL0     C37150  -0.792  10.680   0.765 -0.0408  0.6476 -0.4687
  276MOL0     C37151  -0.926  10.669   0.800  0.2905  0.6812 -0.3321
  276MOL0     C37152  -1.032  10.744   0.744 -0.6045 -0.1637  0.2895
  276MOL0     C37153  -1.175  10.688   0.752 -0.3097 -0.1604 -1.0918
  276MOL0     C37154  -0.993  10.849   0.656 -0.1152 -0.6013 -0.2272
  276MOL0     C37155  -1.087  10.938   0.574  0.7405  1.0152 -0.5567
  276MOL0     O37156  -1.036  11.046   0.518  0.3807  0.2678  0.1900
  276MOL0     C37157  -1.111  11.136   0.450  0.5259 -0.5762  0.5128
  276MOL0     C37158  -1.102  11.268   0.494 -0.6600  0.4917  0.7534
  276MOL0     C37159  -1.178  11.371   0.434  0.4778 -0.2833 -0.0889
  276MOL0     C37160  -1.270  11.339   0.331 -0.7260  0.5638 -0.7401
  276MOL0     O37161  -1.343  11.442   0.271  0.5857 -0.4277 -0.0464
  276MOL0     C37162  -1.292  11.572   0.268  0.1171  0.3923  0.4269
  276MOL0     C37163  -1.389  11.658   0.184  0.2294  0.3989 -0.0577
  276MOL0     C37164  -1.411  11.638   0.033 -0.0463  0.0295  0.5063
  276MOL0     C37165  -1.553  11.673  -0.016  1.6254  0.5564 -0.5304
  276MOL0     C37166  -1.593  11.822   0.014 -0.6534 -0.4014 -0.1228
  276MOL0     C37167  -1.724  11.867  -0.057 -0.1227 -0.3226  0.0387
  276MOL0     C37168  -1.763  12.010  -0.030 -0.7077  0.0097 -0.2951
  276MOL0     C37169  -1.864  12.064  -0.132  1.2123  0.8583  0.3847
  276MOL0    Cl37170  -1.792  12.092  -0.293 -0.3173  0.5599 -0.3727
  276MOL0     C37171  -1.287  11.201   0.294 -0.7025 -0.0481 -1.1200
  276MOL0     C37172  -1.198  11.104   0.350  0.5191 -0.7009 -0.1561
  276MOL0     O37173  -1.211  10.918   0.576  0.4861  0.0733 -0.1331
  276MOL0     C37174  -0.847  10.874   0.638  0.7943  0.2554  0.0927
  276MOL0     C37175  -0.754  10.786   0.685 -0.2840 -0.2552 -0.0545
  276MOL0     N37176  -0.100  10.593   0.824 -0.1355  0.7646  0.3735
  276MOL0     N37177   0.022  10.567   0.856 -0.9173  0.2378 -0.2813
  276MOL0     C37178   1.003  10.156   1.364  0.7336 -0.1009 -0.9573
  276MOL0     C37179   1.134  10.149   1.332 -1.1160  0.1698  0.1411
  276MOL0     C37180   1.546  10.007   1.264 -0.4915 -0.3787  0.0602
  276MOL0     C37181   1.580   9.996   1.130  0.2845  0.2280 -0.2725
  276MOL0     C37182   1.712   9.983   1.085  0.6153 -0.5771  0.1272
  276MOL0     C37183   1.824   9.979   1.170  0.1776  0.3116 -0.6997
  276MOL0     O37184   1.954   9.992   1.123 -0.5005  0.1220  0.6804
  276MOL0     C37185   2.061  10.013   1.219  0.0409 -0.4213  0.0226
  276MOL0     C37186   2.101   9.878   1.299 -0.8962 -0.2517 -0.5553
  276MOL0     C37187   2.232   9.896   1.367 -0.3243  0.0405 -0.2094
  276MOL0     C37188   2.226   9.823   1.499  0.2941  0.2154  0.2507
  276MOL0     C37189   2.355   9.790   1.551  0.3899  0.4907 -0.6079
  276MOL0     C37190   2.459   9.741   1.602 -1.0205  0.0152  0.0746
  276MOL0     C37191   1.783   9.998   1.306 -0.7296 -0.2112 -0.1324
  276MOL0     C37192   1.655  10.009   1.351 -0.3255  0.0590  0.2257
  276MOL0     H37193   1.117   9.946   1.074 -1.9987  1.5997 -1.2037
  276MOL0     H37194   0.869   9.945   1.132  1.5777 -0.4427  0.1203
  276MOL0     H37195   0.670  10.129   1.153  2.2475  0.1005  0.0128
  276MOL0     H37196   0.661   9.967   1.215  1.5234 -1.5490  3.0550
  276MOL0     H37197   0.505  10.050   1.396  0.6983 -2.3680 -1.5552
  276MOL0     H37198   0.542  10.214   1.355  0.7661 -1.0719  3.4609
  276MOL0     H37199   0.434  10.133   1.117 -1.9604 -3.2865 -0.6708
  276MOL0     H37200   0.375  10.007   1.214 -1.6070  0.7240 -1.2938
  276MOL0     H37201   0.267  10.184   1.373  0.2415 -0.2151  0.3954
  276MOL0     H37202   0.349  10.299   1.275  1.0364 -1.1741 -0.0272
  276MOL0     H37203   0.207  10.218   1.074  1.8262 -1.3661  0.4089
  276MOL0     H37204   0.130  10.106   1.179 -0.1804  0.3223 -1.5156
  276MOL0     H37205  -0.016  10.297   1.156 -1.2440 -0.9896  1.8533
  276MOL0     H37206   0.034  10.284   1.320 -1.7304  1.9370 -0.8514
  276MOL0     H37207   0.048  10.514   1.258 -1.9215 -1.2579 -0.0771
  276MOL0     H37208   0.221  10.465   1.261 -0.1527  0.1501  2.2741
  276MOL0     H37209   0.214  10.420   1.013  0.5416  1.5418 -1.3200
  276MOL0     H37210   0.216  10.583   1.066  1.5852 -1.0168  0.1973
  276MOL0     H37211  -0.148  10.464   1.119 -1.2395 -0.1979 -1.4327
  276MOL0     H37212  -0.337  10.650   1.033 -1.9756  1.6632 -0.8253
  276MOL0     H37213  -0.356  10.679   0.865  0.6827 -0.5875 -0.1842
  276MOL0     H37214  -0.505  10.501   0.992  0.5554  2.0144  1.2726
  276MOL0     H37215  -0.372  10.398   0.948  1.0694  1.8046 -0.2144
  276MOL0     H37216  -0.541  10.383   0.766  0.0200 -0.2604  2.6556
  276MOL0     H37217  -0.398  10.465   0.706  0.0756 -1.2050 -0.0664
  276MOL0     H37218  -0.590  10.565   0.629 -0.0731 -2.8221  0.5049
  276MOL0     H37219  -0.529  10.679   0.748  0.3462  0.5534 -1.2322
  276MOL0     H37220  -0.959  10.586   0.861 -3.6117  3.3655  1.6341
  276MOL0     H37221  -1.215  10.682   0.650  1.6078  1.9696 -2.0671
  276MOL0     H37222  -1.189  10.601   0.817  1.2753  0.6869  0.4837
  276MOL0     H37223  -1.244  10.761   0.793 -1.3313 -2.3182  1.2812
  276MOL0     H37224  -1.034  11.300   0.572  0.7027  0.4713 -0.3902
  276MOL0     H37225  -1.171  11.474   0.467  2.2484 -0.4221  0.0731
  276MOL0     H37226  -1.292  11.616   0.369 -2.5495  1.1730  0.1634
  276MOL0     H37227  -1.189  11.575   0.231  0.8546 -0.5452  2.2742
  276MOL0     H37228  -1.486  11.660   0.235  0.6779 -2.1506  1.0539
  276MOL0     H37229  -1.352  11.759   0.204  2.9452  0.2908 -3.4858
  276MOL0     H37230  -1.382  11.538  -0.000 -1.0017  0.4289 -1.6652
  276MOL0     H37231  -1.341  11.703  -0.020  0.8706 -2.5076 -1.6012
  276MOL0     H37232  -1.550  11.658  -0.124  1.3104 -0.8553 -0.3632
  276MOL0     H37233  -1.620  11.606   0.040  0.9568 -0.7908 -2.8288
  276MOL0     H37234  -1.511  11.881  -0.027 -1.3402 -0.3681 -1.5165
  276MOL0     H37235  -1.599  11.839   0.122  0.2573  1.8893 -0.3762
  276MOL0     H37236  -1.712  11.868  -0.166  1.5241  1.0816  0.1961
  276MOL0     H37237  -1.801  11.793  -0.032  1.0101 -0.5456  3.2397
  276MOL0     H37238  -1.668  12.062  -0.043 -1.2263  1.7895  2.3463
  276MOL0     H37239  -1.798  12.016   0.073 -1.0078 -0.2650 -0.3804
  276MOL0     H37240  -1.916  12.153  -0.095 -0.8910 -0.5534  1.0084
  276MOL0     H37241  -1.942  11.990  -0.151  1.2008  0.2718  2.4675
  276MOL0     H37242  -1.373  11.181   0.230 -3.4759  3.6128  1.0747
  276MOL0     H37243  -1.201  10.998   0.326 -0.7550 -0.6864 -0.0960
  276MOL0     H37244  -0.814  10.948   0.565 -0.9487 -0.2087 -1.2413
  276MOL0     H37245  -0.652  10.805   0.652 -0.3092  0.1950  0.1226
  276MOL0     H37246   0.968  10.220   1.444  2.0294 -0.0637 -0.4029
  276MOL0     H37247   1.206  10.202   1.393 -0.9932  1.7674 -1.2967
  276MOL0     H37248   1.504   9.984   1.053 -1.8010  1.8074  1.4050
  276MOL0     H37249   1.740   9.960   0.983  1.1574  1.0887 -0.1289
  276MOL0     H37250   2.150  10.046   1.166 -1.6672  0.5092 -2.4462
  276MOL0     H37251   2.031  10.096   1.284 -1.3679  0.6569 -1.9130
  276MOL0     H37252   2.124   9.802   1.224 -0.3210  0.5879 -1.2567
  276MOL0     H37253   2.015   9.840   1.355 -1.4878  1.4871 -0.2270
  276MOL0     H37254   2.259  10.001   1.375  0.8600 -0.2604 -0.1470
  276MOL0     H37255   2.313   9.855   1.306  1.4451 -0.8081  2.5060
  276MOL0     H37256   2.177   9.727   1.481 -0.0790  0.4466  0.0406
  276MOL0     H37257   2.169   9.886   1.567  1.6276  2.8305 -0.9002
  276MOL0     H37258   2.553   9.714   1.646 -1.0836  1.5383  1.1839
  276MOL0     H37259   1.858  10.002   1.385  0.3633 -2.3281 -0.9826
  276MOL0     H37260   1.655  10.025   1.459 -2.2249  2.2786 -0.0370
  277MOL0     O37261   9.137   2.255   8.926 -0.7115  0.1508 -0.0678
  277MOL0     C37262   9.213   2.329   8.867 -0.2044 -0.2070  0.4091
  277MOL0     O37263   9.171   2.419   8.779 -1.2810 -0.1299  0.1937
  277MOL0     C37264   9.047   2.421   8.735 -0.0610 -0.1171  0.2837
  277MOL0     C37265   9.036   2.458   8.604  0.0435  0.2720  1.1960
  277MOL0     C37266   8.916   2.458   8.540 -0.2344  0.4630  0.0971
  277MOL0     C37267   8.803   2.419   8.607  0.5125  0.4052  0.1561
  277MOL0     O37268   8.682   2.437   8.538  0.1731  0.1419 -0.8811
  277MOL0     C37269   8.601   2.531   8.591 -0.1738  0.4165 -0.6185
  277MOL0     C37270   8.535   2.594   8.471 -0.1245 -1.0472 -0.1544
  277MOL0     C37271   8.634   2.649   8.364  0.5234  0.2047 -0.6200
  277MOL0     C37272   8.682   2.780   8.408 -0.0887 -0.9868 -0.9588
  277MOL0     C37273   8.810   2.827   8.342 -0.0148  0.7120  0.0445
  277MOL0     C37274   8.860   2.962   8.386  0.2566  0.0304  0.5134
  277MOL0     C37275   8.986   3.021   8.320  0.6241  0.2162  0.3868
  277MOL0     C37276   9.004   3.162   8.398 -0.0747 -0.5862  0.2425
  277MOL0     N37277   8.905   3.268   8.359 -0.0904 -0.7288 -0.2587
  277MOL0     C37278   8.827   3.266   8.249  0.3296  1.1277 -0.0058
  277MOL0     C37279   8.763   3.383   8.248  0.4447  0.1738 -0.4476
  277MOL0     C37280   8.672   3.433   8.137 -0.6336  0.6908 -1.4149
  277MOL0     C37281   8.524   3.404   8.181 -0.2207  0.4398 -0.3956
  277MOL0     C37282   8.440   3.408   8.056  0.1394  0.2242  1.0912
  277MOL0     C37283   8.302   3.346   8.077  0.5337 -0.3561  0.2250
  277MOL0     O37284   8.220   3.365   7.963 -0.0630  0.0897 -0.7839
  277MOL0     C37285   8.097   3.304   7.956  0.1533  0.3832 -0.0410
  277MOL0     C37286   8.003   3.350   7.872 -0.0391 -0.4788  0.6274
  277MOL0     C37287   7.874   3.298   7.854  0.2325  0.8793 -0.1651
  277MOL0     C37288   7.784   3.351   7.743 -0.4354  0.3035  0.7894
  277MOL0     C37289   7.835   3.184   7.939  0.3886 -0.0648 -0.1963
  277MOL0     C37290   7.700   3.108   7.917 -0.2373  0.3062  0.0223
  277MOL0     O37291   7.659   3.034   8.026 -0.2827  0.3552  0.0839
  277MOL0     C37292   7.542   2.960   7.997  0.5072  0.6067 -0.0026
  277MOL0     C37293   7.415   3.032   8.003 -0.5579 -0.4301 -0.7054
  277MOL0     C37294   7.298   2.972   7.960 -1.3139  0.1599 -0.1301
  277MOL0     C37295   7.290   2.838   7.923 -0.3552  0.4042 -0.0981
  277MOL0     O37296   7.173   2.793   7.870  0.3893 -0.0818  0.3171
  277MOL0     C37297   7.149   2.657   7.821 -0.8341 -0.2467  0.3749
  277MOL0     C37298   7.004   2.635   7.773  0.1133  0.2203 -0.1431
  277MOL0     C37299   6.904   2.691   7.880 -0.2724 -0.3350 -0.5252
  277MOL0     C37300   6.808   2.583   7.939 -0.4452 -0.7861  0.2526
  277MOL0     C37301   6.713   2.632   8.046 -0.0164 -0.1879 -0.0951
  277MOL0     C37302   6.602   2.718   7.980  0.2347 -0.2894 -1.1420
  277MOL0     C37303   6.502   2.773   8.080 -1.3224  0.1851  1.1019
  277MOL0     C37304   6.394   2.868   8.017  0.5593  0.5379  0.1490
  277MOL0    Cl37305   6.257   2.907   8.122 -0.2053  0.1048 -0.1640
  277MOL0     C37306   7.410   2.765   7.926 -1.0587 -0.0321 -0.2319
  277MOL0     C37307   7.531   2.820   7.966 -0.0019  0.9041 -0.1716
  277MOL0     O37308   7.643   3.109   7.806  0.5577  0.0543  0.5695
  277MOL0     C37309   7.927   3.129   8.025 -0.1255 -0.2481 -0.6690
  277MOL0     C37310   8.055   3.190   8.032  0.5702 -0.0675  0.1444
  277MOL0     N37311   8.787   3.457   8.364 -0.0771 -0.5129  0.8180
  277MOL0     N37312   8.880   3.385   8.427 -0.1569 -0.4904  0.3970
  277MOL0     C37313   8.809   2.382   8.740  1.5386 -0.3116  0.8959
  277MOL0     C37314   8.935   2.383   8.809  0.7242 -0.3474  0.1604
  277MOL0     C37315   9.358   2.309   8.885 -0.0045 -0.4295  0.1889
  277MOL0     C37316   9.451   2.393   8.821  0.5383  0.0762 -0.4547
  277MOL0     C37317   9.591   2.362   8.842 -0.4348  1.3673 -0.1268
  277MOL0     C37318   9.631   2.249   8.919  0.6666  0.1935  0.0993
  277MOL0     O37319   9.768   2.221   8.926 -0.5619 -0.2077  1.0194
  277MOL0     C37320   9.810   2.090   8.888 -0.3804  0.0006 -0.3516
  277MOL0     C37321   9.954   2.067   8.941 -0.0676  0.3940  0.1005
  277MOL0     C37322  10.053   2.155   8.881  0.6142  0.1852  0.3733
  277MOL0     C37323  10.192   2.106   8.915  0.8331  0.3541 -0.2362
  277MOL0     C37324  10.297   2.193   8.859  0.4610  0.0078  0.1412
  277MOL0     C37325  10.374   2.262   8.793 -0.1257 -0.7690 -0.0284
  277MOL0     C37326   9.537   2.172   8.982 -0.2622  0.0516  0.0473
  277MOL0     C37327   9.397   2.204   8.968 -0.9469 -0.1481  0.3214
  277MOL0     H37328   9.117   2.491   8.540 -1.5220  2.6238  0.2822
  277MOL0     H37329   8.913   2.481   8.434  1.2814 -1.4511 -0.4342
  277MOL0     H37330   8.521   2.485   8.651 -2.8957  1.8038 -2.9329
  277MOL0     H37331   8.664   2.607   8.639  4.1310 -3.1251 -0.0934
  277MOL0     H37332   8.479   2.514   8.422  0.5121 -2.0130  0.6809
  277MOL0     H37333   8.469   2.677   8.498  0.5476  0.2433 -2.2009
  277MOL0     H37334   8.719   2.584   8.342  1.1714  0.5843  0.6575
  277MOL0     H37335   8.571   2.665   8.276 -4.4410  1.9476  2.7368
  277MOL0     H37336   8.605   2.854   8.384 -0.6349 -2.1431 -3.0588
  277MOL0     H37337   8.716   2.773   8.511  2.0315 -0.5070 -1.5663
  277MOL0     H37338   8.894   2.760   8.363 -0.5429  0.5150  1.6389
  277MOL0     H37339   8.807   2.831   8.233 -1.1061  3.1725  0.0974
  277MOL0     H37340   8.785   3.037   8.359 -0.0842 -0.6111 -0.3375
  277MOL0     H37341   8.852   2.975   8.495 -3.0146  2.9603  0.1208
  277MOL0     H37342   9.077   2.961   8.327  0.6536  0.4458  2.3157
  277MOL0     H37343   8.968   3.049   8.216  1.6778  1.1452  0.4359
  277MOL0     H37344   9.108   3.193   8.383 -1.0098  1.6388 -2.3109
  277MOL0     H37345   8.996   3.142   8.505  0.7621 -3.1310 -0.1092
  277MOL0     H37346   8.821   3.190   8.172 -0.2456  0.5785  0.5688
  277MOL0     H37347   8.685   3.541   8.123  3.2177  0.4845 -0.6365
  277MOL0     H37348   8.699   3.387   8.042  0.3555  1.3549 -1.4749
  277MOL0     H37349   8.498   3.474   8.261 -0.7180  0.8294 -0.8956
  277MOL0     H37350   8.519   3.298   8.211 -1.6309 -0.6619 -3.9434
  277MOL0     H37351   8.493   3.357   7.975 -0.4023  0.7970  0.3649
  277MOL0     H37352   8.424   3.510   8.021  1.4656  0.2444  0.4699
  277MOL0     H37353   8.249   3.387   8.164  2.1284 -0.5015  1.3084
  277MOL0     H37354   8.318   3.241   8.102 -0.7186 -0.5402  0.2857
  277MOL0     H37355   8.029   3.436   7.810 -3.1605  0.2040  0.1152
  277MOL0     H37356   7.819   3.446   7.702 -0.9648 -1.0686 -3.2806
  277MOL0     H37357   7.780   3.287   7.655  1.7287  0.8339  0.2481
  277MOL0     H37358   7.690   3.358   7.798  0.4830 -1.6651  2.7836
  277MOL0     H37359   7.410   3.122   8.063  0.7562 -2.6723  3.1431
  277MOL0     H37360   7.202   3.022   7.960 -2.1194 -1.3427  0.3697
  277MOL0     H37361   7.217   2.632   7.739 -2.2250  0.3055 -0.9946
  277MOL0     H37362   7.172   2.583   7.898  1.9658  0.0128 -0.1034
  277MOL0     H37363   6.981   2.680   7.676  0.5594  0.4999 -0.1234
  277MOL0     H37364   6.994   2.526   7.776  0.3785  0.1877 -0.4040
  277MOL0     H37365   6.851   2.764   7.818 -0.8203 -1.7864 -1.8334
  277MOL0     H37366   6.956   2.736   7.965 -0.8789 -0.0781 -0.2878
  277MOL0     H37367   6.741   2.545   7.861 -0.1693 -2.7230  0.8888
  277MOL0     H37368   6.851   2.494   7.987 -4.6542 -3.5699 -0.5789
  277MOL0     H37369   6.766   2.689   8.123 -2.4321  2.8340 -0.4635
  277MOL0     H37370   6.664   2.550   8.099 -2.1402  0.6703 -0.6361
  277MOL0     H37371   6.651   2.803   7.932  2.6409 -0.7168  0.3784
  277MOL0     H37372   6.538   2.658   7.914 -0.1734 -1.2683  0.0978
  277MOL0     H37373   6.566   2.827   8.149  2.9951 -2.5742 -0.3156
  277MOL0     H37374   6.442   2.692   8.122  0.5199 -1.2422  1.0955
  277MOL0     H37375   6.349   2.804   7.940  1.3002 -2.8104  2.2846
  277MOL0     H37376   6.430   2.959   7.967 -1.4192  0.7745 -0.9334
  277MOL0     H37377   7.408   2.657   7.912 -0.5648 -0.0015 -0.5795
  277MOL0     H37378   7.621   2.758   7.966 -0.6945 -0.1531 -1.4723
  277MOL0     H37379   7.909   3.043   8.089  0.8261 -1.6731 -2.2530
  277MOL0     H37380   8.128   3.141   8.095  1.5430  0.2530 -0.7014
  277MOL0     H37381   8.721   2.342   8.790  0.4633 -2.7623 -2.5748
  277MOL0     H37382   8.925   2.344   8.910 -1.6557 -3.2277 -1.0387
  277MOL0     H37383   9.413   2.464   8.748 -5.1913 -0.0202  1.8961
  277MOL0     H37384   9.675   2.408   8.793 -1.1357 -0.0977 -2.8823
  277MOL0     H37385   9.747   2.012   8.932  0.3233  1.0186  2.7411
  277MOL0     H37386   9.807   2.081   8.779  1.0617 -0.1803 -0.3977
  277MOL0     H37387   9.996   1.969   8.920  0.3179  0.8586 -1.4937
  277MOL0     H37388   9.944   2.084   9.048 -2.7377 -0.0205 -0.0098
  277MOL0     H37389  10.043   2.251   8.933  2.2590 -0.0789  1.2427
  277MOL0     H37390  10.051   2.179   8.774  1.6872 -0.4141  0.2085
  277MOL0     H37391  10.205   2.003   8.881 -1.3837 -0.7507  1.9590
  277MOL0     H37392  10.194   2.110   9.025 -0.2030 -5.8178  0.3258
  277MOL0     H37393  10.437   2.329   8.739 -0.7169  0.9747  1.3607
  277MOL0     H37394   9.562   2.082   9.036 -2.9302  0.8966  2.9965
  277MOL0     H37395   9.325   2.136   9.012  0.3241 -1.5508  0.3223
  278MOL0     O37396   3.628   7.817   2.798  0.2244  0.4269  0.2945
  278MOL0     C37397   3.686   7.873   2.891  0.1070  0.4355 -0.5190
  278MOL0     O37398   3.628   7.965   2.974 -0.2572  0.5457  0.3419
  278MOL0     C37399   3.497   7.995   2.954 -1.0542  0.5919  0.0258
  278MOL0     C37400   3.467   8.129   2.945  0.4963 -0.3620 -0.7767
  278MOL0     C37401   3.335   8.181   2.916  0.5450 -0.3751  0.5369
  278MOL0     C37402   3.230   8.091   2.920 -0.3920  0.0875  0.1708
  278MOL0     O37403   3.099   8.146   2.896 -0.0925 -0.9155  0.1493
  278MOL0     C37404   2.988   8.056   2.888 -0.0477 -0.1773  0.0860
  278MOL0     C37405   2.849   8.123   2.918 -0.3483  0.1110 -0.1251
  278MOL0     C37406   2.748   8.022   2.857  0.2011  0.1000 -0.3120
  278MOL0     C37407   2.607   8.073   2.855  1.0412  0.3254 -0.3114
  278MOL0     C37408   2.513   7.951   2.841 -0.0259 -0.6733  0.1206
  278MOL0     C37409   2.371   8.003   2.838 -0.2844  0.3299  0.4315
  278MOL0     C37410   2.260   7.903   2.839  0.8428  0.4230 -0.0444
  278MOL0     C37411   2.124   7.959   2.805 -0.7416 -0.4269 -0.6093
  278MOL0     N37412   2.025   7.870   2.737 -0.4349 -0.2399 -0.6152
  278MOL0     C37413   1.980   7.748   2.782 -0.1127  0.6820  0.4476
  278MOL0     C37414   1.920   7.694   2.674  0.2463  0.3927  0.4477
  278MOL0     C37415   1.868   7.556   2.647 -0.2345 -0.7381  0.3137
  278MOL0     C37416   1.740   7.530   2.726 -0.1320  0.4954 -0.0325
  278MOL0     C37417   1.615   7.584   2.647  0.0951  0.7252 -0.3249
  278MOL0     C37418   1.582   7.492   2.534 -0.5142  0.6515  0.2246
  278MOL0     O37419   1.525   7.367   2.582  0.6351 -0.5554  0.3760
  278MOL0     C37420   1.397   7.377   2.631 -0.2625 -0.2755  0.7894
  278MOL0     C37421   1.296   7.366   2.535 -0.0005  0.1175  0.1254
  278MOL0     C37422   1.160   7.347   2.573 -0.3751 -0.8046  0.5513
  278MOL0     C37423   1.054   7.339   2.457  0.4055  0.4152 -0.1117
  278MOL0     C37424   1.127   7.322   2.711  0.0716 -0.7117  1.5017
  278MOL0     C37425   1.000   7.284   2.760  0.5866  0.0432  0.3156
  278MOL0     O37426   0.927   7.189   2.690 -0.3670 -0.1529  0.0922
  278MOL0     C37427   0.791   7.176   2.703 -0.6787  0.8045 -0.4761
  278MOL0     C37428   0.729   7.135   2.580 -0.1959 -0.0419  0.7558
  278MOL0     C37429   0.588   7.109   2.567  0.5539 -0.3753 -0.0575
  278MOL0     C37430   0.501   7.118   2.671  0.2328 -0.1307  0.9021
  278MOL0     O37431   0.373   7.079   2.643  0.1565 -0.7150  0.0199
  278MOL0     C37432   0.260   7.147   2.706 -0.5210 -0.0721 -0.3110
  278MOL0     C37433   0.186   7.040   2.796  0.5647  0.3607 -0.5799
  278MOL0     C37434   0.132   6.926   2.706 -0.1255 -0.4180 -0.6232
  278MOL0     C37435   0.025   6.975   2.609 -0.9144 -0.0281  0.4596
  278MOL0     C37436  -0.059   6.859   2.572 -0.1774 -0.2804 -0.2233
  278MOL0     C37437  -0.176   6.897   2.489  1.1402  0.9642 -0.0113
  278MOL0     C37438  -0.302   6.941   2.561 -0.3863  0.1434 -0.5090
  278MOL0     C37439  -0.419   6.975   2.472 -0.4736 -0.8095 -0.3377
  278MOL0    Cl37440  -0.370   7.083   2.334  0.2912  0.0755 -0.4642
  278MOL0     C37441   0.558   7.164   2.789 -0.4257  0.1258 -0.2082
  278MOL0     C37442   0.694   7.195   2.804 -0.6032  0.0510  0.6844
  278MOL0     O37443   0.958   7.328   2.871 -0.4542 -0.7617  0.6229
  278MOL0     C37444   1.235   7.337   2.800 -0.0861 -0.2000 -0.2349
  278MOL0     C37445   1.368   7.349   2.762 -0.6716 -0.6564  0.0257
  278MOL0     N37446   1.908   7.786   2.578  0.1815  0.0383  0.2589
  278MOL0     N37447   1.977   7.886   2.615 -0.8118 -0.4324 -0.1985
  278MOL0     C37448   3.262   7.954   2.926  0.2139  0.5957  0.0634
  278MOL0     C37449   3.391   7.906   2.942  0.2329 -0.4379 -0.0634
  278MOL0     C37450   3.833   7.843   2.918 -0.5243  0.9197  0.3962
  278MOL0     C37451   3.889   7.874   3.046  0.8512 -0.6764  0.0630
  278MOL0     C37452   4.025   7.851   3.072  0.0139  0.5634  0.1043
  278MOL0     C37453   4.108   7.807   2.966 -0.4142  0.0786 -1.0312
  278MOL0     O37454   4.240   7.793   2.988  0.0309 -0.4323  0.2441
  278MOL0     C37455   4.338   7.892   2.992 -0.1740  0.1505  0.6145
  278MOL0     C37456   4.481   7.838   3.031 -0.0499 -0.2860  0.2055
  278MOL0     C37457   4.502   7.788   3.181  0.4689  0.3426 -1.1985
  278MOL0     C37458   4.647   7.765   3.220  0.4524 -0.2570 -1.0031
  278MOL0     C37459   4.707   7.648   3.158 -0.5137  0.4345  0.2259
  278MOL0     C37460   4.763   7.562   3.088 -0.8668  0.6575  0.6405
  278MOL0     C37461   4.054   7.767   2.851 -0.0491 -0.3459 -0.3411
  278MOL0     C37462   3.916   7.781   2.828 -0.4824 -0.2402  0.2739
  278MOL0     H37463   3.553   8.194   2.953  1.7713 -2.1743  1.2749
  278MOL0     H37464   3.314   8.287   2.908 -0.9548 -0.7170 -0.8055
  278MOL0     H37465   2.986   8.018   2.785 -0.6176 -1.0542  0.4112
  278MOL0     H37466   2.996   7.968   2.953 -3.1512 -0.6457 -0.0246
  278MOL0     H37467   2.833   8.132   3.026  2.1095  2.1325  0.1431
  278MOL0     H37468   2.837   8.220   2.869 -1.1708 -0.6186 -1.4142
  278MOL0     H37469   2.775   8.002   2.753 -0.7253 -0.0565 -0.5284
  278MOL0     H37470   2.763   7.925   2.907  1.1932  0.3241 -0.1447
  278MOL0     H37471   2.580   8.114   2.953  1.2943 -2.4958  1.0391
  278MOL0     H37472   2.577   8.148   2.781 -1.4078  0.6117  0.8653
  278MOL0     H37473   2.524   7.872   2.767 -0.9557  0.2496 -1.0598
  278MOL0     H37474   2.515   7.890   2.932 -0.1165  0.9648  1.2800
  278MOL0     H37475   2.353   8.071   2.921  0.2614  0.8228  0.1513
  278MOL0     H37476   2.368   8.069   2.751 -0.8439  0.5173  0.5877
  278MOL0     H37477   2.272   7.819   2.770 -0.1591 -0.6975  1.0982
  278MOL0     H37478   2.258   7.855   2.937  0.6737 -0.6956 -0.5818
  278MOL0     H37479   2.132   8.049   2.743 -0.2967 -0.5955 -0.7968
  278MOL0     H37480   2.083   8.004   2.895 -2.0637 -0.2702 -1.2597
  278MOL0     H37481   1.998   7.702   2.879  0.3479  2.7211  1.3859
  278MOL0     H37482   1.862   7.555   2.538 -1.5442 -0.0675  0.3612
  278MOL0     H37483   1.943   7.479   2.668  0.7228 -0.8346 -2.9714
  278MOL0     H37484   1.754   7.571   2.826 -0.7570 -2.0000  1.1704
  278MOL0     H37485   1.733   7.421   2.730 -1.8740  0.6159  1.3667
  278MOL0     H37486   1.625   7.691   2.624 -4.3994  1.8738  2.0142
  278MOL0     H37487   1.534   7.576   2.719  0.9416  0.7234  0.6443
  278MOL0     H37488   1.670   7.469   2.474  1.7337 -0.7986  3.7374
  278MOL0     H37489   1.510   7.536   2.465 -0.0459  1.9537  0.5367
  278MOL0     H37490   1.327   7.381   2.432  0.9032  2.8806  0.6959
  278MOL0     H37491   1.118   7.345   2.368  3.2837  3.6401  1.8839
  278MOL0     H37492   0.992   7.250   2.460 -0.8548  1.3091  1.8902
  278MOL0     H37493   1.001   7.435   2.464 -1.6020 -0.7966  4.0621
  278MOL0     H37494   0.780   7.123   2.485 -2.1691 -2.2277 -0.1399
  278MOL0     H37495   0.556   7.079   2.468 -0.4210 -0.9116  0.4097
  278MOL0     H37496   0.291   7.229   2.771  0.8995  0.3645 -1.4929
  278MOL0     H37497   0.190   7.198   2.638 -1.4570  2.9623  2.6703
  278MOL0     H37498   0.254   7.000   2.871  0.5487 -0.2931 -0.9008
  278MOL0     H37499   0.107   7.092   2.851  0.5606  0.2655 -0.4942
  278MOL0     H37500   0.087   6.849   2.770 -0.6617 -0.9288 -1.5857
  278MOL0     H37501   0.216   6.876   2.657  0.7741 -0.2807  0.7330
  278MOL0     H37502  -0.036   7.061   2.637 -0.1878  1.5429 -2.4744
  278MOL0     H37503   0.080   7.010   2.522  0.1588 -0.3108  1.0063
  278MOL0     H37504  -0.099   6.808   2.661 -1.8424 -0.7037 -1.1664
  278MOL0     H37505   0.006   6.788   2.521 -0.4968 -1.3259  0.7866
  278MOL0     H37506  -0.155   6.965   2.406 -2.1626  0.0214 -1.8211
  278MOL0     H37507  -0.194   6.803   2.436  3.4710  0.7489 -0.5308
  278MOL0     H37508  -0.291   7.035   2.616  1.1563 -0.3618  0.0954
  278MOL0     H37509  -0.335   6.866   2.635 -3.0329  1.7276  0.0333
  278MOL0     H37510  -0.505   7.013   2.527 -1.5227 -2.8033 -0.5335
  278MOL0     H37511  -0.464   6.890   2.420 -4.0906  0.8327 -0.2263
  278MOL0     H37512   0.511   7.181   2.885  0.5037 -1.2028  0.5035
  278MOL0     H37513   0.730   7.227   2.902  2.9120 -3.3408  0.7617
  278MOL0     H37514   1.207   7.334   2.905  0.2090 -0.6204 -0.1671
  278MOL0     H37515   1.445   7.337   2.837 -0.9395 -1.3023  0.2059
  278MOL0     H37516   3.191   7.874   2.912 -1.2405  2.1532 -2.2778
  278MOL0     H37517   3.422   7.802   2.949  4.4403  0.7236  1.9379
  278MOL0     H37518   3.819   7.908   3.121 -0.6243 -1.2914 -0.9804
  278MOL0     H37519   4.071   7.870   3.168 -0.4129 -0.8042  0.6045
  278MOL0     H37520   4.356   7.949   2.900  4.0603 -1.7368  0.0492
  278MOL0     H37521   4.309   7.960   3.073 -1.3515  0.1306  0.2326
  278MOL0     H37522   4.551   7.920   3.009  0.1475 -0.7280 -0.8877
  278MOL0     H37523   4.509   7.757   2.964  0.3392  0.5331 -0.6549
  278MOL0     H37524   4.445   7.695   3.192 -0.0363  0.4136 -2.9678
  278MOL0     H37525   4.457   7.856   3.256  0.7895 -1.3146  0.5765
  278MOL0     H37526   4.640   7.756   3.329 -0.3962 -1.4314 -1.1340
  278MOL0     H37527   4.700   7.858   3.198 -0.6116  0.5267 -0.3396
  278MOL0     H37528   4.799   7.489   3.019 -2.1585  1.9547 -1.5260
  278MOL0     H37529   4.122   7.726   2.777 -1.0259 -0.7765 -1.0230
  278MOL0     H37530   3.873   7.757   2.731  2.0710 -1.7884 -0.5981
  279MOL0     O37531   8.409   6.430  10.237 -0.2071  0.2539  0.4043
  279MOL0     C37532   8.442   6.542  10.289  0.0859  0.3588 -0.0662
  279MOL0     O37533   8.366   6.646  10.315 -0.3625  0.7244 -0.3640
  279MOL0     C37534   8.234   6.634  10.278  0.3104 -0.2572 -0.0254
  279MOL0     C37535   8.187   6.696  10.158 -0.3344  0.5998 -0.5213
  279MOL0     C37536   8.053   6.712  10.123 -0.1316  0.0279 -0.6122
  279MOL0     C37537   7.955   6.661  10.208  0.5677  0.8156 -0.6373
  279MOL0     O37538   7.822   6.663  10.163  0.3127 -0.0672 -0.4325
  279MOL0     C37539   7.763   6.785  10.195  0.1724 -0.4841 -0.6441
  279MOL0     C37540   7.619   6.790  10.142 -0.0371 -0.3399 -0.0102
  279MOL0     C37541   7.629   6.775   9.988  0.0340  0.5650 -0.1959
  279MOL0     C37542   7.500   6.744   9.914  0.1033  0.3160 -0.8122
  279MOL0     C37543   7.397   6.860   9.944 -0.0540 -0.6832 -0.0326
  279MOL0     C37544   7.265   6.861   9.863  0.4640  0.4800 -0.7675
  279MOL0     C37545   7.176   6.989   9.901  0.0434 -0.1966 -1.0225
  279MOL0     C37546   7.023   6.970   9.872 -0.0972  0.2053 -0.5524
  279MOL0     N37547   6.950   6.868   9.951 -0.2314 -0.2586  0.4538
  279MOL0     C37548   6.873   6.894  10.064  0.0786  0.5477  0.7232
  279MOL0     C37549   6.853   6.773  10.121 -0.1050 -0.8220 -0.6910
  279MOL0     C37550   6.775   6.733  10.244 -0.1002 -0.8180  0.8165
  279MOL0     C37551   6.827   6.612  10.322 -0.6972  0.2695 -1.4779
  279MOL0     C37552   6.767   6.595  10.464 -0.8315 -0.5674 -1.1551
  279MOL0     C37553   6.840   6.683  10.567  0.0700  0.8636 -0.1647
  279MOL0     O37554   6.806   6.822  10.560 -0.0570  0.6016 -0.6963
  279MOL0     C37555   6.675   6.857  10.595  0.4988 -0.4627  0.1193
  279MOL0     C37556   6.619   6.974  10.528  0.4092  0.9391 -0.2779
  279MOL0     C37557   6.485   7.022  10.548  0.3732  0.8506 -0.1907
  279MOL0     C37558   6.450   7.148  10.471  0.4351  0.1840  0.4813
  279MOL0     C37559   6.415   6.954  10.646 -0.4714  0.1020  0.0256
  279MOL0     C37560   6.274   6.996  10.680 -0.2476 -0.1629  0.9739
  279MOL0     O37561   6.203   7.062  10.587 -0.6176 -0.0450 -0.1727
  279MOL0     C37562   6.068   7.090  10.612  0.0826  0.4428  0.2818
  279MOL0     C37563   5.974   6.997  10.638  0.6929  0.0837  0.1352
  279MOL0     C37564   5.837   7.035  10.660 -0.1353 -0.3193 -0.5384
  279MOL0     C37565   5.792   7.162  10.651 -0.5786  0.5721  0.4359
  279MOL0     O37566   5.659   7.196  10.663  0.2697 -0.3686  0.0882
  279MOL0     C37567   5.617   7.335  10.649 -0.6438 -0.9536 -0.0344
  279MOL0     C37568   5.473   7.331  10.665  0.1578  0.1324 -0.0699
  279MOL0     C37569   5.404   7.461  10.615 -0.9917  0.9509  0.4267
  279MOL0     C37570   5.253   7.449  10.607  0.3174 -0.8056  0.8620
  279MOL0     C37571   5.191   7.571  10.535 -0.0346 -0.1049  0.5548
  279MOL0     C37572   5.217   7.699  10.623 -0.0696  0.3716  0.0091
  279MOL0     C37573   5.124   7.818  10.592 -0.1405  0.0515  0.5724
  279MOL0     C37574   4.985   7.807  10.652  0.2805  0.1100 -0.1193
  279MOL0    Cl37575   4.912   7.967  10.652 -0.1758  0.3748 -0.2868
  279MOL0     C37576   5.891   7.262  10.628  1.2418 -0.1809  0.0915
  279MOL0     C37577   6.024   7.227  10.599 -0.0898 -0.2000 -0.3694
  279MOL0     O37578   6.227   6.961  10.787  0.0863 -0.5882 -0.5028
  279MOL0     C37579   6.478   6.854  10.726  0.1773  0.0872  0.1388
  279MOL0     C37580   6.603   6.796  10.689  0.2877  0.4757 -0.0576
  279MOL0     N37581   6.903   6.680  10.027 -0.3456  0.0906  0.2860
  279MOL0     N37582   6.965   6.740   9.934 -0.2214 -0.5694  0.0937
  279MOL0     C37583   7.992   6.601  10.333  0.2247 -0.8100 -0.1152
  279MOL0     C37584   8.124   6.594  10.364  0.0664 -0.1828 -1.0128
  279MOL0     C37585   8.580   6.554  10.324  0.5052 -0.2633  1.1003
  279MOL0     C37586   8.676   6.456  10.295  0.0460  0.2353  0.7260
  279MOL0     C37587   8.805   6.454  10.343  0.0219  0.1039 -0.0203
  279MOL0     C37588   8.851   6.554  10.426 -0.0540 -0.6333  0.5451
  279MOL0     O37589   8.970   6.550  10.482 -0.0578 -0.1785 -0.1242
  279MOL0     C37590   9.066   6.629  10.407 -0.0454 -0.3727  0.7578
  279MOL0     C37591   9.184   6.531  10.390 -0.4070 -1.2181  0.0188
  279MOL0     C37592   9.260   6.507  10.521  0.5169 -0.6881  0.4831
  279MOL0     C37593   9.326   6.625  10.578  1.1086  0.8067 -0.7477
  279MOL0     C37594   9.406   6.591  10.695 -0.4523 -1.0619 -0.4010
  279MOL0     C37595   9.477   6.555  10.784 -0.9038  0.4578 -0.6014
  279MOL0     C37596   8.759   6.661  10.453 -0.9789  0.2083  0.1375
  279MOL0     C37597   8.632   6.662  10.391  0.5905 -0.6259  0.1597
  279MOL0     H37598   8.276   6.730  10.106  0.7068 -0.7185  0.2958
  279MOL0     H37599   8.031   6.774  10.037  0.0670  1.3042  0.2376
  279MOL0     H37600   7.761   6.802  10.303 -1.6076 -0.3815 -0.6694
  279MOL0     H37601   7.820   6.870  10.154 -1.1118  0.8970  0.3300
  279MOL0     H37602   7.562   6.706  10.182  0.3589  0.6745  2.8576
  279MOL0     H37603   7.561   6.879  10.170  0.7023  0.5382 -1.1572
  279MOL0     H37604   7.671   6.872   9.960  1.6633  0.5641  1.9331
  279MOL0     H37605   7.695   6.693   9.959 -1.8493 -0.3790 -2.0477
  279MOL0     H37606   7.516   6.740   9.806 -0.2259 -0.2345 -0.8456
  279MOL0     H37607   7.459   6.648   9.947 -0.8352  0.6539 -0.9510
  279MOL0     H37608   7.368   6.867  10.049 -0.0051  3.3502 -0.1519
  279MOL0     H37609   7.442   6.956   9.918  1.9762 -1.1230  1.5240
  279MOL0     H37610   7.290   6.863   9.756  0.0399 -0.9821 -0.9289
  279MOL0     H37611   7.212   6.767   9.883 -1.2550  1.4070 -0.7596
  279MOL0     H37612   7.189   7.007  10.008 -0.0935 -2.0904 -0.6502
  279MOL0     H37613   7.205   7.078   9.845 -1.9928  0.5216 -1.0005
  279MOL0     H37614   7.019   6.947   9.766  1.8035  0.8909 -0.8255
  279MOL0     H37615   6.972   7.067   9.884 -1.7283 -0.8681  2.3877
  279MOL0     H37616   6.847   6.992  10.103  1.2278  0.6979  1.1702
  279MOL0     H37617   6.779   6.825  10.303  0.9115 -0.5885  0.4119
  279MOL0     H37618   6.676   6.709  10.205  0.9648 -0.2240 -2.5961
  279MOL0     H37619   6.936   6.610  10.331 -0.8427 -2.5526  2.9768
  279MOL0     H37620   6.798   6.523  10.266  0.7129 -2.2879  1.5314
  279MOL0     H37621   6.786   6.490  10.487  0.3012 -0.1112  0.0858
  279MOL0     H37622   6.658   6.608  10.471 -0.7987 -1.2289  3.4387
  279MOL0     H37623   6.949   6.673  10.561 -0.1554 -3.9943 -0.1618
  279MOL0     H37624   6.811   6.637  10.662 -0.4571 -1.1412 -1.2438
  279MOL0     H37625   6.683   7.012  10.449 -0.0727 -0.4393 -1.3752
  279MOL0     H37626   6.450   7.238  10.534 -4.5701  0.0486  1.1223
  279MOL0     H37627   6.527   7.171  10.397 -0.3800 -1.6933 -1.0383
  279MOL0     H37628   6.356   7.152  10.416 -1.1794  1.2690  3.0949
  279MOL0     H37629   5.991   6.890  10.636 -3.5834 -0.8225  1.7965
  279MOL0     H37630   5.752   6.968  10.671  0.1655 -0.5991  0.0529
  279MOL0     H37631   5.661   7.396  10.728 -2.4194  0.6355 -0.2036
  279MOL0     H37632   5.641   7.375  10.550 -1.5152 -1.2885 -0.3893
  279MOL0     H37633   5.441   7.244  10.607  1.4442 -0.2395 -0.2653
  279MOL0     H37634   5.444   7.313  10.768 -0.9397 -0.6094 -0.4868
  279MOL0     H37635   5.438   7.485  10.514 -4.6153  1.6870 -0.7517
  279MOL0     H37636   5.440   7.543  10.676 -1.5451  1.6730 -0.1998
  279MOL0     H37637   5.229   7.365  10.540 -1.2419  0.6398 -0.4835
  279MOL0     H37638   5.204   7.442  10.704  1.8337  2.9862  2.0669
  279MOL0     H37639   5.088   7.548  10.508  0.8305 -2.4093 -1.0653
  279MOL0     H37640   5.243   7.592  10.441  2.2014 -0.6431  1.6156
  279MOL0     H37641   5.204   7.674  10.728 -0.9975  1.9633  0.3026
  279MOL0     H37642   5.319   7.738  10.620 -1.1097  3.3369 -0.3240
  279MOL0     H37643   5.118   7.823  10.483  0.0860 -4.4611  0.1806
  279MOL0     H37644   5.167   7.910  10.633 -3.1957  1.6628  0.5098
  279MOL0     H37645   4.994   7.775  10.756  1.6980 -1.9209 -0.8095
  279MOL0     H37646   4.923   7.731  10.603 -0.3626  1.2455 -1.1351
  279MOL0     H37647   5.872   7.369  10.636  0.0607 -0.4503  1.4709
  279MOL0     H37648   6.097   7.305  10.579  2.8568 -2.0400  2.3182
  279MOL0     H37649   6.430   6.807  10.812  0.2348  1.9451  1.2419
  279MOL0     H37650   6.639   6.716  10.753  1.4032  0.6162 -0.4908
  279MOL0     H37651   7.913   6.553  10.389 -0.5826 -0.0185 -0.5587
  279MOL0     H37652   8.160   6.540  10.451  0.2917 -0.0946 -1.0531
  279MOL0     H37653   8.648   6.366  10.241 -0.4038 -0.8344  2.6558
  279MOL0     H37654   8.858   6.360  10.336 -2.0458 -1.0675 -0.7903
  279MOL0     H37655   9.026   6.663  10.312  2.5415 -0.3449 -0.4100
  279MOL0     H37656   9.091   6.725  10.453  0.3504 -0.5257  0.8713
  279MOL0     H37657   9.253   6.580  10.321  0.2335  0.1472  1.5686
  279MOL0     H37658   9.149   6.436  10.349 -1.2496 -1.3474  0.9993
  279MOL0     H37659   9.339   6.436  10.496 -1.5072 -3.3089  1.0728
  279MOL0     H37660   9.183   6.473  10.591 -1.2633  2.2457  0.1239
  279MOL0     H37661   9.252   6.694  10.621  0.6819 -0.1362  0.0801
  279MOL0     H37662   9.385   6.673  10.500  1.1539  0.4467 -0.9318
  279MOL0     H37663   9.537   6.524  10.867 -2.5299 -2.6742 -0.4798
  279MOL0     H37664   8.794   6.755  10.496  0.2435  0.8279 -2.0503
  279MOL0     H37665   8.567   6.747  10.408  1.1882  0.0315 -0.7084
  280MOL0     O37666   3.264   8.291   5.341 -0.4412  0.1462 -0.6370
  280MOL0     C37667   3.331   8.220   5.264  0.3788 -0.3692  0.2924
  280MOL0     O37668   3.324   8.082   5.253 -1.1072  0.0846 -0.4515
  280MOL0     C37669   3.232   8.007   5.315  0.3273  0.4918 -0.2188
  280MOL0     C37670   3.099   8.031   5.303  1.2764  0.7183  0.9659
  280MOL0     C37671   2.999   7.947   5.361 -0.3964 -0.4565  0.2145
  280MOL0     C37672   3.041   7.833   5.430  0.1295 -0.2001 -0.0487
  280MOL0     O37673   2.956   7.738   5.485  0.0105  0.0861  0.4973
  280MOL0     C37674   2.819   7.749   5.461  0.4518 -0.7374 -0.6227
  280MOL0     C37675   2.741   7.675   5.570 -0.3779  0.3825 -1.0295
  280MOL0     C37676   2.595   7.721   5.597 -0.5861  1.0629 -0.1107
  280MOL0     C37677   2.516   7.626   5.687  0.8574 -0.6936  0.2530
  280MOL0     C37678   2.355   7.647   5.684 -0.0970  0.3211  0.0510
  280MOL0     C37679   2.291   7.547   5.777 -0.0552 -0.6376  0.1270
  280MOL0     C37680   2.140   7.554   5.786 -0.1606  0.9307 -0.1855
  280MOL0     C37681   2.106   7.450   5.895  0.1604  0.6131 -0.8218
  280MOL0     N37682   1.965   7.408   5.906  0.3005  0.6749  0.6365
  280MOL0     C37683   1.876   7.452   5.996 -0.1325 -0.6971  0.9180
  280MOL0     C37684   1.761   7.386   5.972 -0.9512 -0.7072 -0.6615
  280MOL0     C37685   1.628   7.410   6.045  0.3080 -0.4603  0.4218
  280MOL0     C37686   1.569   7.297   6.117 -0.8038  0.7077 -0.1924
  280MOL0     C37687   1.443   7.344   6.194  0.1799 -0.5058 -0.5534
  280MOL0     C37688   1.357   7.228   6.243 -0.7755  0.6754  0.1166
  280MOL0     O37689   1.273   7.268   6.348 -0.1434  0.6508  0.6168
  280MOL0     C37690   1.141   7.308   6.315 -0.3169 -0.7251 -0.3942
  280MOL0     C37691   1.063   7.356   6.419 -0.3895 -0.1276  0.2615
  280MOL0     C37692   0.935   7.407   6.395  0.9307 -0.6643 -0.5574
  280MOL0     C37693   0.860   7.470   6.508  0.4415 -0.3714  0.0007
  280MOL0     C37694   0.868   7.392   6.274 -0.4288  0.3142  0.5852
  280MOL0     C37695   0.719   7.409   6.244  0.2633 -0.4450  0.1547
  280MOL0     O37696   0.651   7.504   6.311  0.4370  0.7529 -0.6141
  280MOL0     C37697   0.519   7.522   6.292 -0.6118 -0.2611 -1.3980
  280MOL0     C37698   0.423   7.428   6.342  0.1533 -0.0114  0.8943
  280MOL0     C37699   0.290   7.446   6.328 -0.8752 -0.0560 -0.2986
  280MOL0     C37700   0.244   7.559   6.260  0.7588 -0.0449  0.0908
  280MOL0     O37701   0.108   7.557   6.247 -0.4551  0.0734 -0.5221
  280MOL0     C37702   0.049   7.657   6.163  0.5172  0.8660  0.1572
  280MOL0     C37703  -0.107   7.654   6.167  0.2926 -0.6062 -0.3461
  280MOL0     C37704  -0.167   7.714   6.039 -1.0387 -0.5892  0.1206
  280MOL0     C37705  -0.320   7.742   6.045  0.1553 -1.3124 -0.2289
  280MOL0     C37706  -0.410   7.625   6.018 -0.5326 -0.0761 -0.2183
  280MOL0     C37707  -0.549   7.671   5.978 -0.3913 -0.9543  1.1647
  280MOL0     C37708  -0.631   7.537   5.961  0.2781  0.0460  0.3255
  280MOL0     C37709  -0.753   7.560   5.869  0.4242 -0.6352 -0.1900
  280MOL0    Cl37710  -0.691   7.559   5.700  0.1067  0.0789  0.1130
  280MOL0     C37711   0.335   7.660   6.216  0.5164  0.8314  0.9823
  280MOL0     C37712   0.471   7.639   6.237  0.0904 -0.1670 -0.0583
  280MOL0     O37713   0.668   7.323   6.173 -0.3465 -0.5417  0.0532
  280MOL0     C37714   0.943   7.322   6.176  0.1785 -0.4327  0.0999
  280MOL0     C37715   1.078   7.297   6.196  0.6364 -0.0928  0.6545
  280MOL0     N37716   1.784   7.291   5.872  0.5878 -0.5656 -0.1721
  280MOL0     N37717   1.906   7.308   5.833  0.7817 -0.3106 -0.2624
  280MOL0     C37718   3.181   7.806   5.438 -0.1910  0.0803  0.4464
  280MOL0     C37719   3.274   7.900   5.383 -0.3750 -0.3180  0.4722
  280MOL0     C37720   3.431   8.276   5.182 -0.8178 -0.2700  0.5120
  280MOL0     C37721   3.412   8.394   5.115  1.6211  0.2062  0.3279
  280MOL0     C37722   3.510   8.460   5.043 -0.5649  0.2829 -0.2847
  280MOL0     C37723   3.640   8.403   5.031 -0.1577  0.3407  0.0529
  280MOL0     O37724   3.748   8.465   4.966  0.8875  0.2195  0.8693
  280MOL0     C37725   3.727   8.594   4.910 -0.3582 -0.1052 -0.2059
  280MOL0     C37726   3.845   8.635   4.820 -0.2113  0.7307  0.4004
  280MOL0     C37727   3.809   8.762   4.739  0.0589  0.5908 -0.1155
  280MOL0     C37728   3.803   8.882   4.830 -0.5727  0.2098  0.7792
  280MOL0     C37729   3.766   9.007   4.764 -0.1540 -0.4426 -0.1490
  280MOL0     C37730   3.724   9.108   4.712 -0.6740 -0.0701  0.3691
  280MOL0     C37731   3.669   8.286   5.102  0.3266 -1.1567  0.8123
  280MOL0     C37732   3.560   8.222   5.171 -0.0362  0.2493 -0.0388
  280MOL0     H37733   3.080   8.116   5.238 -0.4361  0.4772  1.1092
  280MOL0     H37734   2.894   7.955   5.334 -0.2172 -2.3444 -1.2833
  280MOL0     H37735   2.776   7.849   5.456  2.2064  0.0275 -0.9046
  280MOL0     H37736   2.793   7.701   5.366  2.9734 -2.3247 -0.5999
  280MOL0     H37737   2.734   7.570   5.540 -0.1334 -0.5829  1.9707
  280MOL0     H37738   2.798   7.685   5.663 -2.9362  2.1650  0.4667
  280MOL0     H37739   2.601   7.822   5.638  0.4271  0.7224  0.6369
  280MOL0     H37740   2.537   7.723   5.505 -0.9712 -1.4227 -0.0009
  280MOL0     H37741   2.538   7.524   5.653 -0.5771 -0.5873 -1.1143
  280MOL0     H37742   2.537   7.624   5.794 -0.4632  1.3251  0.6001
  280MOL0     H37743   2.342   7.748   5.725  0.2517 -0.2665  1.6724
  280MOL0     H37744   2.328   7.639   5.578  0.4346  0.7869 -0.1286
  280MOL0     H37745   2.308   7.448   5.735  0.4988 -0.1554 -0.8116
  280MOL0     H37746   2.329   7.548   5.879 -0.6395 -0.3119  0.3458
  280MOL0     H37747   2.103   7.652   5.818 -0.3134  0.0288  2.7488
  280MOL0     H37748   2.090   7.531   5.691 -0.2314  0.1459  0.0285
  280MOL0     H37749   2.141   7.474   5.996 -1.2757  0.6123 -0.3035
  280MOL0     H37750   2.165   7.360   5.876 -0.2272  0.1580  0.0753
  280MOL0     H37751   1.893   7.520   6.078 -0.2554 -0.0217  0.3887
  280MOL0     H37752   1.644   7.489   6.120 -0.5212 -0.6731  0.8360
  280MOL0     H37753   1.560   7.454   5.972  1.8730 -1.1059 -1.5160
  280MOL0     H37754   1.644   7.252   6.183 -0.5082  0.6590 -0.5584
  280MOL0     H37755   1.533   7.227   6.041  1.7802  0.5551 -1.3824
  280MOL0     H37756   1.376   7.399   6.127  1.1743 -0.4443 -1.5302
  280MOL0     H37757   1.476   7.393   6.286  2.0098  0.1189 -1.4989
  280MOL0     H37758   1.423   7.145   6.269 -0.7322  0.7480  0.2363
  280MOL0     H37759   1.309   7.195   6.151  0.1085 -0.7375  0.1281
  280MOL0     H37760   1.110   7.366   6.517  0.9149  0.0272 -0.3595
  280MOL0     H37761   0.851   7.577   6.485 -0.2242 -0.5522 -0.5891
  280MOL0     H37762   0.766   7.418   6.528 -0.1203  1.2553  1.9435
  280MOL0     H37763   0.909   7.456   6.605  2.6905  0.5208 -0.9382
  280MOL0     H37764   0.458   7.339   6.393 -0.3712 -1.1202 -0.6549
  280MOL0     H37765   0.226   7.364   6.359  2.7213 -4.3252 -3.0806
  280MOL0     H37766   0.087   7.744   6.217  1.3508 -1.4411  3.6448
  280MOL0     H37767   0.082   7.656   6.059 -0.9025 -1.8127 -0.3507
  280MOL0     H37768  -0.145   7.551   6.166  0.9550 -0.8720 -2.0062
  280MOL0     H37769  -0.143   7.710   6.253 -1.7753 -2.3224  0.0178
  280MOL0     H37770  -0.152   7.636   5.963 -0.9461 -2.5039  2.0047
  280MOL0     H37771  -0.113   7.805   6.013 -0.2161 -1.1554 -0.1910
  280MOL0     H37772  -0.345   7.797   6.136  1.0246  1.1312 -1.3882
  280MOL0     H37773  -0.342   7.826   5.978 -0.3494 -0.8145  0.5492
  280MOL0     H37774  -0.417   7.551   6.098  3.3150  0.4294  0.7608
  280MOL0     H37775  -0.365   7.576   5.932 -0.8635  1.1182 -1.1045
  280MOL0     H37776  -0.596   7.739   6.049 -0.1068  0.0960  0.3787
  280MOL0     H37777  -0.555   7.730   5.886 -3.0385  0.3570  2.0550
  280MOL0     H37778  -0.661   7.513   6.063 -0.6008  3.7955  1.1235
  280MOL0     H37779  -0.577   7.456   5.911  0.8405 -0.0521  1.0644
  280MOL0     H37780  -0.793   7.659   5.895  2.5384 -0.1409  1.4687
  280MOL0     H37781  -0.825   7.483   5.897 -2.1522  2.1121  1.4083
  280MOL0     H37782   0.304   7.738   6.148  0.8914 -0.6794 -1.0375
  280MOL0     H37783   0.549   7.709   6.207 -1.8216  1.9241 -0.3616
  280MOL0     H37784   0.903   7.291   6.080  0.8757  1.7687 -0.9676
  280MOL0     H37785   1.116   7.244   6.109  3.1249 -0.5274  1.9204
  280MOL0     H37786   3.222   7.713   5.478 -0.8337 -1.3986 -2.0772
  280MOL0     H37787   3.379   7.873   5.372  0.3616  1.9125  1.5406
  280MOL0     H37788   3.324   8.454   5.135  1.6015 -0.2176  1.6611
  280MOL0     H37789   3.489   8.559   5.004 -1.5765 -0.5506 -1.9848
  280MOL0     H37790   3.633   8.602   4.853 -0.9400 -0.8599  0.6232
  280MOL0     H37791   3.717   8.677   4.980  1.0176 -0.6302  0.6449
  280MOL0     H37792   3.870   8.543   4.766  1.4961 -0.7882  3.4531
  280MOL0     H37793   3.939   8.649   4.874 -0.3208 -3.1500  1.9427
  280MOL0     H37794   3.712   8.746   4.692 -0.2622 -1.7332  1.1821
  280MOL0     H37795   3.883   8.763   4.659 -1.7470  1.1958 -1.8455
  280MOL0     H37796   3.897   8.904   4.882 -0.8920 -2.0757  2.4707
  280MOL0     H37797   3.734   8.867   4.913 -1.4253  1.2752  0.2960
  280MOL0     H37798   3.691   9.203   4.674  1.7832  0.7945  0.2388
  280MOL0     H37799   3.767   8.241   5.111  2.0572  2.3243  0.8077
  280MOL0     H37800   3.585   8.130   5.224  0.5935 -0.0542 -0.8222
  281MOL0     O37801   5.269   8.694   7.982 -0.0095  0.0689 -0.1583
  281MOL0     C37802   5.364   8.661   7.910  0.0352  0.5063  0.8562
  281MOL0     O37803   5.362   8.650   7.773 -0.1292 -0.4328  0.2125
  281MOL0     C37804   5.248   8.677   7.704  0.5815  0.8082  0.0137
  281MOL0     C37805   5.249   8.750   7.590 -0.9448  0.4311  0.7843
  281MOL0     C37806   5.136   8.780   7.520 -0.3843  0.2879 -0.0377
  281MOL0     C37807   5.011   8.736   7.567  0.6290 -0.6205 -0.7333
  281MOL0     O37808   4.900   8.790   7.497  0.2069  0.2963 -0.1940
  281MOL0     C37809   4.775   8.728   7.504  0.0919  0.1192  0.2933
  281MOL0     C37810   4.685   8.814   7.408  0.4111  0.6342 -0.3006
  281MOL0     C37811   4.532   8.790   7.425 -0.0118 -0.2097  0.0436
  281MOL0     C37812   4.458   8.909   7.367  0.8408 -0.0438  0.2414
  281MOL0     C37813   4.313   8.912   7.367 -0.3706 -0.4845  0.6847
  281MOL0     C37814   4.249   8.812   7.275 -0.6700 -0.1106  0.0143
  281MOL0     C37815   4.098   8.816   7.279  0.6526  0.6093  0.2995
  281MOL0     C37816   4.034   8.686   7.225 -0.8788  0.5364  0.1270
  281MOL0     N37817   4.048   8.672   7.076  0.1985 -0.1066  0.7760
  281MOL0     C37818   3.941   8.697   6.994 -0.6212 -0.0299 -0.4614
  281MOL0     C37819   3.992   8.692   6.872  0.6269  0.1600  0.0327
  281MOL0     C37820   3.907   8.692   6.741 -0.0448  0.4529  0.0383
  281MOL0     C37821   3.879   8.834   6.699  0.6202 -0.1896 -0.0324
  281MOL0     C37822   3.782   8.848   6.582  0.9658 -0.3056  0.0418
  281MOL0     C37823   3.626   8.823   6.613  0.2421  0.1742  0.1743
  281MOL0     O37824   3.598   8.744   6.726  0.2289  0.0709 -0.2421
  281MOL0     C37825   3.480   8.672   6.741 -0.0746 -0.6883  0.4245
  281MOL0     C37826   3.479   8.568   6.837 -0.6170 -0.5708  0.7068
  281MOL0     C37827   3.370   8.484   6.861  0.7793  0.2656  0.0430
  281MOL0     C37828   3.389   8.384   6.968  0.5831  0.3753  0.2763
  281MOL0     C37829   3.247   8.512   6.791  0.3841 -0.1603  0.7434
  281MOL0     C37830   3.119   8.434   6.815  0.0245  0.3610  0.1676
  281MOL0     O37831   2.999   8.500   6.781  0.1358 -0.8855  0.1265
  281MOL0     C37832   2.901   8.409   6.757  0.2813 -1.1779 -0.3800
  281MOL0     C37833   2.914   8.326   6.647  0.0409 -0.2039  0.1089
  281MOL0     C37834   2.803   8.246   6.603  0.1877  1.1709 -0.3444
  281MOL0     C37835   2.683   8.250   6.664  0.4189  0.9626  0.4373
  281MOL0     O37836   2.580   8.164   6.642  0.1097 -0.0306  0.7778
  281MOL0     C37837   2.548   8.139   6.501 -0.1678  0.2638  0.2636
  281MOL0     C37838   2.571   7.985   6.482  0.2979  0.1969 -0.0699
  281MOL0     C37839   2.464   7.897   6.576 -1.0207  0.6769  0.8910
  281MOL0     C37840   2.368   7.830   6.482  0.6676 -0.0047  0.6220
  281MOL0     C37841   2.280   7.722   6.551  0.1378 -0.2013 -0.0165
  281MOL0     C37842   2.138   7.714   6.486 -0.1356  0.0123 -0.0480
  281MOL0     C37843   2.062   7.622   6.587 -0.4167  0.2820 -0.3652
  281MOL0     C37844   1.921   7.584   6.543 -0.5211 -0.0624 -0.7142
  281MOL0    Cl37845   1.904   7.517   6.382  0.2660  0.1249 -0.3196
  281MOL0     C37846   2.672   8.334   6.778 -0.3091  0.1207  0.3312
  281MOL0     C37847   2.782   8.406   6.829 -0.2457  0.6713 -0.1691
  281MOL0     O37848   3.128   8.322   6.856  0.3069  0.2025  0.4123
  281MOL0     C37849   3.243   8.626   6.707 -0.1368  0.2007 -0.1461
  281MOL0     C37850   3.360   8.705   6.682 -0.7480  0.3040 -1.1856
  281MOL0     N37851   4.127   8.693   6.868  0.4474  0.1023 -0.0939
  281MOL0     N37852   4.160   8.674   6.991  0.2693 -0.7020 -0.4852
  281MOL0     C37853   5.005   8.643   7.669  0.0551 -0.3581 -0.5491
  281MOL0     C37854   5.124   8.617   7.739  1.3772  0.5387 -0.1202
  281MOL0     C37855   5.495   8.643   7.981 -0.4323 -0.0236 -0.3449
  281MOL0     C37856   5.617   8.628   7.910 -0.9467  0.3011 -0.5036
  281MOL0     C37857   5.739   8.599   7.978  0.6022 -0.7047 -0.3716
  281MOL0     C37858   5.749   8.585   8.119  0.6290  0.0814  0.4888
  281MOL0     O37859   5.869   8.574   8.179  0.2325  0.6460 -0.4984
  281MOL0     C37860   5.952   8.464   8.126  0.2326 -0.3598  0.0804
  281MOL0     C37861   6.055   8.408   8.233  0.0897  0.1218 -0.9513
  281MOL0     C37862   6.148   8.305   8.169 -0.7693  0.4119 -1.2389
  281MOL0     C37863   6.248   8.246   8.264  0.7363 -0.4434  0.2629
  281MOL0     C37864   6.193   8.150   8.348  0.2962  0.8931 -1.2565
  281MOL0     C37865   6.131   8.061   8.416  0.4041  0.9678 -0.1490
  281MOL0     C37866   5.626   8.600   8.188 -0.9326 -0.0220 -0.2729
  281MOL0     C37867   5.499   8.629   8.126 -0.3669  0.3140 -0.1645
  281MOL0     H37868   5.343   8.791   7.557  0.0309 -1.7764  0.6834
  281MOL0     H37869   5.129   8.855   7.443 -2.5994  2.0189  1.7054
  281MOL0     H37870   4.774   8.621   7.480 -1.3509  0.3017 -0.5960
  281MOL0     H37871   4.726   8.731   7.601  0.1845 -1.5029  0.4130
  281MOL0     H37872   4.701   8.920   7.426 -0.5669  0.9902 -1.3753
  281MOL0     H37873   4.714   8.795   7.304  2.3243 -1.7611  0.5632
  281MOL0     H37874   4.515   8.697   7.369  0.8408  0.0725 -0.7297
  281MOL0     H37875   4.501   8.783   7.529 -1.3703  0.6447 -0.2864
  281MOL0     H37876   4.496   8.991   7.428 -1.1129  2.1892 -1.3704
  281MOL0     H37877   4.494   8.926   7.264 -4.6104  0.2908 -1.9338
  281MOL0     H37878   4.287   8.900   7.473  0.3708 -1.6500  0.7509
  281MOL0     H37879   4.281   9.008   7.324 -2.8749 -0.9338  1.3361
  281MOL0     H37880   4.292   8.820   7.175 -1.6516 -1.3535 -0.5444
  281MOL0     H37881   4.282   8.712   7.306 -3.5827 -1.3023 -0.3840
  281MOL0     H37882   4.065   8.833   7.382  1.2254  0.4413  0.5135
  281MOL0     H37883   4.062   8.903   7.224 -1.1666  0.7965  1.7130
  281MOL0     H37884   3.928   8.691   7.250 -0.6126  1.0051  1.2107
  281MOL0     H37885   4.082   8.603   7.278  3.5244  2.7142  0.0097
  281MOL0     H37886   3.837   8.704   7.024 -0.0724  1.7403  1.1900
  281MOL0     H37887   3.970   8.643   6.666  1.5550 -0.0099  1.6080
  281MOL0     H37888   3.816   8.639   6.767  1.2463  0.0667  4.6866
  281MOL0     H37889   3.974   8.884   6.678  0.4375 -0.0631 -0.5886
  281MOL0     H37890   3.830   8.879   6.786 -0.2283 -1.2968  0.0794
  281MOL0     H37891   3.799   8.778   6.500 -0.9270  0.0435 -0.6880
  281MOL0     H37892   3.791   8.952   6.549 -3.2962  0.8438  1.8743
  281MOL0     H37893   3.582   8.777   6.524  0.6190  1.0539 -0.4809
  281MOL0     H37894   3.586   8.923   6.633  0.1434 -0.5315  4.5003
  281MOL0     H37895   3.571   8.557   6.895 -0.0483  0.5299  0.0275
  281MOL0     H37896   3.358   8.285   6.934 -0.7874  0.7197  0.4575
  281MOL0     H37897   3.489   8.368   7.008  1.0335  1.7381 -0.2525
  281MOL0     H37898   3.321   8.408   7.051  2.6466 -2.5228  3.0386
  281MOL0     H37899   3.008   8.322   6.593  0.0848 -0.4762  0.2054
  281MOL0     H37900   2.818   8.172   6.526  1.3130  4.0663 -3.1610
  281MOL0     H37901   2.444   8.159   6.478 -0.3322  0.3694  1.0576
  281MOL0     H37902   2.618   8.183   6.429  0.2134 -1.0369 -0.1929
  281MOL0     H37903   2.581   7.959   6.376  1.3647  0.7381 -0.1246
  281MOL0     H37904   2.676   7.971   6.510  0.0788  1.2094  1.3508
  281MOL0     H37905   2.422   7.959   6.656 -4.3336  0.2168 -0.3387
  281MOL0     H37906   2.518   7.828   6.641  0.8983  1.6649  0.4225
  281MOL0     H37907   2.298   7.902   6.439 -0.7604  0.0047  2.7857
  281MOL0     H37908   2.431   7.792   6.402  3.2654  2.3945  1.3928
  281MOL0     H37909   2.265   7.766   6.650 -3.8792 -0.0575 -0.5004
  281MOL0     H37910   2.329   7.625   6.552  2.1386  0.7480  2.3827
  281MOL0     H37911   2.082   7.808   6.480  1.4308  0.9597 -0.5246
  281MOL0     H37912   2.146   7.672   6.386  0.3953 -0.6880  0.2827
  281MOL0     H37913   2.031   7.678   6.676 -5.5026  0.7006 -2.0807
  281MOL0     H37914   2.119   7.532   6.609  1.0054  1.7339  2.5016
  281MOL0     H37915   1.867   7.678   6.533 -0.4445 -0.0596 -1.1031
  281MOL0     H37916   1.877   7.513   6.614 -3.0707  1.4133 -0.7080
  281MOL0     H37917   2.578   8.335   6.832 -0.7655  1.9844 -0.4539
  281MOL0     H37918   2.776   8.469   6.917 -0.8919 -1.0089  1.0391
  281MOL0     H37919   3.145   8.649   6.669 -0.7473 -0.6277  0.8683
  281MOL0     H37920   3.358   8.787   6.612  0.4869  0.7570 -0.7138
  281MOL0     H37921   4.910   8.618   7.714 -0.8960  3.6264  0.0283
  281MOL0     H37922   5.132   8.553   7.826 -2.1998 -1.4431 -1.0549
  281MOL0     H37923   5.611   8.622   7.802 -0.7551  3.6425 -0.7970
  281MOL0     H37924   5.832   8.592   7.922  1.7033  0.0004  1.3133
  281MOL0     H37925   5.881   8.385   8.101  1.4100 -1.7230  0.8395
  281MOL0     H37926   6.004   8.491   8.034 -0.2603 -1.7755 -0.6516
  281MOL0     H37927   6.001   8.363   8.317  1.0732  1.4280  0.4256
  281MOL0     H37928   6.123   8.487   8.266  0.0669  0.1221 -0.9050
  281MOL0     H37929   6.203   8.356   8.089 -1.5963  2.1615 -0.7155
  281MOL0     H37930   6.094   8.223   8.120 -1.0434  0.1357 -0.4890
  281MOL0     H37931   6.289   8.327   8.325 -1.5864 -0.8132  2.4516
  281MOL0     H37932   6.325   8.195   8.205 -0.9348 -2.9515  0.1155
  281MOL0     H37933   6.085   7.973   8.457  0.6371  0.7488 -0.3462
  281MOL0     H37934   5.638   8.593   8.296 -0.1135  1.0353 -0.2731
  281MOL0     H37935   5.406   8.647   8.180 -2.5452 -1.3372 -3.0866
  282MOL0     O37936   5.827   3.846   1.490  0.4120  0.4710 -0.3343
  282MOL0     C37937   5.931   3.860   1.551 -0.3178  0.0548 -0.6173
  282MOL0     O37938   5.947   3.901   1.685 -0.6224  0.7348  0.0382
  282MOL0     C37939   5.832   3.944   1.759  0.0272  0.3602  0.1553
  282MOL0     C37940   5.831   4.062   1.823  0.7990  0.4241 -0.1617
  282MOL0     C37941   5.728   4.100   1.909  0.4268 -0.2482  0.3834
  282MOL0     C37942   5.620   4.014   1.938 -0.2836 -0.2695  0.1704
  282MOL0     O37943   5.519   4.049   2.030 -0.3335  0.1824 -0.0929
  282MOL0     C37944   5.425   3.958   2.074  0.1538  0.3136 -0.0577
  282MOL0     C37945   5.312   4.027   2.152  0.4526  0.1476 -0.4830
  282MOL0     C37946   5.205   4.103   2.065 -0.4103 -0.0974 -0.0106
  282MOL0     C37947   5.084   4.121   2.155 -0.1091 -0.2810 -0.0207
  282MOL0     C37948   4.973   4.180   2.071  0.7441 -0.1092  0.0438
  282MOL0     C37949   4.833   4.187   2.138 -1.0345 -0.0359  1.1452
  282MOL0     C37950   4.820   4.301   2.247  0.1448  1.0069 -0.1830
  282MOL0     C37951   4.668   4.311   2.294 -0.0610 -0.0041 -0.7645
  282MOL0     N37952   4.602   4.175   2.313  1.3455 -0.3302  0.0489
  282MOL0     C37953   4.512   4.112   2.228  0.2079  0.5263 -0.1227
  282MOL0     C37954   4.501   3.994   2.288  0.4604 -0.7119 -0.4257
  282MOL0     C37955   4.410   3.876   2.247  0.5313 -0.4437 -0.5893
  282MOL0     C37956   4.299   3.824   2.348  0.3053 -0.1636  0.5559
  282MOL0     C37957   4.208   3.939   2.406  0.3027  1.1882 -0.7370
  282MOL0     C37958   4.082   3.887   2.472 -0.4878 -0.5875 -0.0004
  282MOL0     O37959   3.985   3.841   2.376 -0.2075 -0.1394  0.2444
  282MOL0     C37960   3.859   3.828   2.434  0.7957  0.3280 -1.0750
  282MOL0     C37961   3.770   3.765   2.356  0.8018  0.3939 -1.0844
  282MOL0     C37962   3.641   3.732   2.403 -0.1903 -0.0966 -0.1082
  282MOL0     C37963   3.555   3.631   2.334 -0.9173 -0.0615  0.3987
  282MOL0     C37964   3.593   3.779   2.528 -0.6087  0.1338 -0.0583
  282MOL0     C37965   3.450   3.770   2.584  0.3788  0.1178  0.8540
  282MOL0     O37966   3.445   3.781   2.712  0.2682  0.3260 -0.3902
  282MOL0     C37967   3.324   3.796   2.774 -0.2143  0.5587 -0.3141
  282MOL0     C37968   3.300   3.733   2.893 -0.3483 -0.0016 -0.6106
  282MOL0     C37969   3.179   3.746   2.963 -0.6054 -0.3064 -1.0250
  282MOL0     C37970   3.077   3.833   2.923 -0.0030  0.1563  0.1243
  282MOL0     O37971   2.956   3.841   2.993 -0.2439  0.2206  0.0398
  282MOL0     C37972   2.839   3.867   2.913 -0.0681  0.3690 -0.4574
  282MOL0     C37973   2.712   3.837   2.998 -0.0901  0.5045 -0.1629
  282MOL0     C37974   2.597   3.879   2.910 -0.1289 -0.0224 -0.4966
  282MOL0     C37975   2.465   3.843   2.978  0.5187 -0.2794  0.0740
  282MOL0     C37976   2.344   3.906   2.903 -0.3867  0.2956 -0.5048
  282MOL0     C37977   2.209   3.834   2.941 -0.2508  0.9418  0.2421
  282MOL0     C37978   2.089   3.899   2.880  1.2582 -0.6499 -0.3451
  282MOL0     C37979   2.027   3.832   2.762 -1.4464 -0.4043 -0.4950
  282MOL0    Cl37980   1.863   3.887   2.735  0.3948  0.0062  0.2584
  282MOL0     C37981   3.108   3.904   2.807  0.2557  0.5355 -0.3036
  282MOL0     C37982   3.228   3.884   2.732  0.1367  0.1859 -0.4468
  282MOL0     O37983   3.353   3.730   2.514 -0.0056  0.0101  0.0032
  282MOL0     C37984   3.689   3.833   2.615  0.2028 -0.2719 -0.2407
  282MOL0     C37985   3.824   3.856   2.575 -0.0912 -0.4898  0.6204
  282MOL0     N37986   4.565   3.995   2.405 -0.0026  0.2773  0.1480
  282MOL0     N37987   4.620   4.111   2.429  0.3308 -0.0338  0.0660
  282MOL0     C37988   5.621   3.896   1.861 -0.0133 -0.1068 -0.0652
  282MOL0     C37989   5.725   3.865   1.773 -0.1797  0.2581 -0.1612
  282MOL0     C37990   6.051   3.827   1.472 -0.1725 -0.6278 -0.1929
  282MOL0     C37991   6.174   3.828   1.529  0.6293 -0.6173 -0.8511
  282MOL0     C37992   6.288   3.791   1.449 -0.1712 -0.0673 -0.0233
  282MOL0     C37993   6.275   3.763   1.319 -0.4470 -0.5189  0.3976
  282MOL0     O37994   6.367   3.707   1.232 -0.0713 -0.1500 -0.2606
  282MOL0     C37995   6.479   3.650   1.290  0.2293  0.1970 -0.2284
  282MOL0     C37996   6.565   3.565   1.192  1.5945 -0.4038  0.3927
  282MOL0     C37997   6.681   3.486   1.246 -0.5545 -0.9106 -0.2512
  282MOL0     C37998   6.749   3.418   1.132  0.4930 -0.1318  0.4011
  282MOL0     C37999   6.862   3.350   1.173  0.3745  0.8317  0.6351
  282MOL0     C38000   6.953   3.274   1.216  0.3982  0.5155  0.2603
  282MOL0     C38001   6.149   3.764   1.258  0.1436 -0.2965  0.9974
  282MOL0     C38002   6.037   3.798   1.331 -0.4884 -0.2557  0.3145
  282MOL0     H38003   5.919   4.126   1.816  2.9235 -2.4302 -1.8137
  282MOL0     H38004   5.741   4.195   1.960  2.5227 -0.0034 -0.5084
  282MOL0     H38005   5.380   3.906   1.989  0.5673 -2.2164  1.1629
  282MOL0     H38006   5.481   3.887   2.135  2.8860  0.9501 -1.6668
  282MOL0     H38007   5.262   3.952   2.215  0.5027 -0.1781 -0.8272
  282MOL0     H38008   5.360   4.100   2.218  0.2213  1.3792 -1.6308
  282MOL0     H38009   5.254   4.192   2.025  0.6143 -0.5563  0.2014
  282MOL0     H38010   5.169   4.050   1.977 -2.7512  2.0151 -0.4456
  282MOL0     H38011   5.052   4.022   2.190  0.9510 -1.0709 -1.1645
  282MOL0     H38012   5.106   4.194   2.233  1.8961  1.1078 -1.7692
  282MOL0     H38013   4.994   4.285   2.047  2.4370 -0.1093  1.3609
  282MOL0     H38014   4.954   4.118   1.983  0.1591  3.6999 -2.8097
  282MOL0     H38015   4.757   4.195   2.060  0.4779 -4.9469 -1.2459
  282MOL0     H38016   4.808   4.085   2.167  1.4365 -1.4166 -1.1397
  282MOL0     H38017   4.878   4.278   2.337  0.1279  1.9197  0.0719
  282MOL0     H38018   4.845   4.397   2.202  1.1434  0.5095 -0.7125
  282MOL0     H38019   4.605   4.384   2.241  1.2659  1.7337 -0.0403
  282MOL0     H38020   4.679   4.363   2.389  0.4592 -0.2495 -0.6878
  282MOL0     H38021   4.486   4.144   2.127 -0.6194  2.9558  0.7687
  282MOL0     H38022   4.368   3.905   2.150  2.3350  1.4295 -0.8807
  282MOL0     H38023   4.480   3.793   2.233 -0.2264 -0.9541 -1.4632
  282MOL0     H38024   4.343   3.769   2.431  1.3367 -4.4967 -2.4994
  282MOL0     H38025   4.233   3.748   2.305 -1.8999  1.4879  0.8362
  282MOL0     H38026   4.176   4.005   2.324 -0.1545  0.1940 -1.3698
  282MOL0     H38027   4.267   4.000   2.475 -3.1703  2.4683  1.3543
  282MOL0     H38028   4.052   3.965   2.544 -0.7151  0.4996 -1.2275
  282MOL0     H38029   4.108   3.803   2.537 -1.6576 -0.1795  1.0373
  282MOL0     H38030   3.788   3.735   2.253 -3.2606  1.2739 -2.2434
  282MOL0     H38031   3.545   3.549   2.406  0.1038  0.0905  0.7173
  282MOL0     H38032   3.456   3.665   2.302 -1.2963 -3.2397 -2.3675
  282MOL0     H38033   3.606   3.590   2.247  1.8292  1.0815  1.3763
  282MOL0     H38034   3.380   3.666   2.921 -1.5452 -2.6749 -3.0834
  282MOL0     H38035   3.161   3.693   3.056 -1.6663 -3.1867 -2.7550
  282MOL0     H38036   2.831   3.975   2.894 -1.6452  0.0391 -1.8664
  282MOL0     H38037   2.845   3.820   2.815  0.7727 -0.3282 -0.0889
  282MOL0     H38038   2.711   3.729   3.012 -2.1496  0.5617  0.4483
  282MOL0     H38039   2.711   3.890   3.093  1.3206  1.1600 -0.4905
  282MOL0     H38040   2.596   3.830   2.812 -4.8648 -0.8226 -0.2734
  282MOL0     H38041   2.611   3.986   2.894  3.5398 -0.0885  1.1489
  282MOL0     H38042   2.451   3.735   2.983  0.0952 -0.4190 -2.4439
  282MOL0     H38043   2.463   3.870   3.083 -1.8855 -3.6082  1.0487
  282MOL0     H38044   2.366   3.897   2.797  2.6068  1.0375 -0.0233
  282MOL0     H38045   2.339   4.012   2.928  0.1601 -0.2777  2.3967
  282MOL0     H38046   2.212   3.727   2.916 -4.0453  0.1014  2.6221
  282MOL0     H38047   2.194   3.840   3.049 -0.0947 -0.3595  0.3544
  282MOL0     H38048   2.114   4.002   2.854 -0.3389 -0.9005 -3.2749
  282MOL0     H38049   2.009   3.904   2.955  0.7965 -0.7001 -0.8225
  282MOL0     H38050   2.054   3.726   2.757 -0.0495 -0.0285 -1.5762
  282MOL0     H38051   2.085   3.869   2.677  1.3041  1.2408  1.8975
  282MOL0     H38052   3.034   3.977   2.776 -0.3810  0.2747  0.5678
  282MOL0     H38053   3.242   3.931   2.635  0.7454 -0.1343 -0.5169
  282MOL0     H38054   3.653   3.868   2.711 -1.1895  1.6558 -1.3956
  282MOL0     H38055   3.899   3.901   2.638  1.2308  1.6423 -2.2216
  282MOL0     H38056   5.537   3.830   1.879 -0.4349  0.5057  0.2838
  282MOL0     H38057   5.708   3.766   1.733 -1.4126  0.4905 -0.2524
  282MOL0     H38058   6.197   3.853   1.632  1.1184  2.0589 -1.5355
  282MOL0     H38059   6.385   3.787   1.498 -0.1542  0.3664 -0.0191
  282MOL0     H38060   6.547   3.725   1.332 -0.6422  0.9091 -0.0549
  282MOL0     H38061   6.442   3.586   1.371 -0.4295 -0.2166 -0.8352
  282MOL0     H38062   6.597   3.634   1.113 -0.3510  2.1042  1.6472
  282MOL0     H38063   6.495   3.494   1.148  0.1134 -0.1175  2.1842
  282MOL0     H38064   6.652   3.419   1.327 -1.0149  0.8563  1.1063
  282MOL0     H38065   6.750   3.563   1.281 -1.8266  1.0722 -1.8631
  282MOL0     H38066   6.777   3.491   1.056 -1.2232  0.8827  0.6897
  282MOL0     H38067   6.676   3.345   1.096 -0.0585  1.1174 -1.1149
  282MOL0     H38068   7.040   3.222   1.250 -0.6431  0.0081  2.3761
  282MOL0     H38069   6.150   3.746   1.151 -1.0880  0.6101  0.8126
  282MOL0     H38070   5.937   3.797   1.288  0.1631 -0.3554 -1.2545
  283MOL0     O38071   0.214   2.385   2.107 -0.3907 -0.1484  0.0631
  283MOL0     C38072   0.250   2.355   1.996 -0.1537 -1.0458  0.2110
  283MOL0     O38073   0.168   2.317   1.895  0.5692  0.1290 -0.1002
  283MOL0     C38074   0.031   2.301   1.902  0.4129 -0.2084  0.5781
  283MOL0     C38075  -0.044   2.419   1.900 -0.5541  0.2014 -0.8263
  283MOL0     C38076  -0.179   2.420   1.872  0.4733  0.6203  0.2272
  283MOL0     C38077  -0.244   2.298   1.842 -0.0001  0.3500  0.2417
  283MOL0     O38078  -0.372   2.290   1.818 -0.1881 -0.8608 -0.5058
  283MOL0     C38079  -0.448   2.407   1.822 -0.0633  0.4126  0.2045
  283MOL0     C38080  -0.583   2.374   1.753 -1.0066  0.1367  0.2545
  283MOL0     C38081  -0.673   2.266   1.811 -0.2064 -0.5125 -0.9745
  283MOL0     C38082  -0.811   2.274   1.745  0.6759 -0.4153  1.1214
  283MOL0     C38083  -0.911   2.186   1.816 -0.3922 -0.0725 -0.1077
  283MOL0     C38084  -1.041   2.196   1.738  0.4791 -0.2027 -0.3633
  283MOL0     C38085  -1.166   2.151   1.819  0.2149 -0.3150  1.0952
  283MOL0     C38086  -1.305   2.196   1.765  0.1289  0.2360  1.0809
  283MOL0     N38087  -1.347   2.335   1.751  0.1465 -0.8803  0.2611
  283MOL0     C38088  -1.313   2.416   1.646  0.1958  0.6502 -0.3014
  283MOL0     C38089  -1.367   2.534   1.679  0.1126  0.2500  0.3797
  283MOL0     C38090  -1.348   2.656   1.607  0.5069  0.0823  0.4317
  283MOL0     C38091  -1.406   2.783   1.675 -0.1133 -0.2007  0.6253
  283MOL0     C38092  -1.563   2.795   1.657  0.2574  0.1765  0.0136
  283MOL0     C38093  -1.598   2.815   1.511  0.3872  0.4027  0.1258
  283MOL0     O38094  -1.743   2.822   1.499  0.3745  0.1351 -0.1045
  283MOL0     C38095  -1.791   2.891   1.388 -0.8155 -0.0634  0.1831
  283MOL0     C38096  -1.881   2.825   1.308 -0.1289  0.1971 -0.7921
  283MOL0     C38097  -1.939   2.891   1.204  0.2043  0.5006 -0.2946
  283MOL0     C38098  -2.053   2.812   1.143 -0.2618 -0.1008 -0.2234
  283MOL0     C38099  -1.914   3.031   1.175  0.1454  0.3716 -0.4490
  283MOL0     C38100  -1.986   3.112   1.078 -1.0000  0.3437 -0.1053
  283MOL0     O38101  -1.914   3.212   1.014  0.2721 -0.1086 -0.3591
  283MOL0     C38102  -1.977   3.295   0.920  1.0032  0.0813 -0.8469
  283MOL0     C38103  -1.975   3.261   0.786 -0.3543 -0.6717  0.7771
  283MOL0     C38104  -2.029   3.351   0.693  0.0006 -0.3124 -0.0172
  283MOL0     C38105  -2.096   3.471   0.738 -0.6645  0.0784  0.0748
  283MOL0     O38106  -2.154   3.556   0.648  0.6437  0.4487  0.6122
  283MOL0     C38107  -2.280   3.614   0.672  1.4484  0.2022  0.0866
  283MOL0     C38108  -2.323   3.681   0.541  0.2993 -0.2290  0.1088
  283MOL0     C38109  -2.446   3.755   0.562  0.5153  0.2079 -0.5014
  283MOL0     C38110  -2.484   3.845   0.438  0.2824  0.0643  0.0213
  283MOL0     C38111  -2.579   3.766   0.347  1.0345 -0.3886  0.3391
  283MOL0     C38112  -2.644   3.858   0.240  0.3413 -0.4878 -0.0511
  283MOL0     C38113  -2.703   3.774   0.132 -0.4600 -0.7245 -1.0168
  283MOL0     C38114  -2.852   3.807   0.105 -0.2721  1.3781 -1.0671
  283MOL0    Cl38115  -2.862   3.986   0.045  0.5125 -0.1093  0.4090
  283MOL0     C38116  -2.100   3.501   0.873 -0.0000  0.1209  0.2025
  283MOL0     C38117  -2.030   3.417   0.970  1.0208  0.6974  0.5846
  283MOL0     O38118  -2.102   3.096   1.064 -0.1474 -0.5014  0.6001
  283MOL0     C38119  -1.821   3.090   1.260 -0.8416 -0.0458 -0.2207
  283MOL0     C38120  -1.761   3.024   1.371 -0.0760  0.3200  0.7128
  283MOL0     N38121  -1.440   2.518   1.791  0.4944  0.0346 -0.4265
  283MOL0     N38122  -1.441   2.395   1.826 -0.1959  0.9228  0.0998
  283MOL0     C38123  -0.172   2.185   1.838 -0.6815  0.0483 -0.4026
  283MOL0     C38124  -0.034   2.180   1.874  0.1260  0.0223  0.4124
  283MOL0     C38125   0.397   2.360   1.965  0.0364 -0.5833 -0.8092
  283MOL0     C38126   0.490   2.353   2.067 -0.3492 -0.2014 -0.1481
  283MOL0     C38127   0.629   2.360   2.052 -0.4678 -0.8833 -0.2625
  283MOL0     C38128   0.678   2.349   1.925  0.5292  0.6840  0.0202
  283MOL0     O38129   0.810   2.335   1.882  0.4562 -0.5776 -0.0674
  283MOL0     C38130   0.921   2.337   1.975  0.6795  0.3530 -0.2400
  283MOL0     C38131   1.009   2.470   1.957  0.7012  0.7991 -0.3781
  283MOL0     C38132   1.106   2.482   2.081 -1.0935 -0.5631 -0.4264
  283MOL0     C38133   1.225   2.566   2.047  0.6108  0.0857  0.1221
  283MOL0     C38134   1.338   2.560   2.150  0.9013 -0.7667  0.2044
  283MOL0     C38135   1.419   2.557   2.236 -0.5247 -0.4311 -0.0778
  283MOL0     C38136   0.580   2.347   1.818  0.2024  0.5641  0.5655
  283MOL0     C38137   0.446   2.361   1.837  0.5123  0.7793 -0.5637
  283MOL0     H38138   0.015   2.508   1.918 -1.0529  0.2430  0.7084
  283MOL0     H38139  -0.227   2.516   1.887 -1.1557 -0.1508  0.2195
  283MOL0     H38140  -0.464   2.447   1.923  0.8012 -1.5526  1.1826
  283MOL0     H38141  -0.402   2.487   1.764 -2.4619  0.8195 -1.2590
  283MOL0     H38142  -0.647   2.463   1.748 -2.5994 -1.0263 -2.5398
  283MOL0     H38143  -0.552   2.339   1.654  1.7497  0.8410  0.7729
  283MOL0     H38144  -0.632   2.165   1.808  1.3316 -0.0413  1.4785
  283MOL0     H38145  -0.681   2.282   1.919 -1.1508 -1.5249 -0.8826
  283MOL0     H38146  -0.839   2.379   1.740  0.2424 -0.5664 -3.0255
  283MOL0     H38147  -0.806   2.248   1.639  0.3751 -0.5512  1.1395
  283MOL0     H38148  -0.875   2.083   1.822 -1.2236 -0.4938 -1.7987
  283MOL0     H38149  -0.918   2.224   1.919  0.4226 -2.4134  0.8902
  283MOL0     H38150  -1.064   2.301   1.718 -2.9066 -0.8158 -0.2759
  283MOL0     H38151  -1.025   2.146   1.642  2.9188  0.7519 -0.5208
  283MOL0     H38152  -1.162   2.042   1.827  1.8016 -0.4713 -0.9377
  283MOL0     H38153  -1.160   2.185   1.923  0.4453 -0.6939  1.2048
  283MOL0     H38154  -1.378   2.144   1.826 -2.4370 -0.2173 -2.0915
  283MOL0     H38155  -1.312   2.145   1.669  0.5237  1.2029  0.5184
  283MOL0     H38156  -1.246   2.386   1.567  0.5913 -5.9677  1.9536
  283MOL0     H38157  -1.239   2.671   1.605  0.3894  0.8587 -0.4174
  283MOL0     H38158  -1.385   2.646   1.505 -3.3651  1.4773  1.5136
  283MOL0     H38159  -1.355   2.868   1.628  1.2561  0.3186  2.9169
  283MOL0     H38160  -1.388   2.780   1.783 -0.0645 -0.2563  0.6151
  283MOL0     H38161  -1.608   2.877   1.714 -2.7236 -0.0004 -1.8704
  283MOL0     H38162  -1.611   2.709   1.705 -2.1613  3.0574  3.2485
  283MOL0     H38163  -1.565   2.731   1.448  1.3622  0.1810  0.9211
  283MOL0     H38164  -1.558   2.906   1.466  0.6066  1.0149  1.5273
  283MOL0     H38165  -1.902   2.727   1.351  0.8907  0.8106  1.2427
  283MOL0     H38166  -2.013   2.715   1.110  0.7642 -0.5631  2.1423
  283MOL0     H38167  -2.133   2.791   1.215  0.8924 -1.3728  0.7483
  283MOL0     H38168  -2.081   2.855   1.047  1.8968 -0.2939 -0.9870
  283MOL0     H38169  -1.915   3.176   0.757  1.7863  0.9578  0.1369
  283MOL0     H38170  -2.030   3.338   0.585 -0.3737 -1.7794  0.1335
  283MOL0     H38171  -2.360   3.546   0.702  1.0969  1.0899  1.2129
  283MOL0     H38172  -2.290   3.691   0.749 -1.7417 -0.3301  0.3349
  283MOL0     H38173  -2.241   3.751   0.524  1.0475  0.1366  4.1893
  283MOL0     H38174  -2.335   3.607   0.462  0.2432  0.5132 -0.5931
  283MOL0     H38175  -2.424   3.825   0.643  0.5848  0.4497 -0.7295
  283MOL0     H38176  -2.528   3.688   0.591 -0.0693  1.7584  1.7476
  283MOL0     H38177  -2.545   3.932   0.465  2.3785  1.2631  1.1312
  283MOL0     H38178  -2.399   3.877   0.377  1.1304 -1.9212  0.0982
  283MOL0     H38179  -2.668   3.725   0.397 -1.6340  0.8700 -2.9855
  283MOL0     H38180  -2.521   3.692   0.291  2.1732 -0.4749  1.6009
  283MOL0     H38181  -2.723   3.918   0.286  0.2774  1.0424 -2.0456
  283MOL0     H38182  -2.565   3.919   0.197  1.0410  2.0406  4.2816
  283MOL0     H38183  -2.693   3.667   0.155  2.9658 -0.3817 -0.3092
  283MOL0     H38184  -2.644   3.791   0.041  0.4411 -0.0647 -0.3381
  283MOL0     H38185  -2.904   3.795   0.201  2.1477 -0.4038  0.1366
  283MOL0     H38186  -2.890   3.740   0.027  2.0695  0.4313 -1.4762
  283MOL0     H38187  -2.171   3.570   0.918  0.2887 -1.7031  3.8649
  283MOL0     H38188  -2.030   3.436   1.076 -0.5573  0.8941  0.5636
  283MOL0     H38189  -1.787   3.193   1.260  0.2225 -0.3381 -2.1586
  283MOL0     H38190  -1.684   3.069   1.433  1.9006 -1.4851 -0.3085
  283MOL0     H38191  -0.216   2.090   1.810  1.5175 -0.6817 -1.6712
  283MOL0     H38192   0.023   2.089   1.865  0.1813  0.2068 -1.8855
  283MOL0     H38193   0.458   2.358   2.170 -0.5087 -2.5998 -0.0235
  283MOL0     H38194   0.690   2.377   2.140 -2.6423  1.3984  0.9365
  283MOL0     H38195   0.866   2.326   2.069  0.4266  0.3005 -0.3925
  283MOL0     H38196   0.983   2.247   1.967  3.2577  1.9801  0.2242
  283MOL0     H38197   0.942   2.556   1.949  1.6246  1.5535 -0.1910
  283MOL0     H38198   1.060   2.463   1.861 -0.7700 -0.5477 -1.1024
  283MOL0     H38199   1.136   2.379   2.100  1.3593  0.5279  2.4527
  283MOL0     H38200   1.048   2.519   2.166  1.2101  0.4210  0.8043
  283MOL0     H38201   1.189   2.669   2.037  0.0437  0.1828  2.4243
  283MOL0     H38202   1.257   2.530   1.949 -3.5276  2.5086 -2.4043
  283MOL0     H38203   1.487   2.541   2.318 -0.8324 -0.6807  0.1293
  283MOL0     H38204   0.613   2.346   1.715 -2.2388  2.4667 -0.3232
  283MOL0     H38205   0.373   2.383   1.759 -0.4112 -0.5592 -0.1080
  284MOL0     O38206   0.244   6.941   2.042  0.1163 -0.0024 -0.1440
  284MOL0     C38207   0.263   6.911   2.157 -0.4065 -0.0551 -0.7560
  284MOL0     O38208   0.173   6.849   2.232 -0.3324  1.0377  0.4926
  284MOL0     C38209   0.051   6.809   2.173 -0.2263 -0.4135  0.7605
  284MOL0     C38210   0.033   6.681   2.129  0.0490  0.4426  0.4435
  284MOL0     C38211  -0.098   6.629   2.092 -1.1258  0.5464 -0.7492
  284MOL0     C38212  -0.205   6.720   2.101 -0.5452  0.4594  0.5393
  284MOL0     O38213  -0.332   6.680   2.079  0.1219 -0.6040 -0.4036
  284MOL0     C38214  -0.374   6.544   2.068 -0.1297  1.0066 -0.3249
  284MOL0     C38215  -0.531   6.540   2.055  1.0271  0.4350 -0.2818
  284MOL0     C38216  -0.603   6.407   2.026 -0.3033  0.1200 -0.5647
  284MOL0     C38217  -0.754   6.434   2.023 -0.2497  0.0407  0.4171
  284MOL0     C38218  -0.837   6.301   1.990 -0.0820  0.0181 -0.3986
  284MOL0     C38219  -0.979   6.324   1.952  0.5803  0.1498 -0.3357
  284MOL0     C38220  -1.025   6.195   1.883  0.3447  0.2515  0.2848
  284MOL0     C38221  -1.167   6.212   1.844  0.7557 -0.7376 -0.4151
  284MOL0     N38222  -1.264   6.231   1.959 -0.0639 -0.3184 -1.0852
  284MOL0     C38223  -1.335   6.352   1.977  0.0810 -0.5358 -0.1671
  284MOL0     C38224  -1.378   6.340   2.110 -0.6484 -0.4722  0.3596
  284MOL0     C38225  -1.439   6.430   2.208 -0.2720 -0.2967 -0.1420
  284MOL0     C38226  -1.588   6.404   2.207  0.6148  0.0492 -0.4283
  284MOL0     C38227  -1.666   6.507   2.295 -0.7392  0.5928  0.5982
  284MOL0     C38228  -1.810   6.459   2.321  0.5651  0.4059  0.3172
  284MOL0     O38229  -1.884   6.459   2.194 -0.7417 -0.4328  0.6025
  284MOL0     C38230  -2.012   6.415   2.196  1.3706 -0.0570 -0.1233
  284MOL0     C38231  -2.078   6.416   2.081 -0.4304  0.7232 -0.6526
  284MOL0     C38232  -2.215   6.384   2.064 -0.9650  1.1923  0.3866
  284MOL0     C38233  -2.261   6.390   1.914 -0.7602 -0.4523 -0.9247
  284MOL0     C38234  -2.290   6.349   2.177 -0.3871 -0.9007 -0.8621
  284MOL0     C38235  -2.435   6.312   2.177 -0.0716  0.3825  0.2639
  284MOL0     O38236  -2.499   6.330   2.282  0.0990  0.4514  0.5841
  284MOL0     C38237  -2.634   6.316   2.308 -0.1199  0.4530  1.0496
  284MOL0     C38238  -2.719   6.228   2.234  0.0695  0.4731 -0.7115
  284MOL0     C38239  -2.854   6.236   2.260 -0.7163  0.0006 -0.1178
  284MOL0     C38240  -2.907   6.326   2.354 -0.0292  0.6628 -0.6548
  284MOL0     O38241  -3.046   6.321   2.359  0.3008 -0.1439  0.4675
  284MOL0     C38242  -3.111   6.380   2.477 -0.1189  0.0655  0.1687
  284MOL0     C38243  -3.265   6.354   2.465  0.4893  0.2065  1.1667
  284MOL0     C38244  -3.339   6.472   2.523  0.0511  0.2897 -0.2176
  284MOL0     C38245  -3.491   6.475   2.488 -0.2473  0.5012 -0.0356
  284MOL0     C38246  -3.553   6.615   2.505  0.9993  0.4819  0.0946
  284MOL0     C38247  -3.706   6.613   2.471  0.6081 -0.5104  0.9471
  284MOL0     C38248  -3.755   6.756   2.512  0.4418 -0.0875 -0.1303
  284MOL0     C38249  -3.903   6.784   2.474 -0.0551 -0.2684  0.4889
  284MOL0    Cl38250  -3.921   6.827   2.297  0.0851  0.2596 -0.0533
  284MOL0     C38251  -2.813   6.393   2.436  0.2298  0.0484 -0.9151
  284MOL0     C38252  -2.680   6.393   2.412  0.3008 -0.5110  0.0284
  284MOL0     O38253  -2.478   6.263   2.080  0.8302  0.0159  0.0866
  284MOL0     C38254  -2.225   6.356   2.303 -0.3213 -0.8490  0.4917
  284MOL0     C38255  -2.084   6.383   2.307 -0.1926 -0.1731  0.5972
  284MOL0     N38256  -1.354   6.212   2.146 -0.3408 -0.0711 -0.7300
  284MOL0     N38257  -1.289   6.143   2.060  0.5209 -0.2887 -0.2477
  284MOL0     C38258  -0.185   6.855   2.139  0.8327  0.3676  0.1492
  284MOL0     C38259  -0.057   6.900   2.187 -0.6547 -0.3173  1.1341
  284MOL0     C38260   0.399   6.919   2.212 -0.7440 -0.8908 -1.1109
  284MOL0     C38261   0.437   6.835   2.317  0.3310 -0.4948  0.0646
  284MOL0     C38262   0.568   6.834   2.373 -1.0198 -0.0890 -0.0159
  284MOL0     C38263   0.662   6.907   2.300  0.7830  0.5605  0.2567
  284MOL0     O38264   0.784   6.926   2.351 -0.1641  0.5963 -0.4648
  284MOL0     C38265   0.831   6.840   2.463  0.4350 -0.3825  0.5461
  284MOL0     C38266   0.985   6.831   2.463 -1.2775  0.5011  0.3819
  284MOL0     C38267   1.042   6.959   2.510 -0.1088  0.2109  0.6049
  284MOL0     C38268   1.191   6.954   2.500 -0.2922  0.6744 -0.4522
  284MOL0     C38269   1.234   6.979   2.363 -0.5652  0.1958  0.3237
  284MOL0     C38270   1.289   7.002   2.258  0.4187 -0.9817 -0.2859
  284MOL0     C38271   0.628   6.982   2.187 -0.3144 -0.5273 -0.5116
  284MOL0     C38272   0.497   6.995   2.151  0.3425 -0.6968 -0.7228
  284MOL0     H38273   0.122   6.620   2.116 -0.6538 -0.5769  0.2898
  284MOL0     H38274  -0.103   6.522   2.079  1.5746  0.5850 -2.8711
  284MOL0     H38275  -0.334   6.492   1.981 -0.0783 -2.3165  1.5227
  284MOL0     H38276  -0.349   6.479   2.152 -1.7044 -1.2263 -1.4989
  284MOL0     H38277  -0.578   6.570   2.149 -2.2920 -3.2102 -0.5266
  284MOL0     H38278  -0.566   6.621   1.990 -0.8849  0.6593  0.9391
  284MOL0     H38279  -0.560   6.358   1.938  0.2888 -0.5222  0.0683
  284MOL0     H38280  -0.588   6.328   2.100 -0.9344 -1.7717 -2.3434
  284MOL0     H38281  -0.787   6.482   2.115 -0.7645  1.5465 -0.5192
  284MOL0     H38282  -0.777   6.498   1.938  1.1246 -0.4152 -0.3275
  284MOL0     H38283  -0.783   6.254   1.906 -3.3866 -1.5894 -1.8063
  284MOL0     H38284  -0.839   6.231   2.074 -2.1344  1.6018  0.9566
  284MOL0     H38285  -1.041   6.347   2.040  0.0513 -2.1674 -0.0104
  284MOL0     H38286  -0.995   6.406   1.882  1.1023 -0.9883 -1.8405
  284MOL0     H38287  -0.974   6.173   1.789  0.0303  1.4157 -0.1731
  284MOL0     H38288  -1.019   6.113   1.955 -1.3255  2.1292  2.7235
  284MOL0     H38289  -1.209   6.121   1.800 -0.8217 -0.2063 -0.0784
  284MOL0     H38290  -1.191   6.290   1.773 -3.7234 -2.8680 -1.5763
  284MOL0     H38291  -1.329   6.442   1.917  0.2305 -0.6027 -0.2520
  284MOL0     H38292  -1.398   6.412   2.307  1.5722  1.7457 -0.4741
  284MOL0     H38293  -1.430   6.534   2.175  0.5840 -0.1551  0.5098
  284MOL0     H38294  -1.595   6.300   2.238  0.3398  0.1068 -0.2987
  284MOL0     H38295  -1.625   6.425   2.106  0.8080  0.8237 -0.3502
  284MOL0     H38296  -1.674   6.600   2.238  0.1521 -0.3209 -1.0904
  284MOL0     H38297  -1.620   6.526   2.393  0.0545 -0.4127  0.4461
  284MOL0     H38298  -1.856   6.535   2.386  0.2249  0.6686 -0.2251
  284MOL0     H38299  -1.807   6.361   2.370 -0.2973 -0.2388 -0.8767
  284MOL0     H38300  -2.022   6.454   1.996 -0.1252 -1.4863 -1.4885
  284MOL0     H38301  -2.323   6.479   1.897  1.4168  1.3260 -0.0672
  284MOL0     H38302  -2.174   6.397   1.849  1.7504 -0.6060  2.1535
  284MOL0     H38303  -2.320   6.305   1.880 -1.9851 -0.4597  1.0398
  284MOL0     H38304  -2.694   6.153   2.160  0.7546  0.7084 -0.7244
  284MOL0     H38305  -2.920   6.169   2.206  1.1601 -0.6050 -1.8038
  284MOL0     H38306  -3.072   6.327   2.565  1.9079 -0.3529 -0.9012
  284MOL0     H38307  -3.090   6.486   2.490  1.6103 -0.2867  0.5907
  284MOL0     H38308  -3.293   6.335   2.360 -2.6912 -4.2968  2.5032
  284MOL0     H38309  -3.299   6.271   2.527 -2.7969  1.0866  0.7194
  284MOL0     H38310  -3.291   6.566   2.498  1.4256  0.2436  1.9977
  284MOL0     H38311  -3.322   6.476   2.631  0.6795 -3.2905 -0.0461
  284MOL0     H38312  -3.504   6.445   2.384  1.5923 -1.4602  0.2213
  284MOL0     H38313  -3.545   6.402   2.549  0.9640  1.0987  1.8372
  284MOL0     H38314  -3.519   6.677   2.422 -3.3938  2.2891 -0.6339
  284MOL0     H38315  -3.529   6.660   2.602 -2.7590 -0.0262  1.4112
  284MOL0     H38316  -3.717   6.588   2.365  2.4996 -1.9202  1.0274
  284MOL0     H38317  -3.765   6.540   2.528  0.1111 -1.4376 -0.6759
  284MOL0     H38318  -3.679   6.821   2.469  0.9911 -1.5073 -1.4327
  284MOL0     H38319  -3.749   6.762   2.621  0.1019  0.8844 -0.1586
  284MOL0     H38320  -3.932   6.870   2.536  0.3564  0.1520  0.1018
  284MOL0     H38321  -3.971   6.704   2.507  0.7533 -1.1022  0.1794
  284MOL0     H38322  -2.849   6.454   2.519 -3.0815 -0.3226 -1.9190
  284MOL0     H38323  -2.621   6.467   2.466 -1.4305  1.9928 -1.3002
  284MOL0     H38324  -2.288   6.346   2.391  0.2395  2.1211  1.3370
  284MOL0     H38325  -2.033   6.392   2.402  1.7078 -1.8653 -0.1971
  284MOL0     H38326  -0.276   6.915   2.135 -0.6378 -1.6490  1.5830
  284MOL0     H38327  -0.048   7.001   2.226 -1.3858  1.1065 -2.0553
  284MOL0     H38328   0.371   6.763   2.364  0.3996 -0.5978  0.0022
  284MOL0     H38329   0.592   6.767   2.455  0.8085 -1.6440 -1.6954
  284MOL0     H38330   0.791   6.881   2.556 -1.2126  1.2654 -0.7971
  284MOL0     H38331   0.795   6.738   2.452 -1.5934  0.1004  2.1306
  284MOL0     H38332   1.022   6.787   2.371 -1.5233 -1.8658  1.3262
  284MOL0     H38333   1.014   6.755   2.537  0.9301  0.0112 -0.9109
  284MOL0     H38334   1.027   6.970   2.618 -0.7201 -0.6857  0.6255
  284MOL0     H38335   1.010   7.051   2.460  1.8745  0.2046 -0.7667
  284MOL0     H38336   1.233   6.860   2.539 -2.3170  0.0815  0.4217
  284MOL0     H38337   1.233   7.034   2.562  1.2095 -0.0093 -0.5317
  284MOL0     H38338   1.355   7.006   2.174 -1.5266  0.7924 -1.8470
  284MOL0     H38339   0.700   7.045   2.135  0.3885 -0.3888  0.5853
  284MOL0     H38340   0.466   7.057   2.068  1.1541 -0.4742 -0.8719
  285MOL0     O38341   8.771   5.518   8.686 -0.3797  0.0605 -0.1228
  285MOL0     C38342   8.774   5.614   8.603  0.5446 -0.7520 -0.5422
  285MOL0     O38343   8.665   5.690   8.565  0.3397  0.0579 -0.2384
  285MOL0     C38344   8.544   5.678   8.632 -0.2651  0.5400  0.0386
  285MOL0     C38345   8.524   5.716   8.763 -0.7392  0.0357 -0.5380
  285MOL0     C38346   8.411   5.691   8.839 -0.5649  0.2638  0.2272
  285MOL0     C38347   8.306   5.620   8.786 -1.0226  0.5456 -1.0579
  285MOL0     O38348   8.188   5.598   8.864  0.0812 -0.0375  0.1082
  285MOL0     C38349   8.068   5.573   8.803  1.0752  0.8747 -0.1621
  285MOL0     C38350   7.966   5.545   8.914 -0.3837 -1.0619  0.0468
  285MOL0     C38351   7.824   5.514   8.857 -0.2977 -0.7196 -0.5889
  285MOL0     C38352   7.720   5.517   8.969 -0.1718  0.4976 -0.5015
  285MOL0     C38353   7.584   5.460   8.926 -0.4590 -0.6151 -0.0894
  285MOL0     C38354   7.509   5.544   8.820 -0.9762  0.5569 -0.2037
  285MOL0     C38355   7.360   5.493   8.791  0.2185 -0.1776 -0.1293
  285MOL0     C38356   7.325   5.534   8.642 -0.3997 -0.3602  0.1598
  285MOL0     N38357   7.190   5.487   8.611 -0.1883 -0.2720 -0.3815
  285MOL0     C38358   7.167   5.367   8.555 -0.1234 -0.6551 -0.2718
  285MOL0     C38359   7.031   5.376   8.527  0.1832 -0.3592  0.5715
  285MOL0     C38360   6.961   5.272   8.458  0.5945  0.6415 -0.2889
  285MOL0     C38361   6.852   5.216   8.544 -0.0392 -0.6815  0.3980
  285MOL0     C38362   6.770   5.112   8.469 -0.5918 -0.1905 -0.2612
  285MOL0     C38363   6.676   5.050   8.569 -0.4995  0.6924 -0.2076
  285MOL0     O38364   6.576   5.133   8.608 -0.5139  0.1111  0.3917
  285MOL0     C38365   6.445   5.103   8.595 -0.2803 -0.7241 -0.0631
  285MOL0     C38366   6.388   4.980   8.615 -0.7665  0.0462 -0.0363
  285MOL0     C38367   6.260   4.949   8.599 -0.4549  0.2551  0.1949
  285MOL0     C38368   6.220   4.801   8.621 -0.1216 -0.0882  0.5416
  285MOL0     C38369   6.169   5.054   8.559  0.7305  0.1268 -0.5152
  285MOL0     C38370   6.024   5.022   8.535 -0.2093 -0.2551 -0.5330
  285MOL0     O38371   5.953   5.106   8.452  0.9036 -0.0043  0.1043
  285MOL0     C38372   5.818   5.094   8.412 -0.8299 -0.5745  0.4194
  285MOL0     C38373   5.715   5.025   8.477  0.0484 -0.1980 -0.2838
  285MOL0     C38374   5.583   5.031   8.444 -0.2723  0.3227  0.3455
  285MOL0     C38375   5.544   5.100   8.332  0.2693 -0.6145  0.8859
  285MOL0     O38376   5.409   5.119   8.317  0.0006 -0.3370 -0.1147
  285MOL0     C38377   5.366   5.247   8.264  0.7279 -0.0745 -0.7736
  285MOL0     C38378   5.223   5.266   8.256  0.5712  0.5476 -0.2403
  285MOL0     C38379   5.147   5.273   8.393  0.2156 -0.1122  0.4979
  285MOL0     C38380   4.998   5.318   8.381  0.0007 -0.1193 -0.6116
  285MOL0     C38381   4.918   5.305   8.506  0.5822  0.5269 -1.4185
  285MOL0     C38382   4.758   5.324   8.471 -0.3240 -0.6763  0.2487
  285MOL0     C38383   4.735   5.464   8.402 -0.2306  0.4416 -0.1348
  285MOL0     C38384   4.581   5.495   8.402 -0.3680  0.4088 -0.4253
  285MOL0    Cl38385   4.501   5.375   8.293  0.3137 -0.1587 -0.0095
  285MOL0     C38386   5.640   5.180   8.265  0.0978  0.5287 -0.0625
  285MOL0     C38387   5.776   5.179   8.303 -0.1275  0.4776 -0.1991
  285MOL0     O38388   5.980   4.924   8.593  0.2250  0.0332 -0.2893
  285MOL0     C38389   6.218   5.179   8.541 -0.5819 -0.3619 -0.0818
  285MOL0     C38390   6.350   5.208   8.564  0.0584  0.1353 -0.4357
  285MOL0     N38391   6.976   5.497   8.572  0.3988 -0.9128 -0.1731
  285MOL0     N38392   7.075   5.567   8.618 -0.4091 -0.0145 -0.4117
  285MOL0     C38393   8.315   5.579   8.656 -0.0394 -1.3791  0.3690
  285MOL0     C38394   8.436   5.602   8.585  0.0726  0.4192  0.2549
  285MOL0     C38395   8.898   5.653   8.549  0.8382  0.6307  0.1599
  285MOL0     C38396   9.009   5.566   8.550  0.0351 -0.3326 -0.4270
  285MOL0     C38397   9.123   5.600   8.475  0.4536  0.1209 -0.2388
  285MOL0     C38398   9.127   5.707   8.387 -0.3590 -0.6770 -0.0748
  285MOL0     O38399   9.236   5.703   8.301 -0.4255 -0.2736 -0.3306
  285MOL0     C38400   9.267   5.814   8.209  0.0984  0.7642  0.3603
  285MOL0     C38401   9.197   5.809   8.075 -0.0636 -0.4552 -0.3679
  285MOL0     C38402   9.219   5.679   8.006  0.4952 -0.1670 -0.5886
  285MOL0     C38403   9.134   5.676   7.879  0.6564 -0.8660 -0.0987
  285MOL0     C38404   8.983   5.706   7.888  0.6604  0.3117 -1.0591
  285MOL0     C38405   8.863   5.713   7.901  0.0513 -0.9816  0.9143
  285MOL0     C38406   9.021   5.803   8.391 -0.0359  0.1992  0.3617
  285MOL0     C38407   8.900   5.772   8.467 -0.7045 -0.2707  0.5170
  285MOL0     H38408   8.602   5.772   8.814 -0.9823 -1.7723  1.9908
  285MOL0     H38409   8.410   5.715   8.944 -0.9950  1.5176 -0.0463
  285MOL0     H38410   8.038   5.657   8.739 -2.0072  0.5025  0.6252
  285MOL0     H38411   8.080   5.485   8.740 -0.7949 -1.5582  2.5818
  285MOL0     H38412   8.004   5.462   8.974  2.3379  0.1347  0.1378
  285MOL0     H38413   7.948   5.637   8.970 -1.3288 -0.5272 -1.0890
  285MOL0     H38414   7.805   5.591   8.782 -2.2513 -0.7886 -0.2414
  285MOL0     H38415   7.816   5.422   8.799 -2.5056 -4.4502  4.7656
  285MOL0     H38416   7.757   5.463   9.057 -0.0818 -0.6085 -1.1984
  285MOL0     H38417   7.717   5.622   8.999  0.8996  0.9723 -1.9524
  285MOL0     H38418   7.612   5.362   8.886 -0.8574 -0.4622 -0.7686
  285MOL0     H38419   7.517   5.458   9.012  2.0271 -0.8039  1.9338
  285MOL0     H38420   7.507   5.649   8.849 -0.9202  0.2544  0.9090
  285MOL0     H38421   7.569   5.542   8.728  2.7729 -0.6689  2.0560
  285MOL0     H38422   7.342   5.386   8.808 -2.4331  0.5048  1.8215
  285MOL0     H38423   7.286   5.541   8.855  0.2625  1.0572 -0.9702
  285MOL0     H38424   7.401   5.499   8.571 -0.1206  0.0655  0.2431
  285MOL0     H38425   7.327   5.643   8.629  0.1634 -0.2429  1.1041
  285MOL0     H38426   7.234   5.284   8.535  0.4122  0.3006 -2.6653
  285MOL0     H38427   6.934   5.314   8.362 -2.9732  0.7674  0.6387
  285MOL0     H38428   7.024   5.185   8.434 -0.4236  0.6858 -3.5421
  285MOL0     H38429   6.779   5.294   8.570 -1.3768 -1.5049 -0.7294
  285MOL0     H38430   6.897   5.170   8.632  0.2407 -2.1993 -0.5141
  285MOL0     H38431   6.836   5.041   8.418 -0.7102 -0.7577  0.3694
  285MOL0     H38432   6.717   5.155   8.383  2.7552  0.7553 -2.0487
  285MOL0     H38433   6.722   5.011   8.661 -0.2803 -0.1094 -0.6442
  285MOL0     H38434   6.647   4.961   8.513 -0.4985  0.7367 -0.2784
  285MOL0     H38435   6.456   4.903   8.649 -0.5733 -0.5929 -1.7705
  285MOL0     H38436   6.302   4.733   8.648  0.8363 -0.3238 -2.6019
  285MOL0     H38437   6.155   4.796   8.709  0.8047 -2.4436  1.1635
  285MOL0     H38438   6.176   4.756   8.532  3.0640 -0.3912 -1.0259
  285MOL0     H38439   5.736   4.973   8.570 -2.0625  0.7344  0.7942
  285MOL0     H38440   5.514   4.962   8.490  0.7811 -0.9476  0.0755
  285MOL0     H38441   5.393   5.333   8.325 -1.6595 -0.1418  0.5425
  285MOL0     H38442   5.407   5.249   8.163 -1.8692 -2.7594 -2.0643
  285MOL0     H38443   5.190   5.361   8.213 -1.9286 -0.2087 -0.1965
  285MOL0     H38444   5.178   5.182   8.201 -0.5340 -0.0555  1.5015
  285MOL0     H38445   5.193   5.343   8.464 -2.4211 -1.8427  4.2307
  285MOL0     H38446   5.163   5.173   8.434  0.2908  0.4596  1.9294
  285MOL0     H38447   5.006   5.425   8.359  0.0018  0.4878  1.9749
  285MOL0     H38448   4.950   5.271   8.295  2.3840 -1.6071 -1.2384
  285MOL0     H38449   4.949   5.377   8.582  2.1141 -2.7355  1.2896
  285MOL0     H38450   4.924   5.206   8.552  0.4282  2.3043  2.7776
  285MOL0     H38451   4.728   5.253   8.393  1.6335  0.6945 -1.8682
  285MOL0     H38452   4.689   5.319   8.556 -0.1229 -1.1359  0.3868
  285MOL0     H38453   4.777   5.450   8.302 -1.0611  1.5646 -0.6689
  285MOL0     H38454   4.796   5.535   8.458  0.9328 -0.6440  0.0133
  285MOL0     H38455   4.561   5.596   8.365  2.4057  0.7692 -1.1938
  285MOL0     H38456   4.545   5.493   8.505  2.9589 -0.7004  0.8325
  285MOL0     H38457   5.623   5.239   8.176 -1.0993 -1.2075 -1.0291
  285MOL0     H38458   5.842   5.244   8.247 -1.3273  1.8723 -0.0265
  285MOL0     H38459   6.161   5.267   8.514  0.2086  0.3303  0.4729
  285MOL0     H38460   6.389   5.309   8.549  0.6301  0.0724  0.5363
  285MOL0     H38461   8.232   5.524   8.614 -1.0763 -0.7988  1.6210
  285MOL0     H38462   8.468   5.563   8.489 -0.5350 -0.6546  0.4722
  285MOL0     H38463   9.016   5.474   8.607  5.9927  0.8130  1.4031
  285MOL0     H38464   9.208   5.533   8.475 -0.7720 -1.5318  1.0373
  285MOL0     H38465   9.259   5.909   8.262 -1.3650 -0.5127  2.6028
  285MOL0     H38466   9.375   5.805   8.199  0.0601  2.2098 -2.1257
  285MOL0     H38467   9.239   5.887   8.011  2.2240 -0.9182  0.4881
  285MOL0     H38468   9.092   5.833   8.094  0.0739  0.9081 -1.2339
  285MOL0     H38469   9.187   5.599   8.073 -1.3451  1.9249  1.2090
  285MOL0     H38470   9.323   5.658   7.981  0.1736 -1.8245 -0.6182
  285MOL0     H38471   9.132   5.578   7.832 -4.0302 -1.6460  1.2606
  285MOL0     H38472   9.175   5.750   7.810 -2.1443 -0.6918 -1.7235
  285MOL0     H38473   8.757   5.721   7.908 -0.2889 -0.0702 -2.9566
  285MOL0     H38474   9.025   5.889   8.325  0.2656  0.0710  0.2099
  285MOL0     H38475   8.824   5.849   8.473 -0.1048  0.7036 -2.4802
  286MOL0     O38476   7.952   4.977   4.641  0.2494  0.6351 -0.4782
  286MOL0     C38477   8.069   5.008   4.634  0.2501  0.1704  0.4047
  286MOL0     O38478   8.118   5.132   4.600 -0.9042  0.4840  0.6744
  286MOL0     C38479   8.029   5.231   4.629  0.8408  0.4985  0.8900
  286MOL0     C38480   7.924   5.248   4.538  1.1414  0.4220 -0.2169
  286MOL0     C38481   7.828   5.348   4.569  0.5577  0.1169 -0.6888
  286MOL0     C38482   7.843   5.435   4.681  0.1949  0.3068  0.5196
  286MOL0     O38483   7.772   5.543   4.720  0.2161 -0.3798  0.1371
  286MOL0     C38484   7.631   5.534   4.712 -0.1411  0.3894 -0.0930
  286MOL0     C38485   7.566   5.512   4.845  0.5629  0.7465 -1.1435
  286MOL0     C38486   7.408   5.543   4.842 -0.1741 -0.4377 -0.3143
  286MOL0     C38487   7.357   5.525   4.986  0.6190 -0.0388  0.4953
  286MOL0     C38488   7.203   5.546   4.982  0.4555 -0.1408 -0.2893
  286MOL0     C38489   7.154   5.661   4.895 -0.0728 -0.1305  0.6983
  286MOL0     C38490   7.002   5.685   4.908  1.3424  0.1615  0.1014
  286MOL0     C38491   6.961   5.829   4.874 -0.6016  0.2394  0.0861
  286MOL0     N38492   6.818   5.841   4.865 -0.4980 -0.5620  0.6873
  286MOL0     C38493   6.721   5.761   4.926  0.3676  0.7732 -0.3206
  286MOL0     C38494   6.603   5.830   4.917 -0.2679  0.7991 -0.3782
  286MOL0     C38495   6.471   5.792   4.963 -0.2807 -0.1864 -0.4465
  286MOL0     C38496   6.346   5.889   4.926  0.2916  0.3969 -0.0224
  286MOL0     C38497   6.215   5.857   5.004  0.7314 -0.4299 -0.5399
  286MOL0     C38498   6.075   5.855   4.939 -0.6393  0.0547  0.2399
  286MOL0     O38499   5.989   5.967   4.990  0.0744  0.6654 -0.0141
  286MOL0     C38500   5.860   5.978   4.939  0.1513  0.0128 -0.3885
  286MOL0     C38501   5.802   5.888   4.848  0.0207  0.1080 -0.2594
  286MOL0     C38502   5.670   5.908   4.801 -0.0933  0.9981  0.1493
  286MOL0     C38503   5.630   5.797   4.723  0.5586  0.2421 -0.4702
  286MOL0     C38504   5.594   6.009   4.847  0.3353 -0.6217 -0.5855
  286MOL0     C38505   5.450   6.030   4.808  0.6738  0.3902 -0.4936
  286MOL0     O38506   5.378   6.097   4.899  0.0507 -0.2771 -0.6399
  286MOL0     C38507   5.253   6.134   4.860  0.1414  0.1943  0.3872
  286MOL0     C38508   5.140   6.059   4.901 -0.4109  0.5121  0.7059
  286MOL0     C38509   5.012   6.107   4.868 -0.0765 -0.7514  0.0877
  286MOL0     C38510   4.996   6.232   4.805 -0.2114 -0.1082  0.5535
  286MOL0     O38511   4.868   6.279   4.792 -0.8995  0.0164  0.2126
  286MOL0     C38512   4.805   6.228   4.674  1.5302 -1.0273  0.1005
  286MOL0     C38513   4.662   6.295   4.669  0.0039  0.3551 -0.8289
  286MOL0     C38514   4.598   6.285   4.535  0.6972 -0.3500 -0.0541
  286MOL0     C38515   4.449   6.311   4.540 -0.2303 -0.1234 -0.6255
  286MOL0     C38516   4.385   6.347   4.403 -0.1003  0.0217 -0.3609
  286MOL0     C38517   4.242   6.371   4.435  0.4160  0.8420 -0.4149
  286MOL0     C38518   4.171   6.444   4.323  0.8712  0.0035 -0.8898
  286MOL0     C38519   4.027   6.467   4.347  0.4308  0.0592 -0.1046
  286MOL0    Cl38520   3.971   6.564   4.216 -0.1618 -0.2523 -0.0144
  286MOL0     C38521   5.109   6.301   4.759  0.1094 -0.0024  0.1070
  286MOL0     C38522   5.244   6.254   4.785  0.5523  0.1669  0.3535
  286MOL0     O38523   5.406   5.989   4.701 -0.1523 -1.1380 -0.4802
  286MOL0     C38524   5.647   6.095   4.944 -0.8577  0.2982 -0.8957
  286MOL0     C38525   5.780   6.078   4.990  0.2105  0.5112 -0.1922
  286MOL0     N38526   6.631   5.954   4.855  0.5175  0.3158  0.7139
  286MOL0     N38527   6.758   5.959   4.833 -0.0833  0.0205  1.0146
  286MOL0     C38528   7.951   5.410   4.765  0.1903 -0.6429 -0.6456
  286MOL0     C38529   8.036   5.305   4.746  0.4589 -0.6333  0.4334
  286MOL0     C38530   8.173   4.905   4.673  0.5382 -0.2019  1.1225
  286MOL0     C38531   8.312   4.928   4.669 -1.0384 -0.2854 -1.0372
  286MOL0     C38532   8.401   4.834   4.723  0.1022 -0.0498  0.1578
  286MOL0     C38533   8.353   4.709   4.751  0.2953  0.4052  0.0096
  286MOL0     O38534   8.446   4.623   4.792  0.4460  0.5763 -0.6213
  286MOL0     C38535   8.408   4.495   4.840  0.5618  0.0274 -0.4032
  286MOL0     C38536   8.528   4.424   4.914  0.6430  0.1510  0.8866
  286MOL0     C38537   8.478   4.290   4.963 -0.6833 -0.8015  0.5125
  286MOL0     C38538   8.582   4.225   5.059  0.8254  0.0150 -0.3671
  286MOL0     C38539   8.520   4.098   5.110 -0.1381 -0.7006 -0.1155
  286MOL0     C38540   8.472   3.990   5.140 -0.2373 -0.4676 -0.3044
  286MOL0     C38541   8.218   4.680   4.740 -0.9452 -0.0273  0.7931
  286MOL0     C38542   8.126   4.777   4.704 -0.2248  0.3795  0.1832
  286MOL0     H38543   7.919   5.188   4.448  1.4255 -1.3295  0.9054
  286MOL0     H38544   7.746   5.355   4.499 -0.7090 -1.0108  0.6344
  286MOL0     H38545   7.596   5.629   4.672 -1.6443  0.0728  0.3961
  286MOL0     H38546   7.594   5.454   4.647 -0.6166  2.1019 -2.0109
  286MOL0     H38547   7.577   5.407   4.873 -0.2750  1.2633  1.4475
  286MOL0     H38548   7.614   5.580   4.917  0.1328  0.7550 -0.8629
  286MOL0     H38549   7.403   5.645   4.803  0.0032  0.3181  1.5161
  286MOL0     H38550   7.342   5.486   4.776  0.7083 -1.8930  0.0178
  286MOL0     H38551   7.362   5.420   5.017 -0.0198  0.1592  1.3084
  286MOL0     H38552   7.409   5.599   5.047  0.9546 -0.9539  1.3481
  286MOL0     H38553   7.156   5.455   4.942  1.1855  0.5594 -2.9730
  286MOL0     H38554   7.180   5.560   5.088  0.5331 -0.9646 -0.1575
  286MOL0     H38555   7.203   5.743   4.948 -1.7052  1.2135  0.2445
  286MOL0     H38556   7.183   5.657   4.789 -0.6361 -0.8284  0.5587
  286MOL0     H38557   6.955   5.618   4.835  2.6252  1.6221 -2.1885
  286MOL0     H38558   6.971   5.660   5.010 -2.2437 -0.1381 -0.9288
  286MOL0     H38559   7.003   5.857   4.778  1.9270  0.4614  1.1830
  286MOL0     H38560   6.996   5.901   4.948 -2.8417 -0.0457  1.5325
  286MOL0     H38561   6.739   5.675   4.990  2.0085  2.5569  1.8249
  286MOL0     H38562   6.451   5.693   4.922  2.4260 -1.5459  1.2579
  286MOL0     H38563   6.471   5.786   5.072 -0.5400  0.0121 -0.4358
  286MOL0     H38564   6.319   5.882   4.820  1.4910 -2.2136 -0.2177
  286MOL0     H38565   6.366   5.997   4.931 -3.5675  1.2991 -1.0172
  286MOL0     H38566   6.203   5.907   5.101 -1.8507 -1.3950 -0.2978
  286MOL0     H38567   6.237   5.753   5.030  2.3552 -0.6387 -2.5184
  286MOL0     H38568   6.017   5.766   4.964 -1.9185  0.9097  0.4350
  286MOL0     H38569   6.081   5.864   4.831  0.0199  1.6771  0.3851
  286MOL0     H38570   5.856   5.797   4.827 -0.8705 -1.0903  2.2531
  286MOL0     H38571   5.705   5.718   4.714  0.6684  0.2148  0.5490
  286MOL0     H38572   5.538   5.747   4.754 -0.5588  1.1998 -2.0737
  286MOL0     H38573   5.599   5.836   4.626  0.2581  2.6174  0.5245
  286MOL0     H38574   5.152   5.958   4.936 -1.7767 -0.7770 -2.2029
  286MOL0     H38575   4.924   6.046   4.883 -0.9822 -0.1495 -2.2955
  286MOL0     H38576   4.858   6.253   4.582 -0.2811  3.2063 -0.0292
  286MOL0     H38577   4.799   6.119   4.674  0.4950 -0.9743 -0.1440
  286MOL0     H38578   4.604   6.232   4.736  1.7792 -1.2982 -0.7475
  286MOL0     H38579   4.669   6.399   4.703 -0.9234  0.3069 -0.4652
  286MOL0     H38580   4.626   6.192   4.486  1.3854  0.6299 -1.6022
  286MOL0     H38581   4.638   6.363   4.470 -0.5932  0.1716 -0.2332
  286MOL0     H38582   4.401   6.218   4.573  0.8878 -0.6027 -0.3203
  286MOL0     H38583   4.429   6.406   4.590 -1.1708  1.4205 -3.7064
  286MOL0     H38584   4.396   6.266   4.330  0.0675  0.4169 -0.7815
  286MOL0     H38585   4.433   6.443   4.379  0.5217  0.1905  1.3946
  286MOL0     H38586   4.194   6.273   4.441  1.7089  0.1899 -0.3501
  286MOL0     H38587   4.228   6.421   4.531 -0.5024 -0.3457  0.0823
  286MOL0     H38588   4.185   6.395   4.226 -0.4286  0.3489 -1.2776
  286MOL0     H38589   4.223   6.539   4.312  0.3795  0.4635  0.6033
  286MOL0     H38590   4.008   6.510   4.446  0.3789 -1.2959  0.5017
  286MOL0     H38591   3.969   6.375   4.332  0.9091 -0.1276 -0.8428
  286MOL0     H38592   5.101   6.393   4.703  3.3866  0.8978  0.9297
  286MOL0     H38593   5.330   6.315   4.761 -1.9301  3.7957 -0.1115
  286MOL0     H38594   5.586   6.176   4.983 -1.0555 -0.2775  0.0401
  286MOL0     H38595   5.807   6.145   5.071  0.3462 -1.4950  1.5047
  286MOL0     H38596   7.971   5.478   4.847 -0.3066 -0.3230 -0.7889
  286MOL0     H38597   8.123   5.289   4.808  1.1384 -3.0994 -1.0211
  286MOL0     H38598   8.357   5.015   4.623  2.3907 -0.4954  1.5693
  286MOL0     H38599   8.508   4.857   4.721  0.1042 -0.0233  0.6395
  286MOL0     H38600   8.329   4.510   4.914  1.2292 -3.0954  1.1236
  286MOL0     H38601   8.361   4.438   4.759  1.3579 -2.3746  0.7373
  286MOL0     H38602   8.552   4.490   4.999 -0.2363  1.6137  0.0555
  286MOL0     H38603   8.613   4.414   4.846  0.5932 -0.0747  0.8593
  286MOL0     H38604   8.465   4.222   4.879 -3.1401  1.6851 -1.2986
  286MOL0     H38605   8.377   4.304   5.003 -0.2936 -0.2816  1.3601
  286MOL0     H38606   8.615   4.285   5.144  0.6726  0.4564 -0.6161
  286MOL0     H38607   8.669   4.196   4.999  0.3135 -0.7539 -0.7459
  286MOL0     H38608   8.418   3.909   5.185 -2.6669  0.5484 -1.2137
  286MOL0     H38609   8.181   4.583   4.771  1.7414 -1.1717  0.6498
  286MOL0     H38610   8.023   4.744   4.692 -0.5495  0.4672  2.3436
  287MOL0     O38611   8.278   2.792   4.849 -0.8371 -0.3375 -0.0012
  287MOL0     C38612   8.305   2.679   4.895 -0.2197  0.3211 -0.2245
  287MOL0     O38613   8.216   2.587   4.943 -0.6254 -0.3527  0.2888
  287MOL0     C38614   8.081   2.618   4.934 -0.0671 -0.4062  0.2428
  287MOL0     C38615   8.024   2.647   4.801  0.7861 -0.7639  0.2765
  287MOL0     C38616   7.893   2.693   4.783 -0.5455 -0.2670  0.2727
  287MOL0     C38617   7.810   2.686   4.891  0.5115  0.0711  0.1962
  287MOL0     O38618   7.681   2.736   4.893 -0.4454  0.2392  0.9944
  287MOL0     C38619   7.637   2.835   4.797 -0.3759  0.5273 -0.1499
  287MOL0     C38620   7.518   2.919   4.843  0.8910 -0.7093  0.0733
  287MOL0     C38621   7.386   2.838   4.827  0.4385 -0.4940 -0.3572
  287MOL0     C38622   7.261   2.915   4.859 -0.6919  1.1122  0.0276
  287MOL0     C38623   7.139   2.838   4.812  0.8054  0.5881  0.5821
  287MOL0     C38624   7.009   2.910   4.848 -0.8284  0.2520  0.3967
  287MOL0     C38625   6.976   3.031   4.767  0.4025 -0.8372  0.2831
  287MOL0     C38626   6.847   3.107   4.821  0.2777  0.1666 -0.6463
  287MOL0     N38627   6.819   3.231   4.746 -0.0560 -0.3683  0.2585
  287MOL0     C38628   6.702   3.266   4.674  0.1483  0.8939 -0.6427
  287MOL0     C38629   6.698   3.405   4.677  0.2279 -0.3586 -0.3629
  287MOL0     C38630   6.591   3.498   4.620  0.3437 -0.2091 -0.9524
  287MOL0     C38631   6.461   3.506   4.717  0.5707  0.9078 -0.6152
  287MOL0     C38632   6.488   3.558   4.855  0.2785 -0.5570  0.1119
  287MOL0     C38633   6.367   3.595   4.937 -0.4148  0.2460 -0.2509
  287MOL0     O38634   6.282   3.475   4.954 -0.1677 -0.3864  0.0209
  287MOL0     C38635   6.152   3.501   4.999 -0.7032  0.0703  0.1388
  287MOL0     C38636   6.093   3.625   5.040 -0.0896  0.4442  0.1283
  287MOL0     C38637   5.962   3.642   5.090  0.4415 -0.4237  0.7129
  287MOL0     C38638   5.934   3.782   5.128 -0.2274  0.0464 -0.0921
  287MOL0     C38639   5.886   3.532   5.113 -0.5199  0.2412 -0.5335
  287MOL0     C38640   5.751   3.539   5.165 -0.1935 -0.0356 -0.5620
  287MOL0     O38641   5.715   3.637   5.257 -0.3917 -0.2017  0.4847
  287MOL0     C38642   5.585   3.630   5.302  0.4718 -0.7066  0.2535
  287MOL0     C38643   5.491   3.723   5.244  0.5599 -0.2625 -0.7657
  287MOL0     C38644   5.356   3.719   5.289 -0.1857 -0.6857  0.9407
  287MOL0     C38645   5.319   3.648   5.401  0.0159 -0.1150  0.2023
  287MOL0     O38646   5.190   3.664   5.450  0.0569  0.5957  0.0939
  287MOL0     C38647   5.171   3.653   5.596  0.0888 -0.5199 -0.9306
  287MOL0     C38648   5.042   3.723   5.628 -0.5933 -1.0305 -0.6750
  287MOL0     C38649   5.060   3.880   5.624 -0.0511 -0.1411 -0.0432
  287MOL0     C38650   4.937   3.960   5.669 -0.4462 -0.1077 -0.8533
  287MOL0     C38651   4.966   4.097   5.732  0.0948 -0.2470  0.0411
  287MOL0     C38652   4.829   4.159   5.758 -0.3813 -0.0598 -0.2545
  287MOL0     C38653   4.848   4.286   5.845 -0.0480 -0.1482 -0.6493
  287MOL0     C38654   4.723   4.344   5.903 -0.5059 -0.4981  0.6740
  287MOL0    Cl38655   4.634   4.409   5.756 -0.6773 -0.0034  0.3877
  287MOL0     C38656   5.420   3.561   5.453  0.4406  0.4088 -0.3064
  287MOL0     C38657   5.548   3.547   5.403  0.5903  0.5144  0.6207
  287MOL0     O38658   5.679   3.456   5.117  1.8072  0.2540  0.5906
  287MOL0     C38659   5.935   3.409   5.080  0.9733  0.9195 -0.0564
  287MOL0     C38660   6.063   3.393   5.024 -0.0895 -0.1737  1.2160
  287MOL0     N38661   6.815   3.441   4.742 -0.9866  0.2239  0.6662
  287MOL0     N38662   6.886   3.342   4.786  0.3422 -0.2509  0.8351
  287MOL0     C38663   7.854   2.654   5.017 -0.7653 -0.2083 -0.3470
  287MOL0     C38664   7.989   2.618   5.041 -0.6694 -0.2244 -0.0341
  287MOL0     C38665   8.448   2.627   4.887 -0.0435 -0.1743  1.1840
  287MOL0     C38666   8.491   2.499   4.926 -0.3887  0.1300  0.1285
  287MOL0     C38667   8.628   2.461   4.939 -0.5571  0.0651 -0.0973
  287MOL0     C38668   8.732   2.552   4.896 -0.3563 -0.6436  0.0341
  287MOL0     O38669   8.868   2.531   4.920 -0.0049  0.0719  0.4808
  287MOL0     C38670   8.917   2.403   4.952  0.7330 -0.0103  0.7605
  287MOL0     C38671   9.054   2.411   5.012 -0.0919 -0.4173 -0.7666
  287MOL0     C38672   9.146   2.512   4.945 -0.4637 -0.1203  0.2910
  287MOL0     C38673   9.281   2.521   5.004 -0.3738  0.7335  0.0795
  287MOL0     C38674   9.351   2.394   5.007  0.9543  0.6302 -0.8285
  287MOL0     C38675   9.426   2.297   5.011 -0.2025 -0.6925 -0.5362
  287MOL0     C38676   8.689   2.677   4.849 -0.7470  0.4567  0.2149
  287MOL0     C38677   8.556   2.715   4.854  0.3560  0.0401  0.5307
  287MOL0     H38678   8.083   2.645   4.710  1.0308 -1.0390  0.4401
  287MOL0     H38679   7.870   2.739   4.688  1.7530  2.1580  0.7719
  287MOL0     H38680   7.729   2.892   4.781 -0.6244  0.3387 -2.4677
  287MOL0     H38681   7.608   2.796   4.699 -0.9044  0.7704 -0.0952
  287MOL0     H38682   7.513   2.953   4.947 -4.1028 -1.7923  0.4556
  287MOL0     H38683   7.523   3.009   4.780 -0.0482 -0.7070 -0.0163
  287MOL0     H38684   7.377   2.789   4.729  0.8144  1.3325 -1.3553
  287MOL0     H38685   7.391   2.763   4.906 -1.4776  2.1586  2.4776
  287MOL0     H38686   7.251   2.916   4.968  1.7111 -2.2787  0.4281
  287MOL0     H38687   7.281   3.014   4.816  1.2222  1.1046  0.7868
  287MOL0     H38688   7.140   2.824   4.703 -1.0244  0.7507  0.5043
  287MOL0     H38689   7.134   2.734   4.846 -1.8620  0.4340 -0.0190
  287MOL0     H38690   6.926   2.839   4.855  0.1137 -0.8535  0.7957
  287MOL0     H38691   7.022   2.944   4.951 -2.0439 -1.2102  1.0742
  287MOL0     H38692   7.060   3.100   4.756 -0.4861  0.2054 -0.1109
  287MOL0     H38693   6.949   2.997   4.667 -0.4998 -2.1370  0.9301
  287MOL0     H38694   6.873   3.145   4.920  2.2941  1.5107 -1.6325
  287MOL0     H38695   6.760   3.041   4.830 -3.3028  4.6983  4.4378
  287MOL0     H38696   6.634   3.201   4.621 -0.3442 -1.2460  2.3613
  287MOL0     H38697   6.640   3.595   4.613  1.1448 -0.5836 -0.6609
  287MOL0     H38698   6.557   3.477   4.518 -0.4845 -0.3610 -0.6474
  287MOL0     H38699   6.407   3.411   4.718  1.4992  0.3779 -0.2603
  287MOL0     H38700   6.388   3.570   4.666 -2.8331 -3.4731 -1.9208
  287MOL0     H38701   6.540   3.652   4.834 -0.5242 -0.0963  0.1581
  287MOL0     H38702   6.554   3.499   4.919  1.3249  1.5859  1.1093
  287MOL0     H38703   6.307   3.662   4.875 -0.2203 -1.5434 -2.4966
  287MOL0     H38704   6.401   3.641   5.030  0.6500  0.9850 -0.9683
  287MOL0     H38705   6.154   3.714   5.037  0.5215  0.2109  2.7828
  287MOL0     H38706   5.855   3.815   5.060 -1.1946 -0.2902  0.8397
  287MOL0     H38707   5.907   3.791   5.234  0.0568  1.4636 -0.1195
  287MOL0     H38708   6.020   3.848   5.112 -0.2384 -0.3951 -2.1679
  287MOL0     H38709   5.523   3.802   5.177  2.0249  0.0945  0.3225
  287MOL0     H38710   5.296   3.797   5.244  1.1583 -0.7686 -1.1118
  287MOL0     H38711   5.162   3.550   5.633  0.6690  0.2529  1.5863
  287MOL0     H38712   5.252   3.706   5.647 -0.4297  0.5515 -1.1887
  287MOL0     H38713   4.965   3.703   5.553  0.0302  1.4980 -2.0733
  287MOL0     H38714   5.006   3.695   5.727 -0.0092  3.5016  1.0573
  287MOL0     H38715   5.090   3.912   5.524  0.7432 -0.8676 -0.0437
  287MOL0     H38716   5.141   3.892   5.696 -0.0457 -2.3471  0.3734
  287MOL0     H38717   4.861   3.970   5.590 -0.3229  1.3752 -0.8105
  287MOL0     H38718   4.877   3.903   5.740  2.9910  0.1198  2.5316
  287MOL0     H38719   5.034   4.157   5.670 -0.4368 -2.5281 -3.0087
  287MOL0     H38720   5.021   4.070   5.823  0.2330 -1.0557 -0.2731
  287MOL0     H38721   4.782   4.184   5.663 -0.2834 -3.2160 -1.2352
  287MOL0     H38722   4.765   4.094   5.818  0.9212  0.5362  1.9277
  287MOL0     H38723   4.908   4.356   5.786  0.6726 -1.0798 -1.0616
  287MOL0     H38724   4.916   4.257   5.926 -1.9889 -0.5488  0.9029
  287MOL0     H38725   4.751   4.430   5.965  2.0058  0.6852 -1.8719
  287MOL0     H38726   4.675   4.270   5.968  1.5717 -0.9365  1.8174
  287MOL0     H38727   5.399   3.493   5.535 -1.3892  0.1127 -0.9897
  287MOL0     H38728   5.618   3.470   5.436 -2.9680 -4.2633 -1.6966
  287MOL0     H38729   5.872   3.323   5.097 -0.4145  1.7409 -0.8836
  287MOL0     H38730   6.100   3.294   4.999 -0.4451 -0.3543  1.3992
  287MOL0     H38731   7.792   2.641   5.105  1.8285 -1.1199  1.4779
  287MOL0     H38732   8.036   2.589   5.134  2.2521 -3.3704 -2.2713
  287MOL0     H38733   8.421   2.422   4.957 -1.2429  0.5268 -0.7322
  287MOL0     H38734   8.636   2.358   4.971  1.1682 -1.0913 -3.6573
  287MOL0     H38735   8.854   2.370   5.035 -1.1601 -2.2877 -1.4262
  287MOL0     H38736   8.916   2.338   4.864  0.6678  0.1241  0.6618
  287MOL0     H38737   9.105   2.315   4.999  0.5069 -0.6052  2.3349
  287MOL0     H38738   9.041   2.422   5.120 -0.4806 -3.2741 -0.4588
  287MOL0     H38739   9.107   2.614   4.953 -0.1056 -0.0041  0.5744
  287MOL0     H38740   9.143   2.492   4.837 -0.3514  3.7523 -0.6061
  287MOL0     H38741   9.271   2.556   5.107 -1.2582  0.6145  0.0481
  287MOL0     H38742   9.335   2.598   4.949 -1.9311  0.9255 -1.2844
  287MOL0     H38743   9.497   2.218   5.023 -0.8758 -0.9976  1.8463
  287MOL0     H38744   8.769   2.736   4.805 -0.5880  0.4034  0.4284
  287MOL0     H38745   8.550   2.816   4.816  1.7265 -0.8364 -2.2538
  288MOL0     O38746   1.872   2.846  10.347  0.2710  0.6578 -0.0692
  288MOL0     C38747   1.816   2.928  10.285  0.3441 -0.2522  0.6082
  288MOL0     O38748   1.683   2.941  10.263  0.2327 -0.2651  0.2434
  288MOL0     C38749   1.598   2.830  10.276 -0.6036 -0.4099 -0.4909
  288MOL0     C38750   1.606   2.698  10.231 -0.4984 -0.0117 -0.4286
  288MOL0     C38751   1.501   2.602  10.254  0.1396 -0.5713 -0.4648
  288MOL0     C38752   1.380   2.643  10.329  0.2059 -0.3671  0.6000
  288MOL0     O38753   1.273   2.552  10.340 -0.2729 -0.1563 -0.5539
  288MOL0     C38754   1.135   2.607  10.345  0.1411  0.2597  0.0492
  288MOL0     C38755   1.043   2.492  10.299 -0.3467  0.3379 -0.3583
  288MOL0     C38756   0.891   2.526  10.328 -0.4350 -0.0269  0.6605
  288MOL0     C38757   0.786   2.426  10.287 -0.4233  0.2704 -0.2435
  288MOL0     C38758   0.647   2.497  10.248 -0.0497  0.5710  0.4726
  288MOL0     C38759   0.591   2.572  10.365  0.9889  0.2278 -0.6079
  288MOL0     C38760   0.456   2.638  10.337  0.4023 -0.1644 -0.1723
  288MOL0     C38761   0.358   2.549  10.263  0.0675  0.3872  0.9251
  288MOL0     N38762   0.219   2.600  10.266  0.0415 -0.0698 -1.5164
  288MOL0     C38763   0.182   2.732  10.282  0.5886 -0.5000  0.7769
  288MOL0     C38764   0.047   2.726  10.302  0.2139  0.0683 -0.0450
  288MOL0     C38765  -0.051   2.838  10.322 -0.2052 -0.0564 -0.3249
  288MOL0     C38766  -0.155   2.859  10.206  0.0862 -0.2753  1.0302
  288MOL0     C38767  -0.214   3.003  10.239 -0.0015 -0.9409  0.4012
  288MOL0     C38768  -0.305   3.049  10.127  0.6266 -0.0320  0.2288
  288MOL0     O38769  -0.236   3.062  10.004  0.8124 -0.2771  0.1706
  288MOL0     C38770  -0.275   3.158   9.906 -0.2179 -0.7617  0.2159
  288MOL0     C38771  -0.403   3.219   9.903 -0.9048 -0.6796  0.6312
  288MOL0     C38772  -0.447   3.291   9.794  0.8345 -0.8114  0.2620
  288MOL0     C38773  -0.588   3.337   9.805 -0.4993 -0.4358 -0.4432
  288MOL0     C38774  -0.354   3.328   9.686  0.2081 -0.0989  0.2473
  288MOL0     C38775  -0.403   3.404   9.568  0.1167  0.0274 -0.4046
  288MOL0     O38776  -0.460   3.527   9.595 -0.0845 -0.1465  0.4443
  288MOL0     C38777  -0.479   3.627   9.497 -0.0426  0.4019 -0.2684
  288MOL0     C38778  -0.408   3.632   9.377  0.4399 -0.2075 -0.6716
  288MOL0     C38779  -0.460   3.722   9.280  0.0240  0.0337 -0.0142
  288MOL0     C38780  -0.557   3.817   9.306 -1.5096 -0.3738 -0.2584
  288MOL0     O38781  -0.572   3.925   9.226 -0.0405  0.6536  0.4679
  288MOL0     C38782  -0.605   3.900   9.086  0.3107  0.5702  0.3604
  288MOL0     C38783  -0.594   4.032   9.019 -1.0145 -0.3574 -0.2521
  288MOL0     C38784  -0.654   4.040   8.867  0.2927 -0.2848 -0.8321
  288MOL0     C38785  -0.802   4.024   8.872  0.1603 -0.5850 -0.5251
  288MOL0     C38786  -0.860   4.039   8.731  0.8305 -0.4613 -0.2370
  288MOL0     C38787  -1.013   4.044   8.726 -0.0712  0.0313  0.2362
  288MOL0     C38788  -1.036   4.066   8.571 -0.1881  0.2377  0.0428
  288MOL0     C38789  -1.014   4.204   8.529 -0.4063 -0.0780 -0.4309
  288MOL0    Cl38790  -1.089   4.236   8.364  0.4749  0.0676 -0.1727
  288MOL0     C38791  -0.609   3.821   9.436 -0.8535  0.1977  0.0534
  288MOL0     C38792  -0.578   3.718   9.524 -0.0493 -1.0314 -0.3046
  288MOL0     O38793  -0.389   3.346   9.460 -0.6391  0.3665 -0.3149
  288MOL0     C38794  -0.227   3.274   9.698  0.1850 -0.8575 -0.5918
  288MOL0     C38795  -0.189   3.192   9.802  0.1736  0.2231 -0.0390
  288MOL0     N38796   0.008   2.597  10.291 -0.0288  0.3242 -0.2954
  288MOL0     N38797   0.112   2.521  10.289  0.4967 -0.4085  0.0191
  288MOL0     C38798   1.377   2.774  10.365  0.5428 -0.9232 -0.6597
  288MOL0     C38799   1.479   2.864  10.339  0.0604  0.5574  0.1536
  288MOL0     C38800   1.898   3.038  10.223  0.8067  0.7624 -0.2319
  288MOL0     C38801   1.847   3.117  10.116  0.4248 -1.5332  0.5767
  288MOL0     C38802   1.925   3.220  10.064  0.6474  0.4601  1.0599
  288MOL0     C38803   2.047   3.255  10.116  0.1179 -0.2142  0.2286
  288MOL0     O38804   2.099   3.366  10.048 -0.1809 -0.3379 -0.2496
  288MOL0     C38805   2.066   3.488  10.087  1.2037 -0.0140  0.4829
  288MOL0     C38806   2.176   3.593  10.049 -0.4702  0.4337  0.6807
  288MOL0     C38807   2.315   3.553  10.094 -0.5164  0.1193 -0.0033
  288MOL0     C38808   2.416   3.670  10.089  0.4065  0.7614 -0.1928
  288MOL0     C38809   2.544   3.619  10.146 -0.6818 -0.0058 -0.3960
  288MOL0     C38810   2.645   3.568  10.191  0.0400 -0.5265  0.4699
  288MOL0     C38811   2.103   3.168  10.221  1.0141  0.4934 -0.5315
  288MOL0     C38812   2.030   3.065  10.276  0.0276  0.7307  1.3849
  288MOL0     H38813   1.687   2.651  10.177 -1.2660 -1.9814  0.0708
  288MOL0     H38814   1.505   2.501  10.213 -0.0117 -1.1716  0.9261
  288MOL0     H38815   1.104   2.638  10.445 -0.7773  1.4040 -0.5562
  288MOL0     H38816   1.128   2.696  10.281 -0.3503  2.2374  2.6431
  288MOL0     H38817   1.063   2.468  10.193 -3.1055  1.8895 -1.3110
  288MOL0     H38818   1.071   2.397  10.346 -0.3636  0.3385 -0.3468
  288MOL0     H38819   0.872   2.555  10.432 -0.9647  3.3546 -0.2626
  288MOL0     H38820   0.872   2.616  10.268  3.2758  0.5364  0.1134
  288MOL0     H38821   0.825   2.365  10.205  1.4673 -1.5126  1.8147
  288MOL0     H38822   0.777   2.362  10.376 -0.9931  2.7030  1.5619
  288MOL0     H38823   0.662   2.561  10.160 -1.9222 -1.3653 -1.3703
  288MOL0     H38824   0.586   2.412  10.216  0.8350  0.2662 -0.4531
  288MOL0     H38825   0.592   2.508  10.453  2.9888 -0.2867 -0.9549
  288MOL0     H38826   0.662   2.653  10.381  3.3463 -1.2447 -2.8826
  288MOL0     H38827   0.416   2.650  10.439  1.2048 -1.9748  0.3892
  288MOL0     H38828   0.480   2.730  10.284 -0.1559 -1.1713 -2.2824
  288MOL0     H38829   0.361   2.451  10.312 -1.6392 -0.2414 -0.1257
  288MOL0     H38830   0.388   2.548  10.158 -0.2482  0.8479  0.8285
  288MOL0     H38831   0.241   2.823  10.293 -0.5351  0.2397  0.8569
  288MOL0     H38832  -0.105   2.827  10.417  3.2258  0.2048  1.8485
  288MOL0     H38833   0.004   2.933  10.326  1.7699 -1.1628  1.2619
  288MOL0     H38834  -0.235   2.784  10.201  2.1715 -2.6251  0.6676
  288MOL0     H38835  -0.102   2.865  10.110 -2.1690 -0.6397 -0.3050
  288MOL0     H38836  -0.142   3.079  10.270 -0.0702 -0.6868 -0.0597
  288MOL0     H38837  -0.278   2.992  10.328  2.8187  0.1207  2.7137
  288MOL0     H38838  -0.343   3.147  10.158  0.0029 -0.1593 -0.1124
  288MOL0     H38839  -0.386   2.975  10.123 -1.1459  1.8588 -0.6048
  288MOL0     H38840  -0.470   3.206   9.987 -0.7725  2.4671  1.3613
  288MOL0     H38841  -0.651   3.256   9.843  1.1537 -2.4093 -1.6683
  288MOL0     H38842  -0.599   3.431   9.860 -0.0773 -0.2272 -0.7065
  288MOL0     H38843  -0.638   3.347   9.708 -4.6755 -2.3208  1.2491
  288MOL0     H38844  -0.339   3.555   9.344 -2.0487 -2.0177 -2.0228
  288MOL0     H38845  -0.412   3.724   9.182  1.6518  1.4162  0.7569
  288MOL0     H38846  -0.530   3.834   9.040  0.3961  0.9453 -0.0396
  288MOL0     H38847  -0.697   3.844   9.067 -0.1685  1.5354 -0.2280
  288MOL0     H38848  -0.634   4.111   9.083  1.3316  1.4690 -0.8841
  288MOL0     H38849  -0.488   4.051   9.004 -0.7388 -0.1861  1.6760
  288MOL0     H38850  -0.613   3.963   8.802  0.8374  2.1961 -3.6417
  288MOL0     H38851  -0.625   4.138   8.828 -1.6376  1.0909  0.9543
  288MOL0     H38852  -0.822   3.930   8.923  0.2873  0.0522  0.7371
  288MOL0     H38853  -0.844   4.101   8.937  0.9169 -0.9296  0.4040
  288MOL0     H38854  -0.828   3.951   8.674 -1.2884 -0.7442 -1.1005
  288MOL0     H38855  -0.815   4.125   8.680 -0.9207  0.2497 -0.6549
  288MOL0     H38856  -1.055   3.949   8.761  2.1010 -1.0950 -0.0347
  288MOL0     H38857  -1.058   4.127   8.780 -0.8913  0.5691 -1.2196
  288MOL0     H38858  -1.140   4.046   8.542 -1.0184  3.2336  0.5234
  288MOL0     H38859  -0.967   4.001   8.517 -1.8508 -0.5726 -1.2036
  288MOL0     H38860  -0.908   4.230   8.526 -0.4739  0.1309 -2.9209
  288MOL0     H38861  -1.055   4.268   8.608  0.8250 -2.1123  1.9979
  288MOL0     H38862  -0.689   3.890   9.463 -0.6283 -0.1405  1.7178
  288MOL0     H38863  -0.612   3.722   9.627 -0.8000 -4.2749 -0.2913
  288MOL0     H38864  -0.143   3.286   9.631  0.3275 -1.0804 -0.4544
  288MOL0     H38865  -0.089   3.152   9.797 -0.4131 -1.2707 -0.2684
  288MOL0     H38866   1.289   2.799  10.423  0.3760 -1.0227 -0.8685
  288MOL0     H38867   1.472   2.964  10.381  0.0409 -0.2376  2.1822
  288MOL0     H38868   1.747   3.107  10.074  0.4827  2.0415 -0.7364
  288MOL0     H38869   1.883   3.274   9.980 -2.0212  1.5671  2.9697
  288MOL0     H38870   1.969   3.502  10.038  0.4820 -1.5424  1.3911
  288MOL0     H38871   2.061   3.484  10.196 -0.3419 -1.1476  0.4032
  288MOL0     H38872   2.140   3.690  10.085  0.9629  1.2506  0.0194
  288MOL0     H38873   2.171   3.580   9.940  0.9483 -0.3702  0.6922
  288MOL0     H38874   2.353   3.474  10.029 -3.6604  0.7259 -2.7971
  288MOL0     H38875   2.306   3.529  10.200 -1.6573  1.3843  0.1995
  288MOL0     H38876   2.375   3.751  10.150 -1.9711  0.8270 -1.7419
  288MOL0     H38877   2.419   3.704   9.986 -1.7774  0.5036 -0.3954
  288MOL0     H38878   2.744   3.535  10.216  0.1996 -2.4351 -2.1919
  288MOL0     H38879   2.203   3.183  10.261  0.0511  1.8996  1.4903
  288MOL0     H38880   2.061   3.004  10.361 -0.8189 -0.0066  1.1852
  289MOL0     O38881   9.315   6.095   6.905  0.1573  0.0226  0.7714
  289MOL0     C38882   9.374   6.112   7.014  0.3155 -0.7673  0.3489
  289MOL0     O38883   9.309   6.140   7.139  0.0985 -0.0489  0.0375
  289MOL0     C38884   9.180   6.114   7.143 -0.6488 -0.1304  0.5765
  289MOL0     C38885   9.093   6.221   7.175  0.4218 -0.9925  0.4195
  289MOL0     C38886   8.957   6.210   7.161  0.2359  0.9697  0.5336
  289MOL0     C38887   8.900   6.088   7.121 -0.1084  0.2122 -0.6241
  289MOL0     O38888   8.775   6.051   7.098  0.2288 -0.7283 -0.8907
  289MOL0     C38889   8.709   6.144   7.012  0.7484 -0.6785 -0.2147
  289MOL0     C38890   8.569   6.107   6.988  0.5477  0.8532  0.5654
  289MOL0     C38891   8.480   6.116   7.113  0.3450  0.2091 -0.4013
  289MOL0     C38892   8.338   6.073   7.090  0.3889 -0.3180  0.0428
  289MOL0     C38893   8.250   6.148   6.993  0.8407 -0.2725  0.5995
  289MOL0     C38894   8.112   6.087   6.999  1.0757 -0.1090 -0.4038
  289MOL0     C38895   8.017   6.162   6.904 -0.0796  0.6780  0.4835
  289MOL0     C38896   8.063   6.141   6.763 -0.1609 -0.5128 -0.4311
  289MOL0     N38897   7.946   6.159   6.672  0.0795  0.2301  0.0577
  289MOL0     C38898   7.871   6.066   6.614  0.4516  0.0509  0.9383
  289MOL0     C38899   7.789   6.125   6.528  0.5205 -0.9139 -0.3737
  289MOL0     C38900   7.694   6.068   6.422  0.0726 -0.0129  0.6256
  289MOL0     C38901   7.574   5.984   6.473 -0.4157 -0.2592 -0.3266
  289MOL0     C38902   7.463   6.058   6.554 -0.6717 -0.3417  0.4342
  289MOL0     C38903   7.428   6.198   6.512 -0.7419 -0.4883  0.4185
  289MOL0     O38904   7.368   6.215   6.380 -0.1062  0.1673  0.6491
  289MOL0     C38905   7.231   6.191   6.380 -0.5593  0.3079  0.7769
  289MOL0     C38906   7.154   6.131   6.479  0.3802 -0.1813  0.6959
  289MOL0     C38907   7.023   6.096   6.459  0.5601 -0.2237  1.4459
  289MOL0     C38908   6.964   6.014   6.572  0.3609 -0.6048 -0.0133
  289MOL0     C38909   6.959   6.137   6.339  0.3464 -0.1551  0.1063
  289MOL0     C38910   6.828   6.097   6.302 -0.9119  0.0185  0.4375
  289MOL0     O38911   6.778   6.123   6.178 -0.2404 -0.6352 -0.4140
  289MOL0     C38912   6.664   6.059   6.133 -0.2256 -0.7875 -0.0752
  289MOL0     C38913   6.549   6.134   6.114 -0.5683 -0.2574 -0.0774
  289MOL0     C38914   6.434   6.067   6.054  0.1736 -0.4265  0.0767
  289MOL0     C38915   6.432   5.939   6.017 -0.3421 -0.4898 -0.4746
  289MOL0     O38916   6.320   5.897   5.951  0.4999 -0.4215  0.3443
  289MOL0     C38917   6.283   5.758   5.967  1.2530 -0.3580  0.4800
  289MOL0     C38918   6.137   5.729   5.920 -0.0845 -1.0542  0.1768
  289MOL0     C38919   6.028   5.827   5.982 -0.3364 -1.0643  0.5110
  289MOL0     C38920   5.883   5.790   5.924 -1.2651  0.8057 -0.5090
  289MOL0     C38921   5.775   5.900   5.958 -0.2407  0.4427  0.3100
  289MOL0     C38922   5.644   5.860   5.904 -0.1538  0.5212  0.3918
  289MOL0     C38923   5.602   5.717   5.939 -0.4169  1.2880 -0.1206
  289MOL0     C38924   5.449   5.686   5.931  0.4207  0.7430 -0.3974
  289MOL0    Cl38925   5.409   5.511   5.937  0.0516  0.1979  0.2040
  289MOL0     C38926   6.547   5.869   6.029 -1.0515 -1.0270  0.3009
  289MOL0     C38927   6.669   5.928   6.076  0.0467 -0.5337 -0.7368
  289MOL0     O38928   6.751   6.056   6.395 -0.5083  0.3444  0.1483
  289MOL0     C38929   7.030   6.207   6.243  0.6279  1.0344  0.0128
  289MOL0     C38930   7.164   6.223   6.264 -0.1410 -0.1128 -0.1349
  289MOL0     N38931   7.812   6.262   6.533 -0.4690  0.7914  0.1696
  289MOL0     N38932   7.908   6.275   6.615 -0.5081 -0.1434  0.4808
  289MOL0     C38933   8.983   5.978   7.108  0.0445  0.0334 -1.0065
  289MOL0     C38934   9.127   5.989   7.113  0.1413  0.2701 -0.0536
  289MOL0     C38935   9.520   6.111   7.018  0.1443  0.6554 -0.3489
  289MOL0     C38936   9.586   6.037   6.917 -0.0276 -0.2475 -0.9978
  289MOL0     C38937   9.719   6.027   6.931 -0.4162  0.3809  0.3930
  289MOL0     C38938   9.790   6.086   7.041  0.9161 -0.6201 -0.3914
  289MOL0     O38939   9.928   6.072   7.050  0.3762  0.0389 -0.4602
  289MOL0     C38940  10.017   6.010   6.952 -0.3293  0.3764  0.8474
  289MOL0     C38941  10.151   6.006   7.017 -0.2486 -0.7347  0.5613
  289MOL0     C38942  10.237   5.900   6.942 -0.3920  1.0343  0.0471
  289MOL0     C38943  10.317   5.949   6.816  0.2100 -0.1407  0.2349
  289MOL0     C38944  10.242   5.946   6.691 -0.0007  0.0428 -0.4849
  289MOL0     C38945  10.182   5.949   6.591 -0.2900  0.6549 -0.7294
  289MOL0     C38946   9.723   6.155   7.137 -0.9585 -0.2715 -0.0100
  289MOL0     C38947   9.584   6.176   7.126  0.8801 -0.8516 -0.0973
  289MOL0     H38948   9.128   6.319   7.207  1.4779 -0.9885 -0.7061
  289MOL0     H38949   8.891   6.297   7.167 -2.0213 -0.7207  1.5273
  289MOL0     H38950   8.707   6.241   7.063  1.4373 -1.3561  1.1343
  289MOL0     H38951   8.771   6.156   6.922  1.2489 -1.3977  0.0241
  289MOL0     H38952   8.533   6.166   6.904 -1.7659 -0.4240  0.5825
  289MOL0     H38953   8.560   6.004   6.953 -4.0976  0.7343  1.4835
  289MOL0     H38954   8.534   6.070   7.197  0.2246 -0.7358 -0.8222
  289MOL0     H38955   8.468   6.219   7.146 -0.2010 -0.7053  2.5354
  289MOL0     H38956   8.348   5.969   7.057  0.5956 -0.5266  0.7311
  289MOL0     H38957   8.290   6.075   7.189  1.6084  2.6622  0.6899
  289MOL0     H38958   8.248   6.256   7.011 -2.3042 -0.1923  0.2650
  289MOL0     H38959   8.284   6.147   6.889 -2.1782  2.4895 -0.5756
  289MOL0     H38960   8.109   5.982   6.968 -0.4037  0.1819 -1.3242
  289MOL0     H38961   8.073   6.099   7.101 -4.0898 -0.2260 -2.0940
  289MOL0     H38962   7.917   6.117   6.906 -0.6044  1.3840 -2.9261
  289MOL0     H38963   8.009   6.267   6.935  0.5171  0.1825  2.4606
  289MOL0     H38964   8.113   6.044   6.758  0.3945 -0.2653  0.2369
  289MOL0     H38965   8.135   6.221   6.746  1.8276 -1.0879  3.9088
  289MOL0     H38966   7.868   5.958   6.627  0.0825  0.0242  0.6361
  289MOL0     H38967   7.652   6.147   6.360  3.6067 -0.0142 -2.0664
  289MOL0     H38968   7.766   6.019   6.355 -0.5449 -1.3285  0.8970
  289MOL0     H38969   7.603   5.903   6.541 -0.8737  0.8552  1.2521
  289MOL0     H38970   7.528   5.951   6.380  1.0637 -0.5386 -0.9810
  289MOL0     H38971   7.502   6.073   6.655 -1.1817  2.2202  0.3155
  289MOL0     H38972   7.370   5.999   6.562 -0.7848 -0.1229  0.7254
  289MOL0     H38973   7.518   6.261   6.513 -1.2102  0.2491  3.0932
  289MOL0     H38974   7.368   6.239   6.594  0.7106  2.7306  0.0391
  289MOL0     H38975   7.193   6.112   6.578 -2.0669 -0.7285  1.6296
  289MOL0     H38976   6.896   6.069   6.638 -1.3140  0.1503 -2.2456
  289MOL0     H38977   6.896   5.933   6.544  0.5865 -2.4236  3.9779
  289MOL0     H38978   7.041   5.976   6.640  1.3169 -1.5865 -1.5775
  289MOL0     H38979   6.561   6.240   6.138  0.4997 -1.1576  4.0713
  289MOL0     H38980   6.355   6.136   6.027  2.1147  1.3790 -1.2961
  289MOL0     H38981   6.343   5.688   5.908  0.1815  0.0932 -1.2140
  289MOL0     H38982   6.294   5.740   6.074  2.4707 -0.0198  0.4277
  289MOL0     H38983   6.138   5.744   5.811 -0.3580  0.9034  0.4016
  289MOL0     H38984   6.102   5.626   5.933 -0.0101 -1.8846 -4.4616
  289MOL0     H38985   6.046   5.933   5.960  0.2424 -1.3684 -0.5652
  289MOL0     H38986   6.037   5.816   6.090 -2.1749  0.8535  0.9173
  289MOL0     H38987   5.914   5.784   5.819  5.3261 -1.9622  1.0792
  289MOL0     H38988   5.849   5.690   5.950 -1.6130  1.3017  1.0196
  289MOL0     H38989   5.808   5.993   5.912  0.4755 -0.5320 -1.2540
  289MOL0     H38990   5.771   5.908   6.067  0.4856  0.8677  0.3169
  289MOL0     H38991   5.559   5.924   5.929 -0.4463  1.2320 -2.1595
  289MOL0     H38992   5.658   5.855   5.795 -1.0557  0.3717  0.2718
  289MOL0     H38993   5.646   5.692   6.036 -0.2718 -2.3846 -0.9817
  289MOL0     H38994   5.652   5.658   5.861  0.5373  3.2568 -1.0914
  289MOL0     H38995   5.400   5.732   5.845 -1.8034 -2.3622 -0.9379
  289MOL0     H38996   5.400   5.742   6.011  1.2629 -0.9983  1.4131
  289MOL0     H38997   6.555   5.766   5.995 -0.0834 -0.6351 -0.7089
  289MOL0     H38998   6.764   5.877   6.084  1.1354  1.5057 -0.0198
  289MOL0     H38999   7.000   6.242   6.145  0.4816  2.1945  0.4518
  289MOL0     H39000   7.222   6.267   6.184 -1.1364  1.3811 -0.0688
  289MOL0     H39001   8.942   5.886   7.067  0.7546 -0.7750  0.0379
  289MOL0     H39002   9.187   5.904   7.084  0.1143  0.3972 -0.4797
  289MOL0     H39003   9.547   5.994   6.826  1.3631  1.3966 -2.4401
  289MOL0     H39004   9.766   5.970   6.852 -0.7098 -1.7431  1.6854
  289MOL0     H39005   9.980   5.908   6.937 -1.5555  0.5236  2.4735
  289MOL0     H39006  10.026   6.056   6.854 -1.8740  0.5397  0.7673
  289MOL0     H39007  10.137   5.972   7.120 -0.7281  1.0072  1.1017
  289MOL0     H39008  10.193   6.106   7.011  1.7470 -1.5776 -0.6702
  289MOL0     H39009  10.168   5.815   6.931  0.0418  0.6826  0.0087
  289MOL0     H39010  10.321   5.878   7.008  0.1851 -1.1887 -1.3165
  289MOL0     H39011  10.404   5.886   6.796  0.1607  0.5020 -2.4239
  289MOL0     H39012  10.358   6.049   6.828 -0.8062  0.4493 -0.9788
  289MOL0     H39013  10.134   5.960   6.496  3.1422  0.9006 -2.5987
  289MOL0     H39014   9.763   6.197   7.229  0.1247 -0.6787 -0.2822
  289MOL0     H39015   9.535   6.231   7.205  1.2828 -2.4280  1.3106
  290MOL0     O39016   3.515   9.236   1.166 -0.2767  0.0668  0.6238
  290MOL0     C39017   3.419   9.270   1.098  0.5107  0.3957  0.3294
  290MOL0     O39018   3.414   9.274   0.960 -0.6021  0.2781 -0.7650
  290MOL0     C39019   3.533   9.242   0.894  0.9639 -0.5046 -0.4453
  290MOL0     C39020   3.662   9.295   0.923  0.3472  0.0239 -0.0277
  290MOL0     C39021   3.770   9.257   0.844  0.3752  0.5599 -0.0958
  290MOL0     C39022   3.763   9.160   0.748  0.3499 -0.2044 -0.3459
  290MOL0     O39023   3.877   9.132   0.677 -0.2659  0.0523  0.4295
  290MOL0     C39024   3.861   9.082   0.541  0.6429 -1.3355 -0.1410
  290MOL0     C39025   3.991   9.021   0.489  0.2586 -0.7600 -0.2997
  290MOL0     C39026   3.970   8.918   0.379 -0.7339  0.2867 -0.1997
  290MOL0     C39027   4.124   8.903   0.320  0.9015  1.0596  0.0602
  290MOL0     C39028   4.123   8.813   0.198  0.2526 -0.5162 -0.3754
  290MOL0     C39029   4.258   8.770   0.135 -0.2081 -0.2548  0.0989
  290MOL0     C39030   4.382   8.853   0.136 -0.0813  0.1984 -0.5679
  290MOL0     C39031   4.385   8.964   0.035 -0.2185  0.2359  0.2099
  290MOL0     N39032   4.396   8.904  -0.097 -0.2199  0.2476  0.8121
  290MOL0     C39033   4.488   8.805  -0.139 -0.0899 -0.1173  0.3963
  290MOL0     C39034   4.469   8.792  -0.276  0.3643  0.0799 -0.8522
  290MOL0     C39035   4.525   8.696  -0.372  0.1273 -0.6711 -0.1255
  290MOL0     C39036   4.607   8.772  -0.479 -0.2535 -0.1782  0.4044
  290MOL0     C39037   4.519   8.826  -0.591 -0.4501 -0.1789 -0.0171
  290MOL0     C39038   4.603   8.857  -0.720  0.4013 -0.5400  0.5296
  290MOL0     O39039   4.513   8.896  -0.832 -0.0671 -0.2593  0.0401
  290MOL0     C39040   4.434   8.804  -0.888 -0.3851  0.0521 -0.1338
  290MOL0     C39041   4.340   8.852  -0.976 -0.4611 -0.1186  0.2576
  290MOL0     C39042   4.251   8.769  -1.048 -0.5355 -0.6987 -0.1798
  290MOL0     C39043   4.165   8.834  -1.161 -0.2346 -0.3300 -0.2858
  290MOL0     C39044   4.258   8.623  -1.023  0.6984 -0.3720  0.3397
  290MOL0     C39045   4.157   8.531  -1.081 -0.3421  0.0243  0.3846
  290MOL0     O39046   4.182   8.402  -1.058  0.1548  0.0550  0.0030
  290MOL0     C39047   4.088   8.310  -1.103 -0.5543  0.2701 -0.2034
  290MOL0     C39048   4.109   8.207  -1.203  0.1099 -0.3002 -0.6530
  290MOL0     C39049   4.018   8.100  -1.226  0.7138  0.2361  0.4754
  290MOL0     C39050   3.895   8.102  -1.163  0.5133 -0.5631 -0.6528
  290MOL0     O39051   3.803   7.998  -1.176  0.4047  0.2550  0.0783
  290MOL0     C39052   3.810   7.918  -1.298  0.3890 -0.2593  0.5458
  290MOL0     C39053   3.881   7.789  -1.276 -0.6012  0.3477 -0.0766
  290MOL0     C39054   3.788   7.683  -1.208  0.0163  0.0750 -0.9917
  290MOL0     C39055   3.849   7.535  -1.179  0.4054 -0.2164 -0.1415
  290MOL0     C39056   3.833   7.442  -1.301  0.2608 -0.1031 -0.0903
  290MOL0     C39057   3.691   7.406  -1.326  0.1940 -0.4398 -0.0550
  290MOL0     C39058   3.694   7.296  -1.427 -0.5225 -0.8182 -0.0681
  290MOL0     C39059   3.559   7.255  -1.490  0.0586  0.3351 -0.3208
  290MOL0    Cl39060   3.568   7.115  -1.595  0.2357  0.0598 -0.1969
  290MOL0     C39061   3.871   8.216  -1.081 -0.3526 -0.0893  0.0928
  290MOL0     C39062   3.966   8.319  -1.054  0.6116  0.6182 -0.0155
  290MOL0     O39063   4.069   8.576  -1.152  0.3672 -0.9530  0.2927
  290MOL0     C39064   4.361   8.574  -0.935 -0.2062  0.3108 -0.4045
  290MOL0     C39065   4.448   8.665  -0.872  0.4048 -0.9541 -0.6086
  290MOL0     N39066   4.366   8.883  -0.305 -0.0474  0.6690 -0.3642
  290MOL0     N39067   4.321   8.946  -0.202 -0.3123 -0.2101  0.2177
  290MOL0     C39068   3.640   9.092   0.733  0.0821 -0.3430 -0.7555
  290MOL0     C39069   3.523   9.140   0.794  0.2688  0.4469 -0.9628
  290MOL0     C39070   3.290   9.302   1.161 -0.0062 -0.1214 -0.1726
  290MOL0     C39071   3.170   9.328   1.085 -0.3258 -0.0973 -0.2127
  290MOL0     C39072   3.049   9.352   1.153  0.2415 -0.5333  0.3759
  290MOL0     C39073   3.037   9.341   1.289 -0.8687 -0.0445 -0.5250
  290MOL0     O39074   2.910   9.351   1.351  0.0249  0.3091 -0.2811
  290MOL0     C39075   2.887   9.297   1.491  0.4639 -0.6119  0.2326
  290MOL0     C39076   2.744   9.245   1.508 -0.5194  0.5494 -0.4237
  290MOL0     C39077   2.628   9.338   1.494 -0.0634 -0.1635  0.9040
  290MOL0     C39078   2.603   9.392   1.349  0.5746  0.1411  0.7427
  290MOL0     C39079   2.472   9.459   1.349  0.2575 -0.3270  0.4735
  290MOL0     C39080   2.377   9.529   1.331 -0.3813 -0.0681  0.0414
  290MOL0     C39081   3.153   9.322   1.368 -1.4247 -0.5513  0.0732
  290MOL0     C39082   3.275   9.310   1.304  0.7402 -0.8671 -0.6958
  290MOL0     H39083   3.670   9.381   0.988 -0.8223  0.5377 -0.5284
  290MOL0     H39084   3.859   9.317   0.854  0.8211  0.5881 -3.1513
  290MOL0     H39085   3.778   9.011   0.529 -0.2357 -0.3433 -0.0987
  290MOL0     H39086   3.831   9.157   0.467 -1.2817  0.6477  2.4354
  290MOL0     H39087   4.056   9.101   0.453 -2.0037  0.9077 -0.9073
  290MOL0     H39088   4.040   8.968   0.571  1.8851 -0.8495 -1.3030
  290MOL0     H39089   3.932   8.823   0.417 -0.1326  0.4200  0.7759
  290MOL0     H39090   3.911   8.943   0.290  1.0611  2.6621 -0.8266
  290MOL0     H39091   4.158   9.004   0.295 -1.1758  1.9286  0.5785
  290MOL0     H39092   4.187   8.863   0.400 -0.8186  1.2898  1.5877
  290MOL0     H39093   4.069   8.718   0.209  1.9420 -1.7088 -1.8082
  290MOL0     H39094   4.073   8.875   0.124 -2.2302  0.2991  1.8465
  290MOL0     H39095   4.299   8.682   0.184 -0.8592  0.2059  1.5272
  290MOL0     H39096   4.243   8.742   0.030  0.0834 -2.3861  0.5811
  290MOL0     H39097   4.393   8.906   0.231 -0.3509 -3.2000  1.5322
  290MOL0     H39098   4.476   8.797   0.128  2.1087  3.5019 -0.0258
  290MOL0     H39099   4.463   9.035   0.062 -1.7484  1.2946  2.1524
  290MOL0     H39100   4.288   9.014   0.041 -1.0180 -1.3648  3.9023
  290MOL0     H39101   4.554   8.743  -0.079  0.9252 -0.4911 -1.0446
  290MOL0     H39102   4.581   8.625  -0.310 -2.5633 -2.7044  0.1247
  290MOL0     H39103   4.439   8.650  -0.421  1.3282 -0.9580 -2.0796
  290MOL0     H39104   4.673   8.698  -0.525  1.4797 -0.5146  3.2004
  290MOL0     H39105   4.665   8.848  -0.427 -0.0029 -0.6326  0.7951
  290MOL0     H39106   4.462   8.909  -0.547 -2.4272 -0.9163 -1.0373
  290MOL0     H39107   4.455   8.741  -0.618 -1.4496  0.7172 -0.5821
  290MOL0     H39108   4.662   8.770  -0.749 -0.6530 -0.9655 -0.3767
  290MOL0     H39109   4.667   8.943  -0.697 -0.0844  0.1678 -0.6761
  290MOL0     H39110   4.355   8.959  -0.993 -0.4254  0.2060  2.1696
  290MOL0     H39111   4.057   8.818  -1.154 -0.4818  1.1448 -0.5303
  290MOL0     H39112   4.176   8.942  -1.162 -5.0193  0.3546 -0.7193
  290MOL0     H39113   4.201   8.799  -1.258  0.0165 -0.3254 -0.1939
  290MOL0     H39114   4.201   8.207  -1.261 -0.8629 -1.0937 -2.2780
  290MOL0     H39115   4.051   8.016  -1.286  0.3940  0.8317 -0.5572
  290MOL0     H39116   3.710   7.896  -1.336  0.6447  1.1708 -1.0728
  290MOL0     H39117   3.857   7.975  -1.379 -2.5897  0.5209 -0.7434
  290MOL0     H39118   3.915   7.751  -1.373 -3.0328  0.3851 -1.0024
  290MOL0     H39119   3.962   7.817  -1.209 -0.8530  0.0184  0.3707
  290MOL0     H39120   3.692   7.679  -1.262 -1.1649  2.9557  0.6353
  290MOL0     H39121   3.768   7.729  -1.111 -0.5368  2.5678 -2.2028
  290MOL0     H39122   3.951   7.560  -1.149  0.6835 -1.1581 -0.2670
  290MOL0     H39123   3.798   7.495  -1.091  0.9957  1.3385  0.9482
  290MOL0     H39124   3.876   7.343  -1.283 -0.3126 -0.6639 -1.6241
  290MOL0     H39125   3.892   7.478  -1.385 -0.0261  0.2130 -0.1538
  290MOL0     H39126   3.639   7.363  -1.240 -0.1342  0.8069  0.3975
  290MOL0     H39127   3.650   7.500  -1.364  2.2815  0.0267 -1.3342
  290MOL0     H39128   3.753   7.212  -1.390  1.1040  0.5837  0.6235
  290MOL0     H39129   3.753   7.347  -1.504  2.0697 -0.6846  1.8810
  290MOL0     H39130   3.508   7.329  -1.552 -0.9895 -1.7468 -2.0701
  290MOL0     H39131   3.501   7.235  -1.400  1.2802  1.7658  0.8446
  290MOL0     H39132   3.784   8.221  -1.016 -0.4168  3.1496 -0.0806
  290MOL0     H39133   3.949   8.396  -0.980 -0.6157 -0.4237  0.8230
  290MOL0     H39134   4.385   8.469  -0.928  0.7497  0.5746  0.5314
  290MOL0     H39135   4.534   8.623  -0.820  3.0830  1.9159 -2.4220
  290MOL0     H39136   3.625   9.002   0.674  0.4525 -0.1136 -1.2040
  290MOL0     H39137   3.426   9.097   0.772 -0.6007  1.4836  0.6091
  290MOL0     H39138   3.178   9.325   0.977  0.7001  0.3660 -0.1573
  290MOL0     H39139   2.956   9.368   1.099 -1.1176  1.9036  3.1773
  290MOL0     H39140   2.942   9.207   1.521  1.5703  0.5937  2.0636
  290MOL0     H39141   2.914   9.370   1.568 -1.0801  0.2366 -0.0037
  290MOL0     H39142   2.734   9.203   1.608 -1.1982  2.8236  0.5140
  290MOL0     H39143   2.717   9.161   1.442 -2.2515 -1.0365  2.1197
  290MOL0     H39144   2.655   9.412   1.570  2.2005 -0.5073  0.5213
  290MOL0     H39145   2.536   9.286   1.522 -0.1594  0.0738  1.0301
  290MOL0     H39146   2.606   9.313   1.273 -0.4927  1.0690 -0.3025
  290MOL0     H39147   2.679   9.465   1.320 -0.0313  1.1843  1.6891
  290MOL0     H39148   2.297   9.596   1.305 -1.6930 -1.9724 -1.0341
  290MOL0     H39149   3.157   9.332   1.476 -1.3952 -1.0880  0.1264
  290MOL0     H39150   3.358   9.289   1.371 -1.0545 -5.2181  0.4467
  291MOL0     O39151  10.587   7.281   8.910 -0.1344 -0.2146 -0.1674
  291MOL0     C39152  10.632   7.385   8.966  0.7597 -0.1670  0.8462
  291MOL0     O39153  10.558   7.493   9.007 -0.2701 -0.3234 -0.5247
  291MOL0     C39154  10.425   7.476   8.986  0.0560 -0.0902 -0.0053
  291MOL0     C39155  10.358   7.390   9.072 -0.1773 -0.2211 -0.6507
  291MOL0     C39156  10.222   7.375   9.074 -0.2853 -0.5442  0.2596
  291MOL0     C39157  10.153   7.438   8.964 -0.1862 -0.0868  0.4530
  291MOL0     O39158  10.020   7.402   8.941 -1.0691  0.0443  0.1488
  291MOL0     C39159   9.935   7.503   8.886  0.4766 -0.6650 -0.8891
  291MOL0     C39160   9.792   7.465   8.921 -0.0925  0.7566 -0.2977
  291MOL0     C39161   9.717   7.575   8.861  0.7062  0.1453 -0.2200
  291MOL0     C39162   9.570   7.553   8.899  0.0702 -0.2029  0.6323
  291MOL0     C39163   9.490   7.659   8.813  0.1994  0.5523 -0.4055
  291MOL0     C39164   9.348   7.651   8.847 -0.5842  0.7612  0.4686
  291MOL0     C39165   9.260   7.746   8.764  0.1844 -0.1237 -0.3856
  291MOL0     C39166   9.111   7.716   8.781  0.1351  0.4224 -0.9059
  291MOL0     N39167   9.068   7.766   8.916 -0.4866  0.0901  0.2843
  291MOL0     C39168   9.086   7.897   8.962 -0.2084 -0.2637  0.7742
  291MOL0     C39169   9.054   7.893   9.094 -0.3378  0.7066 -0.4040
  291MOL0     C39170   9.075   7.994   9.209 -0.0943  0.0034 -0.6619
  291MOL0     C39171   8.954   8.043   9.285 -0.1013 -0.0346 -0.8974
  291MOL0     C39172   8.865   8.117   9.195 -0.3019 -0.5424 -0.2840
  291MOL0     C39173   8.760   8.193   9.277 -0.3403  0.3690  0.1758
  291MOL0     O39174   8.685   8.258   9.181 -0.1698  0.1617  0.4331
  291MOL0     C39175   8.582   8.324   9.230  0.3294  0.1947  0.0106
  291MOL0     C39176   8.552   8.340   9.361 -0.0776 -0.2863  0.4328
  291MOL0     C39177   8.453   8.424   9.398 -0.0611 -0.6856 -0.3938
  291MOL0     C39178   8.442   8.453   9.543  0.4688 -1.0300  0.1663
  291MOL0     C39179   8.361   8.484   9.304 -0.6570 -1.3616  1.1676
  291MOL0     C39180   8.239   8.571   9.337  0.6077  0.3836 -0.1223
  291MOL0     O39181   8.230   8.631   9.452  0.9433 -0.2269 -0.0209
  291MOL0     C39182   8.116   8.699   9.493 -0.6739  0.0549 -0.1962
  291MOL0     C39183   8.138   8.774   9.612  0.5021  0.5646 -0.4527
  291MOL0     C39184   8.028   8.846   9.668 -0.4548 -0.8778  1.4467
  291MOL0     C39185   7.897   8.845   9.609 -0.0063  0.1152 -0.6931
  291MOL0     O39186   7.804   8.932   9.668  0.3309  0.3164 -0.5778
  291MOL0     C39187   7.773   9.046   9.583 -0.4049 -0.4414 -0.4542
  291MOL0     C39188   7.687   9.140   9.666  0.2121  0.0881  0.2045
  291MOL0     C39189   7.616   9.254   9.582 -0.2559  0.3079 -0.0483
  291MOL0     C39190   7.512   9.322   9.680  0.5824  0.3147 -0.2870
  291MOL0     C39191   7.440   9.431   9.603  0.2314  0.6014 -0.8194
  291MOL0     C39192   7.331   9.507   9.687 -0.3784  0.0501  0.4989
  291MOL0     C39193   7.246   9.598   9.589  1.0069 -0.5720 -0.7612
  291MOL0     C39194   7.234   9.730   9.665 -0.0518 -0.1864 -0.6438
  291MOL0    Cl39195   7.138   9.732   9.818  0.0697 -0.1259 -0.0183
  291MOL0     C39196   7.873   8.763   9.498  0.6224  0.1425 -0.1003
  291MOL0     C39197   7.980   8.683   9.451  0.0244 -1.0167  0.3601
  291MOL0     O39198   8.163   8.584   9.250  0.1226  0.9631 -0.7443
  291MOL0     C39199   8.389   8.455   9.167  0.0721  0.4294 -0.3136
  291MOL0     C39200   8.499   8.382   9.132 -0.1130 -0.3235  0.6432
  291MOL0     N39201   9.021   7.759   9.121 -0.1017 -0.0884 -0.6596
  291MOL0     N39202   9.024   7.689   9.013  0.1643  0.0889 -0.0413
  291MOL0     C39203  10.217   7.527   8.883 -0.7347 -0.3699  0.1710
  291MOL0     C39204  10.351   7.552   8.900  0.6583  0.0509 -0.5134
  291MOL0     C39205  10.780   7.419   8.952 -0.5479  0.2408  0.7354
  291MOL0     C39206  10.870   7.317   8.902  0.3115 -0.8337  0.3443
  291MOL0     C39207  11.002   7.347   8.894  0.1779  0.1760  0.4232
  291MOL0     C39208  11.044   7.475   8.908  0.5917 -0.5643 -0.2324
  291MOL0     O39209  11.179   7.491   8.884 -0.3586  0.2030 -0.4559
  291MOL0     C39210  11.242   7.574   8.978  0.7294 -0.3342  0.1429
  291MOL0     C39211  11.362   7.506   9.041 -0.1436  0.1667  0.2567
  291MOL0     C39212  11.482   7.473   8.940 -0.6256 -0.1672 -0.2256
  291MOL0     C39213  11.591   7.583   8.941  0.3143  0.7678  0.2715
  291MOL0     C39214  11.712   7.532   8.873 -0.9234  0.3977 -0.4588
  291MOL0     C39215  11.814   7.481   8.821 -0.1047 -0.7310 -0.1827
  291MOL0     C39216  10.956   7.572   8.944  0.4069  0.0532  0.3816
  291MOL0     C39217  10.831   7.547   8.986  0.1816 -0.9683  0.5197
  291MOL0     H39218  10.421   7.345   9.148 -0.3131 -0.3930 -0.6384
  291MOL0     H39219  10.172   7.306   9.141  0.4085 -0.8308  0.4911
  291MOL0     H39220   9.960   7.600   8.929  2.7844 -0.1253 -3.2017
  291MOL0     H39221   9.957   7.516   8.780  0.4477  0.5907 -0.7524
  291MOL0     H39222   9.784   7.363   8.881  1.7334 -0.9753  3.3048
  291MOL0     H39223   9.779   7.450   9.028  1.6112  1.8430  0.0875
  291MOL0     H39224   9.744   7.674   8.900 -2.1318  2.4841 -3.4786
  291MOL0     H39225   9.729   7.585   8.752 -3.1879 -3.8806 -1.3230
  291MOL0     H39226   9.535   7.451   8.879  0.5841 -1.4184  4.8847
  291MOL0     H39227   9.552   7.563   9.007  0.3052  1.3117  0.5441
  291MOL0     H39228   9.525   7.760   8.837 -0.1181  0.4426  0.5524
  291MOL0     H39229   9.502   7.639   8.706  0.0296  1.6993 -0.6459
  291MOL0     H39230   9.314   7.548   8.851 -2.8409  1.4276 -0.2458
  291MOL0     H39231   9.344   7.679   8.953 -1.6981 -0.3932  0.7493
  291MOL0     H39232   9.277   7.853   8.776  1.6452 -0.1777 -1.6731
  291MOL0     H39233   9.295   7.718   8.664 -2.0246 -0.1529 -1.1910
  291MOL0     H39234   9.082   7.611   8.789  0.3468  0.3813 -0.6565
  291MOL0     H39235   9.059   7.755   8.693 -2.6992  3.8793  1.9334
  291MOL0     H39236   9.152   7.969   8.913  1.7247 -0.3542  3.0815
  291MOL0     H39237   9.139   7.936   9.277 -0.0990 -1.9365 -2.2218
  291MOL0     H39238   9.129   8.086   9.184  0.8813 -0.4188 -0.1833
  291MOL0     H39239   8.986   8.103   9.371 -3.1187 -1.0437  1.1298
  291MOL0     H39240   8.906   7.953   9.325 -1.2814  0.7926 -0.3899
  291MOL0     H39241   8.819   8.050   9.122  0.9326  0.3009 -1.8913
  291MOL0     H39242   8.914   8.196   9.138 -0.7792  0.8019  1.1069
  291MOL0     H39243   8.809   8.263   9.345  1.4128 -2.9135  2.5892
  291MOL0     H39244   8.699   8.118   9.329  1.8514 -1.2524  0.5423
  291MOL0     H39245   8.615   8.297   9.439 -0.5329  1.4937  1.8472
  291MOL0     H39246   8.337   8.465   9.570  1.1389  1.2439  2.0600
  291MOL0     H39247   8.487   8.366   9.593  2.1998  0.5411  1.4908
  291MOL0     H39248   8.493   8.545   9.574 -2.9073  0.7283  0.9290
  291MOL0     H39249   8.234   8.787   9.662  0.3612  0.6970 -0.2171
  291MOL0     H39250   8.042   8.915   9.750  0.0149  0.6238  0.1548
  291MOL0     H39251   7.865   9.098   9.555 -2.2827  3.1064 -0.5769
  291MOL0     H39252   7.725   9.012   9.490  1.6474  1.4711 -2.3522
  291MOL0     H39253   7.607   9.083   9.713 -1.7808  0.3203 -2.6885
  291MOL0     H39254   7.743   9.194   9.743  0.4131 -0.6876  0.6143
  291MOL0     H39255   7.566   9.205   9.498  2.2266 -1.3262 -0.7008
  291MOL0     H39256   7.687   9.331   9.551  0.6779 -1.3909 -2.4879
  291MOL0     H39257   7.437   9.256   9.725 -0.4292  1.6415  0.0048
  291MOL0     H39258   7.571   9.361   9.764  1.9543 -0.1658 -0.9891
  291MOL0     H39259   7.397   9.377   9.518 -0.2601  0.3036 -0.3880
  291MOL0     H39260   7.509   9.502   9.558  1.0983 -0.7206 -1.6473
  291MOL0     H39261   7.266   9.430   9.731 -2.8818  1.9170  0.2784
  291MOL0     H39262   7.381   9.568   9.763 -1.6188  1.0971  0.5151
  291MOL0     H39263   7.147   9.555   9.569  0.3659  0.8791 -0.7974
  291MOL0     H39264   7.298   9.612   9.494  2.7406 -1.3548  0.0174
  291MOL0     H39265   7.191   9.799   9.592 -1.0895 -1.9155 -1.7230
  291MOL0     H39266   7.336   9.757   9.694 -0.0554 -1.2471  0.4672
  291MOL0     H39267   7.779   8.768   9.445 -0.6995  0.2502  2.1180
  291MOL0     H39268   7.969   8.619   9.363  1.9692 -0.6131 -0.2360
  291MOL0     H39269   8.317   8.482   9.091 -1.4266  0.6539  1.1241
  291MOL0     H39270   8.513   8.379   9.024  3.0073 -1.2837  0.9767
  291MOL0     H39271  10.166   7.590   8.811  3.3871  1.2729 -1.6161
  291MOL0     H39272  10.400   7.638   8.855 -1.0193  2.5425  2.0491
  291MOL0     H39273  10.839   7.214   8.886 -1.3535 -0.4846  1.0614
  291MOL0     H39274  11.063   7.259   8.875 -0.0524  0.2754 -0.8359
  291MOL0     H39275  11.280   7.659   8.920  1.9272 -0.9757 -0.0626
  291MOL0     H39276  11.186   7.618   9.060  2.0205  1.8788 -0.0894
  291MOL0     H39277  11.320   7.418   9.090 -0.5687 -0.5497 -1.3465
  291MOL0     H39278  11.405   7.577   9.112  1.8508 -0.6277 -0.0920
  291MOL0     H39279  11.440   7.465   8.840  1.3344 -0.0613 -1.1079
  291MOL0     H39280  11.527   7.377   8.967  1.4173  0.8997  0.4035
  291MOL0     H39281  11.628   7.602   9.043  0.4984  0.7204  0.2132
  291MOL0     H39282  11.567   7.680   8.898  0.9468  0.8560  0.1137
  291MOL0     H39283  11.895   7.444   8.761  1.1861 -3.7862  3.1005
  291MOL0     H39284  10.995   7.672   8.959 -1.0887  0.6731  0.2791
  291MOL0     H39285  10.768   7.632   9.011  0.3543 -0.0646 -1.8268
  292MOL0     O39286   4.191   9.484   3.238 -0.0251 -0.2914 -0.2014
  292MOL0     C39287   4.289   9.417   3.226  0.4627 -0.6626  0.8904
  292MOL0     O39288   4.304   9.290   3.174 -0.6233 -0.7261 -0.0448
  292MOL0     C39289   4.202   9.232   3.103  0.7954  0.2937 -0.0800
  292MOL0     C39290   4.228   9.095   3.083  0.2142  0.2663 -0.3075
  292MOL0     C39291   4.138   9.018   3.002 -1.0746 -0.0812 -0.4455
  292MOL0     C39292   4.020   9.070   2.947 -0.6446  0.0848  0.3225
  292MOL0     O39293   3.923   9.004   2.872  0.1687 -0.2313 -0.0749
  292MOL0     C39294   3.961   8.872   2.844  0.0859  0.6754  0.1884
  292MOL0     C39295   3.859   8.796   2.761  0.3103  0.4485  0.1373
  292MOL0     C39296   3.719   8.798   2.814 -0.0769 -0.1884  0.1400
  292MOL0     C39297   3.618   8.694   2.754 -1.1248  0.0206 -0.1182
  292MOL0     C39298   3.475   8.732   2.803 -0.1841  0.8767 -0.9226
  292MOL0     C39299   3.373   8.630   2.749 -0.5532  0.6879 -0.2215
  292MOL0     C39300   3.233   8.688   2.762 -0.3912  0.6210 -0.4360
  292MOL0     C39301   3.127   8.584   2.714 -0.0024  0.5045  0.8334
  292MOL0     N39302   2.986   8.635   2.722 -0.7282 -0.2565  0.2043
  292MOL0     C39303   2.873   8.567   2.685 -0.7726 -0.7080  1.1305
  292MOL0     C39304   2.776   8.630   2.747 -0.0998  0.2136 -1.7304
  292MOL0     C39305   2.626   8.598   2.756 -0.4364 -0.2235  0.0905
  292MOL0     C39306   2.614   8.452   2.793 -0.0870  0.2726 -0.4860
  292MOL0     C39307   2.475   8.418   2.846  0.7262 -1.1509 -0.5243
  292MOL0     C39308   2.376   8.415   2.735 -0.0166  0.0474 -1.1752
  292MOL0     O39309   2.249   8.387   2.804 -0.1565 -0.8303 -0.1717
  292MOL0     C39310   2.132   8.347   2.749  0.3129 -0.3885 -0.1871
  292MOL0     C39311   2.030   8.329   2.844 -0.2647 -0.3903  1.3392
  292MOL0     C39312   1.902   8.291   2.799 -0.6754  0.2798 -0.2586
  292MOL0     C39313   1.803   8.271   2.908 -0.0397 -0.2628  0.3757
  292MOL0     C39314   1.873   8.270   2.662  0.4545 -0.5029 -0.2172
  292MOL0     C39315   1.738   8.220   2.612 -0.7529  0.2431  0.2364
  292MOL0     O39316   1.645   8.173   2.699  0.5383  0.0253 -0.1505
  292MOL0     C39317   1.507   8.176   2.681  0.2973  0.8193 -0.4159
  292MOL0     C39318   1.426   8.119   2.781  1.2318 -0.0825 -0.3118
  292MOL0     C39319   1.281   8.117   2.768 -0.6960 -0.8547  1.3357
  292MOL0     C39320   1.222   8.186   2.662  0.4326 -0.3971 -0.6743
  292MOL0     O39321   1.090   8.176   2.649 -0.0512 -0.2111  0.7042
  292MOL0     C39322   1.021   8.276   2.564  0.6021 -0.0888 -0.3018
  292MOL0     C39323   0.877   8.282   2.621  0.5069 -0.3866 -0.2646
  292MOL0     C39324   0.811   8.141   2.626  0.7542 -0.6813  0.1839
  292MOL0     C39325   0.664   8.153   2.659  0.0583 -0.3204  0.7438
  292MOL0     C39326   0.588   8.017   2.647  0.7178 -0.1578  0.6009
  292MOL0     C39327   0.483   8.026   2.529 -0.3788 -0.4546 -0.5443
  292MOL0     C39328   0.416   7.886   2.518  0.3093  0.2592 -0.6294
  292MOL0     C39329   0.299   7.869   2.428 -0.6693 -0.4277  0.0979
  292MOL0    Cl39330   0.368   7.861   2.270 -0.1412 -0.5586 -0.5186
  292MOL0     C39331   1.301   8.251   2.573  0.7524 -1.0010 -0.5615
  292MOL0     C39332   1.442   8.248   2.574  0.3657 -0.7063 -0.1024
  292MOL0     O39333   1.727   8.219   2.490  0.8238  0.5077 -0.8264
  292MOL0     C39334   1.975   8.309   2.570  0.7497 -0.7866 -0.1041
  292MOL0     C39335   2.106   8.347   2.613 -1.2188  1.0800  0.3277
  292MOL0     N39336   2.820   8.727   2.836 -0.7987  0.0728  0.3581
  292MOL0     N39337   2.943   8.735   2.800 -0.3219 -0.4157 -0.3706
  292MOL0     C39338   4.008   9.207   2.957  0.7773 -0.5245 -0.2684
  292MOL0     C39339   4.093   9.294   3.028  0.3027 -0.3141 -0.0649
  292MOL0     C39340   4.417   9.471   3.283 -0.3652 -0.2324  0.1559
  292MOL0     C39341   4.538   9.401   3.262 -0.1131 -0.0207 -0.3754
  292MOL0     C39342   4.660   9.463   3.297  0.5030 -0.4530  0.8032
  292MOL0     C39343   4.662   9.574   3.377  0.1467  0.1827  0.4720
  292MOL0     O39344   4.789   9.628   3.385  0.1055 -0.7298 -0.2770
  292MOL0     C39345   4.816   9.743   3.468  0.2660  0.8958 -0.2938
  292MOL0     C39346   4.809   9.868   3.390 -0.7179  0.2473  0.0666
  292MOL0     C39347   4.944   9.881   3.312 -0.3831 -0.1776  0.1100
  292MOL0     C39348   4.916  10.002   3.215  0.2973 -0.5238 -0.2327
  292MOL0     C39349   5.029  10.089   3.188 -0.3505 -0.5703 -0.0083
  292MOL0     C39350   5.122  10.172   3.175  0.3900  0.0880  0.3875
  292MOL0     C39351   4.548   9.636   3.408 -0.0072 -0.6957 -0.0816
  292MOL0     C39352   4.427   9.584   3.370 -0.1624  0.5571 -0.2149
  292MOL0     H39353   4.313   9.050   3.133 -2.0778 -3.2755  0.7848
  292MOL0     H39354   4.170   8.914   2.998 -1.4449 -0.2423  0.5153
  292MOL0     H39355   4.062   8.859   2.803  1.5477  1.2004  3.3101
  292MOL0     H39356   3.964   8.818   2.939  0.7068 -0.1989 -0.3106
  292MOL0     H39357   3.868   8.836   2.659  2.5735 -2.5901 -1.0007
  292MOL0     H39358   3.902   8.697   2.747  1.6952  1.2548 -1.7067
  292MOL0     H39359   3.719   8.767   2.919  0.8451  0.6910  0.4162
  292MOL0     H39360   3.669   8.895   2.810  1.6020  0.6950  0.0264
  292MOL0     H39361   3.619   8.692   2.645 -2.1805 -1.2100 -0.1360
  292MOL0     H39362   3.660   8.600   2.792 -1.6098 -0.8864 -1.7353
  292MOL0     H39363   3.471   8.726   2.913  0.6051  0.1717 -0.9240
  292MOL0     H39364   3.448   8.834   2.777 -0.5064  1.6387  1.9952
  292MOL0     H39365   3.394   8.606   2.645 -1.4696  3.3339 -1.0971
  292MOL0     H39366   3.376   8.535   2.802  4.2849 -0.1879 -1.6516
  292MOL0     H39367   3.204   8.721   2.862 -1.1720 -2.1861  0.3462
  292MOL0     H39368   3.229   8.782   2.706 -0.2100  2.1168  1.9107
  292MOL0     H39369   3.136   8.494   2.776  0.5106 -0.8262 -1.0825
  292MOL0     H39370   3.148   8.565   2.609 -1.2286  1.4599  0.3878
  292MOL0     H39371   2.862   8.473   2.631 -0.8668  0.1482 -0.3668
  292MOL0     H39372   2.594   8.657   2.843  0.4724  0.4570 -0.0195
  292MOL0     H39373   2.568   8.619   2.666 -0.6549  0.4246  0.3768
  292MOL0     H39374   2.691   8.418   2.863  2.8575 -0.2423 -3.6864
  292MOL0     H39375   2.637   8.386   2.709  1.3433  0.6640 -0.4298
  292MOL0     H39376   2.444   8.498   2.913  1.3868 -0.2075 -1.3278
  292MOL0     H39377   2.476   8.330   2.912  0.5442 -0.0533  0.9803
  292MOL0     H39378   2.391   8.341   2.655 -0.5925 -2.8048  1.1781
  292MOL0     H39379   2.367   8.509   2.681  0.3123  0.9274  0.2658
  292MOL0     H39380   2.044   8.332   2.951  1.5238 -1.3630  1.1578
  292MOL0     H39381   1.710   8.324   2.884 -0.2058  0.1137  1.7528
  292MOL0     H39382   1.782   8.165   2.924  1.2819 -0.1676  3.3252
  292MOL0     H39383   1.848   8.314   2.998  1.5217 -1.7124  0.3196
  292MOL0     H39384   1.470   8.070   2.867  0.4771 -1.0384 -0.4605
  292MOL0     H39385   1.222   8.055   2.835 -1.9152  0.1390  1.2108
  292MOL0     H39386   1.075   8.370   2.574  1.7063 -0.8599  1.6055
  292MOL0     H39387   1.021   8.243   2.460  0.9253  1.2018 -0.7234
  292MOL0     H39388   0.882   8.330   2.719 -0.6191  0.5810 -0.6481
  292MOL0     H39389   0.816   8.346   2.556  0.5457 -0.3699 -0.2839
  292MOL0     H39390   0.851   8.084   2.711  0.5659 -3.9870 -1.7679
  292MOL0     H39391   0.826   8.079   2.538  3.1915 -0.8566  0.6494
  292MOL0     H39392   0.656   8.188   2.762 -2.3731  0.1660  0.4627
  292MOL0     H39393   0.617   8.223   2.588  3.0209 -0.6558 -1.7645
  292MOL0     H39394   0.537   7.987   2.738 -1.3562 -0.7470 -0.6835
  292MOL0     H39395   0.660   7.937   2.628  0.2282 -0.2989 -0.7755
  292MOL0     H39396   0.411   8.104   2.555 -0.7803 -1.6092  2.0983
  292MOL0     H39397   0.532   8.055   2.435  2.4277 -2.7739  0.0669
  292MOL0     H39398   0.368   7.854   2.611  0.0741 -1.8095 -1.4071
  292MOL0     H39399   0.493   7.813   2.492 -1.4906 -0.7189 -3.7278
  292MOL0     H39400   0.216   7.936   2.451 -2.7552 -2.7403 -0.2971
  292MOL0     H39401   0.247   7.776   2.454 -1.2459  0.2275  1.3858
  292MOL0     H39402   1.262   8.306   2.488  1.8774  0.8031  0.0405
  292MOL0     H39403   1.497   8.297   2.495 -0.7626 -2.0084 -1.7554
  292MOL0     H39404   1.950   8.308   2.464 -1.2551 -0.2277  0.3187
  292MOL0     H39405   2.183   8.370   2.539 -0.3931  1.4300  1.2698
  292MOL0     H39406   3.930   9.259   2.901  1.3006  0.0099 -0.5154
  292MOL0     H39407   4.080   9.401   3.021 -0.3526 -0.4344 -0.7796
  292MOL0     H39408   4.545   9.318   3.191 -0.7625  1.2433 -1.9950
  292MOL0     H39409   4.753   9.416   3.267  0.7221 -0.4354  1.4452
  292MOL0     H39410   4.739   9.745   3.546 -0.3832 -4.8177 -0.3280
  292MOL0     H39411   4.916   9.723   3.508  0.2650 -1.3353 -1.2475
  292MOL0     H39412   4.805   9.953   3.459 -0.1776 -0.3437  0.8422
  292MOL0     H39413   4.721   9.865   3.326 -1.2081 -1.4899  0.7609
  292MOL0     H39414   4.971   9.794   3.253  2.0333  0.6980 -0.2016
  292MOL0     H39415   5.033   9.907   3.370 -0.7608 -0.9874  1.0818
  292MOL0     H39416   4.835  10.073   3.237  0.7486  0.0109 -0.2791
  292MOL0     H39417   4.885   9.958   3.119  0.7935 -1.0428 -0.1627
  292MOL0     H39418   5.208  10.234   3.157  0.6246  0.0198  1.2302
  292MOL0     H39419   4.552   9.728   3.466 -0.7987 -2.4362  2.9097
  292MOL0     H39420   4.340   9.640   3.405 -1.8518 -2.3722  0.7088
  293MOL0     O39421   4.184   0.565   0.882  0.6456 -0.9124  0.5013
  293MOL0     C39422   4.232   0.463   0.849 -0.3381  0.1789 -0.3602
  293MOL0     O39423   4.157   0.353   0.818 -0.1337 -0.7146  0.7338
  293MOL0     C39424   4.019   0.371   0.811 -0.9840  0.7301  1.2336
  293MOL0     C39425   3.949   0.269   0.869  0.2448  0.9531  1.6785
  293MOL0     C39426   3.816   0.267   0.868  0.5542  0.5290  1.0682
  293MOL0     C39427   3.740   0.361   0.806  0.3599 -0.7800 -0.2371
  293MOL0     O39428   3.607   0.348   0.771  0.2230 -0.8535  0.4461
  293MOL0     C39429   3.532   0.223   0.787 -0.0547  0.5327 -0.3864
  293MOL0     C39430   3.409   0.253   0.709 -0.4055 -0.3974 -0.3624
  293MOL0     C39431   3.424   0.238   0.558 -0.0780 -0.0558  0.5476
  293MOL0     C39432   3.311   0.322   0.480 -0.4183 -0.5907  0.4158
  293MOL0     C39433   3.170   0.302   0.540 -0.4546 -1.2952 -0.4136
  293MOL0     C39434   3.065   0.384   0.465  0.0882 -0.5645  0.4260
  293MOL0     C39435   3.067   0.531   0.502 -0.8922  0.2966 -0.2136
  293MOL0     C39436   2.920   0.591   0.497 -0.8442  0.6693  0.3466
  293MOL0     N39437   2.912   0.735   0.473 -0.6605  0.0294  1.0388
  293MOL0     C39438   2.811   0.807   0.415  0.9674  0.7332  0.2215
  293MOL0     C39439   2.827   0.937   0.441 -0.0536  0.2308  0.4213
  293MOL0     C39440   2.742   1.058   0.410 -1.5324  0.3855 -0.8062
  293MOL0     C39441   2.596   1.025   0.398 -1.0093  0.6591  0.1137
  293MOL0     C39442   2.515   1.158   0.371 -0.4187 -0.0770  0.4927
  293MOL0     C39443   2.364   1.131   0.391 -0.0169 -0.6303  0.4106
  293MOL0     O39444   2.308   1.040   0.296 -0.1043  0.0226 -0.7859
  293MOL0     C39445   2.168   1.048   0.283  0.2204 -0.1906  0.5668
  293MOL0     C39446   2.077   1.125   0.354 -0.0359  0.2219 -0.1236
  293MOL0     C39447   1.940   1.129   0.323 -0.5785 -0.1172  0.2563
  293MOL0     C39448   1.846   1.214   0.407 -0.0553  0.0304 -0.7135
  293MOL0     C39449   1.886   1.067   0.206 -1.0558  0.0411 -0.1581
  293MOL0     C39450   1.746   1.073   0.159 -2.1517 -0.2362 -0.4460
  293MOL0     O39451   1.654   1.096   0.249  0.1314  0.4965 -0.0054
  293MOL0     C39452   1.517   1.097   0.217  0.2612 -0.4987 -0.8520
  293MOL0     C39453   1.436   0.982   0.192 -0.2957  0.5179 -0.3679
  293MOL0     C39454   1.300   0.993   0.155 -0.2234 -0.5720  0.0640
  293MOL0     C39455   1.254   1.124   0.134  0.0345  0.2943 -0.2928
  293MOL0     O39456   1.125   1.154   0.105  0.1605  0.3901 -0.2850
  293MOL0     C39457   1.032   1.052   0.148 -0.6221 -0.4683  0.8298
  293MOL0     C39458   0.894   1.115   0.159  0.0536  0.2737 -0.1478
  293MOL0     C39459   0.804   1.013   0.254 -0.6953  0.2657 -0.5814
  293MOL0     C39460   0.649   1.051   0.260  0.6229 -0.0533  0.1615
  293MOL0     C39461   0.572   0.989   0.375 -0.1258  0.4093  0.4473
  293MOL0     C39462   0.435   1.059   0.400 -0.2922  0.2143  0.3878
  293MOL0     C39463   0.335   1.024   0.283 -0.0632 -0.1534  0.1488
  293MOL0     C39464   0.201   1.100   0.315  0.1050  0.4593 -1.2633
  293MOL0    Cl39465   0.120   1.017   0.454 -0.1940 -0.0924  0.0668
  293MOL0     C39466   1.331   1.236   0.139 -0.1501  0.5336  0.1486
  293MOL0     C39467   1.465   1.217   0.180  0.0316 -0.6225  0.4411
  293MOL0     O39468   1.732   1.069   0.039 -0.1663 -0.2041 -0.1330
  293MOL0     C39469   1.985   0.985   0.143  0.0477 -0.0636 -0.4983
  293MOL0     C39470   2.120   0.981   0.173 -0.1302  0.1522 -0.5808
  293MOL0     N39471   2.947   0.948   0.506  0.5731 -0.8783 -0.3212
  293MOL0     N39472   2.991   0.830   0.530  0.1641  0.3369 -0.3050
  293MOL0     C39473   3.805   0.480   0.760 -0.1778  0.2976  0.5991
  293MOL0     C39474   3.946   0.485   0.764 -0.8068 -0.2741  0.0729
  293MOL0     C39475   4.377   0.450   0.836  0.7402 -1.2775 -0.8547
  293MOL0     C39476   4.435   0.361   0.742 -0.2028 -0.4059  0.7262
  293MOL0     C39477   4.571   0.342   0.736  0.1176 -0.4747  0.3519
  293MOL0     C39478   4.657   0.419   0.820 -0.0026  0.5839 -0.0853
  293MOL0     O39479   4.794   0.381   0.812  0.4128  0.3770 -0.0861
  293MOL0     C39480   4.882   0.440   0.905  0.3221  0.3166  0.4164
  293MOL0     C39481   5.001   0.343   0.911  0.4885 -0.6404 -0.1087
  293MOL0     C39482   5.089   0.336   0.790 -0.1955 -0.0128  0.6718
  293MOL0     C39483   5.197   0.231   0.806 -0.3788 -0.2983 -0.1200
  293MOL0     C39484   5.329   0.273   0.765  0.4267  0.1798 -0.6479
  293MOL0     C39485   5.443   0.288   0.716  0.3010  0.0212 -0.1491
  293MOL0     C39486   4.604   0.507   0.914  0.6426 -0.4764  0.1051
  293MOL0     C39487   4.463   0.531   0.916  0.8751  1.0537 -0.5428
  293MOL0     H39488   3.990   0.184   0.923 -1.1549 -0.6757  0.2748
  293MOL0     H39489   3.779   0.174   0.908 -0.8685  0.8538  0.5829
  293MOL0     H39490   3.586   0.135   0.751  1.7077  1.1262  0.6637
  293MOL0     H39491   3.514   0.216   0.894  0.8992 -0.4042 -0.2676
  293MOL0     H39492   3.326   0.191   0.743 -0.8293  0.1468 -0.3920
  293MOL0     H39493   3.380   0.357   0.727  0.3467  0.0846 -1.7234
  293MOL0     H39494   3.524   0.268   0.524  0.3116 -0.7348  1.0721
  293MOL0     H39495   3.418   0.130   0.540  0.4513 -0.5325  2.8223
  293MOL0     H39496   3.341   0.427   0.468 -0.4591 -0.6375 -0.1097
  293MOL0     H39497   3.298   0.290   0.377 -1.5611  1.0193  0.0292
  293MOL0     H39498   3.146   0.197   0.519  2.5457 -1.5747 -3.2693
  293MOL0     H39499   3.160   0.319   0.648  0.5241  4.4870 -0.9379
  293MOL0     H39500   3.076   0.376   0.356 -3.0717  3.7977 -0.5064
  293MOL0     H39501   2.966   0.338   0.477 -0.9298  1.3642 -0.0783
  293MOL0     H39502   3.113   0.543   0.601  1.0901 -0.4983 -0.9774
  293MOL0     H39503   3.131   0.580   0.428  0.9553  0.0522  1.1329
  293MOL0     H39504   2.866   0.579   0.591 -1.4651  0.8295  0.0144
  293MOL0     H39505   2.870   0.544   0.412  0.9378  2.1606 -1.6526
  293MOL0     H39506   2.734   0.757   0.357 -0.2204 -1.8002  3.6351
  293MOL0     H39507   2.754   1.124   0.497 -0.0992 -0.2864 -0.4649
  293MOL0     H39508   2.771   1.113   0.320 -0.7579  1.3403  0.0003
  293MOL0     H39509   2.563   0.979   0.492  0.7282 -0.3793  0.2630
  293MOL0     H39510   2.578   0.956   0.314  0.8572  0.8288 -0.4880
  293MOL0     H39511   2.530   1.196   0.270  0.1929 -3.1888 -0.7260
  293MOL0     H39512   2.548   1.229   0.448  0.1317 -3.1429  3.3335
  293MOL0     H39513   2.309   1.225   0.388  0.5902 -0.2972 -0.6608
  293MOL0     H39514   2.351   1.071   0.482 -0.3213  0.7584  1.3122
  293MOL0     H39515   2.112   1.185   0.438 -2.4354 -0.2067  1.2661
  293MOL0     H39516   1.900   1.266   0.486 -0.8894 -1.3967  0.8913
  293MOL0     H39517   1.800   1.291   0.345 -3.3981 -0.1110  1.2952
  293MOL0     H39518   1.772   1.146   0.452 -0.7451  0.1080 -1.7175
  293MOL0     H39519   1.477   0.882   0.196 -0.2943  0.5526  1.4151
  293MOL0     H39520   1.243   0.903   0.135  0.0692 -0.8016  0.2401
  293MOL0     H39521   1.043   0.969   0.078 -1.6424  0.8844 -1.0338
  293MOL0     H39522   1.060   1.024   0.250  1.4121  2.2780  1.1719
  293MOL0     H39523   0.892   1.211   0.211 -0.7853  0.1230  0.1232
  293MOL0     H39524   0.856   1.117   0.057 -1.4488  2.1835  0.3700
  293MOL0     H39525   0.842   1.031   0.355 -1.2235 -0.7801 -0.1840
  293MOL0     H39526   0.828   0.913   0.217 -1.2489  0.5138 -1.6609
  293MOL0     H39527   0.647   1.160   0.275  3.0689 -0.2056  2.2446
  293MOL0     H39528   0.602   1.020   0.167  0.7684 -2.2475  0.7665
  293MOL0     H39529   0.633   0.997   0.465  1.6979  1.1442 -0.7924
  293MOL0     H39530   0.559   0.884   0.347  2.4601 -0.4561  2.0608
  293MOL0     H39531   0.397   1.020   0.495 -2.9119  0.8343 -0.3119
  293MOL0     H39532   0.453   1.166   0.410  2.7006 -0.1569 -0.2109
  293MOL0     H39533   0.308   0.918   0.280 -0.6970  0.0160 -0.6221
  293MOL0     H39534   0.373   1.053   0.184 -0.6197  1.5413  0.4067
  293MOL0     H39535   0.130   1.089   0.232 -0.1363  0.5655 -1.0719
  293MOL0     H39536   0.220   1.205   0.340 -0.4848 -0.0614  1.6845
  293MOL0     H39537   1.287   1.332   0.113 -0.2600  0.9985  1.8910
  293MOL0     H39538   1.518   1.311   0.171 -1.0252  0.1450  1.7485
  293MOL0     H39539   1.949   0.926   0.059 -1.3070  0.2776 -0.1863
  293MOL0     H39540   2.191   0.924   0.114  0.4831  1.0739 -0.7647
  293MOL0     H39541   3.748   0.549   0.700  2.1784  2.4693  0.7358
  293MOL0     H39542   3.991   0.574   0.720 -1.7545 -0.1568 -0.7135
  293MOL0     H39543   4.381   0.299   0.672  1.0830 -1.6645  0.7873
  293MOL0     H39544   4.623   0.277   0.667  1.4226  3.3030 -2.5310
  293MOL0     H39545   4.904   0.540   0.866 -4.4678  0.8889 -1.4157
  293MOL0     H39546   4.830   0.448   1.001 -1.1310  1.2480 -0.4217
  293MOL0     H39547   4.949   0.247   0.926 -0.4995 -0.3699 -1.6230
  293MOL0     H39548   5.048   0.365   1.007 -3.3696  2.7720  1.3053
  293MOL0     H39549   5.125   0.433   0.755 -0.9077 -0.1295 -0.4126
  293MOL0     H39550   5.031   0.305   0.703  3.0463  1.3820 -2.2573
  293MOL0     H39551   5.174   0.149   0.737  1.7005  2.5151 -4.6079
  293MOL0     H39552   5.205   0.195   0.909 -2.4467  0.6236  0.4153
  293MOL0     H39553   5.540   0.303   0.671 -0.8358  1.7123 -2.2269
  293MOL0     H39554   4.663   0.579   0.968  1.0658  2.2845 -3.6600
  293MOL0     H39555   4.423   0.606   0.982 -2.5684 -1.1368  0.0995
  294MOL0     O39556  10.212   3.799   8.228 -0.8601  0.8856 -0.0032
  294MOL0     C39557  10.163   3.764   8.335  0.2272  0.2831  0.2646
  294MOL0     O39558  10.026   3.769   8.368  0.0895 -0.0746 -0.4825
  294MOL0     C39559   9.949   3.780   8.255 -0.4810  0.0065 -0.9361
  294MOL0     C39560   9.900   3.901   8.211  0.0699  0.1532  0.3527
  294MOL0     C39561   9.824   3.904   8.092 -0.2716 -0.4130 -0.2548
  294MOL0     C39562   9.799   3.780   8.019 -0.4436 -0.6362 -0.9718
  294MOL0     O39563   9.731   3.771   7.897  0.2691 -0.8749  0.5660
  294MOL0     C39564   9.667   3.893   7.856 -0.2334 -0.2066  0.7398
  294MOL0     C39565   9.605   3.880   7.712  0.8857  0.8789  0.5181
  294MOL0     C39566   9.591   4.024   7.648  0.1099  0.5069  0.1823
  294MOL0     C39567   9.505   4.129   7.726 -0.4765 -0.7040  0.3667
  294MOL0     C39568   9.458   4.255   7.656  1.4199  0.2139  0.4530
  294MOL0     C39569   9.421   4.370   7.748  0.3433  0.0510  0.4996
  294MOL0     C39570   9.340   4.471   7.669 -0.1307 -0.1538  0.3675
  294MOL0     C39571   9.189   4.440   7.656 -0.1036 -0.5407  0.0487
  294MOL0     N39572   9.122   4.566   7.620 -0.0635 -0.3759 -0.8427
  294MOL0     C39573   9.177   4.662   7.532 -0.1893  0.5197  0.0556
  294MOL0     C39574   9.123   4.777   7.568  0.0031 -0.6410 -0.0295
  294MOL0     C39575   9.154   4.907   7.495  0.2709  0.4217  1.0738
  294MOL0     C39576   9.304   4.942   7.504  0.2803  0.2930 -0.1433
  294MOL0     C39577   9.350   4.949   7.655 -0.3486  0.8184  0.6783
  294MOL0     C39578   9.500   4.988   7.676  0.9914  0.4412  0.0320
  294MOL0     O39579   9.571   4.884   7.614  0.6437 -0.3624 -0.2621
  294MOL0     C39580   9.694   4.856   7.664  0.6710 -0.4347  0.0052
  294MOL0     C39581   9.810   4.876   7.581  0.0734 -0.9311  0.3332
  294MOL0     C39582   9.938   4.866   7.619  0.5537  0.6298 -0.3936
  294MOL0     C39583  10.049   4.915   7.527  0.2227 -0.4566  0.8332
  294MOL0     C39584   9.956   4.813   7.751 -1.0223  0.2686 -0.0470
  294MOL0     C39585  10.096   4.796   7.819 -0.2456  0.0552  0.7042
  294MOL0     O39586  10.097   4.746   7.946 -0.1940  0.1713 -0.1332
  294MOL0     C39587  10.221   4.712   8.002 -0.5750  0.6452  0.6844
  294MOL0     C39588  10.269   4.580   7.994  0.1513 -0.5350  0.3495
  294MOL0     C39589  10.387   4.535   8.056 -0.1557  0.8247  0.3595
  294MOL0     C39590  10.471   4.631   8.112  0.2759 -0.1537 -0.0648
  294MOL0     O39591  10.580   4.592   8.177  0.2306 -0.0959  0.0758
  294MOL0     C39592  10.704   4.591   8.103 -0.0916 -0.2781 -0.1048
  294MOL0     C39593  10.746   4.713   8.028  0.0686  0.0234  0.2336
  294MOL0     C39594  10.894   4.704   7.989  0.5704  0.0839 -0.3074
  294MOL0     C39595  10.897   4.608   7.865 -0.2779  0.5101  0.6395
  294MOL0     C39596  11.034   4.574   7.810 -0.2219 -0.2792 -0.5506
  294MOL0     C39597  11.124   4.505   7.911 -0.1395  0.0621 -0.0247
  294MOL0     C39598  11.235   4.414   7.858  0.3069  0.4898  0.3835
  294MOL0     C39599  11.272   4.297   7.941 -0.0261 -0.0404  0.4849
  294MOL0    Cl39600  11.341   4.367   8.091  0.5310  0.2293 -0.0936
  294MOL0     C39601  10.426   4.763   8.119  0.4566 -0.1808  0.4813
  294MOL0     C39602  10.297   4.806   8.068 -0.4842  0.3519  0.0717
  294MOL0     O39603  10.202   4.805   7.748  0.6091 -0.4833  0.3919
  294MOL0     C39604   9.842   4.777   7.830 -0.0896  0.8386  0.1034
  294MOL0     C39605   9.717   4.802   7.786 -0.1102  0.5005 -0.7777
  294MOL0     N39606   9.062   4.767   7.690 -0.4221 -0.5879  0.0513
  294MOL0     N39607   9.068   4.642   7.721  0.2907  0.7587  0.0598
  294MOL0     C39608   9.842   3.662   8.069 -0.5054  0.1848  0.1538
  294MOL0     C39609   9.918   3.665   8.185 -0.4810 -0.1913 -0.3710
  294MOL0     C39610  10.252   3.715   8.443 -1.3461 -0.5793 -0.0962
  294MOL0     C39611  10.396   3.738   8.436 -0.0250 -0.9217 -0.6601
  294MOL0     C39612  10.473   3.710   8.558 -0.2581  0.3461  0.2699
  294MOL0     C39613  10.408   3.661   8.673  0.3920 -0.2950  0.2598
  294MOL0     O39614  10.470   3.650   8.796  0.7461 -0.7422 -0.0677
  294MOL0     C39615  10.611   3.630   8.810 -0.2194 -0.7359 -0.6792
  294MOL0     C39616  10.647   3.541   8.933  0.9530 -0.8689 -0.8727
  294MOL0     C39617  10.565   3.416   8.948  0.4099  0.1931  0.5753
  294MOL0     C39618  10.621   3.300   9.036 -0.4183 -0.7151 -0.2893
  294MOL0     C39619  10.760   3.271   9.006 -0.4875  1.0521  0.4479
  294MOL0     C39620  10.880   3.243   8.999  0.1563 -0.6090 -0.3732
  294MOL0     C39621  10.271   3.641   8.669  0.2765 -0.6993 -0.0511
  294MOL0     C39622  10.192   3.673   8.561 -0.3047  0.7797 -0.0054
  294MOL0     H39623   9.931   3.990   8.264 -2.6774  2.3431 -1.4510
  294MOL0     H39624   9.793   4.003   8.061 -2.0579 -0.6271  0.7219
  294MOL0     H39625   9.594   3.930   7.929 -0.0336 -0.3106  0.9942
  294MOL0     H39626   9.743   3.972   7.850  0.1632 -0.7023 -1.1632
  294MOL0     H39627   9.670   3.836   7.635 -0.6452  0.4771 -0.5815
  294MOL0     H39628   9.512   3.823   7.707  1.8610 -0.9831  2.2264
  294MOL0     H39629   9.689   4.067   7.626 -0.1036  0.9157  0.0225
  294MOL0     H39630   9.537   4.016   7.554 -0.1421 -4.0179  0.5007
  294MOL0     H39631   9.414   4.076   7.755 -2.6634  2.1490 -0.7597
  294MOL0     H39632   9.565   4.167   7.808 -2.1572 -1.9622  2.2793
  294MOL0     H39633   9.528   4.304   7.588 -1.8499  4.9606 -0.0397
  294MOL0     H39634   9.369   4.231   7.598  2.1675 -0.9906 -0.2249
  294MOL0     H39635   9.373   4.341   7.841  2.0070  4.2002  2.9645
  294MOL0     H39636   9.518   4.409   7.782  0.1848 -0.7432  1.9635
  294MOL0     H39637   9.348   4.567   7.721 -0.7053 -1.0726  2.2600
  294MOL0     H39638   9.382   4.488   7.570 -0.2538  1.4530  0.5641
  294MOL0     H39639   9.149   4.414   7.754 -3.4048  1.4105 -0.6196
  294MOL0     H39640   9.164   4.357   7.590  0.2786 -0.9763  0.4444
  294MOL0     H39641   9.240   4.657   7.444  0.8533  3.2341  0.5505
  294MOL0     H39642   9.133   4.889   7.389 -0.1430  1.6708  0.9226
  294MOL0     H39643   9.091   4.987   7.536 -1.6712 -0.3661 -0.2410
  294MOL0     H39644   9.314   5.044   7.466 -0.7474 -0.1669 -1.7155
  294MOL0     H39645   9.360   4.878   7.436 -0.3568 -2.4209  1.7073
  294MOL0     H39646   9.340   4.846   7.690 -2.6970  0.2708 -1.3229
  294MOL0     H39647   9.277   4.995   7.722 -2.3957 -2.7282  1.0920
  294MOL0     H39648   9.508   4.994   7.785 -1.4962 -1.5399  0.4136
  294MOL0     H39649   9.528   5.082   7.628  2.6713 -1.4010 -2.8991
  294MOL0     H39650   9.778   4.911   7.484 -1.1297 -0.3032  0.9316
  294MOL0     H39651  10.010   4.960   7.435 -0.2442 -0.0120  1.2389
  294MOL0     H39652  10.097   4.994   7.586  1.6311 -2.1234  1.9857
  294MOL0     H39653  10.115   4.831   7.505  1.1794  0.8928 -1.8981
  294MOL0     H39654  10.211   4.511   7.935 -3.6058  0.6551  2.3232
  294MOL0     H39655  10.403   4.428   8.070 -1.2883  0.1567 -2.6666
  294MOL0     H39656  10.779   4.580   8.182 -1.3944 -0.1712  1.1908
  294MOL0     H39657  10.707   4.504   8.036  2.1970 -1.0780  0.9347
  294MOL0     H39658  10.678   4.728   7.944  2.9270 -1.2049 -2.4973
  294MOL0     H39659  10.743   4.804   8.089 -0.3929  0.6920 -0.7612
  294MOL0     H39660  10.961   4.664   8.066 -2.3239 -2.4793  1.0951
  294MOL0     H39661  10.932   4.800   7.954 -2.7290  1.5632 -0.1973
  294MOL0     H39662  10.847   4.513   7.888  1.7904 -0.7276  0.3340
  294MOL0     H39663  10.837   4.659   7.789 -2.0587  0.9687  2.2911
  294MOL0     H39664  11.078   4.668   7.775 -1.8407  0.8881  0.4514
  294MOL0     H39665  11.027   4.501   7.729 -1.8021  0.2750 -0.9511
  294MOL0     H39666  11.173   4.583   7.971  1.5584 -1.9132  1.3282
  294MOL0     H39667  11.061   4.458   7.988  0.8106  0.5278  1.0795
  294MOL0     H39668  11.318   4.477   7.825  0.9503 -0.4225  0.2334
  294MOL0     H39669  11.199   4.360   7.770  2.2857  0.0151 -0.2036
  294MOL0     H39670  11.345   4.236   7.886  1.0737  1.9808 -0.3942
  294MOL0     H39671  11.183   4.235   7.955 -1.0581  0.4981 -2.7606
  294MOL0     H39672  10.472   4.843   8.176  0.3796  0.9189 -0.9478
  294MOL0     H39673  10.255   4.904   8.090  0.2095  0.0879  3.0042
  294MOL0     H39674   9.854   4.731   7.928  1.3135  1.7451  0.3836
  294MOL0     H39675   9.630   4.772   7.844  1.0312  2.0415  1.9103
  294MOL0     H39676   9.836   3.573   8.006  1.9715  1.0344 -1.4215
  294MOL0     H39677   9.959   3.573   8.225  2.9983  1.4654  0.2473
  294MOL0     H39678  10.445   3.776   8.347  0.2234 -0.3429 -0.2886
  294MOL0     H39679  10.580   3.724   8.564 -0.3205  0.2823  2.0441
  294MOL0     H39680  10.657   3.588   8.719 -0.8060  2.1840 -2.4720
  294MOL0     H39681  10.660   3.726   8.827 -1.8251 -0.1157  0.6568
  294MOL0     H39682  10.635   3.605   9.021 -0.9085 -0.0588 -1.6708
  294MOL0     H39683  10.749   3.508   8.912  0.4551 -2.6457 -0.6419
  294MOL0     H39684  10.555   3.368   8.850  1.0258 -2.0064  1.5104
  294MOL0     H39685  10.464   3.438   8.986  0.1949 -0.0759  0.1707
  294MOL0     H39686  10.561   3.212   9.011 -1.0631  0.1902 -2.1131
  294MOL0     H39687  10.607   3.327   9.141 -0.7203 -0.5589 -0.3668
  294MOL0     H39688  10.983   3.215   9.006  0.2143 -0.6069 -1.1182
  294MOL0     H39689  10.222   3.607   8.760  0.8211 -2.4170 -0.3571
  294MOL0     H39690  10.085   3.659   8.567 -0.3281 -0.9397 -2.6136
  295MOL0     O39691   7.415   0.543   6.899  0.4897  0.3012 -0.5536
  295MOL0     C39692   7.467   0.473   6.821  0.4614  0.6970 -0.1966
  295MOL0     O39693   7.403   0.373   6.755  0.0205 -0.5843  0.0404
  295MOL0     C39694   7.267   0.356   6.785  0.7348  0.0359 -0.2789
  295MOL0     C39695   7.165   0.456   6.787  0.9766 -0.3395 -0.4564
  295MOL0     C39696   7.025   0.431   6.813  0.7448  0.8604 -0.6838
  295MOL0     C39697   6.983   0.297   6.843  0.2293 -1.6516 -0.1458
  295MOL0     O39698   6.856   0.255   6.871  0.0706 -0.3448  0.2620
  295MOL0     C39699   6.761   0.358   6.888  0.5752 -0.6108  0.1268
  295MOL0     C39700   6.624   0.298   6.932 -0.1706  0.1801  0.3426
  295MOL0     C39701   6.514   0.404   6.924 -0.3204 -0.4965  1.5889
  295MOL0     C39702   6.383   0.360   6.980 -0.3949 -0.3598  0.0749
  295MOL0     C39703   6.269   0.464   6.967  0.3049 -0.1701  0.0372
  295MOL0     C39704   6.142   0.411   7.037 -0.0810  0.1943 -0.3959
  295MOL0     C39705   6.020   0.478   6.979  0.0228 -0.6846 -0.1274
  295MOL0     C39706   5.997   0.621   7.037  0.0545 -0.2093  0.3118
  295MOL0     N39707   5.886   0.694   6.979 -0.4647 -0.0062 -0.8912
  295MOL0     C39708   5.873   0.834   6.976  0.0527  0.0718  0.7728
  295MOL0     C39709   5.779   0.860   6.885  0.8941  0.7518 -0.6281
  295MOL0     C39710   5.718   0.996   6.844  0.1349  0.6226 -0.4767
  295MOL0     C39711   5.639   1.075   6.962 -0.6124 -0.1689 -0.3636
  295MOL0     C39712   5.526   0.990   7.028 -0.3701 -0.4893  0.0169
  295MOL0     C39713   5.430   0.940   6.927  0.0963  0.2139  0.2327
  295MOL0     O39714   5.366   1.045   6.848 -0.5224  0.5806  0.4629
  295MOL0     C39715   5.255   1.019   6.769  0.5816 -0.3820 -0.6299
  295MOL0     C39716   5.207   0.903   6.710 -0.9104  0.7666  1.3424
  295MOL0     C39717   5.077   0.891   6.658  0.1197 -0.7423  0.6641
  295MOL0     C39718   5.036   0.753   6.602 -0.3345 -0.5977 -0.1212
  295MOL0     C39719   4.990   1.003   6.651 -0.9262 -0.0285  0.6666
  295MOL0     C39720   4.853   0.996   6.584 -0.4418  0.1805 -0.0444
  295MOL0     O39721   4.812   1.120   6.561  0.7946 -0.2065  0.0604
  295MOL0     C39722   4.685   1.145   6.516 -0.2034 -0.3980  0.3427
  295MOL0     C39723   4.572   1.154   6.598  0.2268 -0.1601  0.4665
  295MOL0     C39724   4.444   1.178   6.542  0.3456 -0.6621 -0.2479
  295MOL0     C39725   4.420   1.187   6.405  0.1233 -0.4131  0.5830
  295MOL0     O39726   4.286   1.194   6.359 -0.8816  0.0396  0.0182
  295MOL0     C39727   4.248   1.221   6.219  0.1140  1.1571 -0.2021
  295MOL0     C39728   4.098   1.236   6.212  0.5709 -0.0704 -0.1968
  295MOL0     C39729   4.053   1.366   6.268  0.3176 -1.2234  0.1183
  295MOL0     C39730   3.894   1.361   6.297  0.2805 -0.1035  0.1293
  295MOL0     C39731   3.834   1.500   6.338 -1.1303 -0.6953  0.8357
  295MOL0     C39732   3.807   1.583   6.208 -0.8993  0.6287  0.1293
  295MOL0     C39733   3.788   1.731   6.239 -0.2084  0.2637 -0.5662
  295MOL0     C39734   3.716   1.790   6.111 -0.2792  0.1803  0.0422
  295MOL0    Cl39735   3.681   1.960   6.148 -0.4609 -0.2687 -0.0235
  295MOL0     C39736   4.528   1.187   6.322  0.5485 -0.7286  0.8845
  295MOL0     C39737   4.656   1.170   6.378 -0.1410 -0.3505 -0.2329
  295MOL0     O39738   4.794   0.894   6.557  0.9135  0.7357  0.0104
  295MOL0     C39739   5.038   1.123   6.710  0.3473  0.0867 -0.4907
  295MOL0     C39740   5.167   1.132   6.766  0.0030 -0.1537  0.3859
  295MOL0     N39741   5.731   0.733   6.845 -0.0455 -0.5819 -0.1932
  295MOL0     N39742   5.797   0.640   6.889  0.5565  0.5501  0.4600
  295MOL0     C39743   7.082   0.204   6.834  0.0376 -0.1947 -0.4376
  295MOL0     C39744   7.222   0.227   6.818 -0.1676  0.6181 -0.3840
  295MOL0     C39745   7.603   0.495   6.782 -0.1452 -0.1040 -0.0717
  295MOL0     C39746   7.659   0.622   6.814 -0.0784 -0.2146  0.6293
  295MOL0     C39747   7.765   0.666   6.731 -0.5081 -0.8726 -1.8949
  295MOL0     C39748   7.824   0.585   6.637 -0.3764  0.5197 -0.5230
  295MOL0     O39749   7.928   0.624   6.557  0.5049  0.2862  0.0633
  295MOL0     C39750   7.910   0.759   6.490 -0.3599  0.1431  1.0502
  295MOL0     C39751   8.035   0.781   6.401 -0.1129 -0.0469  0.1754
  295MOL0     C39752   8.146   0.809   6.498 -0.0144  0.2679 -0.9342
  295MOL0     C39753   8.295   0.785   6.446  0.0804 -0.1444  0.3979
  295MOL0     C39754   8.329   0.639   6.421 -0.5017 -0.5704  1.0454
  295MOL0     C39755   8.350   0.520   6.418  0.1413  0.4307 -0.3946
  295MOL0     C39756   7.781   0.458   6.622 -0.0355 -0.1882  0.4787
  295MOL0     C39757   7.671   0.410   6.693 -0.7897 -0.0101  0.8141
  295MOL0     H39758   7.190   0.561   6.776  1.1124 -0.3451 -0.2146
  295MOL0     H39759   6.957   0.516   6.809 -0.0878  0.1623 -2.2530
  295MOL0     H39760   6.796   0.432   6.960  0.2298  1.4940 -1.7414
  295MOL0     H39761   6.749   0.416   6.795 -1.8422  1.3137  1.5061
  295MOL0     H39762   6.591   0.221   6.862  1.1534  0.3874 -0.5492
  295MOL0     H39763   6.638   0.251   7.030  0.6425 -1.5750 -0.5666
  295MOL0     H39764   6.560   0.490   6.973  4.5891 -1.9483  0.1443
  295MOL0     H39765   6.487   0.421   6.819 -3.3598 -3.5083  1.7002
  295MOL0     H39766   6.353   0.259   6.950  1.6579 -1.1558  0.5598
  295MOL0     H39767   6.406   0.346   7.086 -1.5509  1.3015  0.5887
  295MOL0     H39768   6.308   0.558   7.005 -0.7646  0.6316 -0.8056
  295MOL0     H39769   6.243   0.468   6.861 -1.4492 -0.0746  0.4467
  295MOL0     H39770   6.138   0.302   7.025  2.3716 -0.2410  1.6961
  295MOL0     H39771   6.140   0.429   7.145  0.7616 -1.1594 -0.1188
  295MOL0     H39772   6.023   0.483   6.869 -2.7665 -0.1987 -0.2444
  295MOL0     H39773   5.936   0.418   7.014 -1.5414  0.3515 -1.9622
  295MOL0     H39774   6.094   0.671   7.034  0.6644 -1.4166 -1.8701
  295MOL0     H39775   5.979   0.607   7.144 -0.2304  1.0702  0.4476
  295MOL0     H39776   5.935   0.903   7.033 -0.1878 -1.6966  3.3876
  295MOL0     H39777   5.796   1.060   6.803  3.5056 -1.7652  1.6981
  295MOL0     H39778   5.649   0.977   6.761 -0.3502 -1.2968  0.3113
  295MOL0     H39779   5.592   1.165   6.922  3.1740  1.7606 -0.8923
  295MOL0     H39780   5.720   1.101   7.031 -0.0816 -1.2140 -0.5597
  295MOL0     H39781   5.481   1.058   7.101  3.9256  1.1429  1.5020
  295MOL0     H39782   5.562   0.901   7.081 -0.2102 -0.5371 -0.1685
  295MOL0     H39783   5.348   0.888   6.978  1.8734 -2.7600  0.2724
  295MOL0     H39784   5.469   0.854   6.871  0.8277  1.1210 -0.6980
  295MOL0     H39785   5.282   0.826   6.703  0.7611  2.4253 -0.2030
  295MOL0     H39786   5.048   0.760   6.494 -1.2482  5.2609 -0.1716
  295MOL0     H39787   5.108   0.688   6.653 -0.9546  0.6082  2.4827
  295MOL0     H39788   4.938   0.715   6.631 -0.1505 -1.0618 -0.0967
  295MOL0     H39789   4.591   1.131   6.702  0.2788  2.4014  1.1006
  295MOL0     H39790   4.361   1.184   6.611  2.2496  2.6535  2.0478
  295MOL0     H39791   4.303   1.310   6.186 -0.5853  2.5387  2.1723
  295MOL0     H39792   4.275   1.140   6.150  4.2735  1.8689  0.3164
  295MOL0     H39793   4.088   1.243   6.103  0.2122  1.9137 -0.0861
  295MOL0     H39794   4.044   1.152   6.257 -1.2826  1.6605  1.0041
  295MOL0     H39795   4.067   1.443   6.193  0.4358  0.6071  1.9325
  295MOL0     H39796   4.108   1.396   6.358 -2.1025 -0.5591  1.4705
  295MOL0     H39797   3.840   1.325   6.209 -1.6065  1.5718  0.5090
  295MOL0     H39798   3.875   1.291   6.379  0.1176 -0.1428  0.0594
  295MOL0     H39799   3.896   1.556   6.409 -1.6851  0.5915  0.3231
  295MOL0     H39800   3.737   1.491   6.387 -1.2010  2.4491  1.4575
  295MOL0     H39801   3.892   1.569   6.140 -1.2980  1.7898 -0.6403
  295MOL0     H39802   3.714   1.541   6.168 -0.0403  0.2438 -1.5637
  295MOL0     H39803   3.884   1.781   6.245 -2.4689  4.9854  0.9654
  295MOL0     H39804   3.720   1.752   6.323 -1.6647 -2.7868 -0.8086
  295MOL0     H39805   3.622   1.739   6.087 -0.3163  1.7531 -3.9852
  295MOL0     H39806   3.786   1.777   6.028 -1.1386 -2.7492 -0.3307
  295MOL0     H39807   4.518   1.197   6.215 -1.5403 -0.1559  1.0817
  295MOL0     H39808   4.738   1.182   6.307 -0.8288  1.2760 -0.7946
  295MOL0     H39809   4.986   1.219   6.710  0.7479  0.3312  1.0283
  295MOL0     H39810   5.196   1.219   6.824  0.0015 -0.5546  0.9982
  295MOL0     H39811   7.063   0.098   6.848  1.7241 -0.4585  0.1400
  295MOL0     H39812   7.286   0.140   6.816  0.1505  0.7869  1.0863
  295MOL0     H39813   7.626   0.692   6.890  3.2915 -2.2893  4.4341
  295MOL0     H39814   7.792   0.769   6.748  2.2346 -1.7723 -0.0692
  295MOL0     H39815   7.819   0.757   6.430  0.3115  3.8447 -0.3794
  295MOL0     H39816   7.883   0.836   6.562 -2.7552 -1.8778  2.4546
  295MOL0     H39817   8.016   0.856   6.324 -0.3181 -0.4737 -0.1931
  295MOL0     H39818   8.055   0.690   6.344  1.4254  0.3045  0.0964
  295MOL0     H39819   8.140   0.754   6.592  3.5784  1.0883 -0.0517
  295MOL0     H39820   8.135   0.914   6.528  1.2108 -0.6240  3.4420
  295MOL0     H39821   8.370   0.832   6.511  2.2390 -0.9748 -1.3682
  295MOL0     H39822   8.303   0.836   6.349  0.5684 -2.0737 -0.6299
  295MOL0     H39823   8.378   0.418   6.434 -1.4397 -0.1974 -1.4323
  295MOL0     H39824   7.829   0.387   6.556  0.4739  1.1306 -0.6005
  295MOL0     H39825   7.627   0.311   6.682 -3.2940  1.1857 -0.8406
  296MOL0     O39826  10.535   5.906  10.736  0.7668  0.9999  0.2047
  296MOL0     C39827  10.546   5.922  10.610  0.0855  0.4429 -0.6586
  296MOL0     O39828  10.441   5.913  10.526 -0.6764  0.3123 -0.1441
  296MOL0     C39829  10.321   5.856  10.569 -0.2611 -0.1702 -0.6281
  296MOL0     C39830  10.250   5.911  10.670 -0.5241  1.0533 -0.8005
  296MOL0     C39831  10.123   5.866  10.695  0.7317  0.3331  0.2108
  296MOL0     C39832  10.068   5.762  10.631  0.5478 -0.5430  0.9022
  296MOL0     O39833   9.933   5.708  10.650 -0.2608 -0.2338  0.0821
  296MOL0     C39834   9.888   5.706  10.786 -0.1085  0.3183 -0.3714
  296MOL0     C39835   9.768   5.613  10.805 -0.7982 -0.1412  1.2700
  296MOL0     C39836   9.650   5.659  10.713 -1.3883 -0.6056 -0.5690
  296MOL0     C39837   9.532   5.572  10.756  0.5081  0.3256  0.4596
  296MOL0     C39838   9.411   5.635  10.696  0.6919  0.5369  0.4243
  296MOL0     C39839   9.287   5.545  10.741 -0.0050 -0.6534  0.3559
  296MOL0     C39840   9.171   5.571  10.648 -0.1774 -0.3634 -0.5466
  296MOL0     C39841   9.090   5.694  10.687  0.7548 -0.6343 -0.2947
  296MOL0     N39842   8.958   5.679  10.624 -0.1690 -0.0062 -0.1179
  296MOL0     C39843   8.929   5.630  10.499 -0.3664  0.3365 -0.8255
  296MOL0     C39844   8.809   5.684  10.461 -0.4531 -0.1821 -0.3730
  296MOL0     C39845   8.740   5.655  10.330 -0.7599 -0.7541  0.7320
  296MOL0     C39846   8.617   5.741  10.311 -0.1125 -0.5967 -0.2982
  296MOL0     C39847   8.522   5.692  10.203 -0.1931 -0.1043  0.2582
  296MOL0     C39848   8.407   5.783  10.171  0.3159 -1.0216  0.1561
  296MOL0     O39849   8.314   5.708  10.082 -0.0017 -0.6069  0.0248
  296MOL0     C39850   8.193   5.762  10.053  0.4333 -0.3164  0.1213
  296MOL0     C39851   8.110   5.699   9.962 -1.1862 -0.2251 -0.3693
  296MOL0     C39852   7.987   5.746   9.924 -0.1130 -0.0717  0.2338
  296MOL0     C39853   7.913   5.660   9.822 -0.3114  0.0088  0.5840
  296MOL0     C39854   7.934   5.862   9.986  0.7526  0.3098  0.4288
  296MOL0     C39855   7.804   5.924   9.950  0.4158  0.2293  0.2091
  296MOL0     O39856   7.755   6.019  10.032  0.2666 -0.0276 -0.2623
  296MOL0     C39857   7.626   6.067  10.037  1.0187 -0.4269  0.1140
  296MOL0     C39858   7.511   6.002   9.985 -0.6362 -1.2211 -0.2756
  296MOL0     C39859   7.389   6.069   9.995  0.6666 -0.3952  0.0836
  296MOL0     C39860   7.373   6.194  10.046  0.2050 -0.3057  0.3619
  296MOL0     O39861   7.247   6.249  10.055  0.1803 -0.1856  0.2856
  296MOL0     C39862   7.236   6.390  10.071 -0.2717  0.2212 -0.1742
  296MOL0     C39863   7.237   6.452  10.213  0.3162  1.2186 -0.3377
  296MOL0     C39864   7.240   6.600  10.213 -0.4011 -0.3317 -0.9815
  296MOL0     C39865   7.251   6.645  10.353 -0.3565 -0.8925 -0.4532
  296MOL0     C39866   7.283   6.799  10.363  0.0118 -0.3096 -0.1607
  296MOL0     C39867   7.167   6.892  10.340  0.1114 -0.0728  0.7233
  296MOL0     C39868   7.204   7.038  10.378 -0.6369  0.7160 -0.3993
  296MOL0     C39869   7.085   7.122  10.403  0.5951  0.9251 -0.2926
  296MOL0    Cl39870   7.000   7.148  10.255  0.0036 -0.1283 -0.1398
  296MOL0     C39871   7.482   6.260  10.101 -0.5931 -0.1390  0.2694
  296MOL0     C39872   7.609   6.199  10.085 -0.5677 -0.4244  0.2314
  296MOL0     O39873   7.752   5.890   9.849 -0.6174 -0.5989  0.5841
  296MOL0     C39874   8.008   5.925  10.089 -0.9749  0.6434  0.6290
  296MOL0     C39875   8.136   5.878  10.121  0.0821 -0.1840  0.4434
  296MOL0     N39876   8.762   5.760  10.566 -0.7382 -0.5106 -0.6552
  296MOL0     N39877   8.845   5.753  10.663 -0.2891  0.0794 -0.2330
  296MOL0     C39878  10.140   5.706  10.528  0.5030 -0.5270  0.0064
  296MOL0     C39879  10.261   5.749  10.497  0.4996 -0.5153  0.1981
  296MOL0     C39880  10.675   5.976  10.560  0.5097 -0.1030  0.3801
  296MOL0     C39881  10.779   6.020  10.649 -0.1777 -0.9527 -0.5435
  296MOL0     C39882  10.887   6.102  10.610 -0.5748  0.0160  0.7574
  296MOL0     C39883  10.904   6.124  10.472  0.0691 -0.0135 -0.6580
  296MOL0     O39884  11.012   6.193  10.428  0.1116  0.4236  0.5928
  296MOL0     C39885  11.142   6.161  10.481 -0.1001  0.4081 -0.1039
  296MOL0     C39886  11.232   6.289  10.469  0.3673 -0.1495 -0.3396
  296MOL0     C39887  11.270   6.335  10.331  0.8999  0.9885 -0.2488
  296MOL0     C39888  11.357   6.461  10.327 -0.9995  0.0613 -0.2547
  296MOL0     C39889  11.492   6.426  10.368 -0.4383 -0.9515 -0.5902
  296MOL0     C39890  11.601   6.397  10.412 -0.3508 -0.5287 -0.4942
  296MOL0     C39891  10.811   6.077  10.382  0.6814 -0.0471  0.0021
  296MOL0     C39892  10.686   6.019  10.422 -0.6064  0.1856  0.6972
  296MOL0     H39893  10.288   6.001  10.717 -0.2195 -0.3201  1.8131
  296MOL0     H39894  10.061   5.919  10.767 -1.1904 -2.8956  1.1026
  296MOL0     H39895   9.971   5.688  10.854  0.1321  0.4770 -0.6224
  296MOL0     H39896   9.849   5.802  10.821 -2.1344 -1.0660  1.4345
  296MOL0     H39897   9.790   5.512  10.769 -1.4514  0.0971  0.1403
  296MOL0     H39898   9.735   5.622  10.908  1.1548 -0.2173  1.9533
  296MOL0     H39899   9.622   5.761  10.737  1.3573  0.0660  0.1869
  296MOL0     H39900   9.672   5.655  10.606 -0.7226  1.2247 -0.5232
  296MOL0     H39901   9.534   5.467  10.723  0.7851  0.0380  1.3706
  296MOL0     H39902   9.512   5.575  10.863 -0.6173 -0.9373  0.3210
  296MOL0     H39903   9.399   5.740  10.726 -0.5808  1.2922 -2.3421
  296MOL0     H39904   9.421   5.641  10.587 -0.2153 -3.0056  0.0085
  296MOL0     H39905   9.325   5.445  10.718  2.5065  0.4538 -0.7573
  296MOL0     H39906   9.268   5.564  10.847 -2.3763  2.4614 -0.4828
  296MOL0     H39907   9.204   5.594  10.546 -1.0191  1.8619 -0.3729
  296MOL0     H39908   9.106   5.484  10.647 -0.5651 -0.0762 -2.2275
  296MOL0     H39909   9.145   5.787  10.672  0.0336 -0.0239  0.6921
  296MOL0     H39910   9.077   5.677  10.794  4.0496  1.1704  0.5064
  296MOL0     H39911   8.995   5.566  10.442 -0.3939  0.5256 -1.0706
  296MOL0     H39912   8.813   5.664  10.249 -0.0778 -2.8410  1.0578
  296MOL0     H39913   8.707   5.551  10.323 -4.7618  0.3218  1.4096
  296MOL0     H39914   8.654   5.840  10.285  1.8939 -0.3138  2.9947
  296MOL0     H39915   8.558   5.743  10.403  0.7698  4.0273  0.3770
  296MOL0     H39916   8.477   5.597  10.236 -0.8988  0.4699  0.9839
  296MOL0     H39917   8.572   5.678  10.107 -0.6046 -0.1411  0.0466
  296MOL0     H39918   8.444   5.861  10.103  0.7249 -1.4273 -0.0893
  296MOL0     H39919   8.364   5.813  10.267 -0.8614  0.9979 -0.9299
  296MOL0     H39920   8.157   5.616   9.910  0.7806  0.8145 -0.3078
  296MOL0     H39921   7.819   5.618   9.859  0.1543 -0.5381  1.1779
  296MOL0     H39922   7.888   5.711   9.729 -0.0698 -0.3235  0.3314
  296MOL0     H39923   7.974   5.572   9.800  2.0362  1.4636  0.8272
  296MOL0     H39924   7.517   5.900   9.947 -1.1164 -1.7826  1.1232
  296MOL0     H39925   7.293   6.024   9.972 -0.9979  2.0550  1.6257
  296MOL0     H39926   7.315   6.440  10.014 -0.9354  1.8209  0.2427
  296MOL0     H39927   7.137   6.413  10.031 -0.1808  2.4487  0.7226
  296MOL0     H39928   7.140   6.425  10.254  1.5630 -1.0419  1.3449
  296MOL0     H39929   7.311   6.417  10.285 -0.1470 -1.4467 -1.0705
  296MOL0     H39930   7.155   6.640  10.158  3.0314  3.6008 -4.1213
  296MOL0     H39931   7.322   6.641  10.153 -0.8776 -0.3739 -1.6718
  296MOL0     H39932   7.161   6.626  10.413 -1.1054  0.9786 -0.9385
  296MOL0     H39933   7.338   6.595  10.397  0.1355 -1.0924 -1.6286
  296MOL0     H39934   7.359   6.808  10.285 -1.1578  1.1326 -1.2013
  296MOL0     H39935   7.341   6.839  10.446  1.0361 -0.6094 -0.7140
  296MOL0     H39936   7.131   6.888  10.236  0.4902  1.0512  0.5397
  296MOL0     H39937   7.093   6.848  10.407 -1.3618 -0.5262 -1.1089
  296MOL0     H39938   7.275   7.080  10.305 -0.2388  2.7117  1.0415
  296MOL0     H39939   7.256   7.032  10.474 -1.2596 -2.3561 -0.1620
  296MOL0     H39940   7.113   7.215  10.453  3.5052 -0.5109  0.9946
  296MOL0     H39941   7.016   7.077  10.476 -2.8588  3.9659 -1.3723
  296MOL0     H39942   7.475   6.354  10.154 -0.6660  1.2465 -2.0754
  296MOL0     H39943   7.690   6.260  10.126 -1.9946  0.7815  1.3606
  296MOL0     H39944   7.969   6.014  10.138 -0.3773  2.0715 -1.3595
  296MOL0     H39945   8.187   5.934  10.198  0.8345 -0.1191 -0.0893
  296MOL0     H39946  10.097   5.620  10.477 -1.3606 -0.9193  2.0545
  296MOL0     H39947  10.309   5.704  10.411  0.3943  3.9077 -2.4771
  296MOL0     H39948  10.786   5.994  10.754  0.7639 -0.4087 -0.4583
  296MOL0     H39949  10.957   6.134  10.686  1.8783  1.3408 -1.8668
  296MOL0     H39950  11.137   6.119  10.582  0.8723 -1.4861 -0.7946
  296MOL0     H39951  11.178   6.082  10.415  1.2283 -0.1719  1.2653
  296MOL0     H39952  11.325   6.272  10.525 -0.4491  1.6271  1.6920
  296MOL0     H39953  11.185   6.374  10.520 -1.9690 -1.4395 -0.2179
  296MOL0     H39954  11.172   6.348  10.284  0.7452  1.0717  0.0889
  296MOL0     H39955  11.327   6.251  10.290 -1.1241 -0.0840 -1.0100
  296MOL0     H39956  11.301   6.537  10.381 -3.4510 -2.8332  1.5944
  296MOL0     H39957  11.378   6.485  10.222  1.5414 -2.0842 -0.3703
  296MOL0     H39958  11.703   6.378  10.439 -0.2359  0.7287 -0.0052
  296MOL0     H39959  10.833   6.088  10.276 -3.0109  2.4155 -0.7176
  296MOL0     H39960  10.608   6.012  10.347 -0.1473  1.5987  0.0435
  297MOL0     O39961   5.199   1.975   4.488  0.1858 -0.0692  0.3190
  297MOL0     C39962   5.214   2.097   4.505 -0.1666  0.4857  0.2149
  297MOL0     O39963   5.116   2.187   4.501 -0.8960  0.3050 -0.0470
  297MOL0     C39964   4.988   2.160   4.466 -0.0108 -0.0453 -0.8955
  297MOL0     C39965   4.888   2.217   4.548 -0.2130 -0.8007 -0.1054
  297MOL0     C39966   4.756   2.186   4.510  0.4022  0.3093  0.2105
  297MOL0     C39967   4.719   2.115   4.399  0.4050 -0.2659 -0.0751
  297MOL0     O39968   4.590   2.084   4.363 -0.1825 -0.8914  0.6337
  297MOL0     C39969   4.490   2.105   4.458 -0.4865 -0.2023  0.2448
  297MOL0     C39970   4.367   2.066   4.391  1.7013  0.2832  0.1085
  297MOL0     C39971   4.239   2.096   4.478 -0.5459  0.2267 -0.2639
  297MOL0     C39972   4.133   1.996   4.429 -0.5890  0.7484 -0.3708
  297MOL0     C39973   3.990   2.012   4.488 -0.3784 -0.0818  0.2741
  297MOL0     C39974   3.875   1.942   4.405  0.3655 -0.1776  0.0163
  297MOL0     C39975   3.747   1.981   4.486 -0.5711 -0.5513 -1.1212
  297MOL0     C39976   3.628   1.946   4.399  0.1504 -0.1211  0.8406
  297MOL0     N39977   3.497   1.978   4.452  0.4513  0.0822 -0.1529
  297MOL0     C39978   3.416   2.087   4.414 -0.5452 -0.5518 -0.2856
  297MOL0     C39979   3.297   2.060   4.475 -0.0463  0.2190 -0.5921
  297MOL0     C39980   3.164   2.137   4.457 -0.2666  0.3348 -0.9622
  297MOL0     C39981   3.066   2.049   4.382 -0.5990  0.2293  0.3306
  297MOL0     C39982   2.929   2.122   4.360  0.6427 -0.1319  0.5148
  297MOL0     C39983   2.830   2.019   4.299 -0.5351  0.0466  0.3214
  297MOL0     O39984   2.737   2.101   4.227  0.0422 -0.5498  0.5380
  297MOL0     C39985   2.616   2.054   4.183  0.1915  0.3150  1.5004
  297MOL0     C39986   2.534   2.139   4.106 -1.6155  0.0679 -0.4250
  297MOL0     C39987   2.415   2.098   4.055  0.7328  0.6465 -1.0116
  297MOL0     C39988   2.343   2.208   3.980  0.0775  0.3510 -0.4958
  297MOL0     C39989   2.370   1.966   4.068  0.5484  0.0728 -0.1969
  297MOL0     C39990   2.241   1.916   4.027  0.1648 -0.1415 -0.3427
  297MOL0     O39991   2.131   1.972   4.084  0.3035 -0.3802  0.1814
  297MOL0     C39992   2.006   1.935   4.046 -0.4839 -0.2569 -0.8345
  297MOL0     C39993   1.956   1.801   4.032  0.2038 -0.0353 -0.4799
  297MOL0     C39994   1.818   1.789   4.002  0.2798 -0.0274  0.8280
  297MOL0     C39995   1.738   1.898   3.962  0.6814 -0.9591 -1.4194
  297MOL0     O39996   1.607   1.893   3.926  0.3496  0.0847 -0.7408
  297MOL0     C39997   1.554   1.764   3.882  0.5408  0.1783 -0.4198
  297MOL0     C39998   1.422   1.775   3.807 -0.7730  0.5772 -0.2537
  297MOL0     C39999   1.367   1.647   3.745 -0.4719 -0.1055 -0.2246
  297MOL0     C40000   1.239   1.689   3.684 -0.2520  0.4878  0.6071
  297MOL0     C40001   1.155   1.566   3.639 -0.3055 -1.0603  0.5454
  297MOL0     C40002   1.094   1.584   3.497 -0.0854 -0.7699 -1.1426
  297MOL0     C40003   1.190   1.587   3.380  0.0964 -0.2965  0.5785
  297MOL0     C40004   1.209   1.730   3.317  0.0615 -0.4789 -0.5702
  297MOL0    Cl40005   1.046   1.795   3.279 -0.5684  0.3152 -0.0150
  297MOL0     C40006   1.797   2.022   3.973  0.5153  0.7487  0.0469
  297MOL0     C40007   1.926   2.044   4.023  0.0624 -0.1771  0.5275
  297MOL0     O40008   2.242   1.831   3.940 -0.0058 -0.2458  0.1667
  297MOL0     C40009   2.451   1.870   4.132 -0.8751  0.0458  0.7355
  297MOL0     C40010   2.573   1.911   4.194 -0.2897  0.7355 -0.8836
  297MOL0     N40011   3.307   1.941   4.550 -0.8555  0.2808  0.4456
  297MOL0     N40012   3.425   1.893   4.530 -0.5210  0.3960 -0.7976
  297MOL0     C40013   4.821   2.070   4.313 -0.1173  0.6359  0.5421
  297MOL0     C40014   4.956   2.094   4.339  0.0053 -0.0138  0.0784
  297MOL0     C40015   5.352   2.150   4.499  0.6322 -0.6085  0.3559
  297MOL0     C40016   5.379   2.254   4.591  0.1010 -0.8547 -0.4290
  297MOL0     C40017   5.509   2.308   4.600  1.0180  1.4487  0.0555
  297MOL0     C40018   5.614   2.240   4.540 -0.3913 -0.3430  0.2137
  297MOL0     O40019   5.742   2.283   4.565 -0.7238  0.4708  0.2055
  297MOL0     C40020   5.849   2.232   4.488 -0.6894  0.2949 -1.4113
  297MOL0     C40021   5.861   2.295   4.356 -0.1711 -0.3211  0.8167
  297MOL0     C40022   6.001   2.275   4.300  0.0093 -0.5418 -0.8477
  297MOL0     C40023   6.033   2.374   4.182 -0.3941  0.0858 -0.3463
  297MOL0     C40024   6.162   2.342   4.125  0.2524  0.1909 -0.7732
  297MOL0     C40025   6.269   2.330   4.078 -0.2751 -0.4248 -0.0910
  297MOL0     C40026   5.589   2.136   4.446  0.1134  0.1324 -0.4753
  297MOL0     C40027   5.456   2.086   4.431 -0.0117  1.0377 -0.0103
  297MOL0     H40028   4.912   2.275   4.636 -0.7326 -0.1624 -0.3798
  297MOL0     H40029   4.687   2.220   4.586 -0.8156  0.4949 -0.9535
  297MOL0     H40030   4.517   2.043   4.544  1.4932  0.8518  0.4375
  297MOL0     H40031   4.486   2.211   4.483  1.6109 -0.0831  0.1898
  297MOL0     H40032   4.352   2.093   4.286 -0.0106 -2.3640 -0.4269
  297MOL0     H40033   4.376   1.958   4.380 -2.4293 -0.0213 -2.7528
  297MOL0     H40034   4.275   2.086   4.581 -1.0929  1.7190  0.0980
  297MOL0     H40035   4.195   2.197   4.475 -0.7102  0.4024  3.3669
  297MOL0     H40036   4.116   2.013   4.323 -3.1617  3.0804  0.3162
  297MOL0     H40037   4.160   1.893   4.455  0.5724  1.1211 -0.0273
  297MOL0     H40038   3.998   1.970   4.589 -0.7135  2.0430  1.2371
  297MOL0     H40039   3.970   2.119   4.500 -0.2971  0.3287 -2.6698
  297MOL0     H40040   3.867   1.985   4.305 -2.4664  0.3495  0.3656
  297MOL0     H40041   3.891   1.834   4.407  0.4775 -0.1546  1.0548
  297MOL0     H40042   3.746   1.917   4.575 -2.1444 -0.8019 -1.2799
  297MOL0     H40043   3.747   2.087   4.512  0.5989 -0.2847 -2.1405
  297MOL0     H40044   3.624   1.840   4.374  3.5184  0.2435 -2.0351
  297MOL0     H40045   3.650   1.996   4.304  0.7454 -0.5101  0.7694
  297MOL0     H40046   3.448   2.169   4.350  0.5033 -0.4563  0.3438
  297MOL0     H40047   3.131   2.176   4.554  3.3758  0.1394  0.5020
  297MOL0     H40048   3.186   2.224   4.394 -1.8469  2.0591  0.7473
  297MOL0     H40049   3.037   1.957   4.434  0.6527 -0.1146  0.4351
  297MOL0     H40050   3.111   2.013   4.289 -0.4924  0.9464  0.0997
  297MOL0     H40051   2.952   2.208   4.296  5.4570 -0.1840  1.7379
  297MOL0     H40052   2.894   2.168   4.453 -0.1915 -2.2839  1.3236
  297MOL0     H40053   2.784   1.974   4.387  0.0768  1.2400  1.2927
  297MOL0     H40054   2.885   1.947   4.238  0.8456  0.2399  1.2919
  297MOL0     H40055   2.573   2.236   4.076 -0.5814 -0.1501  0.1674
  297MOL0     H40056   2.362   2.186   3.875  0.8018  0.1361 -0.3222
  297MOL0     H40057   2.234   2.210   3.991  0.0164 -1.8285 -0.2393
  297MOL0     H40058   2.371   2.312   4.001 -1.6930  0.7633  0.0553
  297MOL0     H40059   2.022   1.718   4.056  0.1261 -0.6160 -2.1330
  297MOL0     H40060   1.785   1.686   4.000  3.2653 -1.0620  0.7455
  297MOL0     H40061   1.622   1.696   3.831  0.2084  1.5969 -2.9143
  297MOL0     H40062   1.537   1.700   3.969  1.2043 -0.9619 -1.1179
  297MOL0     H40063   1.344   1.819   3.869  0.8227  1.9333  0.9119
  297MOL0     H40064   1.443   1.849   3.729  1.1574 -2.4824 -2.9297
  297MOL0     H40065   1.361   1.568   3.821  3.3811 -1.0444 -0.6907
  297MOL0     H40066   1.437   1.606   3.672  0.4812 -0.1943  0.6987
  297MOL0     H40067   1.180   1.748   3.754  0.6966  2.4084 -0.1350
  297MOL0     H40068   1.270   1.754   3.602 -2.3728  0.7398 -0.0567
  297MOL0     H40069   1.068   1.551   3.703 -0.3572 -0.9000  0.5130
  297MOL0     H40070   1.215   1.475   3.635 -0.3435 -1.0545 -0.3837
  297MOL0     H40071   1.033   1.493   3.494 -0.4446 -0.5655 -0.3269
  297MOL0     H40072   1.031   1.674   3.495 -0.4024 -0.9965 -1.3887
  297MOL0     H40073   1.146   1.525   3.301  1.4742  1.4667 -1.6976
  297MOL0     H40074   1.284   1.538   3.409 -0.2206 -0.9544  0.5297
  297MOL0     H40075   1.274   1.727   3.229  0.2715 -0.9839 -0.4020
  297MOL0     H40076   1.245   1.788   3.402 -0.2643 -1.4186  0.2234
  297MOL0     H40077   1.742   2.111   3.944 -0.3113  0.6587  1.2631
  297MOL0     H40078   1.962   2.142   4.051 -1.6309  0.0821  1.9663
  297MOL0     H40079   2.422   1.766   4.128 -0.3127 -0.0692 -2.3693
  297MOL0     H40080   2.637   1.837   4.240 -1.1602  1.3643  1.4896
  297MOL0     H40081   4.789   2.005   4.232 -0.5240 -1.4549  2.2755
  297MOL0     H40082   5.038   2.055   4.279  0.0888 -0.0001  0.1832
  297MOL0     H40083   5.305   2.298   4.656  2.2305  0.7295  1.0674
  297MOL0     H40084   5.531   2.394   4.663  0.1617  1.4457  0.3706
  297MOL0     H40085   5.940   2.248   4.547 -0.1184 -1.2533 -1.8170
  297MOL0     H40086   5.851   2.123   4.483 -1.4052  0.3140 -2.4851
  297MOL0     H40087   5.833   2.399   4.372  0.6408  0.0755 -0.2035
  297MOL0     H40088   5.791   2.260   4.280 -1.0009  0.6790  1.1029
  297MOL0     H40089   6.000   2.172   4.264 -4.2724 -0.1631 -2.3812
  297MOL0     H40090   6.073   2.289   4.381 -1.0309  1.9419 -0.2518
  297MOL0     H40091   6.049   2.475   4.222  1.5618  0.1060 -1.0863
  297MOL0     H40092   5.950   2.374   4.111 -0.6484  0.3379 -0.0497
  297MOL0     H40093   6.371   2.332   4.046 -0.3778 -0.9746 -0.4659
  297MOL0     H40094   5.665   2.079   4.394 -0.5664 -1.3879  0.1180
  297MOL0     H40095   5.445   2.001   4.363  1.2508  1.3519 -0.6324
  298MOL0     O40096   7.448   6.509   8.693 -0.2794  0.7374 -0.1507
  298MOL0     C40097   7.509   6.607   8.723 -0.1171 -0.2735  0.3719
  298MOL0     O40098   7.455   6.727   8.758  0.1788  0.1540 -0.0574
  298MOL0     C40099   7.327   6.743   8.734 -0.1452 -0.3503 -0.5041
  298MOL0     C40100   7.279   6.764   8.603  0.6565  1.1374 -0.4803
  298MOL0     C40101   7.144   6.774   8.564  0.5611 -0.1175 -1.1440
  298MOL0     C40102   7.054   6.781   8.669 -0.5416 -0.1119  0.4015
  298MOL0     O40103   6.917   6.788   8.641 -0.0304 -0.4149 -0.3964
  298MOL0     C40104   6.858   6.712   8.531  0.2729  0.6710 -0.1286
  298MOL0     C40105   6.701   6.730   8.541  0.5407  0.2159 -0.4084
  298MOL0     C40106   6.648   6.871   8.489  1.1957  0.8996  0.1394
  298MOL0     C40107   6.632   6.890   8.347  0.1620 -0.4751 -0.1785
  298MOL0     C40108   6.583   7.032   8.298 -0.4387 -0.1831 -0.0012
  298MOL0     C40109   6.431   7.066   8.320 -0.4335 -0.8893 -0.8716
  298MOL0     C40110   6.379   7.166   8.219 -0.0761 -0.2017  0.6242
  298MOL0     C40111   6.246   7.223   8.264  0.9665  1.2253 -0.2929
  298MOL0     N40112   6.143   7.112   8.280 -0.0975 -1.0266 -0.2067
  298MOL0     C40113   6.085   7.051   8.168 -0.4642 -0.0465 -0.6321
  298MOL0     C40114   6.013   6.952   8.220  0.5014 -0.6693 -0.5288
  298MOL0     C40115   5.943   6.853   8.146 -0.3210  0.9538 -0.1534
  298MOL0     C40116   6.041   6.776   8.059 -0.0035  0.8725  0.2029
  298MOL0     C40117   6.126   6.677   8.146  1.0682  0.4870 -0.2534
  298MOL0     C40118   6.240   6.613   8.078  0.1553 -0.5899  0.4323
  298MOL0     O40119   6.348   6.712   8.067  0.0576  0.2931 -0.2118
  298MOL0     C40120   6.471   6.672   8.013 -0.2607 -0.2941 -0.0423
  298MOL0     C40121   6.558   6.777   7.996  0.2805  1.0066 -0.9347
  298MOL0     C40122   6.688   6.749   7.941  0.3792  0.2364 -0.4409
  298MOL0     C40123   6.779   6.873   7.937 -0.4524  0.9472 -0.2337
  298MOL0     C40124   6.727   6.613   7.910 -0.6380  0.3166 -0.0656
  298MOL0     C40125   6.858   6.571   7.855  0.1785 -0.0671 -0.0881
  298MOL0     O40126   6.948   6.656   7.821  0.2353 -0.1129  0.0990
  298MOL0     C40127   7.063   6.608   7.761 -0.6606  0.8320 -0.8324
  298MOL0     C40128   7.180   6.572   7.842 -0.3497  0.8874 -0.4272
  298MOL0     C40129   7.307   6.542   7.781  0.0855 -0.5407  0.1070
  298MOL0     C40130   7.309   6.562   7.641 -0.2811  0.2074 -0.6687
  298MOL0     O40131   7.419   6.539   7.563 -0.8105  0.1766 -0.0338
  298MOL0     C40132   7.535   6.478   7.621  0.3771 -0.3005 -0.5350
  298MOL0     C40133   7.640   6.431   7.523 -0.3632 -0.3277  0.0946
  298MOL0     C40134   7.706   6.556   7.452  0.3918  0.5155  0.0459
  298MOL0     C40135   7.839   6.514   7.388  0.1099  0.7889  0.8133
  298MOL0     C40136   7.901   6.627   7.309 -0.3924  0.2007  0.3932
  298MOL0     C40137   8.046   6.592   7.264  0.6568 -0.2543  0.3496
  298MOL0     C40138   8.152   6.566   7.369  0.7237 -0.0506 -0.0530
  298MOL0     C40139   8.294   6.580   7.316  0.2821 -0.0041 -0.6388
  298MOL0    Cl40140   8.332   6.740   7.252 -0.4724  0.0828 -0.3329
  298MOL0     C40141   7.200   6.597   7.565 -0.3502  0.5174  0.3459
  298MOL0     C40142   7.077   6.618   7.620 -0.4151  0.0948  0.4204
  298MOL0     O40143   6.873   6.450   7.835 -0.6752  0.0016 -0.2996
  298MOL0     C40144   6.623   6.517   7.929 -0.0219  0.3861  0.3558
  298MOL0     C40145   6.500   6.548   7.977 -0.4039  1.5907 -0.3032
  298MOL0     N40146   6.015   6.962   8.360  0.1343  0.4197 -0.7446
  298MOL0     N40147   6.088   7.067   8.396 -0.7228 -0.1466 -0.4674
  298MOL0     C40148   7.099   6.780   8.808  0.6502 -0.2281 -0.3576
  298MOL0     C40149   7.234   6.755   8.835  0.2328  0.3135  0.4625
  298MOL0     C40150   7.660   6.593   8.744  0.4067  0.0414 -0.4430
  298MOL0     C40151   7.731   6.477   8.703 -0.0968  0.8625 -0.1993
  298MOL0     C40152   7.868   6.458   8.749 -0.5313  0.2648 -0.7242
  298MOL0     C40153   7.946   6.559   8.810  0.4791  0.7485 -0.1797
  298MOL0     O40154   8.076   6.546   8.857 -0.0306 -0.6674 -0.2324
  298MOL0     C40155   8.180   6.484   8.777 -0.8406 -0.1483 -0.1984
  298MOL0     C40156   8.317   6.501   8.824  0.2493 -0.6497  0.2305
  298MOL0     C40157   8.404   6.441   8.713  0.3904 -0.1255 -0.0472
  298MOL0     C40158   8.558   6.441   8.734 -0.4444  0.1459 -0.1771
  298MOL0     C40159   8.598   6.544   8.833  0.2862  0.0042  0.9887
  298MOL0     C40160   8.633   6.618   8.922  0.3680  0.8066  0.0455
  298MOL0     C40161   7.872   6.672   8.835  0.2836  0.3741  0.1154
  298MOL0     C40162   7.735   6.691   8.803  0.5890  0.2205  0.7020
  298MOL0     H40163   7.348   6.770   8.519 -1.1101  2.7689 -1.9191
  298MOL0     H40164   7.118   6.784   8.459 -1.4359 -1.2101 -0.8091
  298MOL0     H40165   6.886   6.737   8.428 -1.9850  1.6145 -0.5627
  298MOL0     H40166   6.888   6.609   8.554 -4.2239 -0.1929  3.4098
  298MOL0     H40167   6.658   6.646   8.486 -0.6029 -0.0714  0.8887
  298MOL0     H40168   6.673   6.710   8.645 -0.6940  1.5663 -0.4537
  298MOL0     H40169   6.555   6.895   8.541  2.2727  3.3887  1.0500
  298MOL0     H40170   6.720   6.947   8.521  0.4124  0.4430  3.2950
  298MOL0     H40171   6.723   6.862   8.292  0.8851 -0.2826  0.9029
  298MOL0     H40172   6.551   6.821   8.321 -0.4913  1.1007 -2.6078
  298MOL0     H40173   6.643   7.116   8.335 -1.0563  0.6741 -0.8820
  298MOL0     H40174   6.589   7.022   8.189  0.4183 -0.7723  0.0950
  298MOL0     H40175   6.380   6.969   8.313 -2.1665 -0.2625  1.6790
  298MOL0     H40176   6.407   7.108   8.418 -1.3419 -1.8819 -0.6499
  298MOL0     H40177   6.450   7.246   8.198  0.7149 -1.6422 -2.9090
  298MOL0     H40178   6.356   7.111   8.127 -1.7935 -1.6513  1.8372
  298MOL0     H40179   6.192   7.280   8.188  0.6088 -1.0271 -1.8429
  298MOL0     H40180   6.243   7.282   8.355  0.9791  2.0287 -0.8038
  298MOL0     H40181   6.103   7.065   8.062 -0.6918  2.9524 -0.3546
  298MOL0     H40182   5.892   6.776   8.205  0.6806 -1.0148 -1.7280
  298MOL0     H40183   5.873   6.888   8.069  2.3285  1.7638 -2.3550
  298MOL0     H40184   6.108   6.849   8.012 -0.2314  0.9445 -0.0119
  298MOL0     H40185   5.988   6.716   7.984 -0.5208 -1.1866  2.1181
  298MOL0     H40186   6.060   6.603   8.193 -0.3008  1.7184 -0.1738
  298MOL0     H40187   6.167   6.729   8.234  3.0924 -1.1028 -0.1718
  298MOL0     H40188   6.203   6.591   7.977 -0.8568  2.2487  0.0922
  298MOL0     H40189   6.273   6.523   8.132 -0.1321 -0.2326  1.2151
  298MOL0     H40190   6.523   6.879   8.011 -1.4951  0.3048  0.0030
  298MOL0     H40191   6.783   6.932   8.029  0.3393  3.6515 -1.8570
  298MOL0     H40192   6.884   6.860   7.908 -0.1497  0.4622  1.0211
  298MOL0     H40193   6.737   6.940   7.861  2.6302  0.3780 -2.6540
  298MOL0     H40194   7.179   6.589   7.949 -0.9160  2.7654 -0.6943
  298MOL0     H40195   7.396   6.528   7.840  1.3293  0.7440 -1.3691
  298MOL0     H40196   7.585   6.550   7.686 -0.4870 -0.9083  0.8350
  298MOL0     H40197   7.492   6.396   7.678 -0.2276  0.7816  0.6060
  298MOL0     H40198   7.705   6.361   7.576  0.5870  0.9488  0.6712
  298MOL0     H40199   7.575   6.377   7.452 -0.6753 -0.5264  0.5268
  298MOL0     H40200   7.726   6.630   7.530  1.3964  0.6363 -0.3053
  298MOL0     H40201   7.632   6.592   7.380  1.0542 -0.6285 -1.2567
  298MOL0     H40202   7.897   6.463   7.465  0.3289 -2.4072 -1.2620
  298MOL0     H40203   7.814   6.432   7.320 -0.7510  0.9485  0.9268
  298MOL0     H40204   7.908   6.718   7.370  1.7824  1.6689 -1.8267
  298MOL0     H40205   7.842   6.644   7.219 -0.9368 -1.6408  0.3588
  298MOL0     H40206   8.037   6.504   7.200  1.3177 -0.9822  1.2279
  298MOL0     H40207   8.071   6.671   7.193  1.0211 -2.8321 -2.5940
  298MOL0     H40208   8.145   6.464   7.409 -0.7570 -1.0210 -2.5352
  298MOL0     H40209   8.141   6.622   7.462 -0.0194 -3.8356  2.3590
  298MOL0     H40210   8.305   6.504   7.239  0.8979 -2.6674  1.8954
  298MOL0     H40211   8.349   6.555   7.407 -1.3209  2.7491  1.2536
  298MOL0     H40212   7.200   6.605   7.457  2.3265  0.6964  0.3120
  298MOL0     H40213   6.983   6.646   7.574 -0.2741  0.4190  0.3301
  298MOL0     H40214   6.638   6.410   7.921 -1.1184  0.2242  0.2718
  298MOL0     H40215   6.432   6.468   8.007 -0.0438  2.0720  2.0218
  298MOL0     H40216   7.021   6.789   8.882 -1.2486  0.4701 -2.3163
  298MOL0     H40217   7.268   6.733   8.936  0.4914 -0.1503  0.2744
  298MOL0     H40218   7.679   6.390   8.667  0.6086  0.7457 -0.9615
  298MOL0     H40219   7.920   6.362   8.746  2.4674  1.7675 -1.4157
  298MOL0     H40220   8.154   6.380   8.753 -3.8911  1.1423 -3.5112
  298MOL0     H40221   8.172   6.540   8.683  2.8815  1.3883  0.2328
  298MOL0     H40222   8.323   6.442   8.915  0.1498 -0.7771  0.1530
  298MOL0     H40223   8.339   6.606   8.846  1.0781 -1.0148  1.2528
  298MOL0     H40224   8.399   6.509   8.627 -2.4041  0.4928  0.5194
  298MOL0     H40225   8.365   6.340   8.698 -0.6908  0.3338 -0.4327
  298MOL0     H40226   8.612   6.451   8.639  2.7369  0.2497  1.5188
  298MOL0     H40227   8.593   6.349   8.781 -0.5437  0.1610 -0.0755
  298MOL0     H40228   8.658   6.677   9.008  1.7961  0.0749  0.1648
  298MOL0     H40229   7.913   6.757   8.887  0.9639  0.1297 -0.0097
  298MOL0     H40230   7.694   6.785   8.839 -3.3393 -1.3082  0.7397
  299MOL0     O40231  10.642   3.205   6.245 -0.2146 -0.1476 -0.4002
  299MOL0     C40232  10.611   3.305   6.315 -0.0471  0.4917  0.5584
  299MOL0     O40233  10.509   3.389   6.294  0.1525  0.4206  0.6677
  299MOL0     C40234  10.454   3.394   6.171 -0.7398  0.2679  0.4500
  299MOL0     C40235  10.525   3.398   6.051 -0.8546 -0.3331  0.0630
  299MOL0     C40236  10.456   3.419   5.929 -0.7659 -0.0983  0.3003
  299MOL0     C40237  10.318   3.431   5.922 -0.6626 -0.4485  0.0117
  299MOL0     O40238  10.251   3.431   5.800  0.0776 -0.2376 -0.9287
  299MOL0     C40239  10.315   3.406   5.676  0.2026  0.1346 -0.1241
  299MOL0     C40240  10.235   3.493   5.576  0.0623  0.2328 -0.0059
  299MOL0     C40241  10.298   3.528   5.445  0.4720 -0.7217 -0.0797
  299MOL0     C40242  10.392   3.415   5.400 -0.0322 -0.5595 -1.1681
  299MOL0     C40243  10.433   3.447   5.258  0.1398  0.3503  0.3171
  299MOL0     C40244  10.562   3.379   5.224  0.5945  0.0864  0.2497
  299MOL0     C40245  10.557   3.229   5.240 -0.1858 -0.5475 -0.2785
  299MOL0     C40246  10.679   3.154   5.179 -0.1955 -0.6418  0.3384
  299MOL0     N40247  10.786   3.124   5.268 -0.3064 -0.2584  0.2385
  299MOL0     C40248  10.898   3.207   5.275  0.7749 -0.4379  0.0651
  299MOL0     C40249  10.972   3.137   5.362 -0.4378 -0.0962 -0.1727
  299MOL0     C40250  11.106   3.190   5.409  0.2204  0.6001  0.4701
  299MOL0     C40251  11.093   3.276   5.530 -0.7172 -0.3065  0.4954
  299MOL0     C40252  11.009   3.215   5.640 -1.1088  0.6765 -0.3136
  299MOL0     C40253  11.033   3.277   5.780 -0.2120  0.3329 -0.2092
  299MOL0     O40254  11.051   3.418   5.774  0.1621 -0.6636 -0.7560
  299MOL0     C40255  10.940   3.493   5.782 -0.2403 -0.4388  0.0342
  299MOL0     C40256  10.855   3.516   5.666 -0.0977  0.2083 -0.2790
  299MOL0     C40257  10.749   3.604   5.671 -0.6291  0.6195  0.3759
  299MOL0     C40258  10.667   3.618   5.550 -0.1571 -0.2286 -0.4823
  299MOL0     C40259  10.719   3.676   5.799  0.3486 -0.4775  0.6608
  299MOL0     C40260  10.611   3.771   5.819  0.3977  1.3775 -0.9312
  299MOL0     O40261  10.559   3.793   5.941  0.9607  0.3207 -0.3054
  299MOL0     C40262  10.436   3.862   5.957 -0.9238  0.3803  0.2767
  299MOL0     C40263  10.326   3.795   5.994  0.6024  0.3726 -0.4585
  299MOL0     C40264  10.197   3.866   6.013 -0.0916  0.1460  1.1779
  299MOL0     C40265  10.184   3.999   5.979 -0.0280 -0.2747  0.0200
  299MOL0     O40266  10.061   4.057   5.983  0.1607  0.0509 -0.2177
  299MOL0     C40267  10.027   4.176   5.907 -0.8090 -0.2580  0.1220
  299MOL0     C40268   9.879   4.213   5.916 -0.3387  0.3198 -0.5125
  299MOL0     C40269   9.848   4.304   6.036 -0.1935 -0.4183  0.0930
  299MOL0     C40270   9.902   4.257   6.172  1.1540 -0.9148  0.5099
  299MOL0     C40271   9.821   4.303   6.295 -1.0619 -0.0971 -0.7411
  299MOL0     C40272   9.863   4.232   6.427 -0.1775  0.1243 -0.4601
  299MOL0     C40273   9.982   4.302   6.492  0.0459  0.6533  0.0200
  299MOL0     C40274   9.947   4.440   6.550  0.2328 -0.0607 -0.1512
  299MOL0    Cl40275   9.801   4.416   6.651  0.1751 -0.7207  0.0478
  299MOL0     C40276  10.297   4.061   5.922 -0.1012  0.1623  0.8228
  299MOL0     C40277  10.419   4.000   5.916 -0.5889  0.4200 -0.1276
  299MOL0     O40278  10.580   3.830   5.719  0.2429 -0.2946  0.1275
  299MOL0     C40279  10.807   3.659   5.903 -0.2870 -0.2906 -0.3252
  299MOL0     C40280  10.916   3.568   5.896  0.5717 -0.7150  0.2146
  299MOL0     N40281  10.918   3.017   5.392  0.0678  0.5430 -0.5334
  299MOL0     N40282  10.800   3.012   5.343 -0.1676  0.6194  0.7287
  299MOL0     C40283  10.252   3.428   6.041  0.3317 -0.5137 -0.6148
  299MOL0     C40284  10.320   3.407   6.161  0.2877 -0.6927 -0.0642
  299MOL0     C40285  10.683   3.310   6.442  0.1950 -0.3519  0.4003
  299MOL0     C40286  10.664   3.420   6.535  0.1650 -0.0968 -0.1187
  299MOL0     C40287  10.741   3.439   6.650 -0.9911  0.1052  0.0944
  299MOL0     C40288  10.821   3.331   6.694 -0.4048  0.5846  1.0916
  299MOL0     O40289  10.883   3.356   6.818 -0.4609 -0.9088 -0.1496
  299MOL0     C40290  10.959   3.263   6.884 -0.4449 -1.2482 -0.4379
  299MOL0     C40291  11.098   3.237   6.819  0.0565 -0.0825 -1.5232
  299MOL0     C40292  11.200   3.352   6.840 -0.0752  0.2881 -0.3140
  299MOL0     C40293  11.336   3.314   6.806 -0.7329  0.5118  0.0807
  299MOL0     C40294  11.432   3.350   6.913  0.7241 -0.6803  0.2159
  299MOL0     C40295  11.511   3.377   6.996 -0.3599 -0.0838 -0.2793
  299MOL0     C40296  10.833   3.220   6.609 -0.4607 -0.3315 -0.3896
  299MOL0     C40297  10.777   3.212   6.484 -0.6590 -0.1019 -0.2679
  299MOL0     H40298  10.633   3.392   6.044 -0.9101 -1.4908  0.0562
  299MOL0     H40299  10.518   3.436   5.841 -1.3389 -0.1796 -0.1185
  299MOL0     H40300  10.423   3.422   5.669 -0.0068  1.9462  0.2644
  299MOL0     H40301  10.279   3.305   5.656 -0.3299  0.2877  0.0262
  299MOL0     H40302  10.133   3.456   5.562 -0.7028  1.2721  2.2853
  299MOL0     H40303  10.219   3.590   5.624  0.6997  1.2286 -1.6835
  299MOL0     H40304  10.229   3.538   5.361  0.1051 -0.5199  0.2368
  299MOL0     H40305  10.347   3.626   5.453 -2.2112  0.6225  1.2665
  299MOL0     H40306  10.480   3.426   5.463 -0.5847 -0.1306 -0.4549
  299MOL0     H40307  10.345   3.316   5.409  0.7182 -0.8413 -0.2163
  299MOL0     H40308  10.346   3.439   5.192  0.3818  2.5397 -0.3608
  299MOL0     H40309  10.466   3.551   5.253  1.9264 -0.2122 -0.8962
  299MOL0     H40310  10.575   3.398   5.117 -1.0785  0.4676  0.0778
  299MOL0     H40311  10.650   3.417   5.275  1.9531 -0.3390 -1.6543
  299MOL0     H40312  10.546   3.212   5.348 -1.8046  1.3191 -0.1035
  299MOL0     H40313  10.469   3.207   5.179 -1.0405 -0.6799  0.9607
  299MOL0     H40314  10.718   3.213   5.096  0.6025  0.9410  1.7728
  299MOL0     H40315  10.640   3.058   5.146 -0.8085  0.0537 -1.0097
  299MOL0     H40316  10.908   3.301   5.221 -0.8886  0.5633  1.3939
  299MOL0     H40317  11.168   3.105   5.438 -2.9443 -1.9036  0.5334
  299MOL0     H40318  11.156   3.237   5.324  2.4648 -0.1367  1.3112
  299MOL0     H40319  11.053   3.371   5.492 -0.6339 -0.6674 -0.5113
  299MOL0     H40320  11.195   3.304   5.558 -0.2684  0.6972 -1.8971
  299MOL0     H40321  11.026   3.107   5.641 -1.3408  0.6174 -1.3006
  299MOL0     H40322  10.906   3.225   5.603 -0.9808 -1.9429 -1.5720
  299MOL0     H40323  11.126   3.232   5.818  0.8892  0.1219 -2.9395
  299MOL0     H40324  10.956   3.240   5.849 -1.0195  2.6877  0.2424
  299MOL0     H40325  10.889   3.468   5.574 -4.1855  2.1953 -3.1319
  299MOL0     H40326  10.663   3.520   5.501  0.7000 -1.4838  1.7874
  299MOL0     H40327  10.563   3.646   5.569 -0.6820 -0.4762 -2.7096
  299MOL0     H40328  10.714   3.691   5.483 -2.2703 -1.0925 -3.1036
  299MOL0     H40329  10.346   3.695   6.029  1.3583  1.8530  4.0349
  299MOL0     H40330  10.114   3.808   6.051  0.1672 -0.6910  0.5162
  299MOL0     H40331  10.089   4.256   5.948  0.1144 -0.6976 -0.3801
  299MOL0     H40332  10.053   4.168   5.801 -1.9996  0.5337 -0.2620
  299MOL0     H40333   9.840   4.268   5.830 -1.2960  0.2068 -0.1593
  299MOL0     H40334   9.820   4.122   5.927 -0.7143  0.7695  1.7182
  299MOL0     H40335   9.740   4.300   6.050 -0.1549 -3.2702 -0.0406
  299MOL0     H40336   9.878   4.409   6.020  1.7810 -0.8974  0.3193
  299MOL0     H40337   9.899   4.148   6.161 -1.0312 -0.6854 -2.4165
  299MOL0     H40338  10.006   4.287   6.193  0.7826 -0.4147  1.7059
  299MOL0     H40339   9.714   4.280   6.288 -1.9050  3.3711 -0.9915
  299MOL0     H40340   9.840   4.410   6.303 -1.5221  0.0232 -1.2215
  299MOL0     H40341   9.773   4.224   6.489 -0.6976 -0.8263 -1.3096
  299MOL0     H40342   9.880   4.129   6.397 -2.9526  0.0255 -2.0759
  299MOL0     H40343  10.074   4.318   6.435 -0.6866  0.0359 -1.3637
  299MOL0     H40344  10.004   4.231   6.573 -2.0719  1.3212  1.2511
  299MOL0     H40345   9.919   4.514   6.474 -2.6859 -1.9489 -1.0507
  299MOL0     H40346  10.033   4.471   6.610  0.5449 -1.7708  0.3508
  299MOL0     H40347  10.283   4.164   5.893 -1.2345 -0.7180 -2.1059
  299MOL0     H40348  10.506   4.052   5.876 -0.4560  0.5276  0.3021
  299MOL0     H40349  10.791   3.723   5.989  0.2952  0.1596 -0.5470
  299MOL0     H40350  10.972   3.559   5.988  0.5260  0.3320  0.3545
  299MOL0     H40351  10.144   3.440   6.034  0.4587  1.2766 -0.0008
  299MOL0     H40352  10.274   3.400   6.259 -0.1075 -2.7744 -0.3549
  299MOL0     H40353  10.601   3.501   6.500 -2.9565 -2.1550  0.3330
  299MOL0     H40354  10.721   3.521   6.718  0.2865 -1.1459  2.1027
  299MOL0     H40355  10.972   3.290   6.989  0.7026 -3.4866  0.0624
  299MOL0     H40356  10.914   3.164   6.882  0.5844 -1.7400 -0.2345
  299MOL0     H40357  11.090   3.218   6.711  3.2025 -0.9621 -1.7027
  299MOL0     H40358  11.147   3.144   6.850 -1.0818 -0.5257 -1.0155
  299MOL0     H40359  11.194   3.383   6.945  0.7838  0.8858 -0.4320
  299MOL0     H40360  11.174   3.442   6.785  2.1793  0.7073 -0.7906
  299MOL0     H40361  11.361   3.359   6.710  1.1404  3.3522  1.7496
  299MOL0     H40362  11.335   3.204   6.799 -1.0093  0.4129  1.4356
  299MOL0     H40363  11.574   3.404   7.078 -1.0873 -0.4568  0.4168
  299MOL0     H40364  10.888   3.129   6.630 -1.2039 -0.9159 -0.8977
  299MOL0     H40365  10.802   3.133   6.414  0.2839  0.5627 -0.7043
  300MOL0     O40366  10.319   4.071  10.435  0.0475 -0.0801 -0.6095
  300MOL0     C40367  10.292   4.182  10.382  0.9120 -1.3580 -0.6456
  300MOL0     O40368  10.374   4.297  10.390 -0.6222 -0.4177  0.0422
  300MOL0     C40369  10.478   4.317  10.478  0.4463 -0.9527  0.7139
  300MOL0     C40370  10.501   4.446  10.535  0.5272  0.9052 -0.4147
  300MOL0     C40371  10.611   4.469  10.626 -0.0663  1.0298  0.1829
  300MOL0     C40372  10.704   4.368  10.651 -0.9636  0.8664 -0.1094
  300MOL0     O40373  10.816   4.385  10.737  0.7269  0.2983  0.0866
  300MOL0     C40374  10.815   4.502  10.821  0.2050 -0.1286 -0.6726
  300MOL0     C40375  10.937   4.481  10.922  0.6708 -0.9664  0.5531
  300MOL0     C40376  10.965   4.612  10.998  0.4783  1.1167 -0.5419
  300MOL0     C40377  10.857   4.620  11.111 -0.5359 -0.1124  0.0469
  300MOL0     C40378  10.882   4.737  11.204  0.5443 -0.6664  0.1899
  300MOL0     C40379  10.854   4.861  11.120  0.4713  0.4718  0.7634
  300MOL0     C40380  10.858   4.984  11.213  0.3145  0.6873 -0.1453
  300MOL0     C40381  10.839   5.126  11.144  1.0657  0.7557 -0.4624
  300MOL0     N40382  10.934   5.143  11.046 -0.0368  0.3580  0.0128
  300MOL0     C40383  11.070   5.168  11.052  0.0758 -0.7085 -0.3956
  300MOL0     C40384  11.108   5.154  10.922  0.1818 -0.4829 -0.2179
  300MOL0     C40385  11.247   5.184  10.859 -0.0216  0.9215  0.8833
  300MOL0     C40386  11.253   5.191  10.704  0.2999  0.3008  0.4975
  300MOL0     C40387  11.169   5.308  10.658  0.3689 -0.3800  0.3469
  300MOL0     C40388  11.189   5.332  10.513  0.1994 -0.1806 -0.2081
  300MOL0     O40389  11.163   5.218  10.431  0.3347 -0.0655 -0.3652
  300MOL0     C40390  11.035   5.191  10.386 -0.3070 -1.4576 -0.0456
  300MOL0     C40391  11.014   5.086  10.293  0.5970  0.1997 -0.0687
  300MOL0     C40392  10.890   5.062  10.238 -0.2250  0.2227  0.1933
  300MOL0     C40393  10.868   4.941  10.160 -0.5740 -0.1703  0.3059
  300MOL0     C40394  10.782   5.135  10.270 -0.1994 -0.3654 -0.1677
  300MOL0     C40395  10.643   5.119  10.217 -0.4969  0.4104  0.3655
  300MOL0     O40396  10.542   5.180  10.291  0.3625  0.0776 -0.2366
  300MOL0     C40397  10.412   5.161  10.255 -0.3197  0.6227 -0.7782
  300MOL0     C40398  10.320   5.119  10.353  0.7700 -0.3476  0.9177
  300MOL0     C40399  10.185   5.115  10.327  0.2146 -1.0762  0.3656
  300MOL0     C40400  10.130   5.148  10.198 -0.1195 -0.5163  0.3693
  300MOL0     O40401   9.989   5.176  10.181 -0.7218 -0.1136  0.4043
  300MOL0     C40402   9.950   5.138  10.046  0.0839 -0.0523  0.3692
  300MOL0     C40403   9.797   5.120  10.039 -0.3474 -0.4313 -0.5455
  300MOL0     C40404   9.764   5.095   9.894 -0.2488 -0.0996 -0.6676
  300MOL0     C40405   9.619   5.052   9.895  0.7303  0.3302  0.0411
  300MOL0     C40406   9.557   5.075   9.762 -0.3734  0.3571  0.4819
  300MOL0     C40407   9.403   5.090   9.773 -0.3580  0.6464  0.0757
  300MOL0     C40408   9.331   5.150   9.653 -0.5220  0.3642 -0.2382
  300MOL0     C40409   9.188   5.194   9.682 -0.3687  0.3019  0.8857
  300MOL0    Cl40410   9.072   5.070   9.646  0.5349  0.1159  0.0338
  300MOL0     C40411  10.226   5.182  10.098  0.4151  0.6569  0.1599
  300MOL0     C40412  10.368   5.189  10.121 -0.7305 -0.1585 -0.5220
  300MOL0     O40413  10.623   5.041  10.120  0.2898 -0.5775 -0.3452
  300MOL0     C40414  10.794   5.238  10.368  0.0431 -0.4869 -0.1985
  300MOL0     C40415  10.918   5.263  10.419  0.3380 -0.5256 -0.7664
  300MOL0     N40416  11.007   5.103  10.847 -0.4477 -0.0935  0.5958
  300MOL0     N40417  10.901   5.104  10.918 -0.1496 -0.1682  0.0171
  300MOL0     C40418  10.682   4.242  10.594  0.7445  0.2584  0.7257
  300MOL0     C40419  10.575   4.216  10.506 -0.3399 -1.1522  0.5614
  300MOL0     C40420  10.162   4.204  10.319 -0.2456  0.0796 -0.3206
  300MOL0     C40421  10.104   4.329  10.334  1.0108 -0.2254 -0.2611
  300MOL0     C40422   9.969   4.358  10.294 -1.3062 -0.0995  0.3822
  300MOL0     C40423   9.900   4.253  10.241  0.8699 -0.2331  0.5505
  300MOL0     O40424   9.775   4.282  10.199  0.4013 -0.9627  0.6924
  300MOL0     C40425   9.683   4.178  10.168  0.7134  0.7824 -0.7897
  300MOL0     C40426   9.555   4.253  10.141 -0.3840 -0.0500 -0.4087
  300MOL0     C40427   9.433   4.169  10.142  0.1576 -0.4531 -0.7377
  300MOL0     C40428   9.318   4.261  10.117 -0.7092 -0.0624  0.2304
  300MOL0     C40429   9.277   4.345  10.228 -0.4771 -0.2450  0.1550
  300MOL0     C40430   9.255   4.426  10.316  0.0330 -0.8520 -0.3700
  300MOL0     C40431   9.965   4.133  10.211  0.3372  0.3927 -0.4562
  300MOL0     C40432  10.091   4.102  10.261  0.0993 -0.2744  0.1845
  300MOL0     H40433  10.443   4.530  10.499 -0.7691  0.3746  0.3583
  300MOL0     H40434  10.623   4.570  10.665  1.2521  0.0170  2.6311
  300MOL0     H40435  10.823   4.594  10.764  2.9996 -1.5859 -2.9298
  300MOL0     H40436  10.724   4.508  10.881  1.2678  0.2084  0.9817
  300MOL0     H40437  10.915   4.397  10.989  3.8569 -1.4993  1.1022
  300MOL0     H40438  11.031   4.466  10.869 -0.3036  3.0633 -2.8860
  300MOL0     H40439  11.056   4.602  11.057 -0.6011 -0.3166  0.9853
  300MOL0     H40440  10.962   4.698  10.931 -1.8376  0.1788 -1.7660
  300MOL0     H40441  10.756   4.615  11.068 -0.8147 -0.9055  0.7688
  300MOL0     H40442  10.867   4.534  11.176 -0.4341 -0.1621 -0.0341
  300MOL0     H40443  10.818   4.739  11.293 -0.6596  2.4230 -0.5783
  300MOL0     H40444  10.985   4.744  11.239 -0.0305  1.9467  1.6472
  300MOL0     H40445  10.940   4.869  11.053 -0.2416  1.4252 -0.0726
  300MOL0     H40446  10.758   4.856  11.067 -0.1678  1.4799  1.7653
  300MOL0     H40447  10.786   4.967  11.293  0.3402 -1.1821 -0.4899
  300MOL0     H40448  10.956   4.989  11.260 -0.3869  2.1225  1.2546
  300MOL0     H40449  10.850   5.203  11.220  1.4810  1.7237 -1.4679
  300MOL0     H40450  10.738   5.125  11.100  1.8831  1.7040 -2.5002
  300MOL0     H40451  11.129   5.211  11.133 -0.3919  1.6851 -1.2604
  300MOL0     H40452  11.282   5.277  10.905  0.7634  0.2739  1.6419
  300MOL0     H40453  11.312   5.099  10.885  2.0463  1.4360 -2.0322
  300MOL0     H40454  11.218   5.098  10.658 -1.5443  0.4418  1.5244
  300MOL0     H40455  11.356   5.195  10.669  0.0347 -0.7505 -0.4781
  300MOL0     H40456  11.195   5.394  10.721 -0.9058 -0.3182  0.8338
  300MOL0     H40457  11.061   5.291  10.669  0.0448  1.7028  0.9070
  300MOL0     H40458  11.293   5.355  10.487 -0.6048  2.2006 -1.6476
  300MOL0     H40459  11.130   5.418  10.480 -0.2847 -0.7320 -0.8339
  300MOL0     H40460  11.091   5.010  10.281 -1.6105 -2.7447  2.6482
  300MOL0     H40461  10.957   4.885  10.129  0.9481  1.7379  1.0238
  300MOL0     H40462  10.798   4.873  10.209 -1.8405 -0.3201 -1.6059
  300MOL0     H40463  10.832   4.972  10.061  3.7907  1.6722 -0.9836
  300MOL0     H40464  10.374   5.099  10.445  2.2836  0.9413  0.3774
  300MOL0     H40465  10.130   5.087  10.417 -1.1597 -2.4613 -0.8544
  300MOL0     H40466   9.983   5.219   9.981  1.6620 -2.0576 -1.4624
  300MOL0     H40467   9.999   5.048  10.007  1.3591 -0.2804  2.3425
  300MOL0     H40468   9.775   5.025  10.089 -0.3352 -0.4827 -0.6389
  300MOL0     H40469   9.749   5.213  10.072 -1.0313 -0.3695 -1.6737
  300MOL0     H40470   9.833   5.018   9.857  2.3167  0.1746  2.9542
  300MOL0     H40471   9.775   5.189   9.841 -1.5192  0.1871 -0.4489
  300MOL0     H40472   9.607   4.953   9.939  1.6751  1.1001  2.1765
  300MOL0     H40473   9.570   5.111   9.973  1.1228  0.4300  0.2124
  300MOL0     H40474   9.598   5.001   9.693  0.0402 -0.5790  1.6992
  300MOL0     H40475   9.596   5.167   9.716  1.4382 -0.0669  1.0772
  300MOL0     H40476   9.365   4.988   9.785  1.9354 -0.3102 -0.2640
  300MOL0     H40477   9.382   5.153   9.860  1.1541  2.6867 -0.9560
  300MOL0     H40478   9.334   5.074   9.575  0.6452 -0.1080  0.2440
  300MOL0     H40479   9.394   5.235   9.623  0.6494 -1.1641 -2.3855
  300MOL0     H40480   9.174   5.278   9.613 -0.5444  1.1164  1.8721
  300MOL0     H40481   9.184   5.228   9.786 -0.5285 -0.2191  1.0496
  300MOL0     H40482  10.203   5.231  10.004  1.4721  1.2534  0.2038
  300MOL0     H40483  10.429   5.228  10.041 -1.1083  0.9321 -0.2914
  300MOL0     H40484  10.709   5.302  10.390  1.7390  1.2224  1.8151
  300MOL0     H40485  10.927   5.345  10.490 -2.6346  0.3738 -1.3261
  300MOL0     H40486  10.753   4.161  10.607  0.9651  0.3504  0.1091
  300MOL0     H40487  10.586   4.122  10.454 -0.9405 -0.9775  0.1164
  300MOL0     H40488  10.162   4.414  10.369  2.1088  0.3087 -3.1367
  300MOL0     H40489   9.923   4.456  10.294  2.6889  2.1106  3.5422
  300MOL0     H40490   9.713   4.125  10.077  2.3466  0.5495 -0.1556
  300MOL0     H40491   9.665   4.115  10.255  3.6943 -0.3120 -0.8334
  300MOL0     H40492   9.561   4.312  10.049  2.0153  0.1402 -0.2034
  300MOL0     H40493   9.545   4.327  10.221 -1.0656  0.4982 -0.9866
  300MOL0     H40494   9.417   4.120  10.238  2.5422  1.2044  0.6038
  300MOL0     H40495   9.440   4.091  10.066  1.3315  0.9759 -2.1805
  300MOL0     H40496   9.233   4.196  10.093 -0.8196 -0.7195  2.1721
  300MOL0     H40497   9.345   4.319  10.029  0.5426 -1.9694 -0.7294
  300MOL0     H40498   9.232   4.504  10.386 -3.0775 -0.5788 -1.4958
  300MOL0     H40499   9.913   4.049  10.165 -0.4008 -0.3616  1.6074
  300MOL0     H40500  10.134   4.003  10.251  1.6934  0.1810  1.9118
  301MOL0     O40501   4.380   4.432   7.321  0.3920  0.5777 -0.7288
  301MOL0     C40502   4.462   4.344   7.345  0.2972 -0.4786 -0.2629
  301MOL0     O40503   4.437   4.237   7.421 -0.2519  0.1758  0.1567
  301MOL0     C40504   4.315   4.238   7.485 -0.8301  0.3686  0.3028
  301MOL0     C40505   4.320   4.244   7.627 -0.5652  0.3916 -0.1774
  301MOL0     C40506   4.208   4.215   7.705 -0.4992 -0.4893  0.9440
  301MOL0     C40507   4.082   4.194   7.644 -0.5149 -0.7723 -0.3247
  301MOL0     O40508   3.965   4.180   7.707 -0.1356 -0.6462  0.2998
  301MOL0     C40509   3.952   4.190   7.846  0.0189  0.1548  0.1096
  301MOL0     C40510   3.811   4.165   7.891 -0.6420  0.3555  1.2650
  301MOL0     C40511   3.760   4.020   7.885  0.5340 -0.9477  0.1990
  301MOL0     C40512   3.608   4.024   7.947 -0.4135  0.1389  0.1051
  301MOL0     C40513   3.550   3.881   7.950  0.3423  0.4111 -0.2406
  301MOL0     C40514   3.473   3.842   7.819 -0.1866 -0.0608  0.0265
  301MOL0     C40515   3.441   3.687   7.806 -0.3110  0.0786  0.5841
  301MOL0     C40516   3.338   3.657   7.689 -0.3574 -0.7094  0.1616
  301MOL0     N40517   3.200   3.660   7.746 -0.5210 -0.0469  0.2359
  301MOL0     C40518   3.127   3.779   7.757 -0.1439  0.3976  0.0129
  301MOL0     C40519   3.001   3.730   7.758 -0.0850 -1.3943  0.6571
  301MOL0     C40520   2.889   3.824   7.741  0.5064  0.5988 -0.3946
  301MOL0     C40521   2.807   3.840   7.874 -0.2868 -0.4803  0.2889
  301MOL0     C40522   2.746   3.986   7.881 -0.1793 -0.2488  0.2613
  301MOL0     C40523   2.661   4.011   8.001 -0.3603 -0.2666 -0.4164
  301MOL0     O40524   2.541   3.939   7.983  0.5061 -0.3240 -0.2977
  301MOL0     C40525   2.438   3.958   8.069 -0.5941 -0.7181  0.1149
  301MOL0     C40526   2.447   4.036   8.185  0.1613  0.0393 -0.1179
  301MOL0     C40527   2.340   4.053   8.274 -1.2924  0.0722  0.2709
  301MOL0     C40528   2.373   4.134   8.398  0.1897  0.3121 -0.9250
  301MOL0     C40529   2.215   3.991   8.249  0.2032 -0.0479 -0.6846
  301MOL0     C40530   2.103   4.000   8.353  0.3899  0.1424  0.1015
  301MOL0     O40531   1.997   3.921   8.326 -0.7116 -0.5821 -0.4583
  301MOL0     C40532   1.896   3.935   8.420  0.9388  0.2581  0.1993
  301MOL0     C40533   1.895   3.875   8.544 -0.0287 -0.1572  0.3450
  301MOL0     C40534   1.782   3.883   8.628  0.0905  0.5340 -0.0628
  301MOL0     C40535   1.672   3.960   8.586  0.6412 -0.4001 -0.1175
  301MOL0     O40536   1.558   3.979   8.665  0.0342  1.1084 -0.1967
  301MOL0     C40537   1.525   3.866   8.747 -0.1179  0.3451  0.1045
  301MOL0     C40538   1.377   3.866   8.789  0.1701  0.5426  0.1243
  301MOL0     C40539   1.329   3.988   8.880 -0.5330  0.6663 -0.3743
  301MOL0     C40540   1.194   3.959   8.937  0.6679  0.0743  0.4928
  301MOL0     C40541   1.162   4.059   9.048 -0.7504  0.1586  0.3469
  301MOL0     C40542   1.022   4.039   9.102 -0.2682  0.0827  0.0701
  301MOL0     C40543   0.986   4.163   9.182 -1.0938  0.2005  0.4547
  301MOL0     C40544   0.886   4.147   9.289 -0.3702  0.1877 -0.5825
  301MOL0    Cl40545   0.919   4.010   9.421  0.2283 -0.4948  0.2720
  301MOL0     C40546   1.675   4.023   8.460 -0.2400 -0.0772 -0.2281
  301MOL0     C40547   1.779   4.004   8.375 -0.7369 -0.1877  0.5985
  301MOL0     O40548   2.113   4.080   8.443 -1.1295  0.2910  0.1582
  301MOL0     C40549   2.208   3.928   8.125  0.4493  0.3921 -0.5116
  301MOL0     C40550   2.315   3.916   8.033  1.0193 -0.8342 -0.3366
  301MOL0     N40551   2.995   3.596   7.772  1.0895 -0.1060 -0.2224
  301MOL0     N40552   3.115   3.554   7.760  0.4448  0.4057  0.0883
  301MOL0     C40553   4.078   4.192   7.499  0.2491  0.7291 -0.1541
  301MOL0     C40554   4.194   4.209   7.425 -0.3704 -0.6808 -0.6924
  301MOL0     C40555   4.598   4.371   7.290  1.0154 -0.3304 -0.0091
  301MOL0     C40556   4.628   4.441   7.173 -0.3098 -0.2253  0.3334
  301MOL0     C40557   4.754   4.457   7.123  0.4903  0.2532 -0.2644
  301MOL0     C40558   4.860   4.390   7.181 -0.9757 -0.7278 -0.3552
  301MOL0     O40559   4.989   4.400   7.143 -0.7408 -0.0435  0.0259
  301MOL0     C40560   5.041   4.279   7.091  1.5256  0.2523  1.5013
  301MOL0     C40561   5.169   4.300   7.021 -0.3473 -0.7685  0.2008
  301MOL0     C40562   5.220   4.174   6.960  1.2714 -0.4601  0.3319
  301MOL0     C40563   5.305   4.092   7.059  0.3654 -0.5616  0.0691
  301MOL0     C40564   5.337   3.955   6.998  0.1693 -0.3696  1.2487
  301MOL0     C40565   5.354   3.846   6.950 -0.6896 -0.7775  0.1094
  301MOL0     C40566   4.837   4.322   7.298  0.6926 -0.5073  0.8467
  301MOL0     C40567   4.711   4.314   7.353  1.7766 -0.8049 -0.7762
  301MOL0     H40568   4.406   4.286   7.678 -0.3029 -0.8954  0.4999
  301MOL0     H40569   4.220   4.222   7.813  0.0947  1.5463  0.7960
  301MOL0     H40570   4.025   4.124   7.894 -1.6064 -2.1263 -0.3786
  301MOL0     H40571   3.964   4.297   7.862 -2.8257  0.7512 -1.2302
  301MOL0     H40572   3.804   4.207   7.991  0.3872  2.5402  0.4805
  301MOL0     H40573   3.746   4.229   7.831 -0.2512 -0.6334 -0.2849
  301MOL0     H40574   3.772   3.979   7.784  2.2413  2.2013 -1.0065
  301MOL0     H40575   3.828   3.961   7.947 -0.4464  0.2286  2.5172
  301MOL0     H40576   3.620   4.066   8.048  1.8784  0.0498 -0.0678
  301MOL0     H40577   3.543   4.094   7.895 -1.5015 -0.1004  1.1083
  301MOL0     H40578   3.639   3.819   7.963  0.0245  0.1162  0.6574
  301MOL0     H40579   3.477   3.867   8.031  0.9733  0.2554  0.3043
  301MOL0     H40580   3.383   3.904   7.807  0.7381  0.9839 -2.0400
  301MOL0     H40581   3.544   3.863   7.738 -1.6358  3.1232 -0.5587
  301MOL0     H40582   3.531   3.633   7.778  0.0012  1.0582 -0.3637
  301MOL0     H40583   3.405   3.638   7.897 -1.2304 -1.2642 -0.4654
  301MOL0     H40584   3.349   3.559   7.643  3.2745 -1.0677  1.4676
  301MOL0     H40585   3.344   3.739   7.616 -0.0227 -2.4376 -1.8226
  301MOL0     H40586   3.165   3.877   7.731  0.2418 -0.4138 -2.8938
  301MOL0     H40587   2.923   3.917   7.694  1.7797 -1.4445 -3.9122
  301MOL0     H40588   2.817   3.777   7.673 -0.6565  0.8359  0.6291
  301MOL0     H40589   2.861   3.831   7.969 -1.2740  1.1559  1.0582
  301MOL0     H40590   2.732   3.761   7.877  0.1712 -1.0794 -2.0074
  301MOL0     H40591   2.690   3.991   7.788 -1.4809 -3.4707  0.7329
  301MOL0     H40592   2.831   4.053   7.897 -0.2997  0.3300 -1.3682
  301MOL0     H40593   2.645   4.120   7.999 -0.5998 -0.2963 -0.2445
  301MOL0     H40594   2.716   3.988   8.092 -0.9721  1.4675  0.4355
  301MOL0     H40595   2.546   4.063   8.221 -0.1172 -0.0149  0.7027
  301MOL0     H40596   2.470   4.183   8.402 -0.1465  1.2157 -2.8431
  301MOL0     H40597   2.308   4.221   8.409 -1.7390 -1.2258  0.8056
  301MOL0     H40598   2.347   4.083   8.491  1.3090 -0.6443 -1.1044
  301MOL0     H40599   1.983   3.827   8.583 -1.0219  0.6256  3.9736
  301MOL0     H40600   1.783   3.832   8.723 -2.5565 -1.1659 -0.8171
  301MOL0     H40601   1.534   3.770   8.695 -3.4835  0.0491 -0.1890
  301MOL0     H40602   1.585   3.859   8.838 -2.4937 -1.7221  1.6594
  301MOL0     H40603   1.320   3.870   8.696 -1.7183  1.3852  1.2610
  301MOL0     H40604   1.358   3.775   8.848  3.3652 -0.0645  0.4270
  301MOL0     H40605   1.325   4.084   8.828  2.0473  1.5273  0.8212
  301MOL0     H40606   1.394   4.008   8.966 -2.5325 -0.2751  1.4494
  301MOL0     H40607   1.114   3.964   8.862 -0.1669  0.6922  1.4000
  301MOL0     H40608   1.187   3.860   8.983 -0.6292  0.4912  1.2374
  301MOL0     H40609   1.170   4.155   8.995  1.8515  0.0680  0.4708
  301MOL0     H40610   1.241   4.067   9.123 -1.8957  0.6022  1.5567
  301MOL0     H40611   0.944   4.022   9.027 -0.5021  0.7830  0.1489
  301MOL0     H40612   1.017   3.948   9.163 -2.1479 -1.0498 -1.6592
  301MOL0     H40613   0.969   4.243   9.110 -3.0825 -0.6012 -0.0101
  301MOL0     H40614   1.075   4.197   9.236 -0.7713 -0.2056  0.1817
  301MOL0     H40615   0.785   4.132   9.248 -1.2658  2.3311  0.7132
  301MOL0     H40616   0.875   4.237   9.349 -2.5199 -1.0563  1.0476
  301MOL0     H40617   1.586   4.070   8.419 -0.1637 -0.4247 -0.8095
  301MOL0     H40618   1.764   4.059   8.283 -0.4847 -0.5972  0.3090
  301MOL0     H40619   2.111   3.879   8.116  0.3374 -0.0969  2.5040
  301MOL0     H40620   2.299   3.845   7.953  0.3799 -0.7338 -0.3046
  301MOL0     H40621   3.980   4.173   7.457 -0.0357  1.7553  0.0130
  301MOL0     H40622   4.189   4.180   7.321  2.0239 -1.5123 -0.6338
  301MOL0     H40623   4.551   4.483   7.109  0.0869  3.0529  1.8206
  301MOL0     H40624   4.791   4.509   7.035 -0.8744 -0.6924 -1.4335
  301MOL0     H40625   5.069   4.209   7.170 -1.5451 -1.4499  1.2073
  301MOL0     H40626   4.969   4.227   7.028  1.1236 -0.7351  2.7504
  301MOL0     H40627   5.247   4.332   7.091  0.5783 -0.7866 -0.7968
  301MOL0     H40628   5.165   4.382   6.948 -0.7812 -0.4463  0.5749
  301MOL0     H40629   5.276   4.197   6.868  1.1742 -0.1110  0.3609
  301MOL0     H40630   5.135   4.119   6.919  1.6524 -0.3401 -0.6707
  301MOL0     H40631   5.248   4.079   7.152  1.0615  1.0369  0.7587
  301MOL0     H40632   5.397   4.142   7.090 -0.0172  0.4623 -0.4312
  301MOL0     H40633   5.360   3.748   6.908 -2.3135 -0.9734  0.2818
  301MOL0     H40634   4.927   4.295   7.353  1.5164  0.3798 -0.0250
  301MOL0     H40635   4.696   4.256   7.444  0.5167  1.8213  0.8419
  302MOL0     O40636   8.965   4.513  10.845  0.9926 -0.2779 -0.4969
  302MOL0     C40637   9.044   4.559  10.929  0.3707 -0.6908 -0.4482
  302MOL0     O40638   9.035   4.680  10.983  0.7349 -0.1555  0.4713
  302MOL0     C40639   8.916   4.750  10.958 -1.2309 -1.0985  1.4318
  302MOL0     C40640   8.810   4.718  11.035  0.6399  0.3411  0.0620
  302MOL0     C40641   8.689   4.782  11.012  0.2568 -0.2626  0.2849
  302MOL0     C40642   8.675   4.877  10.905 -0.3461  0.9468  0.1090
  302MOL0     O40643   8.557   4.942  10.874  0.3618  0.1349  0.3549
  302MOL0     C40644   8.442   4.906  10.954 -0.0730 -0.2930  0.0331
  302MOL0     C40645   8.325   4.989  10.909  0.5088  0.3746  0.3598
  302MOL0     C40646   8.271   4.917  10.775 -0.2176 -0.6688  0.2064
  302MOL0     C40647   8.177   4.808  10.814 -0.9666  0.0308  0.1261
  302MOL0     C40648   8.138   4.741  10.681  0.1275  0.2177  0.8394
  302MOL0     C40649   8.076   4.609  10.702 -1.1246 -0.4651  0.1694
  302MOL0     C40650   7.953   4.608  10.786 -0.7224  0.8002  0.0599
  302MOL0     C40651   7.900   4.464  10.794  0.0679  0.2395  0.0539
  302MOL0     N40652   7.866   4.395  10.670 -0.9462 -0.0213 -0.1128
  302MOL0     C40653   7.752   4.416  10.601 -0.3560 -0.1545 -0.2521
  302MOL0     C40654   7.749   4.312  10.518 -0.1321 -0.5225  0.9650
  302MOL0     C40655   7.653   4.273  10.409 -1.1178 -1.0545 -0.4767
  302MOL0     C40656   7.552   4.173  10.449 -0.4529  0.8319 -0.2056
  302MOL0     C40657   7.510   4.065  10.347  0.3746 -1.2986 -0.4752
  302MOL0     C40658   7.372   4.005  10.395  0.4144  0.4564  0.2878
  302MOL0     O40659   7.266   4.097  10.389 -0.4114 -0.6782 -0.2893
  302MOL0     C40660   7.136   4.052  10.388  0.1198  0.3198  0.3271
  302MOL0     C40661   7.035   4.128  10.340 -0.1818 -0.7955  0.0451
  302MOL0     C40662   6.896   4.092  10.336 -0.1394 -0.2898  0.2057
  302MOL0     C40663   6.798   4.184  10.267 -0.2841  0.9971 -0.7799
  302MOL0     C40664   6.869   3.969  10.390  0.5277  0.7733  0.4568
  302MOL0     C40665   6.731   3.911  10.376  0.1319 -1.2785 -0.0904
  302MOL0     O40666   6.651   3.948  10.281  0.3952  0.6493  0.1178
  302MOL0     C40667   6.523   3.913  10.292  0.0520  0.1071 -0.7335
  302MOL0     C40668   6.464   3.871  10.174  0.7553 -0.2597 -0.0327
  302MOL0     C40669   6.329   3.840  10.170  0.1090 -0.0044  0.0525
  302MOL0     C40670   6.250   3.848  10.290 -0.5179  0.8132 -0.0502
  302MOL0     O40671   6.120   3.804  10.315 -0.6170  0.6132  0.4219
  302MOL0     C40672   6.026   3.782  10.201 -0.0038 -0.6519 -0.0133
  302MOL0     C40673   5.889   3.738  10.258  0.1576  0.5735 -0.1676
  302MOL0     C40674   5.815   3.856  10.342  0.0734  0.3241 -0.1143
  302MOL0     C40675   5.664   3.830  10.372 -0.5761  0.0961 -0.0835
  302MOL0     C40676   5.595   3.950  10.429  0.6051  1.1435 -0.5092
  302MOL0     C40677   5.468   3.905  10.498  0.4156  0.2829  0.6761
  302MOL0     C40678   5.406   4.009  10.595 -0.1898  0.6141  0.3249
  302MOL0     C40679   5.260   4.024  10.576  0.5184  0.3080 -0.9411
  302MOL0    Cl40680   5.169   3.890  10.647 -0.1745 -0.2628  0.1128
  302MOL0     C40681   6.311   3.892  10.407 -0.7378  0.3521 -0.0443
  302MOL0     C40682   6.444   3.927  10.408  0.3268  0.0902 -0.1899
  302MOL0     O40683   6.695   3.830  10.464  0.1063 -0.8876  0.0177
  302MOL0     C40684   6.965   3.898  10.462  0.2155  0.4730  0.7113
  302MOL0     C40685   7.104   3.926  10.452  0.1683  0.0593 -0.3191
  302MOL0     N40686   7.858   4.230  10.539  1.1378 -0.3189 -0.5136
  302MOL0     N40687   7.933   4.288  10.628 -0.3646  0.7894  0.1038
  302MOL0     C40688   8.791   4.910  10.832 -0.3571  0.3981 -1.1531
  302MOL0     C40689   8.913   4.851  10.866 -0.4427  0.0299 -0.1079
  302MOL0     C40690   9.162   4.488  10.965  0.5124  0.1067  0.3487
  302MOL0     C40691   9.203   4.371  10.890  0.2007  0.2687  0.1245
  302MOL0     C40692   9.303   4.285  10.935  0.4458  0.3170  0.5241
  302MOL0     C40693   9.368   4.320  11.054  0.2721 -0.0406 -1.0551
  302MOL0     O40694   9.470   4.251  11.120  0.8448  0.5803  0.0399
  302MOL0     C40695   9.514   4.124  11.076 -1.7237  0.1122 -0.0332
  302MOL0     C40696   9.628   4.071  11.180  1.1368 -0.2736  0.2659
  302MOL0     C40697   9.565   4.071  11.327  0.1836  1.3145 -0.5747
  302MOL0     C40698   9.679   4.067  11.431 -0.1228 -0.0308 -0.2848
  302MOL0     C40699   9.734   3.933  11.462  0.0070  0.1393 -0.0212
  302MOL0     C40700   9.782   3.829  11.500 -0.9142 -0.1427  0.4481
  302MOL0     C40701   9.331   4.440  11.123 -0.3686  0.1025 -0.5072
  302MOL0     C40702   9.229   4.527  11.078 -0.1182 -0.8330 -0.3381
  302MOL0     H40703   8.827   4.639  11.108 -0.5774 -2.1030 -2.1486
  302MOL0     H40704   8.610   4.756  11.082 -0.7910  0.8728 -0.4348
  302MOL0     H40705   8.416   4.800  10.948 -1.0000 -0.1004  0.5826
  302MOL0     H40706   8.456   4.921  11.061 -1.9246 -1.8112  0.5387
  302MOL0     H40707   8.251   4.999  10.988 -1.5260 -2.2980 -1.0571
  302MOL0     H40708   8.363   5.086  10.876 -1.2490  0.1013 -2.8425
  302MOL0     H40709   8.216   4.995  10.722 -1.7483 -1.4002  0.6439
  302MOL0     H40710   8.351   4.881  10.710 -1.1887 -3.3839  0.3646
  302MOL0     H40711   8.221   4.744  10.892  0.5858 -0.4168 -1.0629
  302MOL0     H40712   8.083   4.838  10.861 -1.0483  0.8016 -0.5093
  302MOL0     H40713   8.063   4.801  10.627 -1.0967 -0.9854  1.1531
  302MOL0     H40714   8.231   4.732  10.625 -0.1523 -3.1389  0.7440
  302MOL0     H40715   8.067   4.554  10.608 -1.3920  0.4542 -0.3500
  302MOL0     H40716   8.155   4.559  10.760 -0.1144  2.0998  1.1307
  302MOL0     H40717   7.978   4.651  10.883  1.5719 -0.7872  0.2536
  302MOL0     H40718   7.875   4.672  10.744 -2.0317 -1.0294 -0.4187
  302MOL0     H40719   7.821   4.440  10.865 -0.4639  0.5117 -0.4428
  302MOL0     H40720   7.988   4.407  10.827  0.3229 -0.7902 -2.2174
  302MOL0     H40721   7.680   4.494  10.622  1.5128  1.2414  1.3202
  302MOL0     H40722   7.612   4.366  10.369 -0.7481 -0.9588 -0.6330
  302MOL0     H40723   7.717   4.231  10.331  0.4334 -0.4351  0.4090
  302MOL0     H40724   7.468   4.229  10.491 -0.2708 -0.1680  1.5446
  302MOL0     H40725   7.581   4.118  10.538 -0.1200  0.5381 -0.4947
  302MOL0     H40726   7.590   3.990  10.352  1.5051 -0.0517  1.0717
  302MOL0     H40727   7.505   4.111  10.248  1.4335  0.5259  0.2551
  302MOL0     H40728   7.382   3.976  10.500 -0.6947 -0.1975  0.2209
  302MOL0     H40729   7.349   3.917  10.334  2.6162  1.3518 -2.0204
  302MOL0     H40730   7.063   4.226  10.301  1.6126 -0.2298  2.5159
  302MOL0     H40731   6.778   4.156  10.163 -0.4866 -1.2963 -0.1753
  302MOL0     H40732   6.705   4.200  10.323 -0.5461  0.7593 -1.1423
  302MOL0     H40733   6.840   4.285  10.274  1.3394  0.2449  1.1010
  302MOL0     H40734   6.521   3.853  10.084 -1.7408  0.2886 -1.8070
  302MOL0     H40735   6.275   3.831  10.077  0.6486  0.3827 -0.3080
  302MOL0     H40736   6.028   3.875  10.145  4.6160  0.1290  1.0266
  302MOL0     H40737   6.070   3.708  10.133  2.5799  1.1389 -0.4582
  302MOL0     H40738   5.826   3.710  10.173  2.2117  4.0532 -3.1211
  302MOL0     H40739   5.899   3.649  10.322 -0.1415  1.7541  1.5837
  302MOL0     H40740   5.830   3.948  10.285 -1.2959 -0.7661 -2.4128
  302MOL0     H40741   5.864   3.884  10.436 -1.2241  0.9146  0.4076
  302MOL0     H40742   5.606   3.790  10.288  0.7772 -4.7706  1.0181
  302MOL0     H40743   5.655   3.752  10.448  0.4582  1.5016  1.5443
  302MOL0     H40744   5.567   4.017  10.347 -1.3060  1.9195  0.7087
  302MOL0     H40745   5.665   4.002  10.495 -0.1233  1.3298  0.1287
  302MOL0     H40746   5.395   3.876  10.422  1.5208 -1.0830  0.0850
  302MOL0     H40747   5.494   3.815  10.554 -1.0509  0.6560  1.9987
  302MOL0     H40748   5.460   4.100  10.567  0.8495 -0.0830  0.0185
  302MOL0     H40749   5.439   3.976  10.694  0.4434 -0.3563 -0.1957
  302MOL0     H40750   5.233   4.024  10.469 -0.8508 -3.5416 -0.7673
  302MOL0     H40751   5.218   4.115  10.619 -2.7169 -0.2209 -2.6937
  302MOL0     H40752   6.232   3.903  10.481 -1.9815  1.0638 -1.4124
  302MOL0     H40753   6.476   3.964  10.505 -0.8282  1.9235 -0.4367
  302MOL0     H40754   6.945   3.794  10.488 -1.4635  0.3723 -0.8016
  302MOL0     H40755   7.182   3.861  10.489 -2.3313 -2.1727  1.3894
  302MOL0     H40756   8.798   4.981  10.750 -1.9052 -0.6213 -2.2112
  302MOL0     H40757   8.999   4.894  10.815 -2.2268  0.7155 -2.7085
  302MOL0     H40758   9.145   4.355  10.800 -1.7570  0.5706  1.2675
  302MOL0     H40759   9.316   4.195  10.875 -0.4060  0.7654 -0.3734
  302MOL0     H40760   9.436   4.047  11.074 -0.2636 -1.4292 -0.9553
  302MOL0     H40761   9.555   4.139  10.976  1.5342 -0.8004  1.0187
  302MOL0     H40762   9.717   4.135  11.173 -0.2312  1.6355 -0.5087
  302MOL0     H40763   9.662   3.970  11.155  1.0074 -0.8878  2.3615
  302MOL0     H40764   9.487   3.994  11.333 -0.3465  1.6746 -2.1937
  302MOL0     H40765   9.511   4.164  11.341 -0.5458  0.9410 -0.8270
  302MOL0     H40766   9.639   4.116  11.520 -0.5510  0.3324 -0.6741
  302MOL0     H40767   9.768   4.122  11.399 -0.0869  1.0122  1.5294
  302MOL0     H40768   9.833   3.741  11.533  0.0448  0.6778  1.2106
  302MOL0     H40769   9.387   4.452  11.215  0.0100 -2.3233 -0.3716
  302MOL0     H40770   9.198   4.609  11.141 -0.3841  0.7665 -2.4327
  303MOL0     O40771   4.950   9.354   9.918 -0.5466  0.2588 -0.4302
  303MOL0     C40772   5.027   9.447   9.939 -0.1628  0.2193 -0.9548
  303MOL0     O40773   5.002   9.565   9.998 -0.1151  0.1676 -0.0099
  303MOL0     C40774   4.874   9.596  10.024  1.0543 -0.5606 -0.5081
  303MOL0     C40775   4.795   9.649   9.930 -0.1596  0.1532  0.4193
  303MOL0     C40776   4.666   9.683   9.954 -0.1166  0.6857  0.3912
  303MOL0     C40777   4.610   9.661  10.075  0.1398 -0.1109 -0.1265
  303MOL0     O40778   4.480   9.700  10.113 -0.0214 -0.1061 -0.1797
  303MOL0     C40779   4.399   9.745  10.001 -0.2012 -0.1893 -0.8335
  303MOL0     C40780   4.264   9.792  10.069  0.3680 -0.5438  0.0557
  303MOL0     C40781   4.269   9.939  10.122 -0.1226  0.0685 -0.1965
  303MOL0     C40782   4.129   9.970  10.181 -0.1374  0.2090 -0.8227
  303MOL0     C40783   4.138  10.113  10.238  0.1466  0.3626  0.1628
  303MOL0     C40784   4.012  10.144  10.311  0.2162 -0.3818 -0.2741
  303MOL0     C40785   4.026  10.288  10.367 -0.3484  0.7617  0.8844
  303MOL0     C40786   3.993  10.401  10.263  0.7172  0.8220 -0.9228
  303MOL0     N40787   3.852  10.418  10.235  0.3759  0.0643  0.0676
  303MOL0     C40788   3.766  10.505  10.292  1.1990 -0.4407 -0.2017
  303MOL0     C40789   3.650  10.510  10.210  0.0666  0.8354 -0.5488
  303MOL0     C40790   3.522  10.581  10.234 -0.0738 -0.0453 -0.7129
  303MOL0     C40791   3.402  10.497  10.287 -0.7039 -0.1484 -0.9014
  303MOL0     C40792   3.442  10.431  10.422 -0.1013  0.8213  0.3684
  303MOL0     C40793   3.349  10.315  10.452  0.2441 -0.3599 -0.4760
  303MOL0     O40794   3.216  10.365  10.488  0.5384  0.4315 -0.1849
  303MOL0     C40795   3.109  10.289  10.445  0.9887 -0.8103  0.3502
  303MOL0     C40796   3.108  10.149  10.438  0.1409 -0.1413  0.2856
  303MOL0     C40797   2.994  10.084  10.376 -0.2408  0.0138 -0.3094
  303MOL0     C40798   2.987   9.933  10.390 -0.1027  0.1620  0.0461
  303MOL0     C40799   2.895  10.163  10.317 -0.2705  0.6734 -0.2506
  303MOL0     C40800   2.765  10.096  10.258  0.5160 -0.1011  0.0805
  303MOL0     O40801   2.665  10.179  10.218 -0.0364  0.2290 -0.6289
  303MOL0     C40802   2.551  10.132  10.165  0.1070  0.2742 -0.6097
  303MOL0     C40803   2.541  10.069  10.042 -0.2728  0.8626  0.2037
  303MOL0     C40804   2.432   9.990  10.007 -0.4032  0.2347 -0.2125
  303MOL0     C40805   2.325   9.992  10.095 -0.5083 -0.6677 -0.1313
  303MOL0     O40806   2.204   9.930  10.068  0.1915  0.2383 -0.2512
  303MOL0     C40807   2.135   9.997   9.960  0.2942  0.0541  0.1876
  303MOL0     C40808   2.008   9.926   9.934  0.0774 -1.3602 -0.4196
  303MOL0     C40809   1.930   9.911  10.063 -0.4710  0.3738  0.1793
  303MOL0     C40810   1.797   9.849  10.015 -1.0721 -0.1319 -0.3514
  303MOL0     C40811   1.703   9.815  10.131  0.2027 -0.0612  0.1735
  303MOL0     C40812   1.580   9.726  10.089 -1.0667 -0.2912  0.0234
  303MOL0     C40813   1.463   9.768  10.184  0.0133 -0.2896 -0.2011
  303MOL0     C40814   1.338   9.688  10.164  0.0042 -0.2138  0.0846
  303MOL0    Cl40815   1.260   9.711  10.000 -0.2269 -0.1392 -0.0184
  303MOL0     C40816   2.329  10.062  10.216 -0.4712 -0.0417  0.4627
  303MOL0     C40817   2.441  10.138  10.249  0.2217 -0.2278 -0.3366
  303MOL0     O40818   2.749   9.974  10.265  0.7782 -1.0143 -0.5260
  303MOL0     C40819   2.895  10.304  10.328 -0.6976  0.2050  0.2772
  303MOL0     C40820   3.006  10.365  10.386  0.6238  0.0875 -0.0565
  303MOL0     N40821   3.676  10.421  10.113  1.2146 -0.1933  0.1847
  303MOL0     N40822   3.788  10.370  10.128  0.7218  0.2753  0.4188
  303MOL0     C40823   4.686   9.595  10.178  0.7336 -0.7284 -0.0199
  303MOL0     C40824   4.815   9.559  10.145  0.5386  0.0935 -0.5368
  303MOL0     C40825   5.170   9.414   9.914 -0.0769 -0.0036 -0.3017
  303MOL0     C40826   5.215   9.325   9.814  0.6333 -1.0014  0.1322
  303MOL0     C40827   5.348   9.305   9.776 -0.0119  0.0343 -0.3519
  303MOL0     C40828   5.443   9.381   9.847  0.3019 -0.1038 -0.5761
  303MOL0     O40829   5.572   9.372   9.815 -0.0426 -0.6326  0.8486
  303MOL0     C40830   5.616   9.311   9.698 -0.0749 -0.2498  0.0329
  303MOL0     C40831   5.761   9.353   9.682 -0.1266 -0.7343 -0.2717
  303MOL0     C40832   5.864   9.308   9.795 -0.5199 -0.1180  0.6362
  303MOL0     C40833   5.867   9.164   9.824 -1.5391  0.0599 -0.3737
  303MOL0     C40834   5.984   9.132   9.913  0.4149  0.1165  0.2397
  303MOL0     C40835   6.067   9.090   9.999 -0.4349 -0.4762  0.3590
  303MOL0     C40836   5.400   9.477   9.938 -0.2257 -0.8077  0.1080
  303MOL0     C40837   5.267   9.489   9.988  0.3777 -0.3688  0.2750
  303MOL0     H40838   4.841   9.682   9.838 -3.1482  0.5931 -1.0624
  303MOL0     H40839   4.617   9.749   9.884 -1.2863  0.1681  0.6890
  303MOL0     H40840   4.441   9.831   9.948 -2.2998  0.5760 -1.3665
  303MOL0     H40841   4.379   9.666   9.928 -0.4482 -1.1244  0.2261
  303MOL0     H40842   4.192   9.796   9.987 -0.3664  1.3427  0.7189
  303MOL0     H40843   4.239   9.719  10.145  0.3861 -0.8705 -0.2517
  303MOL0     H40844   4.346   9.952  10.199 -0.0198  0.0679 -0.2985
  303MOL0     H40845   4.297  10.002  10.037  0.3286 -1.6038 -1.3563
  303MOL0     H40846   4.046   9.975  10.110  0.5702 -1.1745 -1.7972
  303MOL0     H40847   4.102   9.897  10.259  1.3340  0.9035  0.3862
  303MOL0     H40848   4.226  10.135  10.300 -1.3408  3.5353  1.3502
  303MOL0     H40849   4.132  10.184  10.154  0.6347  0.5900  0.3112
  303MOL0     H40850   3.928  10.134  10.242  1.3201  0.2457 -1.7550
  303MOL0     H40851   3.986  10.085  10.399  0.9252  1.6565  1.3684
  303MOL0     H40852   3.954  10.296  10.449 -2.0923  1.5326 -0.6717
  303MOL0     H40853   4.128  10.312  10.401  0.8551 -0.9316 -1.2588
  303MOL0     H40854   4.042  10.387  10.166 -2.0845  1.6908 -2.5903
  303MOL0     H40855   4.023  10.496  10.306  0.6166  0.8990 -1.0209
  303MOL0     H40856   3.790  10.562  10.381  1.6827  0.0451 -0.6363
  303MOL0     H40857   3.545  10.648  10.318  0.9765 -0.5821 -0.5608
  303MOL0     H40858   3.481  10.644  10.155 -2.1724 -1.1967 -0.6324
  303MOL0     H40859   3.376  10.421  10.214  2.1465 -1.6438 -0.4882
  303MOL0     H40860   3.311  10.553  10.311 -3.3075 -4.2590 -0.2795
  303MOL0     H40861   3.441  10.507  10.500 -0.9613  3.2115 -1.8244
  303MOL0     H40862   3.545  10.393  10.423  1.1659  3.9818  1.4996
  303MOL0     H40863   3.393  10.260  10.536  1.3787  0.4816 -0.4867
  303MOL0     H40864   3.344  10.243  10.370  1.6102 -0.2060 -0.7181
  303MOL0     H40865   3.197  10.097  10.472  0.7379 -0.0824 -1.1203
  303MOL0     H40866   2.990   9.883  10.293 -2.2219 -1.0255  0.5262
  303MOL0     H40867   3.073   9.900  10.450  0.4847  0.8053 -0.4184
  303MOL0     H40868   2.899   9.912  10.451 -0.8754  0.0471 -1.0873
  303MOL0     H40869   2.628  10.071   9.978 -0.6144  1.1053 -0.2616
  303MOL0     H40870   2.425   9.941   9.910  1.2614  0.8142 -0.6642
  303MOL0     H40871   2.126  10.102   9.988  0.3186  0.3531 -0.8639
  303MOL0     H40872   2.185   9.982   9.864 -1.3852  2.8125 -1.2607
  303MOL0     H40873   1.949   9.992   9.869 -0.7045 -0.5696  1.0354
  303MOL0     H40874   2.023   9.831   9.882  1.3010 -0.5094 -1.6539
  303MOL0     H40875   1.904  10.004  10.114  1.9982  0.7990  0.7637
  303MOL0     H40876   1.976   9.840  10.132 -2.5891 -0.9207  0.3428
  303MOL0     H40877   1.745   9.913   9.943  0.6526  0.4864 -1.0931
  303MOL0     H40878   1.828   9.754   9.970  1.9784  1.2424 -1.3911
  303MOL0     H40879   1.667   9.903  10.186 -0.9389 -1.0913  1.1063
  303MOL0     H40880   1.764   9.763  10.206  0.6472 -1.9622 -1.4341
  303MOL0     H40881   1.558   9.749   9.985 -4.2277  1.8822  1.0433
  303MOL0     H40882   1.603   9.620  10.100 -1.9816 -0.3562  1.5813
  303MOL0     H40883   1.433   9.872  10.167  1.0402 -0.1503 -1.2705
  303MOL0     H40884   1.489   9.759  10.290  0.4399 -0.5938 -0.3297
  303MOL0     H40885   1.256   9.712  10.233 -1.6314 -0.0319 -1.8191
  303MOL0     H40886   1.353   9.580  10.176 -0.7675 -0.7686 -3.0285
  303MOL0     H40887   2.234  10.067  10.269 -2.0576  1.8962 -2.2899
  303MOL0     H40888   2.444  10.194  10.343 -0.9180 -0.5104 -0.1050
  303MOL0     H40889   2.822  10.373  10.287  1.5421  3.1371  0.8513
  303MOL0     H40890   3.015  10.473  10.381  1.1838  0.0626  0.2826
  303MOL0     H40891   4.646   9.587  10.279  0.0556 -1.2038 -0.3224
  303MOL0     H40892   4.876   9.504  10.216  0.5624 -4.2999 -3.5407
  303MOL0     H40893   5.136   9.273   9.760 -0.6410  1.3544 -0.3790
  303MOL0     H40894   5.367   9.246   9.687 -0.5489  2.1425 -1.9569
  303MOL0     H40895   5.615   9.202   9.692  1.2104 -0.2277 -1.7248
  303MOL0     H40896   5.572   9.357   9.609  0.8363  0.2788 -0.1554
  303MOL0     H40897   5.771   9.462   9.682 -1.6199 -0.5506 -2.3270
  303MOL0     H40898   5.794   9.319   9.583 -2.6438 -0.8170 -1.1488
  303MOL0     H40899   5.849   9.354   9.893  2.2954  1.6910  0.3450
  303MOL0     H40900   5.955   9.358   9.759 -1.2542  0.3346 -0.6576
  303MOL0     H40901   5.881   9.118   9.726  3.6634  1.7760 -0.7867
  303MOL0     H40902   5.768   9.146   9.867 -1.5379  0.5834 -0.1328
  303MOL0     H40903   6.138   9.075  10.078 -0.8722  0.6515  0.9880
  303MOL0     H40904   5.477   9.543   9.978 -1.3438  2.5383 -2.7261
  303MOL0     H40905   5.235   9.540  10.078 -2.7085 -2.2898  0.4010
  304MOL0     O40906   8.018   1.098   0.983 -0.0141  0.5017  0.1091
  304MOL0     C40907   8.017   1.161   1.084  0.3478 -0.5765 -0.7814
  304MOL0     O40908   8.102   1.265   1.113  0.2663  1.0549 -0.0586
  304MOL0     C40909   8.164   1.324   1.005 -0.3120  0.2702 -0.3045
  304MOL0     C40910   8.105   1.349   0.883  0.1944 -0.2526  0.6022
  304MOL0     C40911   8.169   1.425   0.782 -0.0134  0.6182 -0.1684
  304MOL0     C40912   8.291   1.490   0.813  0.0032  0.0467 -0.2961
  304MOL0     O40913   8.351   1.569   0.717  0.3353  0.6222  0.1355
  304MOL0     C40914   8.441   1.678   0.746  1.1346 -0.6488 -0.3565
  304MOL0     C40915   8.357   1.794   0.816  0.1958 -0.3475  0.7049
  304MOL0     C40916   8.253   1.870   0.725  0.2735  0.8360 -0.1746
  304MOL0     C40917   8.253   2.018   0.756 -0.1239  0.4659 -0.4683
  304MOL0     C40918   8.131   2.079   0.688  0.0520 -0.6655  0.3932
  304MOL0     C40919   8.136   2.231   0.726 -0.5987 -0.4590 -0.2934
  304MOL0     C40920   8.025   2.304   0.657  0.4155  0.7548  0.1375
  304MOL0     C40921   8.060   2.436   0.602  0.0104 -0.1629  0.2027
  304MOL0     N40922   7.932   2.494   0.560 -0.7606  0.7577 -0.1469
  304MOL0     C40923   7.884   2.500   0.430 -0.1464  0.7137  0.1534
  304MOL0     C40924   7.785   2.583   0.431  0.8927  0.3499 -0.8986
  304MOL0     C40925   7.717   2.624   0.304  0.1723 -0.3991 -0.1563
  304MOL0     C40926   7.598   2.718   0.315 -0.6126  0.0052  0.0932
  304MOL0     C40927   7.467   2.622   0.325 -0.3170  0.5482 -0.4089
  304MOL0     C40928   7.337   2.706   0.335 -0.1592  0.4946  0.5332
  304MOL0     O40929   7.232   2.627   0.385 -0.1720  0.0333  0.1512
  304MOL0     C40930   7.116   2.625   0.309  0.3579 -0.2538  0.3944
  304MOL0     C40931   7.101   2.544   0.203 -0.5204  0.5262  0.6105
  304MOL0     C40932   6.986   2.540   0.132  0.2875  1.2009  0.0116
  304MOL0     C40933   6.972   2.444   0.013 -0.1132  0.6870  0.2527
  304MOL0     C40934   6.874   2.616   0.176 -0.0155 -0.1490 -0.0551
  304MOL0     C40935   6.733   2.604   0.122  0.1378 -0.4921  0.7590
  304MOL0     O40936   6.637   2.665   0.196  0.3461 -0.0927  0.6659
  304MOL0     C40937   6.505   2.674   0.151 -0.8481  0.5168  0.8518
  304MOL0     C40938   6.402   2.646   0.239 -0.3047  0.2343 -0.2144
  304MOL0     C40939   6.270   2.674   0.226  0.3800  0.3456 -0.3954
  304MOL0     C40940   6.224   2.733   0.104  0.3356  0.4689 -0.1998
  304MOL0     O40941   6.095   2.779   0.106  0.2455 -0.3244 -0.8268
  304MOL0     C40942   6.043   2.828  -0.019 -1.0005 -0.4707  0.4038
  304MOL0     C40943   5.897   2.841   0.002  0.2958  0.0930  0.7713
  304MOL0     C40944   5.824   2.699   0.013 -0.5321  0.3664 -0.5809
  304MOL0     C40945   5.677   2.705  -0.017 -0.1988  0.6720  0.2074
  304MOL0     C40946   5.588   2.776   0.096 -0.4555  0.3332 -0.4781
  304MOL0     C40947   5.431   2.747   0.074 -0.6122  0.2882 -0.4895
  304MOL0     C40948   5.340   2.841   0.159 -0.2796 -0.5403 -0.6067
  304MOL0     C40949   5.190   2.805   0.156 -0.0860 -0.0583  0.3172
  304MOL0    Cl40950   5.101   2.944   0.216 -0.1410 -0.0908  0.0884
  304MOL0     C40951   6.327   2.756   0.003 -0.2586 -0.6156  0.7417
  304MOL0     C40952   6.467   2.726   0.021 -0.2418 -0.4313 -0.4749
  304MOL0     O40953   6.713   2.550   0.011  0.5947  0.3124  0.1245
  304MOL0     C40954   6.891   2.703   0.285 -0.0686  0.4113  0.2219
  304MOL0     C40955   7.013   2.706   0.352  0.1079  0.6656 -0.3890
  304MOL0     N40956   7.773   2.633   0.559  0.0279  0.0696  0.3626
  304MOL0     N40957   7.867   2.584   0.634 -0.2242 -0.0916  0.2643
  304MOL0     C40958   8.352   1.465   0.938 -1.0349  0.5887  0.1315
  304MOL0     C40959   8.283   1.386   1.034 -0.8091 -0.7258  0.4231
  304MOL0     C40960   7.901   1.146   1.183  0.0205  0.4784  0.8353
  304MOL0     C40961   7.901   1.221   1.303  0.0291  0.5714 -0.0886
  304MOL0     C40962   7.797   1.220   1.397  0.1700 -0.0145 -0.3279
  304MOL0     C40963   7.675   1.154   1.358 -0.1081 -0.0126  0.4523
  304MOL0     O40964   7.551   1.171   1.410 -0.2377  0.3368 -0.0776
  304MOL0     C40965   7.539   1.245   1.537 -0.4890 -0.4476  0.1350
  304MOL0     C40966   7.398   1.228   1.600 -0.3360  0.4603  0.1828
  304MOL0     C40967   7.284   1.294   1.521 -0.3944  0.6484  0.3454
  304MOL0     C40968   7.142   1.235   1.536  0.6459 -0.9968  0.4623
  304MOL0     C40969   7.077   1.234   1.672  0.8734  0.3360 -0.3750
  304MOL0     C40970   7.027   1.221   1.786  0.1858  0.3395 -0.2742
  304MOL0     C40971   7.671   1.087   1.233 -0.0489 -0.1603  0.4412
  304MOL0     C40972   7.778   1.087   1.146  0.0280 -0.3706  0.8556
  304MOL0     H40973   8.006   1.314   0.853  1.0661  1.1345 -5.0158
  304MOL0     H40974   8.136   1.437   0.680 -0.6009  0.6556  0.0223
  304MOL0     H40975   8.511   1.643   0.822  0.5564 -1.4407 -0.1736
  304MOL0     H40976   8.479   1.733   0.660  1.4969 -0.1077  0.1394
  304MOL0     H40977   8.286   1.746   0.885 -0.7518 -0.3844 -0.2658
  304MOL0     H40978   8.426   1.857   0.871 -1.7511  1.8189  0.8045
  304MOL0     H40979   8.293   1.865   0.624  1.7296 -1.7050  0.4475
  304MOL0     H40980   8.152   1.828   0.717  0.7005 -0.0718 -0.9856
  304MOL0     H40981   8.239   2.032   0.863  3.2366  2.5402 -0.1601
  304MOL0     H40982   8.349   2.063   0.728  0.5240 -1.9285 -2.5441
  304MOL0     H40983   8.126   2.077   0.579 -1.1927 -1.7521  0.4450
  304MOL0     H40984   8.040   2.032   0.727 -2.1879 -0.2129 -3.7981
  304MOL0     H40985   8.113   2.245   0.832 -0.2932  0.5375 -0.3518
  304MOL0     H40986   8.229   2.280   0.697 -1.8896  1.5670 -1.2169
  304MOL0     H40987   7.985   2.242   0.576 -0.2057 -0.2114  1.1599
  304MOL0     H40988   7.951   2.326   0.734 -0.2899  2.9403 -1.0626
  304MOL0     H40989   8.129   2.433   0.517 -1.2342  2.6419 -1.0051
  304MOL0     H40990   8.106   2.489   0.685  1.1218 -1.0934  0.2083
  304MOL0     H40991   7.927   2.450   0.344 -1.2935  0.4536 -0.2869
  304MOL0     H40992   7.791   2.679   0.244  2.2012 -0.8762  1.7869
  304MOL0     H40993   7.681   2.534   0.255 -4.1100 -0.1362  2.0715
  304MOL0     H40994   7.595   2.776   0.222 -0.5690  1.0712  0.7445
  304MOL0     H40995   7.612   2.784   0.401  0.5892 -1.9051  1.4330
  304MOL0     H40996   7.471   2.569   0.420 -0.3549  1.2679 -0.0017
  304MOL0     H40997   7.467   2.555   0.238 -2.6698 -0.3550  0.2298
  304MOL0     H40998   7.316   2.768   0.246  2.4601  3.0677  1.5450
  304MOL0     H40999   7.355   2.785   0.408 -0.8643  0.7639  0.4318
  304MOL0     H41000   7.182   2.491   0.153 -1.6084  2.9354 -4.3971
  304MOL0     H41001   7.074   2.411  -0.010 -1.0393 -2.8129  0.6022
  304MOL0     H41002   6.923   2.350   0.040 -0.7806  0.9820  0.0865
  304MOL0     H41003   6.936   2.496  -0.077 -1.0225  3.3383  2.0183
  304MOL0     H41004   6.429   2.596   0.332  0.3015  3.0076  1.2156
  304MOL0     H41005   6.198   2.633   0.297  3.1865 -0.2144  2.3876
  304MOL0     H41006   6.084   2.928  -0.033 -0.5260 -0.2179  3.0607
  304MOL0     H41007   6.057   2.765  -0.107 -0.3537 -2.5162  1.8744
  304MOL0     H41008   5.871   2.906   0.087 -0.0150 -1.3864  1.8506
  304MOL0     H41009   5.855   2.888  -0.087  0.5491  0.7914  1.0149
  304MOL0     H41010   5.839   2.660   0.114  0.4748 -1.1380 -1.2894
  304MOL0     H41011   5.870   2.624  -0.050 -0.6441  0.7561 -1.1318
  304MOL0     H41012   5.658   2.756  -0.112  0.3835  0.9122  0.2200
  304MOL0     H41013   5.638   2.603  -0.027  0.0239  0.6184 -0.1208
  304MOL0     H41014   5.611   2.883   0.103 -1.1738  0.4716 -0.0468
  304MOL0     H41015   5.602   2.741   0.199 -2.9025  0.1826 -0.1273
  304MOL0     H41016   5.401   2.761  -0.030 -3.3413  0.5577  0.2641
  304MOL0     H41017   5.406   2.641   0.087 -2.3578  0.8419  0.9530
  304MOL0     H41018   5.357   2.941   0.118 -0.2657 -0.5909 -0.7243
  304MOL0     H41019   5.365   2.836   0.265  0.6826  0.4967 -0.7620
  304MOL0     H41020   5.176   2.706   0.200  1.8411 -0.8258 -0.6797
  304MOL0     H41021   5.160   2.790   0.052  2.3553 -1.9999 -0.2146
  304MOL0     H41022   6.290   2.804  -0.087  2.0430  0.8009  0.4624
  304MOL0     H41023   6.546   2.743  -0.052 -1.9666  0.7450 -2.1495
  304MOL0     H41024   6.815   2.764   0.332 -0.6533  0.4176 -0.7144
  304MOL0     H41025   7.024   2.779   0.431 -0.4640 -2.2577  2.5973
  304MOL0     H41026   8.450   1.507   0.958  1.2751 -3.2704 -1.9788
  304MOL0     H41027   8.337   1.359   1.125 -1.1144 -1.5890  0.3589
  304MOL0     H41028   7.990   1.278   1.328 -1.4014  2.7373  0.3384
  304MOL0     H41029   7.803   1.275   1.490  1.4711 -2.5346  1.2069
  304MOL0     H41030   7.611   1.200   1.605  1.2004  3.4289  1.1691
  304MOL0     H41031   7.566   1.349   1.521 -3.1352  0.1433 -1.1571
  304MOL0     H41032   7.405   1.258   1.705  3.7305 -0.6765  0.3786
  304MOL0     H41033   7.383   1.120   1.603  0.9498  0.1868 -1.7174
  304MOL0     H41034   7.308   1.285   1.414 -2.1296 -1.6004  0.0862
  304MOL0     H41035   7.289   1.402   1.542 -0.6220  0.7252  0.0230
  304MOL0     H41036   7.148   1.130   1.508 -3.2422 -1.6432  1.4118
  304MOL0     H41037   7.077   1.289   1.466 -0.2505 -1.9507  0.5259
  304MOL0     H41038   6.974   1.203   1.877  1.3816 -2.3557 -0.0190
  304MOL0     H41039   7.578   1.041   1.202 -0.5596  1.0443  0.1015
  304MOL0     H41040   7.762   1.041   1.049 -1.8133  2.5601 -0.3654
  305MOL0     O41041  11.280   9.710   2.928 -0.2455 -0.2991  1.1871
  305MOL0     C41042  11.338   9.778   2.843  0.4061  0.9228  0.4342
  305MOL0     O41043  11.271   9.868   2.755 -0.0361  0.1280  0.3572
  305MOL0     C41044  11.141   9.892   2.756  1.0223 -0.6730 -0.0131
  305MOL0     C41045  11.072   9.874   2.635  0.8002  0.0695 -0.5911
  305MOL0     C41046  10.939   9.905   2.617 -0.3764 -0.8391  0.5177
  305MOL0     C41047  10.865   9.954   2.726 -0.7425 -0.2693 -0.4069
  305MOL0     O41048  10.730   9.980   2.723  0.2587  0.4725  0.2653
  305MOL0     C41049  10.639   9.933   2.625  0.0623 -0.8072 -0.3808
  305MOL0     C41050  10.507  10.010   2.637  0.1297 -0.4752 -0.4024
  305MOL0     C41051  10.411   9.960   2.529  0.0800  0.9763 -0.7203
  305MOL0     C41052  10.277  10.023   2.557  0.1089 -0.4301  0.4026
  305MOL0     C41053  10.174   9.970   2.454 -0.1717 -0.8999 -0.2909
  305MOL0     C41054  10.039  10.043   2.463  0.9356  0.4151 -0.4123
  305MOL0     C41055   9.960   9.995   2.586 -0.0607 -0.9070  0.1756
  305MOL0     C41056   9.823  10.070   2.598 -0.5626 -0.7515 -0.2298
  305MOL0     N41057   9.733  10.017   2.700  0.4659  0.3536 -0.2000
  305MOL0     C41058   9.750  10.023   2.837  0.2484 -0.1339 -0.3798
  305MOL0     C41059   9.642   9.957   2.887  0.6885 -0.2716  0.3837
  305MOL0     C41060   9.608   9.939   3.026  0.3506  0.5198 -1.0593
  305MOL0     C41061   9.550  10.058   3.100 -0.2934 -0.6700 -0.2389
  305MOL0     C41062   9.492  10.028   3.244 -0.4627  0.2528 -0.0836
  305MOL0     C41063   9.431  10.152   3.318 -0.6269 -0.0487 -0.9859
  305MOL0     O41064   9.345  10.233   3.232 -0.0317  0.1568 -0.4111
  305MOL0     C41065   9.217  10.200   3.196  0.7230  0.2552 -0.6636
  305MOL0     C41066   9.154  10.077   3.229 -0.8866 -1.0116  0.2453
  305MOL0     C41067   9.019  10.046   3.187  0.1253  0.7310  0.0123
  305MOL0     C41068   8.972   9.912   3.234  0.2400 -0.6689 -0.0177
  305MOL0     C41069   8.959  10.139   3.107  0.5166 -0.4702  0.4161
  305MOL0     C41070   8.821  10.099   3.060  0.1417 -0.0695  0.2432
  305MOL0     O41071   8.731  10.196   3.079 -1.0931 -0.0469  0.0378
  305MOL0     C41072   8.601  10.195   3.030 -0.8158 -0.1222 -0.5801
  305MOL0     C41073   8.541  10.322   3.012 -0.0025 -0.1771  0.3477
  305MOL0     C41074   8.414  10.325   2.964  0.7252 -0.4480  0.0662
  305MOL0     C41075   8.333  10.217   2.944 -0.1599  0.4047 -0.4520
  305MOL0     O41076   8.212  10.236   2.881 -0.5967 -0.3547 -0.0930
  305MOL0     C41077   8.127  10.124   2.864 -0.2312 -0.3176  0.1186
  305MOL0     C41078   7.995  10.155   2.799  0.9971 -0.3155 -0.0621
  305MOL0     C41079   8.008  10.232   2.667  0.2852  0.3542 -0.4708
  305MOL0     C41080   7.911  10.363   2.683 -0.8324  0.3044  0.4160
  305MOL0     C41081   7.988  10.465   2.765 -0.8843 -1.1799 -0.0741
  305MOL0     C41082   7.913  10.599   2.770  0.6458  0.0226 -0.0835
  305MOL0     C41083   7.978  10.699   2.871 -0.3930 -0.2088  0.1602
  305MOL0     C41084   8.101  10.768   2.822 -0.3199  0.4577 -0.2609
  305MOL0    Cl41085   8.057  10.898   2.714 -0.1787  0.4276  0.0507
  305MOL0     C41086   8.388  10.089   2.971 -0.4593  0.8071  0.4426
  305MOL0     C41087   8.524  10.078   3.010 -0.1435  0.0879  1.1145
  305MOL0     O41088   8.799  10.002   2.991 -0.8574  0.5983 -0.5258
  305MOL0     C41089   9.027  10.258   3.062  0.1273  0.7599  0.1580
  305MOL0     C41090   9.155  10.281   3.106 -0.6184 -0.7290  0.4915
  305MOL0     N41091   9.557   9.933   2.783  0.0721  0.6650 -0.4138
  305MOL0     N41092   9.610   9.965   2.670  1.1521  0.0182  0.2012
  305MOL0     C41093  10.927   9.973   2.846 -0.5155  0.1134 -0.0503
  305MOL0     C41094  11.066   9.946   2.865 -0.5895  0.4338  0.2579
  305MOL0     C41095  11.483   9.773   2.840 -0.1703  0.1642 -0.4438
  305MOL0     C41096  11.554   9.699   2.933 -0.6460  0.3872  0.2578
  305MOL0     C41097  11.695   9.690   2.935  0.8445  0.7095 -0.3265
  305MOL0     C41098  11.775   9.753   2.840 -0.6105 -0.5278  0.0354
  305MOL0     O41099  11.912   9.757   2.824 -0.1083  0.3275 -0.4472
  305MOL0     C41100  11.998   9.729   2.932  0.8188  0.4392 -0.3293
  305MOL0     C41101  12.036   9.579   2.919  0.5891  0.3559 -0.5480
  305MOL0     C41102  12.158   9.565   3.010  0.4656 -0.3856  0.4220
  305MOL0     C41103  12.170   9.418   3.049 -0.0056  0.1813 -1.1222
  305MOL0     C41104  12.208   9.324   2.939 -0.0331 -0.3396 -0.3121
  305MOL0     C41105  12.236   9.239   2.856 -0.1340  0.4025 -0.0426
  305MOL0     C41106  11.706   9.829   2.748 -0.2682 -0.0771  1.5201
  305MOL0     C41107  11.562   9.836   2.747 -0.0488  0.4343 -0.0593
  305MOL0     H41108  11.127   9.829   2.553  0.3404 -1.9466  0.1544
  305MOL0     H41109  10.896   9.884   2.519  0.6243 -1.8962  0.2817
  305MOL0     H41110  10.668   9.964   2.524 -2.7048 -0.8228 -1.2929
  305MOL0     H41111  10.635   9.824   2.624  0.4322 -0.8244 -0.0020
  305MOL0     H41112  10.457  10.005   2.734 -0.1466 -2.1034 -0.6077
  305MOL0     H41113  10.525  10.117   2.619 -0.6883  0.0265  1.5037
  305MOL0     H41114  10.437  10.004   2.432 -0.8170  3.5013  0.1232
  305MOL0     H41115  10.409   9.850   2.528 -2.2478  0.8948  1.7165
  305MOL0     H41116  10.247  10.015   2.662 -0.0031  1.8237  0.5882
  305MOL0     H41117  10.285  10.128   2.528  0.2527 -1.0719 -2.0934
  305MOL0     H41118  10.223   9.967   2.356  3.1326 -1.7746  1.2555
  305MOL0     H41119  10.159   9.865   2.483  0.7766 -0.6741  1.0886
  305MOL0     H41120  10.035  10.152   2.456  0.1152  0.3823 -0.5850
  305MOL0     H41121   9.979  10.007   2.379 -0.7222 -1.6285  1.5181
  305MOL0     H41122   9.946   9.887   2.581 -0.8866 -0.7578 -1.4837
  305MOL0     H41123  10.017  10.017   2.677 -0.2826  0.5252 -0.0082
  305MOL0     H41124   9.771  10.059   2.502  0.8358 -0.6612 -1.0328
  305MOL0     H41125   9.843  10.174   2.626  3.1535 -1.3552 -0.1396
  305MOL0     H41126   9.832  10.069   2.891 -1.5163  1.1114  1.4138
  305MOL0     H41127   9.548   9.850   3.049  2.5488 -0.2082  2.5738
  305MOL0     H41128   9.698   9.927   3.087 -0.5811  2.6859  0.9044
  305MOL0     H41129   9.473  10.096   3.033  0.7313  0.0849 -1.0334
  305MOL0     H41130   9.619  10.143   3.107 -1.8188  0.5059  1.1786
  305MOL0     H41131   9.567   9.988   3.313  0.0899  1.4338  0.0156
  305MOL0     H41132   9.415   9.953   3.224  2.1825 -1.8159 -3.9801
  305MOL0     H41133   9.517  10.205   3.360  0.5741 -2.1001 -0.7268
  305MOL0     H41134   9.374  10.107   3.400  1.1890 -1.2807 -0.3405
  305MOL0     H41135   9.202   9.995   3.282 -0.2526  0.1274  1.5177
  305MOL0     H41136   8.947   9.858   3.142 -0.1385  1.8482 -1.5021
  305MOL0     H41137   9.044   9.850   3.287 -0.7821 -1.2406  0.7310
  305MOL0     H41138   8.892   9.931   3.307  0.8312  5.4357 -0.3800
  305MOL0     H41139   8.601  10.409   3.034  0.3221 -0.6285  1.3096
  305MOL0     H41140   8.373  10.420   2.931  3.2374 -0.4112 -3.5538
  305MOL0     H41141   8.174  10.046   2.804 -2.1673 -2.1741  0.9238
  305MOL0     H41142   8.100  10.072   2.956 -0.1102  2.5569  1.9191
  305MOL0     H41143   7.959  10.054   2.776 -0.8125  0.0795  0.8257
  305MOL0     H41144   7.936  10.198   2.881  0.9175 -2.5270  1.1045
  305MOL0     H41145   7.969  10.166   2.589  1.6673  1.6939 -2.3750
  305MOL0     H41146   8.108  10.264   2.638  1.0761 -0.3880  1.2843
  305MOL0     H41147   7.867  10.403   2.592  1.4678  1.0440 -0.4407
  305MOL0     H41148   7.826  10.339   2.748  1.9279 -0.7674  3.9771
  305MOL0     H41149   8.087  10.487   2.722  0.2470 -1.6069  2.1857
  305MOL0     H41150   8.007  10.442   2.870 -1.3078  0.5117  0.3971
  305MOL0     H41151   7.911  10.636   2.667  1.4472  1.8460  0.5099
  305MOL0     H41152   7.816  10.578   2.815  1.7610 -4.8336  0.5846
  305MOL0     H41153   8.000  10.646   2.964  0.7532  0.7184  0.4345
  305MOL0     H41154   7.905  10.778   2.884 -1.4219 -1.5164  3.0385
  305MOL0     H41155   8.179  10.697   2.791  2.0657  2.7034  0.2245
  305MOL0     H41156   8.146  10.824   2.906 -1.9366  1.3815  0.0263
  305MOL0     H41157   8.333   9.997   2.952  2.1430 -1.1945  2.0465
  305MOL0     H41158   8.554   9.978   3.041  0.5356  0.2363  0.9449
  305MOL0     H41159   8.988  10.319   2.981 -0.4122 -0.4836 -0.5437
  305MOL0     H41160   9.216  10.368   3.083  0.2866 -0.8040  2.4361
  305MOL0     H41161  10.881  10.013   2.936  2.9674 -0.5115  2.1899
  305MOL0     H41162  11.109   9.980   2.959 -1.3085  3.7374 -0.4815
  305MOL0     H41163  11.506   9.637   3.008 -0.6802  1.0108  0.7674
  305MOL0     H41164  11.734   9.621   3.009 -0.6652 -1.2199 -1.2492
  305MOL0     H41165  12.086   9.794   2.928 -0.2674  2.0489  0.5357
  305MOL0     H41166  11.957   9.749   3.032  0.0798  0.7123 -0.6796
  305MOL0     H41167  12.061   9.568   2.813 -0.9912 -0.9567 -0.8326
  305MOL0     H41168  11.962   9.503   2.946 -0.4726  1.8251  0.8983
  305MOL0     H41169  12.157   9.630   3.097 -3.3252  0.7131 -0.2651
  305MOL0     H41170  12.236   9.600   2.941 -1.7436  2.0161 -1.0617
  305MOL0     H41171  12.076   9.380   3.089  0.6860 -0.3609  0.0571
  305MOL0     H41172  12.247   9.411   3.127 -1.5150 -0.7734  0.3421
  305MOL0     H41173  12.257   9.168   2.778 -0.0801 -0.2351  0.5426
  305MOL0     H41174  11.771   9.876   2.674 -1.8319 -1.0754 -0.5915
  305MOL0     H41175  11.512   9.882   2.662 -1.0795 -2.0177 -0.8750
  306MOL0     O41176   1.489   0.753   0.527  0.2020 -0.0945  0.0661
  306MOL0     C41177   1.557   0.700   0.443  0.4685  0.2658  1.1185
  306MOL0     O41178   1.518   0.631   0.330  0.8170 -0.8382 -0.0647
  306MOL0     C41179   1.384   0.611   0.308  0.0086 -0.0953 -0.6088
  306MOL0     C41180   1.339   0.488   0.263 -0.2188 -0.3480  0.5260
  306MOL0     C41181   1.209   0.456   0.221 -0.1717 -0.3899  0.3422
  306MOL0     C41182   1.101   0.553   0.254 -0.2860 -0.2271 -0.1502
  306MOL0     O41183   0.968   0.530   0.235 -0.0218 -0.3683 -0.4165
  306MOL0     C41184   0.921   0.403   0.182  0.0605  0.2036  0.4413
  306MOL0     C41185   0.794   0.427   0.112  0.1235 -0.3416  0.3212
  306MOL0     C41186   0.673   0.473   0.198  0.8926  0.0801 -1.1872
  306MOL0     C41187   0.542   0.463   0.110  0.3770 -0.7452 -0.4057
  306MOL0     C41188   0.430   0.523   0.181  0.6934 -1.2979 -1.0121
  306MOL0     C41189   0.305   0.533   0.094  0.6694 -0.3908  1.0725
  306MOL0     C41190   0.175   0.564   0.169  0.9398 -0.7396 -0.4393
  306MOL0     C41191   0.168   0.700   0.242 -0.2030  0.1527 -0.3593
  306MOL0     N41192   0.040   0.701   0.312  0.1672  0.0997 -0.2612
  306MOL0     C41193  -0.070   0.788   0.293 -0.0584  0.2989 -0.4038
  306MOL0     C41194  -0.172   0.758   0.382 -0.3357 -1.4429 -0.2319
  306MOL0     C41195  -0.305   0.822   0.405 -1.0556  1.0068 -1.0796
  306MOL0     C41196  -0.386   0.783   0.279 -0.2234 -0.1289 -0.3553
  306MOL0     C41197  -0.447   0.642   0.290 -1.3086  0.1543  1.1814
  306MOL0     C41198  -0.565   0.623   0.196 -0.3225 -0.0264 -0.0293
  306MOL0     O41199  -0.670   0.699   0.257 -0.2229  0.5577  0.2552
  306MOL0     C41200  -0.787   0.704   0.182  0.4767  0.3406 -0.4316
  306MOL0     C41201  -0.847   0.591   0.147  0.5919  0.1310 -0.5554
  306MOL0     C41202  -0.974   0.599   0.084 -0.4215 -0.4911  0.0956
  306MOL0     C41203  -1.051   0.470   0.064  0.8160  0.2036  0.0667
  306MOL0     C41204  -1.023   0.725   0.051  1.2511  0.4956 -0.0362
  306MOL0     C41205  -1.165   0.752   0.002 -0.4484  0.5911  0.7236
  306MOL0     O41206  -1.166   0.861  -0.079 -0.3368  0.2174  0.0503
  306MOL0     C41207  -1.281   0.922  -0.125  0.5243  0.0305  0.1427
  306MOL0     C41208  -1.263   0.997  -0.243 -0.1680  0.4276  0.6990
  306MOL0     C41209  -1.371   1.057  -0.306  0.4500  1.0141 -0.1082
  306MOL0     C41210  -1.501   1.034  -0.253  0.0401 -0.1849  0.4082
  306MOL0     O41211  -1.617   1.087  -0.304 -0.4140  0.0606  0.2306
  306MOL0     C41212  -1.604   1.216  -0.364 -0.6525 -0.3969 -0.4549
  306MOL0     C41213  -1.740   1.268  -0.403 -0.9517 -0.8156 -0.0897
  306MOL0     C41214  -1.825   1.298  -0.286 -0.7136  0.1776 -0.2056
  306MOL0     C41215  -1.932   1.184  -0.271  0.7213 -0.4999 -1.0047
  306MOL0     C41216  -2.023   1.219  -0.162  0.9770  0.9472 -0.9580
  306MOL0     C41217  -2.129   1.111  -0.114 -0.6719 -1.0876  0.0423
  306MOL0     C41218  -2.197   1.173   0.008  0.2019  0.8840  0.0584
  306MOL0     C41219  -2.313   1.078   0.052 -0.1491 -0.6460  0.1588
  306MOL0    Cl41220  -2.412   1.153   0.179 -0.2096  0.0507  0.2836
  306MOL0     C41221  -1.522   0.980  -0.128 -0.6797  1.3621  0.2260
  306MOL0     C41222  -1.410   0.920  -0.069 -0.6718  0.0320 -0.0525
  306MOL0     O41223  -1.256   0.666   0.023  0.2500 -0.1441 -0.2692
  306MOL0     C41224  -0.943   0.837   0.065 -0.6629 -0.7942 -0.3451
  306MOL0     C41225  -0.820   0.828   0.131  1.0577  0.3283 -0.2645
  306MOL0     N41226  -0.123   0.649   0.451 -0.7217  0.2695 -0.4213
  306MOL0     N41227   0.002   0.618   0.414 -0.5846 -0.4741 -0.2330
  306MOL0     C41228   1.141   0.670   0.319 -0.0696 -0.6862 -0.1042
  306MOL0     C41229   1.278   0.701   0.339 -0.0898 -0.4448 -0.1476
  306MOL0     C41230   1.702   0.717   0.448  0.8139 -1.4009 -0.2004
  306MOL0     C41231   1.760   0.796   0.554  0.2185  0.1304 -0.4543
  306MOL0     C41232   1.897   0.808   0.551  0.4240 -0.6625  1.1660
  306MOL0     C41233   1.979   0.735   0.467 -0.5495 -0.0389  0.4634
  306MOL0     O41234   2.113   0.736   0.462 -0.0659  0.3054  0.1321
  306MOL0     C41235   2.190   0.796   0.564  0.1354  0.1087 -0.4094
  306MOL0     C41236   2.265   0.685   0.647  0.3681  0.2282 -0.1469
  306MOL0     C41237   2.368   0.626   0.547 -0.4155 -0.2506  0.3421
  306MOL0     C41238   2.443   0.515   0.606  0.5766 -0.5376  0.3687
  306MOL0     C41239   2.537   0.450   0.514  0.8662 -0.2618 -0.4675
  306MOL0     C41240   2.614   0.378   0.452 -0.0532 -0.8178 -0.2174
  306MOL0     C41241   1.916   0.673   0.361 -0.1086 -0.5264  0.7223
  306MOL0     C41242   1.778   0.660   0.352  0.4488 -0.2040  0.0304
  306MOL0     H41243   1.423   0.423   0.241  0.2522  1.2079 -2.8894
  306MOL0     H41244   1.185   0.357   0.183 -3.2085  1.1324 -2.1541
  306MOL0     H41245   0.988   0.362   0.106  0.6649 -0.9492  1.5454
  306MOL0     H41246   0.903   0.326   0.259  1.9418  0.8285  1.5804
  306MOL0     H41247   0.816   0.501   0.034  1.7377  0.6141  1.6091
  306MOL0     H41248   0.772   0.340   0.050 -1.2878  2.1459 -2.9572
  306MOL0     H41249   0.670   0.413   0.289 -2.8508  1.0849 -0.4398
  306MOL0     H41250   0.692   0.575   0.232  1.1938 -0.0513 -0.9594
  306MOL0     H41251   0.553   0.505   0.010  1.0770 -0.0508 -0.0440
  306MOL0     H41252   0.529   0.355   0.096  2.6648 -1.4254  1.8390
  306MOL0     H41253   0.413   0.471   0.276 -0.7744  0.9875  0.0729
  306MOL0     H41254   0.451   0.625   0.213 -1.1600 -1.3204  0.4374
  306MOL0     H41255   0.313   0.603   0.011 -0.1510 -2.7145 -1.0920
  306MOL0     H41256   0.288   0.436   0.046 -2.2496  0.4842  0.1191
  306MOL0     H41257   0.084   0.575   0.109  0.1687  6.7948  1.2013
  306MOL0     H41258   0.151   0.484   0.240  0.2341 -0.9976 -0.9427
  306MOL0     H41259   0.167   0.785   0.172 -0.3601  0.2348 -0.2576
  306MOL0     H41260   0.251   0.718   0.312 -0.7726  3.0033 -0.2655
  306MOL0     H41261  -0.064   0.875   0.229  1.3466 -0.1807 -0.9506
  306MOL0     H41262  -0.346   0.779   0.496 -0.8381 -0.7462 -1.7603
  306MOL0     H41263  -0.275   0.926   0.412  1.8411  0.1702  0.7196
  306MOL0     H41264  -0.326   0.790   0.188  0.4964 -1.7609 -0.0389
  306MOL0     H41265  -0.471   0.851   0.267  1.3064  1.8960 -0.1962
  306MOL0     H41266  -0.471   0.612   0.393  1.1526 -0.0679  1.7669
  306MOL0     H41267  -0.377   0.567   0.251  1.1718  3.3656 -1.0728
  306MOL0     H41268  -0.583   0.516   0.179 -3.6839  0.8542 -3.5697
  306MOL0     H41269  -0.543   0.658   0.095  0.2992 -0.0809  0.0814
  306MOL0     H41270  -0.817   0.490   0.175  0.3759 -0.2997 -1.7862
  306MOL0     H41271  -0.985   0.386   0.040  0.0395 -0.4930  0.3289
  306MOL0     H41272  -1.099   0.451   0.160  1.0541  4.5754  1.3044
  306MOL0     H41273  -1.127   0.473  -0.015  1.4722 -0.8634 -0.6218
  306MOL0     H41274  -1.160   1.012  -0.274 -0.6058 -0.7627 -1.5875
  306MOL0     H41275  -1.371   1.110  -0.401 -4.3153 -0.4167 -1.1585
  306MOL0     H41276  -1.554   1.282  -0.293  1.0610  0.6107 -2.4495
  306MOL0     H41277  -1.536   1.219  -0.450  2.9293 -0.3993  2.1340
  306MOL0     H41278  -1.724   1.366  -0.450  0.7291 -0.1557  1.7583
  306MOL0     H41279  -1.783   1.202  -0.479  1.7874 -1.0110 -1.5723
  306MOL0     H41280  -1.871   1.395  -0.304  1.2948  1.3596  0.7396
  306MOL0     H41281  -1.765   1.306  -0.195  0.3261  1.0056 -0.9350
  306MOL0     H41282  -1.990   1.166  -0.362 -2.5879 -0.4301  0.9348
  306MOL0     H41283  -1.880   1.093  -0.241 -0.9952 -1.1868  0.0012
  306MOL0     H41284  -2.086   1.306  -0.183 -3.3232 -2.0040 -1.5253
  306MOL0     H41285  -1.952   1.238  -0.081  2.3009 -3.0573 -0.9854
  306MOL0     H41286  -2.201   1.103  -0.196 -2.1454  0.9053  1.0593
  306MOL0     H41287  -2.066   1.025  -0.089  0.9137  0.5638  2.1474
  306MOL0     H41288  -2.240   1.266  -0.031  0.2003  0.5547 -0.7451
  306MOL0     H41289  -2.131   1.193   0.092  1.2557  2.4753 -1.0919
  306MOL0     H41290  -2.282   0.982   0.094 -2.2041 -0.4519  2.3455
  306MOL0     H41291  -2.373   1.057  -0.037  1.9172 -3.5078 -0.6999
  306MOL0     H41292  -1.623   0.966  -0.089 -0.8482 -2.3502 -1.1010
  306MOL0     H41293  -1.433   0.874   0.027  2.4043  0.6147  1.0555
  306MOL0     H41294  -0.990   0.931   0.037 -3.0516 -1.7379  0.2535
  306MOL0     H41295  -0.779   0.928   0.139  0.3162  0.5468  1.0564
  306MOL0     H41296   1.068   0.736   0.363 -1.0770 -2.4081  0.8822
  306MOL0     H41297   1.303   0.795   0.387  0.8562  0.7225 -2.7737
  306MOL0     H41298   1.704   0.847   0.632 -0.5524 -1.0689 -0.2023
  306MOL0     H41299   1.939   0.861   0.635 -0.6090  2.5225 -0.1937
  306MOL0     H41300   2.268   0.852   0.511  1.4791 -1.9849 -0.7351
  306MOL0     H41301   2.139   0.868   0.629  0.0777 -0.6623  0.4155
  306MOL0     H41302   2.193   0.611   0.684 -0.4477 -0.0933 -2.2603
  306MOL0     H41303   2.315   0.725   0.736  1.9023 -2.6978  0.4263
  306MOL0     H41304   2.446   0.697   0.521 -0.6589  0.4111  1.4030
  306MOL0     H41305   2.336   0.600   0.445  1.0626  0.1207 -0.2332
  306MOL0     H41306   2.369   0.436   0.624 -0.4375  0.1334 -0.6909
  306MOL0     H41307   2.492   0.543   0.699  1.1108  0.6665 -0.2547
  306MOL0     H41308   2.680   0.315   0.396  1.2090 -0.4963  0.8472
  306MOL0     H41309   1.976   0.626   0.284 -1.2963  1.4842 -1.6020
  306MOL0     H41310   1.742   0.596   0.272 -0.8308  2.7443 -1.9510
  307MOL0     O41311   1.475   4.860   4.702  0.0239 -0.1637 -0.1653
  307MOL0     C41312   1.470   4.771   4.782 -0.2873  0.2613  0.2474
  307MOL0     O41313   1.352   4.718   4.837  0.4100  0.1155 -0.4162
  307MOL0     C41314   1.218   4.759   4.823 -0.3979  0.3793 -0.4172
  307MOL0     C41315   1.189   4.899   4.799  0.5175 -0.7059 -0.1377
  307MOL0     C41316   1.051   4.937   4.794 -0.4760  0.1708 -0.2825
  307MOL0     C41317   0.947   4.846   4.809 -0.6207 -0.9516  0.7037
  307MOL0     O41318   0.821   4.898   4.795 -0.5557  0.4386 -0.0566
  307MOL0     C41319   0.716   4.806   4.778 -0.2811 -0.6596 -0.2906
  307MOL0     C41320   0.594   4.882   4.774  0.4493  0.3311  0.6446
  307MOL0     C41321   0.479   4.799   4.708 -0.2513  0.4378 -0.5456
  307MOL0     C41322   0.362   4.876   4.753  0.3332  0.5720 -0.1143
  307MOL0     C41323   0.236   4.822   4.692 -0.0514 -0.9431  0.1543
  307MOL0     C41324   0.111   4.905   4.736  0.5751  0.2019  0.7125
  307MOL0     C41325  -0.004   4.910   4.621 -1.0401  0.5238  0.2657
  307MOL0     C41326  -0.065   4.781   4.573 -0.2024  0.0855 -0.2616
  307MOL0     N41327  -0.205   4.787   4.534  0.0444 -0.3593 -0.6211
  307MOL0     C41328  -0.297   4.686   4.550  0.0558 -0.1903  0.4598
  307MOL0     C41329  -0.414   4.744   4.516  1.1179  0.0226  0.2083
  307MOL0     C41330  -0.552   4.696   4.528 -0.5446  0.4437 -0.1525
  307MOL0     C41331  -0.657   4.810   4.503  0.5445  0.3956 -0.0719
  307MOL0     C41332  -0.787   4.755   4.523  0.2957  0.2208 -0.0060
  307MOL0     C41333  -0.886   4.869   4.508 -0.1454 -0.3274  0.4030
  307MOL0     O41334  -1.022   4.833   4.541  0.0308 -0.0464  0.1019
  307MOL0     C41335  -1.114   4.922   4.591  0.4190  0.7693 -0.5479
  307MOL0     C41336  -1.224   4.884   4.672  0.0856  0.0813 -0.2089
  307MOL0     C41337  -1.322   4.976   4.710 -0.3525  0.3552  0.5520
  307MOL0     C41338  -1.441   4.913   4.782  0.1041  0.3471  1.2334
  307MOL0     C41339  -1.319   5.113   4.662 -0.7534 -0.0885 -0.6490
  307MOL0     C41340  -1.424   5.211   4.691 -0.1192 -0.3366 -0.9253
  307MOL0     O41341  -1.435   5.313   4.598  0.6098  0.0704  0.3193
  307MOL0     C41342  -1.537   5.401   4.630  0.5557 -1.3616 -0.1814
  307MOL0     C41343  -1.665   5.392   4.576  1.1758  0.4335  0.0233
  307MOL0     C41344  -1.758   5.484   4.602 -0.5054  0.2670  0.1526
  307MOL0     C41345  -1.739   5.606   4.669  0.4548  1.3824  0.0971
  307MOL0     O41346  -1.847   5.684   4.684  0.2500 -0.2900  0.7719
  307MOL0     C41347  -1.823   5.827   4.712  0.1382 -0.0803 -0.2088
  307MOL0     C41348  -1.955   5.897   4.674  0.1502  0.3297 -0.9079
  307MOL0     C41349  -2.085   5.827   4.717  0.1445  0.1312 -0.0971
  307MOL0     C41350  -2.089   5.769   4.860  0.5103  0.0666  0.0975
  307MOL0     C41351  -2.234   5.729   4.898  0.3284 -0.6004  0.4928
  307MOL0     C41352  -2.269   5.693   5.045 -1.1649 -0.5306 -0.0877
  307MOL0     C41353  -2.281   5.820   5.131  0.3159 -0.2057 -0.0090
  307MOL0     C41354  -2.387   5.801   5.231  0.3118  0.0417  0.3067
  307MOL0    Cl41355  -2.297   5.691   5.360 -0.4168 -0.3066  0.4675
  307MOL0     C41356  -1.609   5.625   4.704 -0.1414  0.5124  0.2389
  307MOL0     C41357  -1.503   5.526   4.698 -0.1664  0.0444  0.1228
  307MOL0     O41358  -1.495   5.196   4.792 -1.0002 -0.0775  0.1233
  307MOL0     C41359  -1.209   5.146   4.586  0.3067 -0.2431  0.2182
  307MOL0     C41360  -1.109   5.056   4.549 -0.4399  0.1315  0.8144
  307MOL0     N41361  -0.393   4.878   4.476 -0.3052  0.5723 -0.2384
  307MOL0     N41362  -0.266   4.897   4.485 -0.1904 -0.0113  0.0682
  307MOL0     C41363   0.980   4.713   4.817  0.2350  0.2020  0.0471
  307MOL0     C41364   1.114   4.668   4.820 -0.2863 -0.5846 -0.3768
  307MOL0     C41365   1.596   4.708   4.813  0.3827  0.2006  1.1425
  307MOL0     C41366   1.728   4.762   4.782  1.1738  0.0979  1.3776
  307MOL0     C41367   1.843   4.690   4.808  0.2599 -0.4397  0.1103
  307MOL0     C41368   1.832   4.566   4.875  0.0522  0.0563 -0.5388
  307MOL0     O41369   1.956   4.500   4.905 -0.4888 -0.3910  0.4955
  307MOL0     C41370   1.975   4.468   5.046  0.0391 -0.3467  0.0670
  307MOL0     C41371   2.123   4.479   5.080 -0.0421  0.2194 -0.9975
  307MOL0     C41372   2.157   4.628   5.096 -0.3874 -0.1345 -0.4303
  307MOL0     C41373   2.304   4.646   5.061  0.1348 -0.7232  0.6137
  307MOL0     C41374   2.382   4.569   5.160 -0.5458 -0.6343  0.2239
  307MOL0     C41375   2.447   4.491   5.227  0.1901 -0.6122 -0.3490
  307MOL0     C41376   1.708   4.518   4.905  0.8156 -0.2471  0.5228
  307MOL0     C41377   1.592   4.584   4.877  0.0659 -0.2340  0.0018
  307MOL0     H41378   1.272   4.969   4.795  2.2128 -2.5621  0.8005
  307MOL0     H41379   1.034   5.042   4.771 -1.3617 -0.3890 -2.3983
  307MOL0     H41380   0.722   4.739   4.692 -1.0336 -0.0482 -0.8380
  307MOL0     H41381   0.714   4.744   4.869  3.0474  0.9828  1.0732
  307MOL0     H41382   0.563   4.924   4.870 -0.4386  0.7104  0.2019
  307MOL0     H41383   0.613   4.967   4.707 -0.4663  1.1718  1.4265
  307MOL0     H41384   0.493   4.800   4.599  3.2078 -0.4232 -0.2148
  307MOL0     H41385   0.472   4.692   4.730 -2.8839  0.6767  0.2011
  307MOL0     H41386   0.350   4.853   4.859  0.5208 -0.7306 -0.3525
  307MOL0     H41387   0.364   4.984   4.738 -0.1966  0.6804  0.5141
  307MOL0     H41388   0.243   4.826   4.583  0.1323 -1.4426  0.1479
  307MOL0     H41389   0.226   4.719   4.726 -0.0134 -1.0737 -0.2318
  307MOL0     H41390   0.060   4.866   4.825 -1.8640  0.7052 -0.3830
  307MOL0     H41391   0.144   5.006   4.764  0.2766 -0.2653  2.9964
  307MOL0     H41392  -0.074   4.984   4.663  0.6556  2.1371  0.3668
  307MOL0     H41393   0.034   4.969   4.537 -0.5762  1.1317  0.8913
  307MOL0     H41394  -0.058   4.707   4.653 -0.9077 -1.1282 -1.2661
  307MOL0     H41395  -0.005   4.749   4.487  1.4143 -0.6855  1.0958
  307MOL0     H41396  -0.274   4.587   4.588 -0.8743 -1.2672 -1.5746
  307MOL0     H41397  -0.577   4.610   4.465 -0.9479  0.3362  0.1468
  307MOL0     H41398  -0.560   4.666   4.633 -2.6252  0.6120 -0.2243
  307MOL0     H41399  -0.654   4.856   4.404  0.1876 -0.1627 -0.3428
  307MOL0     H41400  -0.628   4.881   4.582  1.6253  0.0281 -0.1257
  307MOL0     H41401  -0.815   4.705   4.616  1.4863 -1.5476 -0.5366
  307MOL0     H41402  -0.807   4.684   4.442  0.6578 -0.4587  0.4955
  307MOL0     H41403  -0.875   4.906   4.406  0.2001 -2.2756 -0.3041
  307MOL0     H41404  -0.865   4.956   4.571  2.0889 -1.0784  0.7726
  307MOL0     H41405  -1.230   4.784   4.714 -0.3500 -0.0264 -0.5290
  307MOL0     H41406  -1.453   4.806   4.759 -3.0495  0.4287  2.0195
  307MOL0     H41407  -1.432   4.929   4.890  3.0818  1.1959  0.9316
  307MOL0     H41408  -1.527   4.951   4.727  0.0008 -0.2978  0.9325
  307MOL0     H41409  -1.683   5.299   4.522 -0.2262 -0.7464  2.3519
  307MOL0     H41410  -1.849   5.456   4.551  1.0297  0.0530 -2.7245
  307MOL0     H41411  -1.793   5.846   4.816  2.1373  1.3898 -0.9823
  307MOL0     H41412  -1.749   5.879   4.650  0.1082  0.2003 -0.0127
  307MOL0     H41413  -1.959   5.997   4.720 -0.9500 -0.1567  0.1190
  307MOL0     H41414  -1.950   5.908   4.565  1.9523  0.5111 -0.8268
  307MOL0     H41415  -2.103   5.741   4.651 -1.0923  1.4845 -1.6231
  307MOL0     H41416  -2.163   5.903   4.708 -0.5464 -0.7197 -1.9814
  307MOL0     H41417  -2.020   5.684   4.862  0.3521 -0.0491  1.6532
  307MOL0     H41418  -2.056   5.844   4.932 -2.1199  1.1378  0.3187
  307MOL0     H41419  -2.262   5.637   4.846  1.0264 -0.8710  0.5841
  307MOL0     H41420  -2.300   5.812   4.869 -0.5771 -1.4468  0.0901
  307MOL0     H41421  -2.360   5.634   5.034 -0.6214 -1.1409 -1.5654
  307MOL0     H41422  -2.182   5.640   5.084  0.9151  2.4522 -0.3188
  307MOL0     H41423  -2.308   5.905   5.067  1.8888 -0.6717 -1.3646
  307MOL0     H41424  -2.186   5.857   5.170  0.7761 -2.4953  1.1844
  307MOL0     H41425  -2.470   5.745   5.187 -0.4216  3.3896 -3.0745
  307MOL0     H41426  -2.431   5.890   5.277 -3.3601 -0.3051 -2.1119
  307MOL0     H41427  -1.574   5.725   4.728 -0.8268  0.8657 -0.2026
  307MOL0     H41428  -1.405   5.556   4.732 -1.8135  2.6771  3.0451
  307MOL0     H41429  -1.192   5.249   4.556  0.4782 -0.0399  0.9769
  307MOL0     H41430  -1.032   5.096   4.484 -2.6004  1.8865 -0.7946
  307MOL0     H41431   0.901   4.639   4.808 -0.9117  1.6581 -3.7902
  307MOL0     H41432   1.125   4.560   4.819 -0.0595 -0.6662 -3.8896
  307MOL0     H41433   1.738   4.859   4.736  1.1444 -0.4835  0.1131
  307MOL0     H41434   1.943   4.729   4.795  0.3126  1.0487  3.7262
  307MOL0     H41435   1.915   4.535   5.107  1.5978  0.3685  0.8724
  307MOL0     H41436   1.945   4.364   5.063  3.2716 -1.5492 -0.8148
  307MOL0     H41437   2.188   4.434   5.004  1.7472  0.7892  0.1465
  307MOL0     H41438   2.145   4.420   5.170 -1.4563 -0.2290 -0.9218
  307MOL0     H41439   2.125   4.658   5.196  0.0868 -1.3545  0.1059
  307MOL0     H41440   2.102   4.682   5.018  0.4662 -0.1856 -1.0880
  307MOL0     H41441   2.331   4.752   5.058 -2.2252 -0.0914 -1.6068
  307MOL0     H41442   2.309   4.598   4.962  1.4439  0.9883 -0.2065
  307MOL0     H41443   2.514   4.438   5.292  0.5969  2.0508  1.6003
  307MOL0     H41444   1.703   4.413   4.934  1.3847 -0.6663 -0.7920
  307MOL0     H41445   1.497   4.532   4.884  1.7396 -3.6989 -1.0988
  308MOL0     O41446   6.644  11.279   8.818 -0.1557  0.0516 -0.2179
  308MOL0     C41447   6.685  11.383   8.766  0.4013 -0.1006 -0.1803
  308MOL0     O41448   6.611  11.498   8.748  0.0481 -0.3661 -0.3609
  308MOL0     C41449   6.485  11.507   8.804 -0.1747 -0.4572 -1.5231
  308MOL0     C41450   6.379  11.422   8.772  0.1440 -0.7427 -0.8904
  308MOL0     C41451   6.257  11.447   8.813  0.3780  0.1298 -0.1309
  308MOL0     C41452   6.219  11.555   8.895 -0.6819  0.8333  0.0716
  308MOL0     O41453   6.089  11.589   8.929  0.0989 -0.3024 -0.4653
  308MOL0     C41454   5.984  11.496   8.967 -0.2002 -1.2227  0.2417
  308MOL0     C41455   5.858  11.581   8.975 -0.1942  0.0242 -0.2051
  308MOL0     C41456   5.879  11.712   9.050  0.2468 -0.1090 -0.8547
  308MOL0     C41457   5.744  11.763   9.099  0.5573  0.3887  0.2975
  308MOL0     C41458   5.769  11.883   9.182  0.2858 -0.1048 -0.7262
  308MOL0     C41459   5.650  11.919   9.272  0.2304  0.1408  0.3851
  308MOL0     C41460   5.541  12.002   9.195 -0.2127  0.5722 -0.3980
  308MOL0     C41461   5.594  12.123   9.117  0.1009 -0.6553 -0.0343
  308MOL0     N41462   5.681  12.211   9.193 -0.3876  0.1098  0.4050
  308MOL0     C41463   5.798  12.273   9.137 -0.3916 -0.1313 -0.3557
  308MOL0     C41464   5.876  12.327   9.234  1.2477 -0.5963 -0.2492
  308MOL0     C41465   5.996  12.403   9.229 -0.1631 -0.2750  0.4788
  308MOL0     C41466   6.116  12.321   9.237 -0.2707 -1.1198 -1.1456
  308MOL0     C41467   6.103  12.201   9.145 -1.0353 -0.2052  0.6052
  308MOL0     C41468   6.251  12.139   9.119 -0.9019  0.1312  0.1487
  308MOL0     O41469   6.317  12.200   9.009 -0.3166 -0.3312 -0.0275
  308MOL0     C41470   6.428  12.126   8.968 -1.2147 -0.7130 -0.5824
  308MOL0     C41471   6.438  12.062   8.843 -0.1660 -0.3441  0.0488
  308MOL0     C41472   6.558  11.995   8.795  0.1198 -0.2470 -0.6081
  308MOL0     C41473   6.568  11.918   8.666 -0.0231  0.2967  0.1765
  308MOL0     C41474   6.674  12.012   8.882 -0.0033 -0.1015 -0.0412
  308MOL0     C41475   6.811  11.953   8.856 -1.2928  0.5900  0.8575
  308MOL0     O41476   6.826  11.864   8.755 -0.2992  0.0211  0.0477
  308MOL0     C41477   6.951  11.853   8.693  0.6160  0.1821  1.1322
  308MOL0     C41478   6.977  11.859   8.553 -0.2704 -0.1142 -0.6899
  308MOL0     C41479   7.102  11.829   8.507  0.2146 -1.0128 -0.4461
  308MOL0     C41480   7.209  11.798   8.588  0.0379 -0.6257  1.3314
  308MOL0     O41481   7.323  11.778   8.517  0.2513  0.0484 -0.1365
  308MOL0     C41482   7.441  11.725   8.580  0.0831  1.2882 -0.0207
  308MOL0     C41483   7.546  11.669   8.486 -0.3014  0.2742 -0.5691
  308MOL0     C41484   7.625  11.766   8.400 -0.2446 -0.9186 -0.3928
  308MOL0     C41485   7.699  11.691   8.292 -0.1925  0.2060 -0.1877
  308MOL0     C41486   7.753  11.793   8.191 -0.6609  0.3836  0.2292
  308MOL0     C41487   7.877  11.856   8.248 -0.1396 -0.5662  0.5112
  308MOL0     C41488   7.942  11.948   8.141  0.3041 -0.6474 -0.5596
  308MOL0     C41489   8.092  11.960   8.157 -0.4303 -0.5032 -0.4567
  308MOL0    Cl41490   8.182  11.800   8.129  0.0269 -0.0373 -0.3209
  308MOL0     C41491   7.186  11.781   8.730 -0.1485 -0.1026 -0.0011
  308MOL0     C41492   7.062  11.817   8.777  1.1529 -0.5608  0.7066
  308MOL0     O41493   6.908  11.999   8.916  0.5401 -0.2816  0.0435
  308MOL0     C41494   6.662  12.091   8.997 -0.3442  0.5443  0.7242
  308MOL0     C41495   6.538  12.145   9.045  0.0213 -0.4782 -0.2050
  308MOL0     N41496   5.802  12.297   9.344  0.4935 -0.1608  0.3966
  308MOL0     N41497   5.693  12.229   9.327  0.6535 -0.4871  0.6116
  308MOL0     C41498   6.326  11.647   8.928  1.1236 -0.2092  0.5283
  308MOL0     C41499   6.461  11.620   8.890  0.4119 -0.4679  0.6685
  308MOL0     C41500   6.816  11.379   8.698  0.8649  0.0303  0.1376
  308MOL0     C41501   6.863  11.252   8.662 -0.8678  1.1280  1.1086
  308MOL0     C41502   6.980  11.243   8.584 -0.1217  0.0170 -0.3743
  308MOL0     C41503   7.057  11.344   8.536  0.2419 -0.4820 -0.1064
  308MOL0     O41504   7.159  11.322   8.446 -0.7590  0.1140  0.2348
  308MOL0     C41505   7.268  11.413   8.440 -1.1641  0.3333 -0.3980
  308MOL0     C41506   7.406  11.342   8.419 -0.8567 -0.2273  0.3174
  308MOL0     C41507   7.410  11.286   8.277  0.0624  0.0596  0.4287
  308MOL0     C41508   7.545  11.226   8.239 -0.5197  0.6943 -0.2938
  308MOL0     C41509   7.589  11.275   8.107  0.5079 -0.4420  0.6245
  308MOL0     C41510   7.634  11.307   8.002  0.4250  0.2641 -0.4681
  308MOL0     C41511   7.018  11.474   8.577  0.1432 -0.2852 -0.4505
  308MOL0     C41512   6.901  11.489   8.656 -0.0937 -0.6129 -0.6573
  308MOL0     H41513   6.402  11.342   8.703 -0.3354 -1.6261 -0.0550
  308MOL0     H41514   6.174  11.384   8.782 -0.2865 -1.0673  3.5094
  308MOL0     H41515   5.978  11.411   8.898  0.7240 -2.5868  1.7810
  308MOL0     H41516   6.003  11.453   9.065 -1.5733  1.7524  1.9355
  308MOL0     H41517   5.832  11.619   8.876  0.9309  2.3040  0.3182
  308MOL0     H41518   5.787  11.515   9.026  0.0353  0.9996  1.4436
  308MOL0     H41519   5.939  11.686   9.137 -0.0756  0.7300 -0.3668
  308MOL0     H41520   5.937  11.786   8.993 -0.5767  2.2742  1.2215
  308MOL0     H41521   5.681  11.786   9.012  0.9091 -2.3335 -0.7654
  308MOL0     H41522   5.690  11.688   9.157 -1.8480  3.0389  1.7449
  308MOL0     H41523   5.847  11.857   9.254 -0.5000  0.3959  0.3255
  308MOL0     H41524   5.798  11.976   9.131  1.6518  0.5862  1.1683
  308MOL0     H41525   5.622  11.821   9.312 -0.3395 -0.1937 -0.7960
  308MOL0     H41526   5.691  11.977   9.355  1.2907  0.8965 -0.6477
  308MOL0     H41527   5.493  11.932   9.126  2.5519 -2.4153  0.4799
  308MOL0     H41528   5.470  12.037   9.270  0.2706  0.3876  0.1493
  308MOL0     H41529   5.515  12.174   9.061  1.7307 -0.7291 -2.5485
  308MOL0     H41530   5.647  12.080   9.032  1.8935  0.9663  0.2083
  308MOL0     H41531   5.824  12.279   9.032  1.3160  0.6554  0.0709
  308MOL0     H41532   5.992  12.463   9.137 -1.9605  1.7813  1.7996
  308MOL0     H41533   6.000  12.474   9.312  1.8485 -1.4149  1.4533
  308MOL0     H41534   6.131  12.279   9.337  0.4358  0.6333 -0.4773
  308MOL0     H41535   6.209  12.368   9.204  1.0878  0.3313  3.9305
  308MOL0     H41536   6.071  12.236   9.047 -0.1776  0.7259  0.6360
  308MOL0     H41537   6.043  12.123   9.192  0.2201 -0.1302  2.4484
  308MOL0     H41538   6.248  12.033   9.092  1.2580  0.6234 -2.4310
  308MOL0     H41539   6.304  12.141   9.214 -2.3770 -3.3082  1.2205
  308MOL0     H41540   6.345  12.056   8.788  0.2527 -1.5163 -0.5610
  308MOL0     H41541   6.652  11.954   8.605  0.2966 -2.7369 -1.3762
  308MOL0     H41542   6.588  11.811   8.664  1.6313  0.5231 -3.3272
  308MOL0     H41543   6.476  11.925   8.607  0.3040  0.2309 -0.3501
  308MOL0     H41544   6.890  11.883   8.493 -0.8512 -0.2589  0.0805
  308MOL0     H41545   7.115  11.834   8.399 -1.6242  1.1145 -0.6362
  308MOL0     H41546   7.505  11.798   8.632  4.5345 -0.7262 -2.1068
  308MOL0     H41547   7.415  11.647   8.652  1.0391  3.7544  3.2635
  308MOL0     H41548   7.609  11.598   8.540 -1.5612 -1.3634 -1.1607
  308MOL0     H41549   7.490  11.609   8.414 -2.2754  0.1867  0.9352
  308MOL0     H41550   7.693  11.821   8.466 -0.3333  2.1803 -2.6310
  308MOL0     H41551   7.552  11.841   8.368  0.3835  0.5564  1.4499
  308MOL0     H41552   7.777  11.634   8.343  0.5103  4.1189  3.8171
  308MOL0     H41553   7.626  11.627   8.242  0.9121 -1.0381 -0.2535
  308MOL0     H41554   7.676  11.869   8.174 -0.1087  0.9921  0.4041
  308MOL0     H41555   7.771  11.735   8.100  1.3857 -2.6507  2.3939
  308MOL0     H41556   7.853  11.910   8.340 -1.0216 -1.2193  0.6876
  308MOL0     H41557   7.946  11.774   8.271 -0.1742 -1.2882 -1.7070
  308MOL0     H41558   7.893  12.045   8.153  2.1002  0.2210  0.1389
  308MOL0     H41559   7.931  11.912   8.038  2.1697 -2.3693 -0.2294
  308MOL0     H41560   8.114  11.994   8.258  1.4180  0.2742 -1.0876
  308MOL0     H41561   8.140  12.028   8.087  2.3967 -0.0482  1.7350
  308MOL0     H41562   7.268  11.764   8.800 -0.5321  3.1078  1.4537
  308MOL0     H41563   7.061  11.825   8.885 -0.2778  1.2775  0.5878
  308MOL0     H41564   6.754  12.119   9.046 -0.3756  0.1596  1.0094
  308MOL0     H41565   6.535  12.207   9.134  2.6804 -1.7607  0.9127
  308MOL0     H41566   6.293  11.741   8.972 -2.3385 -1.3751  0.7326
  308MOL0     H41567   6.552  11.678   8.901 -0.2500  0.8545 -0.5510
  308MOL0     H41568   6.807  11.162   8.683 -1.0365  0.8145 -0.5265
  308MOL0     H41569   7.019  11.149   8.548  4.3759  1.2667  0.5612
  308MOL0     H41570   7.254  11.496   8.369 -0.4269 -0.2852 -1.2792
  308MOL0     H41571   7.267  11.465   8.537  0.3920 -2.8787  1.4861
  308MOL0     H41572   7.428  11.262   8.490 -0.2596  1.2882  1.9048
  308MOL0     H41573   7.499  11.399   8.435  1.8971 -4.4356  0.8532
  308MOL0     H41574   7.396  11.373   8.212  1.0272  0.5259  0.8130
  308MOL0     H41575   7.333  11.212   8.257  1.1001 -1.1085  0.6690
  308MOL0     H41576   7.538  11.117   8.232 -1.3098  0.6163  1.3890
  308MOL0     H41577   7.624  11.248   8.312 -0.7399 -1.5635  0.7111
  308MOL0     H41578   7.665  11.324   7.900 -1.6244 -1.9302 -1.5503
  308MOL0     H41579   7.052  11.566   8.530 -2.0519  2.1986  2.3890
  308MOL0     H41580   6.867  11.591   8.671  2.6190  0.5479 -1.6859
  309MOL0     O41581   7.413   0.297   1.381  0.0106 -0.4381 -0.1332
  309MOL0     C41582   7.299   0.276   1.343  0.0356  0.3629 -0.0700
  309MOL0     O41583   7.268   0.209   1.232 -0.4199  0.9414 -0.7817
  309MOL0     C41584   7.373   0.190   1.142 -0.3048 -0.1675  0.5944
  309MOL0     C41585   7.410   0.286   1.049 -0.1171  0.4642 -0.7531
  309MOL0     C41586   7.505   0.258   0.952  0.0146 -0.1006  0.6190
  309MOL0     C41587   7.562   0.127   0.939  0.6794 -1.0115  1.2127
  309MOL0     O41588   7.663   0.106   0.845  0.0997 -0.6459 -0.3478
  309MOL0     C41589   7.702  -0.021   0.824 -0.5159 -0.2694  0.4719
  309MOL0     C41590   7.738  -0.027   0.672 -0.2869  0.1097 -0.0238
  309MOL0     C41591   7.607  -0.032   0.602  1.1593 -0.8579 -0.2658
  309MOL0     C41592   7.635  -0.043   0.462 -0.3813  0.2110  0.2991
  309MOL0     C41593   7.514  -0.062   0.381  0.8875 -0.0869 -0.3197
  309MOL0     C41594   7.539  -0.047   0.227 -0.6038  0.6341  0.2305
  309MOL0     C41595   7.414   0.006   0.163  0.2064 -0.3458  0.7035
  309MOL0     C41596   7.412   0.157   0.122 -0.1378  0.5157  0.0457
  309MOL0     N41597   7.433   0.235   0.243 -0.2485  0.3074  0.0826
  309MOL0     C41598   7.559   0.261   0.302 -0.1900  0.1651  0.2313
  309MOL0     C41599   7.540   0.317   0.426  1.7475  0.1056  0.1920
  309MOL0     C41600   7.648   0.345   0.517  0.7107 -0.8730 -0.2627
  309MOL0     C41601   7.756   0.448   0.468  0.5583  0.7329 -0.3061
  309MOL0     C41602   7.856   0.470   0.586  0.3985  0.1433  0.0326
  309MOL0     C41603   7.794   0.571   0.674 -0.5961  0.1333 -0.1581
  309MOL0     O41604   7.798   0.704   0.617  0.2971  0.3648 -0.0549
  309MOL0     C41605   7.738   0.813   0.678 -0.8485 -0.0462 -0.2786
  309MOL0     C41606   7.766   0.944   0.635 -0.4891  1.6739  1.0038
  309MOL0     C41607   7.722   1.053   0.701  0.2563  0.9573  0.3034
  309MOL0     C41608   7.760   1.192   0.660  0.0372 -0.6247 -0.1207
  309MOL0     C41609   7.631   1.035   0.802 -0.1761 -0.5466  0.5173
  309MOL0     C41610   7.539   1.141   0.847  0.6148 -0.4186 -0.1032
  309MOL0     O41611   7.422   1.093   0.908 -1.0159 -0.0889 -0.0804
  309MOL0     C41612   7.335   1.189   0.944 -0.7007  0.7168 -0.2399
  309MOL0     C41613   7.292   1.216   1.078  0.7781 -0.1228  0.2340
  309MOL0     C41614   7.204   1.322   1.112 -0.1406  0.5366  0.2344
  309MOL0     C41615   7.124   1.373   1.012 -0.9465 -0.4675  0.1704
  309MOL0     O41616   7.025   1.465   1.041 -0.6263  0.1790  0.3937
  309MOL0     C41617   6.923   1.495   0.945 -0.1159 -0.5988  0.6854
  309MOL0     C41618   6.824   1.589   1.025 -0.1602  0.3592 -0.3676
  309MOL0     C41619   6.740   1.518   1.135  0.0587 -0.7587  0.5636
  309MOL0     C41620   6.623   1.609   1.182 -0.0030  0.3724  0.2764
  309MOL0     C41621   6.560   1.554   1.309 -0.2052 -0.0272  0.7766
  309MOL0     C41622   6.416   1.596   1.312 -0.2626 -0.3444  0.2457
  309MOL0     C41623   6.346   1.573   1.442  0.4538  0.5098  0.5255
  309MOL0     C41624   6.192   1.573   1.411 -0.1364  0.3263 -0.0186
  309MOL0    Cl41625   6.135   1.713   1.318  0.2689 -0.2406  0.3625
  309MOL0     C41626   7.152   1.326   0.879  0.2271 -1.1947  1.0897
  309MOL0     C41627   7.262   1.247   0.845  0.5346 -0.3769 -0.3572
  309MOL0     O41628   7.562   1.260   0.844 -0.2988 -0.3671 -0.4508
  309MOL0     C41629   7.599   0.908   0.843  0.3246  0.7543 -0.0586
  309MOL0     C41630   7.651   0.796   0.787 -0.1373 -0.3140 -0.0968
  309MOL0     N41631   7.407   0.325   0.433  0.6342 -0.1626 -0.5288
  309MOL0     N41632   7.340   0.285   0.332  0.6902  0.0148 -0.8339
  309MOL0     C41633   7.536   0.036   1.042 -0.0880  0.6161 -0.3830
  309MOL0     C41634   7.444   0.068   1.147 -0.6702  0.0800  0.8773
  309MOL0     C41635   7.187   0.299   1.437 -0.1979 -0.7523 -0.5928
  309MOL0     C41636   7.058   0.284   1.389 -0.4140  0.0312  0.4956
  309MOL0     C41637   6.954   0.312   1.471  0.3084  0.2813  0.4886
  309MOL0     C41638   6.973   0.367   1.601  0.5415  0.4287  0.5140
  309MOL0     O41639   6.861   0.400   1.675  0.5732 -0.6147 -0.4878
  309MOL0     C41640   6.881   0.475   1.803  0.1184  0.4028 -0.2059
  309MOL0     C41641   6.920   0.366   1.906 -1.1489  0.4037  0.2671
  309MOL0     C41642   6.945   0.432   2.043  0.4313 -0.6440  0.5508
  309MOL0     C41643   6.824   0.435   2.143  0.5398  0.4269  0.5154
  309MOL0     C41644   6.708   0.503   2.092 -0.0056 -0.3883  0.8000
  309MOL0     C41645   6.608   0.538   2.038  0.3728 -0.6247 -0.2541
  309MOL0     C41646   7.106   0.382   1.648 -0.4233  0.7050 -0.7030
  309MOL0     C41647   7.214   0.346   1.568  0.5105  0.2646 -0.4609
  309MOL0     H41648   7.367   0.384   1.062  0.2473  0.3025  2.4971
  309MOL0     H41649   7.543   0.332   0.883 -1.4005 -1.4668 -1.7682
  309MOL0     H41650   7.789  -0.040   0.888  1.5594  3.6638 -0.8472
  309MOL0     H41651   7.627  -0.095   0.854  0.7892 -2.0905 -0.5174
  309MOL0     H41652   7.799   0.058   0.638  0.0197  1.0878  2.6902
  309MOL0     H41653   7.792  -0.120   0.652 -2.8435 -2.2248  2.8197
  309MOL0     H41654   7.547  -0.121   0.625 -0.6850 -0.4253 -2.9597
  309MOL0     H41655   7.546   0.058   0.609  0.9292 -0.8194 -2.1603
  309MOL0     H41656   7.696   0.043   0.434  2.7723 -1.8916  0.2079
  309MOL0     H41657   7.704  -0.126   0.449  0.7651  0.3656  4.1069
  309MOL0     H41658   7.460  -0.154   0.405 -1.7575  1.3444 -0.4545
  309MOL0     H41659   7.451   0.024   0.408  1.4269  0.0662  0.4890
  309MOL0     H41660   7.629   0.014   0.210  0.2559 -0.1318  1.7676
  309MOL0     H41661   7.560  -0.152   0.204 -1.4153  0.2071  1.3459
  309MOL0     H41662   7.395  -0.061   0.079 -1.9638 -0.7150  1.4388
  309MOL0     H41663   7.328  -0.006   0.229 -1.4402  4.2450 -0.1854
  309MOL0     H41664   7.319   0.197   0.081 -0.8783  0.0211  1.1938
  309MOL0     H41665   7.500   0.168   0.059 -1.3490 -0.3284 -1.9031
  309MOL0     H41666   7.655   0.243   0.253 -0.8465  2.8181 -2.3306
  309MOL0     H41667   7.597   0.376   0.609  0.0286 -2.1921 -0.1622
  309MOL0     H41668   7.698   0.251   0.543  1.1736 -0.1754  1.5575
  309MOL0     H41669   7.712   0.542   0.433 -1.4722 -1.0249 -2.9354
  309MOL0     H41670   7.807   0.410   0.379 -0.0417  0.7409 -0.6638
  309MOL0     H41671   7.951   0.500   0.542 -1.1839  1.6995 -2.5702
  309MOL0     H41672   7.873   0.380   0.645 -0.5027  0.3387  0.6154
  309MOL0     H41673   7.849   0.589   0.767 -0.9611 -0.3911  0.1593
  309MOL0     H41674   7.694   0.542   0.706  0.8775 -1.7172  3.3684
  309MOL0     H41675   7.834   0.947   0.551 -2.9208 -1.8209 -1.3565
  309MOL0     H41676   7.830   1.172   0.579  0.9409 -1.0306  0.7443
  309MOL0     H41677   7.664   1.231   0.623 -1.8402 -2.4709  2.3832
  309MOL0     H41678   7.806   1.241   0.746 -0.4243 -2.8612  1.4821
  309MOL0     H41679   7.335   1.160   1.160 -0.9125 -0.6674  0.7885
  309MOL0     H41680   7.186   1.354   1.214  1.5212  3.5393 -0.2894
  309MOL0     H41681   6.957   1.552   0.859 -0.6835 -3.2325 -1.4135
  309MOL0     H41682   6.856   1.415   0.913 -0.6164  0.0708  0.0340
  309MOL0     H41683   6.889   1.671   1.057 -0.6903  1.6343 -2.3648
  309MOL0     H41684   6.759   1.630   0.948 -0.5329 -1.4656 -1.0847
  309MOL0     H41685   6.807   1.495   1.219  1.4628  1.0218  0.0030
  309MOL0     H41686   6.706   1.423   1.095 -0.6346 -0.1486 -0.3277
  309MOL0     H41687   6.663   1.710   1.195  0.4283 -0.0620  2.7534
  309MOL0     H41688   6.544   1.609   1.106  1.0892  1.8133 -0.9163
  309MOL0     H41689   6.620   1.592   1.392  0.2901 -1.5736  1.1611
  309MOL0     H41690   6.563   1.445   1.316 -0.3911 -0.1286 -0.4872
  309MOL0     H41691   6.431   1.704   1.304 -1.3134  0.4095  5.0044
  309MOL0     H41692   6.367   1.549   1.226  1.3473 -1.1038 -0.3032
  309MOL0     H41693   6.380   1.634   1.527  0.7334  1.9267 -0.5646
  309MOL0     H41694   6.363   1.467   1.464  0.6460  0.2286 -0.9115
  309MOL0     H41695   6.130   1.570   1.501  1.9760  0.3799  1.5149
  309MOL0     H41696   6.161   1.480   1.362 -1.2843  0.3655  0.6044
  309MOL0     H41697   7.079   1.348   0.802  0.2030  1.0776  1.7021
  309MOL0     H41698   7.276   1.203   0.747 -1.2921 -2.0005  0.0595
  309MOL0     H41699   7.527   0.892   0.923  1.5325  0.8428  1.0902
  309MOL0     H41700   7.623   0.699   0.826  1.5588 -0.3979  1.0579
  309MOL0     H41701   7.589  -0.058   1.054  0.9304  1.4001  1.7073
  309MOL0     H41702   7.431  -0.009   1.222  0.8812 -0.8467  0.2604
  309MOL0     H41703   7.042   0.244   1.289 -0.3212 -0.8272  0.8219
  309MOL0     H41704   6.863   0.296   1.414  0.7865  1.2089 -0.5882
  309MOL0     H41705   6.963   0.544   1.783  2.8112 -2.0786  1.3998
  309MOL0     H41706   6.792   0.530   1.836  1.1400  3.4231 -2.1566
  309MOL0     H41707   7.015   0.321   1.877 -0.4138  0.8093  1.9262
  309MOL0     H41708   6.849   0.282   1.909 -1.7242  0.9161  1.3667
  309MOL0     H41709   6.993   0.525   2.013  1.3860 -1.7710 -1.7156
  309MOL0     H41710   7.024   0.375   2.093  0.8097 -0.5689  0.0456
  309MOL0     H41711   6.852   0.487   2.235 -1.8250  0.5928  1.1959
  309MOL0     H41712   6.798   0.332   2.166 -0.4996 -0.0140 -2.2239
  309MOL0     H41713   6.523   0.549   1.974  1.3385 -1.6344 -1.7749
  309MOL0     H41714   7.131   0.422   1.746 -0.4229 -2.9845  0.9702
  309MOL0     H41715   7.310   0.349   1.618  0.0935 -0.4068  0.4159
  310MOL0     O41716  10.174  11.143   6.231  0.2964 -0.2463 -0.3748
  310MOL0     C41717  10.259  11.219   6.288  0.0670 -0.2519  0.6818
  310MOL0     O41718  10.229  11.342   6.336  0.3245  0.2546  0.3369
  310MOL0     C41719  10.102  11.394   6.311 -0.2982 -0.2112  0.1008
  310MOL0     C41720  10.086  11.495   6.215  0.2447  0.2731 -0.1313
  310MOL0     C41721   9.958  11.536   6.168 -0.1701 -1.3889  0.0772
  310MOL0     C41722   9.845  11.490   6.239 -1.0127  0.4902  0.3460
  310MOL0     O41723   9.724  11.532   6.190  0.1451  0.4814  0.2058
  310MOL0     C41724   9.620  11.546   6.293 -0.1795 -0.1702 -0.1581
  310MOL0     C41725   9.494  11.559   6.209  0.6098 -0.4054 -0.0079
  310MOL0     C41726   9.460  11.435   6.123 -0.3757 -0.4215 -0.2127
  310MOL0     C41727   9.315  11.425   6.079 -1.0345  0.8331  0.3479
  310MOL0     C41728   9.299  11.327   5.969 -0.9260  0.1176  0.1514
  310MOL0     C41729   9.316  11.184   6.019 -0.6835 -0.4823  0.1808
  310MOL0     C41730   9.248  11.080   5.928 -0.2863 -0.3120  0.1927
  310MOL0     C41731   9.252  10.944   5.989  0.3456  0.1432 -0.5749
  310MOL0     N41732   9.154  10.859   5.908 -0.7283  1.1545  1.0948
  310MOL0     C41733   9.180  10.806   5.782  0.4054 -1.6262  0.8130
  310MOL0     C41734   9.058  10.762   5.735 -0.5659 -0.2259 -0.6624
  310MOL0     C41735   9.018  10.717   5.593 -0.3633 -0.3947  0.0023
  310MOL0     C41736   9.109  10.609   5.542 -0.1589 -0.1473 -0.3764
  310MOL0     C41737   9.041  10.547   5.429 -1.1138 -0.9822 -0.0425
  310MOL0     C41738   9.135  10.457   5.364 -0.3094 -0.1010  0.4391
  310MOL0     O41739   9.082  10.442   5.229 -0.4054  0.0807 -0.0276
  310MOL0     C41740   9.168  10.366   5.152  0.4353 -0.1785 -1.2660
  310MOL0     C41741   9.143  10.367   5.017 -0.0081 -0.0539 -0.4678
  310MOL0     C41742   9.229  10.314   4.925  0.0397  0.0068 -0.4841
  310MOL0     C41743   9.201  10.328   4.775  0.2906  0.0405  0.2053
  310MOL0     C41744   9.341  10.239   4.969 -0.3675  0.1158 -0.4698
  310MOL0     C41745   9.443  10.198   4.880 -0.6957  0.0829 -0.2405
  310MOL0     O41746   9.574  10.251   4.898  0.6066  0.1978  0.2789
  310MOL0     C41747   9.670  10.215   4.806 -0.3788  1.3443 -0.4484
  310MOL0     C41748   9.640  10.230   4.663  0.4368 -0.0401 -0.3722
  310MOL0     C41749   9.744  10.187   4.574 -0.1717  0.8781  0.6659
  310MOL0     C41750   9.862  10.130   4.615  0.5483 -0.3492  0.0306
  310MOL0     O41751   9.945  10.076   4.524  1.0371  0.3654 -0.1278
  310MOL0     C41752  10.080  10.051   4.549  0.0161  0.6499 -0.1031
  310MOL0     C41753  10.154  10.186   4.557 -0.0924 -0.0703 -0.0733
  310MOL0     C41754  10.303  10.167   4.583 -0.6942 -0.1415 -1.1985
  310MOL0     C41755  10.386  10.095   4.479  0.0255  0.2757  0.9013
  310MOL0     C41756  10.538  10.118   4.495 -0.8118  0.2367  0.2015
  310MOL0     C41757  10.618  10.044   4.383 -0.0292 -0.8161  0.9083
  310MOL0     C41758  10.758  10.112   4.361 -0.9173  0.0565 -0.0773
  310MOL0     C41759  10.760  10.205   4.240  0.5976 -0.3811  0.5638
  310MOL0    Cl41760  10.936  10.267   4.216  0.3518 -0.1340  0.2613
  310MOL0     C41761   9.889  10.123   4.752 -0.3393 -0.4555 -0.5739
  310MOL0     C41762   9.788  10.156   4.846  0.0863 -0.9349  0.0345
  310MOL0     O41763   9.412  10.112   4.801  0.1012 -0.2555 -0.1079
  310MOL0     C41764   9.366  10.224   5.109  0.3486 -0.2152 -0.0104
  310MOL0     C41765   9.275  10.287   5.198  0.8144 -0.3636 -0.5184
  310MOL0     N41766   8.970  10.780   5.843  0.9711  0.7736  1.0230
  310MOL0     N41767   9.019  10.838   5.942 -0.2432 -0.0432  0.9423
  310MOL0     C41768   9.871  11.378   6.329  0.7500 -0.2013 -0.2288
  310MOL0     C41769   9.995  11.334   6.366  0.8935 -0.7396 -0.7421
  310MOL0     C41770  10.401  11.186   6.309 -0.4467 -0.2017  0.4398
  310MOL0     C41771  10.478  11.239   6.409 -0.3499 -0.4824 -0.4243
  310MOL0     C41772  10.618  11.208   6.425  0.0375 -0.0485 -0.9131
  310MOL0     C41773  10.677  11.125   6.327 -0.8109 -0.5731 -0.0134
  310MOL0     O41774  10.811  11.098   6.329 -0.0258  0.1578 -1.2534
  310MOL0     C41775  10.898  11.142   6.435  0.3968  0.5206 -0.0637
  310MOL0     C41776  11.040  11.090   6.412  0.3227 -0.7083 -0.2718
  310MOL0     C41777  11.113  11.138   6.280  0.8396  0.2384 -0.8496
  310MOL0     C41778  11.244  11.061   6.247 -0.5531  0.4623 -0.4775
  310MOL0     C41779  11.336  11.061   6.364 -0.7981  0.2569  0.1404
  310MOL0     C41780  11.407  11.079   6.452 -0.2376 -0.6483  0.5106
  310MOL0     C41781  10.597  11.066   6.226  0.1358  0.2920 -0.0322
  310MOL0     C41782  10.461  11.094   6.218 -0.5242  0.6797  0.0601
  310MOL0     H41783  10.173  11.528   6.160  1.5901 -2.8013 -0.0263
  310MOL0     H41784   9.952  11.615   6.094  0.6826  1.7773  3.1468
  310MOL0     H41785   9.607  11.463   6.364 -1.6046  0.4931  0.3883
  310MOL0     H41786   9.643  11.635   6.351  0.8959 -2.0229  2.4814
  310MOL0     H41787   9.415  11.571   6.284 -0.8915 -3.2282 -0.9791
  310MOL0     H41788   9.492  11.647   6.144 -0.9341 -1.1905 -1.0886
  310MOL0     H41789   9.537  11.446   6.046 -0.2308  2.0682  0.2246
  310MOL0     H41790   9.485  11.348   6.186 -1.9613  0.4179  1.6785
  310MOL0     H41791   9.248  11.420   6.165 -2.1723 -0.1694 -0.5640
  310MOL0     H41792   9.291  11.523   6.038 -1.1374 -0.3810 -2.7084
  310MOL0     H41793   9.198  11.337   5.928  0.1293  2.5271 -2.1809
  310MOL0     H41794   9.367  11.345   5.885 -0.0654 -2.6822  0.1294
  310MOL0     H41795   9.421  11.158   6.035 -0.4330  0.2439 -0.2376
  310MOL0     H41796   9.261  11.175   6.113  0.1821 -1.9720  0.5776
  310MOL0     H41797   9.145  11.112   5.909  0.3713 -0.1478 -4.0174
  310MOL0     H41798   9.306  11.067   5.836 -0.0827 -0.9059  0.3965
  310MOL0     H41799   9.207  10.948   6.089  3.2171  0.2039  0.8174
  310MOL0     H41800   9.352  10.899   5.990  1.6215  2.7902 -0.6518
  310MOL0     H41801   9.269  10.809   5.719 -0.1578  1.0742  0.0054
  310MOL0     H41802   8.913  10.685   5.586 -0.1500 -1.2659  0.6354
  310MOL0     H41803   9.038  10.803   5.528  3.2660 -1.9161 -1.1456
  310MOL0     H41804   9.147  10.541   5.619  0.8994  0.9354  0.0845
  310MOL0     H41805   9.197  10.663   5.508 -0.0623 -1.6559 -2.7874
  310MOL0     H41806   9.005  10.622   5.359  1.3849 -1.2393 -1.7422
  310MOL0     H41807   8.958  10.488   5.471  0.7815 -1.9506  2.6345
  310MOL0     H41808   9.138  10.361   5.416  1.7613  0.2808  1.1506
  310MOL0     H41809   9.240  10.488   5.360 -1.0098  2.4249 -0.2769
  310MOL0     H41810   9.058  10.429   4.989  0.2442  0.3296 -0.3926
  310MOL0     H41811   9.164  10.229   4.748  1.7241 -0.4323 -0.0975
  310MOL0     H41812   9.116  10.395   4.757  0.2126  0.3137  1.4400
  310MOL0     H41813   9.290  10.359   4.720  1.4886  0.1162  2.0920
  310MOL0     H41814   9.553  10.285   4.628 -1.1551 -1.9573  0.3903
  310MOL0     H41815   9.721  10.197   4.468 -0.2247 -0.1080  0.5818
  310MOL0     H41816  10.099   9.986   4.635 -1.9238  0.9113  0.5654
  310MOL0     H41817  10.121   9.999   4.462 -2.9377  0.3170 -1.4408
  310MOL0     H41818  10.144  10.241   4.463  2.7935 -1.1756 -1.1087
  310MOL0     H41819  10.117  10.246   4.641  0.3731 -0.7419  0.6225
  310MOL0     H41820  10.313  10.110   4.676 -1.9380  1.7393  0.1510
  310MOL0     H41821  10.352  10.264   4.591 -2.2335  0.7671 -2.3159
  310MOL0     H41822  10.358   9.989   4.469 -2.9130  1.1686 -2.3210
  310MOL0     H41823  10.358  10.140   4.383  0.7287 -2.9804 -0.9758
  310MOL0     H41824  10.580  10.087   4.591 -0.8400  0.5485  0.3175
  310MOL0     H41825  10.555  10.224   4.473  3.0862 -0.5957 -1.6293
  310MOL0     H41826  10.623   9.940   4.417 -1.7958 -0.4299  2.5362
  310MOL0     H41827  10.566  10.039   4.287  2.5869  1.2016 -0.7324
  310MOL0     H41828  10.836  10.037   4.340  0.4872  1.9801 -2.3240
  310MOL0     H41829  10.808  10.171   4.439  2.4212 -0.4862 -1.6165
  310MOL0     H41830  10.690  10.288   4.253  0.4455 -0.7550  2.3467
  310MOL0     H41831  10.728  10.153   4.149  1.7383  0.3561 -0.2932
  310MOL0     H41832   9.984  10.084   4.785 -0.5044  0.9952  1.8050
  310MOL0     H41833   9.817  10.161   4.951  2.7948  0.9611 -0.6760
  310MOL0     H41834   9.455  10.180   5.153 -0.1495 -0.3086  0.9328
  310MOL0     H41835   9.305  10.277   5.301  1.6986 -2.5214 -0.9313
  310MOL0     H41836   9.784  11.329   6.371  0.9919 -0.0613  0.4480
  310MOL0     H41837  10.009  11.249   6.431  0.9813 -0.3595 -0.2570
  310MOL0     H41838  10.442  11.312   6.481 -0.9177  2.6886 -3.6035
  310MOL0     H41839  10.687  11.253   6.496 -0.3672 -3.2302  1.7396
  310MOL0     H41840  10.895  11.252   6.440  1.7194  0.5535  0.3572
  310MOL0     H41841  10.866  11.094   6.529 -2.5624 -1.3435 -1.8633
  310MOL0     H41842  11.030  10.981   6.404 -2.0689 -0.6480  0.7746
  310MOL0     H41843  11.106  11.118   6.494  3.7104 -0.0675 -3.0122
  310MOL0     H41844  11.129  11.246   6.278 -1.0129  0.5570 -0.5325
  310MOL0     H41845  11.036  11.128   6.203 -0.5879  1.2975  0.3714
  310MOL0     H41846  11.305  11.108   6.168 -1.5306 -0.5357 -1.8757
  310MOL0     H41847  11.222  10.956   6.225  0.5162  0.5595 -2.1960
  310MOL0     H41848  11.464  11.096   6.541 -1.4034 -0.1876  1.1927
  310MOL0     H41849  10.640  10.994   6.157  2.9394  1.5360  0.2805
  310MOL0     H41850  10.398  11.050   6.141 -1.0289  1.1746  0.1828
  311MOL0     O41851   0.134   2.035  10.893  0.4092 -0.7854 -0.5829
  311MOL0     C41852   0.171   2.142  10.941  0.3809 -0.3386 -0.4335
  311MOL0     O41853   0.095   2.249  10.975 -0.1611 -0.2664  0.0387
  311MOL0     C41854  -0.043   2.238  11.002  0.1123 -1.6729 -0.0138
  311MOL0     C41855  -0.116   2.361  11.033 -0.0266 -0.4558 -0.8418
  311MOL0     C41856  -0.251   2.355  11.065 -0.1248 -0.0656 -0.7682
  311MOL0     C41857  -0.324   2.240  11.054  0.4120 -0.0864 -0.3196
  311MOL0     O41858  -0.461   2.247  11.083 -0.0947 -0.8165  0.4347
  311MOL0     C41859  -0.545   2.143  11.034  0.7263 -0.5991 -0.3182
  311MOL0     C41860  -0.692   2.194  11.051  1.0357  0.0858  0.6023
  311MOL0     C41861  -0.735   2.305  10.952 -0.2996  0.0953 -0.4079
  311MOL0     C41862  -0.819   2.286  10.834  0.3156  0.1392  0.4942
  311MOL0     C41863  -0.964   2.248  10.866  0.9472  0.1567 -0.2386
  311MOL0     C41864  -1.056   2.273  10.748  0.4783  1.0883  0.0868
  311MOL0     C41865  -1.210   2.252  10.798 -0.1569  0.7971  0.2767
  311MOL0     C41866  -1.265   2.379  10.861 -0.4801  0.4126  0.5139
  311MOL0     N41867  -1.290   2.493  10.770 -0.6626 -0.3079  0.9201
  311MOL0     C41868  -1.413   2.546  10.735 -0.4894  0.1456 -0.0761
  311MOL0     C41869  -1.373   2.648  10.655 -0.1017 -0.2192 -0.2934
  311MOL0     C41870  -1.467   2.744  10.592  0.0673 -0.0920 -0.2653
  311MOL0     C41871  -1.554   2.670  10.490  0.2638 -0.2022 -1.0346
  311MOL0     C41872  -1.593   2.755  10.368 -1.1869 -0.9948 -0.2405
  311MOL0     C41873  -1.671   2.880  10.419 -0.4201 -0.8878  0.2699
  311MOL0     O41874  -1.792   2.857  10.497 -0.0751  0.4458  0.4022
  311MOL0     C41875  -1.900   2.863  10.412  0.2212 -0.4923 -0.1484
  311MOL0     C41876  -1.987   2.972  10.418 -1.1541 -0.0474 -1.2842
  311MOL0     C41877  -2.105   2.985  10.336  0.5056  0.2975  0.5485
  311MOL0     C41878  -2.216   3.076  10.391  0.7109  0.5166 -0.5657
  311MOL0     C41879  -2.126   2.901  10.230  0.0004  0.4637  0.9329
  311MOL0     C41880  -2.236   2.908  10.135  0.4939 -0.2546 -0.2353
  311MOL0     O41881  -2.270   2.793  10.068  0.0632 -0.0859 -0.1373
  311MOL0     C41882  -2.398   2.771  10.019 -0.1844  0.2945  0.0861
  311MOL0     C41883  -2.515   2.825  10.075  0.3752 -0.1448 -0.1217
  311MOL0     C41884  -2.648   2.780  10.032 -0.0498 -0.4281  0.0289
  311MOL0     C41885  -2.657   2.677   9.942  0.4751  0.0185  0.3567
  311MOL0     O41886  -2.778   2.616   9.924  0.4955 -0.2336  0.3793
  311MOL0     C41887  -2.772   2.482   9.980 -0.3047 -0.8863  0.1665
  311MOL0     C41888  -2.893   2.402   9.936 -1.2304 -0.3279  0.7771
  311MOL0     C41889  -2.907   2.249   9.962  0.1938 -0.2496 -0.2094
  311MOL0     C41890  -3.038   2.210   9.882 -1.2530 -0.8512 -0.1745
  311MOL0     C41891  -3.060   2.064   9.898 -0.2428 -0.3905  0.2763
  311MOL0     C41892  -3.201   2.039   9.845 -0.0537 -0.3105  0.7716
  311MOL0     C41893  -3.300   2.070   9.968 -0.0014  0.2507 -0.5669
  311MOL0     C41894  -3.426   1.993   9.959  0.1393 -0.2936  0.4895
  311MOL0    Cl41895  -3.502   2.026  10.116 -0.0865 -0.1926 -0.0558
  311MOL0     C41896  -2.543   2.626   9.879  0.7808 -0.8290  0.1955
  311MOL0     C41897  -2.414   2.668   9.916 -0.1538 -0.4290 -0.0117
  311MOL0     O41898  -2.301   3.013  10.128  0.2734  0.3042 -1.1136
  311MOL0     C41899  -2.034   2.798  10.210  0.5057  0.8619  0.3308
  311MOL0     C41900  -1.931   2.774  10.303  0.0666 -0.6581  0.9914
  311MOL0     N41901  -1.238   2.668  10.651  0.1470  0.0922  0.3630
  311MOL0     N41902  -1.191   2.581  10.734 -1.0963  0.4848 -0.1692
  311MOL0     C41903  -0.253   2.117  11.041 -0.4209 -0.0152 -0.2948
  311MOL0     C41904  -0.113   2.119  11.016  1.0872 -0.4751  1.0012
  311MOL0     C41905   0.316   2.158  10.949  0.8120  0.0545 -0.9967
  311MOL0     C41906   0.401   2.081  10.863 -0.2943 -0.5153 -0.0760
  311MOL0     C41907   0.543   2.093  10.875  0.3667 -0.1054 -0.0976
  311MOL0     C41908   0.602   2.180  10.961 -0.1224  0.1559 -0.6403
  311MOL0     O41909   0.740   2.197  10.957  0.3242  0.6375  0.2721
  311MOL0     C41910   0.799   2.294  11.049 -0.0234 -0.7220  0.5668
  311MOL0     C41911   0.952   2.314  11.034  1.0914 -0.2775 -0.2715
  311MOL0     C41912   1.021   2.177  11.057  0.0780  0.0897 -0.4492
  311MOL0     C41913   1.150   2.159  10.979 -0.0023  0.0065  0.6444
  311MOL0     C41914   1.241   2.052  11.020  0.3634 -0.2223 -0.8021
  311MOL0     C41915   1.318   1.965  11.053 -0.2827  0.1308  0.0676
  311MOL0     C41916   0.519   2.258  11.048  0.9398 -0.1106  0.5232
  311MOL0     C41917   0.376   2.255  11.037 -0.6061  0.2376  0.7146
  311MOL0     H41918  -0.068   2.458  11.043 -2.3511  0.6452  0.2281
  311MOL0     H41919  -0.295   2.450  11.093  0.1409 -1.1063  4.1840
  311MOL0     H41920  -0.524   2.124  10.929  1.2759  1.7617 -0.7119
  311MOL0     H41921  -0.524   2.054  11.093 -2.1424 -1.2280 -0.1367
  311MOL0     H41922  -0.772   2.119  11.039 -1.7182  3.1736 -2.9613
  311MOL0     H41923  -0.717   2.226  11.153  0.1068  1.6594 -0.0811
  311MOL0     H41924  -0.779   2.385  11.011  1.7533  0.5065  0.6441
  311MOL0     H41925  -0.641   2.344  10.912 -1.9580  1.2632 -3.4400
  311MOL0     H41926  -0.809   2.378  10.776  1.1638 -0.7677 -0.8561
  311MOL0     H41927  -0.774   2.214  10.765  0.0399  0.2453  0.2006
  311MOL0     H41928  -0.975   2.141  10.884  2.1616  0.2150  1.0551
  311MOL0     H41929  -0.999   2.303  10.954 -1.3352 -1.7784  0.1520
  311MOL0     H41930  -1.041   2.365  10.692 -0.3527  1.7013  0.8345
  311MOL0     H41931  -1.028   2.188  10.686  0.1491 -2.4596  4.3018
  311MOL0     H41932  -1.275   2.219  10.716  0.3992  0.9540 -0.2367
  311MOL0     H41933  -1.211   2.175  10.875  3.3037  0.3676  0.0801
  311MOL0     H41934  -1.204   2.418  10.943 -2.2503 -0.6490  2.4484
  311MOL0     H41935  -1.368   2.353  10.889 -1.3730  1.2444 -1.7604
  311MOL0     H41936  -1.513   2.510  10.760 -1.0892  1.8965  0.1499
  311MOL0     H41937  -1.533   2.800  10.659 -1.5714 -0.0905 -1.8051
  311MOL0     H41938  -1.410   2.814  10.529 -1.1880  0.6460 -0.6232
  311MOL0     H41939  -1.644   2.635  10.543  0.6849 -1.5751 -1.1879
  311MOL0     H41940  -1.505   2.579  10.455 -0.1811 -2.2080  2.9903
  311MOL0     H41941  -1.654   2.693  10.301  1.3831 -2.0985 -1.6815
  311MOL0     H41942  -1.504   2.778  10.310  0.2820 -0.7138  2.0032
  311MOL0     H41943  -1.684   2.940  10.328  2.6540 -2.1121 -1.1000
  311MOL0     H41944  -1.599   2.935  10.479  0.2217  0.0212 -1.2670
  311MOL0     H41945  -1.989   3.042  10.501 -0.1515 -1.7852  0.2762
  311MOL0     H41946  -2.317   3.042  10.368  0.4288  0.6888  0.4033
  311MOL0     H41947  -2.215   3.071  10.500  0.5200  1.6805 -0.5045
  311MOL0     H41948  -2.207   3.179  10.356  0.2250 -0.2817 -3.2270
  311MOL0     H41949  -2.513   2.896  10.157 -1.0831 -1.5051  1.1701
  311MOL0     H41950  -2.743   2.818  10.068 -0.1973  1.6288 -2.2327
  311MOL0     H41951  -2.682   2.433   9.944  0.0325 -0.0923 -0.0928
  311MOL0     H41952  -2.767   2.491  10.089  1.6469 -0.2515  0.0622
  311MOL0     H41953  -2.970   2.450   9.996 -0.8735 -0.0315  1.0044
  311MOL0     H41954  -2.915   2.413   9.829 -0.6136  1.0356  0.7614
  311MOL0     H41955  -2.923   2.240  10.069  0.5558 -1.1490 -0.2212
  311MOL0     H41956  -2.831   2.177   9.932 -1.9679 -2.6442 -0.2465
  311MOL0     H41957  -3.125   2.272   9.907 -0.3971  0.2585  0.0988
  311MOL0     H41958  -3.023   2.229   9.775 -1.5445  0.6798  0.0235
  311MOL0     H41959  -3.046   2.032  10.002 -2.2468 -1.0116  0.4061
  311MOL0     H41960  -2.982   2.017   9.839  2.0814  0.2889  2.6151
  311MOL0     H41961  -3.233   2.092   9.755 -0.2714  4.3498  3.2729
  311MOL0     H41962  -3.197   1.935   9.814 -0.8053 -0.9826  2.8003
  311MOL0     H41963  -3.319   2.178   9.960  5.3696  1.8906  3.4591
  311MOL0     H41964  -3.255   2.058  10.066 -2.8946  0.9286  0.9597
  311MOL0     H41965  -3.410   1.884   9.956 -0.7840 -0.4757  1.5273
  311MOL0     H41966  -3.476   2.015   9.864 -3.0685 -2.8739  1.3747
  311MOL0     H41967  -2.547   2.548   9.803 -0.3324  1.1833 -1.9379
  311MOL0     H41968  -2.322   2.643   9.864  1.9274  2.3349  2.0336
  311MOL0     H41969  -2.039   2.726  10.129  0.6652  1.9835 -0.7160
  311MOL0     H41970  -1.865   2.690  10.283 -1.0786 -1.2153 -0.6834
  311MOL0     H41971  -0.308   2.024  11.042 -1.6088  0.6468  0.8710
  311MOL0     H41972  -0.058   2.028  10.994  0.5352  0.1238 -4.1913
  311MOL0     H41973   0.361   2.012  10.789  0.5805 -0.7886 -0.3073
  311MOL0     H41974   0.604   2.038  10.803 -0.4508 -1.3543  0.1295
  311MOL0     H41975   0.746   2.389  11.034 -1.9294 -1.7494  0.5619
  311MOL0     H41976   0.782   2.264  11.153  0.2882 -0.8574  0.5821
  311MOL0     H41977   0.983   2.385  11.111 -1.3882  1.0689 -0.4314
  311MOL0     H41978   0.969   2.364  10.938  0.5200  1.4309  0.4792
  311MOL0     H41979   0.957   2.093  11.030 -2.3704  0.3619  3.6453
  311MOL0     H41980   1.047   2.160  11.162 -3.6172 -0.9674  0.4168
  311MOL0     H41981   1.209   2.251  10.983 -0.0250  0.0948 -0.5358
  311MOL0     H41982   1.123   2.150  10.873 -2.7258  3.3509  0.9043
  311MOL0     H41983   1.387   1.886  11.076 -0.3859  0.4879  1.7427
  311MOL0     H41984   0.550   2.328  11.125  0.3151 -0.4612  1.0962
  311MOL0     H41985   0.319   2.316  11.106  0.8657  0.8326  1.4476
  312MOL0     O41986   8.532   9.744   9.664  0.0586  0.0678 -0.2349
  312MOL0     C41987   8.554   9.630   9.644  1.0278  0.0066 -0.0598
  312MOL0     O41988   8.466   9.528   9.646 -0.0992  0.3615 -0.1325
  312MOL0     C41989   8.336   9.554   9.656 -0.2926 -0.4158 -0.4964
  312MOL0     C41990   8.285   9.521   9.781 -0.8390  0.1942  0.5196
  312MOL0     C41991   8.153   9.540   9.809 -0.4063  0.2488  0.1051
  312MOL0     C41992   8.069   9.594   9.709  0.0120 -1.2449  0.0612
  312MOL0     O41993   7.936   9.615   9.729  0.6519  0.0199  0.0081
  312MOL0     C41994   7.895   9.689   9.850  0.1073  0.3701 -0.3007
  312MOL0     C41995   7.743   9.695   9.876 -0.4912  0.0888  0.7997
  312MOL0     C41996   7.652   9.780   9.787 -1.4396 -0.7409 -0.6057
  312MOL0     C41997   7.671   9.930   9.820  0.7969 -0.0741  0.0959
  312MOL0     C41998   7.587  10.028   9.740 -0.1587 -1.1298  0.0459
  312MOL0     C41999   7.605  10.015   9.595  0.2726 -0.1609 -0.1573
  312MOL0     C42000   7.523  10.110   9.507  0.7368  0.6382  0.0413
  312MOL0     C42001   7.592  10.237   9.466  0.1730  0.1845 -0.8359
  312MOL0     N42002   7.694  10.239   9.366  0.2386  0.2578 -0.7596
  312MOL0     C42003   7.748  10.132   9.296 -0.9076  0.1011 -0.6472
  312MOL0     C42004   7.811  10.190   9.190 -0.8075  0.4262  0.0998
  312MOL0     C42005   7.886  10.117   9.085  1.5542  0.0889  0.2688
  312MOL0     C42006   7.791  10.020   9.010 -0.2916 -0.5279  0.2775
  312MOL0     C42007   7.662  10.071   8.936 -0.1699  0.2484  0.2315
  312MOL0     C42008   7.690  10.194   8.862 -0.3533 -0.4356 -0.4298
  312MOL0     O42009   7.582  10.247   8.781  0.0896  0.3439  1.2771
  312MOL0     C42010   7.488  10.330   8.832 -0.7288  0.4073 -0.6286
  312MOL0     C42011   7.387  10.369   8.750 -0.4725 -0.1103  0.6565
  312MOL0     C42012   7.291  10.464   8.780 -0.4457 -0.7490 -0.7700
  312MOL0     C42013   7.180  10.484   8.686 -0.3798  0.5438 -0.3365
  312MOL0     C42014   7.299  10.517   8.914 -0.8800  0.0767  0.6891
  312MOL0     C42015   7.194  10.609   8.967  0.1520  0.0924 -0.7304
  312MOL0     O42016   7.097  10.654   8.884 -0.6180 -0.4190  0.0782
  312MOL0     C42017   6.976  10.700   8.932  0.2757  0.2035 -0.0239
  312MOL0     C42018   6.931  10.805   8.858  0.3632 -0.1789 -0.4555
  312MOL0     C42019   6.802  10.863   8.901 -0.7744 -0.5907  0.2196
  312MOL0     C42020   6.738  10.826   9.021 -0.2587 -0.2856  0.0942
  312MOL0     O42021   6.622  10.880   9.064  0.4133  0.0414  0.1666
  312MOL0     C42022   6.587  11.024   9.047  0.0412 -0.6399  0.4433
  312MOL0     C42023   6.508  11.077   9.160 -0.1358  0.1020  0.2947
  312MOL0     C42024   6.364  11.029   9.146  0.6272  0.7670 -0.0009
  312MOL0     C42025   6.278  11.152   9.142  0.5467 -0.0554 -0.6020
  312MOL0     C42026   6.278  11.228   9.275  0.1124  0.5210 -0.5240
  312MOL0     C42027   6.188  11.345   9.264  0.3309 -0.7357 -0.4232
  312MOL0     C42028   6.124  11.385   9.402 -0.6346  0.9032  0.4763
  312MOL0     C42029   6.034  11.517   9.385  0.8073  0.7588 -0.1941
  312MOL0    Cl42030   5.915  11.540   9.522  0.7805  0.2602  0.5186
  312MOL0     C42031   6.798  10.730   9.093  0.3092 -0.7856  0.3266
  312MOL0     C42032   6.919  10.670   9.052 -0.4729  0.5873 -0.3377
  312MOL0     O42033   7.202  10.650   9.083 -0.8168  0.2634 -0.1979
  312MOL0     C42034   7.408  10.476   9.000  1.5224 -0.8102  0.2249
  312MOL0     C42035   7.500  10.380   8.965  0.5256  0.0746  1.6419
  312MOL0     N42036   7.790  10.326   9.189  0.4834  0.4044 -0.0496
  312MOL0     N42037   7.720  10.348   9.291 -0.0342  0.2263 -0.5676
  312MOL0     C42038   8.124   9.617   9.585  0.4971  0.0463  0.6772
  312MOL0     C42039   8.256   9.603   9.556  0.1768 -0.0818 -1.3599
  312MOL0     C42040   8.691   9.610   9.603 -0.2630  0.2147 -0.2823
  312MOL0     C42041   8.775   9.721   9.579 -0.0897 -0.1948  0.4501
  312MOL0     C42042   8.904   9.703   9.531 -0.1272  0.1309  0.2956
  312MOL0     C42043   8.962   9.579   9.520 -0.7143  0.0080 -0.1101
  312MOL0     O42044   9.096   9.572   9.478 -0.0727  0.4431 -0.2961
  312MOL0     C42045   9.141   9.442   9.462 -0.6072 -0.5567  0.1549
  312MOL0     C42046   9.181   9.371   9.589  0.7486  0.5627 -0.4257
  312MOL0     C42047   9.291   9.433   9.671 -0.4542 -0.4073  0.2995
  312MOL0     C42048   9.379   9.323   9.735 -0.1204 -0.0662 -0.4589
  312MOL0     C42049   9.514   9.369   9.779 -0.3713 -0.2215 -0.7022
  312MOL0     C42050   9.629   9.407   9.815  0.6085  0.4194 -0.3569
  312MOL0     C42051   8.881   9.466   9.549 -0.6278 -0.2818 -0.3911
  312MOL0     C42052   8.747   9.477   9.597  0.1666 -0.3818 -0.3000
  312MOL0     H42053   8.353   9.484   9.856 -1.0393 -1.2083  0.0325
  312MOL0     H42054   8.124   9.517   9.911  0.0423  2.4693  0.7952
  312MOL0     H42055   7.936   9.635   9.936  1.5906 -1.0369 -1.8099
  312MOL0     H42056   7.918   9.796   9.850 -1.8080  1.0675 -5.4520
  312MOL0     H42057   7.707   9.591   9.879  1.1058 -0.4772  1.4542
  312MOL0     H42058   7.744   9.738   9.976 -2.5684 -0.0844  0.9491
  312MOL0     H42059   7.674   9.766   9.681 -0.1879 -3.8466 -0.0573
  312MOL0     H42060   7.549   9.744   9.794 -0.8581 -3.1377 -2.8260
  312MOL0     H42061   7.656   9.937   9.928  0.2765 -1.7315  0.1641
  312MOL0     H42062   7.775   9.949   9.789 -0.3620  2.0029 -3.0157
  312MOL0     H42063   7.479  10.018   9.753 -0.2517 -0.7548 -0.3957
  312MOL0     H42064   7.619  10.130   9.763  0.8300 -1.1144 -1.3051
  312MOL0     H42065   7.711  10.010   9.566  0.6433  2.4093  0.5344
  312MOL0     H42066   7.559   9.917   9.577 -0.3248 -0.7091  3.5874
  312MOL0     H42067   7.490  10.062   9.414 -1.6224 -0.8302  1.5245
  312MOL0     H42068   7.430  10.130   9.561 -1.3620 -2.4562 -2.1206
  312MOL0     H42069   7.626  10.291   9.555 -3.7275  3.6743 -1.1504
  312MOL0     H42070   7.511  10.306   9.443 -0.8986 -0.2548  1.3522
  312MOL0     H42071   7.736  10.025   9.313 -0.2308 -0.5283 -3.4742
  312MOL0     H42072   7.935  10.188   9.017  0.4205  0.2027 -0.4591
  312MOL0     H42073   7.952  10.042   9.131  0.8588 -1.8077 -1.6673
  312MOL0     H42074   7.748   9.944   9.076  2.0842 -3.0277 -0.8324
  312MOL0     H42075   7.851   9.962   8.939  0.1780 -1.8730  1.7122
  312MOL0     H42076   7.581  10.086   9.008  0.7994 -1.3814  1.7385
  312MOL0     H42077   7.622   9.996   8.866 -2.3706  0.4581  1.1837
  312MOL0     H42078   7.761  10.183   8.779 -1.5748  1.2437 -1.7781
  312MOL0     H42079   7.741  10.268   8.924 -1.3328  2.0348 -2.4201
  312MOL0     H42080   7.389  10.318   8.655  1.6464  3.4770 -1.4406
  312MOL0     H42081   7.193  10.585   8.644 -1.4356  1.2257  0.8976
  312MOL0     H42082   7.183  10.410   8.606 -0.4465 -0.5141  0.6134
  312MOL0     H42083   7.082  10.477   8.733 -0.2926  1.4089  0.0040
  312MOL0     H42084   6.998  10.847   8.784 -1.1414  2.3306 -0.5308
  312MOL0     H42085   6.761  10.952   8.854 -1.3613 -1.8079 -1.6858
  312MOL0     H42086   6.681  11.079   9.053  0.3659 -1.0516 -0.5873
  312MOL0     H42087   6.526  11.048   8.959  0.5148 -0.6299  0.1163
  312MOL0     H42088   6.550  11.047   9.256  1.2580  3.9732  1.0677
  312MOL0     H42089   6.511  11.186   9.166 -0.0706  0.1692 -0.6963
  312MOL0     H42090   6.330  10.981   9.239 -0.7293  1.7881  0.0721
  312MOL0     H42091   6.339  10.952   9.073  0.2557  0.6426  0.2536
  312MOL0     H42092   6.317  11.216   9.062  1.3468 -0.1424 -0.2837
  312MOL0     H42093   6.174  11.121   9.126  0.4744  0.7132 -1.8075
  312MOL0     H42094   6.375  11.251   9.320 -0.1283 -0.2743  0.4298
  312MOL0     H42095   6.238  11.156   9.346  3.5523 -0.1473  0.9588
  312MOL0     H42096   6.234  11.432   9.217 -0.5920 -0.3660 -0.6662
  312MOL0     H42097   6.100  11.315   9.206  0.8122 -1.1382 -0.9602
  312MOL0     H42098   6.204  11.413   9.473 -0.2718  0.7849  0.1164
  312MOL0     H42099   6.055  11.306   9.432 -2.1825  1.0770 -2.3006
  312MOL0     H42100   5.970  11.507   9.297  0.5073  1.0963 -0.0162
  312MOL0     H42101   6.099  11.604   9.377 -0.9440  2.2257  0.8861
  312MOL0     H42102   6.747  10.684   9.177 -0.1860 -0.4125  0.2325
  312MOL0     H42103   6.949  10.583   9.109 -0.1863  1.8150  1.4594
  312MOL0     H42104   7.425  10.503   9.104 -0.6404 -1.6826  0.8611
  312MOL0     H42105   7.577  10.358   9.039  2.9288 -1.4982 -1.1282
  312MOL0     H42106   8.058   9.658   9.510  0.3857  0.8358  1.1912
  312MOL0     H42107   8.291   9.629   9.457 -1.1333 -0.6138 -1.9900
  312MOL0     H42108   8.747   9.826   9.574 -1.3326 -0.5478 -0.7645
  312MOL0     H42109   8.969   9.784   9.499  1.6969 -0.7074  1.6700
  312MOL0     H42110   9.078   9.384   9.394  1.2420  0.3962 -2.5045
  312MOL0     H42111   9.235   9.449   9.406 -1.3091 -2.0494 -1.3032
  312MOL0     H42112   9.202   9.265   9.569 -1.2956  0.1213 -0.4489
  312MOL0     H42113   9.092   9.379   9.651 -2.5278  0.5246 -4.6354
  312MOL0     H42114   9.239   9.497   9.743 -2.3721 -1.0212 -0.4875
  312MOL0     H42115   9.344   9.505   9.609 -0.7539 -1.7460 -1.5897
  312MOL0     H42116   9.394   9.247   9.658  1.1025  0.3216 -0.6258
  312MOL0     H42117   9.331   9.279   9.823  1.5092  0.0004  0.5046
  312MOL0     H42118   9.724   9.432   9.858  0.2435 -1.0845  1.4160
  312MOL0     H42119   8.914   9.365   9.530 -2.6481 -0.7402 -1.7635
  312MOL0     H42120   8.682   9.394   9.626 -0.6512 -0.5795 -2.4724
  313MOL0     O42121   4.430   3.456   8.611 -0.7282  0.1903 -0.5076
  313MOL0     C42122   4.474   3.431   8.726  0.0970  0.9635 -0.2421
  313MOL0     O42123   4.404   3.391   8.837  0.1472 -1.1684 -0.7537
  313MOL0     C42124   4.269   3.391   8.839 -0.3867  0.2105 -0.0191
  313MOL0     C42125   4.180   3.303   8.762 -1.0950 -1.2745 -0.2720
  313MOL0     C42126   4.046   3.309   8.790 -0.3124  0.1356  0.3829
  313MOL0     C42127   3.988   3.406   8.878  0.1382 -0.7895 -0.7796
  313MOL0     O42128   3.853   3.419   8.904  0.3513  0.4372 -0.0525
  313MOL0     C42129   3.771   3.320   8.841 -0.0064  0.0166  0.0070
  313MOL0     C42130   3.637   3.329   8.894  0.5119 -1.6087 -0.2259
  313MOL0     C42131   3.626   3.234   9.021  0.0758 -0.6758 -0.1014
  313MOL0     C42132   3.626   3.082   8.979  0.6824 -0.1832  0.5719
  313MOL0     C42133   3.576   2.979   9.078 -0.2719 -0.2562  0.4968
  313MOL0     C42134   3.439   3.011   9.125  0.4783  0.6720  0.4881
  313MOL0     C42135   3.427   2.923   9.248  0.0581  0.1624  0.0554
  313MOL0     C42136   3.305   2.953   9.330  0.2902 -0.4380 -0.7800
  313MOL0     N42137   3.341   3.032   9.456  0.7045  0.2555 -0.2300
  313MOL0     C42138   3.362   2.981   9.577  0.2809  0.1196  0.2293
  313MOL0     C42139   3.384   3.081   9.654  0.1041  0.0395 -0.8761
  313MOL0     C42140   3.421   3.073   9.797 -0.7462  0.3390 -0.2783
  313MOL0     C42141   3.292   3.077   9.877 -0.1714  0.9180  0.3742
  313MOL0     C42142   3.296   3.003  10.009 -0.1732 -0.5627  1.1544
  313MOL0     C42143   3.167   3.024  10.086  0.3304  0.1567 -0.1201
  313MOL0     O42144   3.180   3.023  10.231 -0.1288  0.9097 -0.6059
  313MOL0     C42145   3.060   2.979  10.300  0.4996  0.0426 -0.0346
  313MOL0     C42146   3.070   2.928  10.425 -0.9392  0.3201  0.0873
  313MOL0     C42147   2.961   2.903  10.511 -0.1973  1.0781  0.7030
  313MOL0     C42148   2.995   2.842  10.645  0.3912 -0.0816 -0.7005
  313MOL0     C42149   2.829   2.914  10.454 -0.3275  0.0504  0.1220
  313MOL0     C42150   2.701   2.888  10.525 -0.9299  0.2251  0.6493
  313MOL0     O42151   2.594   2.856  10.439 -0.4668 -1.2377  0.2753
  313MOL0     C42152   2.472   2.873  10.497  0.4779  0.5979 -0.0258
  313MOL0     C42153   2.414   2.776  10.563  0.9675 -0.3326  0.2519
  313MOL0     C42154   2.285   2.790  10.616  0.0983 -0.4214 -1.0454
  313MOL0     C42155   2.213   2.908  10.601  0.1750 -0.4750  0.2615
  313MOL0     O42156   2.100   2.939  10.668 -0.0652 -0.8015 -0.2488
  313MOL0     C42157   2.055   2.859  10.785 -0.2923 -0.1539 -0.6123
  313MOL0     C42158   1.951   2.751  10.735 -0.4757 -0.0438 -0.2262
  313MOL0     C42159   1.873   2.698  10.855  0.5791  0.6650  0.3477
  313MOL0     C42160   1.767   2.607  10.791  0.3134  0.6919  0.0672
  313MOL0     C42161   1.674   2.554  10.896  0.7831 -0.5479 -1.2820
  313MOL0     C42162   1.545   2.491  10.832 -0.1836 -0.2063 -0.7140
  313MOL0     C42163   1.462   2.418  10.929 -0.0477 -0.4241  0.1573
  313MOL0     C42164   1.400   2.520  11.029 -0.3982 -0.0828 -0.4059
  313MOL0    Cl42165   1.305   2.439  11.154 -0.0476 -0.0158 -0.1185
  313MOL0     C42166   2.277   3.014  10.530 -0.0956  0.8451  0.2499
  313MOL0     C42167   2.404   2.989  10.469  0.3929  0.4368 -1.3521
  313MOL0     O42168   2.700   2.868  10.642  0.0687 -0.0627 -0.6820
  313MOL0     C42169   2.814   2.964  10.326  0.1241 -0.5777  0.6439
  313MOL0     C42170   2.929   2.986  10.245 -0.6696  0.3856 -0.4450
  313MOL0     N42171   3.403   3.198   9.579  0.6138  0.0400  0.4793
  313MOL0     N42172   3.371   3.167   9.456 -0.2639  0.2632 -0.2599
  313MOL0     C42173   4.074   3.495   8.945 -0.2440  0.7999  0.7650
  313MOL0     C42174   4.208   3.478   8.931 -0.1945  0.0310  0.5113
  313MOL0     C42175   4.620   3.469   8.750 -0.2571  0.7353  0.2014
  313MOL0     C42176   4.704   3.474   8.646 -0.2461  0.9886  0.5526
  313MOL0     C42177   4.837   3.500   8.663 -0.9528 -0.5621 -0.5137
  313MOL0     C42178   4.892   3.516   8.796 -0.2370  1.1279 -0.3985
  313MOL0     O42179   5.021   3.546   8.802  0.2380  0.4006 -0.1273
  313MOL0     C42180   5.096   3.505   8.922  0.9201 -0.4515  0.6820
  313MOL0     C42181   5.239   3.536   8.889 -0.7528  0.2485  0.1811
  313MOL0     C42182   5.332   3.527   9.021 -0.4646  0.4908 -0.4600
  313MOL0     C42183   5.464   3.600   9.013 -0.0925  0.4167  0.4146
  313MOL0     C42184   5.547   3.535   8.909 -0.5031 -0.0194 -1.0283
  313MOL0     C42185   5.609   3.477   8.823 -0.0901 -0.5520  0.3226
  313MOL0     C42186   4.810   3.487   8.905  0.1122 -0.4369  1.3281
  313MOL0     C42187   4.676   3.471   8.880 -0.3655  0.7627  0.0765
  313MOL0     H42188   4.231   3.241   8.689  3.9068  2.9617 -1.0121
  313MOL0     H42189   3.985   3.227   8.752 -0.0079 -0.3967  1.0102
  313MOL0     H42190   3.762   3.338   8.733 -0.6647  2.2347  0.3709
  313MOL0     H42191   3.818   3.224   8.863  1.9028  0.5945 -1.2910
  313MOL0     H42192   3.612   3.435   8.901  0.7898 -1.5236 -0.5090
  313MOL0     H42193   3.561   3.292   8.824 -2.1425 -1.6280  2.4121
  313MOL0     H42194   3.714   3.239   9.085 -0.3362  1.0532  0.3714
  313MOL0     H42195   3.543   3.270   9.082  1.0492  1.0145  0.2798
  313MOL0     H42196   3.559   3.083   8.892 -3.1223  0.3911  3.2272
  313MOL0     H42197   3.728   3.050   8.960  0.0113 -2.6452  0.7278
  313MOL0     H42198   3.580   2.878   9.035  2.5987 -0.7698  1.7246
  313MOL0     H42199   3.647   2.980   9.162 -1.5084 -1.4720  1.6140
  313MOL0     H42200   3.427   3.111   9.167 -1.8773 -0.4749  2.7622
  313MOL0     H42201   3.363   3.002   9.047 -2.1189  1.1050  2.8163
  313MOL0     H42202   3.423   2.819   9.217  1.6229  0.5997 -1.7701
  313MOL0     H42203   3.511   2.944   9.315  0.3558  0.8315 -0.5083
  313MOL0     H42204   3.255   2.859   9.355  0.4208 -0.0744  0.9495
  313MOL0     H42205   3.237   3.017   9.273  3.7289  2.6079 -1.8678
  313MOL0     H42206   3.337   2.880   9.609 -2.3740  0.6302 -0.0665
  313MOL0     H42207   3.469   2.976   9.815 -3.1233 -0.8970 -0.1526
  313MOL0     H42208   3.486   3.157   9.822 -2.4752  2.4862 -2.4156
  313MOL0     H42209   3.222   3.029   9.809  1.3046 -1.0783  0.1709
  313MOL0     H42210   3.264   3.182   9.886 -0.0367  1.0986 -1.0232
  313MOL0     H42211   3.372   3.063  10.059  0.2669 -0.6879  0.6409
  313MOL0     H42212   3.321   2.898   9.989 -0.2911 -0.5005  0.6514
  313MOL0     H42213   3.100   2.943  10.055 -0.5226 -0.7235  3.5809
  313MOL0     H42214   3.126   3.124  10.073  2.8980  1.2469 -0.5597
  313MOL0     H42215   3.165   2.915  10.475  0.9860  1.0777 -3.1404
  313MOL0     H42216   2.927   2.767  10.686  1.0345 -0.8113 -0.9382
  313MOL0     H42217   3.080   2.775  10.630 -1.8313 -2.9766 -1.2413
  313MOL0     H42218   3.001   2.925  10.715 -1.0674  0.0604 -0.7199
  313MOL0     H42219   2.482   2.692  10.579  0.2274 -0.9637  0.1333
  313MOL0     H42220   2.237   2.713  10.676 -3.1436  0.4745 -2.2769
  313MOL0     H42221   2.139   2.823  10.845  0.2742  2.6712  0.4576
  313MOL0     H42222   2.001   2.929  10.850 -0.0302 -1.4675  1.1148
  313MOL0     H42223   1.883   2.799  10.664  1.2478 -0.7653 -2.4945
  313MOL0     H42224   1.997   2.666  10.684  1.3836 -0.5613  2.1814
  313MOL0     H42225   1.838   2.773  10.926  0.0814  0.3210  0.4740
  313MOL0     H42226   1.932   2.634  10.922 -2.2760  1.1835  3.6414
  313MOL0     H42227   1.710   2.648  10.706 -1.5840  1.8358  1.7989
  313MOL0     H42228   1.816   2.523  10.741 -0.5339  1.2712 -1.8411
  313MOL0     H42229   1.650   2.638  10.962  2.5659 -1.1050  0.1763
  313MOL0     H42230   1.729   2.477  10.952  4.1050  1.5806 -1.3673
  313MOL0     H42231   1.479   2.564  10.784  0.8611  0.0033 -1.8823
  313MOL0     H42232   1.579   2.417  10.760  1.3661  0.6858 -0.9547
  313MOL0     H42233   1.514   2.342  10.989 -3.0916 -0.7724  2.6098
  313MOL0     H42234   1.380   2.371  10.874  1.6531 -0.7525 -2.2470
  313MOL0     H42235   1.339   2.586  10.966  1.6007  1.4208 -0.8745
  313MOL0     H42236   1.466   2.583  11.089  1.3561 -1.6844 -0.5637
  313MOL0     H42237   2.235   3.114  10.525  2.0846  1.7651 -0.5803
  313MOL0     H42238   2.462   3.066  10.418  3.4039 -0.3421  0.6433
  313MOL0     H42239   2.717   2.977  10.279  1.9252  1.3553 -2.9611
  313MOL0     H42240   2.910   3.030  10.147 -2.3422 -0.4705 -0.5459
  313MOL0     H42241   4.042   3.569   9.018 -1.1462  1.3085 -0.1247
  313MOL0     H42242   4.262   3.544   8.998 -2.3537  2.8703 -0.3409
  313MOL0     H42243   4.658   3.471   8.547 -1.6980 -2.4441  1.2037
  313MOL0     H42244   4.914   3.503   8.587 -1.2949 -2.1369 -0.9603
  313MOL0     H42245   5.068   3.564   9.010 -0.0056  0.4839 -0.2031
  313MOL0     H42246   5.071   3.402   8.948  1.5186 -0.2471  2.1574
  313MOL0     H42247   5.245   3.634   8.841 -2.7346  2.1086  3.4285
  313MOL0     H42248   5.282   3.461   8.821 -1.4121  0.6513 -0.6847
  313MOL0     H42249   5.355   3.421   9.036  1.3330  0.9257  0.0424
  313MOL0     H42250   5.282   3.564   9.111  0.2776  2.1209 -0.6873
  313MOL0     H42251   5.513   3.583   9.109  4.0977  1.6619 -1.2906
  313MOL0     H42252   5.451   3.704   8.983  0.9375 -0.4778 -3.7861
  313MOL0     H42253   5.685   3.440   8.757 -0.4535  2.3920 -1.9933
  313MOL0     H42254   4.843   3.496   9.008  0.2545  0.1324  1.2359
  313MOL0     H42255   4.610   3.443   8.961  0.4901  0.0646  0.5470
  314MOL0     O42256   1.118   9.376   6.389  0.4129 -0.1618 -0.5854
  314MOL0     C42257   1.201   9.348   6.305  0.4259 -0.7215  0.4953
  314MOL0     O42258   1.170   9.314   6.179 -0.0153  0.2642  0.5914
  314MOL0     C42259   1.038   9.316   6.158 -0.2627 -0.3411 -0.5550
  314MOL0     C42260   0.986   9.424   6.084 -0.9780  0.5044 -0.4687
  314MOL0     C42261   0.852   9.428   6.059 -0.1620 -0.2669 -0.5206
  314MOL0     C42262   0.760   9.327   6.099  0.4807 -0.0255  0.1825
  314MOL0     O42263   0.625   9.341   6.055  0.0623  0.2401 -0.2776
  314MOL0     C42264   0.523   9.301   6.152 -0.6505 -0.4376 -0.1778
  314MOL0     C42265   0.385   9.376   6.134 -0.3631  0.2775 -0.0588
  314MOL0     C42266   0.291   9.311   6.235 -0.1920 -0.4913 -0.1578
  314MOL0     C42267   0.171   9.406   6.236 -0.5685  0.2413  0.1333
  314MOL0     C42268   0.067   9.364   6.336  0.2100  0.5492  0.1825
  314MOL0     C42269  -0.047   9.462   6.343  0.1296  0.4044  1.0034
  314MOL0     C42270  -0.167   9.391   6.407  0.2469  0.4607 -0.3837
  314MOL0     C42271  -0.141   9.368   6.564 -0.6546 -0.5922 -0.4566
  314MOL0     N42272  -0.121   9.491   6.638  0.2661 -0.2971 -0.4701
  314MOL0     C42273   0.005   9.555   6.649  0.0009 -0.1272 -0.3003
  314MOL0     C42274   0.009   9.629   6.766  0.5972  0.0368  0.5171
  314MOL0     C42275   0.135   9.687   6.835  1.3069 -0.6744  0.4214
  314MOL0     C42276   0.215   9.569   6.885  0.4265  0.0413 -0.5131
  314MOL0     C42277   0.327   9.620   6.972 -0.2763  0.3512 -0.2528
  314MOL0     C42278   0.429   9.526   7.031 -0.0084  0.1430  0.7111
  314MOL0     O42279   0.526   9.484   6.938  0.3622 -0.7662 -0.1755
  314MOL0     C42280   0.614   9.383   6.972 -0.0473 -0.1854 -0.6179
  314MOL0     C42281   0.728   9.368   6.893  0.4440 -0.2199  0.1848
  314MOL0     C42282   0.815   9.259   6.907  0.7201 -0.3603 -0.2360
  314MOL0     C42283   0.943   9.269   6.844 -0.1696  0.4011 -0.6993
  314MOL0     C42284   0.791   9.163   7.016 -0.2825  0.3263 -0.1435
  314MOL0     C42285   0.884   9.053   7.065 -0.2905  0.2440 -0.0187
  314MOL0     O42286   0.829   8.940   7.124 -0.1369  0.2262 -0.2911
  314MOL0     C42287   0.897   8.827   7.160 -0.0626 -0.3031  0.1036
  314MOL0     C42288   0.857   8.764   7.278 -1.3134 -0.6820 -0.2300
  314MOL0     C42289   0.931   8.665   7.343 -0.0761 -0.7786  0.1966
  314MOL0     C42290   1.051   8.623   7.284 -0.3285  0.0966 -0.5168
  314MOL0     O42291   1.119   8.529   7.351 -0.5144  0.8790  0.3075
  314MOL0     C42292   1.065   8.395   7.346 -0.0245 -0.6958 -0.5193
  314MOL0     C42293   1.173   8.290   7.365 -0.8899 -0.6546 -0.2145
  314MOL0     C42294   1.285   8.329   7.271 -0.3757 -0.3385  0.5781
  314MOL0     C42295   1.381   8.217   7.229  0.4047  0.4541 -0.4118
  314MOL0     C42296   1.457   8.121   7.333  0.0931  1.1386  0.4665
  314MOL0     C42297   1.512   7.987   7.269 -0.7071 -0.4969  0.3065
  314MOL0     C42298   1.623   8.018   7.167  0.0442  0.3252  0.1160
  314MOL0     C42299   1.659   7.884   7.093  1.1268 -0.0677 -0.0799
  314MOL0    Cl42300   1.792   7.908   6.984 -0.5645 -0.1796 -0.1056
  314MOL0     C42301   1.087   8.677   7.155  1.3006  0.0586  0.5410
  314MOL0     C42302   1.010   8.781   7.095 -0.1476  0.1042 -0.9335
  314MOL0     O42303   1.004   9.074   7.062  0.2138  0.1540  0.4554
  314MOL0     C42304   0.672   9.165   7.084  0.5608 -0.7483 -0.2958
  314MOL0     C42305   0.582   9.278   7.065 -0.7671 -1.0755  0.5422
  314MOL0     N42306  -0.120   9.612   6.816 -0.7148 -1.3542 -0.1553
  314MOL0     N42307  -0.201   9.536   6.741 -0.1075  0.1483 -0.0048
  314MOL0     C42308   0.812   9.218   6.172 -0.6820  0.5908  0.4054
  314MOL0     C42309   0.949   9.212   6.203 -0.6281  0.2308 -0.4185
  314MOL0     C42310   1.346   9.365   6.331 -0.4677  0.2200  0.2109
  314MOL0     C42311   1.390   9.410   6.454  0.7270  0.2521 -0.6969
  314MOL0     C42312   1.529   9.422   6.479 -0.0933  0.1927  0.5233
  314MOL0     C42313   1.623   9.388   6.379  0.2515 -0.0537  1.0361
  314MOL0     O42314   1.757   9.414   6.405  1.1624  0.4063 -0.6876
  314MOL0     C42315   1.852   9.345   6.325  0.6731  0.1739  0.1208
  314MOL0     C42316   1.881   9.193   6.355 -0.1812  0.0755 -0.2850
  314MOL0     C42317   1.945   9.181   6.497  0.5192  0.9989 -0.6044
  314MOL0     C42318   1.977   9.042   6.547 -0.3301 -0.3595 -0.2729
  314MOL0     C42319   2.003   9.052   6.690  0.0573  0.6086  1.2820
  314MOL0     C42320   2.022   9.053   6.804  0.1504  0.2399 -0.3582
  314MOL0     C42321   1.578   9.353   6.247 -0.3694  0.1078  0.0537
  314MOL0     C42322   1.442   9.338   6.230  0.0318  0.3662  0.8627
  314MOL0     H42323   1.066   9.486   6.044 -1.0443  1.9734  1.4906
  314MOL0     H42324   0.816   9.510   5.997  3.7208  0.5716 -1.9629
  314MOL0     H42325   0.508   9.195   6.128  3.2389 -1.0206 -0.5745
  314MOL0     H42326   0.553   9.305   6.257 -1.9975  0.6078  0.2042
  314MOL0     H42327   0.414   9.477   6.166  1.4907  0.0047 -0.7569
  314MOL0     H42328   0.352   9.377   6.030  0.8898 -0.4180 -0.4931
  314MOL0     H42329   0.257   9.216   6.193 -2.2810  0.1449 -0.0508
  314MOL0     H42330   0.339   9.310   6.333  0.9264 -1.4957 -0.6892
  314MOL0     H42331   0.190   9.514   6.246  1.3633  0.2376 -2.3689
  314MOL0     H42332   0.124   9.394   6.138 -0.3448  2.0121 -0.2437
  314MOL0     H42333   0.033   9.262   6.313  2.1052  0.1435 -1.0861
  314MOL0     H42334   0.122   9.375   6.430  0.1872 -0.3297  0.3114
  314MOL0     H42335  -0.022   9.553   6.398 -1.2609  0.3812  1.7315
  314MOL0     H42336  -0.069   9.496   6.242 -1.1795 -0.9849  0.7797
  314MOL0     H42337  -0.258   9.450   6.393 -1.7239 -1.6690  2.3319
  314MOL0     H42338  -0.194   9.298   6.356 -1.0329  1.1518 -1.0279
  314MOL0     H42339  -0.064   9.291   6.568 -0.0098  0.1021  1.5683
  314MOL0     H42340  -0.231   9.323   6.607  0.4710 -1.8556  0.6685
  314MOL0     H42341   0.092   9.527   6.591 -0.9246  0.0410 -1.8243
  314MOL0     H42342   0.182   9.745   6.755 -1.0584  1.0221  0.1293
  314MOL0     H42343   0.088   9.754   6.907  0.9524  1.6036 -1.7690
  314MOL0     H42344   0.257   9.511   6.803  0.2128 -2.1056  0.8364
  314MOL0     H42345   0.147   9.502   6.938  1.4154 -0.7308 -0.2007
  314MOL0     H42346   0.282   9.663   7.063 -0.9840 -1.2191  0.1678
  314MOL0     H42347   0.381   9.702   6.923 -0.6627  0.5575 -0.3346
  314MOL0     H42348   0.365   9.448   7.074  2.1806 -2.5474 -0.5977
  314MOL0     H42349   0.480   9.579   7.113 -1.8667  0.8259  1.4823
  314MOL0     H42350   0.754   9.437   6.813 -0.5772 -1.0829 -0.9320
  314MOL0     H42351   0.932   9.309   6.743  0.2872  0.1730 -0.8435
  314MOL0     H42352   1.018   9.332   6.895  0.4978  0.0381 -1.2104
  314MOL0     H42353   0.998   9.174   6.839  0.3165  0.7300 -1.9906
  314MOL0     H42354   0.764   8.803   7.319 -0.5517  1.7071 -0.6305
  314MOL0     H42355   0.885   8.628   7.434 -0.4074 -2.2309 -0.5361
  314MOL0     H42356   0.987   8.391   7.422 -0.8196 -1.0258 -1.3309
  314MOL0     H42357   1.014   8.388   7.249  0.5098  0.9073 -0.9572
  314MOL0     H42358   1.201   8.284   7.470 -1.9272  0.1697  0.1303
  314MOL0     H42359   1.128   8.195   7.337 -3.5887  0.1370  1.1026
  314MOL0     H42360   1.333   8.408   7.329  0.4967 -2.6952  3.3516
  314MOL0     H42361   1.238   8.360   7.178 -0.9410  2.4933  1.7079
  314MOL0     H42362   1.322   8.149   7.167  0.0231  0.3414  0.0670
  314MOL0     H42363   1.459   8.256   7.163 -2.1214  2.5897 -2.3552
  314MOL0     H42364   1.378   8.101   7.406 -1.8233  1.0846 -1.5212
  314MOL0     H42365   1.543   8.173   7.375  1.9472 -1.5941  0.2914
  314MOL0     H42366   1.553   7.926   7.350 -1.2676  1.7536  2.3784
  314MOL0     H42367   1.433   7.922   7.228 -1.4859 -0.0277  1.0478
  314MOL0     H42368   1.715   8.064   7.205  2.4006 -2.1636 -2.1144
  314MOL0     H42369   1.583   8.089   7.094  0.9698  0.6535 -0.0981
  314MOL0     H42370   1.575   7.854   7.030  2.4323  1.2520 -2.5734
  314MOL0     H42371   1.671   7.800   7.163  2.4916  1.3535  1.4798
  314MOL0     H42372   1.169   8.634   7.098 -0.0529 -0.0026 -1.5064
  314MOL0     H42373   1.036   8.827   7.000  0.1940  0.8863 -0.4771
  314MOL0     H42374   0.646   9.092   7.159  2.4670  0.4563  1.6295
  314MOL0     H42375   0.497   9.296   7.130 -0.8357  3.1243 -0.4423
  314MOL0     H42376   0.751   9.130   6.190  1.7064 -1.3644 -0.5450
  314MOL0     H42377   0.981   9.113   6.233  0.6171  0.6915 -0.1284
  314MOL0     H42378   1.330   9.446   6.538 -0.1116  0.1659 -1.2431
  314MOL0     H42379   1.554   9.454   6.579 -2.5477  0.1278  1.2386
  314MOL0     H42380   1.830   9.369   6.221 -1.8349  1.9908  1.0005
  314MOL0     H42381   1.946   9.398   6.343 -0.2391  1.6275  0.8115
  314MOL0     H42382   1.950   9.144   6.286 -1.2551 -1.9573  0.0076
  314MOL0     H42383   1.790   9.133   6.358 -1.3463  1.8004  0.4413
  314MOL0     H42384   1.870   9.233   6.557 -1.4916 -0.0294 -2.1054
  314MOL0     H42385   2.031   9.246   6.518  0.4665  0.8997 -0.0674
  314MOL0     H42386   2.070   9.023   6.492  0.0826  0.9686 -0.0781
  314MOL0     H42387   1.901   8.967   6.524 -2.7050  2.1943 -1.4191
  314MOL0     H42388   2.032   9.051   6.910 -2.6233 -0.8562 -0.0209
  314MOL0     H42389   1.642   9.319   6.165 -0.4059  1.8964 -0.7514
  314MOL0     H42390   1.412   9.297   6.134  1.5598  1.4747 -0.1262
  315MOL0     O42391  10.299  10.634   4.079  0.3055 -0.1797 -0.0576
  315MOL0     C42392  10.315  10.570   4.184 -0.5543  0.2461 -0.6871
  315MOL0     O42393  10.226  10.491   4.241 -0.7229  0.0772 -0.3568
  315MOL0     C42394  10.092  10.494   4.210 -0.0083 -0.5282 -0.2621
  315MOL0     C42395  10.023  10.609   4.166  0.3098 -0.1895 -0.5145
  315MOL0     C42396   9.880  10.609   4.148  0.0444 -0.2513 -0.0688
  315MOL0     C42397   9.808  10.497   4.185 -0.3199 -0.2342  0.7131
  315MOL0     O42398   9.672  10.515   4.167 -0.1765 -0.7651 -0.3203
  315MOL0     C42399   9.605  10.474   4.286  0.2181 -0.7403 -0.7004
  315MOL0     C42400   9.471  10.548   4.283  0.5837  0.3258 -0.3110
  315MOL0     C42401   9.418  10.574   4.425  0.6892 -0.8236 -0.1545
  315MOL0     C42402   9.276  10.628   4.426 -0.6913  0.6801 -0.0447
  315MOL0     C42403   9.236  10.676   4.562  0.6386 -0.4005 -0.2591
  315MOL0     C42404   9.101  10.754   4.586 -0.0234 -0.5226  0.6354
  315MOL0     C42405   9.050  10.742   4.724  0.1301 -0.0512 -0.0925
  315MOL0     C42406   8.932  10.839   4.758  0.8539  1.1250 -0.6153
  315MOL0     N42407   8.841  10.800   4.879  0.0148 -0.2999  0.4716
  315MOL0     C42408   8.859  10.690   4.961 -0.3912  0.0858  1.0070
  315MOL0     C42409   8.762  10.707   5.054  0.1753  0.1183  0.5363
  315MOL0     C42410   8.735  10.619   5.180 -1.0696 -0.9644  1.0156
  315MOL0     C42411   8.592  10.620   5.215  0.6884 -0.2356  0.5002
  315MOL0     C42412   8.565  10.545   5.349 -0.2658  1.4319 -0.1853
  315MOL0     C42413   8.418  10.533   5.386  0.1051  0.6119 -0.9974
  315MOL0     O42414   8.372  10.663   5.424 -0.5793  0.1475  0.1825
  315MOL0     C42415   8.242  10.677   5.464  0.2797  0.2641 -0.0717
  315MOL0     C42416   8.137  10.575   5.459 -0.2743 -0.2622 -0.2289
  315MOL0     C42417   8.014  10.596   5.528  0.4909 -0.0583  0.7097
  315MOL0     C42418   7.905  10.493   5.514  0.9245  0.1544  0.9363
  315MOL0     C42419   7.996  10.714   5.601 -0.1453  1.2022 -0.7295
  315MOL0     C42420   7.867  10.746   5.658 -0.0038  0.6574 -0.2546
  315MOL0     O42421   7.788  10.650   5.727 -0.7465  0.2502  0.2362
  315MOL0     C42422   7.667  10.689   5.775 -0.6530 -0.0831 -0.6417
  315MOL0     C42423   7.654  10.722   5.908  0.4413  0.4941  0.5190
  315MOL0     C42424   7.526  10.754   5.964 -0.6366 -0.2777  0.4790
  315MOL0     C42425   7.417  10.766   5.870  0.2585 -0.4106  0.1991
  315MOL0     O42426   7.287  10.783   5.907  1.0197  0.3778 -0.7312
  315MOL0     C42427   7.248  10.836   6.039  0.1906  0.0513 -0.2995
  315MOL0     C42428   7.283  10.984   6.050  0.5803 -0.1565 -0.5632
  315MOL0     C42429   7.275  11.050   6.186 -0.6061  0.2620 -0.3617
  315MOL0     C42430   7.399  11.005   6.275  0.1778 -0.6105  0.3433
  315MOL0     C42431   7.517  11.104   6.276 -0.0069 -0.2663 -0.2510
  315MOL0     C42432   7.639  11.035   6.344 -0.6215 -0.1150  0.5355
  315MOL0     C42433   7.712  10.928   6.260  0.1323 -0.5932  0.0781
  315MOL0     C42434   7.852  10.904   6.307 -0.4704  0.9763 -0.5064
  315MOL0    Cl42435   7.931  10.772   6.215  0.3809 -0.4135 -0.2428
  315MOL0     C42436   7.433  10.735   5.736  0.4854  0.0521 -0.1496
  315MOL0     C42437   7.560  10.696   5.696 -0.3488 -0.2531 -0.0701
  315MOL0     O42438   7.843  10.871   5.651 -0.3385  0.3208 -0.2059
  315MOL0     C42439   8.108  10.798   5.619  0.1388  0.9531  0.7804
  315MOL0     C42440   8.231  10.780   5.550 -0.5773 -0.1947 -0.6458
  315MOL0     N42441   8.690  10.823   5.025  1.4271 -0.8654 -0.6047
  315MOL0     N42442   8.744  10.881   4.923  0.4749 -0.3739 -0.1528
  315MOL0     C42443   9.867  10.378   4.223  0.0623  0.6097  0.4823
  315MOL0     C42444  10.006  10.378   4.240 -0.3933 -0.1762  1.0662
  315MOL0     C42445  10.442  10.578   4.252 -0.6663  0.3692 -0.2642
  315MOL0     C42446  10.547  10.654   4.200  0.1720 -0.2943 -0.3019
  315MOL0     C42447  10.661  10.668   4.284 -0.8248 -0.5622 -1.0466
  315MOL0     C42448  10.673  10.598   4.407 -0.0571  0.3140 -0.8109
  315MOL0     O42449  10.781  10.601   4.487 -0.1299  0.0116  0.1851
  315MOL0     C42450  10.913  10.632   4.432 -0.6843 -0.5693  0.7072
  315MOL0     C42451  11.024  10.566   4.524 -0.1157  1.0117  0.5646
  315MOL0     C42452  11.152  10.563   4.442 -0.0115  0.2646  0.7363
  315MOL0     C42453  11.266  10.513   4.535  0.0955  0.3508 -0.2013
  315MOL0     C42454  11.401  10.523   4.471 -0.2509 -0.5515  0.3847
  315MOL0     C42455  11.503  10.533   4.407 -0.6804 -0.6022 -0.0371
  315MOL0     C42456  10.570  10.512   4.452 -0.2985 -0.4898 -0.2236
  315MOL0     C42457  10.457  10.512   4.381  0.4939  0.8796  0.4127
  315MOL0     H42458  10.073  10.705   4.161 -0.0886 -0.0426 -3.7840
  315MOL0     H42459   9.825  10.697   4.118 -0.6596 -0.1343  1.4806
  315MOL0     H42460   9.596  10.366   4.299  3.3502 -0.9375  1.0302
  315MOL0     H42461   9.664  10.515   4.369  0.7998  1.9974 -2.3477
  315MOL0     H42462   9.484  10.642   4.228 -1.1284  1.2727  0.7882
  315MOL0     H42463   9.393  10.487   4.235  2.1166 -2.6402  0.7164
  315MOL0     H42464   9.432  10.489   4.492  1.7118  2.0374  3.6677
  315MOL0     H42465   9.484  10.645   4.477  1.6520 -1.8173  0.0033
  315MOL0     H42466   9.262  10.705   4.349  0.6822  0.2055 -0.7926
  315MOL0     H42467   9.213  10.541   4.407 -0.3049 -0.0572  1.8811
  315MOL0     H42468   9.229  10.591   4.632 -0.4641  1.1418  1.6350
  315MOL0     H42469   9.311  10.744   4.603 -0.4660  0.4368  0.4264
  315MOL0     H42470   9.111  10.861   4.564 -0.1981 -0.5389  0.4740
  315MOL0     H42471   9.028  10.732   4.507  1.6984  0.6887 -1.4128
  315MOL0     H42472   9.012  10.640   4.733  0.0562 -0.0163 -0.0044
  315MOL0     H42473   9.126  10.754   4.802 -1.3086  1.3034  1.1719
  315MOL0     H42474   8.870  10.845   4.668 -1.2880 -2.3751  0.4135
  315MOL0     H42475   8.970  10.939   4.781 -0.7833  1.5273  0.5775
  315MOL0     H42476   8.927  10.606   4.953 -0.8741 -0.1807 -0.7169
  315MOL0     H42477   8.771  10.519   5.153  0.5653 -0.4582  1.2504
  315MOL0     H42478   8.793  10.652   5.266  2.1126  0.1844 -1.3746
  315MOL0     H42479   8.532  10.586   5.130 -1.5022  1.1985  1.4037
  315MOL0     H42480   8.559  10.721   5.239  1.3302  0.3643 -1.0610
  315MOL0     H42481   8.619  10.603   5.425  1.4605  2.1613 -1.8907
  315MOL0     H42482   8.612  10.447   5.337 -1.1810  0.9531  0.0343
  315MOL0     H42483   8.415  10.472   5.477  1.0587  1.0904 -0.6376
  315MOL0     H42484   8.366  10.487   5.301 -1.7774  0.3221  0.2414
  315MOL0     H42485   8.154  10.479   5.411  1.8423 -1.3641  2.4146
  315MOL0     H42486   7.928  10.423   5.433 -0.9492  2.0623 -1.4124
  315MOL0     H42487   7.887  10.435   5.605 -1.2573  0.0260  0.4592
  315MOL0     H42488   7.803  10.530   5.502  0.9698  0.6808  2.0288
  315MOL0     H42489   7.735  10.709   5.980 -0.0370  0.6190  1.0911
  315MOL0     H42490   7.520  10.779   6.070  1.3383  2.0478  0.1228
  315MOL0     H42491   7.140  10.825   6.052 -0.4110  3.0817 -1.7679
  315MOL0     H42492   7.291  10.781   6.123 -0.2112 -0.7033 -0.5725
  315MOL0     H42493   7.390  10.991   6.025  0.7098 -2.3138 -0.7553
  315MOL0     H42494   7.224  11.048   5.983  1.8747  4.6080  2.3523
  315MOL0     H42495   7.179  11.019   6.228 -0.8418  3.8692  2.1660
  315MOL0     H42496   7.272  11.159   6.178  0.9190  0.6516  2.8531
  315MOL0     H42497   7.364  11.008   6.379 -0.9606 -0.5689 -0.0235
  315MOL0     H42498   7.427  10.901   6.253  0.4401 -0.3492 -0.5827
  315MOL0     H42499   7.492  11.196   6.330  0.9173  0.4292 -0.9836
  315MOL0     H42500   7.549  11.132   6.175  1.4978 -0.3546  0.1779
  315MOL0     H42501   7.707  11.117   6.368 -0.2275  0.0030 -0.8965
  315MOL0     H42502   7.606  10.989   6.438 -0.5381  3.5151  2.5504
  315MOL0     H42503   7.708  10.956   6.155 -2.9879  0.1764  0.3160
  315MOL0     H42504   7.645  10.842   6.264 -3.3566  1.8263 -1.6751
  315MOL0     H42505   7.866  10.876   6.412  3.8461  1.9119 -0.6618
  315MOL0     H42506   7.912  10.993   6.289 -0.1420  0.7487 -0.5407
  315MOL0     H42507   7.353  10.737   5.662  1.5044 -1.8620 -1.3780
  315MOL0     H42508   7.577  10.666   5.593  0.2422  0.0485 -0.0669
  315MOL0     H42509   8.094  10.885   5.682 -0.2834 -0.0231  2.0714
  315MOL0     H42510   8.310  10.854   5.555 -1.1152  0.5118 -1.9283
  315MOL0     H42511   9.795  10.305   4.258 -0.1798  1.6177  2.1888
  315MOL0     H42512  10.053  10.286   4.274  0.0016 -0.5026 -0.2944
  315MOL0     H42513  10.540  10.704   4.104  4.8578  2.2919  0.3949
  315MOL0     H42514  10.739  10.740   4.261 -1.0845  2.0034  4.4358
  315MOL0     H42515  10.920  10.585   4.334 -1.5155 -1.1972  0.9359
  315MOL0     H42516  10.939  10.738   4.431 -0.3242 -0.6584  0.4793
  315MOL0     H42517  10.988  10.469   4.557 -0.3048  1.2494  1.0668
  315MOL0     H42518  11.036  10.623   4.616  1.1010  1.5880  0.0820
  315MOL0     H42519  11.183  10.660   4.402  2.0506 -1.0854 -1.1888
  315MOL0     H42520  11.135  10.489   4.363 -2.5623 -0.6047  1.9936
  315MOL0     H42521  11.251  10.408   4.563  4.0710 -0.1743  0.6950
  315MOL0     H42522  11.270  10.570   4.628 -2.8610  0.9331 -0.3383
  315MOL0     H42523  11.599  10.538   4.359 -1.2987  0.8794 -1.2111
  315MOL0     H42524  10.571  10.467   4.551 -0.2313 -2.8334 -1.2165
  315MOL0     H42525  10.379  10.450   4.425  0.1814 -0.0103 -1.3122
  316MOL0     O42526  10.650   9.069   2.935 -0.3325 -0.5356 -0.1620
  316MOL0     C42527  10.687   8.965   2.890  0.1015 -0.1550  0.9564
  316MOL0     O42528  10.615   8.879   2.822 -0.7332  0.1515  0.2941
  316MOL0     C42529  10.484   8.909   2.793  0.3734  0.2290  0.0126
  316MOL0     C42530  10.376   8.906   2.892 -0.5972 -0.1407  0.8450
  316MOL0     C42531  10.250   8.945   2.845 -0.2456  0.6145 -0.1825
  316MOL0     C42532  10.227   8.983   2.713  0.2506 -0.4961  0.1620
  316MOL0     O42533  10.109   9.044   2.675 -0.0095  0.3100 -0.3545
  316MOL0     C42534  10.080   9.146   2.770  0.6197  0.0788  1.1417
  316MOL0     C42535   9.932   9.125   2.819 -0.1762  0.3328 -0.3380
  316MOL0     C42536   9.837   9.081   2.713  0.0845 -0.1025 -0.3257
  316MOL0     C42537   9.700   9.036   2.774  0.3953  0.0488  0.1930
  316MOL0     C42538   9.597   9.144   2.788 -0.9231 -1.1517  0.6891
  316MOL0     C42539   9.471   9.096   2.851  0.2854  0.0012  0.4496
  316MOL0     C42540   9.364   9.204   2.848  0.5188 -0.0271  0.0702
  316MOL0     C42541   9.222   9.146   2.868 -0.0642  0.2062  0.0482
  316MOL0     N42542   9.116   9.228   2.932 -0.2677  0.0414 -0.6502
  316MOL0     C42543   9.104   9.362   2.914 -0.3376 -0.1302 -0.3740
  316MOL0     C42544   8.997   9.411   2.979  0.4647  0.1361  0.3126
  316MOL0     C42545   8.939   9.548   2.968 -0.5336 -1.1226  0.0255
  316MOL0     C42546   8.825   9.556   2.870 -0.1131 -0.1142  0.2109
  316MOL0     C42547   8.773   9.701   2.854 -0.0103 -0.2464 -0.4876
  316MOL0     C42548   8.651   9.706   2.767  0.4403  0.7666  0.1780
  316MOL0     O42549   8.535   9.678   2.848 -0.8523  0.1819  0.4608
  316MOL0     C42550   8.412   9.705   2.801  0.5842 -0.3442  0.1526
  316MOL0     C42551   8.389   9.744   2.669  0.2207 -0.4317 -0.2243
  316MOL0     C42552   8.266   9.781   2.622 -0.2207  0.0656  0.1929
  316MOL0     C42553   8.258   9.833   2.482 -0.6257  0.3349  0.7214
  316MOL0     C42554   8.149   9.765   2.704 -0.7960  0.5065  0.1003
  316MOL0     C42555   8.006   9.782   2.652 -0.7793  0.1264 -0.4645
  316MOL0     O42556   7.919   9.757   2.750 -0.3259  0.3907  0.2965
  316MOL0     C42557   7.779   9.751   2.742 -1.0688 -0.0518 -0.1352
  316MOL0     C42558   7.709   9.838   2.665 -0.5600  0.5974  1.0186
  316MOL0     C42559   7.572   9.853   2.671  0.8871  0.1519 -0.0746
  316MOL0     C42560   7.498   9.765   2.757 -0.3745 -0.6469  0.3348
  316MOL0     O42561   7.362   9.764   2.775 -0.2947 -0.2185  0.4937
  316MOL0     C42562   7.279   9.854   2.700 -0.6448 -0.2521  0.0743
  316MOL0     C42563   7.138   9.853   2.765 -1.1905 -0.2068  0.3600
  316MOL0     C42564   7.037   9.951   2.706  0.3017  0.1724 -0.3550
  316MOL0     C42565   6.934   9.899   2.595 -0.3464  0.1945 -0.7753
  316MOL0     C42566   6.821  10.002   2.558 -0.0074  0.8247 -0.1005
  316MOL0     C42567   6.725   9.955   2.459 -0.4815  0.0467 -0.5437
  316MOL0     C42568   6.597  10.042   2.474 -0.8261 -0.2521 -0.4182
  316MOL0     C42569   6.521  10.062   2.338  0.3512 -0.4164 -0.7681
  316MOL0    Cl42570   6.369  10.165   2.360 -0.3971  0.2164 -0.4042
  316MOL0     C42571   7.570   9.681   2.842  0.2559  0.0792 -0.0068
  316MOL0     C42572   7.703   9.666   2.832  0.3472  0.2181  0.5156
  316MOL0     O42573   7.973   9.810   2.536 -0.0487  0.3719 -0.6684
  316MOL0     C42574   8.173   9.730   2.841  0.0742  0.4214 -0.5651
  316MOL0     C42575   8.301   9.698   2.883  0.0023  0.6889  0.0630
  316MOL0     N42576   8.950   9.297   3.043  0.0427 -0.4279  0.7582
  316MOL0     N42577   9.015   9.194   3.015 -0.0821  0.0164  0.0192
  316MOL0     C42578  10.319   8.971   2.620  0.0405  0.4921  0.7724
  316MOL0     C42579  10.451   8.929   2.653 -0.1499 -0.4611 -0.2482
  316MOL0     C42580  10.834   8.939   2.906  0.8247 -0.0401  0.7225
  316MOL0     C42581  10.902   8.855   2.819  0.0288  0.4366  0.5440
  316MOL0     C42582  11.044   8.850   2.819  0.5273  0.0730  0.7240
  316MOL0     C42583  11.118   8.917   2.915 -0.1523  0.4016 -1.0013
  316MOL0     O42584  11.250   8.906   2.899 -0.0730 -0.4792 -0.9889
  316MOL0     C42585  11.342   8.999   2.962  1.1998  0.0608  0.5086
  316MOL0     C42586  11.378   8.968   3.106  0.5507  0.0563  0.2085
  316MOL0     C42587  11.468   8.843   3.116 -0.4835  0.1740 -0.2692
  316MOL0     C42588  11.624   8.875   3.109  0.9420  0.0883  0.2806
  316MOL0     C42589  11.700   8.770   3.178  0.4681 -0.4176  0.4858
  316MOL0     C42590  11.779   8.688   3.219  0.2654  0.5624  0.0897
  316MOL0     C42591  11.049   8.998   3.011 -0.1613  0.8468  1.0122
  316MOL0     C42592  10.905   9.006   3.007  0.5089 -0.3221 -0.2131
  316MOL0     H42593  10.396   8.886   2.997 -1.3684 -3.4149  0.4750
  316MOL0     H42594  10.172   8.959   2.919  0.7819  1.0831  0.8287
  316MOL0     H42595  10.150   9.157   2.853  1.3065  0.1730  0.5541
  316MOL0     H42596  10.102   9.233   2.709  2.4630  0.0393  1.6902
  316MOL0     H42597   9.942   9.064   2.909  2.3095  0.2672 -0.5982
  316MOL0     H42598   9.894   9.221   2.854  3.8980  0.6308  4.2446
  316MOL0     H42599   9.822   9.158   2.636 -1.8915 -0.9187 -0.8303
  316MOL0     H42600   9.866   8.993   2.655  1.0798  0.6652 -1.0285
  316MOL0     H42601   9.640   8.963   2.718 -4.7013  1.7219  2.7994
  316MOL0     H42602   9.711   8.987   2.871 -1.6507  0.7892  0.8489
  316MOL0     H42603   9.647   9.218   2.851 -1.8750 -1.0154  1.2968
  316MOL0     H42604   9.579   9.187   2.689  0.7300  1.4218  1.3970
  316MOL0     H42605   9.441   9.004   2.799  0.9193 -0.6610  1.2268
  316MOL0     H42606   9.489   9.061   2.953  2.3984 -2.3969 -0.6421
  316MOL0     H42607   9.383   9.287   2.918  0.4866 -0.8787  1.1064
  316MOL0     H42608   9.366   9.247   2.747 -2.7401  0.4565  0.1082
  316MOL0     H42609   9.231   9.056   2.930 -2.5371 -1.2789 -1.5285
  316MOL0     H42610   9.191   9.109   2.770  4.3936 -1.2506 -1.0583
  316MOL0     H42611   9.157   9.414   2.835 -0.7846 -2.2364 -2.1412
  316MOL0     H42612   8.912   9.597   3.062 -4.8797  1.6301 -2.3607
  316MOL0     H42613   9.018   9.614   2.933  0.2046 -2.0213 -0.0579
  316MOL0     H42614   8.746   9.494   2.913  1.1205 -2.1683 -0.3051
  316MOL0     H42615   8.854   9.511   2.774  1.8387 -1.5449  1.3681
  316MOL0     H42616   8.843   9.763   2.798 -0.5315  0.8344  0.0098
  316MOL0     H42617   8.753   9.742   2.954 -0.6871  1.6996 -1.3773
  316MOL0     H42618   8.657   9.638   2.681  0.1174  1.6594 -0.5615
  316MOL0     H42619   8.643   9.801   2.713  1.6591 -0.7987 -3.0824
  316MOL0     H42620   8.466   9.759   2.594 -0.3954  1.3201 -0.5644
  316MOL0     H42621   8.200   9.772   2.412  1.7304 -0.9399 -0.2613
  316MOL0     H42622   8.224   9.936   2.476  1.7235  1.0593 -2.4827
  316MOL0     H42623   8.357   9.843   2.435 -1.8567  2.1512 -1.6529
  316MOL0     H42624   7.771   9.902   2.602 -2.8213  1.5441 -0.3960
  316MOL0     H42625   7.516   9.924   2.611 -0.1520 -0.1284  0.5449
  316MOL0     H42626   7.319   9.955   2.712  0.0737 -0.7333  2.0309
  316MOL0     H42627   7.270   9.834   2.593 -0.8527 -0.5149  0.1396
  316MOL0     H42628   7.086   9.756   2.766 -0.4106 -0.6812 -1.1001
  316MOL0     H42629   7.148   9.881   2.870 -0.4579  0.7074  0.0535
  316MOL0     H42630   7.103  10.023   2.657 -0.7358  0.4544 -1.3892
  316MOL0     H42631   6.981  10.002   2.785 -1.7710 -0.9697 -1.0146
  316MOL0     H42632   6.999   9.873   2.511 -0.6304 -0.1269 -0.8976
  316MOL0     H42633   6.892   9.806   2.634  0.3551 -0.7735 -2.2132
  316MOL0     H42634   6.870  10.095   2.528 -1.6786  1.8562  0.2472
  316MOL0     H42635   6.778  10.013   2.658 -0.5370  1.4569 -0.3947
  316MOL0     H42636   6.772   9.976   2.362  1.3127  0.5632  0.3917
  316MOL0     H42637   6.696   9.849   2.462  0.7109 -0.3845 -2.4124
  316MOL0     H42638   6.624  10.141   2.514  1.5173 -1.2064  0.5472
  316MOL0     H42639   6.526   9.988   2.537 -4.2452  1.1014 -2.8047
  316MOL0     H42640   6.503   9.969   2.284 -1.1249  0.6862 -2.2410
  316MOL0     H42641   6.586  10.119   2.271  0.1988  1.5540  0.6637
  316MOL0     H42642   7.510   9.623   2.911  1.8508 -1.6136  0.0364
  316MOL0     H42643   7.756   9.597   2.897 -2.7663 -0.3093  2.7224
  316MOL0     H42644   8.100   9.717   2.920  0.4939  2.3931  0.1970
  316MOL0     H42645   8.309   9.659   2.983  2.6748  2.6603  0.7131
  316MOL0     H42646  10.307   8.991   2.514 -1.8866  2.7371  1.3348
  316MOL0     H42647  10.534   8.912   2.586  1.9426 -0.3219  2.1589
  316MOL0     H42648  10.858   8.812   2.729  0.2828  1.5253 -0.1186
  316MOL0     H42649  11.097   8.809   2.734  0.0678 -0.3843  0.6517
  316MOL0     H42650  11.434   8.987   2.903  0.4529  0.4387 -0.7766
  316MOL0     H42651  11.305   9.102   2.955  2.6138  0.5407 -0.4615
  316MOL0     H42652  11.288   8.939   3.162  0.6208  0.9251  0.8025
  316MOL0     H42653  11.412   9.059   3.157  0.1728  0.0162  0.5409
  316MOL0     H42654  11.434   8.764   3.048  0.4044 -1.7636  1.4061
  316MOL0     H42655  11.446   8.797   3.213  0.0345  0.2868 -0.0984
  316MOL0     H42656  11.634   8.969   3.164  0.2683  1.2437 -1.4954
  316MOL0     H42657  11.665   8.874   3.008 -1.3091 -2.0904 -0.7098
  316MOL0     H42658  11.838   8.609   3.259  0.8557  1.1795  0.4619
  316MOL0     H42659  11.113   9.053   3.079  0.5515  2.3859 -0.8311
  316MOL0     H42660  10.856   9.067   3.082 -0.9963  3.0086 -3.5804
  317MOL0     O42661   6.511  10.650   8.507  0.7773 -0.4181 -0.5464
  317MOL0     C42662   6.532  10.531   8.533 -0.1607 -0.6822 -0.0247
  317MOL0     O42663   6.459  10.455   8.620 -1.3222 -0.3608  0.4888
  317MOL0     C42664   6.369  10.526   8.702 -0.0297 -0.3743  0.7059
  317MOL0     C42665   6.402  10.579   8.827  0.2200  0.7507 -0.2099
  317MOL0     C42666   6.299  10.644   8.904  0.3064 -0.3689  0.0844
  317MOL0     C42667   6.169  10.647   8.872 -0.1413  0.3607  0.5672
  317MOL0     O42668   6.077  10.696   8.957 -0.2442  0.1871 -0.2149
  317MOL0     C42669   5.935  10.688   8.931  1.2044 -0.6550  0.0516
  317MOL0     C42670   5.862  10.753   9.054  0.3035 -0.3488  0.3208
  317MOL0     C42671   5.884  10.903   9.082  0.0168 -0.5540 -0.0790
  317MOL0     C42672   5.807  10.935   9.210 -0.0211  0.4514 -0.1515
  317MOL0     C42673   5.812  11.085   9.241 -0.0583  0.5480 -0.7831
  317MOL0     C42674   5.703  11.113   9.348 -0.0894 -0.1087  0.4215
  317MOL0     C42675   5.695  11.265   9.376 -0.5470 -0.5586 -0.3402
  317MOL0     C42676   5.643  11.354   9.256  0.0197 -0.1549  0.3540
  317MOL0     N42677   5.534  11.311   9.180 -0.8467  0.1260 -0.2478
  317MOL0     C42678   5.402  11.305   9.224 -0.2368 -0.1038 -0.4203
  317MOL0     C42679   5.338  11.273   9.115 -0.3366  0.2859  0.3302
  317MOL0     C42680   5.192  11.276   9.118 -0.1339  0.5342 -0.4727
  317MOL0     C42681   5.133  11.212   8.997  0.7612 -0.3901  0.3241
  317MOL0     C42682   4.982  11.247   8.969 -0.5834 -0.2933 -0.8949
  317MOL0     C42683   4.938  11.389   8.989  1.3782 -0.5963  0.6080
  317MOL0     O42684   4.814  11.424   8.911  0.0953  0.4960 -0.3283
  317MOL0     C42685   4.699  11.355   8.926  0.2559  0.7949  0.4898
  317MOL0     C42686   4.681  11.269   9.032  0.2903 -1.3522 -0.2035
  317MOL0     C42687   4.574  11.179   9.041 -0.1902 -0.3757 -0.5677
  317MOL0     C42688   4.575  11.093   9.165  0.3639  0.1282  0.0004
  317MOL0     C42689   4.474  11.194   8.945 -0.3248 -0.5068 -0.1836
  317MOL0     C42690   4.343  11.115   8.941  0.0454 -0.5692 -0.9093
  317MOL0     O42691   4.246  11.163   8.861  0.3252  0.2553 -0.0607
  317MOL0     C42692   4.140  11.085   8.812 -0.4804 -0.4548 -0.1407
  317MOL0     C42693   4.150  10.951   8.774  0.1134 -0.3186 -0.8516
  317MOL0     C42694   4.037  10.893   8.725 -0.1217 -0.5498 -0.3693
  317MOL0     C42695   3.911  10.956   8.719 -0.7372 -0.6153  0.1410
  317MOL0     O42696   3.797  10.890   8.679  0.3791 -0.7572 -0.7052
  317MOL0     C42697   3.805  10.767   8.617  0.0310  0.0633  0.0672
  317MOL0     C42698   3.667  10.742   8.560  0.2496  0.1648  0.3767
  317MOL0     C42699   3.678  10.607   8.485  0.1094  0.5408  0.5667
  317MOL0     C42700   3.547  10.542   8.434 -0.3662 -0.0849 -0.0235
  317MOL0     C42701   3.447  10.502   8.540  0.5052  0.7364 -0.6763
  317MOL0     C42702   3.309  10.463   8.487 -0.0059  0.2334 -0.2583
  317MOL0     C42703   3.319  10.338   8.386  0.0559  0.5087 -0.5829
  317MOL0     C42704   3.175  10.271   8.367 -0.4486 -0.7960 -0.7445
  317MOL0    Cl42705   3.060  10.385   8.291  0.1770  0.0009 -0.1220
  317MOL0     C42706   3.914  11.097   8.751  0.3583 -0.6187 -0.0775
  317MOL0     C42707   4.036  11.168   8.783  0.3192  0.1739  1.5196
  317MOL0     O42708   4.337  11.017   9.010  0.2118 -0.3638  0.7601
  317MOL0     C42709   4.483  11.289   8.836 -0.4377 -0.3798  0.3023
  317MOL0     C42710   4.598  11.364   8.828  0.3860  0.0290 -0.2230
  317MOL0     N42711   5.420  11.262   9.006  0.6452 -0.6515  0.4670
  317MOL0     N42712   5.533  11.289   9.047 -0.8084 -0.0082  0.5790
  317MOL0     C42713   6.139  10.598   8.740 -0.7278  0.9053 -1.3000
  317MOL0     C42714   6.242  10.541   8.663 -0.3001 -0.2842 -0.0006
  317MOL0     C42715   6.651  10.482   8.461 -0.1499  0.1098 -0.2323
  317MOL0     C42716   6.740  10.571   8.395 -0.4493  0.0864 -0.6350
  317MOL0     C42717   6.834  10.531   8.299 -0.4001  0.4230 -0.2362
  317MOL0     C42718   6.863  10.396   8.295 -0.7550 -0.6379 -1.1159
  317MOL0     O42719   6.969  10.336   8.227 -0.2070  0.5393  0.3073
  317MOL0     C42720   7.070  10.424   8.174  0.4532 -0.0574 -0.3390
  317MOL0     C42721   7.163  10.493   8.278  0.6374 -0.1938  0.3838
  317MOL0     C42722   7.256  10.391   8.358 -0.0164 -0.6621 -0.5328
  317MOL0     C42723   7.350  10.306   8.268  0.4355 -0.2258 -0.0612
  317MOL0     C42724   7.446  10.240   8.354 -0.5487  0.3751 -0.3415
  317MOL0     C42725   7.531  10.194   8.426 -0.4543  0.4092 -0.2384
  317MOL0     C42726   6.792  10.310   8.372  0.2990 -0.8565  0.3723
  317MOL0     C42727   6.675  10.346   8.445 -0.0989  1.0723  0.1302
  317MOL0     H42728   6.507  10.581   8.854  1.0750 -3.8163 -2.3484
  317MOL0     H42729   6.335  10.685   8.998 -1.0602 -0.3476  0.6070
  317MOL0     H42730   5.917  10.752   8.845  3.0666 -0.6589 -0.3932
  317MOL0     H42731   5.905  10.585   8.910  2.2554 -1.0151  0.2068
  317MOL0     H42732   5.755  10.742   9.034 -0.4619 -0.6681  3.8658
  317MOL0     H42733   5.876  10.699   9.148 -0.5253 -0.8104  0.1897
  317MOL0     H42734   5.990  10.926   9.084 -0.3652  1.9084 -2.8257
  317MOL0     H42735   5.842  10.957   8.997  3.1893 -1.9976 -2.7709
  317MOL0     H42736   5.705  10.904   9.187  0.0531 -1.5560  1.8691
  317MOL0     H42737   5.848  10.878   9.294  1.6655  0.9758 -0.5859
  317MOL0     H42738   5.911  11.122   9.270  0.5055 -1.2901 -0.2305
  317MOL0     H42739   5.779  11.143   9.155 -1.0695  3.5042  1.4503
  317MOL0     H42740   5.606  11.086   9.307  0.7091 -0.1118 -1.6136
  317MOL0     H42741   5.717  11.056   9.440  1.0023 -0.3174  0.1524
  317MOL0     H42742   5.627  11.285   9.459 -1.2055  1.4026 -1.2914
  317MOL0     H42743   5.795  11.302   9.399  0.4659 -1.5676 -2.6872
  317MOL0     H42744   5.730  11.356   9.189  0.5823  0.0201  1.0726
  317MOL0     H42745   5.609  11.451   9.293 -0.9504 -0.4204  0.1721
  317MOL0     H42746   5.362  11.324   9.324  2.8991  1.2988  0.7222
  317MOL0     H42747   5.163  11.211   9.202 -1.2485 -0.4668 -1.5897
  317MOL0     H42748   5.162  11.380   9.132 -1.3529 -0.1476  3.1339
  317MOL0     H42749   5.144  11.105   9.014 -1.1144 -0.6131  0.3734
  317MOL0     H42750   5.185  11.237   8.904  1.1009 -1.0595  0.3335
  317MOL0     H42751   4.945  11.183   9.050  2.5959  0.3251  1.2057
  317MOL0     H42752   4.948  11.206   8.873 -1.0637 -1.1729 -0.3664
  317MOL0     H42753   5.019  11.454   8.954 -1.3200  1.3419 -2.6053
  317MOL0     H42754   4.933  11.408   9.097  0.3351 -3.7366  1.1980
  317MOL0     H42755   4.763  11.270   9.103  0.4298  1.7280 -0.2903
  317MOL0     H42756   4.542  10.991   9.142  0.8924  0.4561 -2.3867
  317MOL0     H42757   4.673  11.079   9.211  0.6778  1.1291 -0.3553
  317MOL0     H42758   4.517  11.138   9.247  2.7815  1.0105  1.3435
  317MOL0     H42759   4.236  10.887   8.794  0.4858  0.9040  1.8892
  317MOL0     H42760   4.049  10.787   8.706  4.1547 -0.1894 -0.6065
  317MOL0     H42761   3.865  10.772   8.526  0.8669  2.7034  0.6675
  317MOL0     H42762   3.853  10.687   8.674  0.5346 -1.0229 -1.8157
  317MOL0     H42763   3.591  10.728   8.638 -0.9059 -0.8580 -0.8872
  317MOL0     H42764   3.643  10.819   8.485  0.8787 -0.1670 -0.1747
  317MOL0     H42765   3.723  10.530   8.546  1.8386 -0.0036 -1.2877
  317MOL0     H42766   3.746  10.621   8.400 -0.0566 -1.0202  0.1539
  317MOL0     H42767   3.500  10.608   8.361 -1.5894 -1.8721 -0.9214
  317MOL0     H42768   3.569  10.452   8.376  0.1274  0.7033 -1.0833
  317MOL0     H42769   3.438  10.591   8.602  1.1094  0.7174 -0.5656
  317MOL0     H42770   3.472  10.420   8.608 -2.7397  3.4025  4.3573
  317MOL0     H42771   3.256  10.429   8.577 -0.4932  0.1760 -0.5613
  317MOL0     H42772   3.254  10.547   8.442  0.1430  0.8490  0.6757
  317MOL0     H42773   3.383  10.271   8.445 -0.4699  1.3427  1.0006
  317MOL0     H42774   3.360  10.374   8.291  6.1806 -2.7691  0.2801
  317MOL0     H42775   3.146  10.251   8.471  3.9953 -0.8658  0.7225
  317MOL0     H42776   3.197  10.179   8.311  3.6140 -0.4827 -0.0343
  317MOL0     H42777   3.832  11.166   8.731  2.1024  1.2702 -1.0217
  317MOL0     H42778   4.036  11.276   8.782  1.3976  0.3445 -3.1928
  317MOL0     H42779   4.415  11.302   8.752  0.7746  1.7000 -0.4578
  317MOL0     H42780   4.610  11.438   8.750 -1.5616  1.6767  0.9327
  317MOL0     H42781   6.036  10.597   8.705 -0.3675  1.7550 -2.4414
  317MOL0     H42782   6.214  10.497   8.568 -0.9037 -0.8221  0.4138
  317MOL0     H42783   6.715  10.676   8.394 -3.6785 -0.5804  0.1965
  317MOL0     H42784   6.896  10.605   8.248  2.8072 -1.6352  0.3670
  317MOL0     H42785   7.119  10.351   8.108 -0.8652 -0.1653 -1.2265
  317MOL0     H42786   7.036  10.505   8.109  0.5970  1.6858  1.6630
  317MOL0     H42787   7.091  10.539   8.347 -3.0125 -1.5687 -2.1985
  317MOL0     H42788   7.219  10.575   8.232  0.2848  0.9056  1.8455
  317MOL0     H42789   7.184  10.319   8.397  0.0235 -2.7321 -3.8460
  317MOL0     H42790   7.306  10.450   8.436 -3.3229 -0.4594  1.6039
  317MOL0     H42791   7.408  10.378   8.209 -0.3381  2.3928  2.1725
  317MOL0     H42792   7.288  10.238   8.208 -2.9011  2.6140 -0.1381
  317MOL0     H42793   7.604  10.170   8.501 -1.6976 -2.1051  0.2829
  317MOL0     H42794   6.823  10.206   8.379  2.7074 -0.2290  0.0217
  317MOL0     H42795   6.601  10.281   8.492  0.1053  0.6392 -0.1459
  318MOL0     O42796   2.211   6.345   4.562  0.1652  0.3656  0.1343
  318MOL0     C42797   2.188   6.460   4.595 -0.6824 -0.4845  0.0343
  318MOL0     O42798   2.077   6.533   4.575 -0.0508  0.1731 -0.1481
  318MOL0     C42799   1.957   6.480   4.554 -0.5788  0.1560  0.2734
  318MOL0     C42800   1.875   6.548   4.464  0.2048 -0.1237 -0.3233
  318MOL0     C42801   1.740   6.509   4.440 -0.7178 -0.0422 -0.1038
  318MOL0     C42802   1.687   6.396   4.504 -1.0888  0.3713  0.0939
  318MOL0     O42803   1.553   6.364   4.489  0.3606 -0.1231  0.1756
  318MOL0     C42804   1.494   6.257   4.573  0.0482 -0.4735  1.0660
  318MOL0     C42805   1.347   6.255   4.521  0.3016 -0.1727 -0.2402
  318MOL0     C42806   1.275   6.127   4.575  0.2539  0.4335 -0.0581
  318MOL0     C42807   1.139   6.120   4.516 -0.6057  0.3277  0.3565
  318MOL0     C42808   1.072   5.979   4.535 -0.2976 -0.0130 -0.4216
  318MOL0     C42809   0.931   5.972   4.491 -0.0557 -0.2294  0.1892
  318MOL0     C42810   0.851   5.843   4.528 -0.5147  0.1475 -0.1122
  318MOL0     C42811   0.700   5.884   4.530 -0.8301  0.4071 -0.2771
  318MOL0     N42812   0.613   5.768   4.579 -0.8347  0.3961  0.1030
  318MOL0     C42813   0.579   5.747   4.709  0.0288 -0.1597 -0.1146
  318MOL0     C42814   0.474   5.661   4.703  0.0832 -0.0574 -0.5515
  318MOL0     C42815   0.394   5.609   4.823  0.7946  1.3626  0.6173
  318MOL0     C42816   0.256   5.679   4.841 -0.6355  0.0720  0.0685
  318MOL0     C42817   0.274   5.826   4.862 -0.3792  0.4069 -1.0633
  318MOL0     C42818   0.142   5.867   4.919 -0.0301  0.7086  0.1545
  318MOL0     O42819   0.155   6.015   4.914  0.0035  0.0209 -0.3961
  318MOL0     C42820   0.053   6.083   4.967  0.1563 -0.3377 -0.2380
  318MOL0     C42821   0.091   6.207   5.012 -0.4781 -0.3487 -0.2287
  318MOL0     C42822   0.003   6.292   5.069 -0.4652 -0.6499  0.1707
  318MOL0     C42823   0.064   6.414   5.135  0.0004 -0.4612  0.4191
  318MOL0     C42824  -0.130   6.249   5.094 -0.4994 -0.3199  0.3578
  318MOL0     C42825  -0.231   6.335   5.162 -0.2089 -0.6551 -0.1463
  318MOL0     O42826  -0.338   6.275   5.214 -0.7323 -0.4383 -0.3873
  318MOL0     C42827  -0.445   6.350   5.244  0.2006 -0.4532 -0.2606
  318MOL0     C42828  -0.478   6.397   5.364  0.6594 -0.7123  0.0765
  318MOL0     C42829  -0.601   6.468   5.378 -0.2808 -1.2732  0.6352
  318MOL0     C42830  -0.681   6.497   5.270  0.1717  0.2685  0.1371
  318MOL0     O42831  -0.805   6.553   5.272 -0.4676 -0.1808  0.2267
  318MOL0     C42832  -0.863   6.557   5.404  0.7009  0.0534 -0.2711
  318MOL0     C42833  -1.015   6.531   5.409  0.6456  0.2873  0.4856
  318MOL0     C42834  -1.060   6.408   5.342  1.0744 -0.0848 -0.3909
  318MOL0     C42835  -1.209   6.380   5.380 -0.5974 -0.8691  0.6321
  318MOL0     C42836  -1.269   6.252   5.313 -0.4317 -0.0656 -0.6970
  318MOL0     C42837  -1.420   6.248   5.362 -0.3095 -0.0516 -0.3148
  318MOL0     C42838  -1.491   6.121   5.326  0.2187  0.5208  0.3418
  318MOL0     C42839  -1.623   6.106   5.388 -0.2343  1.7686 -0.4585
  318MOL0    Cl42840  -1.752   6.226   5.353  0.3347  0.1526  0.0047
  318MOL0     C42841  -0.639   6.450   5.148  0.3846  0.4835 -0.0851
  318MOL0     C42842  -0.521   6.375   5.139 -0.4698 -0.9327 -0.5389
  318MOL0     O42843  -0.213   6.459   5.166 -0.6569 -0.2260 -0.5346
  318MOL0     C42844  -0.172   6.120   5.059 -1.4021  0.1485  0.1125
  318MOL0     C42845  -0.081   6.039   4.998 -0.5029 -0.1800 -0.4137
  318MOL0     N42846   0.443   5.629   4.572 -0.3992  0.2660 -0.3495
  318MOL0     N42847   0.537   5.684   4.499  0.8560 -0.5260 -0.5846
  318MOL0     C42848   1.777   6.321   4.590 -0.3175 -0.0882 -1.4413
  318MOL0     C42849   1.909   6.364   4.619 -0.5867  0.6707 -0.3043
  318MOL0     C42850   2.301   6.528   4.664  0.8146  0.0312 -0.4391
  318MOL0     C42851   2.429   6.479   4.665  0.3239  0.1250 -0.5095
  318MOL0     C42852   2.534   6.559   4.719  0.1689  0.2690  0.7679
  318MOL0     C42853   2.511   6.683   4.771 -1.0937 -0.1792  0.4013
  318MOL0     O42854   2.620   6.751   4.819  0.2068 -0.6877  0.4324
  318MOL0     C42855   2.657   6.867   4.748  0.1706  0.1057  0.2993
  318MOL0     C42856   2.806   6.888   4.802 -0.1871 -0.7102 -0.2401
  318MOL0     C42857   2.794   6.905   4.961  0.9036 -0.2503  0.3232
  318MOL0     C42858   2.936   6.935   5.029  0.0047 -0.0255  0.2372
  318MOL0     C42859   2.980   7.066   4.990 -0.0543 -0.4045 -0.0892
  318MOL0     C42860   3.024   7.176   4.969 -0.4742 -0.5633  0.7663
  318MOL0     C42861   2.380   6.735   4.761  0.2410  0.8448 -0.5634
  318MOL0     C42862   2.274   6.655   4.716 -0.4149 -0.0024  1.1225
  318MOL0     H42863   1.911   6.620   4.390 -0.7548 -0.2089 -0.8953
  318MOL0     H42864   1.692   6.548   4.351  2.2554 -1.0920 -2.3298
  318MOL0     H42865   1.541   6.162   4.549 -2.8270 -1.8429  0.5042
  318MOL0     H42866   1.505   6.275   4.680 -1.8703  1.0247  1.0552
  318MOL0     H42867   1.285   6.334   4.564  1.6955  0.2030  1.1524
  318MOL0     H42868   1.351   6.268   4.412 -2.6935  0.9661 -0.3214
  318MOL0     H42869   1.331   6.037   4.548 -0.0138  0.4700 -0.7518
  318MOL0     H42870   1.278   6.123   4.684 -1.7580 -0.0545  0.0309
  318MOL0     H42871   1.076   6.198   4.559 -0.8416  1.1055 -1.3279
  318MOL0     H42872   1.143   6.153   4.412  0.1557  0.3264  0.3804
  318MOL0     H42873   1.129   5.911   4.472 -0.5887  2.0003 -3.0075
  318MOL0     H42874   1.086   5.939   4.636  3.4292 -1.3386 -1.3141
  318MOL0     H42875   0.896   6.065   4.536  1.8659  1.4830 -1.5961
  318MOL0     H42876   0.926   5.994   4.384 -0.4116  2.0333  0.6232
  318MOL0     H42877   0.873   5.765   4.455  1.2967 -0.6989  1.2438
  318MOL0     H42878   0.877   5.791   4.620 -0.4743 -3.6779 -2.0630
  318MOL0     H42879   0.664   5.918   4.432 -1.3019 -1.9278 -0.9647
  318MOL0     H42880   0.681   5.962   4.604 -0.3916 -0.7446  1.0960
  318MOL0     H42881   0.630   5.790   4.794  0.4417  0.2928 -0.5877
  318MOL0     H42882   0.366   5.504   4.817 -2.1533  1.9564  2.1705
  318MOL0     H42883   0.458   5.623   4.911  1.3768  1.8309  0.1262
  318MOL0     H42884   0.209   5.644   4.933 -0.9498  3.1092  1.1767
  318MOL0     H42885   0.202   5.658   4.748  0.2187  0.0868 -0.4429
  318MOL0     H42886   0.289   5.878   4.767  0.6488  0.2378 -0.9964
  318MOL0     H42887   0.358   5.840   4.931 -0.8183  0.9411 -0.6289
  318MOL0     H42888   0.124   5.826   5.019  1.2186 -2.3414 -0.7510
  318MOL0     H42889   0.059   5.849   4.850  0.7616  2.4098 -1.3129
  318MOL0     H42890   0.190   6.241   4.981 -0.0083 -0.0254  1.5237
  318MOL0     H42891   0.012   6.500   5.092  0.9587 -0.5960 -1.0891
  318MOL0     H42892   0.049   6.416   5.244 -0.2925  1.9993  0.3862
  318MOL0     H42893   0.171   6.418   5.115  0.2784 -3.9493  0.6624
  318MOL0     H42894  -0.409   6.379   5.445  0.6350  1.2169  0.5739
  318MOL0     H42895  -0.603   6.517   5.475  1.1415  1.8110 -0.7496
  318MOL0     H42896  -0.815   6.487   5.473  2.1152  3.4713  2.5406
  318MOL0     H42897  -0.838   6.653   5.450  1.3824 -0.8087  1.1901
  318MOL0     H42898  -1.053   6.539   5.511  1.1495 -0.2125  0.7124
  318MOL0     H42899  -1.043   6.614   5.342  1.3736 -0.2699 -0.5410
  318MOL0     H42900  -0.997   6.320   5.364  4.7149  2.6318  1.1220
  318MOL0     H42901  -1.055   6.413   5.233  0.4973  0.8235 -0.3824
  318MOL0     H42902  -1.224   6.366   5.487  0.9528  0.2554  1.0238
  318MOL0     H42903  -1.265   6.468   5.347  2.1815 -0.6278 -4.6150
  318MOL0     H42904  -1.219   6.155   5.324  1.8625  0.9064 -2.0320
  318MOL0     H42905  -1.254   6.263   5.206  0.5668 -0.6577 -0.6276
  318MOL0     H42906  -1.418   6.234   5.470 -1.1136  1.1751 -0.1177
  318MOL0     H42907  -1.467   6.340   5.326  0.8529  1.4659  1.8651
  318MOL0     H42908  -1.418   6.043   5.352  0.6681  0.5579 -0.7568
  318MOL0     H42909  -1.503   6.126   5.218 -4.1155  0.7318  0.6404
  318MOL0     H42910  -1.616   6.108   5.497 -1.2674 -2.7326 -0.1352
  318MOL0     H42911  -1.660   6.005   5.368  1.5598  0.0146  3.8283
  318MOL0     H42912  -0.700   6.469   5.060  2.5908 -0.5375 -1.9314
  318MOL0     H42913  -0.493   6.322   5.049  3.1669 -0.8592  0.3903
  318MOL0     H42914  -0.271   6.080   5.077 -0.9687 -0.9439  0.1583
  318MOL0     H42915  -0.114   5.944   4.958 -3.3243  0.1016  0.9543
  318MOL0     H42916   1.735   6.234   4.639 -0.1849  0.3353 -0.5367
  318MOL0     H42917   1.965   6.316   4.699 -0.1820  0.9359 -0.4264
  318MOL0     H42918   2.447   6.392   4.602  1.2559  0.3052 -0.5039
  318MOL0     H42919   2.635   6.521   4.706 -0.0376 -0.7187  1.9123
  318MOL0     H42920   2.646   6.849   4.640 -4.0793  1.5400  0.3114
  318MOL0     H42921   2.592   6.945   4.787 -0.4461 -0.3974  0.2840
  318MOL0     H42922   2.842   6.981   4.757 -2.8512  1.0669  1.0238
  318MOL0     H42923   2.880   6.808   4.791 -1.1488 -1.7838  0.7968
  318MOL0     H42924   2.762   6.806   4.996  0.4369 -0.4605 -0.6547
  318MOL0     H42925   2.724   6.980   4.999  1.6382 -0.1212  1.4535
  318MOL0     H42926   3.007   6.857   4.999  1.5795  1.5262 -0.2147
  318MOL0     H42927   2.927   6.930   5.138 -2.4497 -1.8734  0.0515
  318MOL0     H42928   3.058   7.275   4.951 -2.2623  0.0999  0.7879
  318MOL0     H42929   2.347   6.832   4.796  0.0410  0.5061  0.2161
  318MOL0     H42930   2.177   6.701   4.699 -0.1466  0.0581 -0.4595
  319MOL0     O42931  10.255   5.127   3.207  0.1879 -0.0986  0.1112
  319MOL0     C42932  10.343   5.216   3.186 -0.5676 -0.3566  0.0439
  319MOL0     O42933  10.326   5.348   3.220  0.9297 -0.6711  0.2491
  319MOL0     C42934  10.201   5.393   3.256 -0.4698  0.5744 -0.2857
  319MOL0     C42935  10.185   5.422   3.394  0.5068 -0.5123 -0.1503
  319MOL0     C42936  10.056   5.444   3.446 -0.1056 -0.7563  0.6089
  319MOL0     C42937   9.948   5.451   3.354 -0.5375  0.5774 -0.1870
  319MOL0     O42938   9.824   5.484   3.412 -0.1076 -0.3489  0.1599
  319MOL0     C42939   9.715   5.408   3.354  1.0397 -0.7835 -0.1521
  319MOL0     C42940   9.593   5.435   3.455 -0.0979  0.0589  0.4142
  319MOL0     C42941   9.577   5.589   3.485 -0.5891  0.4790 -0.4116
  319MOL0     C42942   9.440   5.613   3.542 -1.0739 -0.0332 -0.2403
  319MOL0     C42943   9.418   5.757   3.560 -0.2568 -0.2627  0.4841
  319MOL0     C42944   9.285   5.794   3.625 -0.8531  0.3210  0.6717
  319MOL0     C42945   9.279   5.947   3.637 -0.1383  0.0527  0.1364
  319MOL0     C42946   9.157   5.994   3.710 -0.1974  0.1336 -0.7325
  319MOL0     N42947   9.043   5.923   3.653 -0.2873 -0.7556 -0.1264
  319MOL0     C42948   9.003   5.942   3.521 -0.0523 -0.2895  0.4899
  319MOL0     C42949   8.896   5.858   3.507  0.2694  0.2008  0.7395
  319MOL0     C42950   8.810   5.866   3.380 -0.5032 -0.6846 -0.2544
  319MOL0     C42951   8.661   5.861   3.414  0.0768 -0.3164  0.4638
  319MOL0     C42952   8.580   5.891   3.278 -0.2017  0.9130  0.0563
  319MOL0     C42953   8.429   5.915   3.315 -0.5725 -0.3972 -0.2580
  319MOL0     O42954   8.356   5.955   3.197  0.4135  0.1462 -0.2610
  319MOL0     C42955   8.220   5.981   3.201  0.5955  0.0660  0.3634
  319MOL0     C42956   8.157   5.968   3.079 -0.1343  0.0889 -0.2742
  319MOL0     C42957   8.013   5.991   3.060 -1.3044  0.1630 -0.4179
  319MOL0     C42958   7.954   6.002   2.922 -0.0602 -0.2343 -1.2245
  319MOL0     C42959   7.951   6.039   3.180  1.0443  0.3323  0.9345
  319MOL0     C42960   7.823   6.121   3.176  0.5410 -0.6073  0.5555
  319MOL0     O42961   7.730   6.091   3.273  0.5162 -0.0631 -0.3218
  319MOL0     C42962   7.607   6.153   3.272 -1.0289 -1.0740 -0.5461
  319MOL0     C42963   7.483   6.094   3.250  0.4803 -0.1041 -0.1080
  319MOL0     C42964   7.357   6.157   3.277 -1.0255 -0.2356  1.2280
  319MOL0     C42965   7.357   6.292   3.310  0.2068  0.6390 -0.0493
  319MOL0     O42966   7.247   6.364   3.320  0.2127 -0.0523 -0.0972
  319MOL0     C42967   7.119   6.303   3.338 -0.1120 -0.5015 -0.5680
  319MOL0     C42968   7.000   6.397   3.344  0.1650 -0.8168  0.5742
  319MOL0     C42969   6.868   6.339   3.372  0.3102 -0.4715 -0.8241
  319MOL0     C42970   6.745   6.436   3.376  0.0459  0.5559 -0.6909
  319MOL0     C42971   6.722   6.526   3.256  0.8681  0.1157 -0.1443
  319MOL0     C42972   6.650   6.441   3.140 -0.7013  0.5962 -0.7093
  319MOL0     C42973   6.602   6.520   3.014 -0.1170 -0.2374  0.1300
  319MOL0     C42974   6.497   6.630   3.057  0.8897  0.3333 -0.0252
  319MOL0    Cl42975   6.408   6.697   2.916 -0.0237  0.2678 -0.2531
  319MOL0     C42976   7.484   6.353   3.321  0.1710 -0.0904 -0.4650
  319MOL0     C42977   7.609   6.293   3.306  0.0791 -0.0822  0.9475
  319MOL0     O42978   7.795   6.184   3.075 -0.1696  0.0669  0.2013
  319MOL0     C42979   8.015   6.043   3.300  0.3632  0.1504 -0.2266
  319MOL0     C42980   8.145   6.014   3.314 -0.0244  0.5851 -0.2007
  319MOL0     N42981   8.868   5.807   3.636 -1.3209  0.1818  0.3251
  319MOL0     N42982   8.947   5.852   3.728 -0.4542 -0.5642  0.5629
  319MOL0     C42983   9.965   5.419   3.218 -0.4995  1.1542  0.4870
  319MOL0     C42984  10.093   5.391   3.168 -0.3917 -0.1660 -1.1832
  319MOL0     C42985  10.475   5.194   3.106 -0.0918 -0.1044  0.0927
  319MOL0     C42986  10.525   5.061   3.098  0.3851  0.5378  0.5047
  319MOL0     C42987  10.651   5.041   3.032 -0.8247 -0.1214 -0.2050
  319MOL0     C42988  10.727   5.147   2.987 -0.6282 -0.3394  0.3340
  319MOL0     O42989  10.854   5.105   2.942  0.3214  0.0662 -0.0471
  319MOL0     C42990  10.953   5.201   2.908  0.3102  0.4005  0.5584
  319MOL0     C42991  11.082   5.126   2.867  0.2860  0.4930 -0.1810
  319MOL0     C42992  11.171   5.064   2.977 -0.5232 -1.3029  0.2589
  319MOL0     C42993  11.309   5.125   2.957 -1.6383 -0.2393  0.3855
  319MOL0     C42994  11.389   5.077   2.837  0.2692 -0.2200  0.7939
  319MOL0     C42995  11.445   5.043   2.734  0.7102  0.5657 -0.1661
  319MOL0     C42996  10.690   5.280   3.004  0.2967  0.3641 -0.3483
  319MOL0     C42997  10.562   5.301   3.065  0.3300  0.1494  0.3509
  319MOL0     H42998  10.276   5.401   3.449  0.0547 -1.7712  0.1358
  319MOL0     H42999  10.050   5.444   3.554 -1.1510 -1.2865  0.5677
  319MOL0     H43000   9.687   5.455   3.260 -4.1307 -0.0669  1.4141
  319MOL0     H43001   9.736   5.301   3.350  1.1846 -0.7586 -0.0838
  319MOL0     H43002   9.499   5.393   3.417 -0.9705 -1.7353  4.0721
  319MOL0     H43003   9.606   5.383   3.551 -0.2321 -3.9128 -1.5394
  319MOL0     H43004   9.657   5.620   3.553  0.3273 -0.4470 -1.0225
  319MOL0     H43005   9.594   5.650   3.396  0.0889 -1.2380 -1.5291
  319MOL0     H43006   9.368   5.582   3.465  2.4473  1.1196 -4.4183
  319MOL0     H43007   9.420   5.567   3.640  1.4479  1.4038  1.0297
  319MOL0     H43008   9.500   5.806   3.614 -1.8730  2.1351  0.9348
  319MOL0     H43009   9.432   5.800   3.460 -0.4709 -1.0932  0.0897
  319MOL0     H43010   9.198   5.761   3.566 -0.6702  0.4545  0.3270
  319MOL0     H43011   9.275   5.741   3.720 -3.0582 -3.0634 -1.1985
  319MOL0     H43012   9.365   5.989   3.689  2.8867 -0.3902 -3.9829
  319MOL0     H43013   9.285   5.981   3.533  4.0736  0.3879  0.3240
  319MOL0     H43014   9.137   6.102   3.712 -2.8335 -0.2862  0.6537
  319MOL0     H43015   9.171   5.966   3.815 -1.5694  1.2922 -0.1935
  319MOL0     H43016   9.046   5.999   3.439 -0.9232 -1.7412 -1.0403
  319MOL0     H43017   8.827   5.960   3.326 -1.3616 -0.9433 -1.0128
  319MOL0     H43018   8.849   5.786   3.316 -2.6528 -0.5448 -1.8853
  319MOL0     H43019   8.645   5.937   3.491  2.2676  0.7938 -0.0816
  319MOL0     H43020   8.636   5.763   3.454 -1.8197 -0.1399 -0.1841
  319MOL0     H43021   8.590   5.806   3.210  1.8571  0.1741  1.2067
  319MOL0     H43022   8.625   5.983   3.240 -1.6181  1.7426  0.3093
  319MOL0     H43023   8.433   6.000   3.384 -0.8984 -0.3996 -0.2344
  319MOL0     H43024   8.376   5.832   3.363 -1.3768 -0.4639 -1.2323
  319MOL0     H43025   8.219   5.941   2.994 -1.7262  0.5015 -1.5865
  319MOL0     H43026   7.845   6.006   2.923 -0.0737  2.2430  0.9859
  319MOL0     H43027   7.989   6.090   2.867 -0.1819 -0.2218 -1.2805
  319MOL0     H43028   7.977   5.904   2.880  0.7010 -0.1377 -1.0490
  319MOL0     H43029   7.488   5.986   3.242  0.8500  0.0336 -2.7448
  319MOL0     H43030   7.268   6.098   3.256 -0.4538 -0.7954  0.2731
  319MOL0     H43031   7.105   6.242   3.248  1.7828 -0.0040 -1.2626
  319MOL0     H43032   7.127   6.244   3.429  3.6478  0.9416  0.2619
  319MOL0     H43033   7.022   6.474   3.419  0.8208  1.1353 -1.5080
  319MOL0     H43034   6.988   6.453   3.251  0.2777  0.5012  1.3226
  319MOL0     H43035   6.878   6.280   3.464 -1.3947 -0.5900 -0.6911
  319MOL0     H43036   6.842   6.280   3.284 -0.0164  0.1794 -1.1681
  319MOL0     H43037   6.658   6.371   3.395 -0.0332  0.1425 -2.3414
  319MOL0     H43038   6.770   6.502   3.459  0.3080  1.6922 -1.6513
  319MOL0     H43039   6.812   6.582   3.227  0.7330  0.0791 -0.6457
  319MOL0     H43040   6.658   6.609   3.285 -1.2158 -0.3463 -2.9647
  319MOL0     H43041   6.719   6.366   3.101 -3.8054 -2.5551 -0.6493
  319MOL0     H43042   6.558   6.392   3.175  0.4748 -0.5418  0.8987
  319MOL0     H43043   6.554   6.446   2.950 -0.5127 -0.4815  0.6961
  319MOL0     H43044   6.678   6.575   2.959  0.4921 -2.2223 -1.1165
  319MOL0     H43045   6.533   6.712   3.120 -1.4999 -1.0516  3.4649
  319MOL0     H43046   6.422   6.580   3.119 -0.7829  1.9995 -0.5919
  319MOL0     H43047   7.479   6.459   3.347  0.8345  0.2631 -1.6839
  319MOL0     H43048   7.697   6.357   3.304 -1.1721  1.6776  0.4308
  319MOL0     H43049   7.963   6.066   3.392  1.4251  0.5383  0.2989
  319MOL0     H43050   8.194   6.001   3.410  0.1619 -5.1394 -0.6824
  319MOL0     H43051   9.886   5.420   3.145 -0.2277  0.2610  0.1677
  319MOL0     H43052  10.108   5.365   3.064 -0.6403 -2.9930 -0.5818
  319MOL0     H43053  10.472   4.973   3.135 -3.5318  1.8859 -1.3892
  319MOL0     H43054  10.682   4.937   3.028  0.3012  0.1923 -0.1781
  319MOL0     H43055  10.919   5.258   2.821  0.7108 -0.5539 -0.2402
  319MOL0     H43056  10.974   5.262   2.996  0.4275  1.7748 -0.3796
  319MOL0     H43057  11.119   5.205   2.802 -3.6109  0.5245 -2.7290
  319MOL0     H43058  11.063   5.047   2.793  0.5654  1.1621 -0.9880
  319MOL0     H43059  11.158   4.956   2.962 -1.4485 -1.5589  2.3997
  319MOL0     H43060  11.132   5.093   3.075 -2.6486 -1.9028 -0.3584
  319MOL0     H43061  11.377   5.102   3.040 -0.1632  2.2878 -0.0109
  319MOL0     H43062  11.307   5.234   2.960  2.3548  0.1017 -2.0024
  319MOL0     H43063  11.497   5.008   2.647  2.4120 -4.4229  2.4160
  319MOL0     H43064  10.750   5.367   2.977  2.0580 -1.1389 -1.5882
  319MOL0     H43065  10.526   5.403   3.074 -1.3562 -0.2971 -0.7675
  320MOL0     O43066   9.952   9.742   6.313  0.6810  0.6307  0.4316
  320MOL0     C43067  10.049   9.802   6.362  0.3464 -0.1563  1.0329
  320MOL0     O43068  10.043   9.889   6.465  0.4324 -0.2637  0.0280
  320MOL0     C43069   9.936   9.899   6.546  0.0874 -0.0646  0.5785
  320MOL0     C43070   9.937   9.828   6.663  0.2023 -0.4386 -0.1067
  320MOL0     C43071   9.826   9.822   6.746 -0.6149 -0.2275 -1.3221
  320MOL0     C43072   9.706   9.889   6.713 -0.9539 -0.8451  0.1893
  320MOL0     O43073   9.601   9.880   6.799 -0.8945  0.3612  0.2510
  320MOL0     C43074   9.537  10.000   6.830 -0.1824 -0.4662  0.2368
  320MOL0     C43075   9.422   9.970   6.924 -0.1392 -0.2618 -0.4548
  320MOL0     C43076   9.328   9.865   6.868  0.4313  0.0752 -0.4563
  320MOL0     C43077   9.194   9.876   6.956 -0.6211  0.9481  0.1980
  320MOL0     C43078   9.097   9.762   6.927 -1.4190 -0.8986 -0.7185
  320MOL0     C43079   9.002   9.749   7.051 -0.1402  0.2381 -0.0567
  320MOL0     C43080   8.928   9.614   7.055  0.3428 -0.4612 -0.1687
  320MOL0     C43081   8.842   9.593   6.936  0.1692  0.1231 -0.6517
  320MOL0     N43082   8.791   9.461   6.959  0.0248 -0.1518 -0.0648
  320MOL0     C43083   8.673   9.435   7.021  0.3997 -0.5121 -0.1700
  320MOL0     C43084   8.638   9.312   6.968 -0.4685 -0.2486 -0.5997
  320MOL0     C43085   8.505   9.236   6.973  0.3233 -0.2159 -0.1635
  320MOL0     C43086   8.398   9.286   6.869 -0.4486  0.9651  0.5212
  320MOL0     C43087   8.306   9.172   6.827 -0.7326  0.6025 -0.0273
  320MOL0     C43088   8.192   9.161   6.919  0.1878  0.6371  0.2888
  320MOL0     O43089   8.129   9.288   6.944 -0.4080  0.4907 -0.6091
  320MOL0     C43090   8.015   9.276   7.018  0.4067 -0.4942  0.3390
  320MOL0     C43091   7.930   9.387   7.012 -0.7315 -0.0263  0.5144
  320MOL0     C43092   7.817   9.395   7.085 -0.1866  0.0844 -0.2436
  320MOL0     C43093   7.726   9.514   7.072  0.6299 -0.5196  0.7280
  320MOL0     C43094   7.786   9.291   7.174 -0.6640  0.4609 -0.5456
  320MOL0     C43095   7.665   9.283   7.253 -0.5780 -0.3171  0.1123
  320MOL0     O43096   7.679   9.311   7.384 -0.1677 -0.5904 -0.5238
  320MOL0     C43097   7.579   9.273   7.474  0.4498 -0.0187 -0.5264
  320MOL0     C43098   7.463   9.346   7.483 -0.1013  0.3933  0.2104
  320MOL0     C43099   7.374   9.316   7.585  0.0078 -0.8854  0.6410
  320MOL0     C43100   7.380   9.205   7.674 -0.4642  0.1158  0.5300
  320MOL0     O43101   7.306   9.166   7.781 -0.3568  0.1695  0.1039
  320MOL0     C43102   7.182   9.236   7.785 -0.7834 -0.3301  0.1824
  320MOL0     C43103   7.091   9.188   7.898 -0.7887  0.4024  0.3656
  320MOL0     C43104   6.958   9.262   7.891 -0.3009  0.3438  0.3352
  320MOL0     C43105   6.973   9.409   7.940 -0.0015  0.2307 -0.5417
  320MOL0     C43106   6.841   9.478   7.969  0.0803  0.4316 -0.3502
  320MOL0     C43107   6.776   9.416   8.100 -0.2026 -0.8557  0.1290
  320MOL0     C43108   6.651   9.484   8.143  0.3163 -0.0190 -1.0645
  320MOL0     C43109   6.687   9.614   8.218  0.3164 -0.2352  0.4016
  320MOL0    Cl43110   6.543   9.703   8.245 -0.1479 -0.5326 -0.3831
  320MOL0     C43111   7.491   9.121   7.650  0.3231 -0.1544  0.2835
  320MOL0     C43112   7.593   9.161   7.557 -0.1020  0.6801 -1.2666
  320MOL0     O43113   7.558   9.268   7.193  0.4744 -1.0448  0.2845
  320MOL0     C43114   7.869   9.181   7.184 -0.0868 -0.9066 -0.2341
  320MOL0     C43115   7.974   9.170   7.108 -1.3458 -0.0868  0.8649
  320MOL0     N43116   8.743   9.268   6.882 -0.1599  0.3040 -0.4714
  320MOL0     N43117   8.829   9.357   6.878 -0.8121  0.4878 -0.4012
  320MOL0     C43118   9.696   9.950   6.589  0.1447 -0.0226  0.4097
  320MOL0     C43119   9.816   9.960   6.510  0.3483 -0.0551  0.0543
  320MOL0     C43120  10.162   9.803   6.274  0.6828  0.2158 -0.9466
  320MOL0     C43121  10.237   9.919   6.256 -0.2511 -0.1065 -0.5354
  320MOL0     C43122  10.333   9.918   6.157 -0.5577 -0.7201  0.0907
  320MOL0     C43123  10.352   9.810   6.064 -0.0882  0.5707 -0.7447
  320MOL0     O43124  10.451   9.816   5.965 -0.5606  0.3678 -0.6029
  320MOL0     C43125  10.451   9.712   5.863 -0.7059  0.0375  0.3669
  320MOL0     C43126  10.563   9.735   5.756  0.1604  0.0426 -0.5495
  320MOL0     C43127  10.561   9.876   5.708 -0.6506 -0.6892  0.4539
  320MOL0     C43128  10.635   9.979   5.799 -0.6524 -0.0326 -0.4827
  320MOL0     C43129  10.781   9.965   5.765 -0.2368 -0.0511  0.1335
  320MOL0     C43130  10.892   9.963   5.735 -0.6603  0.3813 -0.1811
  320MOL0     C43131  10.264   9.704   6.090 -0.5093  0.6991 -0.4591
  320MOL0     C43132  10.171   9.692   6.196 -1.3589 -0.0000  1.0899
  320MOL0     H43133  10.036   9.789   6.687  1.4020  0.8944 -2.5896
  320MOL0     H43134   9.824   9.771   6.842  1.7161  2.4065  0.2772
  320MOL0     H43135   9.603  10.072   6.878  0.6243 -0.2324 -1.1583
  320MOL0     H43136   9.491  10.044   6.741 -2.4936  0.8839  1.9882
  320MOL0     H43137   9.469   9.937   7.017  0.7550 -0.4030 -0.9470
  320MOL0     H43138   9.362  10.060   6.943  0.0249 -0.6092  1.9008
  320MOL0     H43139   9.309   9.893   6.764 -0.3004 -0.4078 -0.4574
  320MOL0     H43140   9.372   9.765   6.874  0.4610  0.1598  1.9983
  320MOL0     H43141   9.224   9.864   7.060 -1.0779  0.8033  0.3142
  320MOL0     H43142   9.144   9.969   6.928 -1.3267  1.2224  2.2536
  320MOL0     H43143   9.037   9.779   6.837 -1.6797 -1.4237 -0.6492
  320MOL0     H43144   9.148   9.665   6.923 -1.4272 -1.0036  1.0458
  320MOL0     H43145   9.063   9.743   7.142 -0.3864  2.5507  0.3274
  320MOL0     H43146   8.940   9.839   7.063  3.3227  2.5847  2.1043
  320MOL0     H43147   9.005   9.538   7.067  3.0948  2.4699  3.2511
  320MOL0     H43148   8.870   9.600   7.147  0.2848 -3.9008 -0.6083
  320MOL0     H43149   8.908   9.586   6.849 -0.1317 -0.2191 -0.8548
  320MOL0     H43150   8.763   9.669   6.929  1.1787  1.4288  1.4192
  320MOL0     H43151   8.615   9.496   7.089  2.0505 -0.8849  1.6643
  320MOL0     H43152   8.525   9.130   6.957 -0.4962 -0.3422 -0.4041
  320MOL0     H43153   8.462   9.235   7.073 -1.2391 -0.5666 -0.8112
  320MOL0     H43154   8.444   9.321   6.776  1.9161 -0.0669  1.2397
  320MOL0     H43155   8.336   9.365   6.911 -1.4127  1.5848 -1.8671
  320MOL0     H43156   8.359   9.078   6.808 -0.5603  0.9554 -1.4256
  320MOL0     H43157   8.271   9.177   6.723 -0.6475 -1.4772 -0.1905
  320MOL0     H43158   8.223   9.105   7.008  2.7182  0.7963 -0.4215
  320MOL0     H43159   8.115   9.103   6.868 -0.3524 -0.4314  2.1963
  320MOL0     H43160   7.967   9.476   6.964 -0.9229 -0.3068 -0.1667
  320MOL0     H43161   7.675   9.505   6.975 -0.8766 -0.0446  1.4480
  320MOL0     H43162   7.639   9.506   7.138  1.6290 -1.8733  1.9465
  320MOL0     H43163   7.768   9.614   7.080 -1.9153  0.6876  0.1246
  320MOL0     H43164   7.447   9.426   7.410 -2.0905 -1.0890 -1.1157
  320MOL0     H43165   7.305   9.399   7.593  1.5845  0.5689 -0.2423
  320MOL0     H43166   7.200   9.343   7.798  0.9710 -0.0819 -3.0979
  320MOL0     H43167   7.127   9.229   7.691  0.8020  1.8032 -1.0153
  320MOL0     H43168   7.062   9.085   7.876 -2.3087  0.6574  1.0193
  320MOL0     H43169   7.145   9.206   7.992 -0.4544  3.1228 -0.2678
  320MOL0     H43170   6.901   9.205   7.965  1.2447 -2.6021 -0.5773
  320MOL0     H43171   6.898   9.254   7.800  0.0218  1.3451  0.0153
  320MOL0     H43172   7.023   9.401   8.037 -3.0568 -1.8249  1.0503
  320MOL0     H43173   7.027   9.471   7.868  0.0995  1.2268  0.3751
  320MOL0     H43174   6.775   9.487   7.882 -1.8187 -0.4987  0.9267
  320MOL0     H43175   6.867   9.580   7.998 -1.4935  0.6838  0.2443
  320MOL0     H43176   6.753   9.311   8.078 -1.8789 -0.2371 -1.3032
  320MOL0     H43177   6.842   9.420   8.187 -0.0174  1.3590 -0.0614
  320MOL0     H43178   6.591   9.414   8.202  0.9243 -0.9695 -1.5363
  320MOL0     H43179   6.604   9.500   8.045  2.7042  2.5165 -1.9038
  320MOL0     H43180   6.743   9.677   8.147 -2.9206  1.6325 -0.7054
  320MOL0     H43181   6.744   9.586   8.307  1.1071 -3.4194 -0.9557
  320MOL0     H43182   7.492   9.034   7.715  0.8496 -1.2510 -1.1485
  320MOL0     H43183   7.686   9.108   7.539 -2.1760 -3.7491 -0.1229
  320MOL0     H43184   7.848   9.098   7.250 -0.5811 -1.0214 -0.5295
  320MOL0     H43185   8.044   9.092   7.134  0.3061  1.5612  1.6221
  320MOL0     H43186   9.602   9.988   6.552 -0.3064 -2.1218 -0.7880
  320MOL0     H43187   9.806  10.011   6.414  4.8950 -2.1886 -1.8584
  320MOL0     H43188  10.232  10.006   6.321 -0.2135  0.8724 -1.7935
  320MOL0     H43189  10.385  10.013   6.146  1.2913 -1.5793  0.7778
  320MOL0     H43190  10.469   9.618   5.915  1.1431  0.7192  1.0073
  320MOL0     H43191  10.365   9.693   5.798 -0.2348  0.0400 -0.2637
  320MOL0     H43192  10.533   9.683   5.664  1.6320  1.7724 -2.1071
  320MOL0     H43193  10.664   9.711   5.791 -0.2925  0.3653  1.0340
  320MOL0     H43194  10.458   9.903   5.685 -0.1305 -0.2386 -1.5035
  320MOL0     H43195  10.603   9.885   5.607  2.0451 -2.0925  1.3557
  320MOL0     H43196  10.629   9.957   5.906 -0.4058  0.3439 -0.3911
  320MOL0     H43197  10.598  10.082   5.788  2.9521  1.5872  1.0230
  320MOL0     H43198  10.996   9.958   5.711 -0.9612 -0.2282 -1.4798
  320MOL0     H43199  10.262   9.619   6.023  1.3996  0.2429  0.0075
  320MOL0     H43200  10.112   9.601   6.201  1.8372 -2.1768  3.8145
  321MOL0     O43201   3.822  11.027   9.610 -0.1975 -1.0890  0.7043
  321MOL0     C43202   3.911  11.023   9.682  0.3401 -0.0658 -0.6800
  321MOL0     O43203   3.904  11.053   9.818 -0.0512  0.1469  0.2318
  321MOL0     C43204   3.782  11.041   9.885 -0.6231 -0.1659 -0.4657
  321MOL0     C43205   3.782  10.956   9.992 -0.2056 -0.7914 -0.0180
  321MOL0     C43206   3.667  10.917  10.055  0.2054 -0.1631  0.9655
  321MOL0     C43207   3.542  10.951  10.000  0.7501  0.9291 -1.0457
  321MOL0     O43208   3.426  10.901  10.065  0.7349  0.5650  0.2540
  321MOL0     C43209   3.297  10.929  10.016  1.0974  1.0957  0.2677
  321MOL0     C43210   3.198  10.830  10.080 -0.1641  0.6280 -0.2703
  321MOL0     C43211   3.055  10.817  10.020  0.4838  0.2819 -0.2000
  321MOL0     C43212   2.947  10.782  10.126 -0.2432 -0.3417  0.2755
  321MOL0     C43213   2.814  10.758  10.056  0.8486  0.5543  0.6044
  321MOL0     C43214   2.721  10.669  10.138 -0.0917  0.0829 -0.6088
  321MOL0     C43215   2.577  10.680  10.104 -0.6616  0.9605  1.4876
  321MOL0     C43216   2.501  10.567  10.166 -0.1957 -0.0563 -0.2723
  321MOL0     N43217   2.507  10.572  10.314 -0.6882 -1.0475  0.4677
  321MOL0     C43218   2.430  10.644  10.398 -0.0271  0.4937  0.8414
  321MOL0     C43219   2.481  10.633  10.525 -0.6611 -0.3160  1.0434
  321MOL0     C43220   2.434  10.697  10.652  0.0215 -0.3427  0.6963
  321MOL0     C43221   2.303  10.647  10.706  0.3149  0.2082  0.5366
  321MOL0     C43222   2.295  10.501  10.770  0.0478  0.2303  0.7032
  321MOL0     C43223   2.150  10.474  10.793  0.6335  0.2529 -0.0982
  321MOL0     O43224   2.089  10.577  10.867  0.0100 -0.4150  0.6523
  321MOL0     C43225   1.955  10.580  10.883 -0.3551 -0.0981  0.9737
  321MOL0     C43226   1.906  10.677  10.962  0.6897 -0.6229  0.7845
  321MOL0     C43227   1.771  10.685  11.007 -0.3349 -0.2141 -0.3734
  321MOL0     C43228   1.741  10.789  11.121 -0.5394  0.5016  0.4441
  321MOL0     C43229   1.683  10.604  10.940  0.3766  0.4477 -0.4360
  321MOL0     C43230   1.537  10.615  10.964  0.4712  0.4665 -0.5333
  321MOL0     O43231   1.472  10.506  10.918 -0.4699  0.6568  0.2668
  321MOL0     C43232   1.337  10.511  10.897 -0.0361  0.2662 -0.0844
  321MOL0     C43233   1.291  10.457  10.781 -1.3363  0.2123  0.6877
  321MOL0     C43234   1.157  10.456  10.751 -0.4026  1.3164 -0.4232
  321MOL0     C43235   1.056  10.490  10.845 -0.5491 -0.9353  0.4451
  321MOL0     O43236   0.926  10.500  10.816 -0.4132 -0.5358  0.0465
  321MOL0     C43237   0.884  10.498  10.679  1.0846 -0.6315  0.3075
  321MOL0     C43238   0.738  10.540  10.674  1.0235  0.4094 -0.2340
  321MOL0     C43239   0.726  10.692  10.702  0.1572 -0.0569 -0.0623
  321MOL0     C43240   0.585  10.738  10.686 -0.2314 -0.3023 -0.1233
  321MOL0     C43241   0.561  10.884  10.724 -0.2018 -0.3713 -0.2964
  321MOL0     C43242   0.420  10.929  10.697  0.0004 -0.5667  0.1496
  321MOL0     C43243   0.396  11.082  10.724 -0.4904 -1.0099  0.0518
  321MOL0     C43244   0.265  11.113  10.661  0.1634 -0.2628 -0.0682
  321MOL0    Cl43245   0.291  11.102  10.484  0.4087 -0.3553  0.0442
  321MOL0     C43246   1.104  10.541  10.967 -0.6876  0.0111 -0.7008
  321MOL0     C43247   1.241  10.547  10.995 -0.8543 -1.2167 -0.5047
  321MOL0     O43248   1.481  10.717  11.009  0.4283  0.2916  0.5999
  321MOL0     C43249   1.734  10.499  10.859 -0.5955  0.5805  0.7179
  321MOL0     C43250   1.868  10.485  10.833 -0.0195  0.7110  0.2214
  321MOL0     N43251   2.584  10.552  10.515  0.4049  0.0300  0.1299
  321MOL0     N43252   2.598  10.513  10.394 -0.2254 -0.2221  0.2071
  321MOL0     C43253   3.543  11.041   9.896 -0.5932 -0.0282  0.0816
  321MOL0     C43254   3.660  11.089   9.838  0.6069  0.3574  0.2075
  321MOL0     C43255   4.044  11.012   9.631 -0.3446  0.1604  0.2078
  321MOL0     C43256   4.068  11.017   9.483 -0.0948 -0.8213 -0.5331
  321MOL0     C43257   4.199  11.033   9.437 -0.1562 -0.4818  0.5340
  321MOL0     C43258   4.309  11.019   9.521  0.8477  0.2758  0.6877
  321MOL0     O43259   4.435  11.021   9.463 -0.1812 -0.1952  0.6231
  321MOL0     C43260   4.547  11.015   9.550 -0.5287 -0.5437  0.1912
  321MOL0     C43261   4.685  10.985   9.481 -0.0795 -0.3220  0.5704
  321MOL0     C43262   4.789  10.911   9.564 -0.1185  0.3323 -0.0911
  321MOL0     C43263   4.928  10.937   9.514 -1.0491  0.5448 -0.6140
  321MOL0     C43264   5.019  10.867   9.609 -0.3286 -0.2405  0.5145
  321MOL0     C43265   5.089  10.822   9.694  0.4694  0.6944 -0.2520
  321MOL0     C43266   4.284  11.015   9.660 -0.0526  0.3597 -0.8344
  321MOL0     C43267   4.158  10.996   9.714 -0.2496 -0.4299  0.3021
  321MOL0     H43268   3.879  10.931  10.035  1.1723  3.5442 -0.1734
  321MOL0     H43269   3.658  10.853  10.143 -1.1872 -2.1181 -0.4942
  321MOL0     H43270   3.280  11.035  10.036 -2.0768  0.7958 -0.3428
  321MOL0     H43271   3.292  10.906   9.909 -1.6138  1.8672  0.1639
  321MOL0     H43272   3.237  10.730  10.097 -1.7957  0.2918  1.9389
  321MOL0     H43273   3.185  10.876  10.179  1.5882  2.8280 -0.9730
  321MOL0     H43274   3.021  10.906   9.967 -1.9620 -0.7928 -0.5620
  321MOL0     H43275   3.063  10.746   9.937  0.4468  1.8666 -1.6063
  321MOL0     H43276   2.974  10.689  10.177 -1.0983 -0.2482  0.9208
  321MOL0     H43277   2.935  10.864  10.199  1.1776  0.9580 -0.8845
  321MOL0     H43278   2.764  10.854  10.043  1.7448  0.8987 -0.4455
  321MOL0     H43279   2.837  10.711   9.960 -1.5189 -0.6792  0.5728
  321MOL0     H43280   2.752  10.568  10.109  1.9745  1.4093 -3.5664
  321MOL0     H43281   2.729  10.698  10.243  0.9661  1.5420 -1.0576
  321MOL0     H43282   2.539  10.777  10.137 -3.0739 -0.2583  2.5200
  321MOL0     H43283   2.567  10.677   9.995  1.1130  2.8459  1.1986
  321MOL0     H43284   2.544  10.469  10.142 -1.1215 -1.0836  1.9728
  321MOL0     H43285   2.399  10.566  10.128 -0.1170 -4.0000 -0.7938
  321MOL0     H43286   2.339  10.694  10.368  0.9484  0.7657 -1.9996
  321MOL0     H43287   2.505  10.679  10.733  1.0765 -0.4213 -0.2197
  321MOL0     H43288   2.422  10.804  10.635 -1.7814 -0.7408 -0.9165
  321MOL0     H43289   2.228  10.650  10.627  0.5773  3.4486  0.2952
  321MOL0     H43290   2.258  10.722  10.771 -1.1135  2.1133 -2.4563
  321MOL0     H43291   2.348  10.498  10.866  0.0392 -1.8225  0.6869
  321MOL0     H43292   2.326  10.422  10.702 -0.4302  0.7841 -0.1799
  321MOL0     H43293   2.143  10.375  10.838 -0.6896  1.7566  3.3440
  321MOL0     H43294   2.100  10.474  10.695  0.5130  1.3975 -0.0506
  321MOL0     H43295   1.978  10.743  11.011 -0.3065  0.1162  1.2776
  321MOL0     H43296   1.665  10.749  11.189 -2.6566 -0.1983 -2.1419
  321MOL0     H43297   1.837  10.816  11.166  0.9756 -0.8080 -1.8196
  321MOL0     H43298   1.701  10.882  11.080 -0.4481  0.2057 -0.3270
  321MOL0     H43299   1.364  10.429  10.705 -1.9668 -2.2994  0.9235
  321MOL0     H43300   1.131  10.441  10.647  1.6631 -0.1355 -0.7781
  321MOL0     H43301   0.943  10.562  10.613  1.4730 -1.4882 -0.1812
  321MOL0     H43302   0.895  10.394  10.648 -0.7729 -1.1890  1.3421
  321MOL0     H43303   0.702  10.522  10.572 -0.2222 -1.9412  0.5581
  321MOL0     H43304   0.678  10.474  10.737  1.9917 -1.0133 -0.7563
  321MOL0     H43305   0.780  10.750  10.626 -4.0476  1.6581 -2.0214
  321MOL0     H43306   0.754  10.728  10.801  2.6644  1.3787 -1.1922
  321MOL0     H43307   0.544  10.717  10.586 -0.1539 -2.1456  0.2023
  321MOL0     H43308   0.525  10.691  10.765  1.5597 -0.9262  0.9050
  321MOL0     H43309   0.631  10.940  10.662  3.2361 -0.9573  2.7193
  321MOL0     H43310   0.580  10.909  10.829  1.2774  0.1051 -0.6612
  321MOL0     H43311   0.391  10.908  10.593 -0.4920  2.0494 -0.3007
  321MOL0     H43312   0.351  10.869  10.757 -0.5456 -1.7058 -1.5297
  321MOL0     H43313   0.473  11.135  10.667 -0.5274 -0.4615  0.4982
  321MOL0     H43314   0.389  11.116  10.828 -2.2141 -0.7081 -0.1333
  321MOL0     H43315   0.231  11.215  10.683  1.2857 -0.0752  0.9192
  321MOL0     H43316   0.185  11.042  10.685 -1.0138  1.0969  0.1952
  321MOL0     H43317   1.033  10.561  11.046  0.4450 -2.2165  1.0013
  321MOL0     H43318   1.265  10.593  11.090 -2.8935  1.4950 -1.2030
  321MOL0     H43319   1.673  10.429  10.802  3.5945  0.6529 -4.6342
  321MOL0     H43320   1.902  10.402  10.772 -2.4541 -0.8774  0.8535
  321MOL0     H43321   3.455  11.087   9.852 -0.7988 -2.6586 -2.5203
  321MOL0     H43322   3.670  11.163   9.759  1.6699  2.5199  2.2226
  321MOL0     H43323   3.981  11.015   9.419 -3.2241 -2.0216  3.3201
  321MOL0     H43324   4.210  11.049   9.330 -2.2721  0.9631  0.4830
  321MOL0     H43325   4.545  11.109   9.605 -0.5816  0.5412 -1.6007
  321MOL0     H43326   4.523  10.933   9.618  0.2903 -0.9753 -0.0240
  321MOL0     H43327   4.731  11.077   9.442 -0.7356 -0.0561  0.4165
  321MOL0     H43328   4.663  10.925   9.392  3.4676 -0.4327 -0.3737
  321MOL0     H43329   4.759  10.806   9.555 -1.3204  0.6755 -0.3028
  321MOL0     H43330   4.789  10.948   9.667  1.8194  1.5887 -0.4769
  321MOL0     H43331   4.952  11.044   9.516  3.4102 -0.1597 -3.6207
  321MOL0     H43332   4.948  10.916   9.409 -2.2422  3.1446 -1.4630
  321MOL0     H43333   5.140  10.774   9.775 -1.4330 -2.6075 -0.8351
  321MOL0     H43334   4.362  11.025   9.735  2.0792 -2.3489 -2.5078
  321MOL0     H43335   4.133  10.977   9.819 -1.2799 -2.5866 -0.2738
  322MOL0     O43336   2.641   1.319   6.333  0.5362 -0.3212  0.1339
  322MOL0     C43337   2.703   1.257   6.247 -1.2059 -0.1993  0.1773
  322MOL0     O43338   2.656   1.203   6.134  0.5731  0.4030  0.1676
  322MOL0     C43339   2.529   1.236   6.098 -0.3831 -0.5015  0.1254
  322MOL0     C43340   2.411   1.203   6.170 -0.4628  0.3311  0.8433
  322MOL0     C43341   2.281   1.211   6.116 -0.4152  1.0601  0.2014
  322MOL0     C43342   2.269   1.260   5.984  0.4744  1.2676  1.1770
  322MOL0     O43343   2.140   1.270   5.939  1.0732  0.2392 -0.4164
  322MOL0     C43344   2.120   1.318   5.797  0.6859 -0.0522  0.0658
  322MOL0     C43345   1.977   1.320   5.768 -0.6984  1.0318  0.1611
  322MOL0     C43346   1.919   1.184   5.765  0.4511 -0.9220  0.4593
  322MOL0     C43347   1.770   1.208   5.722 -0.0311 -0.1039  0.6918
  322MOL0     C43348   1.685   1.079   5.726  0.6388 -0.4825 -0.2607
  322MOL0     C43349   1.545   1.109   5.670  0.3950  0.4504 -0.7179
  322MOL0     C43350   1.469   0.973   5.661  0.3179 -0.5438  0.2165
  322MOL0     C43351   1.396   0.964   5.528  0.1931  0.8687  0.0818
  322MOL0     N43352   1.284   0.866   5.522  0.3671  0.1621  0.2649
  322MOL0     C43353   1.178   0.858   5.430 -0.5910  0.8432  0.3088
  322MOL0     C43354   1.108   0.748   5.477 -0.1204  0.0670 -0.1179
  322MOL0     C43355   0.978   0.697   5.423 -0.0687  0.7317 -0.9693
  322MOL0     C43356   0.851   0.752   5.483  1.0075 -0.1924 -0.6974
  322MOL0     C43357   0.728   0.706   5.397 -0.2758 -0.0154  0.3076
  322MOL0     C43358   0.599   0.701   5.486  0.1584 -0.5336  0.0013
  322MOL0     O43359   0.553   0.835   5.497 -0.2364 -0.3774 -0.6141
  322MOL0     C43360   0.416   0.835   5.531 -0.2766 -0.1492  0.2612
  322MOL0     C43361   0.339   0.940   5.487  0.4389  0.0789  0.4916
  322MOL0     C43362   0.206   0.960   5.518 -0.1606 -0.3109  0.7161
  322MOL0     C43363   0.134   1.077   5.449  0.4298  0.3398  0.7760
  322MOL0     C43364   0.138   0.870   5.598 -1.2359  0.9943  0.3322
  322MOL0     C43365  -0.001   0.896   5.651  1.0484 -0.2694 -0.3702
  322MOL0     O43366  -0.097   0.795   5.643 -0.2473  0.3272 -0.4348
  322MOL0     C43367  -0.232   0.822   5.650  0.4755 -0.1076 -0.3713
  322MOL0     C43368  -0.302   0.922   5.577 -0.1527  0.4765 -0.4040
  322MOL0     C43369  -0.441   0.938   5.612 -0.5526 -0.7437  0.3919
  322MOL0     C43370  -0.511   0.869   5.709 -0.1552 -0.4460  0.0599
  322MOL0     O43371  -0.642   0.904   5.728  0.0508  0.7158 -0.0206
  322MOL0     C43372  -0.731   0.811   5.790 -0.0336 -0.4858  0.3681
  322MOL0     C43373  -0.865   0.840   5.734 -0.7259 -0.2561 -0.0476
  322MOL0     C43374  -0.889   0.760   5.603  0.2480 -1.1589  0.5634
  322MOL0     C43375  -0.999   0.828   5.525  0.0909 -0.1977  0.5283
  322MOL0     C43376  -1.021   0.763   5.381 -0.0399  0.1327  1.4629
  322MOL0     C43377  -1.080   0.614   5.377 -0.5226  0.1640 -0.1616
  322MOL0     C43378  -1.110   0.559   5.235 -0.4311  0.9827 -0.5011
  322MOL0     C43379  -1.241   0.615   5.181  0.0137  0.6081 -0.4106
  322MOL0    Cl43380  -1.365   0.531   5.270  0.1644  0.0408  0.0293
  322MOL0     C43381  -0.439   0.769   5.774  0.4903  0.5323 -0.3601
  322MOL0     C43382  -0.305   0.747   5.744 -0.2559 -0.4561  0.2864
  322MOL0     O43383  -0.024   1.009   5.697  0.9550  0.1476  0.0260
  322MOL0     C43384   0.206   0.751   5.631 -0.2374 -0.5072  0.8656
  322MOL0     C43385   0.347   0.743   5.600 -0.0891  0.3611 -0.3838
  322MOL0     N43386   1.159   0.703   5.592  0.2951 -0.2365 -0.0217
  322MOL0     N43387   1.265   0.778   5.616 -0.6432 -0.0119 -0.3151
  322MOL0     C43388   2.381   1.292   5.911  1.1215 -0.5201  0.2859
  322MOL0     C43389   2.513   1.279   5.965  0.4396 -0.2992  0.0897
  322MOL0     C43390   2.854   1.246   6.264  0.8265  0.4757 -0.6018
  322MOL0     C43391   2.929   1.151   6.186 -0.2232 -1.2936 -0.3035
  322MOL0     C43392   3.073   1.153   6.196 -0.1811  0.9045  0.5444
  322MOL0     C43393   3.134   1.251   6.270 -0.6059  0.6028  0.0315
  322MOL0     O43394   3.270   1.251   6.278  0.6861 -0.2231 -0.7817
  322MOL0     C43395   3.342   1.274   6.158  0.0905 -0.8640  0.2435
  322MOL0     C43396   3.458   1.371   6.185 -0.2311 -0.0407 -0.3349
  322MOL0     C43397   3.427   1.507   6.251  0.5715 -0.0284  0.7549
  322MOL0     C43398   3.309   1.587   6.182  0.1434 -0.4901  0.1387
  322MOL0     C43399   3.325   1.727   6.232  0.7095 -0.2432 -0.4993
  322MOL0     C43400   3.345   1.839   6.267 -0.7717 -0.0854 -0.5349
  322MOL0     C43401   3.062   1.335   6.347 -0.2635 -0.3430  0.4088
  322MOL0     C43402   2.922   1.343   6.340  0.0685  0.5370 -0.4262
  322MOL0     H43403   2.427   1.151   6.264  0.3088 -0.9555  0.0485
  322MOL0     H43404   2.194   1.190   6.177 -0.3196  1.2075  0.3922
  322MOL0     H43405   2.157   1.420   5.787  1.4023 -0.4409 -1.4672
  322MOL0     H43406   2.175   1.254   5.728 -1.3059 -2.8645  0.9059
  322MOL0     H43407   1.927   1.375   5.849 -2.8626 -0.9332  0.2516
  322MOL0     H43408   1.970   1.357   5.665  1.9387 -1.6327 -1.1043
  322MOL0     H43409   1.978   1.119   5.700 -2.7511 -1.6578 -1.9860
  322MOL0     H43410   1.912   1.150   5.869 -2.1396 -1.1211  0.2934
  322MOL0     H43411   1.734   1.288   5.787  1.1469  1.3296 -0.3613
  322MOL0     H43412   1.779   1.231   5.615  0.9881 -4.8983 -0.4924
  322MOL0     H43413   1.735   1.009   5.659 -0.4961 -0.5045 -1.1074
  322MOL0     H43414   1.696   1.031   5.824 -0.2553  2.4263  1.3827
  322MOL0     H43415   1.485   1.179   5.728  1.5121  1.9122 -1.2692
  322MOL0     H43416   1.553   1.158   5.572 -0.0170 -1.4946 -1.7875
  322MOL0     H43417   1.532   0.887   5.686 -0.9450 -1.2417  1.1349
  322MOL0     H43418   1.396   0.986   5.741  1.4918  1.2121  1.0600
  322MOL0     H43419   1.470   0.932   5.455 -0.2813 -0.9833  0.3649
  322MOL0     H43420   1.355   1.059   5.493 -3.0166  0.5996  2.6126
  322MOL0     H43421   1.160   0.927   5.348  1.3012 -0.4926 -1.3373
  322MOL0     H43422   0.977   0.728   5.318 -1.6257 -0.2175 -1.2800
  322MOL0     H43423   0.976   0.588   5.435  0.4155  0.9298  1.4229
  322MOL0     H43424   0.858   0.861   5.490  0.6205 -0.2486  1.4390
  322MOL0     H43425   0.839   0.713   5.585 -3.2344  0.7181 -0.6686
  322MOL0     H43426   0.760   0.611   5.353  3.7876  1.7920 -1.1751
  322MOL0     H43427   0.720   0.779   5.315 -2.1566 -1.6764 -1.0844
  322MOL0     H43428   0.624   0.660   5.584  1.1369 -2.1341 -0.8666
  322MOL0     H43429   0.525   0.646   5.426 -0.1727  0.3323 -0.4101
  322MOL0     H43430   0.394   1.007   5.422 -1.0274 -0.2509 -1.1639
  322MOL0     H43431   0.031   1.087   5.485 -0.9206 -0.2625 -2.4863
  322MOL0     H43432   0.201   1.163   5.455  1.0979 -0.0941 -0.1605
  322MOL0     H43433   0.126   1.060   5.341  4.3233  2.5839 -0.0283
  322MOL0     H43434  -0.243   0.990   5.516  0.1340 -0.4976 -1.2249
  322MOL0     H43435  -0.485   1.022   5.559  0.2295  0.6476  1.8743
  322MOL0     H43436  -0.700   0.708   5.772  1.2485 -0.1915  0.7700
  322MOL0     H43437  -0.716   0.822   5.898  0.0161  0.8806  0.2365
  322MOL0     H43438  -0.938   0.803   5.807  1.7520 -1.3049  2.0851
  322MOL0     H43439  -0.882   0.946   5.715 -0.1578 -0.3885 -1.4040
  322MOL0     H43440  -0.916   0.658   5.631  0.7486 -1.6740 -0.7481
  322MOL0     H43441  -0.796   0.755   5.547  1.5394 -0.8900  2.5563
  322MOL0     H43442  -1.092   0.820   5.583  0.6134 -0.7913  1.2987
  322MOL0     H43443  -0.970   0.929   5.496 -0.5860 -0.0982  0.1765
  322MOL0     H43444  -0.921   0.763   5.338 -1.2174  1.9487 -1.6312
  322MOL0     H43445  -1.080   0.832   5.318 -0.3057 -1.0771  0.3369
  322MOL0     H43446  -1.019   0.541   5.430 -1.5424 -1.3184 -0.9736
  322MOL0     H43447  -1.176   0.610   5.431 -1.0914 -1.7935 -1.2363
  322MOL0     H43448  -1.122   0.453   5.257 -1.8053  1.1784 -0.2150
  322MOL0     H43449  -1.034   0.575   5.158  0.5024 -0.8871 -0.0132
  322MOL0     H43450  -1.256   0.593   5.075  1.6338 -1.7893 -0.2126
  322MOL0     H43451  -1.254   0.723   5.193  0.6608  0.5300  1.3398
  322MOL0     H43452  -0.475   0.734   5.870  0.9509  0.3519 -0.2508
  322MOL0     H43453  -0.250   0.671   5.799  0.0070  2.6405  4.8406
  322MOL0     H43454   0.159   0.678   5.696  0.7889 -2.9276 -0.9814
  322MOL0     H43455   0.408   0.657   5.626 -1.3138 -0.7079 -0.9453
  322MOL0     H43456   2.367   1.341   5.815  0.3987  0.0521  0.6742
  322MOL0     H43457   2.605   1.309   5.917  0.8628 -1.0928  0.3934
  322MOL0     H43458   2.886   1.085   6.112  0.1690 -0.2368 -1.5065
  322MOL0     H43459   3.130   1.092   6.127  1.1381 -0.0291  2.3967
  322MOL0     H43460   3.390   1.182   6.124 -1.8712 -1.8962  0.1066
  322MOL0     H43461   3.287   1.320   6.075  0.6177  1.1248  0.9477
  322MOL0     H43462   3.511   1.397   6.093 -1.5254 -0.3810 -1.2041
  322MOL0     H43463   3.527   1.333   6.260 -0.6818 -0.5418 -0.1701
  322MOL0     H43464   3.522   1.562   6.241  1.1678 -1.4712 -4.1090
  322MOL0     H43465   3.401   1.488   6.356 -2.2742  3.2933  0.8232
  322MOL0     H43466   3.210   1.548   6.205  0.0518 -0.7746 -0.6936
  322MOL0     H43467   3.328   1.579   6.074  1.1853  1.7199  0.1015
  322MOL0     H43468   3.379   1.934   6.304  1.9931 -2.1147  2.6842
  322MOL0     H43469   3.109   1.415   6.403 -0.3713  0.6355 -0.8539
  322MOL0     H43470   2.863   1.415   6.396  0.2816 -1.3953  2.5189
  323MOL0     O43471   6.272   2.725   1.423 -0.2928  0.0466 -0.1163
  323MOL0     C43472   6.305   2.606   1.421  0.5546 -0.2475 -0.1190
  323MOL0     O43473   6.223   2.507   1.462  0.4957 -0.2500  0.7847
  323MOL0     C43474   6.108   2.544   1.526  0.4029 -0.2205  0.0104
  323MOL0     C43475   5.986   2.487   1.491 -0.1162 -0.1214 -1.0303
  323MOL0     C43476   5.870   2.512   1.565 -0.4852 -0.5838  0.0618
  323MOL0     C43477   5.870   2.585   1.679 -0.4515  0.1204 -0.4067
  323MOL0     O43478   5.757   2.615   1.749 -0.0839  0.5007 -0.4381
  323MOL0     C43479   5.641   2.659   1.671 -1.1116  0.2010 -0.0512
  323MOL0     C43480   5.516   2.680   1.761 -0.2098 -1.0160  0.0798
  323MOL0     C43481   5.549   2.742   1.896 -0.3944  0.0032 -0.5645
  323MOL0     C43482   5.435   2.819   1.969 -0.3100  0.2781  0.0462
  323MOL0     C43483   5.302   2.738   1.980  0.1046  0.7812 -0.3269
  323MOL0     C43484   5.318   2.597   2.034 -0.8042 -0.0572  0.1532
  323MOL0     C43485   5.184   2.530   2.044 -0.2765  0.2684 -0.0453
  323MOL0     C43486   5.196   2.388   2.112 -0.4338  0.3168  0.7308
  323MOL0     N43487   5.081   2.305   2.079 -0.0120  0.7110  1.0685
  323MOL0     C43488   4.945   2.338   2.111 -1.1669 -0.5509  0.3512
  323MOL0     C43489   4.882   2.229   2.071  0.3445  0.0753 -1.0617
  323MOL0     C43490   4.734   2.192   2.084 -0.1202 -0.0556  0.1560
  323MOL0     C43491   4.658   2.243   2.214  0.0805  0.1536  0.1817
  323MOL0     C43492   4.609   2.386   2.186 -0.3552  0.4599 -0.7439
  323MOL0     C43493   4.508   2.411   2.065  0.4485 -0.0004 -0.0889
  323MOL0     O43494   4.398   2.317   2.075  0.1786  0.3798  0.1039
  323MOL0     C43495   4.283   2.356   2.020 -0.0841  0.9288  0.3527
  323MOL0     C43496   4.269   2.476   1.936  1.5209  0.1549 -0.8778
  323MOL0     C43497   4.144   2.496   1.876  0.0348  1.1534 -0.1602
  323MOL0     C43498   4.143   2.620   1.788 -0.3947  0.2751  0.3772
  323MOL0     C43499   4.029   2.422   1.912  0.4505 -0.5768  0.6141
  323MOL0     C43500   3.897   2.431   1.836  0.5368 -1.4636  0.2415
  323MOL0     O43501   3.787   2.428   1.917  0.1314  0.5280  0.1723
  323MOL0     C43502   3.657   2.461   1.878  0.4073  0.4984  0.4844
  323MOL0     C43503   3.625   2.577   1.810 -0.2246 -0.2934 -0.0688
  323MOL0     C43504   3.489   2.593   1.767 -0.3092 -0.7119 -1.1570
  323MOL0     C43505   3.383   2.512   1.798 -0.4763 -0.5512 -0.2633
  323MOL0     O43506   3.245   2.545   1.767 -0.1297 -0.3929  0.1501
  323MOL0     C43507   3.215   2.598   1.633 -0.9336 -0.2774  0.7292
  323MOL0     C43508   3.068   2.618   1.621 -0.1909  0.3114 -0.1482
  323MOL0     C43509   3.031   2.655   1.477 -0.7912  0.0692 -0.1314
  323MOL0     C43510   3.087   2.796   1.438 -0.7630  0.4544  0.4652
  323MOL0     C43511   2.986   2.868   1.347  0.2453  0.1378 -0.3832
  323MOL0     C43512   3.021   3.013   1.332 -0.0086  0.1457 -0.1573
  323MOL0     C43513   3.125   3.021   1.214 -0.2994 -0.0848  0.7654
  323MOL0     C43514   3.055   3.012   1.076  0.2307  0.0400  1.2016
  323MOL0    Cl43515   3.180   3.037   0.960  0.4092  0.0232 -0.0473
  323MOL0     C43516   3.422   2.405   1.866 -0.0064 -0.3762 -0.3134
  323MOL0     C43517   3.550   2.376   1.913 -0.2861 -1.0766  0.8879
  323MOL0     O43518   3.901   2.467   1.719  0.6304 -0.1360 -0.1585
  323MOL0     C43519   4.047   2.318   1.999 -0.2602  0.1105 -0.3650
  323MOL0     C43520   4.167   2.281   2.054  0.8639  1.1986 -0.0561
  323MOL0     N43521   4.969   2.141   2.007 -1.0087  0.5845 -0.6327
  323MOL0     N43522   5.091   2.182   2.015  0.0094  0.2633  0.0732
  323MOL0     C43523   5.989   2.638   1.718 -0.1772 -0.0352 -0.0390
  323MOL0     C43524   6.104   2.619   1.640 -0.9246  0.9975 -0.0830
  323MOL0     C43525   6.444   2.577   1.377 -0.2331 -0.9298 -0.8888
  323MOL0     C43526   6.530   2.683   1.337 -0.0262  0.6396  0.3400
  323MOL0     C43527   6.666   2.655   1.300  0.2473 -0.2833 -0.0526
  323MOL0     C43528   6.723   2.534   1.313 -0.7486  1.2747  0.8583
  323MOL0     O43529   6.854   2.518   1.281  0.1524  0.3351  0.7390
  323MOL0     C43530   6.905   2.381   1.264  0.5825  0.3024  0.4141
  323MOL0     C43531   7.053   2.374   1.212  0.8064  0.7782 -0.1606
  323MOL0     C43532   7.148   2.420   1.323  0.9001 -0.1988  0.6343
  323MOL0     C43533   7.283   2.458   1.282  0.2221  0.4835 -0.3284
  323MOL0     C43534   7.347   2.362   1.197 -0.2164  0.3789 -0.5452
  323MOL0     C43535   7.379   2.280   1.112  0.7468 -0.4522  1.0582
  323MOL0     C43536   6.639   2.427   1.352 -0.4852  0.5017 -0.9522
  323MOL0     C43537   6.505   2.447   1.377 -0.0211 -0.1447  0.3287
  323MOL0     H43538   5.986   2.410   1.414  1.2453 -1.5624  0.3398
  323MOL0     H43539   5.784   2.459   1.525  0.6181 -1.3756 -1.3603
  323MOL0     H43540   5.665   2.751   1.617 -0.8824  1.2657  1.7855
  323MOL0     H43541   5.620   2.584   1.594  1.0721 -1.8702  1.2347
  323MOL0     H43542   5.447   2.739   1.699  0.6850 -0.8647 -0.7897
  323MOL0     H43543   5.464   2.587   1.786 -1.6819  0.3272  2.4265
  323MOL0     H43544   5.585   2.659   1.958 -1.2462  0.9233  1.2458
  323MOL0     H43545   5.624   2.817   1.872  1.8416 -1.2962  1.7355
  323MOL0     H43546   5.473   2.830   2.071 -0.7397 -0.2445  0.2711
  323MOL0     H43547   5.417   2.915   1.921  1.2708 -0.7587 -2.8532
  323MOL0     H43548   5.232   2.804   2.032 -1.1702  1.6730 -3.0016
  323MOL0     H43549   5.256   2.739   1.881 -1.2413  1.4603  0.2803
  323MOL0     H43550   5.384   2.536   1.972 -1.9158 -0.8100 -0.3176
  323MOL0     H43551   5.370   2.602   2.131 -0.1162  2.2022 -0.2776
  323MOL0     H43552   5.118   2.583   2.113 -0.4348 -0.0044  0.0141
  323MOL0     H43553   5.140   2.519   1.944 -0.1346  3.1647 -0.4944
  323MOL0     H43554   5.200   2.408   2.220 -2.0414 -0.9915  1.0814
  323MOL0     H43555   5.293   2.342   2.091 -0.5658  0.8361 -1.1440
  323MOL0     H43556   4.905   2.430   2.153 -0.9185  0.0039 -0.5846
  323MOL0     H43557   4.684   2.231   1.995 -0.5722 -0.3302  0.2886
  323MOL0     H43558   4.733   2.083   2.079  1.1188 -0.0606 -0.1633
  323MOL0     H43559   4.725   2.243   2.300 -0.9435  0.7001  0.9942
  323MOL0     H43560   4.575   2.177   2.242 -0.2045  0.4175 -0.0431
  323MOL0     H43561   4.697   2.448   2.170 -0.3048  0.4820 -0.3965
  323MOL0     H43562   4.557   2.419   2.276  2.1127 -2.9930  2.2519
  323MOL0     H43563   4.563   2.402   1.971 -0.3327  2.7374 -0.9163
  323MOL0     H43564   4.475   2.515   2.068 -1.5177 -0.6023  2.3599
  323MOL0     H43565   4.343   2.548   1.904  1.4064  0.7801  0.1964
  323MOL0     H43566   4.192   2.708   1.833  0.1338  0.5890 -0.7594
  323MOL0     H43567   4.194   2.610   1.691  1.6898  2.5706  1.1158
  323MOL0     H43568   4.045   2.659   1.760  1.2154  1.7710 -4.1728
  323MOL0     H43569   3.701   2.649   1.784  0.2972 -0.7503  0.1617
  323MOL0     H43570   3.476   2.689   1.717 -0.6792 -0.3021 -0.3128
  323MOL0     H43571   3.265   2.695   1.631 -1.7176  0.1387  0.7938
  323MOL0     H43572   3.249   2.526   1.558 -2.3977 -0.5382  0.2809
  323MOL0     H43573   3.012   2.527   1.642 -0.4372  0.3378 -0.6683
  323MOL0     H43574   3.024   2.695   1.685 -2.9663 -2.1960  1.1998
  323MOL0     H43575   2.923   2.648   1.467 -0.7407  0.5509 -1.0568
  323MOL0     H43576   3.088   2.580   1.422 -1.0759 -0.1824 -0.0861
  323MOL0     H43577   3.098   2.860   1.525  0.1066 -0.0265  0.7154
  323MOL0     H43578   3.186   2.776   1.395 -0.8447 -1.7825  1.1966
  323MOL0     H43579   2.884   2.865   1.387 -0.1628  1.3522 -1.2822
  323MOL0     H43580   2.980   2.817   1.250  1.6776  3.8193 -2.5743
  323MOL0     H43581   2.925   3.063   1.314 -1.2211 -2.8935 -3.4914
  323MOL0     H43582   3.060   3.063   1.421  1.0071 -0.5426 -0.2102
  323MOL0     H43583   3.191   2.933   1.210 -1.7707 -1.2042 -0.3965
  323MOL0     H43584   3.175   3.117   1.232 -0.2982  0.0017  0.2927
  323MOL0     H43585   2.984   3.094   1.062  2.4408  2.1646  1.7877
  323MOL0     H43586   2.999   2.920   1.060 -2.7582  1.8639  0.3370
  323MOL0     H43587   3.337   2.344   1.895 -0.5452  0.0321 -0.9996
  323MOL0     H43588   3.577   2.294   1.979  0.2677 -2.8774 -1.4194
  323MOL0     H43589   3.962   2.251   2.010 -0.7356  0.6845 -0.4518
  323MOL0     H43590   4.168   2.199   2.124  0.7174  1.5064  0.3104
  323MOL0     H43591   5.988   2.706   1.803  1.6982 -0.0567  0.0310
  323MOL0     H43592   6.193   2.655   1.690 -0.7420  0.1758  0.1953
  323MOL0     H43593   6.479   2.778   1.322  0.4991  0.5866 -2.2776
  323MOL0     H43594   6.706   2.745   1.253 -0.6808  0.5133  0.6355
  323MOL0     H43595   6.900   2.326   1.359  0.9389  1.6465  1.2383
  323MOL0     H43596   6.842   2.324   1.195  0.0984  1.5208 -0.1655
  323MOL0     H43597   7.061   2.436   1.122 -1.3651  3.3076  1.2418
  323MOL0     H43598   7.095   2.276   1.187  0.8221  0.8309 -0.3425
  323MOL0     H43599   7.155   2.355   1.411 -3.9032  0.9604  2.2190
  323MOL0     H43600   7.101   2.510   1.366  1.8068 -0.4685  2.2841
  323MOL0     H43601   7.342   2.475   1.373  1.1653 -0.1202 -0.8071
  323MOL0     H43602   7.278   2.553   1.229  0.8738  0.1748 -0.9589
  323MOL0     H43603   7.400   2.208   1.036  3.7022  0.5550  0.7939
  323MOL0     H43604   6.673   2.326   1.370 -1.3357  0.3909  0.1390
  323MOL0     H43605   6.450   2.356   1.398  0.3533 -0.8202 -1.4681
  324MOL0     O43606   1.109   5.859   6.750  0.5007  0.0947  0.0626
  324MOL0     C43607   1.197   5.942   6.734  0.6715 -0.5496 -0.1286
  324MOL0     O43608   1.177   6.074   6.699 -0.5497 -0.3200 -0.6963
  324MOL0     C43609   1.054   6.109   6.655  1.1758  0.7982 -0.0903
  324MOL0     C43610   1.019   6.086   6.520  0.9854  0.0296 -0.3748
  324MOL0     C43611   0.891   6.146   6.475  0.0726 -0.1241 -0.0572
  324MOL0     C43612   0.815   6.219   6.566 -0.1221 -0.1467  1.3054
  324MOL0     O43613   0.687   6.264   6.535 -0.8891  0.3603  0.4121
  324MOL0     C43614   0.652   6.250   6.395  0.3014 -0.2968 -0.7574
  324MOL0     C43615   0.521   6.327   6.378 -0.5657 -0.1173  0.4227
  324MOL0     C43616   0.414   6.272   6.463  0.3303  0.8250 -0.7178
  324MOL0     C43617   0.292   6.369   6.450 -0.8006  0.4187  0.4407
  324MOL0     C43618   0.173   6.332   6.542  1.7290 -1.0159  0.2845
  324MOL0     C43619   0.044   6.399   6.489 -0.3618  0.4907 -0.2854
  324MOL0     C43620  -0.072   6.361   6.576 -1.2983  0.4702 -0.2110
  324MOL0     C43621  -0.195   6.416   6.507  0.1447 -0.0768  0.1162
  324MOL0     N43622  -0.322   6.386   6.576  0.0366 -0.4953 -0.6959
  324MOL0     C43623  -0.380   6.272   6.549 -0.4546 -0.2836  0.4143
  324MOL0     C43624  -0.492   6.273   6.622 -1.2825 -1.1213 -0.0964
  324MOL0     C43625  -0.589   6.163   6.625 -1.0493  0.7579 -1.1906
  324MOL0     C43626  -0.676   6.158   6.498 -1.4373 -0.5448 -0.0330
  324MOL0     C43627  -0.775   6.040   6.490 -0.4299  0.3940 -0.5250
  324MOL0     C43628  -0.691   5.905   6.485  0.4407 -0.1761  0.0228
  324MOL0     O43629  -0.602   5.906   6.373  0.0555  0.4358 -0.0224
  324MOL0     C43630  -0.468   5.922   6.382 -0.8697  0.2960 -0.7571
  324MOL0     C43631  -0.397   6.004   6.287  0.6191  0.1701  0.1764
  324MOL0     C43632  -0.260   6.030   6.281 -0.8548 -0.3887 -0.2270
  324MOL0     C43633  -0.209   6.103   6.161  0.3302 -0.6845 -0.0192
  324MOL0     C43634  -0.182   5.975   6.387 -0.9133 -0.1775 -0.1135
  324MOL0     C43635  -0.030   5.978   6.387  1.0004 -1.1070 -0.4789
  324MOL0     O43636   0.037   5.968   6.503 -0.2341 -0.4828  0.1507
  324MOL0     C43637   0.177   5.949   6.508 -0.1734  0.7230 -0.2363
  324MOL0     C43638   0.259   5.878   6.417  0.3281  0.0703 -0.3603
  324MOL0     C43639   0.396   5.847   6.451  0.1664  0.5882  0.5340
  324MOL0     C43640   0.460   5.897   6.565  0.1231  0.0250 -0.1895
  324MOL0     O43641   0.596   5.890   6.589 -0.0101 -0.2674 -0.9110
  324MOL0     C43642   0.655   5.770   6.554 -1.0184  0.1642  0.7304
  324MOL0     C43643   0.779   5.754   6.643  0.5169 -0.2926  0.6078
  324MOL0     C43644   0.854   5.626   6.630  1.0765 -0.3617  0.4080
  324MOL0     C43645   0.941   5.632   6.503  0.2809  0.4377 -0.4321
  324MOL0     C43646   1.017   5.498   6.480 -0.6057  0.0576 -0.1877
  324MOL0     C43647   1.150   5.518   6.412  0.2734 -0.3888 -0.0542
  324MOL0     C43648   1.203   5.386   6.350  0.0466 -0.5039  0.4879
  324MOL0     C43649   1.358   5.389   6.350 -0.0625 -0.6429  0.3600
  324MOL0    Cl43650   1.419   5.377   6.524  0.6980 -0.3385 -0.2182
  324MOL0     C43651   0.378   5.961   6.651  0.2106  0.3983 -0.4386
  324MOL0     C43652   0.237   5.984   6.631  0.5257  0.5049  0.3394
  324MOL0     O43653   0.022   5.988   6.274 -0.2219  0.1764 -0.0811
  324MOL0     C43654  -0.251   5.916   6.501 -0.3882 -0.2916 -0.0497
  324MOL0     C43655  -0.391   5.894   6.493 -0.1521  1.1625 -0.2516
  324MOL0     N43656  -0.488   6.385   6.699 -0.0206 -0.7183 -0.7622
  324MOL0     N43657  -0.378   6.452   6.674  0.4786  0.0309  0.3139
  324MOL0     C43658   0.850   6.231   6.693  0.3050  0.5013 -0.5137
  324MOL0     C43659   0.968   6.176   6.741 -0.6189  0.7815  0.0749
  324MOL0     C43660   1.337   5.892   6.744 -0.0777 -0.9692  1.8198
  324MOL0     C43661   1.445   5.979   6.713  0.0427 -0.3853 -0.4142
  324MOL0     C43662   1.575   5.928   6.700 -0.4105 -0.1733 -0.1989
  324MOL0     C43663   1.601   5.789   6.709  0.1797  0.4263 -0.4033
  324MOL0     O43664   1.728   5.763   6.693 -0.3526  0.3009  0.8779
  324MOL0     C43665   1.779   5.631   6.728 -0.6047  0.2306  0.2415
  324MOL0     C43666   1.929   5.631   6.691 -0.4906  1.0319 -0.8611
  324MOL0     C43667   2.006   5.740   6.769 -0.4825  0.6333  0.1526
  324MOL0     C43668   2.159   5.747   6.757  0.9301  1.0211  0.7978
  324MOL0     C43669   2.219   5.616   6.743 -0.2037 -0.7719  0.5654
  324MOL0     C43670   2.281   5.515   6.713  0.8801  0.4512  0.4790
  324MOL0     C43671   1.491   5.707   6.758 -0.1156  0.1624  0.1872
  324MOL0     C43672   1.367   5.760   6.760 -0.8578 -0.1005  0.3070
  324MOL0     H43673   1.073   6.031   6.444 -1.1028 -0.0812 -1.8731
  324MOL0     H43674   0.866   6.140   6.370  3.7951  1.2654 -1.1816
  324MOL0     H43675   0.721   6.291   6.321 -0.9297  1.8365 -0.7955
  324MOL0     H43676   0.646   6.146   6.362 -0.6624 -0.2056 -0.8764
  324MOL0     H43677   0.546   6.433   6.388  0.8633 -0.4961  1.0184
  324MOL0     H43678   0.491   6.311   6.274 -2.0582 -1.1699  0.9832
  324MOL0     H43679   0.379   6.174   6.430 -0.4686  0.3360  1.4211
  324MOL0     H43680   0.438   6.248   6.567  0.5367 -5.1598 -1.7597
  324MOL0     H43681   0.317   6.475   6.454 -3.4596  1.1822 -0.7404
  324MOL0     H43682   0.267   6.350   6.345  1.6892  0.7061 -0.2720
  324MOL0     H43683   0.143   6.226   6.537  1.8203 -0.9922 -1.7939
  324MOL0     H43684   0.192   6.355   6.647 -0.9926 -0.5777  0.7648
  324MOL0     H43685   0.065   6.507   6.499  0.9174  0.2023  0.4384
  324MOL0     H43686   0.031   6.378   6.382  1.6901 -0.4139 -0.4111
  324MOL0     H43687  -0.081   6.253   6.582  1.1118  0.3046  3.5531
  324MOL0     H43688  -0.050   6.411   6.671 -0.1850 -1.6127  0.6867
  324MOL0     H43689  -0.212   6.371   6.409  0.2547  2.4870 -1.1539
  324MOL0     H43690  -0.183   6.524   6.494  2.5304 -0.5432 -2.3500
  324MOL0     H43691  -0.352   6.189   6.484 -0.7572 -3.4149  3.9469
  324MOL0     H43692  -0.543   6.068   6.653 -1.6190  0.2851 -1.8258
  324MOL0     H43693  -0.654   6.187   6.709  0.8169  1.4024  0.1340
  324MOL0     H43694  -0.610   6.163   6.410 -0.7098  0.1093  0.5294
  324MOL0     H43695  -0.739   6.247   6.492 -2.0456 -0.9148  0.7755
  324MOL0     H43696  -0.824   6.044   6.392 -3.1178 -1.7849  0.5989
  324MOL0     H43697  -0.849   6.043   6.569 -1.3981 -0.0997 -1.3846
  324MOL0     H43698  -0.750   5.813   6.481  0.6254 -0.2779 -0.4530
  324MOL0     H43699  -0.626   5.910   6.573  1.5708  3.0599 -0.8697
  324MOL0     H43700  -0.458   6.051   6.211  0.6622  0.5633  0.3814
  324MOL0     H43701  -0.292   6.169   6.134 -0.8374 -1.2075  2.0659
  324MOL0     H43702  -0.122   6.160   6.196 -0.2762 -0.9546  2.0997
  324MOL0     H43703  -0.195   6.039   6.074 -2.9153 -2.3651  0.5416
  324MOL0     H43704   0.225   5.839   6.321 -0.2074 -2.5419  0.8152
  324MOL0     H43705   0.451   5.779   6.385 -1.2954 -0.5946  0.4621
  324MOL0     H43706   0.583   5.692   6.579 -1.8393  0.9600  0.9091
  324MOL0     H43707   0.686   5.765   6.449  0.3631  0.1797  1.1204
  324MOL0     H43708   0.853   5.826   6.608 -0.8555  1.0474  0.3851
  324MOL0     H43709   0.745   5.761   6.746 -1.3826 -0.8384  0.0656
  324MOL0     H43710   0.788   5.539   6.633 -1.3480  1.3429 -0.3172
  324MOL0     H43711   0.921   5.611   6.714  1.5088 -2.1331 -0.2045
  324MOL0     H43712   0.873   5.640   6.418 -0.6393 -0.5523  0.1852
  324MOL0     H43713   1.004   5.721   6.495  0.4207  0.2001 -2.5404
  324MOL0     H43714   0.951   5.430   6.425  0.1445 -1.6934  0.9702
  324MOL0     H43715   1.044   5.453   6.576 -1.9598  0.6280  0.4914
  324MOL0     H43716   1.132   5.596   6.338  0.5703  1.2449  1.5025
  324MOL0     H43717   1.224   5.560   6.482  2.2764  0.8132 -2.7192
  324MOL0     H43718   1.162   5.378   6.249 -2.8400  2.8421  1.1888
  324MOL0     H43719   1.165   5.298   6.403 -0.4535 -2.4296 -2.8089
  324MOL0     H43720   1.409   5.470   6.297  0.1742 -1.5863 -0.8830
  324MOL0     H43721   1.395   5.306   6.290 -0.6631  0.9515 -2.3945
  324MOL0     H43722   0.425   5.981   6.747  0.8520 -2.0627 -0.1680
  324MOL0     H43723   0.178   6.044   6.699 -2.6602 -2.2021  0.2217
  324MOL0     H43724  -0.188   5.875   6.580 -1.3526 -2.8615 -0.5355
  324MOL0     H43725  -0.437   5.825   6.563  1.3649 -0.8933 -1.1640
  324MOL0     H43726   0.777   6.269   6.765 -0.6797 -3.4882  0.8800
  324MOL0     H43727   0.993   6.183   6.846 -0.2694 -0.0388  0.0548
  324MOL0     H43728   1.435   6.085   6.694  1.3671 -0.4449 -1.6190
  324MOL0     H43729   1.656   5.997   6.679  0.6906 -1.7862 -1.4643
  324MOL0     H43730   1.776   5.614   6.836 -2.2363  0.7065  0.2984
  324MOL0     H43731   1.734   5.546   6.675  0.7232  0.3316 -1.1383
  324MOL0     H43732   1.937   5.643   6.583 -0.3413  3.0147 -0.6622
  324MOL0     H43733   1.969   5.530   6.707  0.2898  1.3609 -0.6889
  324MOL0     H43734   1.985   5.737   6.876  1.8750 -0.1608  0.6390
  324MOL0     H43735   1.969   5.836   6.730 -1.2825 -0.2125 -1.2605
  324MOL0     H43736   2.192   5.800   6.847 -0.7195  2.1818  0.7727
  324MOL0     H43737   2.175   5.810   6.669 -2.7786  2.6632  1.1151
  324MOL0     H43738   2.319   5.419   6.685  2.1884  1.6795 -2.3297
  324MOL0     H43739   1.495   5.602   6.786 -3.3640  0.5003  2.5332
  324MOL0     H43740   1.283   5.694   6.778 -1.1831  0.5995  1.3976
  325MOL0     O43741   1.437   2.275   7.166  0.2358  0.1438  0.8370
  325MOL0     C43742   1.463   2.349   7.073  0.0995 -0.1954 -0.0742
  325MOL0     O43743   1.378   2.443   7.022  0.0651 -0.4614 -0.2496
  325MOL0     C43744   1.250   2.448   7.078  0.0934  0.4148 -0.0538
  325MOL0     C43745   1.201   2.564   7.146 -0.6851 -0.2651  0.8265
  325MOL0     C43746   1.064   2.565   7.190  0.0771  0.7952 -0.7559
  325MOL0     C43747   0.987   2.447   7.194  0.0595  0.0354  0.4232
  325MOL0     O43748   0.853   2.441   7.241 -0.0073 -0.0310  0.3656
  325MOL0     C43749   0.843   2.503   7.380  0.7678  0.2498 -0.7177
  325MOL0     C43750   0.722   2.591   7.387  0.2292 -0.5118  0.3050
  325MOL0     C43751   0.588   2.531   7.344 -0.6467 -0.7324  0.5045
  325MOL0     C43752   0.471   2.631   7.361 -0.0413 -0.2878 -0.3770
  325MOL0     C43753   0.357   2.575   7.285  1.4357 -0.2844  0.1077
  325MOL0     C43754   0.234   2.668   7.271 -0.6615  0.1122  0.1590
  325MOL0     C43755   0.111   2.595   7.218  0.0391 -0.5185  0.0755
  325MOL0     C43756   0.096   2.604   7.066 -0.3664 -1.3336 -0.1319
  325MOL0     N43757  -0.049   2.578   7.053  0.0292  0.1005  1.3192
  325MOL0     C43758  -0.102   2.450   7.051  0.2018  0.4474  0.1234
  325MOL0     C43759  -0.233   2.464   7.033  0.3616 -0.2213 -0.3724
  325MOL0     C43760  -0.345   2.361   7.017  0.4349 -0.0686 -1.5601
  325MOL0     C43761  -0.486   2.422   7.031  0.9353  0.6573 -0.5367
  325MOL0     C43762  -0.592   2.316   7.036  0.5272  0.2262  0.3608
  325MOL0     C43763  -0.732   2.372   7.027  0.2080 -0.6928 -0.4031
  325MOL0     O43764  -0.756   2.431   6.900  0.5621 -0.5354 -1.0188
  325MOL0     C43765  -0.887   2.453   6.858  0.3948 -1.2885  0.0706
  325MOL0     C43766  -0.906   2.535   6.749  0.3668  1.1518  1.1230
  325MOL0     C43767  -1.029   2.572   6.692  1.2644  0.0471  0.1628
  325MOL0     C43768  -1.022   2.671   6.566 -0.2640 -0.2772 -0.6199
  325MOL0     C43769  -1.151   2.524   6.760  0.9102 -0.0659  0.4121
  325MOL0     C43770  -1.298   2.558   6.718  0.0967 -1.1202  1.2176
  325MOL0     O43771  -1.398   2.539   6.815 -0.3150 -0.0425 -0.1215
  325MOL0     C43772  -1.524   2.550   6.762  1.4563  0.5271  0.3814
  325MOL0     C43773  -1.595   2.670   6.767 -0.3926  0.6986  0.1468
  325MOL0     C43774  -1.727   2.663   6.734  0.4039 -0.7292 -0.4427
  325MOL0     C43775  -1.795   2.543   6.712 -0.2364  0.3427  0.0080
  325MOL0     O43776  -1.929   2.522   6.671 -0.5465  0.2073 -0.2190
  325MOL0     C43777  -1.979   2.629   6.593 -0.2306  0.1132 -0.0702
  325MOL0     C43778  -2.122   2.599   6.532 -0.5184 -1.5098 -0.4755
  325MOL0     C43779  -2.242   2.629   6.622  0.2128  0.1019  0.4404
  325MOL0     C43780  -2.290   2.773   6.615  0.4601 -0.7284  0.6654
  325MOL0     C43781  -2.411   2.783   6.709 -0.4004  0.3337  0.0348
  325MOL0     C43782  -2.473   2.915   6.697 -0.1356  0.3704  0.1101
  325MOL0     C43783  -2.589   2.921   6.791  0.1959  0.4309 -0.0932
  325MOL0     C43784  -2.692   3.032   6.768  0.3697  0.9930  0.6707
  325MOL0    Cl43785  -2.785   3.020   6.605  0.4036 -0.3442  0.3775
  325MOL0     C43786  -1.726   2.427   6.723 -0.1126 -0.2314 -0.6470
  325MOL0     C43787  -1.594   2.426   6.758 -0.8748 -0.3335  0.4578
  325MOL0     O43788  -1.316   2.603   6.607 -0.3968  0.2951  0.8906
  325MOL0     C43789  -1.134   2.446   6.878 -0.0150  0.3109  0.4995
  325MOL0     C43790  -1.005   2.427   6.924  0.2194  1.1048  0.2646
  325MOL0     N43791  -0.254   2.601   7.027 -0.1297 -0.3968  0.0963
  325MOL0     N43792  -0.141   2.672   7.044 -0.1649  0.4068 -0.2644
  325MOL0     C43793   1.039   2.333   7.129 -0.0921 -0.2060  1.0365
  325MOL0     C43794   1.161   2.336   7.071 -1.0699  0.3764  0.0905
  325MOL0     C43795   1.593   2.326   7.010 -0.1548 -0.0168 -0.0870
  325MOL0     C43796   1.672   2.426   6.975  0.1789  0.3949  0.2986
  325MOL0     C43797   1.794   2.407   6.917 -0.8089  0.6210  0.3906
  325MOL0     C43798   1.837   2.276   6.884 -0.6090 -0.1361  0.1517
  325MOL0     O43799   1.963   2.260   6.824  0.7554 -0.0341  0.0489
  325MOL0     C43800   2.044   2.137   6.835  0.6278  0.1579 -0.1847
  325MOL0     C43801   2.114   2.123   6.701 -0.4384 -0.0556 -0.2656
  325MOL0     C43802   2.228   2.021   6.703 -0.2358  0.7665 -0.1762
  325MOL0     C43803   2.309   2.018   6.572 -0.2305 -0.1294 -0.4188
  325MOL0     C43804   2.232   1.949   6.473 -0.7764 -0.2312  0.1127
  325MOL0     C43805   2.160   1.888   6.395  0.0514 -0.2793 -0.4116
  325MOL0     C43806   1.756   2.169   6.932 -0.2928  1.0347  0.0349
  325MOL0     C43807   1.640   2.193   6.996 -0.0493  0.9180 -0.2920
  325MOL0     H43808   1.268   2.649   7.155  1.5280 -1.8298  0.0129
  325MOL0     H43809   1.014   2.649   7.238  1.5207  1.5681 -0.5268
  325MOL0     H43810   0.823   2.414   7.440 -1.4465  1.8709  1.1315
  325MOL0     H43811   0.937   2.552   7.405  0.0661  2.7942 -2.5761
  325MOL0     H43812   0.713   2.618   7.492  2.5590  1.8480  0.0066
  325MOL0     H43813   0.744   2.676   7.321  2.0748 -1.3549 -0.2351
  325MOL0     H43814   0.594   2.493   7.242  2.1199  1.9507 -0.5127
  325MOL0     H43815   0.560   2.444   7.404  1.6219 -1.8923 -0.0042
  325MOL0     H43816   0.449   2.637   7.468  1.8575 -1.9595  0.1607
  325MOL0     H43817   0.492   2.730   7.320  0.0291 -0.9872 -2.1309
  325MOL0     H43818   0.393   2.553   7.184  0.6224 -6.0528  0.7223
  325MOL0     H43819   0.329   2.474   7.318 -1.2281  0.5958  0.8245
  325MOL0     H43820   0.211   2.708   7.370  0.7803  0.7412  0.2628
  325MOL0     H43821   0.260   2.759   7.215  0.4203  1.7435  3.1117
  325MOL0     H43822   0.122   2.490   7.246 -0.9654 -0.1172  2.1562
  325MOL0     H43823   0.025   2.633   7.273 -0.7642 -3.0167  0.6442
  325MOL0     H43824   0.151   2.525   7.015  2.4510 -0.3299  1.1675
  325MOL0     H43825   0.119   2.706   7.036 -1.8680 -0.5939  1.0959
  325MOL0     H43826  -0.049   2.355   7.050 -0.7177 -0.0803 -1.3106
  325MOL0     H43827  -0.326   2.311   6.922 -1.8975 -0.1247 -2.0647
  325MOL0     H43828  -0.330   2.290   7.099 -1.2535  1.9470  0.6670
  325MOL0     H43829  -0.509   2.499   6.957 -0.6088  3.5538  2.6649
  325MOL0     H43830  -0.504   2.475   7.126 -1.9935 -0.2139 -0.5061
  325MOL0     H43831  -0.581   2.263   7.131  2.3481  0.4342  0.2955
  325MOL0     H43832  -0.569   2.253   6.949 -0.4681 -0.5986  0.6766
  325MOL0     H43833  -0.750   2.442   7.109  2.7239  0.9194 -1.1048
  325MOL0     H43834  -0.799   2.288   7.049  0.7672 -1.0413  0.0044
  325MOL0     H43835  -0.815   2.563   6.697  0.7806 -0.1907  1.0968
  325MOL0     H43836  -1.081   2.763   6.574 -2.6876 -1.8815  1.6409
  325MOL0     H43837  -0.924   2.712   6.539 -0.7582 -0.6852 -3.3272
  325MOL0     H43838  -1.060   2.618   6.478  1.8518 -0.3969 -1.5298
  325MOL0     H43839  -1.540   2.762   6.779 -0.0151  0.3893  0.8429
  325MOL0     H43840  -1.787   2.753   6.720  0.2186 -1.0784 -2.1664
  325MOL0     H43841  -1.973   2.728   6.638  2.8104 -0.3924  0.8855
  325MOL0     H43842  -1.912   2.636   6.506  2.0505 -1.8142  1.4020
  325MOL0     H43843  -2.130   2.664   6.444  0.0216  0.8724  1.1336
  325MOL0     H43844  -2.116   2.493   6.506  1.9204 -1.4192 -0.4932
  325MOL0     H43845  -2.208   2.613   6.725  0.9991  0.3614  0.2322
  325MOL0     H43846  -2.319   2.557   6.593 -0.4718  0.8823  0.2789
  325MOL0     H43847  -2.207   2.839   6.644  2.8504 -3.4923  0.6426
  325MOL0     H43848  -2.321   2.788   6.511 -2.9138  1.1092  1.7831
  325MOL0     H43849  -2.381   2.771   6.813 -0.2234 -1.2518 -0.1825
  325MOL0     H43850  -2.481   2.703   6.684 -0.3588  0.1195  0.6052
  325MOL0     H43851  -2.413   3.004   6.719  0.8208  0.0211 -1.0071
  325MOL0     H43852  -2.510   2.919   6.594 -3.6645  2.6279  1.2906
  325MOL0     H43853  -2.555   2.941   6.893 -1.3203 -1.6631  0.9118
  325MOL0     H43854  -2.625   2.820   6.813  3.6575 -0.6123  1.4762
  325MOL0     H43855  -2.644   3.130   6.773 -1.0173  1.7587 -0.4529
  325MOL0     H43856  -2.755   3.034   6.857 -0.3346  0.6800  0.1919
  325MOL0     H43857  -1.771   2.328   6.718 -2.0891  0.5252  1.1027
  325MOL0     H43858  -1.541   2.333   6.777 -0.4940 -0.2996 -0.3833
  325MOL0     H43859  -1.222   2.396   6.919 -0.7053 -0.8647 -2.1516
  325MOL0     H43860  -1.007   2.382   7.023  3.3305  3.1203  1.3697
  325MOL0     H43861   0.980   2.243   7.118  0.5331 -0.2955 -2.8279
  325MOL0     H43862   1.203   2.246   7.027  1.6161  1.6150 -0.0547
  325MOL0     H43863   1.643   2.530   6.986  0.3190  0.4718 -0.0344
  325MOL0     H43864   1.854   2.493   6.889  0.8881 -1.6186 -3.7852
  325MOL0     H43865   2.104   2.147   6.926 -2.5855  1.9140  1.9578
  325MOL0     H43866   1.977   2.051   6.845 -1.0334  1.6453  3.4318
  325MOL0     H43867   2.156   2.219   6.669 -1.9876  0.3943 -1.0953
  325MOL0     H43868   2.041   2.089   6.627 -0.9586 -0.6926  0.5204
  325MOL0     H43869   2.192   1.922   6.730  0.3705  1.0599  1.8789
  325MOL0     H43870   2.282   2.042   6.796 -2.0999 -1.3686  1.4908
  325MOL0     H43871   2.412   1.983   6.586 -0.4021 -0.5914 -0.3027
  325MOL0     H43872   2.335   2.117   6.534  0.5620  0.7203  2.1573
  325MOL0     H43873   2.086   1.833   6.341 -2.1622  1.9904  0.1064
  325MOL0     H43874   1.790   2.066   6.927 -1.5000  0.5809  0.7266
  325MOL0     H43875   1.575   2.111   7.025 -0.6514  0.4372 -2.7702
  326MOL0     O43876   2.059   0.355   2.293  0.1556 -0.3680 -0.4332
  326MOL0     C43877   2.140   0.289   2.361  0.3225 -0.3134  0.1561
  326MOL0     O43878   2.129   0.160   2.379 -0.3656 -0.0737  0.3416
  326MOL0     C43879   2.015   0.091   2.333  0.6502 -0.6390 -0.0203
  326MOL0     C43880   1.908   0.065   2.420  0.0548 -0.4162 -0.0279
  326MOL0     C43881   1.788  -0.005   2.374 -0.2214 -0.5430 -0.6062
  326MOL0     C43882   1.772  -0.036   2.234 -0.8070  0.5327 -0.0384
  326MOL0     O43883   1.672  -0.103   2.166 -0.1350  0.1006  0.4959
  326MOL0     C43884   1.541  -0.079   2.225  0.8291  0.1224 -0.1397
  326MOL0     C43885   1.437  -0.175   2.157 -0.4903  0.0294 -0.0816
  326MOL0     C43886   1.294  -0.125   2.153  0.1975  0.6706 -0.1260
  326MOL0     C43887   1.255  -0.036   2.022  0.1238 -0.4154 -0.7045
  326MOL0     C43888   1.103   0.020   2.026 -0.3848 -0.1427 -0.2326
  326MOL0     C43889   0.996  -0.090   2.038  0.4853  0.1714  0.4560
  326MOL0     C43890   0.851  -0.037   2.008  0.3832  0.2514  0.2976
  326MOL0     C43891   0.807   0.065   2.117  0.3730 -0.1457  0.3912
  326MOL0     N43892   0.673   0.113   2.070  0.3859 -0.2509 -0.2109
  326MOL0     C43893   0.614   0.232   2.119  0.3676  1.2505  0.1520
  326MOL0     C43894   0.508   0.248   2.028  0.1774 -0.1769  0.4972
  326MOL0     C43895   0.441   0.385   2.013  0.1670  0.3082  0.2436
  326MOL0     C43896   0.309   0.395   2.091 -0.2442  0.4726 -0.1656
  326MOL0     C43897   0.208   0.277   2.060  0.5410  0.6846 -0.7129
  326MOL0     C43898   0.166   0.259   1.914  0.2908  0.6579  0.3158
  326MOL0     O43899   0.126   0.385   1.858 -0.0106  0.2626 -0.0685
  326MOL0     C43900   0.021   0.377   1.763 -0.2931 -0.4658  0.1001
  326MOL0     C43901  -0.034   0.504   1.731  0.2850 -0.0251  0.7305
  326MOL0     C43902  -0.137   0.517   1.637 -0.1277  0.1767 -1.3083
  326MOL0     C43903  -0.173   0.665   1.614  0.2799 -0.0366 -0.2500
  326MOL0     C43904  -0.195   0.401   1.579 -0.7844  0.6828 -0.4355
  326MOL0     C43905  -0.308   0.392   1.483  0.7269  0.2207  0.0445
  326MOL0     O43906  -0.390   0.282   1.483  0.2275 -0.2278  0.3452
  326MOL0     C43907  -0.495   0.273   1.392 -0.8282  0.0115  1.1547
  326MOL0     C43908  -0.480   0.179   1.287 -0.4188 -0.0616  0.7724
  326MOL0     C43909  -0.578   0.157   1.187 -0.7650 -0.1717  0.2282
  326MOL0     C43910  -0.672   0.252   1.175  0.4871 -0.4015 -0.3511
  326MOL0     O43911  -0.762   0.238   1.069 -0.0639  0.1597 -0.3639
  326MOL0     C43912  -0.857   0.341   1.032 -0.0797  0.0891 -0.6971
  326MOL0     C43913  -0.975   0.275   0.957 -0.1593  0.1351 -0.3157
  326MOL0     C43914  -1.063   0.377   0.889 -0.4170 -0.6919 -0.4715
  326MOL0     C43915  -1.199   0.316   0.844  0.6593 -0.8035 -0.2501
  326MOL0     C43916  -1.312   0.430   0.830  0.0547 -0.0308  0.8645
  326MOL0     C43917  -1.444   0.370   0.770  0.7080 -0.2111 -0.1086
  326MOL0     C43918  -1.427   0.275   0.650  0.5613 -0.4260  0.6569
  326MOL0     C43919  -1.561   0.254   0.581  0.0966 -1.0180 -0.8980
  326MOL0    Cl43920  -1.624   0.394   0.488 -0.1853  0.2479 -0.5941
  326MOL0     C43921  -0.688   0.359   1.274 -0.3491  0.6657 -0.5815
  326MOL0     C43922  -0.597   0.364   1.385 -0.4969  0.4508 -0.2697
  326MOL0     O43923  -0.334   0.499   1.427 -0.3389 -0.2698 -0.0676
  326MOL0     C43924  -0.140   0.276   1.619 -0.3207 -0.4511 -0.1182
  326MOL0     C43925  -0.042   0.265   1.712 -1.1031  0.3155 -0.2420
  326MOL0     N43926   0.489   0.137   1.948  0.2934 -0.1754  0.3862
  326MOL0     N43927   0.591   0.056   1.971  0.3823 -0.1102  0.1787
  326MOL0     C43928   1.888  -0.019   2.159 -0.3220  0.3017  0.8018
  326MOL0     C43929   2.003   0.047   2.199  0.3487 -0.7515  0.2140
  326MOL0     C43930   2.256   0.354   2.427 -0.6177 -0.6814  0.7608
  326MOL0     C43931   2.306   0.480   2.381  0.0807  0.1261 -0.7476
  326MOL0     C43932   2.419   0.533   2.446  0.2095 -0.5717 -0.0593
  326MOL0     C43933   2.478   0.470   2.556 -0.6782 -0.1593  0.0253
  326MOL0     O43934   2.585   0.515   2.631 -0.9609 -0.2533  0.0974
  326MOL0     C43935   2.631   0.649   2.597 -0.2890  0.2046 -0.4441
  326MOL0     C43936   2.750   0.683   2.688  0.1405  0.4227 -0.0209
  326MOL0     C43937   2.707   0.774   2.798  0.2086  0.0342  0.0287
  326MOL0     C43938   2.833   0.790   2.897  0.2691 -0.1619  0.9288
  326MOL0     C43939   2.889   0.923   2.866  0.5750 -0.0009  0.5802
  326MOL0     C43940   2.927   1.036   2.831  0.0046  0.0736  0.4336
  326MOL0     C43941   2.439   0.343   2.590  0.7239 -0.0236 -0.6435
  326MOL0     C43942   2.333   0.285   2.523  0.5715 -0.1809  0.5567
  326MOL0     H43943   1.906   0.103   2.522 -0.5977  1.9775 -0.8751
  326MOL0     H43944   1.714  -0.039   2.445  0.8592  0.1424  0.9148
  326MOL0     H43945   1.544  -0.087   2.335  2.5581  3.4726  0.1892
  326MOL0     H43946   1.514   0.024   2.200  1.7181  1.1191  2.5975
  326MOL0     H43947   1.462  -0.195   2.053  1.6261  2.9512 -0.2618
  326MOL0     H43948   1.425  -0.270   2.211 -2.7766  1.0712  1.3892
  326MOL0     H43949   1.232  -0.215   2.145  1.3755 -0.0908 -1.2593
  326MOL0     H43950   1.273  -0.065   2.242 -1.1330 -0.7764  0.5893
  326MOL0     H43951   1.333   0.040   2.032 -1.7692  1.2681  3.0287
  326MOL0     H43952   1.267  -0.101   1.935  1.9718  1.0407 -1.6001
  326MOL0     H43953   1.080   0.090   2.107  2.7473  2.6680 -1.5458
  326MOL0     H43954   1.096   0.077   1.933 -0.5293  0.9892  0.4487
  326MOL0     H43955   1.006  -0.176   1.972 -1.4651  0.7063 -0.6148
  326MOL0     H43956   1.007  -0.123   2.142  0.7969 -1.1251  0.0248
  326MOL0     H43957   0.836   0.032   1.925 -2.3380  1.1362  1.4237
  326MOL0     H43958   0.781  -0.120   1.994 -1.1681  1.5468  0.0467
  326MOL0     H43959   0.889   0.137   2.124  1.3115 -0.9930 -1.3225
  326MOL0     H43960   0.803   0.028   2.220  1.9215  1.2952  1.0043
  326MOL0     H43961   0.661   0.296   2.193  3.2854  1.0789 -1.4133
  326MOL0     H43962   0.514   0.464   2.035  4.0421 -2.1262 -2.4500
  326MOL0     H43963   0.414   0.399   1.908  0.9969  3.6739  0.3764
  326MOL0     H43964   0.255   0.488   2.069 -3.2096 -0.9461  0.6016
  326MOL0     H43965   0.331   0.387   2.198 -1.1915  0.3688  0.0268
  326MOL0     H43966   0.122   0.300   2.123  0.4654  2.6203 -1.4466
  326MOL0     H43967   0.256   0.187   2.100  0.1266  2.0273  3.2240
  326MOL0     H43968   0.094   0.177   1.911  0.8490  0.0953  1.7019
  326MOL0     H43969   0.256   0.227   1.860  1.2162  1.5258  1.2977
  326MOL0     H43970   0.013   0.596   1.765 -1.1990  0.1873  2.3217
  326MOL0     H43971  -0.096   0.714   1.554  2.2888 -0.8517  1.5169
  326MOL0     H43972  -0.273   0.680   1.571  0.7789  2.5660 -0.6914
  326MOL0     H43973  -0.173   0.728   1.704 -0.3422  0.0453 -0.3025
  326MOL0     H43974  -0.397   0.109   1.290 -1.2589 -1.1855 -0.7867
  326MOL0     H43975  -0.572   0.072   1.121 -3.6688 -1.8048  1.9142
  326MOL0     H43976  -0.913   0.380   1.118  0.3735  3.2632 -1.7156
  326MOL0     H43977  -0.807   0.423   0.980 -1.0647  0.6527 -0.7962
  326MOL0     H43978  -0.927   0.217   0.877 -2.8120 -0.3044 -1.7087
  326MOL0     H43979  -1.025   0.207   1.026  1.7964 -1.4557 -0.3692
  326MOL0     H43980  -1.007   0.400   0.798  0.5625 -1.5554 -0.1107
  326MOL0     H43981  -1.080   0.467   0.949 -1.9897 -1.4085  0.2244
  326MOL0     H43982  -1.174   0.262   0.752  4.4921  1.8493 -0.9826
  326MOL0     H43983  -1.246   0.254   0.921 -0.3571  0.7172  0.3906
  326MOL0     H43984  -1.274   0.510   0.765 -1.8770  1.1337  1.1044
  326MOL0     H43985  -1.330   0.486   0.922  0.1699 -0.4253  1.1287
  326MOL0     H43986  -1.497   0.328   0.856 -2.0050  2.0674 -0.5079
  326MOL0     H43987  -1.507   0.450   0.729  1.1814 -0.5315 -1.5317
  326MOL0     H43988  -1.402   0.174   0.682 -0.3249 -0.7624  0.3251
  326MOL0     H43989  -1.361   0.311   0.571 -1.9693  0.5656 -1.1631
  326MOL0     H43990  -1.636   0.216   0.651 -1.7282 -0.4525 -2.4426
  326MOL0     H43991  -1.547   0.177   0.505 -1.9492 -1.7761 -0.5681
  326MOL0     H43992  -0.775   0.422   1.259 -1.1802 -0.5429 -0.9365
  326MOL0     H43993  -0.595   0.448   1.455  0.3918 -0.3218  0.6618
  326MOL0     H43994  -0.187   0.186   1.580  1.4347 -0.7908 -1.5708
  326MOL0     H43995  -0.012   0.163   1.738 -0.1151  0.5196 -0.5635
  326MOL0     H43996   1.876  -0.045   2.054  0.1715 -1.7465  1.1963
  326MOL0     H43997   2.082   0.065   2.127 -0.3605  2.0246  0.0143
  326MOL0     H43998   2.260   0.529   2.296 -1.4763 -1.3534 -0.7973
  326MOL0     H43999   2.456   0.631   2.415 -2.3748 -0.5984 -3.8351
  326MOL0     H44000   2.673   0.637   2.496  3.7740 -3.0553  1.3058
  326MOL0     H44001   2.551   0.724   2.597  2.5476  3.5063 -0.5771
  326MOL0     H44002   2.831   0.739   2.642 -2.3335  2.1455 -2.5941
  326MOL0     H44003   2.788   0.591   2.732  2.1384  1.3396  0.2672
  326MOL0     H44004   2.619   0.734   2.849 -0.0429  0.9309  0.3122
  326MOL0     H44005   2.664   0.861   2.747 -3.6294 -2.0359 -0.6798
  326MOL0     H44006   2.903   0.706   2.885  0.7580  0.3044  0.5075
  326MOL0     H44007   2.798   0.796   3.000 -1.5578 -1.1299  0.4130
  326MOL0     H44008   2.963   1.130   2.795 -1.7289  1.2160  1.5511
  326MOL0     H44009   2.485   0.277   2.663  1.1990  0.1951 -0.7350
  326MOL0     H44010   2.317   0.182   2.552 -0.5711 -0.1368  0.1401
  327MOL0     O44011   7.126   5.378  11.002  0.0351 -0.8413  0.0234
  327MOL0     C44012   7.143   5.450  11.096 -0.2964 -0.8125 -0.3550
  327MOL0     O44013   7.065   5.453  11.209  0.4107  0.5264 -0.6360
  327MOL0     C44014   6.931   5.410  11.196  0.4883 -0.0112  0.1225
  327MOL0     C44015   6.826   5.497  11.235 -0.0651 -0.9845  0.4709
  327MOL0     C44016   6.689   5.470  11.236  0.3982  0.5152 -0.0802
  327MOL0     C44017   6.648   5.349  11.178  0.4883  0.2888 -0.8158
  327MOL0     O44018   6.517   5.323  11.154 -0.4183 -0.1437 -0.2102
  327MOL0     C44019   6.444   5.279  11.268 -0.7885 -0.3114  0.3084
  327MOL0     C44020   6.307   5.220  11.219  0.9809  0.5451  0.2800
  327MOL0     C44021   6.226   5.331  11.155  0.0793  0.1992 -0.8913
  327MOL0     C44022   6.164   5.426  11.263  0.4209  0.9489  0.6903
  327MOL0     C44023   6.104   5.554  11.203  0.1342  0.3061 -0.4586
  327MOL0     C44024   6.007   5.537  11.086  0.3930  0.0366  0.1120
  327MOL0     C44025   5.879   5.450  11.114  0.3702  0.0214  0.0365
  327MOL0     C44026   5.805   5.499  11.239 -0.1733  0.5686 -0.6396
  327MOL0     N44027   5.668   5.433  11.253  0.1728  0.3787 -0.3835
  327MOL0     C44028   5.631   5.302  11.280  0.4313 -0.2929 -0.4044
  327MOL0     C44029   5.493   5.301  11.286  0.5242 -0.9061  0.0719
  327MOL0     C44030   5.389   5.180  11.294 -0.6793  0.2331 -0.3937
  327MOL0     C44031   5.257   5.224  11.359  0.1332 -0.4110  0.9609
  327MOL0     C44032   5.156   5.112  11.335 -0.1742 -0.3043 -0.1938
  327MOL0     C44033   5.035   5.115  11.424  0.5763  0.2279 -1.0072
  327MOL0     O44034   4.935   5.032  11.370 -0.8092  0.1412 -1.1064
  327MOL0     C44035   4.814   5.091  11.349 -0.0447  0.3478 -1.1670
  327MOL0     C44036   4.721   5.055  11.444 -0.4561 -0.4454 -0.9172
  327MOL0     C44037   4.588   5.110  11.437  0.3926  0.1671  0.6870
  327MOL0     C44038   4.498   5.060  11.546 -1.6111 -0.0533  0.3057
  327MOL0     C44039   4.557   5.207  11.337 -0.2778 -0.2598 -0.0336
  327MOL0     C44040   4.418   5.264  11.321 -0.0388 -1.2245 -0.4073
  327MOL0     O44041   4.406   5.349  11.220 -0.0338 -0.0254  0.5083
  327MOL0     C44042   4.291   5.418  11.205 -0.1267 -0.3937  0.4335
  327MOL0     C44043   4.219   5.385  11.088 -0.8124 -0.8501 -0.6654
  327MOL0     C44044   4.101   5.460  11.071 -0.5787 -0.0241  0.3988
  327MOL0     C44045   4.054   5.553  11.163  0.0598  0.2108  0.2290
  327MOL0     O44046   3.928   5.602  11.135  0.4051  0.5589 -0.0450
  327MOL0     C44047   3.841   5.622  11.255 -0.3959  0.2918 -0.5364
  327MOL0     C44048   3.702   5.660  11.212  0.1089  0.0060  0.6509
  327MOL0     C44049   3.595   5.655  11.318  0.0180 -0.2476  0.4834
  327MOL0     C44050   3.461   5.658  11.239 -0.1520  0.2712 -0.1269
  327MOL0     C44051   3.347   5.673  11.329 -0.3889 -0.5262 -0.1186
  327MOL0     C44052   3.211   5.672  11.265  0.3249  0.3782 -0.1103
  327MOL0     C44053   3.098   5.662  11.362  0.1068  0.7269 -0.7226
  327MOL0     C44054   2.965   5.642  11.303 -0.1802 -0.4807 -0.4459
  327MOL0    Cl44055   2.860   5.566  11.431 -0.1248 -0.2372  0.2838
  327MOL0     C44056   4.129   5.581  11.276  0.2365 -0.4979 -0.2811
  327MOL0     C44057   4.249   5.516  11.295  0.3335 -0.0389  0.0129
  327MOL0     O44058   4.326   5.234  11.399  0.4433  1.1898 -0.0223
  327MOL0     C44059   4.657   5.234  11.238 -0.3715  0.0054 -0.3436
  327MOL0     C44060   4.786   5.174  11.250 -0.1831  0.1396  0.4728
  327MOL0     N44061   5.455   5.437  11.257 -0.2405  0.4970 -0.6804
  327MOL0     N44062   5.558   5.504  11.233  0.0048  0.0927  0.0305
  327MOL0     C44063   6.740   5.259  11.128 -0.2169 -0.0443 -0.1612
  327MOL0     C44064   6.879   5.284  11.141  0.5216 -0.5544 -0.8593
  327MOL0     C44065   7.274   5.509  11.108 -0.4094 -0.0412 -1.4196
  327MOL0     C44066   7.306   5.596  11.211 -0.5172 -0.1518 -0.3453
  327MOL0     C44067   7.429   5.653  11.219  0.9054 -0.0004  0.7855
  327MOL0     C44068   7.531   5.625  11.134 -0.0615  0.1775 -0.3684
  327MOL0     O44069   7.653   5.690  11.163 -0.1457 -0.2887 -0.3770
  327MOL0     C44070   7.748   5.695  11.053 -0.3228  0.1357 -0.5232
  327MOL0     C44071   7.837   5.575  11.082 -0.6389  0.2657  0.2070
  327MOL0     C44072   7.954   5.578  10.972 -0.3769  0.6280 -0.4113
  327MOL0     C44073   8.068   5.660  11.019 -0.5415 -0.8217  0.3371
  327MOL0     C44074   8.166   5.664  10.910  0.7009 -0.0485  1.0864
  327MOL0     C44075   8.244   5.669  10.817  0.5804 -0.6514  0.1768
  327MOL0     C44076   7.502   5.540  11.028  1.1517  0.1056 -0.2771
  327MOL0     C44077   7.373   5.488  11.009 -0.0744  0.2011  0.5877
  327MOL0     H44078   6.857   5.595  11.270  0.9397 -0.4880 -1.6132
  327MOL0     H44079   6.621   5.544  11.278  2.1863  2.8206 -1.0428
  327MOL0     H44080   6.498   5.202  11.325  1.2423  2.4466  2.3669
  327MOL0     H44081   6.445   5.364  11.336 -0.5578 -1.4771  1.8190
  327MOL0     H44082   6.320   5.130  11.158 -1.3367  0.3799 -0.0622
  327MOL0     H44083   6.245   5.180  11.300 -3.5774  1.0399 -2.6009
  327MOL0     H44084   6.281   5.395  11.086  1.7721  0.5478  0.7125
  327MOL0     H44085   6.145   5.277  11.103  1.8786 -2.1040 -1.4738
  327MOL0     H44086   6.095   5.366  11.324  0.9412  1.2813  1.6343
  327MOL0     H44087   6.246   5.463  11.326  0.2292  0.4797  1.2259
  327MOL0     H44088   6.056   5.604  11.288 -0.4672 -0.0792 -0.5636
  327MOL0     H44089   6.191   5.618  11.187 -1.9057  3.7658  1.1475
  327MOL0     H44090   5.972   5.636  11.054 -1.3273 -0.8519 -0.9153
  327MOL0     H44091   6.073   5.492  11.011 -0.3456 -0.8779 -0.0051
  327MOL0     H44092   5.802   5.448  11.036 -0.6687  0.4307  1.0282
  327MOL0     H44093   5.905   5.344  11.125 -1.1518 -0.3913 -0.0760
  327MOL0     H44094   5.783   5.606  11.232  0.1262  0.7745  1.0776
  327MOL0     H44095   5.851   5.487  11.338 -0.7118  0.4737 -0.3955
  327MOL0     H44096   5.683   5.207  11.276 -3.6943 -2.8038 -0.4946
  327MOL0     H44097   5.364   5.140  11.195  0.0721  1.3114 -1.0453
  327MOL0     H44098   5.430   5.101  11.358 -2.4567  1.4880  2.5302
  327MOL0     H44099   5.216   5.313  11.311 -0.5964 -0.5890  1.2369
  327MOL0     H44100   5.278   5.232  11.466  1.7682 -0.9641  0.7030
  327MOL0     H44101   5.210   5.017  11.347 -0.0195  0.0827  3.0686
  327MOL0     H44102   5.118   5.113  11.233  0.7356 -1.2243 -0.5528
  327MOL0     H44103   4.993   5.215  11.438 -0.9999 -0.1676 -2.5049
  327MOL0     H44104   5.057   5.076  11.524  2.6845  0.3235 -1.3893
  327MOL0     H44105   4.734   4.989  11.529 -3.6031  1.9754  1.7135
  327MOL0     H44106   4.438   4.983  11.497 -0.6867 -1.6615  1.6073
  327MOL0     H44107   4.558   5.021  11.629  0.3562 -0.1173 -1.0626
  327MOL0     H44108   4.444   5.141  11.596  0.0206  1.2764 -0.0185
  327MOL0     H44109   4.255   5.309  11.020  3.2854 -1.1538  1.5475
  327MOL0     H44110   4.042   5.445  10.981  1.5225 -2.2365 -0.7466
  327MOL0     H44111   3.829   5.521  11.298  0.7270 -0.0852 -1.0677
  327MOL0     H44112   3.881   5.691  11.329 -0.3186  1.7344 -1.8875
  327MOL0     H44113   3.701   5.764  11.175 -0.9622  0.1586  1.0889
  327MOL0     H44114   3.678   5.598  11.125 -2.6490  0.6755  0.8435
  327MOL0     H44115   3.601   5.739  11.389  1.0860 -0.3885  0.5713
  327MOL0     H44116   3.590   5.561  11.374 -3.4929 -0.1278  0.6380
  327MOL0     H44117   3.469   5.738  11.164  0.9873  0.7589  0.4931
  327MOL0     H44118   3.452   5.561  11.189 -0.9942  0.8664 -1.1752
  327MOL0     H44119   3.362   5.754  11.401  1.9774  0.6068 -1.7432
  327MOL0     H44120   3.358   5.581  11.387  1.6601 -0.1183  0.1811
  327MOL0     H44121   3.192   5.764  11.210  0.6422  0.0852 -0.7234
  327MOL0     H44122   3.216   5.590  11.192  2.6810  2.9045 -3.0412
  327MOL0     H44123   3.101   5.745  11.434 -0.1620 -0.9599  1.3163
  327MOL0     H44124   3.114   5.580  11.433  2.0743  1.7497  0.1408
  327MOL0     H44125   2.952   5.592  11.207  2.8482  3.1196 -3.0062
  327MOL0     H44126   2.938   5.746  11.283  1.6634  0.2265  0.5346
  327MOL0     H44127   4.102   5.651  11.355  2.5231 -1.3091  1.3370
  327MOL0     H44128   4.324   5.552  11.364  0.1484  2.5247 -1.0436
  327MOL0     H44129   4.629   5.304  11.160 -0.0856  0.5518  0.0296
  327MOL0     H44130   4.861   5.199  11.176  0.9513 -1.6697  0.9619
  327MOL0     H44131   6.702   5.164  11.094 -1.1288  0.4175 -0.4536
  327MOL0     H44132   6.964   5.222  11.115  1.6076 -0.2715  1.7459
  327MOL0     H44133   7.229   5.642  11.272  0.1864  0.9192 -0.2355
  327MOL0     H44134   7.444   5.729  11.295 -0.6918  1.7691 -0.5674
  327MOL0     H44135   7.703   5.692  10.954  1.5791 -2.9566 -1.4290
  327MOL0     H44136   7.814   5.782  11.055 -0.9795  0.7140 -2.3755
  327MOL0     H44137   7.781   5.481  11.076 -0.2890  0.1481 -1.6661
  327MOL0     H44138   7.882   5.589  11.181 -1.1273  1.2078  0.3101
  327MOL0     H44139   7.913   5.604  10.874 -1.4581  1.3772  0.2157
  327MOL0     H44140   7.991   5.475  10.964 -2.3077 -0.0303 -1.5247
  327MOL0     H44141   8.120   5.606  11.099  0.0322 -2.5612 -1.1415
  327MOL0     H44142   8.036   5.763  11.035 -0.2258 -0.3958 -1.5244
  327MOL0     H44143   8.291   5.660  10.721 -3.7001  0.1402 -2.2651
  327MOL0     H44144   7.579   5.510  10.957 -1.1694 -2.0769 -2.0468
  327MOL0     H44145   7.345   5.427  10.923 -1.4301 -3.1032  3.1391
  328MOL0     O44146   3.922   3.446   6.742  0.0851 -0.1015 -0.1774
  328MOL0     C44147   4.042   3.432   6.766 -0.9252  0.4140  0.2904
  328MOL0     O44148   4.089   3.388   6.884  0.1069 -0.3321 -0.3018
  328MOL0     C44149   4.000   3.322   6.960  0.4578  0.2542 -0.7843
  328MOL0     C44150   3.880   3.380   7.012  0.7013  0.1058  0.4742
  328MOL0     C44151   3.790   3.299   7.088  0.0848 -0.0977  0.2471
  328MOL0     C44152   3.812   3.156   7.104 -0.2928 -0.5559  0.1949
  328MOL0     O44153   3.720   3.073   7.168 -0.5147  0.4317  0.0698
  328MOL0     C44154   3.673   3.101   7.303  0.2887 -0.9162  0.2186
  328MOL0     C44155   3.601   2.978   7.370 -0.1003  0.2325 -0.6049
  328MOL0     C44156   3.470   2.915   7.302 -1.4128 -1.1020  0.3074
  328MOL0     C44157   3.397   2.807   7.382 -0.4051 -0.2456  0.2736
  328MOL0     C44158   3.255   2.796   7.325 -1.0123 -0.0474  0.3690
  328MOL0     C44159   3.155   2.707   7.389 -0.4181  0.0797  0.3612
  328MOL0     C44160   3.011   2.744   7.350  0.2601 -1.1361 -0.5637
  328MOL0     C44161   2.897   2.635   7.385 -0.4311 -0.1653  0.2048
  328MOL0     N44162   2.769   2.677   7.335 -0.3885  0.0885  0.1125
  328MOL0     C44163   2.698   2.783   7.387 -0.4658 -0.4791  0.0694
  328MOL0     C44164   2.592   2.788   7.301 -0.2727  0.7525  0.4136
  328MOL0     C44165   2.480   2.887   7.328 -0.5091 -0.4860 -0.3210
  328MOL0     C44166   2.518   3.035   7.326 -0.2212  0.3365  0.3172
  328MOL0     C44167   2.515   3.088   7.193 -0.3068 -0.5025 -0.2975
  328MOL0     C44168   2.584   3.233   7.190  0.5912  0.2470  0.0606
  328MOL0     O44169   2.716   3.226   7.239 -0.2358 -0.4124 -0.4396
  328MOL0     C44170   2.812   3.184   7.151 -0.1751 -0.2131 -0.1662
  328MOL0     C44171   2.832   3.237   7.019  0.2290  0.3779 -0.2403
  328MOL0     C44172   2.950   3.209   6.942 -0.0114  0.3746 -0.7941
  328MOL0     C44173   2.959   3.277   6.806  0.7254  0.5506  0.5054
  328MOL0     C44174   3.051   3.114   6.988  0.2795 -0.4952 -0.2543
  328MOL0     C44175   3.166   3.060   6.915  0.6377  0.3783  0.0790
  328MOL0     O44176   3.248   2.979   6.989  0.5759 -0.2552  0.0766
  328MOL0     C44177   3.354   2.932   6.918  0.1605  0.1741  0.7937
  328MOL0     C44178   3.347   2.806   6.853  0.1555 -0.2639  0.1129
  328MOL0     C44179   3.458   2.761   6.790 -0.1266  0.6231  0.4013
  328MOL0     C44180   3.586   2.816   6.808 -0.3471  0.0541 -0.1311
  328MOL0     O44181   3.697   2.746   6.750  0.1548 -0.2487  0.1333
  328MOL0     C44182   3.827   2.810   6.749 -0.2446 -0.4124  0.8624
  328MOL0     C44183   3.901   2.732   6.642  0.1238  0.3771  0.3419
  328MOL0     C44184   3.906   2.790   6.501 -0.1015 -0.0333 -0.2516
  328MOL0     C44185   3.774   2.764   6.424 -0.7273  0.4106 -0.0315
  328MOL0     C44186   3.773   2.832   6.286 -0.4485  0.0623  0.2886
  328MOL0     C44187   3.657   2.804   6.203  0.3370  0.3983 -0.1360
  328MOL0     C44188   3.667   2.862   6.061 -0.8761 -0.4667 -0.1794
  328MOL0     C44189   3.650   3.013   6.049 -0.8074 -0.7761  0.4225
  328MOL0    Cl44190   3.471   3.048   6.077 -0.2671  0.3583  0.0362
  328MOL0     C44191   3.597   2.927   6.888 -0.2087 -0.1047 -0.0663
  328MOL0     C44192   3.482   2.991   6.941  0.0344  1.0203  0.1665
  328MOL0     O44193   3.173   3.078   6.800  0.4915  0.3511 -0.1941
  328MOL0     C44194   3.024   3.062   7.120  0.3683 -0.1593 -0.2274
  328MOL0     C44195   2.910   3.102   7.196 -0.0736  0.2633 -0.6943
  328MOL0     N44196   2.599   2.692   7.203 -0.6735 -0.3481  0.6353
  328MOL0     N44197   2.704   2.620   7.225 -0.0780 -1.0436 -0.5584
  328MOL0     C44198   3.928   3.108   7.043 -0.3704  0.3836 -0.6216
  328MOL0     C44199   4.022   3.187   6.982 -0.5748  0.0050 -0.7082
  328MOL0     C44200   4.147   3.487   6.673  0.4268 -0.5584  0.5555
  328MOL0     C44201   4.102   3.503   6.539  0.8971  0.0709  0.0406
  328MOL0     C44202   4.193   3.547   6.438 -0.8710  0.5019 -0.1702
  328MOL0     C44203   4.325   3.580   6.468  1.3056 -0.7222 -0.4619
  328MOL0     O44204   4.400   3.621   6.361  0.3110  0.2176  0.2938
  328MOL0     C44205   4.535   3.669   6.381 -0.0654  1.0312  0.7291
  328MOL0     C44206   4.583   3.710   6.238  0.1833 -0.6172  0.4966
  328MOL0     C44207   4.506   3.833   6.169 -0.0111  0.1840 -0.5964
  328MOL0     C44208   4.591   3.915   6.067  0.1841  0.4680  0.6911
  328MOL0     C44209   4.685   4.015   6.126  0.0997 -0.5459 -0.2390
  328MOL0     C44210   4.754   4.097   6.179 -0.6639  0.3872 -0.5556
  328MOL0     C44211   4.359   3.565   6.599 -0.2074 -0.4704  0.7511
  328MOL0     C44212   4.277   3.518   6.700 -0.2905 -0.0955 -0.6947
  328MOL0     H44213   3.854   3.484   6.991  0.4828 -0.1276 -0.4506
  328MOL0     H44214   3.692   3.336   7.117 -0.1969  0.1550 -0.9863
  328MOL0     H44215   3.746   3.145   7.372  0.4889 -1.6988  0.5202
  328MOL0     H44216   3.602   3.183   7.288  0.9799 -0.6156 -1.6876
  328MOL0     H44217   3.675   2.898   7.382  0.8607  0.9884 -1.3612
  328MOL0     H44218   3.575   3.016   7.469  3.6551 -0.7695  0.9284
  328MOL0     H44219   3.403   2.995   7.270 -0.3489  0.5681  2.0822
  328MOL0     H44220   3.506   2.863   7.212  0.1273 -2.1176  1.4596
  328MOL0     H44221   3.445   2.710   7.368 -0.8498 -0.8385  2.4888
  328MOL0     H44222   3.397   2.816   7.491  1.7530  2.7436  0.1481
  328MOL0     H44223   3.226   2.899   7.306 -1.2033 -0.0294  0.7608
  328MOL0     H44224   3.264   2.762   7.221 -0.6470 -1.4786  0.8428
  328MOL0     H44225   3.173   2.602   7.363 -0.4661 -0.0436  0.8265
  328MOL0     H44226   3.162   2.729   7.495 -4.1329  2.6524  0.2615
  328MOL0     H44227   2.983   2.838   7.401  1.6880 -0.4470 -1.0124
  328MOL0     H44228   3.011   2.775   7.245  1.2035 -0.6409 -0.4285
  328MOL0     H44229   2.878   2.616   7.491 -2.1507  0.6053  0.0645
  328MOL0     H44230   2.923   2.540   7.338  0.4073  0.3005 -0.3091
  328MOL0     H44231   2.703   2.832   7.484 -1.5387 -2.5743  1.2537
  328MOL0     H44232   2.403   2.857   7.258 -1.8241 -1.8173  1.6117
  328MOL0     H44233   2.429   2.876   7.425 -2.6425 -0.8091 -1.4285
  328MOL0     H44234   2.622   3.040   7.361 -0.9167  0.1485  2.5524
  328MOL0     H44235   2.458   3.090   7.398  0.0593  0.1540  0.6974
  328MOL0     H44236   2.408   3.091   7.174 -0.9865 -1.3837  2.8693
  328MOL0     H44237   2.572   3.023   7.126  1.2378  0.3864  0.0864
  328MOL0     H44238   2.530   3.300   7.257 -1.3738 -1.7076  0.5274
  328MOL0     H44239   2.583   3.279   7.091  4.2455 -1.0764 -0.7865
  328MOL0     H44240   2.762   3.313   6.985 -0.2066  0.8365  1.5439
  328MOL0     H44241   3.051   3.335   6.792 -0.6942  2.6285 -0.9516
  328MOL0     H44242   2.953   3.194   6.736 -0.4166  0.4050  0.7605
  328MOL0     H44243   2.873   3.341   6.786  1.5263  2.5988  3.0198
  328MOL0     H44244   3.248   2.761   6.861 -0.6122  1.5718  2.2397
  328MOL0     H44245   3.440   2.678   6.723 -0.9087  1.6861 -0.7783
  328MOL0     H44246   3.816   2.913   6.713  1.3461 -0.8396 -1.0499
  328MOL0     H44247   3.872   2.798   6.848 -0.7065 -0.1957  1.0998
  328MOL0     H44248   4.006   2.730   6.669  0.4481 -0.6865 -0.8856
  328MOL0     H44249   3.862   2.630   6.643  1.6642 -0.2655 -1.0885
  328MOL0     H44250   3.998   2.754   6.452  0.1900 -0.7335  0.7787
  328MOL0     H44251   3.916   2.898   6.510  0.5933 -0.2268  1.7671
  328MOL0     H44252   3.755   2.656   6.413 -3.1254  0.9047 -1.4512
  328MOL0     H44253   3.689   2.806   6.478 -0.0954  2.4212 -0.5376
  328MOL0     H44254   3.860   2.799   6.230 -0.2029  1.4160 -0.1736
  328MOL0     H44255   3.793   2.940   6.293  1.3333 -0.2552  0.6302
  328MOL0     H44256   3.652   2.696   6.183 -1.1321  0.8859 -2.9180
  328MOL0     H44257   3.563   2.841   6.246  1.0201  1.0835  0.7823
  328MOL0     H44258   3.603   2.805   5.993  0.1770 -1.0322 -0.7270
  328MOL0     H44259   3.765   2.840   6.017 -0.5285 -0.3397  0.5185
  328MOL0     H44260   3.671   3.041   5.946  0.0779  0.3886  0.8971
  328MOL0     H44261   3.715   3.082   6.103 -2.6942  1.7877 -0.3907
  328MOL0     H44262   3.694   2.973   6.904  0.1905 -0.3250 -1.6250
  328MOL0     H44263   3.486   3.076   7.008 -0.2094  3.6724 -2.9302
  328MOL0     H44264   3.102   3.010   7.175  0.4027 -0.0668 -0.1871
  328MOL0     H44265   2.887   3.056   7.292 -1.1634 -2.2644 -2.0497
  328MOL0     H44266   3.960   3.006   7.064  0.9638  1.3769  2.9900
  328MOL0     H44267   4.115   3.148   6.942 -1.1359 -0.2563 -1.7706
  328MOL0     H44268   4.003   3.467   6.514  0.9509  0.7093 -1.1933
  328MOL0     H44269   4.148   3.579   6.345 -3.0879  0.9844  1.0053
  328MOL0     H44270   4.542   3.753   6.451  0.2384 -0.3085  2.3566
  328MOL0     H44271   4.592   3.585   6.421 -1.6682 -0.8944 -0.7936
  328MOL0     H44272   4.553   3.622   6.180 -0.9407  0.3330 -0.4017
  328MOL0     H44273   4.692   3.724   6.238 -0.0446  1.4886  0.1229
  328MOL0     H44274   4.475   3.906   6.245 -0.5799 -0.3789 -0.2691
  328MOL0     H44275   4.419   3.806   6.109 -1.7206  0.4554  1.6158
  328MOL0     H44276   4.525   3.968   5.998 -0.4288 -1.1925 -0.0570
  328MOL0     H44277   4.642   3.848   5.997  1.3492  2.0226 -0.0314
  328MOL0     H44278   4.823   4.154   6.238  0.1235  2.0590 -2.9831
  328MOL0     H44279   4.460   3.600   6.617 -0.9683  2.4936 -0.0903
  328MOL0     H44280   4.321   3.514   6.799  1.4554 -0.5711 -1.4531
  329MOL0     O44281   3.882   1.199   6.896 -0.0244 -0.2293  0.0908
  329MOL0     C44282   3.927   1.242   6.788  0.5063 -0.3334  0.4516
  329MOL0     O44283   3.864   1.214   6.664 -0.4941  0.1311  0.0345
  329MOL0     C44284   3.743   1.142   6.659 -0.8175 -0.8771 -0.7455
  329MOL0     C44285   3.719   1.031   6.729 -0.0222  0.5099  0.1180
  329MOL0     C44286   3.588   0.980   6.723  0.5210  1.2034  0.2177
  329MOL0     C44287   3.484   1.038   6.644  0.6845 -0.1167 -1.2289
  329MOL0     O44288   3.368   0.963   6.649  0.0734  0.9630  0.8641
  329MOL0     C44289   3.249   1.026   6.589  0.0836 -0.0397 -0.4414
  329MOL0     C44290   3.130   0.937   6.607  0.3715  0.2306 -0.2750
  329MOL0     C44291   3.002   0.994   6.546  0.3518 -0.7911  0.4429
  329MOL0     C44292   2.882   0.903   6.555  0.1523 -0.2841  0.0331
  329MOL0     C44293   2.756   0.954   6.468  0.1818  0.3054  0.0811
  329MOL0     C44294   2.641   0.861   6.475 -0.1394 -0.3240  0.0646
  329MOL0     C44295   2.525   0.920   6.394 -0.5907 -0.5226 -0.5629
  329MOL0     C44296   2.421   0.816   6.379  1.0966 -0.4859  0.0099
  329MOL0     N44297   2.292   0.875   6.339  0.6428 -0.6957 -0.1598
  329MOL0     C44298   2.224   0.868   6.215 -0.1231 -0.7617  0.3656
  329MOL0     C44299   2.103   0.928   6.244  0.2255  0.0335  0.5951
  329MOL0     C44300   1.992   0.942   6.146 -0.2876  0.5852 -0.1648
  329MOL0     C44301   1.859   0.900   6.216 -0.2655 -0.3421 -0.8157
  329MOL0     C44302   1.755   0.889   6.103  0.2931 -0.4716 -0.3474
  329MOL0     C44303   1.620   0.848   6.165 -0.1193 -0.2316  0.4276
  329MOL0     O44304   1.582   0.942   6.261 -0.0891 -0.8092 -0.7533
  329MOL0     C44305   1.484   1.042   6.228  0.0619  1.1019 -0.4421
  329MOL0     C44306   1.413   1.107   6.334 -0.8677  0.0231 -0.0687
  329MOL0     C44307   1.307   1.197   6.311 -0.5775 -0.5463  0.2099
  329MOL0     C44308   1.259   1.264   6.432  0.7751  0.0775 -0.7410
  329MOL0     C44309   1.273   1.233   6.177  0.2298  0.2947  0.7286
  329MOL0     C44310   1.150   1.312   6.136  0.4503 -0.4121 -0.2470
  329MOL0     O44311   1.065   1.345   6.241 -0.7938  0.0546  0.9686
  329MOL0     C44312   0.961   1.433   6.218  0.1770  0.0225 -0.3220
  329MOL0     C44313   0.922   1.516   6.321 -0.9626 -0.8720 -0.0226
  329MOL0     C44314   0.816   1.601   6.303 -0.4531 -0.0942 -0.5468
  329MOL0     C44315   0.736   1.607   6.201  0.0006 -0.1820  0.5179
  329MOL0     O44316   0.647   1.712   6.199 -0.5048 -0.0655  0.4856
  329MOL0     C44317   0.529   1.703   6.115  1.1676 -0.0643  0.6002
  329MOL0     C44318   0.566   1.747   5.974 -0.3518 -0.6799 -0.3539
  329MOL0     C44319   0.495   1.664   5.874  0.3529  0.4658 -0.4777
  329MOL0     C44320   0.348   1.701   5.857  0.7067 -0.0381  0.2986
  329MOL0     C44321   0.310   1.684   5.709  0.6188  0.5258  0.5872
  329MOL0     C44322   0.316   1.533   5.671 -0.1626  0.1513  0.8498
  329MOL0     C44323   0.227   1.487   5.553  0.0220 -0.3500  0.8025
  329MOL0     C44324   0.083   1.453   5.601 -0.3915 -0.0591  0.0806
  329MOL0    Cl44325  -0.006   1.601   5.658 -0.4595 -0.1397  0.0500
  329MOL0     C44326   0.759   1.507   6.101  0.3370 -0.0466 -0.7929
  329MOL0     C44327   0.872   1.428   6.108 -0.1632 -0.2145 -0.5621
  329MOL0     O44328   1.140   1.342   6.019 -0.0745  0.0418 -0.2145
  329MOL0     C44329   1.356   1.176   6.079 -0.0379  0.7650  0.3597
  329MOL0     C44330   1.448   1.076   6.099 -0.1071  0.5231  0.1759
  329MOL0     N44331   2.102   0.979   6.371 -0.4267 -0.6786  0.5038
  329MOL0     N44332   2.217   0.948   6.424  0.2936 -0.5828 -0.0018
  329MOL0     C44333   3.514   1.152   6.580 -0.2340  0.1329  0.4153
  329MOL0     C44334   3.642   1.198   6.582 -0.2319 -0.0339 -0.6566
  329MOL0     C44335   4.049   1.329   6.766  0.3193 -0.2223  0.3175
  329MOL0     C44336   4.123   1.352   6.885  0.1780 -0.3446 -0.1094
  329MOL0     C44337   4.261   1.397   6.873 -0.1448 -0.5936 -0.4272
  329MOL0     C44338   4.305   1.452   6.750 -0.1386 -1.0557 -0.3146
  329MOL0     O44339   4.423   1.516   6.735 -0.2793 -0.8774  0.3982
  329MOL0     C44340   4.527   1.481   6.823  0.0597 -0.8379 -0.5810
  329MOL0     C44341   4.668   1.520   6.764 -0.4844  0.1513 -0.4975
  329MOL0     C44342   4.794   1.459   6.835 -0.1414 -0.6225  0.4828
  329MOL0     C44343   4.820   1.509   6.985 -0.6782 -0.3758  0.0578
  329MOL0     C44344   4.719   1.477   7.080  0.6127  0.8511  0.3623
  329MOL0     C44345   4.631   1.462   7.159 -0.5203  0.0635 -0.3347
  329MOL0     C44346   4.223   1.444   6.640 -0.3279 -0.5304 -0.0315
  329MOL0     C44347   4.100   1.373   6.640 -0.0161 -0.0451  0.4845
  329MOL0     H44348   3.802   0.989   6.783 -0.7056 -1.6900 -0.4640
  329MOL0     H44349   3.569   0.887   6.776  0.5525  0.9289 -0.2508
  329MOL0     H44350   3.225   1.128   6.622 -0.5507 -0.3601  0.1223
  329MOL0     H44351   3.275   1.043   6.484  0.5240  1.2427 -0.1525
  329MOL0     H44352   3.149   0.833   6.580  2.8633  0.8203 -1.0344
  329MOL0     H44353   3.111   0.935   6.715 -2.0099 -0.9084 -0.6534
  329MOL0     H44354   2.984   1.089   6.597  1.0104 -0.4520  0.0630
  329MOL0     H44355   3.019   1.018   6.440  1.5067 -0.5513  0.6678
  329MOL0     H44356   2.902   0.798   6.533  1.8320  0.2654 -1.3319
  329MOL0     H44357   2.847   0.908   6.658  2.5562 -1.9815  1.0321
  329MOL0     H44358   2.741   1.061   6.485  3.8759  0.7054  1.8216
  329MOL0     H44359   2.783   0.954   6.362 -2.5057 -0.0624 -0.6859
  329MOL0     H44360   2.665   0.758   6.448  2.4795  0.0137  0.8620
  329MOL0     H44361   2.602   0.857   6.577  0.6941  0.3781  0.4226
  329MOL0     H44362   2.498   1.010   6.450  0.3697 -1.4372  1.4453
  329MOL0     H44363   2.561   0.956   6.297 -0.3348 -0.2505 -0.3677
  329MOL0     H44364   2.420   0.757   6.471  0.2583 -0.1024  0.2611
  329MOL0     H44365   2.442   0.745   6.298 -1.8736 -2.4788  0.7855
  329MOL0     H44366   2.252   0.821   6.121 -1.5314 -1.0963  0.0839
  329MOL0     H44367   1.986   1.042   6.102 -0.2150  0.0628 -1.4129
  329MOL0     H44368   2.015   0.879   6.060 -0.7440  3.5578 -2.6369
  329MOL0     H44369   1.822   0.967   6.294  3.3854 -0.2571  1.0678
  329MOL0     H44370   1.870   0.797   6.254  0.4984  0.2677  0.7234
  329MOL0     H44371   1.794   0.820   6.028 -0.2792 -1.2079  0.0195
  329MOL0     H44372   1.742   0.986   6.055 -0.6805 -1.1267 -1.4675
  329MOL0     H44373   1.625   0.750   6.214 -2.0497  0.0778  1.3324
  329MOL0     H44374   1.546   0.828   6.087 -1.1482 -1.1327  1.5891
  329MOL0     H44375   1.454   1.086   6.433 -2.6701 -2.7421  0.1857
  329MOL0     H44376   1.152   1.270   6.451  0.8917 -1.2114  0.4957
  329MOL0     H44377   1.292   1.215   6.524 -1.2389  1.9887  1.1428
  329MOL0     H44378   1.300   1.366   6.437 -0.5206  0.5944  3.9549
  329MOL0     H44379   0.973   1.513   6.417  2.4662  2.4592 -1.4718
  329MOL0     H44380   0.795   1.673   6.382  1.4117  0.9899 -0.9882
  329MOL0     H44381   0.500   1.598   6.112  0.1108  0.2343 -0.2023
  329MOL0     H44382   0.439   1.760   6.141  0.7804  0.9647 -2.5974
  329MOL0     H44383   0.552   1.854   5.960 -1.8023 -1.0875 -2.6834
  329MOL0     H44384   0.675   1.739   5.964 -0.2581 -1.1743  0.8999
  329MOL0     H44385   0.504   1.559   5.903  1.1639  0.4188 -0.8639
  329MOL0     H44386   0.547   1.674   5.778  1.4788  1.2609  0.1913
  329MOL0     H44387   0.277   1.647   5.921  0.0917 -0.9361 -1.1066
  329MOL0     H44388   0.330   1.807   5.878 -3.8828 -0.5200 -0.2308
  329MOL0     H44389   0.376   1.732   5.636  1.8251  0.0624  1.3425
  329MOL0     H44390   0.209   1.726   5.703  0.6998  0.7359  0.6974
  329MOL0     H44391   0.420   1.510   5.649 -0.6374  0.8080 -2.6121
  329MOL0     H44392   0.286   1.471   5.756  1.1112  0.0042  1.2088
  329MOL0     H44393   0.267   1.398   5.503  2.7570  1.9702 -1.4083
  329MOL0     H44394   0.219   1.563   5.476 -0.8996 -1.1234  0.1039
  329MOL0     H44395   0.083   1.379   5.681  0.9071  0.1596  0.3029
  329MOL0     H44396   0.021   1.423   5.516 -1.8963  0.1860  1.0651
  329MOL0     H44397   0.683   1.496   6.024  1.0869 -0.4970 -1.4864
  329MOL0     H44398   0.901   1.360   6.029  1.2906 -0.8598  0.4699
  329MOL0     H44399   1.337   1.219   5.982  1.2490  1.3101  0.3330
  329MOL0     H44400   1.498   1.035   6.012  1.7854  1.0209  0.9635
  329MOL0     H44401   3.439   1.204   6.521 -0.8606 -1.0414  0.1597
  329MOL0     H44402   3.664   1.289   6.526  0.1836  1.2362  1.4787
  329MOL0     H44403   4.086   1.335   6.986  0.5425 -0.6259 -0.0178
  329MOL0     H44404   4.319   1.406   6.964 -0.4287 -1.8010 -0.1060
  329MOL0     H44405   4.507   1.530   6.919 -0.6579 -1.2703 -0.5053
  329MOL0     H44406   4.531   1.373   6.838  1.6522 -0.5552  1.4045
  329MOL0     H44407   4.677   1.629   6.762 -1.8363  0.6731  5.0061
  329MOL0     H44408   4.667   1.492   6.658  0.5969 -0.4260 -0.3647
  329MOL0     H44409   4.882   1.480   6.773 -1.7691 -1.0728 -2.1322
  329MOL0     H44410   4.790   1.350   6.841  0.3539 -0.6999 -0.4301
  329MOL0     H44411   4.841   1.615   7.000  3.3279 -1.3732  3.2182
  329MOL0     H44412   4.917   1.467   7.012 -1.7306 -3.0305  0.0418
  329MOL0     H44413   4.554   1.439   7.230  0.4675  0.0399  0.7664
  329MOL0     H44414   4.260   1.480   6.545  1.4305 -1.7236  0.1500
  329MOL0     H44415   4.049   1.341   6.549  0.3654  1.7767 -0.4024
  330MOL0     O44416   6.409   0.579   0.655 -0.0877  0.3619 -0.0968
  330MOL0     C44417   6.529   0.545   0.684 -0.0742 -1.0828 -0.1999
  330MOL0     O44418   6.574   0.526   0.811  0.4572 -0.5817 -0.8838
  330MOL0     C44419   6.477   0.556   0.908 -0.0781 -0.2880 -0.8136
  330MOL0     C44420   6.367   0.480   0.942 -0.4718  0.0702  0.8163
  330MOL0     C44421   6.294   0.508   1.055  0.2983  0.4621  0.4397
  330MOL0     C44422   6.309   0.626   1.123  0.2998 -0.1230  0.5126
  330MOL0     O44423   6.227   0.659   1.232  0.1582 -0.1168 -0.0691
  330MOL0     C44424   6.186   0.553   1.319 -0.4893  0.5544 -0.8124
  330MOL0     C44425   6.092   0.599   1.440 -0.7741  0.4236 -0.2471
  330MOL0     C44426   5.968   0.666   1.380 -0.0601  0.0091 -0.0249
  330MOL0     C44427   5.870   0.704   1.491  0.5022 -0.8667  0.2121
  330MOL0     C44428   5.742   0.771   1.434 -0.9847 -0.8048  0.0131
  330MOL0     C44429   5.658   0.814   1.548  0.7261  0.1976 -0.5701
  330MOL0     C44430   5.516   0.866   1.514  0.2699 -0.3164 -0.3107
  330MOL0     C44431   5.435   0.762   1.441 -0.3688 -0.2552  0.5967
  330MOL0     N44432   5.312   0.835   1.395 -0.0688  0.0427 -0.4503
  330MOL0     C44433   5.212   0.884   1.470 -0.1655 -0.6967 -0.4935
  330MOL0     C44434   5.118   0.927   1.379  0.4008 -0.1985  0.4358
  330MOL0     C44435   4.993   1.014   1.394  0.5293  0.2935 -0.0673
  330MOL0     C44436   4.865   0.928   1.423  0.0953 -0.2521 -0.7438
  330MOL0     C44437   4.746   1.024   1.431 -0.1236  0.2561 -0.4825
  330MOL0     C44438   4.608   0.947   1.450 -0.6033  0.3718  0.2328
  330MOL0     O44439   4.564   0.902   1.327  0.5052 -0.6828  0.9516
  330MOL0     C44440   4.430   0.890   1.324  0.3397 -0.4980  0.3312
  330MOL0     C44441   4.374   0.915   1.201  0.3084  0.3481  0.8589
  330MOL0     C44442   4.228   0.904   1.179  0.4507 -0.5703  0.1384
  330MOL0     C44443   4.176   0.928   1.035  0.6753  0.5228  0.2911
  330MOL0     C44444   4.149   0.853   1.288 -0.3190 -0.6642 -0.0029
  330MOL0     C44445   4.011   0.834   1.286 -0.1342 -0.2257 -0.0062
  330MOL0     O44446   3.931   0.942   1.316 -0.0904 -0.1759  0.4339
  330MOL0     C44447   3.801   0.915   1.343 -0.6331  0.2610  0.0872
  330MOL0     C44448   3.759   0.840   1.452  0.4510  0.2428  0.9944
  330MOL0     C44449   3.619   0.812   1.470 -0.0083 -0.8266  0.5931
  330MOL0     C44450   3.519   0.861   1.377 -0.0769 -0.1977  0.6178
  330MOL0     O44451   3.385   0.811   1.393 -0.0549 -0.7027  0.1450
  330MOL0     C44452   3.283   0.837   1.301  0.3197 -0.6817  0.3724
  330MOL0     C44453   3.313   0.762   1.173  0.9210  0.5143  0.2534
  330MOL0     C44454   3.214   0.773   1.051 -0.4769  0.1204 -0.6654
  330MOL0     C44455   3.115   0.891   1.058 -0.1316 -0.3934 -0.1097
  330MOL0     C44456   3.020   0.873   0.935  0.0890  0.2487 -0.3107
  330MOL0     C44457   2.901   0.969   0.936 -0.4130 -1.0462  0.9427
  330MOL0     C44458   2.782   0.922   0.849  0.5155  0.2034 -0.2338
  330MOL0     C44459   2.672   1.032   0.838  0.3921 -0.7295 -0.5793
  330MOL0    Cl44460   2.532   0.947   0.785  0.0197  0.4092  0.1913
  330MOL0     C44461   3.570   0.944   1.277  0.0356 -0.0800 -0.8103
  330MOL0     C44462   3.708   0.978   1.265  0.6857  0.0028  0.0467
  330MOL0     O44463   3.972   0.719   1.267 -0.1039 -0.5768  0.4400
  330MOL0     C44464   4.210   0.818   1.412 -0.6492  0.0349 -0.2488
  330MOL0     C44465   4.350   0.836   1.430 -0.3181 -0.5157 -0.7330
  330MOL0     N44466   5.156   0.893   1.254  0.6285  0.1191 -0.7783
  330MOL0     N44467   5.272   0.838   1.267 -0.0687 -0.9089 -0.1973
  330MOL0     C44468   6.412   0.718   1.087  0.7324  0.1810 -0.2026
  330MOL0     C44469   6.497   0.676   0.983 -0.4420  0.3653  0.4820
  330MOL0     C44470   6.624   0.510   0.576 -0.0230  0.7629 -0.4340
  330MOL0     C44471   6.761   0.495   0.600  0.4352 -0.1741  0.3966
  330MOL0     C44472   6.854   0.459   0.503  0.6214 -0.0757 -0.9308
  330MOL0     C44473   6.819   0.455   0.374  0.2616  0.0123  0.2237
  330MOL0     O44474   6.915   0.416   0.278  0.4289 -0.1973 -0.5036
  330MOL0     C44475   6.878   0.402   0.144  0.2960 -0.7924 -0.0260
  330MOL0     C44476   7.005   0.376   0.062 -0.6691  0.5967  0.3483
  330MOL0     C44477   7.092   0.500   0.067  0.3388 -0.0386 -0.1047
  330MOL0     C44478   7.219   0.485  -0.023  0.5516 -0.8704 -0.4265
  330MOL0     C44479   7.168   0.487  -0.157 -0.0713 -0.3081  0.7929
  330MOL0     C44480   7.133   0.497  -0.272 -0.2863 -0.1047  0.4674
  330MOL0     C44481   6.683   0.476   0.351 -0.2445  0.1917 -0.3785
  330MOL0     C44482   6.587   0.499   0.449 -0.1894  0.1637  0.7842
  330MOL0     H44483   6.355   0.388   0.886  0.0067  0.4055  0.1488
  330MOL0     H44484   6.236   0.426   1.095 -1.1145  0.2491 -1.8587
  330MOL0     H44485   6.133   0.475   1.262  2.9046 -2.5651 -0.0848
  330MOL0     H44486   6.275   0.510   1.366 -1.1882  0.5764  0.5986
  330MOL0     H44487   6.059   0.508   1.491 -1.3912  0.8524  0.1299
  330MOL0     H44488   6.145   0.665   1.508  0.1476 -1.1052  0.5651
  330MOL0     H44489   5.995   0.754   1.321 -1.6591 -1.2154 -2.7585
  330MOL0     H44490   5.926   0.587   1.318  1.2050 -1.5593  1.0345
  330MOL0     H44491   5.841   0.611   1.541 -1.9314 -0.5719 -0.5047
  330MOL0     H44492   5.916   0.776   1.560  0.9232  0.6628 -1.5694
  330MOL0     H44493   5.751   0.855   1.365 -2.1807 -1.3921 -0.8966
  330MOL0     H44494   5.704   0.690   1.371 -1.3236 -0.0058 -0.8185
  330MOL0     H44495   5.644   0.733   1.620  0.1578  0.2843 -0.5780
  330MOL0     H44496   5.708   0.891   1.607  0.7431 -2.2225  2.8841
  330MOL0     H44497   5.470   0.893   1.609  1.7395  0.8872  0.0999
  330MOL0     H44498   5.512   0.951   1.446  0.4746 -0.6229 -0.7109
  330MOL0     H44499   5.415   0.680   1.511  2.5036 -1.8184 -0.2254
  330MOL0     H44500   5.488   0.716   1.357  1.5789  0.4577  1.3778
  330MOL0     H44501   5.218   0.917   1.573  1.4935 -1.4991 -0.2879
  330MOL0     H44502   5.012   1.090   1.471  1.2542  0.7849 -0.7083
  330MOL0     H44503   4.969   1.069   1.302 -0.4507  1.6906  0.9868
  330MOL0     H44504   4.887   0.872   1.514  4.5177 -1.3977 -2.2849
  330MOL0     H44505   4.850   0.847   1.351 -0.0949 -2.2203  1.3900
  330MOL0     H44506   4.744   1.097   1.350  2.2594  2.2253  1.0776
  330MOL0     H44507   4.772   1.085   1.518  2.6128 -0.2188 -0.8457
  330MOL0     H44508   4.539   1.021   1.491 -1.1956 -1.4191  2.7407
  330MOL0     H44509   4.630   0.867   1.521  0.2434 -0.4968 -0.9693
  330MOL0     H44510   4.444   0.953   1.127  3.2527  3.3912  4.7471
  330MOL0     H44511   4.104   1.011   1.035 -1.0288 -0.8933  1.4916
  330MOL0     H44512   4.256   0.945   0.962  1.1073  1.2908  0.9205
  330MOL0     H44513   4.122   0.840   1.001 -0.0040 -1.0778  4.8133
  330MOL0     H44514   3.831   0.785   1.511  0.8326 -1.9798 -1.3515
  330MOL0     H44515   3.587   0.743   1.547 -1.0814 -0.9575  0.0530
  330MOL0     H44516   3.184   0.800   1.331 -0.3783 -0.8916 -2.0075
  330MOL0     H44517   3.286   0.944   1.281  2.0925 -0.5597  1.1152
  330MOL0     H44518   3.413   0.794   1.140  1.5449 -0.0111  1.5305
  330MOL0     H44519   3.322   0.657   1.203  0.4333  0.0403 -1.2012
  330MOL0     H44520   3.159   0.679   1.062  0.9818 -0.4474  3.6217
  330MOL0     H44521   3.272   0.776   0.958 -0.3826  1.7570 -0.5877
  330MOL0     H44522   3.048   0.886   1.145 -0.7027 -1.7167 -0.6055
  330MOL0     H44523   3.167   0.987   1.068 -3.9488  1.7178  2.1690
  330MOL0     H44524   2.976   0.773   0.941 -1.5406  0.7530 -2.7278
  330MOL0     H44525   3.072   0.853   0.841 -1.5947 -2.9315 -0.7183
  330MOL0     H44526   2.866   0.981   1.039  1.3281  5.0606  1.2122
  330MOL0     H44527   2.940   1.069   0.917  2.4712 -1.4830  3.7782
  330MOL0     H44528   2.750   0.825   0.887 -0.6488  0.8239  0.4409
  330MOL0     H44529   2.822   0.906   0.748 -1.9075  1.1313 -1.4027
  330MOL0     H44530   2.717   1.116   0.785  0.9961 -0.1933  0.7242
  330MOL0     H44531   2.641   1.076   0.934 -1.2512  1.8531 -2.1829
  330MOL0     H44532   3.497   0.997   1.216  0.2123  3.1587  1.5142
  330MOL0     H44533   3.737   1.052   1.190  2.1881  0.0799  0.6724
  330MOL0     H44534   4.144   0.777   1.489  0.3206 -0.4110  0.3676
  330MOL0     H44535   4.396   0.818   1.526 -1.6435  1.8223  0.4392
  330MOL0     H44536   6.407   0.814   1.138 -2.0007 -0.3009  0.5815
  330MOL0     H44537   6.573   0.739   0.939 -3.3535  2.3166 -2.2981
  330MOL0     H44538   6.797   0.520   0.700  2.6691 -1.6810  0.0089
  330MOL0     H44539   6.957   0.436   0.530  0.5716 -0.8212 -1.3417
  330MOL0     H44540   6.808   0.318   0.137 -1.9104  1.0271 -1.0358
  330MOL0     H44541   6.829   0.494   0.109  0.7457 -0.7901 -0.6495
  330MOL0     H44542   6.987   0.354  -0.044 -0.3430  0.2734  0.3587
  330MOL0     H44543   7.058   0.294   0.111  0.8315  0.4549 -1.4116
  330MOL0     H44544   7.122   0.516   0.171 -1.8748  0.3564  0.5133
  330MOL0     H44545   7.035   0.583   0.025  0.4155  0.5585  0.9488
  330MOL0     H44546   7.274   0.395   0.006  0.1989 -0.2180  2.5467
  330MOL0     H44547   7.298   0.558  -0.003  0.1805  0.0413 -2.0368
  330MOL0     H44548   7.099   0.517  -0.372  2.8562 -3.3142 -1.4982
  330MOL0     H44549   6.646   0.480   0.249 -1.0383 -1.6768 -0.2151
  330MOL0     H44550   6.484   0.511   0.418  0.2196  2.2272  0.0407
  331MOL0     O44551   4.436   2.122   1.518 -0.4478  0.0861  0.6305
  331MOL0     C44552   4.508   2.130   1.613 -0.3799 -0.7598 -0.2081
  331MOL0     O44553   4.482   2.087   1.746  0.1117 -0.2058  0.5061
  331MOL0     C44554   4.369   2.011   1.782 -0.2581 -0.1840  0.6693
  331MOL0     C44555   4.302   1.931   1.690 -0.3845 -0.0589  0.2989
  331MOL0     C44556   4.204   1.842   1.739 -0.1046 -0.0692  0.7374
  331MOL0     C44557   4.154   1.851   1.866 -0.2169 -0.6432 -0.1919
  331MOL0     O44558   4.042   1.779   1.898 -0.1885  0.7940  0.5520
  331MOL0     C44559   3.989   1.778   2.033 -0.5351  0.4970  0.0495
  331MOL0     C44560   3.875   1.675   2.040  0.3148  0.1800  0.7060
  331MOL0     C44561   3.740   1.713   1.961  1.0128  1.1689 -0.5506
  331MOL0     C44562   3.664   1.578   1.954 -0.3994  0.1463 -1.2526
  331MOL0     C44563   3.511   1.592   1.921 -0.1060 -0.7264  0.1329
  331MOL0     C44564   3.481   1.646   1.782  0.2608 -0.0285 -0.5697
  331MOL0     C44565   3.325   1.652   1.768 -0.0833 -0.2600  0.2608
  331MOL0     C44566   3.297   1.728   1.649  0.2085 -0.7773  0.1335
  331MOL0     N44567   3.165   1.717   1.595  0.2709  0.4890 -0.0886
  331MOL0     C44568   3.104   1.601   1.546 -0.5553  0.2236  0.0377
  331MOL0     C44569   2.981   1.649   1.502  0.5266 -0.5272 -0.0665
  331MOL0     C44570   2.855   1.571   1.451  1.4307  0.2200 -0.0791
  331MOL0     C44571   2.722   1.644   1.464 -0.3383  0.4105 -0.5954
  331MOL0     C44572   2.601   1.554   1.455 -0.0047  0.4530 -0.2491
  331MOL0     C44573   2.460   1.623   1.445 -0.1964 -0.1797  0.1337
  331MOL0     O44574   2.438   1.718   1.560  0.5390 -0.3950  0.0350
  331MOL0     C44575   2.306   1.761   1.570  0.8881 -0.2095  1.1368
  331MOL0     C44576   2.207   1.750   1.468 -0.6580  0.2846 -0.2800
  331MOL0     C44577   2.084   1.813   1.478  0.6542  0.4660 -0.6804
  331MOL0     C44578   1.995   1.820   1.355  0.9064 -0.7777 -0.1183
  331MOL0     C44579   2.048   1.879   1.600  0.4102 -0.2302  0.4982
  331MOL0     C44580   1.924   1.959   1.613 -0.1468  0.5830 -0.4047
  331MOL0     O44581   1.815   1.892   1.564  0.0508 -0.3937  0.2209
  331MOL0     C44582   1.693   1.970   1.559 -0.1315 -0.1899 -0.3363
  331MOL0     C44583   1.684   2.105   1.508 -0.7521  0.2814 -0.3933
  331MOL0     C44584   1.566   2.173   1.497  0.0977 -1.1035 -0.1791
  331MOL0     C44585   1.450   2.121   1.555 -0.7261 -0.0491 -0.1217
  331MOL0     O44586   1.338   2.200   1.527 -0.1078  0.3423  0.5959
  331MOL0     C44587   1.224   2.170   1.608  0.6147  0.6690 -0.4710
  331MOL0     C44588   1.105   2.255   1.569  0.1438  0.3589 -0.1414
  331MOL0     C44589   1.121   2.403   1.579  0.1647  0.2050 -0.2801
  331MOL0     C44590   0.977   2.466   1.542 -0.2525  0.4969  0.3091
  331MOL0     C44591   0.976   2.616   1.598  0.1268 -0.0073  0.5308
  331MOL0     C44592   0.853   2.700   1.559  0.3762 -0.2645  0.3837
  331MOL0     C44593   0.825   2.818   1.655 -0.6623  0.6068 -0.5156
  331MOL0     C44594   0.711   2.906   1.613 -0.5255  0.0477 -0.0783
  331MOL0    Cl44595   0.554   2.827   1.681  0.0123 -0.0683  0.3651
  331MOL0     C44596   1.458   1.996   1.627 -1.0203  0.0539  1.1277
  331MOL0     C44597   1.579   1.920   1.629 -0.4805  0.7413  0.1966
  331MOL0     O44598   1.920   2.064   1.680 -0.1548 -0.4746 -0.3312
  331MOL0     C44599   2.145   1.887   1.707 -0.0639 -0.3646  0.1495
  331MOL0     C44600   2.273   1.828   1.685 -0.4391 -0.0585  0.7730
  331MOL0     N44601   2.979   1.791   1.508 -0.4756 -0.9943 -1.3028
  331MOL0     N44602   3.089   1.831   1.564  0.0801 -0.0963 -0.1188
  331MOL0     C44603   4.225   1.941   1.956 -0.2682  0.4461  0.5064
  331MOL0     C44604   4.332   2.005   1.919 -0.8124 -0.4873  0.1426
  331MOL0     C44605   4.636   2.201   1.586  0.9129  0.6757  0.1089
  331MOL0     C44606   4.724   2.221   1.690 -0.2295 -0.4066  0.0267
  331MOL0     C44607   4.854   2.267   1.668  0.0259  0.2392  0.3624
  331MOL0     C44608   4.893   2.297   1.541  0.2538 -0.4234  0.4139
  331MOL0     O44609   5.019   2.341   1.509 -0.3572  0.6184 -0.0534
  331MOL0     C44610   5.133   2.321   1.607  0.4589 -0.3594  0.4543
  331MOL0     C44611   5.268   2.332   1.536  0.2074 -0.7419 -0.8786
  331MOL0     C44612   5.299   2.202   1.448  0.0167 -0.0947 -0.8447
  331MOL0     C44613   5.438   2.220   1.406  0.1760 -0.0891 -0.6085
  331MOL0     C44614   5.465   2.120   1.306  0.3155  0.0011  0.1447
  331MOL0     C44615   5.475   2.037   1.212  0.1574 -0.0130  0.7766
  331MOL0     C44616   4.797   2.302   1.434  0.4580 -0.4711 -0.3238
  331MOL0     C44617   4.673   2.246   1.458 -0.1384  0.0048 -0.5178
  331MOL0     H44618   4.339   1.919   1.589  0.2028 -2.6182  0.7524
  331MOL0     H44619   4.152   1.781   1.666  0.0551 -0.1401  0.6835
  331MOL0     H44620   4.070   1.746   2.100 -1.4215  1.2594  1.5396
  331MOL0     H44621   3.957   1.879   2.061  2.2898  2.0320 -1.8671
  331MOL0     H44622   3.901   1.572   2.012 -2.6167 -0.5594  0.4387
  331MOL0     H44623   3.849   1.669   2.147  1.4085  0.7488  1.0227
  331MOL0     H44624   3.683   1.778   2.028 -1.4918 -2.3928  1.0707
  331MOL0     H44625   3.746   1.752   1.859 -1.2896 -1.7721 -1.9640
  331MOL0     H44626   3.713   1.505   1.890  1.0335  0.9561 -1.1304
  331MOL0     H44627   3.684   1.535   2.053  4.3469  1.7221 -1.2525
  331MOL0     H44628   3.464   1.496   1.948  1.5717 -0.5001  4.5775
  331MOL0     H44629   3.465   1.659   1.993 -0.6000  0.8795 -1.6027
  331MOL0     H44630   3.526   1.746   1.786  2.7439 -1.0913  1.6376
  331MOL0     H44631   3.529   1.577   1.712  1.5183  0.3972 -0.1597
  331MOL0     H44632   3.294   1.549   1.745 -1.0815  0.5409 -2.3958
  331MOL0     H44633   3.263   1.675   1.855 -0.1839 -1.3282  0.4865
  331MOL0     H44634   3.370   1.695   1.575 -0.1550  2.3275 -1.7530
  331MOL0     H44635   3.324   1.832   1.665 -2.7606  0.0289  0.4357
  331MOL0     H44636   3.142   1.501   1.529 -0.3899  0.2054  0.5163
  331MOL0     H44637   2.869   1.541   1.346  1.8919 -2.8425  0.7433
  331MOL0     H44638   2.849   1.488   1.522  1.8108 -1.4300 -1.8706
  331MOL0     H44639   2.716   1.717   1.382  0.3482 -0.6217 -1.5873
  331MOL0     H44640   2.726   1.690   1.563  2.2941 -0.5310 -0.1964
  331MOL0     H44641   2.595   1.495   1.547 -2.8306  1.9251  0.6235
  331MOL0     H44642   2.615   1.493   1.366  0.1447  1.6358 -1.0650
  331MOL0     H44643   2.385   1.544   1.449 -0.5654  0.1310 -0.4831
  331MOL0     H44644   2.449   1.671   1.347 -0.2322  1.0171  0.7038
  331MOL0     H44645   2.223   1.704   1.371 -0.4972 -1.5453  0.5688
  331MOL0     H44646   1.979   1.928   1.349  1.0746 -0.4499  3.2725
  331MOL0     H44647   2.053   1.784   1.269 -1.8334 -2.2571 -1.4843
  331MOL0     H44648   1.901   1.763   1.350 -0.6132  1.6479 -0.6544
  331MOL0     H44649   1.778   2.132   1.460 -0.8590  0.4856 -0.4886
  331MOL0     H44650   1.564   2.263   1.436  2.7840  1.1101  2.6314
  331MOL0     H44651   1.191   2.067   1.591  0.0059  0.3537  2.1048
  331MOL0     H44652   1.244   2.185   1.714 -0.6852  0.2328 -0.1384
  331MOL0     H44653   1.075   2.230   1.467 -1.9018 -2.2235  0.9758
  331MOL0     H44654   1.029   2.212   1.635 -0.9201  1.9579 -0.2780
  331MOL0     H44655   1.200   2.431   1.508  1.0668 -1.0497  0.1879
  331MOL0     H44656   1.144   2.431   1.682 -0.0381 -1.4065  0.2406
  331MOL0     H44657   0.951   2.470   1.436 -1.7805 -1.3144  0.5620
  331MOL0     H44658   0.900   2.406   1.591  0.5079 -0.7821 -0.0255
  331MOL0     H44659   1.071   2.663   1.574  0.0753  0.8988  1.9931
  331MOL0     H44660   0.969   2.610   1.707 -1.7087 -2.0864  0.3743
  331MOL0     H44661   0.861   2.753   1.464 -0.8999 -0.6534  0.0340
  331MOL0     H44662   0.760   2.643   1.548 -1.2252  2.4539 -1.1239
  331MOL0     H44663   0.914   2.878   1.677 -1.1007  0.4566  1.9363
  331MOL0     H44664   0.796   2.779   1.753  1.4049 -1.3856 -0.6116
  331MOL0     H44665   0.704   2.917   1.505 -1.8241  2.4593  0.1902
  331MOL0     H44666   0.722   3.007   1.653  0.9916  0.0512 -0.4647
  331MOL0     H44667   1.369   1.956   1.675 -1.3462  0.5575  0.9485
  331MOL0     H44668   1.581   1.823   1.676 -0.2502  0.0618 -1.1592
  331MOL0     H44669   2.139   1.945   1.798  2.8985  1.0525 -0.4217
  331MOL0     H44670   2.356   1.824   1.754  2.3040  2.6024 -2.0443
  331MOL0     H44671   4.185   1.946   2.057 -0.8413  1.4813  0.2439
  331MOL0     H44672   4.394   2.069   1.982 -1.6514  0.2998  0.1816
  331MOL0     H44673   4.710   2.187   1.792 -1.2080  1.5224  0.5925
  331MOL0     H44674   4.933   2.270   1.743 -0.0279  0.7617  0.4013
  331MOL0     H44675   5.134   2.397   1.686  2.5123 -0.9802  1.0723
  331MOL0     H44676   5.139   2.220   1.648  0.4801 -1.2729 -1.6511
  331MOL0     H44677   5.346   2.332   1.613  0.2433  0.4779 -0.8954
  331MOL0     H44678   5.264   2.428   1.483  0.9748 -0.5728 -0.6385
  331MOL0     H44679   5.226   2.215   1.367 -1.3208  3.4161  0.7353
  331MOL0     H44680   5.276   2.112   1.505  0.1972  1.4158  1.7576
  331MOL0     H44681   5.496   2.208   1.498 -1.6835 -0.8157  0.5191
  331MOL0     H44682   5.447   2.319   1.362  1.0825  1.6076  3.0436
  331MOL0     H44683   5.471   1.962   1.136 -2.8092  1.1637 -0.3929
  331MOL0     H44684   4.821   2.334   1.334 -1.0824  0.0804 -0.5413
  331MOL0     H44685   4.614   2.223   1.370 -1.7569  1.2554  0.1842
  332MOL0     O44686   1.757   9.079   0.538 -0.7433  0.3823  0.4335
  332MOL0     C44687   1.795   9.057   0.421 -0.0124 -0.0900  0.5110
  332MOL0     O44688   1.716   9.006   0.317  1.3006  0.2564  0.4562
  332MOL0     C44689   1.586   8.991   0.345 -0.3548 -0.1182  0.4306
  332MOL0     C44690   1.496   9.100   0.363  0.3006  0.0059 -0.1114
  332MOL0     C44691   1.366   9.073   0.391  0.3170 -0.2220 -1.3026
  332MOL0     C44692   1.314   8.951   0.428  0.4435  0.8204 -0.4533
  332MOL0     O44693   1.182   8.942   0.470  0.1883 -0.7421  0.5785
  332MOL0     C44694   1.092   9.059   0.482  0.5183  0.0181  0.9351
  332MOL0     C44695   1.039   9.093   0.348  0.0830  0.1398  0.1506
  332MOL0     C44696   0.901   9.160   0.341 -0.5251 -0.3616  0.1298
  332MOL0     C44697   0.898   9.295   0.411 -0.2411  0.0418  0.5281
  332MOL0     C44698   0.763   9.363   0.384  0.3117 -0.0788 -0.8288
  332MOL0     C44699   0.739   9.482   0.473  0.1406 -0.8169 -0.8284
  332MOL0     C44700   0.600   9.554   0.456 -0.5449  0.0357 -0.0776
  332MOL0     C44701   0.553   9.570   0.316  0.5624 -0.1579  0.9743
  332MOL0     N44702   0.491   9.447   0.259 -0.3449  0.8654  0.0801
  332MOL0     C44703   0.385   9.376   0.311 -1.1000 -0.0913 -0.2258
  332MOL0     C44704   0.374   9.271   0.230 -0.5607  0.2017 -0.6203
  332MOL0     C44705   0.262   9.170   0.238  0.5223 -0.7609 -1.5263
  332MOL0     C44706   0.246   9.094   0.114 -0.3798  0.3100  0.0436
  332MOL0     C44707   0.121   9.004   0.105 -0.2332 -0.0646  0.4949
  332MOL0     C44708  -0.016   9.078   0.087 -0.3777 -0.5104 -0.0988
  332MOL0     O44709  -0.022   9.165  -0.035 -0.0872  0.5618  0.3898
  332MOL0     C44710  -0.124   9.256  -0.041  0.2939  0.0004 -0.0584
  332MOL0     C44711  -0.118   9.360  -0.138 -0.3154 -0.6343  0.5503
  332MOL0     C44712  -0.198   9.473  -0.130 -0.6328 -0.6807 -1.3006
  332MOL0     C44713  -0.161   9.590  -0.220 -0.5901  0.1071  0.3177
  332MOL0     C44714  -0.313   9.479  -0.044 -0.0722 -0.2065 -0.2298
  332MOL0     C44715  -0.411   9.589  -0.045 -0.0063  0.0944 -0.4905
  332MOL0     O44716  -0.545   9.554  -0.015 -0.4114  0.3365  0.4250
  332MOL0     C44717  -0.640   9.646  -0.019  0.8557  0.0890  0.1626
  332MOL0     C44718  -0.630   9.754  -0.108  0.1182  0.0951 -0.4687
  332MOL0     C44719  -0.724   9.855  -0.100 -0.2421  0.0349 -0.0052
  332MOL0     C44720  -0.837   9.846  -0.004 -0.9994  0.2957  0.4594
  332MOL0     O44721  -0.927   9.947   0.010  0.1676 -0.1431  0.0284
  332MOL0     C44722  -1.067   9.901  -0.013 -0.7683 -0.1011  0.0360
  332MOL0     C44723  -1.145  10.033  -0.043 -0.3654 -0.2041  1.2172
  332MOL0     C44724  -1.277  10.056   0.034 -1.1375  0.3164  0.1906
  332MOL0     C44725  -1.389   9.994  -0.055 -0.6265 -0.2865  0.1522
  332MOL0     C44726  -1.529  10.025   0.012  0.0522 -0.3592 -0.2456
  332MOL0     C44727  -1.646   9.996  -0.083  0.1541  0.1961 -0.1360
  332MOL0     C44728  -1.781  10.036  -0.020  0.7767  0.0419 -0.3678
  332MOL0     C44729  -1.806   9.961   0.114 -1.3334  0.8043  1.2330
  332MOL0    Cl44730  -1.833   9.788   0.086  0.3218  0.0707  0.1324
  332MOL0     C44731  -0.830   9.744   0.088  1.0357  0.2921 -0.2115
  332MOL0     C44732  -0.732   9.639   0.086  0.2422 -0.2618  0.3282
  332MOL0     O44733  -0.364   9.699  -0.044 -0.3145  0.5341  0.3689
  332MOL0     C44734  -0.336   9.360   0.027  0.6981 -0.3715 -0.0730
  332MOL0     C44735  -0.238   9.258   0.045  0.1047  0.3083  0.9539
  332MOL0     N44736   0.468   9.280   0.130 -0.5816 -0.3211  0.1669
  332MOL0     N44737   0.528   9.389   0.140 -0.7253  0.6518  0.4717
  332MOL0     C44738   1.399   8.842   0.417 -0.2468  0.0451 -0.0056
  332MOL0     C44739   1.530   8.862   0.368 -0.8696 -0.0433  0.0240
  332MOL0     C44740   1.942   9.078   0.392 -0.3875 -0.5734 -0.6099
  332MOL0     C44741   2.010   9.049   0.271  0.3501  0.5723 -0.0884
  332MOL0     C44742   2.147   9.048   0.250  0.1327 -0.3668 -0.3411
  332MOL0     C44743   2.232   9.096   0.353  0.1006 -0.2600 -0.6164
  332MOL0     O44744   2.367   9.118   0.342  0.8991 -0.1254 -0.5717
  332MOL0     C44745   2.424   9.069   0.225 -0.0584  1.0417 -0.0418
  332MOL0     C44746   2.571   9.058   0.239  0.7087  0.5164 -0.7425
  332MOL0     C44747   2.613   9.209   0.222  0.3754 -0.5144 -0.2901
  332MOL0     C44748   2.753   9.224   0.269  0.7163 -0.4063  0.0717
  332MOL0     C44749   2.809   9.354   0.235  0.5595 -0.2538  0.3382
  332MOL0     C44750   2.857   9.464   0.219 -0.4164  0.6024  0.8464
  332MOL0     C44751   2.176   9.135   0.478 -0.0607  0.9500 -0.0984
  332MOL0     C44752   2.033   9.119   0.492 -0.0180 -1.0019  0.4991
  332MOL0     H44753   1.531   9.198   0.333  2.7662  0.1753  2.8475
  332MOL0     H44754   1.296   9.156   0.385 -0.3306 -0.5632  0.6835
  332MOL0     H44755   1.004   9.019   0.535  0.0475 -0.5875 -0.2722
  332MOL0     H44756   1.136   9.149   0.526 -1.8357  2.4231 -1.2649
  332MOL0     H44757   1.100   9.155   0.282 -0.9873  2.4624  1.2624
  332MOL0     H44758   1.031   8.993   0.302  1.2755  0.3307 -0.5204
  332MOL0     H44759   0.877   9.171   0.235  0.0999 -0.5226 -0.0352
  332MOL0     H44760   0.821   9.097   0.381 -2.3133  1.4960 -0.2951
  332MOL0     H44761   0.908   9.281   0.519  3.3007 -1.9337  0.1002
  332MOL0     H44762   0.966   9.369   0.368 -1.8243  1.2333 -0.0621
  332MOL0     H44763   0.771   9.406   0.283  0.1254  0.5035 -0.5999
  332MOL0     H44764   0.685   9.286   0.383 -0.4905  0.7087 -0.3347
  332MOL0     H44765   0.735   9.445   0.576  0.1377  2.3883  0.4573
  332MOL0     H44766   0.817   9.559   0.467 -1.7465  1.2381 -0.5889
  332MOL0     H44767   0.524   9.503   0.516 -1.3263  1.9275  0.6340
  332MOL0     H44768   0.606   9.652   0.505  0.7579  1.0828 -2.2100
  332MOL0     H44769   0.640   9.596   0.256 -0.5355 -4.8707 -3.3340
  332MOL0     H44770   0.481   9.652   0.307  0.8968  0.0575  0.2082
  332MOL0     H44771   0.328   9.395   0.401 -3.4880 -3.0105 -0.9548
  332MOL0     H44772   0.283   9.100   0.319  1.3322  2.3500  1.1652
  332MOL0     H44773   0.170   9.227   0.253  0.3004 -1.4973  0.0757
  332MOL0     H44774   0.336   9.033   0.101  0.1091  1.0603 -0.1156
  332MOL0     H44775   0.236   9.160   0.027  2.1838  0.8534  0.0940
  332MOL0     H44776   0.109   8.943   0.195 -0.0813  0.0767  0.6104
  332MOL0     H44777   0.138   8.933   0.023  1.5187  1.1367 -0.2370
  332MOL0     H44778  -0.027   9.144   0.173  1.2559 -1.4635  0.8824
  332MOL0     H44779  -0.102   9.013   0.069  1.3584 -2.5573 -1.4560
  332MOL0     H44780  -0.032   9.356  -0.204 -1.7663 -3.8070 -1.3994
  332MOL0     H44781  -0.088   9.559  -0.296 -1.4036 -1.2162  0.0339
  332MOL0     H44782  -0.247   9.636  -0.270 -0.7797  0.9830  1.3984
  332MOL0     H44783  -0.114   9.674  -0.169 -1.7432 -0.2512  2.0506
  332MOL0     H44784  -0.553   9.772  -0.182 -0.5449 -0.0578 -1.2101
  332MOL0     H44785  -0.722   9.947  -0.158  2.1753 -1.0217 -1.7566
  332MOL0     H44786  -1.081   9.833  -0.097 -2.0738 -0.0448  0.1856
  332MOL0     H44787  -1.098   9.855   0.081 -1.5237 -0.8169 -0.5581
  332MOL0     H44788  -1.077  10.115  -0.016  1.5409 -1.3385  0.1598
  332MOL0     H44789  -1.159  10.056  -0.149  2.0412  1.3088  1.1556
  332MOL0     H44790  -1.293  10.164   0.044  0.0469  0.6413 -1.1452
  332MOL0     H44791  -1.271  10.009   0.133 -0.9776 -0.0030  0.0296
  332MOL0     H44792  -1.370  10.033  -0.156  0.7025 -1.4620 -0.0763
  332MOL0     H44793  -1.382   9.885  -0.056  0.9205 -0.2461  1.8875
  332MOL0     H44794  -1.531  10.133   0.031  5.4630 -0.0597  0.4448
  332MOL0     H44795  -1.525   9.982   0.113  3.8076  4.4741  2.1295
  332MOL0     H44796  -1.637  10.046  -0.180 -3.8388 -0.4638 -1.0266
  332MOL0     H44797  -1.635   9.888  -0.095 -1.7997 -0.3635  2.2474
  332MOL0     H44798  -1.862  10.008  -0.087 -1.9548 -1.9535  3.3963
  332MOL0     H44799  -1.779  10.144  -0.004 -2.1416  0.2069 -0.5983
  332MOL0     H44800  -1.891  10.009   0.165 -1.2633 -0.4579  2.5994
  332MOL0     H44801  -1.722   9.984   0.180 -0.2589  0.9193 -0.1427
  332MOL0     H44802  -0.900   9.744   0.172  0.2394  0.6568 -0.8535
  332MOL0     H44803  -0.709   9.559   0.156 -0.6997 -0.3940  0.5078
  332MOL0     H44804  -0.411   9.349   0.104  0.4567 -1.4158 -0.4369
  332MOL0     H44805  -0.262   9.172   0.107  3.4202 -0.6223  1.0973
  332MOL0     H44806   1.351   8.748   0.442 -0.1401  0.4372  1.7400
  332MOL0     H44807   1.600   8.780   0.358 -0.1548  0.4021  1.0732
  332MOL0     H44808   1.942   9.013   0.194  2.5333 -2.2086 -0.8912
  332MOL0     H44809   2.178   9.017   0.150 -1.8540  2.0287 -1.8100
  332MOL0     H44810   2.394   8.969   0.193  3.2470  0.0266 -0.3872
  332MOL0     H44811   2.396   9.141   0.149 -1.3004  0.2145 -0.3923
  332MOL0     H44812   2.609   8.995   0.158 -0.6079  0.5961 -1.4487
  332MOL0     H44813   2.585   9.019   0.341 -2.5805 -0.9411 -0.7221
  332MOL0     H44814   2.550   9.269   0.289  0.2856  0.7738 -1.4940
  332MOL0     H44815   2.603   9.232   0.116  1.0203  1.0609 -0.0432
  332MOL0     H44816   2.812   9.142   0.227 -1.1953 -1.8569  0.0834
  332MOL0     H44817   2.767   9.212   0.377  1.8191  0.8605  0.1003
  332MOL0     H44818   2.897   9.557   0.185 -2.0670  1.3998  0.9914
  332MOL0     H44819   2.241   9.179   0.554 -0.4567 -2.5564  2.5796
  332MOL0     H44820   1.992   9.146   0.588  1.0432  2.4112  0.1191
  333MOL0     O44821   7.263   8.108   8.954  0.2227  0.8500  0.1180
  333MOL0     C44822   7.297   8.028   8.866  0.5905  0.3875  0.3175
  333MOL0     O44823   7.208   7.958   8.788 -0.4648 -0.0289 -0.7181
  333MOL0     C44824   7.069   7.967   8.810  0.6290 -0.4805 -0.0677
  333MOL0     C44825   6.982   8.016   8.702  0.1172 -0.1433 -0.1047
  333MOL0     C44826   6.852   8.021   8.727  0.6068  0.0442  0.0572
  333MOL0     C44827   6.798   7.986   8.855 -0.1143 -0.8555 -0.6973
  333MOL0     O44828   6.664   8.002   8.886  0.2055 -0.0101  0.5505
  333MOL0     C44829   6.583   8.108   8.824 -0.6490 -0.1455  0.0266
  333MOL0     C44830   6.620   8.251   8.895 -0.1712  0.7896  0.7500
  333MOL0     C44831   6.599   8.253   9.038 -0.3384 -0.4571 -0.1013
  333MOL0     C44832   6.479   8.333   9.069  0.6225 -0.5146  0.5097
  333MOL0     C44833   6.458   8.321   9.216  0.9503  0.4679  0.7877
  333MOL0     C44834   6.338   8.415   9.243 -0.3101  0.2618 -0.0542
  333MOL0     C44835   6.288   8.408   9.385 -0.5571  0.2907 -1.2506
  333MOL0     C44836   6.209   8.280   9.417  0.2217 -0.6877  0.4130
  333MOL0     N44837   6.178   8.277   9.560  0.6918  0.6608  0.0836
  333MOL0     C44838   6.253   8.206   9.653 -0.2166  0.0926  0.2234
  333MOL0     C44839   6.159   8.190   9.753  0.1218 -0.0562 -0.0965
  333MOL0     C44840   6.175   8.094   9.867  0.6355  1.0455  0.1689
  333MOL0     C44841   6.278   8.134   9.980  0.0046 -0.2954  0.1863
  333MOL0     C44842   6.217   8.250  10.067 -0.4055 -0.6539  0.0679
  333MOL0     C44843   6.076   8.222  10.112  0.3770 -1.1956 -0.8197
  333MOL0     O44844   6.061   8.315  10.222  1.1575  0.5647  0.1048
  333MOL0     C44845   5.930   8.335  10.258  0.8447  0.2014  0.4728
  333MOL0     C44846   5.876   8.250  10.350 -0.0478  0.0562  0.5290
  333MOL0     C44847   5.743   8.269  10.391 -0.2715 -0.2405  0.4584
  333MOL0     C44848   5.691   8.159  10.486 -0.5228 -0.0471 -0.6155
  333MOL0     C44849   5.667   8.382  10.346  0.6287 -0.4800  0.0527
  333MOL0     C44850   5.526   8.418  10.390 -0.0802 -0.2576  0.1494
  333MOL0     O44851   5.458   8.505  10.311 -0.1433  0.0860  0.2714
  333MOL0     C44852   5.345   8.574  10.352  0.0798 -0.2802  0.3552
  333MOL0     C44853   5.254   8.601  10.251  0.0033  0.8387  0.1321
  333MOL0     C44854   5.123   8.646  10.277 -0.2565 -0.2739  0.3269
  333MOL0     C44855   5.080   8.673  10.405  0.0806  1.1578  0.8642
  333MOL0     O44856   4.955   8.717  10.438 -0.1391 -0.6700  0.6931
  333MOL0     C44857   4.858   8.744  10.337 -0.0993  0.3127  0.5362
  333MOL0     C44858   4.779   8.609  10.296 -0.0392  0.2189  0.2437
  333MOL0     C44859   4.712   8.615  10.166  0.4573 -0.0466  0.5945
  333MOL0     C44860   4.614   8.729  10.150  1.0345  1.3648 -0.0202
  333MOL0     C44861   4.665   8.829  10.052  0.0614  0.5691  0.5716
  333MOL0     C44862   4.545   8.909  10.013 -0.8649 -0.2328 -1.1571
  333MOL0     C44863   4.585   9.013   9.909 -0.3682 -0.1764 -0.4425
  333MOL0     C44864   4.455   9.079   9.859  0.5693  0.1581 -0.4024
  333MOL0    Cl44865   4.509   9.220   9.759 -0.3591 -0.3144  0.0080
  333MOL0     C44866   5.167   8.647  10.510  0.3221 -0.5920  0.4766
  333MOL0     C44867   5.303   8.591  10.488  0.1091  0.2462  0.1451
  333MOL0     O44868   5.489   8.372  10.499 -0.3653  0.1898 -0.8852
  333MOL0     C44869   5.727   8.461  10.250 -0.1536 -0.5930 -0.0949
  333MOL0     C44870   5.860   8.444  10.208 -1.2364  0.0472  0.2840
  333MOL0     N44871   6.030   8.236   9.718  0.1627  0.0994  0.3000
  333MOL0     N44872   6.050   8.303   9.603 -0.5034  0.0598 -0.1183
  333MOL0     C44873   6.884   7.944   8.959  0.9708 -0.0769 -0.8908
  333MOL0     C44874   7.020   7.931   8.935 -0.5091 -0.2727  0.2204
  333MOL0     C44875   7.441   7.999   8.837 -0.0496  0.6663 -0.6756
  333MOL0     C44876   7.544   8.078   8.890 -0.0617 -0.4440  0.3993
  333MOL0     C44877   7.679   8.043   8.865  0.2906 -0.6273  0.0478
  333MOL0     C44878   7.718   7.944   8.775 -0.3187 -0.0832  0.3096
  333MOL0     O44879   7.849   7.926   8.725 -0.0125 -0.0795 -0.1105
  333MOL0     C44880   7.959   7.991   8.793  0.3737 -0.5028 -0.0125
  333MOL0     C44881   8.087   7.913   8.745 -0.0535  0.0631 -0.7835
  333MOL0     C44882   8.202   8.007   8.791 -0.3999 -0.5418  0.6084
  333MOL0     C44883   8.343   7.942   8.770 -0.1254 -0.1214  0.4212
  333MOL0     C44884   8.456   7.995   8.847  0.2372  0.7301  0.0858
  333MOL0     C44885   8.550   8.024   8.913 -0.0882  0.0843  0.8730
  333MOL0     C44886   7.612   7.869   8.704  0.0711 -0.6803  0.2875
  333MOL0     C44887   7.480   7.901   8.745  0.0521  0.2182  0.6869
  333MOL0     H44888   7.029   8.038   8.607  1.3025  1.6709  0.8457
  333MOL0     H44889   6.787   8.066   8.652 -2.9092 -0.9703  2.2307
  333MOL0     H44890   6.600   8.123   8.717 -1.6831  2.2802  0.1282
  333MOL0     H44891   6.477   8.085   8.839 -0.3061 -2.3349 -0.6083
  333MOL0     H44892   6.725   8.275   8.875 -0.7500  1.3927 -1.9731
  333MOL0     H44893   6.568   8.330   8.839 -0.7932 -0.0943  0.0545
  333MOL0     H44894   6.593   8.148   9.070  0.5145  0.2299  2.5234
  333MOL0     H44895   6.681   8.303   9.090  1.4156 -0.6801 -2.5055
  333MOL0     H44896   6.501   8.431   9.027  0.6229 -0.3905  0.7969
  333MOL0     H44897   6.388   8.300   9.019  1.7685  0.3566 -2.3534
  333MOL0     H44898   6.428   8.219   9.243 -1.6523  0.6581 -0.9845
  333MOL0     H44899   6.544   8.362   9.270  1.3025  2.5457 -1.2138
  333MOL0     H44900   6.359   8.516   9.206 -1.3211 -0.4192 -2.7282
  333MOL0     H44901   6.259   8.378   9.177 -0.5206 -0.2269  0.4560
  333MOL0     H44902   6.377   8.400   9.449 -0.1375 -1.1422 -1.9716
  333MOL0     H44903   6.231   8.497   9.414  0.1831  0.4608 -0.2668
  333MOL0     H44904   6.266   8.192   9.385  1.6808  0.1616  0.5725
  333MOL0     H44905   6.119   8.281   9.355  0.3742 -1.6965  0.1607
  333MOL0     H44906   6.357   8.181   9.671 -0.0179  0.5890 -0.2034
  333MOL0     H44907   6.075   8.072   9.907  1.1852 -0.3552  0.8348
  333MOL0     H44908   6.203   7.995   9.830 -1.6434  1.1521 -2.1334
  333MOL0     H44909   6.357   8.180   9.920 -1.3250  1.1972 -0.4952
  333MOL0     H44910   6.318   8.059  10.047 -0.7184  1.5961  2.9195
  333MOL0     H44911   6.212   8.332   9.995 -2.9634 -1.3240 -0.6300
  333MOL0     H44912   6.285   8.279  10.148 -0.2338  3.6705 -1.3586
  333MOL0     H44913   6.067   8.124  10.159 -0.3345 -1.1566 -0.8652
  333MOL0     H44914   6.000   8.230  10.034  0.8331 -1.3067 -1.2807
  333MOL0     H44915   5.947   8.170  10.372 -1.2869 -1.6269 -1.2529
  333MOL0     H44916   5.583   8.143  10.476 -0.2911 -1.2552 -1.2972
  333MOL0     H44917   5.724   8.057  10.463 -4.8971 -1.6329 -0.8855
  333MOL0     H44918   5.717   8.177  10.591 -1.1603  1.0039 -0.6206
  333MOL0     H44919   5.285   8.585  10.148  0.0417 -0.9062  0.3838
  333MOL0     H44920   5.058   8.650  10.190  0.9104  1.0882 -0.5481
  333MOL0     H44921   4.789   8.818  10.377 -1.1155  0.4530 -1.3384
  333MOL0     H44922   4.890   8.803  10.250  0.0378  3.5577  2.6471
  333MOL0     H44923   4.851   8.528  10.284 -0.1414  0.1865 -0.1808
  333MOL0     H44924   4.699   8.586  10.367  0.4721  0.7703  1.0029
  333MOL0     H44925   4.662   8.517  10.164  3.0946 -1.7094  4.3685
  333MOL0     H44926   4.787   8.632  10.088 -0.1965  1.9908  0.3723
  333MOL0     H44927   4.518   8.688  10.117  0.9141  1.5270  0.1250
  333MOL0     H44928   4.589   8.782  10.243 -1.4767  0.7607 -0.2942
  333MOL0     H44929   4.716   8.795   9.962  0.2369  0.8208  0.5737
  333MOL0     H44930   4.740   8.895  10.098  2.7161 -0.9620 -1.2838
  333MOL0     H44931   4.467   8.845   9.972 -0.2111 -0.4337 -2.1068
  333MOL0     H44932   4.502   8.959  10.101  1.5055 -1.0460  0.5777
  333MOL0     H44933   4.639   8.969   9.824  0.1462  1.0811 -0.7903
  333MOL0     H44934   4.646   9.090   9.957 -1.9486  1.0522 -0.3218
  333MOL0     H44935   4.389   9.114   9.939  1.8977 -0.2892  0.9436
  333MOL0     H44936   4.398   9.007   9.800  2.3015 -0.9083 -0.8708
  333MOL0     H44937   5.130   8.667  10.610 -0.0863  0.4241  0.1309
  333MOL0     H44938   5.363   8.579  10.577 -2.5401 -0.6328  1.9268
  333MOL0     H44939   5.667   8.547  10.222 -1.3391 -1.6187 -0.8460
  333MOL0     H44940   5.906   8.509  10.134  1.3424  1.0271  2.6027
  333MOL0     H44941   6.840   7.913   9.053 -0.6473 -1.2942 -1.9856
  333MOL0     H44942   7.098   7.887   8.996  0.6407 -0.9791 -1.6958
  333MOL0     H44943   7.530   8.159   8.961  1.1529  0.7762 -0.6863
  333MOL0     H44944   7.752   8.112   8.907  2.4936 -2.1315 -1.1192
  333MOL0     H44945   7.960   8.096   8.762 -2.1090 -0.6048 -0.6137
  333MOL0     H44946   7.946   7.998   8.901  0.4687  1.0811 -0.0751
  333MOL0     H44947   8.096   7.895   8.638  0.6688  2.1449 -1.1244
  333MOL0     H44948   8.094   7.821   8.803 -0.5789 -0.5611 -1.6965
  333MOL0     H44949   8.199   8.035   8.896  1.5211  2.2438  0.0297
  333MOL0     H44950   8.191   8.097   8.730 -1.7870 -0.9575  0.2154
  333MOL0     H44951   8.372   7.947   8.665 -4.4146 -1.8031 -1.0970
  333MOL0     H44952   8.323   7.838   8.799 -0.1052 -0.1993  0.1617
  333MOL0     H44953   8.634   8.048   8.976 -0.5746  0.0632  1.5424
  333MOL0     H44954   7.640   7.804   8.621 -0.3856 -1.2340  0.5637
  333MOL0     H44955   7.398   7.857   8.689  0.4837  1.8223 -1.3475
  334MOL0     O44956   2.853   3.499   5.330 -0.1107 -0.7224  0.0691
  334MOL0     C44957   2.857   3.410   5.419 -0.6963 -0.2493 -0.2848
  334MOL0     O44958   2.760   3.337   5.473  0.6806  0.2269 -0.4100
  334MOL0     C44959   2.625   3.379   5.469  0.0715 -0.6429  0.4034
  334MOL0     C44960   2.539   3.277   5.442  0.3462 -0.3057  0.1657
  334MOL0     C44961   2.404   3.311   5.428 -0.1856  0.5248  0.2008
  334MOL0     C44962   2.361   3.442   5.439 -0.2409 -0.0925 -0.4965
  334MOL0     O44963   2.223   3.474   5.434 -0.1948 -0.5678  0.0066
  334MOL0     C44964   2.180   3.571   5.344  0.6451 -0.1784  1.1759
  334MOL0     C44965   2.027   3.582   5.377 -0.5903 -0.1743 -0.2027
  334MOL0     C44966   1.943   3.612   5.254  0.2978 -0.1965 -0.3832
  334MOL0     C44967   1.797   3.619   5.290 -1.1037 -0.0300  0.5119
  334MOL0     C44968   1.709   3.585   5.169 -0.3011 -0.2942  0.7935
  334MOL0     C44969   1.561   3.618   5.211 -0.5583  0.0525 -0.7114
  334MOL0     C44970   1.461   3.619   5.092  0.5839 -0.5614  0.4939
  334MOL0     C44971   1.412   3.483   5.055 -0.7692  0.3330 -0.8152
  334MOL0     N44972   1.291   3.433   5.125  0.6971  0.0645 -0.0465
  334MOL0     C44973   1.260   3.424   5.261 -0.7283 -0.3492 -0.0105
  334MOL0     C44974   1.146   3.361   5.273  0.3092  0.3721  1.0429
  334MOL0     C44975   1.092   3.323   5.410 -0.1101  0.1983  0.2955
  334MOL0     C44976   0.981   3.221   5.411  0.3745  0.0477 -0.5610
  334MOL0     C44977   0.847   3.276   5.374 -0.2095  0.1939  0.3122
  334MOL0     C44978   0.726   3.171   5.392 -0.2850 -0.4545 -0.1641
  334MOL0     O44979   0.608   3.246   5.398 -0.2436  0.2643  0.1395
  334MOL0     C44980   0.501   3.165   5.429 -0.5758  0.8927  0.3782
  334MOL0     C44981   0.390   3.230   5.467  0.4173  0.6506 -0.4213
  334MOL0     C44982   0.271   3.155   5.515 -0.4468 -0.0637 -0.0450
  334MOL0     C44983   0.162   3.232   5.576  0.6830  0.0534  0.2845
  334MOL0     C44984   0.275   3.016   5.522  0.1999  0.0780  0.3945
  334MOL0     C44985   0.175   2.930   5.571  0.0181 -0.9714 -0.4819
  334MOL0     O44986   0.200   2.791   5.570 -0.2038  0.2128  0.3213
  334MOL0     C44987   0.108   2.692   5.599 -0.6465 -0.4744  0.0366
  334MOL0     C44988  -0.032   2.698   5.586 -0.7939  0.0037  0.2469
  334MOL0     C44989  -0.114   2.594   5.635 -0.7189 -0.8441  0.2274
  334MOL0     C44990  -0.052   2.471   5.676 -0.0358  0.5164 -0.3004
  334MOL0     O44991  -0.130   2.360   5.708 -0.4662  0.3854  0.2346
  334MOL0     C44992  -0.270   2.352   5.714  0.7266  0.3719 -0.1345
  334MOL0     C44993  -0.328   2.445   5.820 -0.2529 -0.2692  0.9736
  334MOL0     C44994  -0.352   2.372   5.953  0.3817  0.4268  0.2933
  334MOL0     C44995  -0.234   2.355   6.037 -0.5831  0.4113 -1.5429
  334MOL0     C44996  -0.267   2.328   6.197  1.3260 -0.0900 -0.0136
  334MOL0     C44997  -0.146   2.264   6.264 -0.6959 -0.7069  0.4433
  334MOL0     C44998  -0.042   2.361   6.326 -0.5484  0.0204 -0.2087
  334MOL0     C44999   0.086   2.284   6.368 -0.2667  0.2372 -0.0070
  334MOL0    Cl45000   0.066   2.210   6.528 -0.5378  0.0015  0.1572
  334MOL0     C45001   0.080   2.460   5.686 -0.1706 -0.4045 -0.3861
  334MOL0     C45002   0.167   2.568   5.645 -0.2938  0.5531 -0.4584
  334MOL0     O45003   0.062   2.978   5.609 -0.5802  0.9026 -0.0482
  334MOL0     C45004   0.385   2.954   5.458 -0.9673 -0.0236  0.2395
  334MOL0     C45005   0.501   3.025   5.412 -0.3571  0.0996  0.5146
  334MOL0     N45006   1.092   3.340   5.139 -0.0330  0.6736 -0.4628
  334MOL0     N45007   1.182   3.381   5.058 -0.4818  0.1099 -0.1280
  334MOL0     C45008   2.447   3.534   5.483 -0.4062 -1.0662  0.1987
  334MOL0     C45009   2.583   3.506   5.495  1.2258  0.2220 -0.7457
  334MOL0     C45010   3.000   3.372   5.462 -0.4024  0.2956  0.0864
  334MOL0     C45011   3.030   3.247   5.526 -0.5895 -0.0136  1.0163
  334MOL0     C45012   3.159   3.221   5.578  0.0436  0.2064 -0.0864
  334MOL0     C45013   3.251   3.321   5.578  0.0944 -0.0397 -0.2307
  334MOL0     O45014   3.366   3.297   5.642 -0.3447  0.4097 -0.1272
  334MOL0     C45015   3.462   3.397   5.687 -0.2782 -0.7527 -0.7059
  334MOL0     C45016   3.588   3.325   5.751  0.6769 -0.1228 -0.3554
  334MOL0     C45017   3.702   3.418   5.812 -0.3182  0.4531  0.4726
  334MOL0     C45018   3.778   3.348   5.926 -0.3365  0.2302 -1.5235
  334MOL0     C45019   3.867   3.247   5.876 -0.0739  0.4196  0.4156
  334MOL0     C45020   3.950   3.162   5.850  0.3600  0.4723 -0.1344
  334MOL0     C45021   3.228   3.437   5.507  0.2084 -0.8504  0.6674
  334MOL0     C45022   3.104   3.468   5.454  0.4359 -0.4109  0.3073
  334MOL0     H45023   2.563   3.172   5.428 -1.5900 -1.0571  2.0417
  334MOL0     H45024   2.330   3.233   5.414  1.8156 -1.3654 -0.4011
  334MOL0     H45025   2.231   3.665   5.367  2.0300 -0.3376 -0.9865
  334MOL0     H45026   2.202   3.544   5.240 -2.9098 -1.9047  0.7097
  334MOL0     H45027   1.993   3.484   5.410  1.0214 -0.9630 -0.7479
  334MOL0     H45028   2.005   3.659   5.451  1.7749  0.8732 -0.5010
  334MOL0     H45029   1.963   3.713   5.219  0.0804  1.8363  4.5617
  334MOL0     H45030   1.968   3.534   5.181 -0.1800  0.5326 -1.3474
  334MOL0     H45031   1.785   3.544   5.369 -0.2458 -0.4733  0.2290
  334MOL0     H45032   1.770   3.716   5.332  1.5605  0.7282  0.6431
  334MOL0     H45033   1.732   3.649   5.083  0.4959 -2.6254 -0.8387
  334MOL0     H45034   1.722   3.485   5.126  0.1415  1.0801 -2.6090
  334MOL0     H45035   1.523   3.547   5.285 -0.7473  1.8370  0.9643
  334MOL0     H45036   1.556   3.719   5.250 -2.2115 -0.6481  1.0223
  334MOL0     H45037   1.375   3.678   5.125  0.6212 -0.7064  0.8467
  334MOL0     H45038   1.492   3.663   4.996  0.9117 -0.8832  0.4476
  334MOL0     H45039   1.497   3.415   5.066 -1.1088  0.0380  0.0330
  334MOL0     H45040   1.389   3.474   4.948 -2.9134 -2.0125 -0.2444
  334MOL0     H45041   1.302   3.466   5.352  0.6936 -2.5336  0.4106
  334MOL0     H45042   1.169   3.279   5.475 -1.1443 -0.4894  1.0876
  334MOL0     H45043   1.068   3.414   5.466 -0.9476  0.9669 -1.2593
  334MOL0     H45044   0.973   3.190   5.515 -2.0503 -0.2673 -0.7817
  334MOL0     H45045   1.001   3.131   5.353  0.2225 -1.1690  1.2216
  334MOL0     H45046   0.854   3.310   5.270 -1.5685 -0.8902 -0.1642
  334MOL0     H45047   0.824   3.356   5.444 -1.1882  0.4075 -0.2283
  334MOL0     H45048   0.747   3.114   5.483  2.7572  0.6444 -0.0665
  334MOL0     H45049   0.736   3.110   5.302 -0.9943 -2.1570  0.8582
  334MOL0     H45050   0.404   3.337   5.476  0.4208  0.4897  2.5520
  334MOL0     H45051   0.062   3.213   5.536 -0.2574  3.3720  0.7587
  334MOL0     H45052   0.168   3.213   5.684  0.5301  1.2851  0.5288
  334MOL0     H45053   0.176   3.339   5.559 -2.8815  0.8702  1.5463
  334MOL0     H45054  -0.077   2.792   5.557  1.0709  0.8310 -0.1612
  334MOL0     H45055  -0.219   2.617   5.630 -0.2669  1.0420 -2.4791
  334MOL0     H45056  -0.305   2.389   5.617 -1.3129  1.1519  0.8378
  334MOL0     H45057  -0.310   2.250   5.720  0.0389  0.5005 -1.8268
  334MOL0     H45058  -0.270   2.535   5.844  3.3554 -1.5865 -1.8295
  334MOL0     H45059  -0.430   2.463   5.786 -0.3412  0.0928  1.4164
  334MOL0     H45060  -0.400   2.279   5.921 -0.2286  0.6337  0.5778
  334MOL0     H45061  -0.429   2.412   6.020  0.0444 -0.4711  0.4508
  334MOL0     H45062  -0.180   2.273   5.989 -1.6197 -1.2157 -0.0802
  334MOL0     H45063  -0.179   2.449   6.025 -1.3495  1.0134 -0.4859
  334MOL0     H45064  -0.360   2.270   6.200  0.7311  0.6773 -1.7458
  334MOL0     H45065  -0.278   2.421   6.254 -1.3468 -0.0435 -0.4863
  334MOL0     H45066  -0.185   2.198   6.341 -1.6483  0.3790  0.9256
  334MOL0     H45067  -0.089   2.206   6.190  1.7149  1.4122  0.5170
  334MOL0     H45068  -0.079   2.418   6.412  0.3319 -0.8726  0.7980
  334MOL0     H45069  -0.018   2.440   6.254 -1.6283  0.9234  0.3959
  334MOL0     H45070   0.168   2.355   6.363  0.4101 -0.5237  0.0591
  334MOL0     H45071   0.100   2.207   6.291  0.8691 -2.3349  2.5955
  334MOL0     H45072   0.126   2.370   5.725 -1.1134 -1.5867 -1.8939
  334MOL0     H45073   0.271   2.549   5.668  0.1607  2.4293 -0.8466
  334MOL0     H45074   0.400   2.847   5.444 -0.1054  0.2619 -1.3506
  334MOL0     H45075   0.579   2.968   5.363 -1.3040 -1.0487  0.2701
  334MOL0     H45076   2.415   3.634   5.509 -0.6182 -1.2074  0.4891
  334MOL0     H45077   2.659   3.582   5.512  2.1855 -0.4882 -1.6832
  334MOL0     H45078   2.953   3.171   5.519  0.4190 -0.8874 -2.1110
  334MOL0     H45079   3.188   3.128   5.628  0.4743  0.1932 -0.3591
  334MOL0     H45080   3.490   3.461   5.602 -1.6449 -0.0474 -0.6486
  334MOL0     H45081   3.428   3.461   5.770  2.4343 -2.5025  1.9712
  334MOL0     H45082   3.629   3.269   5.667  3.6539  2.7615 -0.9951
  334MOL0     H45083   3.546   3.249   5.818  0.3197  1.9293  1.8976
  334MOL0     H45084   3.664   3.515   5.846  0.3579  0.2450  1.8962
  334MOL0     H45085   3.782   3.429   5.739 -0.1261 -0.6048  0.5096
  334MOL0     H45086   3.701   3.304   5.990  1.0758 -2.4106 -1.5330
  334MOL0     H45087   3.836   3.417   5.987 -0.6301 -1.8687  1.3307
  334MOL0     H45088   4.014   3.082   5.819  1.4393  0.9099  0.8612
  334MOL0     H45089   3.310   3.505   5.485  0.1821 -1.0103  0.0435
  334MOL0     H45090   3.075   3.558   5.402  1.6083  1.3884  2.6006
  335MOL0     O45091  11.222   6.700   0.985  0.2885  0.0712  0.8766
  335MOL0     C45092  11.260   6.597   1.045  0.0579 -0.4057 -0.3683
  335MOL0     O45093  11.172   6.491   1.086  0.0792 -0.3299 -0.1606
  335MOL0     C45094  11.032   6.505   1.083  0.0151 -0.9805  0.6379
  335MOL0     C45095  10.966   6.473   1.198  1.9431  0.0846 -0.4844
  335MOL0     C45096  10.821   6.496   1.201 -0.1318  0.1762  1.2069
  335MOL0     C45097  10.749   6.537   1.083 -0.2645 -0.2912 -0.3280
  335MOL0     O45098  10.611   6.546   1.082 -0.6076 -0.5621 -0.6056
  335MOL0     C45099  10.531   6.507   1.191  0.6554  0.0155 -0.1291
  335MOL0     C45100  10.387   6.477   1.166  0.4012 -0.4161  0.0251
  335MOL0     C45101  10.303   6.438   1.295 -0.4378  0.1429 -0.0988
  335MOL0     C45102  10.162   6.401   1.267  0.6718  0.0071 -0.5126
  335MOL0     C45103  10.082   6.381   1.398  0.2501  0.0438  0.9270
  335MOL0     C45104   9.941   6.351   1.364 -0.3286 -0.2638  0.2610
  335MOL0     C45105   9.860   6.295   1.483  0.0372  0.0929  0.1020
  335MOL0     C45106   9.891   6.375   1.615  0.5395 -0.3707 -0.6724
  335MOL0     N45107   9.791   6.339   1.712 -0.7600 -0.8867  0.0999
  335MOL0     C45108   9.769   6.210   1.746  0.3146  0.4515 -1.0017
  335MOL0     C45109   9.664   6.222   1.834 -0.4258 -0.1211 -0.1643
  335MOL0     C45110   9.599   6.120   1.917 -0.1202 -0.0628 -0.6262
  335MOL0     C45111   9.446   6.125   1.893  0.1220  0.3532 -0.3618
  335MOL0     C45112   9.409   6.126   1.741 -0.2385  0.7827  1.5987
  335MOL0     C45113   9.263   6.135   1.705 -0.5919  0.4705 -0.8237
  335MOL0     O45114   9.184   6.015   1.739  0.2807 -0.9359  0.4129
  335MOL0     C45115   9.058   6.020   1.685 -0.1487  0.4900 -0.0569
  335MOL0     C45116   8.940   6.000   1.767 -0.4741 -0.4091 -0.2409
  335MOL0     C45117   8.810   5.993   1.725 -0.4225 -0.2755  0.1336
  335MOL0     C45118   8.706   5.955   1.827 -0.2738 -0.0280 -0.7005
  335MOL0     C45119   8.791   6.012   1.586  0.3670 -0.2169  0.4855
  335MOL0     C45120   8.654   6.021   1.514  1.1828  0.0266  0.6196
  335MOL0     O45121   8.645   6.078   1.389  0.2995  0.1883  0.4110
  335MOL0     C45122   8.526   6.091   1.324  0.5939  0.1795 -0.5913
  335MOL0     C45123   8.446   5.974   1.294  0.5921 -0.1556 -0.4651
  335MOL0     C45124   8.353   5.979   1.188 -0.3806  0.1358 -0.3737
  335MOL0     C45125   8.329   6.107   1.129 -0.2585  0.0010 -0.1711
  335MOL0     O45126   8.239   6.119   1.028  0.5765 -0.3495  0.1789
  335MOL0     C45127   8.131   6.205   1.051  0.0154  0.2034  0.1579
  335MOL0     C45128   8.009   6.127   0.992  0.7596 -0.2738 -0.3784
  335MOL0     C45129   7.978   5.986   1.039 -0.0630  0.0409  0.9983
  335MOL0     C45130   7.873   5.904   0.962  0.1028  0.6863  0.0218
  335MOL0     C45131   7.731   5.953   0.985  0.6247  0.2350 -0.2622
  335MOL0     C45132   7.630   5.884   0.889  0.0738  0.2413  0.1244
  335MOL0     C45133   7.617   5.731   0.915  0.1284  0.7619 -0.6424
  335MOL0     C45134   7.501   5.667   0.845  0.0766  0.0839  0.7675
  335MOL0    Cl45135   7.348   5.752   0.886 -0.3270  0.0559  0.1892
  335MOL0     C45136   8.389   6.217   1.180  0.5019  0.2958  0.5906
  335MOL0     C45137   8.497   6.216   1.273  0.7360  0.1179  0.0442
  335MOL0     O45138   8.558   5.979   1.577 -0.1374 -0.4554  0.7079
  335MOL0     C45139   8.908   6.037   1.501  0.1755  0.7439 -0.1414
  335MOL0     C45140   9.034   6.022   1.546 -0.4891 -0.4693 -0.0378
  335MOL0     N45141   9.619   6.351   1.842  0.1666 -0.3129 -0.3754
  335MOL0     N45142   9.710   6.424   1.778  0.3685  1.1310 -0.2663
  335MOL0     C45143  10.823   6.572   0.974 -0.3451 -1.4978 -0.0107
  335MOL0     C45144  10.965   6.561   0.976  0.2668 -0.1046 -0.2889
  335MOL0     C45145  11.398   6.583   1.092  0.1550 -0.0730  0.0842
  335MOL0     C45146  11.441   6.474   1.162  0.1067  0.2175 -0.2886
  335MOL0     C45147  11.574   6.465   1.217 -0.5776  0.8852 -0.3088
  335MOL0     C45148  11.656   6.572   1.211  0.9560 -0.4152  0.8605
  335MOL0     O45149  11.776   6.567   1.286  0.7286 -0.6066 -0.5652
  335MOL0     C45150  11.879   6.653   1.250  0.2645 -0.5037 -0.4166
  335MOL0     C45151  11.999   6.653   1.352  0.1993 -0.6008 -0.0695
  335MOL0     C45152  11.965   6.697   1.498  0.8803  0.2222  0.1866
  335MOL0     C45153  12.079   6.677   1.602  0.3050 -0.1847 -0.5422
  335MOL0     C45154  12.205   6.734   1.549  0.3175  0.4030 -0.0958
  335MOL0     C45155  12.316   6.769   1.511  0.9547  0.7939 -0.5137
  335MOL0     C45156  11.619   6.686   1.136 -0.4109  0.0306  0.4630
  335MOL0     C45157  11.494   6.685   1.074  0.7248 -0.2694 -0.5639
  335MOL0     H45158  11.008   6.444   1.294  2.3068 -2.5309 -1.3297
  335MOL0     H45159  10.770   6.473   1.294 -1.5728  0.1989  0.4461
  335MOL0     H45160  10.571   6.416   1.236 -0.4701  1.0514  3.2427
  335MOL0     H45161  10.534   6.590   1.263  1.6687  2.0876 -2.4195
  335MOL0     H45162  10.330   6.560   1.122 -0.3042 -1.3440 -0.8499
  335MOL0     H45163  10.391   6.401   1.087  0.8981 -0.4927  0.1230
  335MOL0     H45164  10.346   6.355   1.351 -1.0754 -0.2643 -0.2045
  335MOL0     H45165  10.295   6.530   1.354 -0.5845 -0.0815  0.2341
  335MOL0     H45166  10.126   6.493   1.220  1.6639  0.5842 -0.1819
  335MOL0     H45167  10.152   6.318   1.197  1.2011 -0.5661  0.0840
  335MOL0     H45168  10.125   6.293   1.446 -0.5980 -2.2623 -2.1590
  335MOL0     H45169  10.089   6.472   1.458 -1.5304 -0.1129  1.4081
  335MOL0     H45170   9.883   6.434   1.323  0.6423  0.2386 -0.1181
  335MOL0     H45171   9.949   6.266   1.295  0.9862  1.5385 -1.9582
  335MOL0     H45172   9.755   6.306   1.455 -0.0046  0.7411  0.4877
  335MOL0     H45173   9.888   6.190   1.494  2.1094  0.6848  0.9087
  335MOL0     H45174   9.892   6.484   1.599 -0.2020 -0.1880  0.3703
  335MOL0     H45175   9.989   6.342   1.650  0.0026  0.5794  2.0325
  335MOL0     H45176   9.825   6.125   1.709 -1.2596  0.0970 -2.6954
  335MOL0     H45177   9.642   6.021   1.903 -2.5423 -0.9206 -2.9268
  335MOL0     H45178   9.609   6.138   2.024  0.8758 -0.8264 -0.5749
  335MOL0     H45179   9.399   6.206   1.949 -0.7273 -1.2335  1.3415
  335MOL0     H45180   9.406   6.035   1.942  1.4228 -0.7940 -1.3120
  335MOL0     H45181   9.438   6.030   1.696  2.7089  0.8532  3.0745
  335MOL0     H45182   9.453   6.212   1.688  1.7401 -0.1786  1.5851
  335MOL0     H45183   9.240   6.166   1.603 -0.2631 -0.8745 -1.3266
  335MOL0     H45184   9.226   6.215   1.770  0.3305 -0.5262  1.0128
  335MOL0     H45185   8.945   5.992   1.875  0.1148  0.9835 -0.1500
  335MOL0     H45186   8.611   6.009   1.823  0.2393  1.1809  1.5940
  335MOL0     H45187   8.694   5.846   1.828 -2.6726  0.0916 -3.1763
  335MOL0     H45188   8.746   5.989   1.923 -1.5465  2.9699 -1.1186
  335MOL0     H45189   8.459   5.880   1.347  0.2706  0.6072  1.0444
  335MOL0     H45190   8.295   5.892   1.161  0.1739 -0.4569  0.2930
  335MOL0     H45191   8.114   6.215   1.158  1.9452 -2.4069  0.7930
  335MOL0     H45192   8.125   6.304   1.006 -1.0226  0.9918  1.9636
  335MOL0     H45193   7.923   6.182   1.031  1.8810  1.4587 -0.2454
  335MOL0     H45194   8.001   6.122   0.883 -4.0994  0.1760 -0.2709
  335MOL0     H45195   7.942   6.001   1.141 -0.1033  0.4869  0.9204
  335MOL0     H45196   8.067   5.923   1.054  1.7291  2.3876  0.8270
  335MOL0     H45197   7.905   5.909   0.858  1.1358  2.3558  0.3838
  335MOL0     H45198   7.869   5.800   0.998 -1.4848  0.9349  0.6565
  335MOL0     H45199   7.727   6.059   0.957 -2.2443  0.2175 -0.1611
  335MOL0     H45200   7.699   5.945   1.089  0.7359 -1.1051 -0.3140
  335MOL0     H45201   7.533   5.930   0.913 -1.2816 -2.7612  1.0033
  335MOL0     H45202   7.668   5.903   0.788  2.1732 -1.2058  0.5963
  335MOL0     H45203   7.598   5.723   1.022  0.3568  1.5943 -0.5297
  335MOL0     H45204   7.712   5.679   0.900 -1.0339 -1.3088 -1.2376
  335MOL0     H45205   7.501   5.559   0.866  2.9815 -0.5970 -2.0226
  335MOL0     H45206   7.521   5.682   0.739 -1.3034  1.5558  0.6704
  335MOL0     H45207   8.372   6.318   1.145  0.8108  0.8722  2.0151
  335MOL0     H45208   8.551   6.307   1.297  1.6681  0.7336 -3.6944
  335MOL0     H45209   8.895   6.051   1.394  0.4121  1.2286 -0.1084
  335MOL0     H45210   9.121   6.027   1.482  0.0167  0.8180  0.7103
  335MOL0     H45211  10.777   6.595   0.878 -1.1092 -3.3536 -0.1325
  335MOL0     H45212  11.028   6.572   0.888  2.5582  0.6129  1.3671
  335MOL0     H45213  11.378   6.388   1.184 -2.4857  2.4170  1.5825
  335MOL0     H45214  11.611   6.385   1.280  1.9017  2.7532  0.7683
  335MOL0     H45215  11.922   6.632   1.152  1.0166 -1.7922  0.1694
  335MOL0     H45216  11.839   6.755   1.250 -1.4963 -1.1336  1.1913
  335MOL0     H45217  12.089   6.707   1.320 -0.4880  3.9221  4.3161
  335MOL0     H45218  12.026   6.547   1.347 -1.1079 -1.0069  1.0653
  335MOL0     H45219  11.880   6.638   1.532  1.0066 -0.1115 -0.0702
  335MOL0     H45220  11.936   6.803   1.497 -0.3126 -0.0535 -2.1999
  335MOL0     H45221  12.090   6.570   1.622 -0.4149 -0.0214  0.8551
  335MOL0     H45222  12.044   6.722   1.696 -1.9866  0.0251 -1.4364
  335MOL0     H45223  12.406   6.809   1.469 -0.6611  4.0547 -1.1867
  335MOL0     H45224  11.678   6.777   1.128  1.0974 -0.8669  0.8740
  335MOL0     H45225  11.456   6.778   1.034 -2.2689  0.2144  2.8867
  336MOL0     O45226   5.368   9.770   0.372  0.0908 -0.0312  0.2489
  336MOL0     C45227   5.406   9.682   0.291 -0.3809 -0.2144 -0.0305
  336MOL0     O45228   5.361   9.662   0.161  0.3888  0.5027 -0.3766
  336MOL0     C45229   5.255   9.740   0.122  0.0873  0.3742  0.4275
  336MOL0     C45230   5.195   9.692   0.002 -0.1227 -0.2453 -0.3579
  336MOL0     C45231   5.090   9.760  -0.044  0.1408 -0.9533  0.1682
  336MOL0     C45232   5.033   9.875   0.012  0.4923 -0.3147 -0.3430
  336MOL0     O45233   4.914   9.914  -0.042 -0.2617  0.3433 -0.0688
  336MOL0     C45234   4.881  10.054  -0.043 -0.3563 -0.3567  0.5560
  336MOL0     C45235   4.739  10.069  -0.092  0.4179  0.3492 -0.3880
  336MOL0     C45236   4.715  10.022  -0.240 -0.4229  0.3369  0.0060
  336MOL0     C45237   4.639   9.890  -0.240 -0.8693 -0.5995  0.5805
  336MOL0     C45238   4.489   9.904  -0.251  0.3560  0.5858  0.1566
  336MOL0     C45239   4.425   9.769  -0.285  0.3296 -0.6411  0.3319
  336MOL0     C45240   4.278   9.762  -0.274  0.7786 -0.4037 -0.2745
  336MOL0     C45241   4.220   9.666  -0.373 -0.2228 -0.5828  0.2877
  336MOL0     N45242   4.080   9.622  -0.356 -0.4037 -0.1723  0.7056
  336MOL0     C45243   3.961   9.680  -0.385  0.3176 -0.6107  0.5651
  336MOL0     C45244   3.877   9.574  -0.382  0.8451  0.4393  0.0168
  336MOL0     C45245   3.729   9.576  -0.408 -0.1055 -0.0176 -0.4848
  336MOL0     C45246   3.679   9.726  -0.424  0.0301  0.7575  0.7098
  336MOL0     C45247   3.526   9.733  -0.456  0.6106  0.6541  0.7158
  336MOL0     C45248   3.507   9.715  -0.606 -0.3382 -0.2658 -0.6865
  336MOL0     O45249   3.551   9.835  -0.678  0.4141 -0.2117 -0.4834
  336MOL0     C45250   3.494   9.876  -0.797 -0.6930  0.6785  0.1082
  336MOL0     C45251   3.553   9.978  -0.863  0.5304 -0.8089 -0.4489
  336MOL0     C45252   3.506  10.020  -0.995  0.7191 -0.2115 -0.3957
  336MOL0     C45253   3.585  10.129  -1.058 -0.1584 -0.8657 -0.2873
  336MOL0     C45254   3.396   9.962  -1.048 -0.7812 -0.3549  0.7163
  336MOL0     C45255   3.339  10.007  -1.174  0.2348 -0.3395  0.4221
  336MOL0     O45256   3.383  10.116  -1.244 -0.1210 -0.1486 -0.0904
  336MOL0     C45257   3.303  10.204  -1.313  0.1442 -0.8460 -0.1868
  336MOL0     C45258   3.354  10.290  -1.411 -0.0256 -0.5785  0.2854
  336MOL0     C45259   3.269  10.375  -1.488  0.1562 -0.3739  0.0098
  336MOL0     C45260   3.132  10.383  -1.461  0.4815 -0.7262 -0.1278
  336MOL0     O45261   3.045  10.458  -1.537 -0.9302  0.1120  0.0389
  336MOL0     C45262   2.904  10.419  -1.544  0.5140 -0.4105 -0.1479
  336MOL0     C45263   2.854  10.456  -1.693  0.0495 -0.6012  1.0708
  336MOL0     C45264   2.709  10.410  -1.722  0.4758  0.0251  0.2976
  336MOL0     C45265   2.612  10.422  -1.606  0.8809 -0.8814  0.4708
  336MOL0     C45266   2.469  10.383  -1.658  0.4770 -0.5763  0.2223
  336MOL0     C45267   2.367  10.399  -1.546 -0.0829  0.2096 -0.0089
  336MOL0     C45268   2.235  10.451  -1.613  0.1002 -0.9194 -0.0070
  336MOL0     C45269   2.131  10.456  -1.503  0.9642 -1.4174 -0.0465
  336MOL0    Cl45270   1.968  10.485  -1.583 -0.2331 -0.4025  0.1514
  336MOL0     C45271   3.081  10.321  -1.350 -0.3530 -0.0661 -0.1231
  336MOL0     C45272   3.162  10.224  -1.283  0.2490 -0.7712 -0.7496
  336MOL0     O45273   3.249   9.932  -1.216  0.1719 -0.2101  0.1476
  336MOL0     C45274   3.343   9.849  -0.985 -0.2352  0.6609 -0.2066
  336MOL0     C45275   3.390   9.805  -0.862  0.1548 -0.6334 -1.4260
  336MOL0     N45276   3.943   9.453  -0.363 -0.7849  0.1955 -0.6854
  336MOL0     N45277   4.064   9.483  -0.337  0.1336 -0.0919 -0.0812
  336MOL0     C45278   5.105   9.934   0.112 -1.4927 -0.1739 -0.8422
  336MOL0     C45279   5.215   9.866   0.171 -1.1025  0.3376  0.6117
  336MOL0     C45280   5.538   9.631   0.317 -0.8504 -0.4211 -0.4883
  336MOL0     C45281   5.612   9.554   0.223 -0.0032 -0.4337 -0.3383
  336MOL0     C45282   5.729   9.493   0.254  0.1944 -0.1861 -0.4750
  336MOL0     C45283   5.779   9.496   0.388 -0.4332  0.4959  1.4471
  336MOL0     O45284   5.895   9.425   0.402  0.1242  0.8255 -0.8539
  336MOL0     C45285   5.936   9.378   0.534 -0.0869  0.4081  0.2563
  336MOL0     C45286   6.022   9.251   0.509  0.6480  0.8461  0.9771
  336MOL0     C45287   6.167   9.280   0.456  0.2031 -0.2522 -0.0030
  336MOL0     C45288   6.257   9.161   0.420  1.5157 -0.2369  0.2075
  336MOL0     C45289   6.245   9.056   0.514  0.7282 -0.1854  0.1766
  336MOL0     C45290   6.227   8.972   0.603  0.3730 -0.7318 -0.2176
  336MOL0     C45291   5.708   9.574   0.484 -0.0218  0.0458 -0.1769
  336MOL0     C45292   5.594   9.646   0.441  0.1593 -0.3840 -0.0899
  336MOL0     H45293   5.229   9.601  -0.046  2.6632  2.2135 -3.5919
  336MOL0     H45294   5.040   9.718  -0.131  1.0549 -3.6662  0.8624
  336MOL0     H45295   4.900  10.109   0.049  2.1839  1.1119 -0.7563
  336MOL0     H45296   4.942  10.108  -0.116 -1.4813 -0.2522 -0.3427
  336MOL0     H45297   4.674  10.007  -0.030  3.2016 -0.6782  1.7263
  336MOL0     H45298   4.712  10.175  -0.081 -0.3701 -0.0420  2.1343
  336MOL0     H45299   4.663  10.097  -0.300 -2.3057 -2.3180 -1.9357
  336MOL0     H45300   4.815  10.020  -0.284 -0.0926 -0.1594  0.7511
  336MOL0     H45301   4.676   9.840  -0.330  1.3953  1.7942  0.0743
  336MOL0     H45302   4.660   9.823  -0.156 -2.7366 -2.5534 -0.4091
  336MOL0     H45303   4.457   9.945  -0.155  1.0160 -2.2587  1.7207
  336MOL0     H45304   4.469   9.974  -0.333  3.5407  2.7812  1.0732
  336MOL0     H45305   4.448   9.752  -0.391 -0.4469  0.4351 -0.0388
  336MOL0     H45306   4.463   9.689  -0.222 -0.9898 -1.5888 -0.0255
  336MOL0     H45307   4.250   9.713  -0.180 -1.1927 -0.3885 -0.8084
  336MOL0     H45308   4.234   9.862  -0.275 -0.7993 -0.9492 -4.1517
  336MOL0     H45309   4.284   9.578  -0.362 -1.5045 -1.7378 -1.0879
  336MOL0     H45310   4.230   9.705  -0.475  0.3645 -0.2677  0.4570
  336MOL0     H45311   3.950   9.781  -0.423  0.8830 -0.0232  1.8903
  336MOL0     H45312   3.706   9.514  -0.495 -0.3158 -1.9527  0.8900
  336MOL0     H45313   3.687   9.532  -0.317  1.4916 -1.5393 -0.4264
  336MOL0     H45314   3.727   9.772  -0.511  0.3476 -1.7344 -0.5326
  336MOL0     H45315   3.693   9.779  -0.330 -2.9823  0.1514  1.5961
  336MOL0     H45316   3.487   9.831  -0.426 -1.0316  0.7097 -1.3529
  336MOL0     H45317   3.464   9.657  -0.408 -1.9581 -0.1196 -3.3663
  336MOL0     H45318   3.406   9.679  -0.629  0.2103 -1.3491 -1.4354
  336MOL0     H45319   3.572   9.634  -0.639  0.3564 -0.7960  1.7749
  336MOL0     H45320   3.637  10.034  -0.823 -1.4803  1.1089  1.3875
  336MOL0     H45321   3.682  10.148  -1.009 -0.1009 -1.7550 -0.0401
  336MOL0     H45322   3.609  10.116  -1.164  3.1160  0.3808  0.1553
  336MOL0     H45323   3.532  10.224  -1.062 -0.1652 -0.9004 -3.8878
  336MOL0     H45324   3.460  10.307  -1.429  0.6870 -1.4300  3.2275
  336MOL0     H45325   3.306  10.439  -1.568  0.4068  1.7050  1.7116
  336MOL0     H45326   2.880  10.313  -1.542 -0.7078 -0.2225 -2.1138
  336MOL0     H45327   2.856  10.473  -1.462  0.8282  0.3595 -0.4622
  336MOL0     H45328   2.874  10.561  -1.716 -1.4540 -0.6268 -0.5026
  336MOL0     H45329   2.922  10.396  -1.754  0.5608  0.6287  0.3888
  336MOL0     H45330   2.719  10.303  -1.744 -2.6492 -0.1958 -0.5165
  336MOL0     H45331   2.667  10.459  -1.811  0.4610  0.0527  0.3194
  336MOL0     H45332   2.660  10.358  -1.530  2.5917  0.5699  0.6855
  336MOL0     H45333   2.610  10.526  -1.573 -0.1536 -1.3045  1.8199
  336MOL0     H45334   2.470  10.279  -1.694 -2.3036  0.0639 -2.0771
  336MOL0     H45335   2.453  10.449  -1.744  0.9348 -0.2886  0.3553
  336MOL0     H45336   2.354  10.310  -1.485  1.0560 -0.6396 -0.9476
  336MOL0     H45337   2.409  10.474  -1.479  1.1652 -2.1792  2.0491
  336MOL0     H45338   2.196  10.386  -1.691  0.8916  1.0512 -2.1725
  336MOL0     H45339   2.236  10.551  -1.657  2.0679 -0.6980  0.4627
  336MOL0     H45340   2.147  10.529  -1.424  2.8521  0.4405 -2.0015
  336MOL0     H45341   2.120  10.360  -1.451 -0.6464 -0.1468  2.1284
  336MOL0     H45342   2.976  10.315  -1.324 -0.0454 -2.1140  0.8224
  336MOL0     H45343   3.121  10.159  -1.207  0.2522 -1.7582 -1.5743
  336MOL0     H45344   3.262   9.791  -1.028  1.5286 -2.8044  0.7966
  336MOL0     H45345   3.346   9.716  -0.819 -4.5850  3.2634  3.0672
  336MOL0     H45346   5.088  10.032   0.155  3.9376  0.3636  0.8836
  336MOL0     H45347   5.272   9.913   0.251  0.4071 -2.3499  1.2313
  336MOL0     H45348   5.573   9.569   0.123 -2.1837  2.6823  0.7983
  336MOL0     H45349   5.797   9.448   0.182  0.7765 -0.8562  0.4725
  336MOL0     H45350   5.993   9.455   0.587  2.4028  0.2361 -1.9714
  336MOL0     H45351   5.851   9.346   0.595 -2.1931 -0.4822 -2.8727
  336MOL0     H45352   5.964   9.191   0.439 -0.8590  0.9616  2.0783
  336MOL0     H45353   6.020   9.205   0.609  1.4282  1.0888  1.1161
  336MOL0     H45354   6.218   9.347   0.526  0.3105 -1.5167  1.1680
  336MOL0     H45355   6.150   9.340   0.366  0.8663 -0.6950 -0.4321
  336MOL0     H45356   6.359   9.192   0.396  1.4757 -0.4980 -0.3196
  336MOL0     H45357   6.212   9.113   0.333 -0.8251 -3.4688  2.9332
  336MOL0     H45358   6.221   8.915   0.694 -0.2466  0.1157  0.2871
  336MOL0     H45359   5.744   9.586   0.586 -2.8177  0.3421  0.8459
  336MOL0     H45360   5.547   9.718   0.508 -1.1658  1.0634 -2.4541
  337MOL0     O45361   5.022   8.284   0.126  0.3549  0.7471  0.3448
  337MOL0     C45362   5.003   8.170   0.088  0.2047  1.0910 -0.3160
  337MOL0     O45363   4.887   8.125   0.033  0.2037  0.2836  0.2105
  337MOL0     C45364   4.784   8.215  -0.006 -0.2339  0.1390 -0.4655
  337MOL0     C45365   4.740   8.210  -0.134 -0.1145 -0.0641 -0.2466
  337MOL0     C45366   4.636   8.293  -0.169 -0.1099  0.5113 -0.2012
  337MOL0     C45367   4.583   8.391  -0.083  0.4295  0.2952  0.8892
  337MOL0     O45368   4.481   8.474  -0.125  0.3043 -0.6099 -0.0842
  337MOL0     C45369   4.364   8.414  -0.181  0.5319 -0.0279  0.5807
  337MOL0     C45370   4.243   8.486  -0.124  0.2864  0.1131 -0.4387
  337MOL0     C45371   4.126   8.454  -0.209  0.1916 -0.6288  0.0187
  337MOL0     C45372   4.001   8.492  -0.140 -0.1777 -0.3294  0.7518
  337MOL0     C45373   3.868   8.450  -0.216 -0.1896  0.3941 -0.4848
  337MOL0     C45374   3.842   8.559  -0.325  0.0895 -0.0471 -0.5996
  337MOL0     C45375   3.707   8.550  -0.405  0.4726  0.5861 -0.6450
  337MOL0     C45376   3.704   8.426  -0.494  0.3584 -0.0391 -0.2982
  337MOL0     N45377   3.578   8.425  -0.558  0.2292 -0.4385  1.2364
  337MOL0     C45378   3.549   8.456  -0.693  0.1300  0.4030 -0.0623
  337MOL0     C45379   3.414   8.477  -0.688 -1.1097  0.3538 -0.0354
  337MOL0     C45380   3.323   8.521  -0.795 -0.5705 -0.6153  0.2838
  337MOL0     C45381   3.341   8.420  -0.911 -0.3309 -0.1446  0.2858
  337MOL0     C45382   3.266   8.295  -0.882  0.3549  0.2854  0.2586
  337MOL0     C45383   3.266   8.201  -1.004 -0.3071  0.9735  0.7515
  337MOL0     O45384   3.202   8.077  -0.998 -0.2434 -0.9270  0.3855
  337MOL0     C45385   3.073   8.091  -0.949 -0.0939 -0.5733  0.3486
  337MOL0     C45386   3.025   8.028  -0.828  0.0903  0.3476  0.2385
  337MOL0     C45387   2.887   8.030  -0.798 -0.4216  0.9484  0.0855
  337MOL0     C45388   2.839   7.978  -0.661  0.1557  0.3880 -0.9121
  337MOL0     C45389   2.799   8.098  -0.889 -0.1286  0.3960  0.0292
  337MOL0     C45390   2.649   8.101  -0.867  0.6779 -0.1632 -0.6609
  337MOL0     O45391   2.585   8.213  -0.904 -0.0057 -0.0788  0.4295
  337MOL0     C45392   2.447   8.234  -0.891 -0.3035  0.6370  1.1974
  337MOL0     C45393   2.348   8.146  -0.839 -0.1668  0.5376 -0.4451
  337MOL0     C45394   2.210   8.172  -0.851  0.0924  0.6550  0.4603
  337MOL0     C45395   2.172   8.288  -0.918  0.6444 -0.4866  0.3612
  337MOL0     O45396   2.038   8.325  -0.933 -0.5042 -0.0166  0.3039
  337MOL0     C45397   1.933   8.244  -0.891  1.0663 -0.3576 -0.4173
  337MOL0     C45398   1.807   8.316  -0.929  0.7391  0.5228 -0.3067
  337MOL0     C45399   1.682   8.237  -0.887  0.0622  0.5392 -0.6042
  337MOL0     C45400   1.556   8.312  -0.925 -0.5703 -0.3877  0.0332
  337MOL0     C45401   1.429   8.220  -0.911  0.2731 -0.1420 -0.5592
  337MOL0     C45402   1.308   8.316  -0.928  0.0326 -0.3235 -0.1522
  337MOL0     C45403   1.177   8.241  -0.955  0.6517 -0.0269  0.6276
  337MOL0     C45404   1.046   8.317  -0.915  0.4356 -0.0190 -0.4327
  337MOL0    Cl45405   0.903   8.206  -0.927  0.3538 -0.3707 -0.1003
  337MOL0     C45406   2.263   8.378  -0.958 -0.0034  0.0526  0.1743
  337MOL0     C45407   2.403   8.359  -0.939 -0.0378  0.0791 -0.1101
  337MOL0     O45408   2.599   8.010  -0.812 -0.3885  0.6878 -0.0396
  337MOL0     C45409   2.841   8.155  -1.012 -0.6696 -0.1378 -0.0544
  337MOL0     C45410   2.981   8.156  -1.038 -0.1742 -0.5516  0.9020
  337MOL0     N45411   3.360   8.441  -0.564 -0.5212  0.5942  0.3555
  337MOL0     N45412   3.462   8.404  -0.491 -0.2446  0.3804  0.6968
  337MOL0     C45413   4.639   8.398   0.045 -0.6376  0.0847  0.5005
  337MOL0     C45414   4.740   8.316   0.085  0.3269  0.6050 -0.4712
  337MOL0     C45415   5.112   8.074   0.075 -0.0125  0.1907  0.4315
  337MOL0     C45416   5.077   7.938   0.064 -1.4140 -0.1005 -0.2693
  337MOL0     C45417   5.176   7.846   0.037 -0.1212 -0.3293  0.1993
  337MOL0     C45418   5.312   7.882   0.031  0.8047 -0.2662 -0.2189
  337MOL0     O45419   5.397   7.784  -0.010 -0.1045  0.8283 -0.2050
  337MOL0     C45420   5.536   7.789   0.022  0.2758  0.5386 -0.2987
  337MOL0     C45421   5.606   7.657  -0.013  0.2137  0.6775 -0.6754
  337MOL0     C45422   5.656   7.641  -0.158  0.0476  0.8280 -0.7483
  337MOL0     C45423   5.784   7.565  -0.165  0.8451  0.2477 -0.2961
  337MOL0     C45424   5.822   7.522  -0.294 -0.3364  0.2313 -0.2703
  337MOL0     C45425   5.851   7.483  -0.399 -0.7071  0.4153  0.7704
  337MOL0     C45426   5.351   8.018   0.055  0.4251  0.3589  0.1638
  337MOL0     C45427   5.255   8.109   0.069 -0.3551  0.6702  0.2452
  337MOL0     H45428   4.782   8.139  -0.204  0.9691  3.5938 -3.6387
  337MOL0     H45429   4.596   8.272  -0.268  0.6982  1.0323 -0.6501
  337MOL0     H45430   4.380   8.443  -0.286 -0.2525  0.9116  0.7151
  337MOL0     H45431   4.370   8.305  -0.168 -0.7489  0.0529  2.1007
  337MOL0     H45432   4.234   8.449  -0.021 -0.8363 -1.3875 -1.0456
  337MOL0     H45433   4.254   8.595  -0.124 -1.5012  0.5223  3.9146
  337MOL0     H45434   4.144   8.511  -0.300  1.5040 -0.1300  0.5624
  337MOL0     H45435   4.107   8.347  -0.223 -0.9741 -0.3866 -0.3283
  337MOL0     H45436   3.991   8.452  -0.039 -1.1529  0.7057  1.0936
  337MOL0     H45437   4.009   8.600  -0.127  0.7114 -0.6216  3.0936
  337MOL0     H45438   3.883   8.353  -0.264  0.6736 -0.5451  1.5754
  337MOL0     H45439   3.783   8.434  -0.149  0.2169  2.9237  0.7617
  337MOL0     H45440   3.848   8.660  -0.285  3.0524 -0.4976  0.3027
  337MOL0     H45441   3.923   8.554  -0.399  0.5568 -0.3921 -0.0698
  337MOL0     H45442   3.624   8.558  -0.335  0.4049  2.9139 -0.9163
  337MOL0     H45443   3.693   8.642  -0.463 -1.7207 -0.1093 -1.3227
  337MOL0     H45444   3.710   8.338  -0.429  1.4291  2.2628  3.0197
  337MOL0     H45445   3.789   8.419  -0.562  1.5079 -0.8350  1.1516
  337MOL0     H45446   3.624   8.466  -0.771 -0.3507  0.5307 -0.5140
  337MOL0     H45447   3.222   8.537  -0.757 -1.1911 -0.3099 -1.3907
  337MOL0     H45448   3.364   8.616  -0.831 -1.8985 -0.4893 -1.0287
  337MOL0     H45449   3.447   8.401  -0.932 -0.7005  0.8809 -3.1583
  337MOL0     H45450   3.308   8.466  -1.004 -0.3592 -0.6466  0.0474
  337MOL0     H45451   3.161   8.322  -0.866 -0.2149 -1.9939  0.7513
  337MOL0     H45452   3.295   8.245  -0.789  2.7089  1.2481  0.1066
  337MOL0     H45453   3.371   8.177  -1.024 -0.3740  1.4570 -0.2175
  337MOL0     H45454   3.225   8.255  -1.089 -0.4466  0.3133  0.3911
  337MOL0     H45455   3.099   7.974  -0.769  0.0431  2.3130  2.2345
  337MOL0     H45456   2.777   8.054  -0.612 -1.4187 -1.6493  0.3894
  337MOL0     H45457   2.770   7.896  -0.684  1.9192 -0.9284 -1.7643
  337MOL0     H45458   2.916   7.944  -0.591 -1.0194 -0.9513 -0.2313
  337MOL0     H45459   2.368   8.051  -0.792 -1.5479  0.2346 -0.4182
  337MOL0     H45460   2.147   8.092  -0.813 -1.3136  2.5006  2.2302
  337MOL0     H45461   1.953   8.145  -0.935  2.2693  0.0590 -0.8338
  337MOL0     H45462   1.936   8.238  -0.782 -2.9845  0.6812 -0.1025
  337MOL0     H45463   1.810   8.407  -0.869 -1.8910 -0.7602  2.0398
  337MOL0     H45464   1.809   8.317  -1.038  3.1184 -0.2892 -0.3244
  337MOL0     H45465   1.678   8.219  -0.780  3.0395  3.6017  0.2098
  337MOL0     H45466   1.686   8.142  -0.941  0.3587  0.5192 -0.5493
  337MOL0     H45467   1.547   8.406  -0.870 -2.8794 -0.7359  0.3400
  337MOL0     H45468   1.560   8.338  -1.032 -0.2982 -0.5192  0.0102
  337MOL0     H45469   1.427   8.174  -0.812 -0.3302  0.7477 -0.1495
  337MOL0     H45470   1.428   8.140  -0.986  0.4327 -1.1965  0.5405
  337MOL0     H45471   1.306   8.377  -0.837  1.4834  0.7498 -0.8007
  337MOL0     H45472   1.326   8.388  -1.008 -1.4469 -2.4694 -2.5500
  337MOL0     H45473   1.173   8.147  -0.900 -1.2451 -0.6085 -0.4130
  337MOL0     H45474   1.163   8.211  -1.059  0.2207  1.0260  0.3681
  337MOL0     H45475   1.039   8.405  -0.979  1.4799  0.5915  0.2609
  337MOL0     H45476   1.063   8.349  -0.812 -1.7270  0.4299 -0.1657
  337MOL0     H45477   2.243   8.469  -1.013  0.9939 -0.8746 -1.8236
  337MOL0     H45478   2.475   8.437  -0.959 -0.1646  0.2717  0.1755
  337MOL0     H45479   2.775   8.193  -1.089 -0.6378 -0.4820 -0.2514
  337MOL0     H45480   3.010   8.208  -1.128  0.4572 -1.8540  0.3136
  337MOL0     H45481   4.604   8.481   0.105  1.5832 -0.6820  3.1050
  337MOL0     H45482   4.781   8.326   0.185  0.0621  1.6860 -0.4696
  337MOL0     H45483   4.979   7.900   0.088 -0.8996 -1.6456 -0.5304
  337MOL0     H45484   5.153   7.743   0.012 -1.3539  0.0998 -0.5161
  337MOL0     H45485   5.574   7.879  -0.027 -1.0029  0.5274 -1.3457
  337MOL0     H45486   5.558   7.809   0.128  2.5723  2.4863 -1.0421
  337MOL0     H45487   5.548   7.567   0.009  1.1533  0.4305  0.8878
  337MOL0     H45488   5.684   7.656   0.063 -0.2496 -0.4291 -0.2058
  337MOL0     H45489   5.670   7.741  -0.200  0.2567  1.5292  0.9065
  337MOL0     H45490   5.580   7.585  -0.215 -2.6526 -0.1535  3.3453
  337MOL0     H45491   5.770   7.468  -0.116  2.0544 -0.6322 -1.5781
  337MOL0     H45492   5.864   7.616  -0.110 -0.4858  0.7827  1.2327
  337MOL0     H45493   5.894   7.437  -0.486 -4.8399  0.0955 -1.3663
  337MOL0     H45494   5.454   8.051   0.047  0.3608  0.8113  1.0533
  337MOL0     H45495   5.288   8.210   0.093 -2.3641  1.0387  1.7443
  338MOL0     O45496   9.771   3.339  10.145  0.0336  0.3359  0.1296
  338MOL0     C45497   9.758   3.217  10.138 -0.0023  0.1218  0.1729
  338MOL0     O45498   9.852   3.133  10.164  0.3450  0.0706 -0.7252
  338MOL0     C45499   9.961   3.177  10.237 -0.0212  0.7506  0.0607
  338MOL0     C45500   9.978   3.286  10.322  0.6282 -0.2610 -0.7741
  338MOL0     C45501  10.099   3.316  10.379 -0.6011 -1.0148 -0.0474
  338MOL0     C45502  10.216   3.236  10.352 -0.3964 -0.1366 -0.8594
  338MOL0     O45503  10.338   3.256  10.403  0.1086  0.6778 -0.1532
  338MOL0     C45504  10.360   3.348  10.518 -0.0739 -0.4692  0.7301
  338MOL0     C45505  10.435   3.459  10.461 -0.5074 -1.3962  0.5709
  338MOL0     C45506  10.368   3.563  10.368  0.2001 -0.7550 -0.6656
  338MOL0     C45507  10.287   3.674  10.454 -0.3636  0.2740 -0.0152
  338MOL0     C45508  10.188   3.756  10.375  0.2486 -0.1805  0.4484
  338MOL0     C45509  10.065   3.675  10.328 -0.4141  0.2814  0.0920
  338MOL0     C45510   9.943   3.752  10.267 -0.0238  0.3491  0.8746
  338MOL0     C45511   9.854   3.653  10.184  0.4829  1.1518  0.0530
  338MOL0     N45512   9.734   3.719  10.121 -0.7953  0.3136 -0.1171
  338MOL0     C45513   9.612   3.658  10.100  0.1841  0.4096  0.6334
  338MOL0     C45514   9.539   3.762  10.042  0.3958  0.4282  0.5072
  338MOL0     C45515   9.402   3.769   9.968  0.5339  0.2442  0.6942
  338MOL0     C45516   9.380   3.645   9.882  0.5300  0.3127  0.4317
  338MOL0     C45517   9.477   3.634   9.758  0.0889 -0.0092 -1.0821
  338MOL0     C45518   9.405   3.615   9.622 -0.4395 -0.6059 -0.9910
  338MOL0     O45519   9.344   3.738   9.581  0.1462  0.8006  0.1089
  338MOL0     C45520   9.294   3.751   9.456  0.4545 -0.7961 -0.7641
  338MOL0     C45521   9.289   3.878   9.406 -0.2487  0.1468 -0.2194
  338MOL0     C45522   9.237   3.913   9.283 -0.2450 -0.3206 -0.2936
  338MOL0     C45523   9.233   4.058   9.256 -0.4993 -0.1861  0.5317
  338MOL0     C45524   9.183   3.806   9.209  0.6333  0.2031  0.1345
  338MOL0     C45525   9.114   3.817   9.077  0.1755 -0.4581 -0.3462
  338MOL0     O45526   9.091   3.951   9.041 -0.6057  0.4470 -0.6653
  338MOL0     C45527   8.994   3.982   8.949  0.2081 -0.7027 -0.0662
  338MOL0     C45528   9.012   4.099   8.879  0.4806  1.0819 -0.0195
  338MOL0     C45529   8.925   4.138   8.775  0.5825  0.2406 -0.1182
  338MOL0     C45530   8.808   4.068   8.751  0.0920  0.5240  0.5801
  338MOL0     O45531   8.732   4.111   8.645  0.0993  0.5791 -0.0603
  338MOL0     C45532   8.592   4.079   8.642 -0.5713 -0.5673  0.4567
  338MOL0     C45533   8.508   4.155   8.531  0.3827 -0.0563 -0.6584
  338MOL0     C45534   8.374   4.102   8.491 -0.1409  0.2138  0.1009
  338MOL0     C45535   8.310   4.184   8.376  0.1631  0.2832  0.3452
  338MOL0     C45536   8.181   4.121   8.320 -0.1010  0.4395 -0.4208
  338MOL0     C45537   8.109   4.226   8.250  1.7569  0.9981  0.2991
  338MOL0     C45538   7.982   4.169   8.180 -0.1315  0.2537 -0.2675
  338MOL0     C45539   7.890   4.291   8.145  0.2545  0.3994 -0.9339
  338MOL0    Cl45540   7.730   4.223   8.125  0.1442 -0.1621  0.3045
  338MOL0     C45541   8.780   3.963   8.837 -0.1482  0.0503  0.7791
  338MOL0     C45542   8.872   3.918   8.936  0.7094  1.2369 -0.0051
  338MOL0     O45543   9.087   3.721   9.006 -0.2258 -0.3692  0.3569
  338MOL0     C45544   9.187   3.670   9.259  0.2124 -0.7074 -0.4246
  338MOL0     C45545   9.241   3.649   9.383 -0.2285 -0.4169  0.8936
  338MOL0     N45546   9.622   3.874  10.046 -0.6675  0.4118 -0.1639
  338MOL0     N45547   9.744   3.850  10.078  0.1276 -0.3091  0.1978
  338MOL0     C45548  10.197   3.126  10.264  0.0001 -0.0556  0.1845
  338MOL0     C45549  10.071   3.097  10.215 -0.4872  0.2678 -0.5979
  338MOL0     C45550   9.631   3.175  10.067  0.0611 -0.3910 -0.2546
  338MOL0     C45551   9.539   3.268  10.022  1.4993 -0.0392  0.3000
  338MOL0     C45552   9.423   3.226   9.958  0.2844 -0.3818 -0.2896
  338MOL0     C45553   9.404   3.089   9.933  0.0556 -0.7397  0.1717
  338MOL0     O45554   9.294   3.040   9.873  1.2698 -0.1917 -0.0279
  338MOL0     C45555   9.166   3.109   9.860  0.0464 -0.2049 -0.2732
  338MOL0     C45556   9.147   3.162   9.716 -0.7289  0.4132 -0.5279
  338MOL0     C45557   9.083   3.304   9.718  0.4240  0.3221  0.5594
  338MOL0     C45558   9.062   3.361   9.578 -0.1235 -0.2793  0.2590
  338MOL0     C45559   9.036   3.508   9.587 -0.2183 -0.1068 -0.4762
  338MOL0     C45560   8.991   3.618   9.593  0.1886  0.3914 -0.2504
  338MOL0     C45561   9.500   2.997   9.971 -0.3734  0.4673 -0.6153
  338MOL0     C45562   9.612   3.038  10.038  1.1567  0.1347  0.4614
  338MOL0     H45563   9.895   3.347  10.355 -0.1320 -2.2575  1.2338
  338MOL0     H45564  10.093   3.402  10.444  0.6861  0.2326 -1.5105
  338MOL0     H45565  10.267   3.386  10.562 -0.4557  1.2452 -1.4022
  338MOL0     H45566  10.432   3.315  10.594  1.4809 -0.2547 -0.6069
  338MOL0     H45567  10.479   3.506  10.549  1.4113  2.1970 -2.0227
  338MOL0     H45568  10.523   3.434  10.401 -1.6055  2.1375 -2.9174
  338MOL0     H45569  10.446   3.612  10.309 -1.6422  1.0998 -1.6623
  338MOL0     H45570  10.305   3.504  10.301 -0.1903 -0.5996 -0.4341
  338MOL0     H45571  10.245   3.636  10.547  0.3454  0.2756  0.3127
  338MOL0     H45572  10.356   3.746  10.499 -0.0872 -0.7083  1.1611
  338MOL0     H45573  10.155   3.843  10.433 -1.1897 -0.7593  0.5569
  338MOL0     H45574  10.234   3.802  10.286 -1.3725  2.1820  0.7300
  338MOL0     H45575  10.102   3.609  10.250 -4.1319  1.6419 -3.1471
  338MOL0     H45576  10.038   3.621  10.419  0.0602  1.5025  0.9968
  338MOL0     H45577   9.872   3.786  10.343 -2.2293 -0.9117 -0.5093
  338MOL0     H45578   9.974   3.837  10.207 -5.3332  2.7182  0.9394
  338MOL0     H45579   9.816   3.582  10.257  2.5938  0.1736  0.2844
  338MOL0     H45580   9.913   3.596  10.111  1.5392  2.5787 -0.2774
  338MOL0     H45581   9.579   3.556  10.119 -0.1975  0.3468 -0.2922
  338MOL0     H45582   9.329   3.777  10.048 -0.9463 -1.7990 -0.3690
  338MOL0     H45583   9.406   3.860   9.907  3.9358  0.0599  0.4328
  338MOL0     H45584   9.277   3.644   9.844 -0.3575 -0.5203  2.6983
  338MOL0     H45585   9.383   3.548   9.934 -0.5305  0.3688  0.6181
  338MOL0     H45586   9.552   3.557   9.777  0.7665  0.8826 -0.0414
  338MOL0     H45587   9.537   3.724   9.741 -2.8043  1.3847 -5.8075
  338MOL0     H45588   9.327   3.540   9.635 -1.2739  0.4119  0.0537
  338MOL0     H45589   9.476   3.567   9.554 -1.0344 -2.5239 -0.3153
  338MOL0     H45590   9.323   3.962   9.466 -0.7528 -0.3784  0.8169
  338MOL0     H45591   9.132   4.087   9.286 -0.9873  0.5588 -1.6006
  338MOL0     H45592   9.311   4.110   9.312 -0.0459  0.3945 -0.5974
  338MOL0     H45593   9.256   4.084   9.152  1.8834 -2.3539  0.4471
  338MOL0     H45594   9.092   4.162   8.915  1.0824  0.3294 -0.0239
  338MOL0     H45595   8.949   4.227   8.717 -0.7234  2.6649  2.7697
  338MOL0     H45596   8.579   3.971   8.627  1.9907 -0.9028  0.2285
  338MOL0     H45597   8.538   4.104   8.734 -1.1284 -2.2159  0.6123
  338MOL0     H45598   8.500   4.260   8.563 -0.4444 -0.6028  1.0456
  338MOL0     H45599   8.586   4.138   8.456 -0.6722 -0.1879 -1.7438
  338MOL0     H45600   8.302   4.103   8.573  0.0581  2.0593  0.2874
  338MOL0     H45601   8.375   3.995   8.466 -0.5762  0.3718 -0.6028
  338MOL0     H45602   8.279   4.277   8.424 -1.5880  0.0264 -0.2033
  338MOL0     H45603   8.378   4.202   8.293 -1.0906  1.3341 -0.5048
  338MOL0     H45604   8.119   4.061   8.388  0.3121  0.7056  0.1975
  338MOL0     H45605   8.213   4.054   8.240 -0.2397  1.2153 -1.1415
  338MOL0     H45606   8.070   4.293   8.328  0.4472 -0.0866  0.6251
  338MOL0     H45607   8.169   4.275   8.173  3.7116 -2.3142 -0.4906
  338MOL0     H45608   7.936   4.094   8.246 -0.0134  3.8059  4.3751
  338MOL0     H45609   8.015   4.130   8.083 -0.1389  0.2260 -0.2586
  338MOL0     H45610   7.927   4.336   8.052 -0.0246 -1.7986 -2.1818
  338MOL0     H45611   7.894   4.372   8.219  2.3957  1.9054 -2.5486
  338MOL0     H45612   8.686   3.913   8.817 -1.0975  2.3356 -1.0344
  338MOL0     H45613   8.835   3.833   8.992 -0.6041  2.3451  0.8888
  338MOL0     H45614   9.142   3.589   9.202  1.0284  0.0697 -2.2468
  338MOL0     H45615   9.245   3.545   9.412 -0.8629 -1.3439 -2.0558
  338MOL0     H45616  10.279   3.063  10.231  1.8613  1.2432  2.0020
  338MOL0     H45617  10.071   3.001  10.164 -0.2678 -1.1074  1.8181
  338MOL0     H45618   9.570   3.372  10.029 -0.1371  0.4711  0.4068
  338MOL0     H45619   9.352   3.295   9.915  0.8769 -0.8828 -2.1698
  338MOL0     H45620   9.080   3.047   9.887  0.4246  0.5429  3.1133
  338MOL0     H45621   9.166   3.192   9.932  3.1208 -1.3583  1.2177
  338MOL0     H45622   9.075   3.102   9.659 -0.0255 -0.4956 -0.4789
  338MOL0     H45623   9.242   3.180   9.666 -0.6585  4.3588  0.7088
  338MOL0     H45624   9.149   3.372   9.774  1.6374  1.1454 -1.7206
  338MOL0     H45625   8.978   3.287   9.744 -0.2621  2.1070 -0.8692
  338MOL0     H45626   8.984   3.305   9.525  1.8429 -2.7606 -0.2115
  338MOL0     H45627   9.156   3.352   9.522 -0.6558 -1.9001 -0.4641
  338MOL0     H45628   8.954   3.716   9.617  2.8306  1.4620 -0.2600
  338MOL0     H45629   9.485   2.900   9.925 -0.8460 -0.3345  1.1569
  338MOL0     H45630   9.681   2.964  10.077  0.2309 -0.0384  1.8553
  339MOL0     O45631   6.694   7.741   7.933 -0.6376  0.4190  0.9580
  339MOL0     C45632   6.660   7.661   8.013 -0.2125  0.7282 -1.0254
  339MOL0     O45633   6.537   7.650   8.072  0.0598  0.9663  1.3623
  339MOL0     C45634   6.424   7.714   8.028  0.2246  0.1959  0.6729
  339MOL0     C45635   6.383   7.760   7.894 -0.6057  0.5453 -0.3220
  339MOL0     C45636   6.249   7.793   7.879 -0.4043  1.1742 -0.1201
  339MOL0     C45637   6.169   7.818   7.985 -0.7359 -0.0917 -1.0221
  339MOL0     O45638   6.045   7.859   7.960 -0.1135 -0.4793  0.3986
  339MOL0     C45639   5.978   7.955   8.041 -0.5749  0.0656 -0.9689
  339MOL0     C45640   5.864   8.013   7.956 -0.1621  0.3736 -1.1049
  339MOL0     C45641   5.754   8.084   8.041 -0.3714  0.5036 -0.2006
  339MOL0     C45642   5.643   8.142   7.946 -0.4535  0.3580  1.0196
  339MOL0     C45643   5.563   8.251   8.015 -0.8105  0.5372 -0.4314
  339MOL0     C45644   5.468   8.181   8.112 -0.3547 -0.3324 -0.2741
  339MOL0     C45645   5.363   8.288   8.151 -0.3444  0.1336  0.0786
  339MOL0     C45646   5.284   8.222   8.260 -0.4652  0.2953  0.8048
  339MOL0     N45647   5.186   8.314   8.311  0.0991 -0.7580 -0.4223
  339MOL0     C45648   5.061   8.336   8.271  0.0813 -0.1750  0.3154
  339MOL0     C45649   5.010   8.430   8.360 -0.5833  0.4704 -0.0659
  339MOL0     C45650   4.874   8.495   8.358 -0.2592  0.3346 -0.7781
  339MOL0     C45651   4.890   8.633   8.272  0.0513 -0.7484  0.2740
  339MOL0     C45652   4.774   8.723   8.286 -0.8437 -0.9451 -0.3519
  339MOL0     C45653   4.795   8.819   8.401  0.2054 -0.2064 -0.0158
  339MOL0     O45654   4.698   8.791   8.510  0.6220  0.4324  0.6282
  339MOL0     C45655   4.563   8.800   8.484  0.1445  0.7191  0.3158
  339MOL0     C45656   4.510   8.875   8.384 -0.1830 -0.4264  0.7332
  339MOL0     C45657   4.375   8.879   8.351  0.2280  0.5829 -0.2034
  339MOL0     C45658   4.324   8.956   8.241 -0.6546 -0.6547  0.1776
  339MOL0     C45659   4.289   8.796   8.430 -0.4500  0.9912  0.7192
  339MOL0     C45660   4.141   8.773   8.405  0.2323  0.2675 -0.7737
  339MOL0     O45661   4.062   8.754   8.518 -0.3933  0.5597  0.5571
  339MOL0     C45662   3.943   8.679   8.509  0.1135  0.3747 -0.2056
  339MOL0     C45663   3.920   8.583   8.607 -0.8490 -1.2927  0.3967
  339MOL0     C45664   3.796   8.517   8.620  0.5383 -0.9001  0.8034
  339MOL0     C45665   3.695   8.544   8.533  0.7633  0.3398  1.1539
  339MOL0     O45666   3.578   8.467   8.542  0.3053  0.5965  0.9710
  339MOL0     C45667   3.478   8.484   8.440 -0.8032 -0.0565 -0.6209
  339MOL0     C45668   3.386   8.365   8.441 -0.1859  0.7334 -0.1291
  339MOL0     C45669   3.469   8.225   8.427  0.4774  0.6336 -0.4903
  339MOL0     C45670   3.381   8.100   8.422  0.9839  0.2374 -0.3625
  339MOL0     C45671   3.456   7.982   8.478 -0.3942  0.7344  0.0602
  339MOL0     C45672   3.404   7.848   8.442 -0.3475  0.9657 -0.2818
  339MOL0     C45673   3.430   7.816   8.290 -0.1958  0.2167  0.0603
  339MOL0     C45674   3.404   7.668   8.264  1.1940 -0.0999 -0.0414
  339MOL0    Cl45675   3.528   7.572   8.362  0.1140 -0.4912 -0.2196
  339MOL0     C45676   3.707   8.652   8.443  0.1798 -1.0100 -0.5199
  339MOL0     C45677   3.834   8.708   8.426  0.0603 -0.1839  0.1048
  339MOL0     O45678   4.097   8.769   8.295 -0.1737 -0.0965  0.7294
  339MOL0     C45679   4.344   8.725   8.534 -0.0529 -0.7014 -0.1655
  339MOL0     C45680   4.481   8.721   8.563  0.2632  0.5409 -0.6547
  339MOL0     N45681   5.104   8.460   8.462  0.5093  0.3322  0.1736
  339MOL0     N45682   5.203   8.395   8.426  0.9281 -0.2295  0.3988
  339MOL0     C45683   6.211   7.792   8.115  0.0336  0.0756  0.9401
  339MOL0     C45684   6.334   7.734   8.134 -0.1020  1.1790 -0.1560
  339MOL0     C45685   6.767   7.567   8.055 -0.2058  0.6458 -0.3148
  339MOL0     C45686   6.894   7.568   7.996  0.3398 -1.0907 -0.6803
  339MOL0     C45687   6.993   7.473   8.036 -0.3038  1.2462  0.0283
  339MOL0     C45688   6.973   7.387   8.147 -1.0467  0.5875  0.6356
  339MOL0     O45689   7.056   7.297   8.210 -0.2739 -0.0335  0.3826
  339MOL0     C45690   7.193   7.330   8.229 -0.0425  0.6934  0.9291
  339MOL0     C45691   7.268   7.210   8.254  0.5837  0.3166  0.2744
  339MOL0     C45692   7.205   7.125   8.360 -0.0834 -0.2309  0.0754
  339MOL0     C45693   7.141   7.194   8.486  0.6562  0.0348  0.6204
  339MOL0     C45694   7.240   7.240   8.584  0.0767  0.8426  0.2689
  339MOL0     C45695   7.320   7.283   8.662  0.1517 -0.3789  0.1516
  339MOL0     C45696   6.846   7.386   8.196 -0.3448  0.3487  0.5039
  339MOL0     C45697   6.745   7.469   8.148  0.0039 -0.3167 -0.5799
  339MOL0     H45698   6.459   7.762   7.817  0.7913  1.5197  1.0359
  339MOL0     H45699   6.213   7.820   7.780  0.7956 -2.1945 -1.6053
  339MOL0     H45700   5.942   7.905   8.131 -2.8018  0.0618 -1.8159
  339MOL0     H45701   6.050   8.028   8.079 -0.7502 -1.1521  1.9811
  339MOL0     H45702   5.917   8.080   7.889  2.7919 -0.3097  0.3658
  339MOL0     H45703   5.816   7.929   7.904  0.3884 -0.8171  0.2213
  339MOL0     H45704   5.713   8.011   8.111 -1.9365  1.2696 -0.2961
  339MOL0     H45705   5.789   8.174   8.092  1.8238  0.4715 -1.5150
  339MOL0     H45706   5.689   8.194   7.862  0.7846 -0.9015  0.8811
  339MOL0     H45707   5.570   8.067   7.913 -2.3623  1.9476  1.4814
  339MOL0     H45708   5.634   8.315   8.069 -2.0758 -0.8273  3.1459
  339MOL0     H45709   5.511   8.303   7.934 -0.4609 -0.4704 -1.3301
  339MOL0     H45710   5.405   8.109   8.060 -2.0586  0.5130  0.5221
  339MOL0     H45711   5.519   8.125   8.191  1.7513  2.2952  0.3561
  339MOL0     H45712   5.401   8.383   8.189  1.0335 -0.9706  1.5641
  339MOL0     H45713   5.308   8.318   8.061  1.8492  0.5702 -1.1708
  339MOL0     H45714   5.347   8.197   8.345 -0.0772 -1.7086 -0.0301
  339MOL0     H45715   5.242   8.138   8.204 -2.2338  2.1611 -0.8425
  339MOL0     H45716   5.015   8.293   8.183  1.9671 -0.1860 -0.7168
  339MOL0     H45717   4.805   8.419   8.320 -3.0453  0.9981  2.4828
  339MOL0     H45718   4.837   8.513   8.459  1.1095 -0.0839 -0.1811
  339MOL0     H45719   4.871   8.597   8.170 -2.4253  0.5056  0.1986
  339MOL0     H45720   4.982   8.688   8.292 -0.4731 -0.0207  0.7260
  339MOL0     H45721   4.676   8.676   8.296 -0.8964 -0.4693  2.2439
  339MOL0     H45722   4.773   8.795   8.204  0.4269 -0.1287  0.3145
  339MOL0     H45723   4.783   8.922   8.364  2.1948 -1.1745 -3.8424
  339MOL0     H45724   4.899   8.817   8.436  0.6599 -0.6786 -1.3297
  339MOL0     H45725   4.583   8.935   8.330 -0.1713  1.6985  2.9440
  339MOL0     H45726   4.243   9.024   8.267  1.1363  0.1730  4.5930
  339MOL0     H45727   4.404   9.024   8.210 -1.3097  0.4246  0.7717
  339MOL0     H45728   4.289   8.890   8.162  1.3218 -1.8556  0.2158
  339MOL0     H45729   3.999   8.561   8.678  1.5419 -0.2396 -1.7718
  339MOL0     H45730   3.791   8.434   8.690 -1.7281  0.6086  2.5647
  339MOL0     H45731   3.419   8.573   8.462  0.3293  0.5711 -0.0306
  339MOL0     H45732   3.518   8.501   8.339 -1.4120  0.5809 -0.7652
  339MOL0     H45733   3.333   8.367   8.537 -0.1135 -0.4709 -0.0562
  339MOL0     H45734   3.317   8.369   8.356  0.4926 -0.5816 -0.7614
  339MOL0     H45735   3.531   8.217   8.516 -0.0156  5.8394  0.6726
  339MOL0     H45736   3.523   8.238   8.332 -1.7329 -0.3625 -1.9876
  339MOL0     H45737   3.289   8.114   8.480  0.9825  0.9353 -0.5276
  339MOL0     H45738   3.348   8.082   8.320 -1.0843 -3.1453  0.7453
  339MOL0     H45739   3.442   7.984   8.587 -0.6144 -1.8366  0.1487
  339MOL0     H45740   3.562   7.979   8.455 -0.4594 -0.1427 -0.1596
  339MOL0     H45741   3.465   7.793   8.513 -0.4499  2.7475  1.2691
  339MOL0     H45742   3.298   7.842   8.467 -0.7011 -0.1809 -1.9226
  339MOL0     H45743   3.532   7.835   8.255 -0.1554  0.4989  0.3228
  339MOL0     H45744   3.366   7.877   8.227  2.0849  0.6945 -1.9381
  339MOL0     H45745   3.419   7.634   8.161 -1.6466 -0.9020 -0.2552
  339MOL0     H45746   3.303   7.633   8.284  0.4327  1.8194 -0.3077
  339MOL0     H45747   3.622   8.694   8.391 -1.4940 -1.2627  1.8459
  339MOL0     H45748   3.837   8.787   8.352 -0.9959 -0.1826  0.0533
  339MOL0     H45749   4.274   8.671   8.597  0.7130  1.4637  2.7900
  339MOL0     H45750   4.502   8.653   8.645 -0.2184 -0.0646 -1.0197
  339MOL0     H45751   6.152   7.828   8.199  0.4553 -1.0817  1.7611
  339MOL0     H45752   6.370   7.714   8.234  0.4098 -0.5299 -0.6586
  339MOL0     H45753   6.910   7.625   7.905 -2.2295 -0.6256 -0.9248
  339MOL0     H45754   7.082   7.476   7.975 -0.0037 -2.3266  0.0730
  339MOL0     H45755   7.229   7.381   8.139  0.0673  1.4498  1.3895
  339MOL0     H45756   7.214   7.399   8.312  0.9547  0.9040  0.5028
  339MOL0     H45757   7.373   7.230   8.277  2.5674 -1.5450 -5.4733
  339MOL0     H45758   7.275   7.157   8.158  3.3835  0.9835  0.0228
  339MOL0     H45759   7.273   7.049   8.400 -1.6193 -0.9397  1.4410
  339MOL0     H45760   7.125   7.072   8.308 -1.2470 -1.1523  2.6245
  339MOL0     H45761   7.067   7.133   8.538  0.5636 -0.3920  0.0075
  339MOL0     H45762   7.085   7.283   8.456 -2.1919 -1.2189  1.9515
  339MOL0     H45763   7.392   7.331   8.725 -0.4429  0.0418  0.5232
  339MOL0     H45764   6.827   7.297   8.256  0.8633 -0.7588 -0.6968
  339MOL0     H45765   6.645   7.453   8.187 -0.2646  0.5474 -0.8877
  340MOL0     O45766   7.227   1.770   2.465 -0.1741 -1.0862 -0.1379
  340MOL0     C45767   7.153   1.682   2.424  0.2131 -0.1150 -0.7658
  340MOL0     O45768   7.018   1.681   2.431  0.2675  0.4432  0.9596
  340MOL0     C45769   6.948   1.786   2.487  0.0188 -1.1206 -0.3753
  340MOL0     C45770   6.813   1.764   2.480  0.2539 -0.2366  0.1077
  340MOL0     C45771   6.720   1.862   2.521 -0.5969  0.5176 -0.0780
  340MOL0     C45772   6.765   1.985   2.586  0.5467  0.3106  0.0182
  340MOL0     O45773   6.667   2.069   2.634 -0.2024  0.5865  0.0400
  340MOL0     C45774   6.657   2.202   2.581 -0.4063 -0.5338 -0.4168
  340MOL0     C45775   6.513   2.235   2.567  0.2803 -0.9663  0.3160
  340MOL0     C45776   6.437   2.226   2.703  0.4414  0.5075  0.7620
  340MOL0     C45777   6.285   2.221   2.674  0.3106  0.4354  0.0620
  340MOL0     C45778   6.225   2.222   2.810  0.3092  0.5436 -0.2420
  340MOL0     C45779   6.204   2.375   2.866 -0.0924  0.2765  0.0237
  340MOL0     C45780   6.107   2.385   2.978 -0.1173 -0.8074 -0.3153
  340MOL0     C45781   6.022   2.513   2.974  0.2221 -0.0811 -0.5212
  340MOL0     N45782   5.952   2.554   3.100  0.0047 -0.5993 -0.0762
  340MOL0     C45783   5.975   2.508   3.230  1.1730 -0.7530 -0.6052
  340MOL0     C45784   5.862   2.529   3.298 -0.2058  0.1208  0.3025
  340MOL0     C45785   5.843   2.511   3.442 -0.3065 -0.6478 -0.2475
  340MOL0     C45786   5.695   2.489   3.507  0.0643 -0.8418  1.3201
  340MOL0     C45787   5.647   2.353   3.454  1.0553 -0.0540  0.0327
  340MOL0     C45788   5.508   2.322   3.500 -0.5491  0.0817 -0.7157
  340MOL0     O45789   5.420   2.433   3.477  0.1600 -0.1078  0.3058
  340MOL0     C45790   5.286   2.421   3.508 -0.0813  0.8347 -0.8394
  340MOL0     C45791   5.228   2.297   3.546  0.5286  0.0970  1.0520
  340MOL0     C45792   5.092   2.289   3.568 -0.1827  0.2543 -0.2493
  340MOL0     C45793   5.028   2.153   3.572 -0.7337  0.3880 -0.7809
  340MOL0     C45794   5.018   2.407   3.571  0.3206  0.1305 -0.0879
  340MOL0     C45795   4.873   2.404   3.612 -0.4626 -0.3789 -0.3046
  340MOL0     O45796   4.780   2.436   3.522 -0.2495  0.4327 -0.0349
  340MOL0     C45797   4.649   2.467   3.561  0.1009 -0.0983  0.1582
  340MOL0     C45798   4.600   2.597   3.562 -0.0492 -0.3446  0.9853
  340MOL0     C45799   4.475   2.623   3.620  0.4383  0.4300 -0.2980
  340MOL0     C45800   4.391   2.512   3.669  0.0830 -0.5712  0.0511
  340MOL0     O45801   4.262   2.541   3.725 -0.3203  0.5455  0.0657
  340MOL0     C45802   4.179   2.434   3.771 -0.4104  0.0326  0.4552
  340MOL0     C45803   4.085   2.407   3.652 -0.5458 -0.0456  0.7568
  340MOL0     C45804   3.968   2.310   3.687  0.3836 -0.6822  0.2799
  340MOL0     C45805   3.874   2.301   3.564  0.2478  0.2918 -0.2310
  340MOL0     C45806   3.774   2.179   3.592  0.2653 -0.4498 -1.0753
  340MOL0     C45807   3.701   2.117   3.472 -0.1843  0.6571  0.2563
  340MOL0     C45808   3.599   2.011   3.502  0.9147  0.4508  0.1856
  340MOL0     C45809   3.452   2.071   3.534  0.5663  1.1066  0.5761
  340MOL0    Cl45810   3.340   1.966   3.627  0.3859 -0.0736  0.2765
  340MOL0     C45811   4.434   2.384   3.642 -0.1309  0.0315  1.0988
  340MOL0     C45812   4.560   2.367   3.588  0.3040 -0.0481  0.0661
  340MOL0     O45813   4.857   2.376   3.737 -0.4520 -0.0854 -0.1251
  340MOL0     C45814   5.072   2.532   3.543 -0.2006 -0.1775  0.1397
  340MOL0     C45815   5.208   2.539   3.507 -0.1385 -0.4116 -0.2770
  340MOL0     N45816   5.764   2.574   3.213  0.2173 -0.0658  0.6191
  340MOL0     N45817   5.822   2.604   3.098  0.3497 -0.0980 -0.6761
  340MOL0     C45818   6.904   1.999   2.605  0.7016 -0.1939 -0.2320
  340MOL0     C45819   6.992   1.904   2.543  0.2498  0.1936 -0.3755
  340MOL0     C45820   7.201   1.562   2.362 -0.2827  0.2085 -0.5766
  340MOL0     C45821   7.116   1.454   2.326 -0.0978  0.3713  0.2508
  340MOL0     C45822   7.167   1.351   2.247 -0.2383 -0.3206 -0.6368
  340MOL0     C45823   7.299   1.349   2.201 -0.5435  0.4766  0.1464
  340MOL0     O45824   7.350   1.265   2.103  0.1610  0.2587 -0.5014
  340MOL0     C45825   7.273   1.155   2.063  0.3407  0.6554  0.2708
  340MOL0     C45826   7.363   1.057   1.985  0.3251 -0.2221  0.2883
  340MOL0     C45827   7.500   1.033   2.044 -0.0331  1.3024  0.5712
  340MOL0     C45828   7.507   1.001   2.197  0.3325 -0.3359 -0.3556
  340MOL0     C45829   7.647   0.970   2.234  0.2634  0.0168  0.6629
  340MOL0     C45830   7.758   0.926   2.262 -0.8614  0.2569  0.6570
  340MOL0     C45831   7.385   1.447   2.246 -0.5484  0.3132  0.3879
  340MOL0     C45832   7.336   1.552   2.326 -0.3940 -0.5809  0.0745
  340MOL0     H45833   6.769   1.679   2.429  2.4057 -1.7130  0.5669
  340MOL0     H45834   6.612   1.847   2.516 -1.0163  2.1848  2.0708
  340MOL0     H45835   6.702   2.275   2.649 -1.1564  0.8020 -1.3038
  340MOL0     H45836   6.708   2.209   2.484 -0.6935 -0.5126 -0.5658
  340MOL0     H45837   6.504   2.337   2.529  0.8945 -1.2967 -0.7404
  340MOL0     H45838   6.471   2.171   2.489  0.0965 -0.0063 -0.3954
  340MOL0     H45839   6.463   2.140   2.765 -4.8993  0.1370  2.9578
  340MOL0     H45840   6.464   2.311   2.766  1.0398  0.7496  0.1873
  340MOL0     H45841   6.243   2.305   2.617 -0.2683 -0.9527 -1.6176
  340MOL0     H45842   6.258   2.132   2.616 -0.1998  1.7684 -1.8536
  340MOL0     H45843   6.124   2.180   2.805 -0.2650  1.7631  0.4585
  340MOL0     H45844   6.288   2.166   2.879 -0.6696 -0.2204  0.0509
  340MOL0     H45845   6.304   2.405   2.901  0.0434 -2.2757  2.1414
  340MOL0     H45846   6.179   2.443   2.784  1.9360  0.8445 -0.1847
  340MOL0     H45847   6.040   2.299   2.985  0.3931 -1.1831 -0.0087
  340MOL0     H45848   6.165   2.375   3.070 -0.7319 -2.6863 -0.0865
  340MOL0     H45849   5.946   2.509   2.894 -0.9271 -1.5511  0.5895
  340MOL0     H45850   6.083   2.600   2.950  2.1859 -1.5513 -1.1223
  340MOL0     H45851   6.066   2.479   3.282  0.6585 -0.0535  0.7347
  340MOL0     H45852   5.914   2.436   3.478  0.4214 -0.1788 -0.6806
  340MOL0     H45853   5.885   2.605   3.479 -0.2594 -0.0213 -1.8203
  340MOL0     H45854   5.630   2.566   3.464 -1.1267  0.7409  5.4933
  340MOL0     H45855   5.702   2.486   3.616 -0.9031 -0.0703  1.4159
  340MOL0     H45856   5.715   2.279   3.495  1.4574  1.6000  2.5752
  340MOL0     H45857   5.648   2.355   3.344  1.0814  3.3159 -0.0280
  340MOL0     H45858   5.514   2.317   3.609  3.1382 -2.3442 -0.8420
  340MOL0     H45859   5.469   2.238   3.442 -1.4408  0.3820 -0.5553
  340MOL0     H45860   5.292   2.210   3.544  1.0154  0.4655 -0.1603
  340MOL0     H45861   4.955   2.133   3.651  2.5040 -1.9172  1.9295
  340MOL0     H45862   4.982   2.131   3.475  1.7954 -1.2668 -1.7152
  340MOL0     H45863   5.109   2.079   3.579 -1.8439 -0.7393  0.9720
  340MOL0     H45864   4.665   2.676   3.526 -1.1276 -0.5843 -1.7425
  340MOL0     H45865   4.437   2.722   3.639 -0.4604  0.6188 -2.7036
  340MOL0     H45866   4.230   2.340   3.794  0.2038 -0.3007 -1.9266
  340MOL0     H45867   4.120   2.476   3.852  2.4385 -1.6718  3.6600
  340MOL0     H45868   4.041   2.495   3.606  3.3229  0.1485 -3.3123
  340MOL0     H45869   4.147   2.361   3.573 -1.0498  0.4400  0.0657
  340MOL0     H45870   3.909   2.349   3.772  0.9539  1.2083 -0.1473
  340MOL0     H45871   4.004   2.210   3.711  1.2824 -1.0093 -2.1645
  340MOL0     H45872   3.823   2.396   3.546  1.7262  0.6352 -3.0485
  340MOL0     H45873   3.931   2.279   3.473  4.6083  0.8139  2.1018
  340MOL0     H45874   3.707   2.222   3.668  1.1808  2.8073 -1.9442
  340MOL0     H45875   3.836   2.104   3.642  0.4124 -1.8907 -3.2729
  340MOL0     H45876   3.643   2.201   3.434 -0.9432  1.2524  2.5592
  340MOL0     H45877   3.770   2.066   3.404  0.9324  0.4907  1.4682
  340MOL0     H45878   3.617   1.961   3.597 -4.0160 -0.9959  0.6549
  340MOL0     H45879   3.603   1.942   3.417  0.7985 -1.8203  1.9325
  340MOL0     H45880   3.398   2.099   3.443  1.4252  0.0082 -0.2981
  340MOL0     H45881   3.466   2.166   3.586  1.1197  2.4836 -1.9189
  340MOL0     H45882   4.377   2.293   3.658  1.1848 -0.6607  1.9955
  340MOL0     H45883   4.590   2.263   3.581  0.5134  0.0548 -0.6579
  340MOL0     H45884   5.008   2.619   3.555  1.0679  0.5007  2.6388
  340MOL0     H45885   5.260   2.632   3.488 -0.4847 -0.1277  0.1682
  340MOL0     H45886   6.933   2.090   2.656 -0.3790  0.2359 -0.3541
  340MOL0     H45887   7.098   1.925   2.551  0.4153 -0.3374 -1.1408
  340MOL0     H45888   7.012   1.445   2.357  0.7391 -1.5099  2.8431
  340MOL0     H45889   7.100   1.269   2.222 -0.4052 -0.1540 -0.7388
  340MOL0     H45890   7.238   1.117   2.159 -2.1856  4.9770  1.3424
  340MOL0     H45891   7.181   1.185   2.012 -1.7963 -2.7477  1.7892
  340MOL0     H45892   7.390   1.107   1.892  0.2609  1.3576  1.0860
  340MOL0     H45893   7.311   0.962   1.976 -2.4074  1.3845 -2.6241
  340MOL0     H45894   7.549   1.129   2.030 -0.7206  1.7573  1.1815
  340MOL0     H45895   7.544   0.949   1.989 -1.7562  0.2040  0.7868
  340MOL0     H45896   7.437   0.924   2.229  0.4022 -0.4770 -0.5374
  340MOL0     H45897   7.471   1.092   2.245  0.7765  2.1090 -4.2215
  340MOL0     H45898   7.864   0.910   2.257 -0.8476  0.2457  0.9550
  340MOL0     H45899   7.490   1.449   2.216 -0.8879  1.3518 -0.8514
  340MOL0     H45900   7.404   1.628   2.364  0.6741 -1.1969 -0.5435
  341MOL0     O45901   4.465   7.105   4.303  0.9643 -0.2182  0.3668
  341MOL0     C45902   4.428   7.168   4.396  0.5859  0.1614  0.0674
  341MOL0     O45903   4.311   7.238   4.410 -0.8712  0.0155  0.3376
  341MOL0     C45904   4.227   7.255   4.301  0.1330 -0.4376 -0.0450
  341MOL0     C45905   4.098   7.304   4.338 -0.7052  0.2015  0.3856
  341MOL0     C45906   3.997   7.325   4.244 -0.2551 -0.1787 -0.5658
  341MOL0     C45907   4.019   7.299   4.101  0.4104  0.0896  0.0169
  341MOL0     O45908   3.921   7.339   4.016 -0.4946  0.6105  0.1397
  341MOL0     C45909   3.956   7.391   3.885  0.0023 -1.4788  0.0642
  341MOL0     C45910   3.918   7.283   3.787  0.2869  1.0596  0.7766
  341MOL0     C45911   3.766   7.287   3.751 -0.3318 -0.5151  0.2352
  341MOL0     C45912   3.724   7.400   3.658 -0.1681 -0.0668 -0.0055
  341MOL0     C45913   3.571   7.394   3.632  0.2557  0.5371 -0.3075
  341MOL0     C45914   3.485   7.423   3.759 -0.6008  0.4229  0.5451
  341MOL0     C45915   3.330   7.429   3.714 -0.5380 -0.1152 -0.0058
  341MOL0     C45916   3.229   7.459   3.835  0.2811  0.6449 -0.4742
  341MOL0     N45917   3.086   7.457   3.783 -0.1771 -0.7248 -0.2775
  341MOL0     C45918   3.050   7.501   3.664 -0.0280 -0.1023 -0.1058
  341MOL0     C45919   2.923   7.464   3.650  0.9859  0.6301  0.3636
  341MOL0     C45920   2.841   7.492   3.526  0.7739  0.5242  0.7021
  341MOL0     C45921   2.825   7.375   3.433  0.0330  0.7852  0.2111
  341MOL0     C45922   2.733   7.415   3.312  0.8601 -0.4824 -0.9775
  341MOL0     C45923   2.671   7.301   3.248  0.4863 -0.1320  0.4991
  341MOL0     O45924   2.553   7.334   3.170  0.1916  0.2702  0.3302
  341MOL0     C45925   2.477   7.224   3.134 -0.1562 -0.4502  0.0575
  341MOL0     C45926   2.531   7.104   3.075  0.2541 -0.0702 -0.1204
  341MOL0     C45927   2.456   6.996   3.035  0.1432 -0.4475  0.0276
  341MOL0     C45928   2.528   6.873   2.963  0.3154 -1.1340 -0.1690
  341MOL0     C45929   2.309   7.016   3.052 -0.4529  0.3725 -0.3624
  341MOL0     C45930   2.219   6.906   3.016  0.2455 -1.2916 -0.1151
  341MOL0     O45931   2.109   6.902   3.103  0.0958  0.2744  0.5591
  341MOL0     C45932   2.020   6.799   3.086 -0.2139 -0.0257 -0.3909
  341MOL0     C45933   1.902   6.830   3.017  1.1646  0.0213 -0.6562
  341MOL0     C45934   1.803   6.719   3.013 -0.3367 -0.8426 -0.8608
  341MOL0     C45935   1.837   6.589   3.054  0.1627  1.0533 -0.3638
  341MOL0     O45936   1.732   6.497   3.035 -0.2595  0.0868 -0.1165
  341MOL0     C45937   1.746   6.379   3.101  0.7767 -0.3646 -0.1968
  341MOL0     C45938   1.613   6.304   3.083 -0.1869 -0.2089 -0.3911
  341MOL0     C45939   1.492   6.387   3.126 -0.4319  0.1136  0.5376
  341MOL0     C45940   1.358   6.312   3.118  0.4244 -0.7538  0.2968
  341MOL0     C45941   1.234   6.388   3.176  0.6581 -0.1577 -0.3629
  341MOL0     C45942   1.101   6.356   3.108  0.2762 -0.0865  0.0968
  341MOL0     C45943   0.990   6.462   3.145 -0.5614  0.3581  0.3712
  341MOL0     C45944   0.898   6.485   3.030  0.0016  0.4558 -0.2645
  341MOL0    Cl45945   0.829   6.320   3.007 -0.4189  0.3974  0.2336
  341MOL0     C45946   1.965   6.564   3.112  0.5596  0.0400 -0.4942
  341MOL0     C45947   2.047   6.670   3.136  0.3706  0.2168 -0.1808
  341MOL0     O45948   2.232   6.829   2.922 -0.2283  0.6908 -0.3292
  341MOL0     C45949   2.258   7.131   3.123  0.5366 -0.0438  0.0520
  341MOL0     C45950   2.337   7.237   3.156 -0.1556 -0.4450 -0.4537
  341MOL0     N45951   2.887   7.401   3.765  0.5881  0.0769 -0.0999
  341MOL0     N45952   2.983   7.400   3.848 -0.6561 -0.7515  0.0543
  341MOL0     C45953   4.142   7.244   4.068 -0.0761  1.2642  0.5120
  341MOL0     C45954   4.246   7.227   4.160 -0.6921 -0.1073 -0.6459
  341MOL0     C45955   4.527   7.162   4.502 -0.3682 -0.8612  0.3127
  341MOL0     C45956   4.499   7.229   4.626  0.4312  0.5995  0.6750
  341MOL0     C45957   4.595   7.227   4.728  0.0559 -0.4869  0.5894
  341MOL0     C45958   4.726   7.174   4.709  0.2983 -0.2750  0.1987
  341MOL0     O45959   4.815   7.184   4.819  0.0613 -0.1554  0.0270
  341MOL0     C45960   4.950   7.145   4.780 -0.4482 -0.0849 -0.0627
  341MOL0     C45961   5.045   7.186   4.885 -0.0492 -0.2584 -0.3849
  341MOL0     C45962   5.008   7.113   5.019 -0.5134 -0.0505 -0.1000
  341MOL0     C45963   5.120   7.079   5.118  0.3996 -0.6714  0.7882
  341MOL0     C45964   5.225   7.182   5.141 -0.2110 -0.0938  0.1779
  341MOL0     C45965   5.323   7.253   5.161 -0.3640  0.9230  0.1658
  341MOL0     C45966   4.745   7.093   4.597 -0.0339 -0.7574  0.8522
  341MOL0     C45967   4.645   7.091   4.492 -0.9886 -0.4114 -0.8136
  341MOL0     H45968   4.072   7.308   4.443  0.3917 -0.5638  0.6909
  341MOL0     H45969   3.906   7.371   4.282 -1.4218 -0.8166 -2.4069
  341MOL0     H45970   3.911   7.488   3.864 -0.6077 -1.2079  2.3466
  341MOL0     H45971   4.065   7.397   3.875 -0.2742  1.7772 -2.3530
  341MOL0     H45972   3.974   7.301   3.695 -0.8277  0.1382 -0.1223
  341MOL0     H45973   3.945   7.180   3.814 -2.2161 -0.4076 -1.7038
  341MOL0     H45974   3.736   7.192   3.706  2.3684 -1.2101 -0.2621
  341MOL0     H45975   3.720   7.293   3.850  1.5777 -0.2412  1.1606
  341MOL0     H45976   3.751   7.493   3.711 -1.3378 -0.1328  0.7394
  341MOL0     H45977   3.783   7.398   3.566 -1.2374 -0.3290 -0.6967
  341MOL0     H45978   3.549   7.464   3.551  2.2716 -1.2777 -2.5846
  341MOL0     H45979   3.540   7.294   3.598  0.4011 -0.5884  2.5408
  341MOL0     H45980   3.489   7.340   3.829  2.4294 -0.5141 -0.5949
  341MOL0     H45981   3.524   7.516   3.802 -2.3748  1.2427  0.4905
  341MOL0     H45982   3.322   7.511   3.642 -2.1335 -0.7029 -0.5345
  341MOL0     H45983   3.297   7.333   3.673 -0.2314 -0.1909 -0.0790
  341MOL0     H45984   3.247   7.557   3.881  1.0357  2.0435 -3.4924
  341MOL0     H45985   3.242   7.380   3.909  1.5875  1.0089 -0.2950
  341MOL0     H45986   3.114   7.541   3.586  1.2943  2.2198  2.0054
  341MOL0     H45987   2.739   7.519   3.558 -0.2352 -0.1680 -1.6867
  341MOL0     H45988   2.890   7.574   3.473  0.8223  0.8208  1.2011
  341MOL0     H45989   2.785   7.296   3.498  2.7024 -1.1843 -0.3456
  341MOL0     H45990   2.924   7.346   3.398 -0.2876  0.9792 -0.8959
  341MOL0     H45991   2.786   7.493   3.256 -0.6506  3.8432  2.8562
  341MOL0     H45992   2.651   7.471   3.358  0.7925 -1.3429 -0.0135
  341MOL0     H45993   2.659   7.217   3.318 -1.1675 -1.0033 -0.7644
  341MOL0     H45994   2.729   7.266   3.162 -1.7161 -0.3569 -0.9645
  341MOL0     H45995   2.637   7.107   3.056  0.1100 -0.1619 -0.9573
  341MOL0     H45996   2.636   6.875   2.977  0.3511  0.8786 -0.5007
  341MOL0     H45997   2.484   6.778   2.994 -0.7304 -0.8524 -0.7541
  341MOL0     H45998   2.509   6.892   2.857 -1.2299  1.1815  0.4539
  341MOL0     H45999   1.881   6.926   2.971 -1.2671 -0.2590 -0.2404
  341MOL0     H46000   1.704   6.730   2.970 -0.8616  0.4212  0.5619
  341MOL0     H46001   1.815   6.311   3.050  0.2043  0.9423 -2.8977
  341MOL0     H46002   1.776   6.404   3.203  2.1905  2.0598 -1.1175
  341MOL0     H46003   1.599   6.286   2.976  2.4938  1.6335 -1.1434
  341MOL0     H46004   1.617   6.208   3.136 -0.1058  0.7994  1.5504
  341MOL0     H46005   1.493   6.481   3.070  4.0184  0.5645  1.0110
  341MOL0     H46006   1.506   6.421   3.229  2.2253  4.2114 -0.9267
  341MOL0     H46007   1.340   6.293   3.011  1.4216 -2.2414  0.3674
  341MOL0     H46008   1.354   6.209   3.153 -1.1928 -2.1288 -3.3819
  341MOL0     H46009   1.249   6.496   3.171 -0.4478 -0.0314 -4.0720
  341MOL0     H46010   1.213   6.360   3.279 -1.4587  2.6872  0.1014
  341MOL0     H46011   1.125   6.350   3.002  1.5983 -0.4968  0.4075
  341MOL0     H46012   1.065   6.262   3.150  1.4910 -0.4489  0.3441
  341MOL0     H46013   1.024   6.562   3.173  0.8769  0.3417 -1.1451
  341MOL0     H46014   0.931   6.423   3.228  0.3858  0.9359  1.3308
  341MOL0     H46015   0.943   6.527   2.940 -1.6590  0.1424 -1.2715
  341MOL0     H46016   0.825   6.563   3.055 -0.8358 -0.4093  0.0580
  341MOL0     H46017   1.986   6.462   3.144 -1.1179 -0.0014  0.6500
  341MOL0     H46018   2.141   6.660   3.190  0.1243  1.4978  0.5482
  341MOL0     H46019   2.155   7.164   3.133  1.1954  1.5259  2.3349
  341MOL0     H46020   2.294   7.326   3.201  2.8877  0.4666  0.9188
  341MOL0     H46021   4.162   7.218   3.964  0.3931  0.6824  0.7444
  341MOL0     H46022   4.345   7.194   4.129  0.0231  0.3582  1.0462
  341MOL0     H46023   4.413   7.292   4.647  0.8924  0.9823  1.4827
  341MOL0     H46024   4.570   7.285   4.816 -1.5242  0.3075 -0.3163
  341MOL0     H46025   4.956   7.037   4.770 -2.3542 -0.1264 -1.2423
  341MOL0     H46026   4.987   7.190   4.687 -1.2979  2.7948  0.8586
  341MOL0     H46027   5.054   7.295   4.890  0.7007 -0.3756  3.0186
  341MOL0     H46028   5.150   7.158   4.871 -0.3272 -1.3770 -0.3623
  341MOL0     H46029   4.954   7.020   5.000  1.8978 -1.3678 -0.8421
  341MOL0     H46030   4.937   7.180   5.070 -2.5142  0.5875 -3.4281
  341MOL0     H46031   5.166   6.986   5.081  0.5569 -0.4874  0.5182
  341MOL0     H46032   5.071   7.052   5.212  1.2958 -2.7369  0.7125
  341MOL0     H46033   5.408   7.311   5.190  0.0191 -0.1986  1.4347
  341MOL0     H46034   4.840   7.045   4.574  1.7164  2.2327  1.3476
  341MOL0     H46035   4.674   7.020   4.415  0.2335 -1.1968  0.3213
  342MOL0     O46036   8.091   5.490   3.700 -0.4878 -0.2544 -0.0513
  342MOL0     C46037   8.154   5.416   3.630 -0.4641  0.1897  1.4262
  342MOL0     O46038   8.139   5.405   3.494 -0.4332 -0.1275 -0.6670
  342MOL0     C46039   8.024   5.461   3.432 -0.8051  0.7645 -0.0945
  342MOL0     C46040   7.934   5.374   3.366  0.0084  0.0873 -0.4778
  342MOL0     C46041   7.826   5.432   3.310  0.1446 -0.0471  0.3850
  342MOL0     C46042   7.799   5.567   3.309  0.0282 -1.7309 -0.2098
  342MOL0     O46043   7.690   5.618   3.246 -0.2618 -0.0763 -0.2665
  342MOL0     C46044   7.711   5.729   3.158 -0.1780  0.1126 -0.4883
  342MOL0     C46045   7.654   5.682   3.017  0.8215  0.2309 -0.1618
  342MOL0     C46046   7.503   5.650   3.016 -0.5280  0.6538  0.2367
  342MOL0     C46047   7.440   5.687   2.891  0.1656  0.0344 -0.2613
  342MOL0     C46048   7.297   5.634   2.892 -0.7116  0.3032  0.1672
  342MOL0     C46049   7.214   5.680   2.770 -0.5844 -0.2842 -0.0048
  342MOL0     C46050   7.067   5.655   2.793 -0.4327 -0.1690  0.0505
  342MOL0     C46051   6.975   5.658   2.671  0.2601  0.2052 -0.2482
  342MOL0     N46052   6.836   5.639   2.718  0.4288 -0.1647 -0.4797
  342MOL0     C46053   6.764   5.742   2.783 -0.9761 -0.5427  0.7318
  342MOL0     C46054   6.646   5.685   2.808 -0.4299  0.1086 -0.4938
  342MOL0     C46055   6.543   5.754   2.890 -0.5553 -1.2358  0.0784
  342MOL0     C46056   6.401   5.729   2.852  0.0079 -0.1292  0.0189
  342MOL0     C46057   6.367   5.804   2.728  0.8441  0.5923 -0.3213
  342MOL0     C46058   6.218   5.801   2.701 -0.8047  0.6922 -0.4652
  342MOL0     O46059   6.160   5.672   2.698 -0.5002  0.3954  0.3262
  342MOL0     C46060   6.187   5.602   2.583 -0.7579  0.2799 -0.4084
  342MOL0     C46061   6.123   5.617   2.460  0.1137 -0.5773 -0.2779
  342MOL0     C46062   6.165   5.544   2.344  0.3819 -0.1137 -0.0124
  342MOL0     C46063   6.076   5.541   2.223  0.6441 -0.5916 -0.3140
  342MOL0     C46064   6.286   5.464   2.354 -0.3630  0.4740 -0.1654
  342MOL0     C46065   6.345   5.387   2.240 -0.3905  0.0217  0.0714
  342MOL0     O46066   6.292   5.408   2.116 -0.1259 -0.0734  0.0638
  342MOL0     C46067   6.348   5.341   2.007 -0.2229 -0.1865  0.5187
  342MOL0     C46068   6.478   5.369   1.967  0.2180 -0.0492 -0.0031
  342MOL0     C46069   6.542   5.303   1.860 -0.3043  0.0506 -0.6466
  342MOL0     C46070   6.474   5.198   1.797  0.2262 -0.1766 -0.3573
  342MOL0     O46071   6.543   5.130   1.694  0.1408  0.5438  0.1261
  342MOL0     C46072   6.671   5.081   1.720 -0.6361 -0.9411  0.1317
  342MOL0     C46073   6.780   5.130   1.623  0.2853 -0.9298  0.3906
  342MOL0     C46074   6.735   5.084   1.486  0.0371 -0.8495  0.1751
  342MOL0     C46075   6.687   5.193   1.393 -0.3339 -0.2120 -0.2562
  342MOL0     C46076   6.795   5.275   1.326  0.4419  0.4199  0.0432
  342MOL0     C46077   6.742   5.402   1.247  0.3276 -0.2517  0.1597
  342MOL0     C46078   6.658   5.367   1.124 -0.0463  0.2223  0.4955
  342MOL0     C46079   6.579   5.485   1.065 -0.0995  0.0959 -0.6431
  342MOL0    Cl46080   6.444   5.535   1.169  0.3977 -0.3387 -0.2940
  342MOL0     C46081   6.345   5.163   1.847  0.0493  0.2882 -1.1358
  342MOL0     C46082   6.283   5.231   1.947  0.2857  0.3394  0.0267
  342MOL0     O46083   6.449   5.315   2.258 -0.5075  0.3299 -0.1292
  342MOL0     C46084   6.357   5.453   2.477 -0.5190  0.7740 -0.6403
  342MOL0     C46085   6.302   5.512   2.591 -0.3128 -0.0377 -0.2147
  342MOL0     N46086   6.639   5.553   2.758  0.7135  0.1106 -0.6802
  342MOL0     N46087   6.753   5.526   2.704 -0.3114  0.7330  0.4123
  342MOL0     C46088   7.897   5.646   3.376 -0.4881 -0.2140  0.4298
  342MOL0     C46089   8.017   5.595   3.422  0.3596  0.0521 -0.6657
  342MOL0     C46090   8.272   5.345   3.689 -0.4472  0.6436  0.0685
  342MOL0     C46091   8.311   5.372   3.827  0.4693 -1.1443  0.1308
  342MOL0     C46092   8.408   5.303   3.893  0.5794  0.1497 -0.9402
  342MOL0     C46093   8.487   5.213   3.817  0.5959  0.0637  0.0677
  342MOL0     O46094   8.595   5.148   3.883  0.2594  0.0488  0.4523
  342MOL0     C46095   8.713   5.229   3.856 -0.2456  0.4653 -0.0319
  342MOL0     C46096   8.811   5.191   3.968  0.1757  0.1031  0.3574
  342MOL0     C46097   8.827   5.036   3.976  0.2573 -0.2785 -0.0944
  342MOL0     C46098   8.891   5.008   4.115  1.3353  0.1243 -0.5089
  342MOL0     C46099   9.021   5.077   4.123 -0.5449 -0.0252  0.6534
  342MOL0     C46100   9.122   5.139   4.130  0.3220  0.1908  0.1213
  342MOL0     C46101   8.452   5.184   3.679 -0.2152  0.9583  0.1382
  342MOL0     C46102   8.350   5.249   3.619  0.5825  0.9340 -0.1282
  342MOL0     H46103   7.949   5.266   3.371 -0.4924  0.0600  0.7440
  342MOL0     H46104   7.757   5.361   3.264 -2.8160  0.5780  3.4439
  342MOL0     H46105   7.662   5.820   3.195  1.5217 -0.3033  3.2354
  342MOL0     H46106   7.817   5.756   3.162 -0.3011  0.4963  0.9939
  342MOL0     H46107   7.689   5.749   2.938  0.4397 -1.8172 -2.1934
  342MOL0     H46108   7.699   5.591   2.977 -1.7529 -0.0642 -2.7348
  342MOL0     H46109   7.492   5.546   3.049 -3.3683  0.9565  0.4602
  342MOL0     H46110   7.454   5.709   3.093 -1.1851 -0.5370  0.7566
  342MOL0     H46111   7.433   5.796   2.885  0.3983  0.0412 -0.4276
  342MOL0     H46112   7.500   5.650   2.807  1.6284 -0.3048  0.8769
  342MOL0     H46113   7.297   5.525   2.897  0.2543  0.1522 -2.0883
  342MOL0     H46114   7.250   5.677   2.981 -0.5953  0.4889  0.1392
  342MOL0     H46115   7.227   5.786   2.747 -0.3192 -0.5617 -1.1799
  342MOL0     H46116   7.251   5.623   2.684  1.1041  2.3222 -1.1250
  342MOL0     H46117   7.056   5.560   2.845  0.4304 -1.4242 -1.9717
  342MOL0     H46118   7.033   5.733   2.862  3.7898  0.7150  1.3787
  342MOL0     H46119   6.985   5.585   2.590 -1.3687  1.5725 -1.7815
  342MOL0     H46120   6.983   5.758   2.626 -0.1905  0.5075  0.3178
  342MOL0     H46121   6.802   5.839   2.813  3.0297 -1.7193  0.0236
  342MOL0     H46122   6.579   5.739   2.992  0.5223  3.2415  0.5533
  342MOL0     H46123   6.544   5.864   2.888  0.3462 -1.2266  0.7069
  342MOL0     H46124   6.333   5.759   2.932  0.5455 -0.0621  0.4577
  342MOL0     H46125   6.382   5.622   2.835 -2.4628  0.6144 -2.8466
  342MOL0     H46126   6.413   5.754   2.643 -0.9795 -0.2153 -0.8814
  342MOL0     H46127   6.416   5.902   2.718  3.4339 -0.7902 -2.8411
  342MOL0     H46128   6.196   5.851   2.606 -1.2749 -1.6921 -1.6855
  342MOL0     H46129   6.165   5.846   2.785 -2.4144 -1.6216 -0.1384
  342MOL0     H46130   6.039   5.685   2.457  1.7975  1.7954  2.1383
  342MOL0     H46131   6.046   5.440   2.192  0.4304  0.2263 -3.1052
  342MOL0     H46132   5.989   5.608   2.227  0.6235 -0.5563 -1.1232
  342MOL0     H46133   6.134   5.584   2.141  0.4056 -1.9034 -1.1998
  342MOL0     H46134   6.536   5.447   2.017 -0.1422  0.1134  0.1642
  342MOL0     H46135   6.636   5.342   1.825 -1.4529  2.2461 -1.4702
  342MOL0     H46136   6.708   5.114   1.817 -2.8864  1.8662  0.2018
  342MOL0     H46137   6.678   4.972   1.722  1.2749 -0.9143 -1.8792
  342MOL0     H46138   6.794   5.239   1.627 -2.9888 -0.4508  2.1432
  342MOL0     H46139   6.872   5.074   1.643  1.1768  0.1945 -0.4190
  342MOL0     H46140   6.652   5.014   1.489 -0.0868 -0.7118 -0.0136
  342MOL0     H46141   6.812   5.022   1.438 -0.0615 -0.4056 -0.5900
  342MOL0     H46142   6.630   5.157   1.306 -1.9415  0.2225  0.5752
  342MOL0     H46143   6.617   5.259   1.445 -0.6510  0.7563 -1.8509
  342MOL0     H46144   6.851   5.214   1.254  1.5271  0.2260  1.0198
  342MOL0     H46145   6.872   5.315   1.393  1.2184 -0.9329 -0.0125
  342MOL0     H46146   6.678   5.452   1.320 -0.4337  0.3251 -0.8856
  342MOL0     H46147   6.827   5.467   1.223 -1.8321  1.2413 -4.7043
  342MOL0     H46148   6.596   5.279   1.143  1.4222 -0.7259  0.9835
  342MOL0     H46149   6.722   5.330   1.043 -1.1018  0.2626 -0.3939
  342MOL0     H46150   6.543   5.449   0.968  0.3070  0.2901 -0.8669
  342MOL0     H46151   6.649   5.568   1.054  1.5293 -0.9270  1.2251
  342MOL0     H46152   6.289   5.076   1.813  0.1389  0.1418 -0.9083
  342MOL0     H46153   6.180   5.213   1.976 -0.4547  2.7401 -0.8241
  342MOL0     H46154   6.448   5.400   2.502  0.9409  3.8988  1.4559
  342MOL0     H46155   6.359   5.500   2.683 -1.4244 -1.0816  0.3755
  342MOL0     H46156   7.878   5.753   3.376 -0.5945 -0.2324  0.0996
  342MOL0     H46157   8.094   5.657   3.466 -0.0802  1.0758 -1.2758
  342MOL0     H46158   8.253   5.442   3.887  2.8226 -0.9697  2.3281
  342MOL0     H46159   8.421   5.335   3.996 -0.5959  2.8025 -1.5227
  342MOL0     H46160   8.761   5.199   3.763  0.0066 -0.4629  0.3773
  342MOL0     H46161   8.703   5.337   3.870  0.8499  0.3553  2.0605
  342MOL0     H46162   8.776   5.227   4.065  3.2993 -1.5298  2.2979
  342MOL0     H46163   8.904   5.244   3.944  0.2389  0.8574  2.1345
  342MOL0     H46164   8.900   5.003   3.901 -0.7931 -0.9191 -0.8624
  342MOL0     H46165   8.739   4.972   3.964 -1.5494  2.0529 -0.0059
  342MOL0     H46166   8.904   4.900   4.127  0.3955  0.0763  0.1924
  342MOL0     H46167   8.816   5.039   4.187  0.2776 -0.7588 -1.1905
  342MOL0     H46168   9.210   5.198   4.144  1.3597 -1.2069 -0.2996
  342MOL0     H46169   8.520   5.111   3.637  0.9922  2.6178 -0.9197
  342MOL0     H46170   8.331   5.225   3.515 -0.9327  0.2741  0.2615
  343MOL0     O46171  10.472   2.668   1.072 -0.8185  0.0560  0.0792
  343MOL0     C46172  10.519   2.628   1.177  0.7578  1.0300  0.6062
  343MOL0     O46173  10.435   2.574   1.276  0.3375  0.3048  0.0130
  343MOL0     C46174  10.306   2.545   1.238 -0.0219 -0.1001  0.1360
  343MOL0     C46175  10.209   2.648   1.258 -0.1436 -0.1628 -0.1841
  343MOL0     C46176  10.077   2.630   1.216 -0.1520  0.3614 -0.0643
  343MOL0     C46177  10.034   2.511   1.159 -0.2370  0.2284 -0.2505
  343MOL0     O46178   9.900   2.516   1.136 -0.4290 -0.7898 -0.2487
  343MOL0     C46179   9.846   2.471   1.009  0.9185  0.6992  0.1776
  343MOL0     C46180   9.740   2.563   0.964  0.7567 -0.3708  0.3215
  343MOL0     C46181   9.806   2.696   0.917 -0.7622 -0.0487 -0.2742
  343MOL0     C46182   9.686   2.787   0.882  0.5100 -0.0560 -0.9745
  343MOL0     C46183   9.755   2.929   0.856  0.2326 -0.3333 -0.2438
  343MOL0     C46184   9.655   3.034   0.898  0.9969 -0.5771 -0.2275
  343MOL0     C46185   9.708   3.177   0.880 -0.7947  0.4645 -0.2001
  343MOL0     C46186   9.722   3.225   0.730 -0.3299 -0.2015  0.0870
  343MOL0     N46187   9.762   3.371   0.705  0.8723  1.0398 -0.1639
  343MOL0     C46188   9.663   3.466   0.719 -0.3373 -0.8656 -0.1635
  343MOL0     C46189   9.721   3.577   0.662 -0.0078  0.3207  0.2447
  343MOL0     C46190   9.678   3.718   0.665 -0.3766  0.2740 -0.0374
  343MOL0     C46191   9.522   3.746   0.648  0.8754 -0.2530  0.2760
  343MOL0     C46192   9.463   3.715   0.509  0.4255 -0.0262 -0.5430
  343MOL0     C46193   9.537   3.795   0.408 -0.2054  0.5964 -0.1846
  343MOL0     O46194   9.535   3.936   0.439 -0.1764 -0.1585 -0.5726
  343MOL0     C46195   9.424   4.011   0.442 -0.6844 -0.8719  0.0102
  343MOL0     C46196   9.435   4.142   0.496  0.6597  0.6353  0.1489
  343MOL0     C46197   9.321   4.227   0.496  0.7154  0.0152 -0.7503
  343MOL0     C46198   9.344   4.354   0.585 -0.2213 -0.1885 -0.0542
  343MOL0     C46199   9.206   4.189   0.426  0.5599 -0.0248  0.1886
  343MOL0     C46200   9.088   4.278   0.400  0.9542  0.3160 -0.5843
  343MOL0     O46201   9.048   4.363   0.503  0.4209 -0.2886 -0.1778
  343MOL0     C46202   8.924   4.423   0.509  0.5225 -0.4387  0.3565
  343MOL0     C46203   8.853   4.470   0.392 -0.2086  1.1877 -0.2806
  343MOL0     C46204   8.723   4.515   0.408 -0.3108  0.3362 -0.5889
  343MOL0     C46205   8.672   4.548   0.533 -0.2934  0.1156 -0.6663
  343MOL0     O46206   8.539   4.597   0.559 -0.7675  0.5036 -1.1743
  343MOL0     C46207   8.443   4.605   0.458 -0.8964  0.1643  0.6891
  343MOL0     C46208   8.312   4.657   0.514  0.3326 -0.5336 -0.6310
  343MOL0     C46209   8.309   4.811   0.540 -0.6434 -0.4389  0.5226
  343MOL0     C46210   8.181   4.853   0.615  0.5195  0.7499  0.0283
  343MOL0     C46211   8.165   5.005   0.620  0.3732 -0.0475 -0.1366
  343MOL0     C46212   8.042   5.062   0.690 -0.5212  0.1949 -0.0617
  343MOL0     C46213   7.909   5.020   0.627  0.7680  0.5478  0.0272
  343MOL0     C46214   7.882   5.093   0.492  0.8537 -0.0274 -0.0693
  343MOL0    Cl46215   7.765   5.010   0.394 -0.3984 -0.1285 -0.2070
  343MOL0     C46216   8.748   4.516   0.648 -0.8574 -0.0489  0.7751
  343MOL0     C46217   8.871   4.449   0.635 -0.2768 -0.9129 -0.3528
  343MOL0     O46218   9.036   4.284   0.284  0.2440 -0.7068 -0.4887
  343MOL0     C46219   9.198   4.057   0.371  0.0720  0.5206  0.3746
  343MOL0     C46220   9.309   3.975   0.375 -0.2527 -0.7261  0.0369
  343MOL0     N46221   9.850   3.545   0.626  0.3531  0.1911 -0.0681
  343MOL0     N46222   9.876   3.419   0.651 -0.2415 -0.7777 -0.3297
  343MOL0     C46223  10.132   2.419   1.121  0.9317 -0.2590  0.8606
  343MOL0     C46224  10.264   2.430   1.164  0.2472 -0.5316 -0.6830
  343MOL0     C46225  10.660   2.628   1.215 -0.2682  0.2699  0.4349
  343MOL0     C46226  10.711   2.582   1.336 -0.0324  0.6287  0.6893
  343MOL0     C46227  10.846   2.580   1.364 -0.0965  0.0043  0.4127
  343MOL0     C46228  10.936   2.643   1.275 -0.0437 -0.5887 -0.2713
  343MOL0     O46229  11.071   2.669   1.304  0.5019  0.5012  0.2396
  343MOL0     C46230  11.123   2.634   1.434  0.3348 -0.3050 -0.6569
  343MOL0     C46231  11.266   2.657   1.434 -0.9901 -1.2627  0.3763
  343MOL0     C46232  11.325   2.626   1.573  0.0664 -0.6975  0.0343
  343MOL0     C46233  11.478   2.633   1.555  0.0745 -0.0731 -0.0344
  343MOL0     C46234  11.547   2.629   1.681  0.6904 -0.7575 -1.0151
  343MOL0     C46235  11.606   2.632   1.786 -0.3895 -0.2766  0.6721
  343MOL0     C46236  10.885   2.699   1.159  0.1589  0.1697  0.0356
  343MOL0     C46237  10.753   2.687   1.126  0.3494  1.0741  0.3981
  343MOL0     H46238  10.241   2.743   1.300  0.4235 -0.0789 -0.7917
  343MOL0     H46239  10.015   2.715   1.243  1.9880  1.0272  3.2477
  343MOL0     H46240   9.923   2.469   0.931  0.3603  0.0595 -0.3597
  343MOL0     H46241   9.795   2.375   1.009 -2.3763  2.2663 -2.3756
  343MOL0     H46242   9.673   2.521   0.888  0.1451  0.2440  0.5049
  343MOL0     H46243   9.676   2.592   1.048  0.3051  0.5138 -0.3137
  343MOL0     H46244   9.865   2.743   0.996 -0.9657  2.2423 -1.4090
  343MOL0     H46245   9.875   2.678   0.833 -0.3035  1.7362 -0.3115
  343MOL0     H46246   9.625   2.756   0.797 -2.9934  1.6590  0.7081
  343MOL0     H46247   9.613   2.787   0.963  1.0000 -1.6796 -0.4923
  343MOL0     H46248   9.848   2.936   0.913 -0.4148 -1.3641  0.9793
  343MOL0     H46249   9.768   2.941   0.748 -0.8407 -1.2784 -0.4949
  343MOL0     H46250   9.566   3.016   0.836 -1.1715 -2.3271  3.0982
  343MOL0     H46251   9.627   3.023   1.003 -0.6945 -1.7519 -0.7585
  343MOL0     H46252   9.639   3.241   0.934 -0.6807 -1.3432  2.2583
  343MOL0     H46253   9.802   3.186   0.935 -0.1871 -2.2985 -0.6032
  343MOL0     H46254   9.630   3.208   0.675 -0.0582  0.9338 -0.7380
  343MOL0     H46255   9.795   3.157   0.685  0.2775 -0.5811  1.5617
  343MOL0     H46256   9.572   3.455   0.777  1.5129 -2.5752  2.6370
  343MOL0     H46257   9.711   3.759   0.761  2.5560 -0.4646 -0.6606
  343MOL0     H46258   9.730   3.779   0.591  2.5895  1.9439  3.1249
  343MOL0     H46259   9.489   3.843   0.685  1.7432 -1.1973  3.9679
  343MOL0     H46260   9.463   3.676   0.709 -0.2428  0.4729  0.0564
  343MOL0     H46261   9.355   3.734   0.514  0.3583 -0.7363  1.9212
  343MOL0     H46262   9.481   3.609   0.493 -1.1519 -0.7549  2.0323
  343MOL0     H46263   9.492   3.787   0.309  1.5434  0.8151 -1.0377
  343MOL0     H46264   9.639   3.756   0.399 -0.5556 -0.4774  0.3814
  343MOL0     H46265   9.530   4.174   0.538 -0.7208  3.7327  1.2124
  343MOL0     H46266   9.320   4.450   0.538  0.3983  0.2772  0.5542
  343MOL0     H46267   9.275   4.345   0.670 -0.2432 -0.0935 -0.0619
  343MOL0     H46268   9.442   4.355   0.633 -1.0876 -0.7446  1.8196
  343MOL0     H46269   8.894   4.459   0.292 -2.2496  0.1703 -1.0725
  343MOL0     H46270   8.664   4.549   0.324  0.8510  4.8835  0.1430
  343MOL0     H46271   8.475   4.679   0.384 -1.6263  2.5519  2.6584
  343MOL0     H46272   8.421   4.509   0.409 -2.5602  1.1278 -0.5781
  343MOL0     H46273   8.228   4.629   0.448 -1.8543  0.7133  1.4620
  343MOL0     H46274   8.288   4.601   0.605  0.2690  1.5667  0.6865
  343MOL0     H46275   8.310   4.857   0.441 -2.0453 -2.8471 -0.6824
  343MOL0     H46276   8.402   4.844   0.588 -1.1595  0.9135  0.6309
  343MOL0     H46277   8.098   4.797   0.572  0.3627  0.3282  0.8497
  343MOL0     H46278   8.182   4.825   0.721 -0.2187  3.3661  0.7994
  343MOL0     H46279   8.147   5.033   0.516  1.0322  0.2764 -0.1691
  343MOL0     H46280   8.249   5.062   0.662 -0.3632 -0.5064  2.1011
  343MOL0     H46281   8.058   5.030   0.793  0.3757 -0.7437 -0.4737
  343MOL0     H46282   8.039   5.171   0.699 -2.6748  0.1600  0.0966
  343MOL0     H46283   7.829   5.041   0.698  1.9302  0.0588  1.5178
  343MOL0     H46284   7.920   4.912   0.609  0.1750  0.4018  0.5367
  343MOL0     H46285   7.977   5.093   0.438  0.7513 -2.0904 -0.3189
  343MOL0     H46286   7.859   5.198   0.516  1.9109  0.2085 -0.0140
  343MOL0     H46287   8.714   4.535   0.749  2.2966 -1.9585  2.3537
  343MOL0     H46288   8.931   4.419   0.721  1.2338  0.9923 -0.6662
  343MOL0     H46289   9.106   4.027   0.322 -0.7023  1.3835  1.2448
  343MOL0     H46290   9.305   3.875   0.333  4.1736 -1.8239  1.6736
  343MOL0     H46291  10.107   2.327   1.070  2.5591  0.5444 -1.5369
  343MOL0     H46292  10.338   2.356   1.138  0.3287 -0.8246  0.3380
  343MOL0     H46293  10.635   2.535   1.397 -2.3495  0.6422 -2.0132
  343MOL0     H46294  10.873   2.537   1.460 -0.6168 -0.9749  0.1354
  343MOL0     H46295  11.077   2.675   1.524  1.0286 -0.7455 -0.0950
  343MOL0     H46296  11.111   2.525   1.443 -0.3466 -0.0607  2.3534
  343MOL0     H46297  11.279   2.760   1.401  2.3634 -1.3716  1.0044
  343MOL0     H46298  11.294   2.593   1.349  4.2967 -2.3818  2.5511
  343MOL0     H46299  11.321   2.520   1.600  4.3209 -0.3519  3.0512
  343MOL0     H46300  11.288   2.695   1.650 -0.8865  1.3483 -2.1357
  343MOL0     H46301  11.512   2.719   1.496 -2.4981  0.2276 -1.2348
  343MOL0     H46302  11.511   2.543   1.503  1.7271  0.5595 -0.1322
  343MOL0     H46303  11.660   2.639   1.878  1.1898 -2.9495  0.0639
  343MOL0     H46304  10.958   2.757   1.103 -0.8373  1.9696  0.5180
  343MOL0     H46305  10.713   2.724   1.032 -1.2922 -1.6533 -0.0843
  344MOL0     O46306   4.670   9.688  10.806 -0.4983  0.1979  0.2797
  344MOL0     C46307   4.731   9.607  10.731 -0.4382 -0.7072  0.3114
  344MOL0     O46308   4.688   9.567  10.607 -0.1900  0.4224 -0.4273
  344MOL0     C46309   4.564   9.610  10.591  0.7429  0.6597  1.2077
  344MOL0     C46310   4.543   9.734  10.515 -0.1420 -0.8697 -0.0161
  344MOL0     C46311   4.412   9.761  10.477  0.0241  0.7089  0.6107
  344MOL0     C46312   4.304   9.673  10.502  0.4202  0.0840  0.0839
  344MOL0     O46313   4.181   9.715  10.470  1.2742 -0.8011 -0.6113
  344MOL0     C46314   4.062   9.637  10.494 -0.5899  0.0278  0.5693
  344MOL0     C46315   3.934   9.711  10.440  0.3589  0.1766 -0.7430
  344MOL0     C46316   3.921   9.679  10.295  0.0131  0.0032  0.6086
  344MOL0     C46317   3.821   9.776  10.239  0.3027 -0.8197  0.2940
  344MOL0     C46318   3.795   9.756  10.088  0.4345  0.3690  0.2528
  344MOL0     C46319   3.729   9.878  10.028  0.8183  0.5453 -0.1055
  344MOL0     C46320   3.665   9.857   9.892 -0.4017  0.1110  0.8230
  344MOL0     C46321   3.609   9.982   9.846 -0.5105 -0.5345  0.7150
  344MOL0     N46322   3.519   9.951   9.737  0.2630  0.7704 -0.1462
  344MOL0     C46323   3.381   9.963   9.744  0.0095  0.3550 -0.4625
  344MOL0     C46324   3.328   9.913   9.633  0.0650 -0.1881 -1.3264
  344MOL0     C46325   3.186   9.921   9.594  0.6950  0.0271 -0.6830
  344MOL0     C46326   3.143  10.062   9.525  0.1776 -1.2278 -0.0724
  344MOL0     C46327   3.205  10.090   9.383 -0.6601 -1.0857 -0.6017
  344MOL0     C46328   3.122  10.010   9.277  0.1525  0.1496  0.0417
  344MOL0     O46329   2.993  10.069   9.259 -0.1645  0.3838  0.0025
  344MOL0     C46330   2.908  10.002   9.170  0.2231 -0.8282 -0.1894
  344MOL0     C46331   2.776  10.051   9.172  0.0438 -0.3251  0.5768
  344MOL0     C46332   2.668  10.018   9.084 -0.7472  0.6927 -0.2053
  344MOL0     C46333   2.531  10.077   9.112 -0.0489  0.1102  0.8545
  344MOL0     C46334   2.711   9.918   8.986  0.0059 -0.1425  0.0759
  344MOL0     C46335   2.616   9.866   8.886 -0.4045 -0.3241  0.5951
  344MOL0     O46336   2.678   9.819   8.776 -0.2739  0.4272  0.1583
  344MOL0     C46337   2.623   9.743   8.680  0.3970  0.5447 -1.0271
  344MOL0     C46338   2.528   9.642   8.710 -1.2236 -0.2710  0.4548
  344MOL0     C46339   2.456   9.575   8.612 -0.5524  0.7826 -0.0476
  344MOL0     C46340   2.491   9.597   8.479 -0.3196 -0.5149  0.3543
  344MOL0     O46341   2.424   9.522   8.384 -0.3235  0.1546  0.2986
  344MOL0     C46342   2.496   9.503   8.261 -0.7960  0.4801 -0.9300
  344MOL0     C46343   2.437   9.382   8.181 -0.5098 -0.3487  0.3455
  344MOL0     C46344   2.395   9.263   8.264 -1.0355  0.2624  1.2197
  344MOL0     C46345   2.497   9.231   8.378 -0.0383 -0.5555  0.6988
  344MOL0     C46346   2.512   9.073   8.391 -1.3378  0.9528  0.1012
  344MOL0     C46347   2.587   9.006   8.274  0.2112  0.3173 -0.6744
  344MOL0     C46348   2.588   8.853   8.277 -0.0410 -0.1296 -0.4040
  344MOL0     C46349   2.672   8.804   8.164 -0.2242 -0.6103 -0.2162
  344MOL0    Cl46350   2.591   8.820   8.010 -0.4011 -0.0396 -0.1745
  344MOL0     C46351   2.603   9.681   8.454 -0.7366 -0.2092  0.6916
  344MOL0     C46352   2.662   9.760   8.549  0.3075  0.4786  0.7200
  344MOL0     O46353   2.491   9.870   8.902 -0.2373  0.3952 -0.3167
  344MOL0     C46354   2.845   9.874   8.977 -1.0132 -0.5327  0.2556
  344MOL0     C46355   2.942   9.912   9.077  0.6995  0.0091  0.2876
  344MOL0     N46356   3.432   9.877   9.558 -0.1721  0.6804  0.3970
  344MOL0     N46357   3.548   9.907   9.607 -0.3157  0.5880  0.3083
  344MOL0     C46358   4.327   9.556  10.573  0.3907 -0.2758  0.5943
  344MOL0     C46359   4.455   9.522  10.610  0.0025 -0.2208 -0.4926
  344MOL0     C46360   4.864   9.565  10.777 -0.1502 -0.4711 -0.1815
  344MOL0     C46361   4.971   9.544  10.683 -0.2332  0.4697 -0.0170
  344MOL0     C46362   5.105   9.520  10.732 -0.2950  0.5852 -0.5144
  344MOL0     C46363   5.135   9.538  10.866  1.2389 -0.1815 -0.5384
  344MOL0     O46364   5.254   9.513  10.926  0.3379 -0.1959  0.1668
  344MOL0     C46365   5.357   9.436  10.860  0.8576  0.1175  0.4820
  344MOL0     C46366   5.463   9.373  10.951 -0.0541 -0.6516  0.6094
  344MOL0     C46367   5.505   9.482  11.060  0.8221 -0.1740  0.3605
  344MOL0     C46368   5.610   9.428  11.149 -0.4229  0.2756  0.1828
  344MOL0     C46369   5.738   9.437  11.079  0.0349 -0.8393 -0.3000
  344MOL0     C46370   5.847   9.452  11.036  0.5598 -0.2003 -0.4930
  344MOL0     C46371   5.020   9.559  10.960  0.6837  0.5349  0.0713
  344MOL0     C46372   4.891   9.565  10.914  0.6020  0.0481  0.2651
  344MOL0     H46373   4.624   9.801  10.490  0.7985 -1.7666  0.5729
  344MOL0     H46374   4.408   9.851  10.417  0.0117  0.7863  0.7260
  344MOL0     H46375   4.071   9.535  10.454  0.1098  0.4056 -0.2648
  344MOL0     H46376   4.052   9.627  10.602 -0.7510  0.8801  0.6378
  344MOL0     H46377   3.851   9.670  10.499  0.6102 -1.4111 -1.4374
  344MOL0     H46378   3.947   9.816  10.467 -1.2107  0.7238 -1.9506
  344MOL0     H46379   4.020   9.681  10.250  0.4697  0.0301  1.5982
  344MOL0     H46380   3.880   9.580  10.272  1.0548 -0.1076 -0.9649
  344MOL0     H46381   3.730   9.756  10.296  1.0023 -0.2368  1.6529
  344MOL0     H46382   3.858   9.878  10.251 -0.0865 -0.8901  2.4263
  344MOL0     H46383   3.888   9.736  10.035 -0.5575  0.2296 -1.5217
  344MOL0     H46384   3.733   9.667  10.071  0.8626 -1.2961  5.4922
  344MOL0     H46385   3.645   9.913  10.090 -0.0435 -0.0615 -0.8968
  344MOL0     H46386   3.801   9.960  10.032  1.9323 -0.4125 -0.0174
  344MOL0     H46387   3.729   9.811   9.816  0.8867  2.8052  0.1771
  344MOL0     H46388   3.589   9.779   9.906  0.7777 -1.7149 -2.0948
  344MOL0     H46389   3.691  10.045   9.812 -0.8507 -0.4567  0.0106
  344MOL0     H46390   3.554  10.036   9.925 -1.6040 -0.1362 -0.2840
  344MOL0     H46391   3.319  10.006   9.823  1.3685  0.3313  0.6499
  344MOL0     H46392   3.157   9.841   9.526  1.4180  1.9673 -3.4567
  344MOL0     H46393   3.125   9.916   9.685  1.0069  0.2876 -0.4515
  344MOL0     H46394   3.171  10.142   9.594 -0.0276 -1.9380  0.8351
  344MOL0     H46395   3.036  10.070   9.508 -0.5390 -2.4164  3.2684
  344MOL0     H46396   3.305  10.051   9.363  0.2313  1.8540 -2.5853
  344MOL0     H46397   3.199  10.196   9.360 -2.0460 -1.4394 -2.0635
  344MOL0     H46398   3.121   9.904   9.303  1.4729 -0.1309 -0.9763
  344MOL0     H46399   3.182  10.022   9.186  0.0468  1.5807  0.1416
  344MOL0     H46400   2.747  10.113   9.257 -2.6724 -1.9124  0.9495
  344MOL0     H46401   2.522  10.133   9.206 -2.7014  0.1378  0.6375
  344MOL0     H46402   2.508  10.150   9.034  0.0979 -0.0221  0.6871
  344MOL0     H46403   2.451  10.003   9.123  0.3624 -0.4687  0.0600
  344MOL0     H46404   2.498   9.643   8.814 -0.3359  4.7145  0.9148
  344MOL0     H46405   2.369   9.512   8.625 -1.3047  2.0015  1.0886
  344MOL0     H46406   2.477   9.595   8.206 -1.2249  1.1202  0.2350
  344MOL0     H46407   2.601   9.474   8.273 -1.0723  0.5857  4.2112
  344MOL0     H46408   2.349   9.424   8.132  0.4510  0.0476 -1.1155
  344MOL0     H46409   2.502   9.346   8.100 -0.9851  3.0281 -1.7279
  344MOL0     H46410   2.374   9.179   8.198  1.5881  0.9227 -0.6064
  344MOL0     H46411   2.296   9.277   8.310 -0.8590 -0.0699  1.6977
  344MOL0     H46412   2.599   9.268   8.369  0.3576 -2.0281 -1.9408
  344MOL0     H46413   2.459   9.275   8.470 -0.0298 -1.5728  1.1990
  344MOL0     H46414   2.410   9.035   8.397 -0.6554 -1.1770 -0.8343
  344MOL0     H46415   2.563   9.061   8.487 -0.6081  1.3977 -0.2194
  344MOL0     H46416   2.530   9.039   8.187 -1.0273 -1.3491 -0.5539
  344MOL0     H46417   2.687   9.051   8.274 -1.3539  4.2355  0.0360
  344MOL0     H46418   2.485   8.814   8.281  0.5889 -2.0822 -1.6476
  344MOL0     H46419   2.634   8.829   8.373 -2.2372 -0.9679  0.5201
  344MOL0     H46420   2.707   8.701   8.179  0.7651  0.1633  3.7193
  344MOL0     H46421   2.767   8.856   8.153 -1.1905  0.6343 -4.9600
  344MOL0     H46422   2.641   9.690   8.353 -0.7835  0.2391  0.7091
  344MOL0     H46423   2.737   9.835   8.528 -0.3487  1.0092  0.2279
  344MOL0     H46424   2.870   9.812   8.891 -3.2638 -2.6891  1.0192
  344MOL0     H46425   3.046   9.881   9.072  0.9356  0.8235 -0.0386
  344MOL0     H46426   4.258   9.485  10.618  1.0972 -0.6357  1.1374
  344MOL0     H46427   4.475   9.433  10.669  1.1038  0.3221 -0.0289
  344MOL0     H46428   4.948   9.554  10.578 -0.6779 -2.2584 -0.2559
  344MOL0     H46429   5.183   9.508  10.657  0.5111  1.2947  0.1886
  344MOL0     H46430   5.314   9.351  10.806  1.4464 -0.6919  1.2636
  344MOL0     H46431   5.412   9.503  10.792  1.7229 -2.1529 -1.2004
  344MOL0     H46432   5.547   9.343  10.888 -0.4657  0.5012 -0.5157
  344MOL0     H46433   5.424   9.280  10.993 -0.7925 -0.4067  0.4732
  344MOL0     H46434   5.411   9.500  11.114  0.0402 -1.3924 -0.5304
  344MOL0     H46435   5.540   9.573  11.011 -0.5232 -0.2464 -0.7940
  344MOL0     H46436   5.575   9.328  11.177  2.8564 -0.9366  0.3464
  344MOL0     H46437   5.609   9.486  11.243 -0.0021  0.9435 -0.2149
  344MOL0     H46438   5.944   9.461  10.990  1.2952 -1.1242  0.7981
  344MOL0     H46439   5.028   9.559  11.068 -3.4751 -0.9849  0.5406
  344MOL0     H46440   4.809   9.569  10.985  0.4779  3.1003  0.0917
  345MOL0     O46441   3.112   6.012   0.031  0.5827  0.6425  0.2623
  345MOL0     C46442   3.174   6.018   0.135 -0.1805  0.2043 -0.0761
  345MOL0     O46443   3.123   6.013   0.263 -0.3381 -0.4495  0.3450
  345MOL0     C46444   2.990   6.029   0.276  0.6145 -0.1206  0.2366
  345MOL0     C46445   2.894   5.920   0.258 -0.3039  0.4060  0.3746
  345MOL0     C46446   2.755   5.941   0.272  0.9099 -0.6104 -0.8651
  345MOL0     C46447   2.698   6.068   0.304  0.1586  0.4391  0.3903
  345MOL0     O46448   2.558   6.071   0.313 -0.1898 -0.0431 -0.3700
  345MOL0     C46449   2.500   6.176   0.396 -0.1314 -0.8156 -0.5355
  345MOL0     C46450   2.352   6.140   0.442  0.8134  0.4643  0.4457
  345MOL0     C46451   2.247   6.148   0.332  0.2830 -0.6822 -0.1116
  345MOL0     C46452   2.251   6.030   0.241  1.0857  0.1053 -0.4161
  345MOL0     C46453   2.116   6.010   0.166 -0.6958 -0.0194  0.3481
  345MOL0     C46454   2.104   6.111   0.043  0.0964  0.4716 -0.1194
  345MOL0     C46455   1.969   6.094  -0.014  0.1531  0.1095 -1.0656
  345MOL0     C46456   1.942   5.969  -0.103  0.3018 -0.6327  0.1460
  345MOL0     N46457   1.794   5.949  -0.140  0.2016  0.1524  0.1428
  345MOL0     C46458   1.725   6.019  -0.240  0.8865  0.3286 -0.9468
  345MOL0     C46459   1.608   5.957  -0.258 -0.2726  0.1710  0.4960
  345MOL0     C46460   1.509   5.979  -0.360 -0.4037  0.4069  0.1907
  345MOL0     C46461   1.373   6.015  -0.312 -0.1019 -0.7311  0.9612
  345MOL0     C46462   1.279   6.016  -0.433 -0.8442 -0.0819 -0.3052
  345MOL0     C46463   1.160   6.113  -0.416 -0.0888  1.1229  0.0728
  345MOL0     O46464   1.068   6.082  -0.523  0.4176 -0.2476  0.5522
  345MOL0     C46465   0.935   6.088  -0.476  0.3841 -0.3173  0.0718
  345MOL0     C46466   0.851   5.979  -0.508 -0.0496  0.2397 -0.0871
  345MOL0     C46467   0.726   5.971  -0.465  0.4617 -0.0222 -1.1107
  345MOL0     C46468   0.646   5.850  -0.506  0.8655 -0.1466  0.2535
  345MOL0     C46469   0.671   6.078  -0.372 -0.5616  0.4982 -0.4730
  345MOL0     C46470   0.538   6.068  -0.314 -0.0687  0.1312 -0.4839
  345MOL0     O46471   0.500   5.948  -0.256  0.4637 -0.4474 -0.5690
  345MOL0     C46472   0.362   5.936  -0.243  0.3757 -0.1471 -0.7262
  345MOL0     C46473   0.279   5.923  -0.351 -0.3690 -0.1678 -0.2954
  345MOL0     C46474   0.147   5.897  -0.334  0.0086  0.8143  0.9685
  345MOL0     C46475   0.086   5.876  -0.220  0.5164  0.2400 -0.3269
  345MOL0     O46476  -0.044   5.868  -0.192 -0.0813 -0.0008 -0.0220
  345MOL0     C46477  -0.123   5.791  -0.288 -0.5516  0.3801 -0.1284
  345MOL0     C46478  -0.103   5.635  -0.264 -0.5294 -0.2112 -1.0068
  345MOL0     C46479  -0.205   5.543  -0.335 -0.1566  0.6740  0.8749
  345MOL0     C46480  -0.332   5.613  -0.395  0.4845 -0.0165 -0.2030
  345MOL0     C46481  -0.421   5.502  -0.441  0.7181 -0.9799  0.6086
  345MOL0     C46482  -0.543   5.563  -0.515  0.2837  0.2124 -0.4306
  345MOL0     C46483  -0.675   5.495  -0.479 -0.3286  1.0291  0.3052
  345MOL0     C46484  -0.795   5.517  -0.563  0.4855  0.2661  0.5960
  345MOL0    Cl46485  -0.786   5.394  -0.695 -0.0554 -0.1025 -0.2397
  345MOL0     C46486   0.168   5.880  -0.102 -0.0769  0.5243  0.3545
  345MOL0     C46487   0.307   5.908  -0.117 -0.4200 -0.3951 -0.4161
  345MOL0     O46488   0.471   6.169  -0.332 -0.1983  0.3532  0.1857
  345MOL0     C46489   0.761   6.175  -0.328 -0.8671 -0.2893 -0.6629
  345MOL0     C46490   0.889   6.191  -0.389 -0.5447 -0.2627 -0.2953
  345MOL0     N46491   1.602   5.860  -0.160  0.3675  0.3410 -0.4933
  345MOL0     N46492   1.714   5.852  -0.093 -0.6665 -0.1169  0.6074
  345MOL0     C46493   2.789   6.170   0.342 -0.2107  0.2096 -0.0041
  345MOL0     C46494   2.932   6.153   0.316  0.1804  0.2394  0.5750
  345MOL0     C46495   3.318   6.024   0.111 -0.0916  0.3085 -0.3618
  345MOL0     C46496   3.398   6.036   0.227  0.3728  0.2961  0.8618
  345MOL0     C46497   3.536   6.041   0.209 -0.0253 -0.2301 -0.4226
  345MOL0     C46498   3.596   6.048   0.084  0.4037 -0.6949 -0.0785
  345MOL0     O46499   3.730   6.068   0.072 -0.5855  0.3585 -0.1066
  345MOL0     C46500   3.824   5.971   0.129  0.4964  0.3055 -0.8321
  345MOL0     C46501   3.958   6.018   0.083  0.1869 -0.8765  0.1216
  345MOL0     C46502   3.971   6.032  -0.069 -0.4966 -0.4783  0.8060
  345MOL0     C46503   4.122   6.029  -0.108 -0.6678 -0.3516  1.7679
  345MOL0     C46504   4.135   6.030  -0.255 -0.2208  0.1432 -0.2798
  345MOL0     C46505   4.141   6.033  -0.375 -0.4749 -0.2745  0.4964
  345MOL0     C46506   3.512   6.057  -0.030 -0.3915 -0.6860  0.2238
  345MOL0     C46507   3.375   6.033  -0.011 -0.4491 -0.3997 -0.1197
  345MOL0     H46508   2.939   5.822   0.242 -2.9962 -0.6273 -1.4345
  345MOL0     H46509   2.696   5.850   0.266  1.0847 -0.6820 -1.5208
  345MOL0     H46510   2.562   6.197   0.484 -0.6058 -3.0236  0.3794
  345MOL0     H46511   2.486   6.267   0.337 -3.0496  0.5629  1.9583
  345MOL0     H46512   2.350   6.037   0.478 -2.1124  0.7658  1.4201
  345MOL0     H46513   2.315   6.210   0.518  1.0210  1.2411 -0.1581
  345MOL0     H46514   2.148   6.147   0.378  1.4508 -0.4571  2.5954
  345MOL0     H46515   2.250   6.246   0.283  0.3872 -0.4684  0.3193
  345MOL0     H46516   2.333   6.033   0.168  1.2275  0.8724 -0.2236
  345MOL0     H46517   2.273   5.940   0.300  0.4844  0.0274 -0.3057
  345MOL0     H46518   2.117   5.911   0.120  0.7453  0.7567 -1.4468
  345MOL0     H46519   2.033   6.025   0.236 -0.5323  0.0809  0.5208
  345MOL0     H46520   2.125   6.213   0.074  0.4338  1.0722 -2.1331
  345MOL0     H46521   2.174   6.084  -0.037 -0.8066 -1.1377 -0.4362
  345MOL0     H46522   1.900   6.087   0.071 -0.3415 -2.8095 -1.5902
  345MOL0     H46523   1.951   6.183  -0.074  2.0700 -0.2709 -2.2573
  345MOL0     H46524   1.980   5.879  -0.054  1.1673 -1.2031 -1.4971
  345MOL0     H46525   2.003   5.985  -0.192 -0.5609 -0.9896 -0.5214
  345MOL0     H46526   1.760   6.105  -0.297 -1.0627  0.3089 -2.2926
  345MOL0     H46527   1.538   6.046  -0.442 -1.2770  0.0463 -0.4317
  345MOL0     H46528   1.493   5.883  -0.411 -0.8692  0.6367 -0.1059
  345MOL0     H46529   1.373   6.122  -0.291 -1.1754 -0.5868  0.3137
  345MOL0     H46530   1.333   5.957  -0.228  1.1088 -3.3478 -0.1660
  345MOL0     H46531   1.236   5.917  -0.455  0.7980 -0.6779 -1.0194
  345MOL0     H46532   1.334   6.046  -0.523 -1.4181 -0.5253 -0.8156
  345MOL0     H46533   1.195   6.217  -0.420 -1.7282  1.7204  0.6081
  345MOL0     H46534   1.118   6.086  -0.319  2.0551 -2.4693  0.1569
  345MOL0     H46535   0.902   5.904  -0.568  1.1812  2.1060 -1.4775
  345MOL0     H46536   0.544   5.877  -0.534  0.8791  0.3310  0.6520
  345MOL0     H46537   0.694   5.804  -0.593  0.0353 -0.2249 -0.1812
  345MOL0     H46538   0.648   5.773  -0.428  3.6946 -0.5284 -0.0927
  345MOL0     H46539   0.320   5.938  -0.451  0.1981  1.1031  0.1015
  345MOL0     H46540   0.103   5.889  -0.433  3.1364  0.3373 -0.5043
  345MOL0     H46541  -0.227   5.819  -0.269 -0.9312 -0.6306 -0.6967
  345MOL0     H46542  -0.102   5.814  -0.393  0.3211  1.2284  0.2105
  345MOL0     H46543  -0.000   5.601  -0.277 -0.9986 -2.7153  1.0043
  345MOL0     H46544  -0.129   5.632  -0.158 -0.3222  2.8417 -0.7983
  345MOL0     H46545  -0.232   5.464  -0.265  0.9605 -2.1534 -1.6702
  345MOL0     H46546  -0.152   5.490  -0.415  0.4854  0.8890  1.1544
  345MOL0     H46547  -0.383   5.672  -0.318 -2.3020 -1.2043 -1.0267
  345MOL0     H46548  -0.302   5.680  -0.476  0.5658  0.2102  0.0113
  345MOL0     H46549  -0.455   5.430  -0.366 -0.9304 -0.7343  0.1230
  345MOL0     H46550  -0.364   5.441  -0.513  0.5117  0.2008 -0.5961
  345MOL0     H46551  -0.548   5.672  -0.506  2.0195  0.4486 -1.7250
  345MOL0     H46552  -0.519   5.552  -0.621 -0.4638  1.7811 -0.7992
  345MOL0     H46553  -0.697   5.521  -0.375 -1.3403 -1.9771  0.9383
  345MOL0     H46554  -0.657   5.387  -0.473 -0.5883  0.8959 -1.0581
  345MOL0     H46555  -0.802   5.612  -0.616  1.3934 -0.9353 -1.8035
  345MOL0     H46556  -0.887   5.523  -0.504 -1.3361 -0.0858 -2.0468
  345MOL0     H46557   0.129   5.851  -0.005 -0.3144 -2.9892 -0.6539
  345MOL0     H46558   0.360   5.906  -0.022 -3.3225 -0.7508  1.3266
  345MOL0     H46559   0.727   6.239  -0.248 -0.4603 -1.5120  0.5132
  345MOL0     H46560   0.954   6.273  -0.362 -1.0865  0.2274 -0.4527
  345MOL0     H46561   2.761   6.271   0.370  1.0440  0.2171  1.3451
  345MOL0     H46562   2.997   6.239   0.329  1.3025 -0.5756  0.4848
  345MOL0     H46563   3.360   6.041   0.328 -1.4187  3.5390  0.1836
  345MOL0     H46564   3.590   6.063   0.301  0.2913  4.9870 -1.5359
  345MOL0     H46565   3.813   5.958   0.237 -0.4060  2.6688 -0.5807
  345MOL0     H46566   3.799   5.874   0.084 -0.3145  0.9351 -1.8022
  345MOL0     H46567   4.030   5.942   0.116 -0.2745 -0.6144  1.7909
  345MOL0     H46568   3.978   6.110   0.139 -1.3315 -1.0016  0.8953
  345MOL0     H46569   3.932   6.123  -0.115 -0.5880 -0.7235  0.4040
  345MOL0     H46570   3.930   5.942  -0.114  1.4213 -1.2360  0.4628
  345MOL0     H46571   4.176   5.941  -0.072  3.4451  1.5349  0.7532
  345MOL0     H46572   4.176   6.110  -0.058 -0.8729  1.0416 -0.1427
  345MOL0     H46573   4.149   6.013  -0.480  1.5101  0.5750  0.4454
  345MOL0     H46574   3.546   6.080  -0.130 -4.4730 -0.0172 -1.2026
  345MOL0     H46575   3.326   6.010  -0.106  0.1500 -3.4212  0.1973
  346MOL0     O46576   7.849   8.417   3.734 -0.5271 -0.2380 -0.2758
  346MOL0     C46577   7.829   8.533   3.780 -0.4722 -0.2448  0.1280
  346MOL0     O46578   7.713   8.600   3.774 -0.2055 -0.2271 -0.3652
  346MOL0     C46579   7.619   8.545   3.696  0.5073 -0.1262  0.9146
  346MOL0     C46580   7.495   8.510   3.745 -0.3671 -0.1476 -0.4618
  346MOL0     C46581   7.401   8.467   3.657  0.7423  0.1360 -0.6596
  346MOL0     C46582   7.406   8.461   3.516 -0.5748  0.0866 -0.0614
  346MOL0     O46583   7.297   8.425   3.442  0.0853 -0.0109 -0.0255
  346MOL0     C46584   7.315   8.361   3.314 -0.2559 -0.0053 -0.8276
  346MOL0     C46585   7.310   8.471   3.208 -0.5462 -0.3902  0.1669
  346MOL0     C46586   7.177   8.551   3.211 -0.2782 -0.4459 -0.1205
  346MOL0     C46587   7.061   8.459   3.160  0.2966 -0.7130  0.6708
  346MOL0     C46588   6.940   8.535   3.108  0.4212 -0.1096 -0.5358
  346MOL0     C46589   6.848   8.585   3.218 -0.7337 -0.1262  0.5196
  346MOL0     C46590   6.818   8.480   3.323 -0.0039 -0.2669 -0.2647
  346MOL0     C46591   6.674   8.502   3.391  0.0816  0.0062  0.1605
  346MOL0     N46592   6.561   8.472   3.297 -0.4578 -0.1651 -0.4346
  346MOL0     C46593   6.572   8.394   3.183  0.4061  0.1423 -0.3509
  346MOL0     C46594   6.455   8.424   3.118 -1.0698 -0.5772 -0.7698
  346MOL0     C46595   6.410   8.379   2.981  0.3023  0.3945  0.0933
  346MOL0     C46596   6.286   8.437   2.921 -0.9441  0.0245  0.4158
  346MOL0     C46597   6.152   8.398   2.991 -0.8089  0.3017 -0.2437
  346MOL0     C46598   6.026   8.459   2.927 -0.0684  0.4463  1.1738
  346MOL0     O46599   5.957   8.532   3.024 -0.7914  0.4517 -0.5774
  346MOL0     C46600   5.834   8.565   2.973  0.1724 -0.3433  0.0962
  346MOL0     C46601   5.719   8.517   3.033 -0.2521 -0.1494  0.0843
  346MOL0     C46602   5.588   8.551   2.993 -0.6551 -0.1677 -0.5467
  346MOL0     C46603   5.472   8.494   3.070 -1.1253 -0.3324 -0.4948
  346MOL0     C46604   5.577   8.644   2.885  1.7424  0.2777  0.1422
  346MOL0     C46605   5.442   8.694   2.835 -0.2999 -0.2021  0.4989
  346MOL0     O46606   5.331   8.645   2.887  0.4765 -0.7112  0.1768
  346MOL0     C46607   5.217   8.690   2.829  0.3580  0.0242 -0.5227
  346MOL0     C46608   5.179   8.625   2.713  0.3913  0.6134 -0.0873
  346MOL0     C46609   5.072   8.668   2.640 -0.1641 -0.5491  0.2121
  346MOL0     C46610   4.996   8.773   2.689  1.1124 -0.5221  0.0997
  346MOL0     O46611   4.901   8.831   2.602 -0.0825 -0.4996 -0.2702
  346MOL0     C46612   4.793   8.918   2.653 -1.1853 -0.9285 -0.3418
  346MOL0     C46613   4.685   8.921   2.545 -0.6226  0.1753 -0.5127
  346MOL0     C46614   4.646   8.776   2.504  0.1642 -0.5163 -0.3200
  346MOL0     C46615   4.549   8.777   2.386  0.4532  0.3816  0.0855
  346MOL0     C46616   4.567   8.656   2.298 -0.8749  0.4105 -0.0280
  346MOL0     C46617   4.453   8.634   2.197 -0.5355 -0.5638  0.2162
  346MOL0     C46618   4.407   8.753   2.118 -0.0359 -0.5308  0.4552
  346MOL0     C46619   4.290   8.713   2.028 -0.7080  0.4474 -0.2481
  346MOL0    Cl46620   4.232   8.849   1.932 -0.3466 -0.4580 -0.4717
  346MOL0     C46621   5.023   8.829   2.811 -0.7660 -0.3009 -0.3310
  346MOL0     C46622   5.138   8.785   2.879  0.2957 -0.2939  0.0749
  346MOL0     O46623   5.447   8.784   2.742 -0.3020  0.2115 -0.5136
  346MOL0     C46624   5.689   8.698   2.823 -1.0329  0.4485  0.3737
  346MOL0     C46625   5.818   8.655   2.871 -0.2323  0.0429  0.4679
  346MOL0     N46626   6.381   8.516   3.195 -1.2145 -0.6180 -0.0856
  346MOL0     N46627   6.448   8.551   3.299  0.1945  0.1872 -0.7134
  346MOL0     C46628   7.531   8.503   3.468 -0.2417 -0.2341 -0.3873
  346MOL0     C46629   7.634   8.554   3.559 -0.3529  0.0549 -0.0499
  346MOL0     C46630   7.938   8.603   3.841 -0.6100  0.4141 -0.1103
  346MOL0     C46631   7.935   8.724   3.922 -0.4329  0.1236 -0.9612
  346MOL0     C46632   8.053   8.769   3.986 -0.1420  1.0073  0.0567
  346MOL0     C46633   8.175   8.691   3.981  0.5775 -0.0588 -0.1148
  346MOL0     O46634   8.288   8.735   4.042  0.1215 -0.2064  0.1188
  346MOL0     C46635   8.419   8.659   4.024 -0.2339 -0.0743 -0.1604
  346MOL0     C46636   8.495   8.730   4.142 -0.3624  0.5750  0.0572
  346MOL0     C46637   8.650   8.700   4.128 -0.3680 -0.1223  0.1056
  346MOL0     C46638   8.737   8.764   4.232  0.4890 -0.5160  0.2346
  346MOL0     C46639   8.877   8.729   4.242  0.3501  0.3454  1.0627
  346MOL0     C46640   8.993   8.702   4.241 -0.2345 -0.2446  0.4487
  346MOL0     C46641   8.176   8.580   3.899  0.3640 -0.0387 -1.3759
  346MOL0     C46642   8.063   8.530   3.845  0.2763 -0.1937 -0.1133
  346MOL0     H46643   7.491   8.502   3.853  0.0932 -0.3085 -0.4570
  346MOL0     H46644   7.309   8.432   3.704  0.8238 -0.8572 -1.2133
  346MOL0     H46645   7.409   8.306   3.321 -1.5931 -2.2774  0.3110
  346MOL0     H46646   7.235   8.289   3.296 -1.1424  1.1099 -1.4795
  346MOL0     H46647   7.394   8.539   3.223  0.6215 -1.6213 -0.5734
  346MOL0     H46648   7.321   8.427   3.108 -3.2326  0.2030 -0.4539
  346MOL0     H46649   7.147   8.579   3.312  1.1716  0.3203  0.1231
  346MOL0     H46650   7.196   8.648   3.164 -0.0810 -0.3527  0.1513
  346MOL0     H46651   7.094   8.390   3.082 -1.9128 -1.6119  0.4843
  346MOL0     H46652   7.029   8.390   3.239 -0.5699  0.2712  1.1966
  346MOL0     H46653   6.985   8.621   3.058  0.9063 -0.3158 -0.4596
  346MOL0     H46654   6.892   8.464   3.039 -1.9780  0.1454  0.7494
  346MOL0     H46655   6.878   8.680   3.263 -1.7936  2.8114 -4.2204
  346MOL0     H46656   6.756   8.609   3.163  1.7710  1.5620 -3.3767
  346MOL0     H46657   6.815   8.384   3.270  1.0651  0.5966 -1.9602
  346MOL0     H46658   6.897   8.472   3.397  0.2343 -2.7764 -0.6737
  346MOL0     H46659   6.674   8.606   3.424 -1.2742  0.9606 -2.5018
  346MOL0     H46660   6.663   8.437   3.478  0.4006 -0.0721  0.1426
  346MOL0     H46661   6.644   8.319   3.153  1.9006  0.9063  1.1613
  346MOL0     H46662   6.491   8.389   2.908 -1.1596 -2.8509 -2.2229
  346MOL0     H46663   6.385   8.273   2.984  2.0182 -0.3461 -4.2177
  346MOL0     H46664   6.274   8.398   2.820 -4.4103 -2.6663  1.6951
  346MOL0     H46665   6.308   8.544   2.918  1.4575 -0.3549  1.3774
  346MOL0     H46666   6.165   8.409   3.099 -0.8273  0.7388 -0.2832
  346MOL0     H46667   6.149   8.291   2.967  1.8321  0.6601 -2.7943
  346MOL0     H46668   5.958   8.385   2.886  1.3423  0.3503 -1.1721
  346MOL0     H46669   6.061   8.521   2.844  0.6355 -2.4127 -0.8140
  346MOL0     H46670   5.728   8.448   3.116 -1.0684  2.5519  2.6000
  346MOL0     H46671   5.423   8.415   3.013  0.9013 -2.0966  0.0509
  346MOL0     H46672   5.506   8.444   3.161 -0.7372 -0.0424 -0.4741
  346MOL0     H46673   5.404   8.577   3.093  2.1591  2.6416 -0.5801
  346MOL0     H46674   5.228   8.536   2.673  0.0555  0.5429 -0.3552
  346MOL0     H46675   5.066   8.622   2.542 -1.5833 -0.7960  0.3877
  346MOL0     H46676   4.750   8.883   2.747 -0.5974 -1.9832 -0.4508
  346MOL0     H46677   4.831   9.020   2.666 -0.6816 -0.7944 -2.4013
  346MOL0     H46678   4.596   8.971   2.584 -0.0861 -0.0573  1.0972
  346MOL0     H46679   4.706   8.982   2.457 -0.1448  2.2849  0.9943
  346MOL0     H46680   4.604   8.719   2.588  1.2307 -2.4990 -1.0763
  346MOL0     H46681   4.734   8.727   2.462 -0.6487 -3.0216  0.7124
  346MOL0     H46682   4.445   8.787   2.419 -0.2403 -2.0292 -1.1311
  346MOL0     H46683   4.565   8.869   2.328 -1.9773  0.5770 -0.3959
  346MOL0     H46684   4.573   8.568   2.362 -1.5963  0.9976  0.8781
  346MOL0     H46685   4.661   8.665   2.244 -1.3748  0.4102 -0.9257
  346MOL0     H46686   4.480   8.560   2.121  1.1932 -2.2749  2.3338
  346MOL0     H46687   4.359   8.599   2.242 -0.1213 -2.5462 -0.3457
  346MOL0     H46688   4.487   8.784   2.050 -1.1413 -0.0604 -0.6787
  346MOL0     H46689   4.384   8.830   2.193 -0.9197  1.1700 -1.4564
  346MOL0     H46690   4.217   8.675   2.100  1.6071 -0.0279  2.0073
  346MOL0     H46691   4.318   8.624   1.972 -2.5767  0.3003 -1.0304
  346MOL0     H46692   4.977   8.919   2.850  0.5648  0.1365  0.3194
  346MOL0     H46693   5.145   8.830   2.978 -0.8048 -1.4737  0.7136
  346MOL0     H46694   5.669   8.769   2.743 -0.7679  1.8346  1.4911
  346MOL0     H46695   5.901   8.698   2.816 -0.6813  1.2464  0.7131
  346MOL0     H46696   7.546   8.505   3.360 -1.0196  1.0103 -0.4849
  346MOL0     H46697   7.728   8.583   3.512  1.2496 -2.3014  1.4321
  346MOL0     H46698   7.839   8.770   3.938 -2.1970 -3.2243 -1.0423
  346MOL0     H46699   8.045   8.865   4.037 -0.6597  0.6373  0.6856
  346MOL0     H46700   8.422   8.552   4.045  0.3941  0.2690  1.6786
  346MOL0     H46701   8.456   8.674   3.922  1.3236 -1.1851  0.2004
  346MOL0     H46702   8.451   8.694   4.235  1.7922  0.9936  1.3060
  346MOL0     H46703   8.489   8.839   4.145  3.4167  0.9223 -0.2714
  346MOL0     H46704   8.678   8.733   4.028 -1.9325 -0.8622 -0.6155
  346MOL0     H46705   8.659   8.591   4.125  0.3080 -0.0630 -0.0117
  346MOL0     H46706   8.700   8.736   4.331 -1.8037 -0.4487 -0.5335
  346MOL0     H46707   8.727   8.873   4.223 -0.8637 -0.7113 -1.3132
  346MOL0     H46708   9.100   8.691   4.240 -0.1494  0.5245  0.7633
  346MOL0     H46709   8.265   8.518   3.904 -1.0450 -2.0909  2.4845
  346MOL0     H46710   8.068   8.430   3.803 -3.0388 -1.0370  1.0988
  347MOL0     O46711   6.857  11.204  10.177  0.3524 -0.2541 -0.0644
  347MOL0     C46712   6.983  11.194  10.183 -0.0552 -0.2730  0.0109
  347MOL0     O46713   7.054  11.191  10.296  0.2799  0.5792  0.4235
  347MOL0     C46714   6.990  11.214  10.413 -0.4960 -1.2112 -0.4099
  347MOL0     C46715   6.922  11.332  10.444  0.6930  0.5025  1.0937
  347MOL0     C46716   6.850  11.339  10.567  0.1899 -0.6168  0.3416
  347MOL0     C46717   6.843  11.228  10.650  0.2063  0.1702  0.5250
  347MOL0     O46718   6.774  11.217  10.763  0.4512  0.1582 -0.1423
  347MOL0     C46719   6.652  11.290  10.774  0.4937  0.4945  0.6431
  347MOL0     C46720   6.558  11.238  10.883  0.0194 -0.6075 -0.1083
  347MOL0     C46721   6.483  11.119  10.832  0.1729 -0.0263  0.0837
  347MOL0     C46722   6.408  11.039  10.941  0.1759 -0.3826  0.4771
  347MOL0     C46723   6.278  11.117  10.972 -0.1175 -0.1796  0.2163
  347MOL0     C46724   6.204  11.046  11.085  0.4214 -0.6932  0.8483
  347MOL0     C46725   6.084  11.134  11.138 -0.1073  0.3429  0.6425
  347MOL0     C46726   6.005  11.067  11.253  0.2677  0.6515  0.3069
  347MOL0     N46727   5.894  11.147  11.302 -0.1244 -0.2723  0.1741
  347MOL0     C46728   5.916  11.230  11.411  0.6587  0.3740 -0.4265
  347MOL0     C46729   5.817  11.322  11.411  0.3902  0.7345 -1.6972
  347MOL0     C46730   5.797  11.434  11.514 -1.0633  0.0737 -0.7340
  347MOL0     C46731   5.648  11.457  11.537 -0.3186  0.0090 -0.4598
  347MOL0     C46732   5.628  11.569  11.636  0.2470 -0.1021 -0.4019
  347MOL0     C46733   5.486  11.618  11.629 -0.1932 -0.6720 -0.5825
  347MOL0     O46734   5.386  11.516  11.643 -0.0816 -0.5983  0.3189
  347MOL0     C46735   5.254  11.551  11.619 -1.1743  0.5584  0.0565
  347MOL0     C46736   5.215  11.578  11.489  0.4249  0.6933 -0.2821
  347MOL0     C46737   5.077  11.609  11.466 -0.7199 -0.5865 -0.3494
  347MOL0     C46738   5.033  11.624  11.328  0.6878  0.1967  0.0880
  347MOL0     C46739   4.980  11.610  11.578  0.3317 -0.5329  0.2236
  347MOL0     C46740   4.834  11.648  11.566  0.4072 -0.3470 -0.6844
  347MOL0     O46741   4.763  11.642  11.682  1.0053  0.3572 -0.5445
  347MOL0     C46742   4.636  11.684  11.676 -0.9350 -0.8046 -0.3264
  347MOL0     C46743   4.535  11.588  11.703  0.0507  0.0756  0.8822
  347MOL0     C46744   4.401  11.620  11.706  0.4080 -0.4885 -0.1257
  347MOL0     C46745   4.362  11.754  11.688  0.0635 -0.5062  1.0114
  347MOL0     O46746   4.230  11.801  11.675  0.0913  0.2910 -0.2442
  347MOL0     C46747   4.140  11.728  11.756  0.4681 -0.1991  0.4565
  347MOL0     C46748   4.003  11.803  11.745 -0.0492  0.3612  0.3096
  347MOL0     C46749   3.946  11.802  11.599  0.2000 -0.3449 -0.1572
  347MOL0     C46750   3.802  11.860  11.598  0.2575 -0.2525 -0.2531
  347MOL0     C46751   3.723  11.803  11.488 -0.6162  0.6669  0.7861
  347MOL0     C46752   3.593  11.857  11.444 -0.4170  0.0292 -0.4433
  347MOL0     C46753   3.491  11.819  11.551  0.3938  0.1548 -0.6842
  347MOL0     C46754   3.350  11.844  11.498 -0.3547  0.2365 -0.1411
  347MOL0    Cl46755   3.304  11.713  11.376 -0.1193  0.1657  0.0105
  347MOL0     C46756   4.463  11.851  11.671 -0.0743  0.0679 -0.2883
  347MOL0     C46757   4.603  11.819  11.661  0.3867  0.7224  0.5249
  347MOL0     O46758   4.795  11.683  11.458  0.0482 -0.4129 -0.3412
  347MOL0     C46759   5.029  11.558  11.702 -0.5346 -0.5613 -0.2151
  347MOL0     C46760   5.164  11.537  11.723 -1.2563  0.4474 -0.2772
  347MOL0     N46761   5.746  11.295  11.294  0.0522 -0.1336 -0.1709
  347MOL0     N46762   5.794  11.197  11.231 -0.4514 -0.0807  0.1509
  347MOL0     C46763   6.925  11.120  10.624  0.0988 -0.3521 -0.2499
  347MOL0     C46764   6.995  11.114  10.511  0.0066  1.0970  0.0688
  347MOL0     C46765   7.066  11.156  10.060 -0.3653 -0.2999  0.1118
  347MOL0     C46766   7.012  11.156   9.934 -0.6349  0.1374 -0.0664
  347MOL0     C46767   7.084  11.125   9.825 -0.5829  0.4880 -0.0723
  347MOL0     C46768   7.217  11.075   9.833 -0.1858  0.2595 -0.4936
  347MOL0     O46769   7.270  11.011   9.720  0.0826 -0.7231  0.5646
  347MOL0     C46770   7.411  10.978   9.716  0.5022 -0.0716 -0.1445
  347MOL0     C46771   7.501  11.100   9.704  0.2988 -0.0487  0.3256
  347MOL0     C46772   7.644  11.059   9.746 -0.0018  0.3044 -0.6413
  347MOL0     C46773   7.741  11.168   9.715 -1.1704  0.7117 -0.6196
  347MOL0     C46774   7.875  11.142   9.778  0.3507  0.5718  0.4824
  347MOL0     C46775   7.990  11.095   9.806 -0.2615 -0.6044 -0.0341
  347MOL0     C46776   7.271  11.060   9.967  0.2436 -0.6664  0.0820
  347MOL0     C46777   7.196  11.110  10.075  0.5803  0.4781 -0.0872
  347MOL0     H46778   6.928  11.412  10.371 -1.3284  0.3778  0.7232
  347MOL0     H46779   6.805  11.432  10.602 -0.3851 -1.1319  1.0124
  347MOL0     H46780   6.689  11.392  10.788  2.0802  0.2473 -1.2547
  347MOL0     H46781   6.590  11.288  10.683 -0.6284 -1.0266  1.3888
  347MOL0     H46782   6.612  11.232  10.977 -1.0496  1.2054  0.6961
  347MOL0     H46783   6.485  11.313  10.915 -2.8004 -2.4081 -1.8553
  347MOL0     H46784   6.416  11.151  10.753 -0.3560  1.5637  1.1336
  347MOL0     H46785   6.558  11.050  10.792  1.1689  1.8959 -1.5834
  347MOL0     H46786   6.400  10.936  10.904 -0.3000 -0.3687  0.5350
  347MOL0     H46787   6.467  11.042  11.033 -1.2067 -0.7770  1.4009
  347MOL0     H46788   6.305  11.218  11.005 -1.1906  0.8715 -1.9270
  347MOL0     H46789   6.208  11.111  10.888 -2.4424  0.2123  2.0055
  347MOL0     H46790   6.174  10.944  11.064  1.4993 -0.6749 -1.0327
  347MOL0     H46791   6.281  11.042  11.163  2.3993  0.1370 -0.9697
  347MOL0     H46792   6.126  11.229  11.171 -0.3676 -0.3374  3.1962
  347MOL0     H46793   6.023  11.154  11.049  1.7759  3.5763 -0.0811
  347MOL0     H46794   6.072  11.049  11.338 -0.9978  0.4260  1.2756
  347MOL0     H46795   5.963  10.973  11.217  1.6390  0.7946 -1.8782
  347MOL0     H46796   5.994  11.224  11.485  1.6198  1.0008 -1.3465
  347MOL0     H46797   5.853  11.408  11.604 -1.4430 -1.3781 -0.8900
  347MOL0     H46798   5.834  11.531  11.479  0.3769  0.0356  0.6068
  347MOL0     H46799   5.605  11.366  11.577  0.2461  0.8887  2.3724
  347MOL0     H46800   5.595  11.479  11.443 -0.4161 -2.2058 -0.9704
  347MOL0     H46801   5.689  11.655  11.607 -2.3864  1.4501 -1.7359
  347MOL0     H46802   5.652  11.537  11.738 -1.3726 -0.7059 -0.1891
  347MOL0     H46803   5.478  11.663  11.530  2.6962 -0.9514 -1.0199
  347MOL0     H46804   5.468  11.694  11.705  1.4821 -0.6249 -0.1953
  347MOL0     H46805   5.284  11.557  11.407 -1.0911 -0.5014 -1.3157
  347MOL0     H46806   5.029  11.731  11.306 -0.7860 -0.0431 -0.9531
  347MOL0     H46807   5.096  11.577  11.252  1.4711  0.4791  0.5495
  347MOL0     H46808   4.932  11.585  11.309 -1.3959  3.0093  3.9745
  347MOL0     H46809   4.566  11.485  11.720  0.8503  0.3728  1.3073
  347MOL0     H46810   4.334  11.543  11.740 -0.3047 -0.0018 -0.4012
  347MOL0     H46811   4.126  11.622  11.731  0.9862 -0.9287  2.9234
  347MOL0     H46812   4.156  11.739  11.864  0.0305 -3.4874  0.9735
  347MOL0     H46813   3.928  11.748  11.803  0.2267 -2.5962 -1.9183
  347MOL0     H46814   4.012  11.904  11.786  0.1260  1.2594 -1.7703
  347MOL0     H46815   3.931  11.696  11.576 -3.0120 -0.4185  1.6354
  347MOL0     H46816   4.007  11.844  11.519  0.2556 -1.3240 -0.6408
  347MOL0     H46817   3.744  11.836  11.688 -0.0759 -1.1002 -0.6763
  347MOL0     H46818   3.800  11.967  11.580  1.3403 -0.4368 -1.6057
  347MOL0     H46819   3.708  11.697  11.512  0.9343  0.3206  0.3241
  347MOL0     H46820   3.786  11.808  11.398 -1.3696 -2.5953 -0.0567
  347MOL0     H46821   3.596  11.965  11.433 -0.6909  0.0963  0.1031
  347MOL0     H46822   3.566  11.808  11.350  1.7578 -1.4629 -0.3698
  347MOL0     H46823   3.504  11.883  11.639 -0.1528 -2.7163  1.6102
  347MOL0     H46824   3.495  11.720  11.597  1.0390  1.3869  2.1076
  347MOL0     H46825   3.352  11.946  11.459  1.1735 -0.0772 -0.9395
  347MOL0     H46826   3.273  11.826  11.574 -1.1720  0.2857 -0.9460
  347MOL0     H46827   4.432  11.954  11.652 -0.8724 -0.5167 -2.4508
  347MOL0     H46828   4.686  11.888  11.649  2.0399 -0.8355  2.3615
  347MOL0     H46829   4.965  11.524  11.783 -1.6418  0.3007 -0.7097
  347MOL0     H46830   5.203  11.511  11.821  0.2337 -1.9776 -1.4255
  347MOL0     H46831   6.933  11.044  10.701 -1.5421  0.6693  0.9912
  347MOL0     H46832   7.055  11.029  10.480  0.6694  1.7135 -0.3850
  347MOL0     H46833   6.905  11.174   9.929 -0.4601  1.1243 -0.3279
  347MOL0     H46834   7.031  11.146   9.732 -1.0399  2.2129  0.5429
  347MOL0     H46835   7.435  10.924   9.807  0.6636  0.2988  0.0371
  347MOL0     H46836   7.419  10.909   9.632 -0.6265 -2.2187  1.4147
  347MOL0     H46837   7.460  11.173   9.773 -1.5404 -1.8843  1.3014
  347MOL0     H46838   7.497  11.139   9.601 -1.8513 -2.9879 -0.8665
  347MOL0     H46839   7.662  10.964   9.695  0.2245 -1.4005  2.3461
  347MOL0     H46840   7.648  11.041   9.854 -2.4027  3.9695  0.2357
  347MOL0     H46841   7.695  11.259   9.755 -0.5096  1.7387 -2.1172
  347MOL0     H46842   7.749  11.174   9.606  0.3085  0.3044 -0.5654
  347MOL0     H46843   8.084  11.053   9.833 -1.0000  0.0796  4.3145
  347MOL0     H46844   7.368  11.013   9.985  1.0518  2.1459  4.5606
  347MOL0     H46845   7.236  11.106  10.176  2.8726  4.4345 -0.6164
  348MOL0     O46846   7.080  11.254   4.238  0.4648 -0.2420  0.2197
  348MOL0     C46847   7.139  11.353   4.289  0.0703  0.3027  0.0759
  348MOL0     O46848   7.072  11.464   4.330 -0.0932 -0.8627  0.0864
  348MOL0     C46849   6.937  11.464   4.296  0.0668 -0.5492 -1.2200
  348MOL0     C46850   6.847  11.396   4.377  0.1684 -0.4586 -0.7337
  348MOL0     C46851   6.707  11.408   4.357 -0.1326  0.9441 -0.9649
  348MOL0     C46852   6.655  11.507   4.269  0.6111  0.0591  0.9256
  348MOL0     O46853   6.523  11.523   4.283  0.6413 -0.4708 -0.3719
  348MOL0     C46854   6.468  11.607   4.185  0.3450  0.4731 -0.2883
  348MOL0     C46855   6.317  11.576   4.180 -0.7272 -0.0093 -0.4022
  348MOL0     C46856   6.228  11.631   4.072  0.8358  0.4621  0.0888
  348MOL0     C46857   6.086  11.573   4.097  1.0899 -0.8622  0.6015
  348MOL0     C46858   5.982  11.618   3.985  0.4562 -0.9989 -0.8142
  348MOL0     C46859   5.988  11.523   3.864  0.0047  0.4993 -0.5518
  348MOL0     C46860   5.909  11.588   3.745  0.0997 -0.3917  0.5001
  348MOL0     C46861   5.890  11.505   3.615 -0.2371  0.5259 -0.6570
  348MOL0     N46862   5.794  11.553   3.516 -0.3408 -0.6808 -0.2403
  348MOL0     C46863   5.668  11.600   3.522  0.2017 -0.0575 -0.0179
  348MOL0     C46864   5.636  11.655   3.408 -1.1260  0.2242 -0.0662
  348MOL0     C46865   5.502  11.710   3.372  0.3381 -0.8095 -0.3883
  348MOL0     C46866   5.449  11.639   3.249  0.2962 -0.3626 -0.1501
  348MOL0     C46867   5.302  11.677   3.228 -0.3556  0.1146 -0.2148
  348MOL0     C46868   5.250  11.616   3.111  0.0490  1.0741 -0.1434
  348MOL0     O46869   5.230  11.475   3.125 -0.4409 -0.4869  0.1697
  348MOL0     C46870   5.095  11.455   3.135 -0.4768 -0.5797 -0.5064
  348MOL0     C46871   5.012  11.444   3.020  0.1293 -0.7321  0.3328
  348MOL0     C46872   4.873  11.426   3.042 -0.0162  0.1908  0.0026
  348MOL0     C46873   4.789  11.407   2.913  0.3434 -0.6833  0.0791
  348MOL0     C46874   4.821  11.413   3.175  0.0970  0.1647  0.2994
  348MOL0     C46875   4.681  11.398   3.210  0.2355 -0.1729 -0.0761
  348MOL0     O46876   4.634  11.474   3.314 -0.2125  0.0783  0.0946
  348MOL0     C46877   4.507  11.460   3.362 -0.9474  0.8022 -0.0857
  348MOL0     C46878   4.489  11.471   3.490  0.0180  0.2724 -0.0602
  348MOL0     C46879   4.368  11.456   3.562 -0.1542 -0.3754  0.1433
  348MOL0     C46880   4.249  11.453   3.489 -0.4786  0.0090  0.0465
  348MOL0     O46881   4.138  11.460   3.556 -0.1096 -0.0680 -0.5069
  348MOL0     C46882   4.014  11.409   3.505 -0.1748 -0.5415 -0.4255
  348MOL0     C46883   3.918  11.391   3.620 -0.5466  0.1539 -0.5830
  348MOL0     C46884   3.770  11.371   3.557 -0.4026  0.1871 -0.3343
  348MOL0     C46885   3.664  11.399   3.668 -0.5544 -0.6960  0.4249
  348MOL0     C46886   3.525  11.360   3.616 -0.7799 -1.0354 -0.0735
  348MOL0     C46887   3.465  11.470   3.528 -0.2967  1.0709  0.1087
  348MOL0     C46888   3.328  11.422   3.488  0.1044 -0.8599  0.5324
  348MOL0     C46889   3.246  11.525   3.410  0.2166  0.0672  0.4788
  348MOL0    Cl46890   3.229  11.689   3.487  0.1380 -0.4066  0.1137
  348MOL0     C46891   4.263  11.450   3.353  0.4385 -0.2670  0.2297
  348MOL0     C46892   4.385  11.451   3.283  0.3909 -0.4553 -0.5865
  348MOL0     O46893   4.619  11.316   3.145  0.7127  0.0753  1.1927
  348MOL0     C46894   4.909  11.426   3.285  0.2460 -1.0944  1.1548
  348MOL0     C46895   5.041  11.441   3.266 -1.4456 -0.0877 -0.4525
  348MOL0     N46896   5.745  11.654   3.326  0.4101 -0.2400 -0.7724
  348MOL0     N46897   5.838  11.590   3.390  0.7635 -0.2646  0.6324
  348MOL0     C46898   6.751  11.582   4.197 -0.2060 -0.6711  0.9265
  348MOL0     C46899   6.889  11.558   4.208  0.2379 -0.1961 -0.0421
  348MOL0     C46900   7.290  11.340   4.308  0.8082  0.7994 -0.1226
  348MOL0     C46901   7.373  11.437   4.358  1.0208 -0.0990 -0.8245
  348MOL0     C46902   7.504  11.414   4.388  0.1525 -0.5919  1.1154
  348MOL0     C46903   7.561  11.285   4.359  0.2643 -0.1475 -0.6753
  348MOL0     O46904   7.687  11.245   4.395 -0.1621 -0.3717 -0.2363
  348MOL0     C46905   7.769  11.336   4.473  0.3681 -0.3113  0.2816
  348MOL0     C46906   7.901  11.269   4.503  1.1308  0.1029 -0.8204
  348MOL0     C46907   7.986  11.246   4.374  0.5842 -0.4940  0.0558
  348MOL0     C46908   8.093  11.132   4.386 -0.2324  0.1044 -0.0017
  348MOL0     C46909   8.145  11.097   4.252 -0.5754 -0.3961  0.3672
  348MOL0     C46910   8.197  11.078   4.144  0.0139  0.1889  0.5344
  348MOL0     C46911   7.480  11.189   4.299  0.7325 -0.4224 -0.2139
  348MOL0     C46912   7.347  11.221   4.267 -0.4463  0.2534  0.4853
  348MOL0     H46913   6.879  11.321   4.449 -0.0268  0.3104  0.1631
  348MOL0     H46914   6.665  11.351   4.439  0.5828  1.8639  0.0802
  348MOL0     H46915   6.475  11.706   4.230  1.1257  0.0031  0.6596
  348MOL0     H46916   6.519  11.597   4.088  1.0141 -0.4263  0.1357
  348MOL0     H46917   6.310  11.468   4.162 -2.8921  0.1327 -0.6062
  348MOL0     H46918   6.263  11.600   4.271 -0.2290 -0.0300 -0.0958
  348MOL0     H46919   6.221  11.740   4.073 -2.1234  0.3524  0.6615
  348MOL0     H46920   6.253  11.596   3.971 -2.7254 -2.2589 -0.0487
  348MOL0     H46921   6.081  11.464   4.108  1.1256 -0.7881  1.3843
  348MOL0     H46922   6.054  11.618   4.191  2.2830 -0.1757  0.7033
  348MOL0     H46923   5.882  11.612   4.029  0.8721  0.2625  0.3592
  348MOL0     H46924   6.010  11.721   3.960  0.3232 -0.3179  1.5991
  348MOL0     H46925   6.093  11.510   3.836  0.6190  1.6715  1.0490
  348MOL0     H46926   5.949  11.425   3.890  1.9323 -0.4999 -1.2050
  348MOL0     H46927   5.812  11.621   3.784 -0.4801 -0.6423 -0.6898
  348MOL0     H46928   5.960  11.678   3.712  1.3054 -0.2817  2.5106
  348MOL0     H46929   5.860  11.403   3.641  1.0655  0.6668  1.7184
  348MOL0     H46930   5.984  11.509   3.560  0.0429  2.0761 -0.1117
  348MOL0     H46931   5.610  11.580   3.611  0.3029 -0.5932 -0.0714
  348MOL0     H46932   5.438  11.705   3.460  0.2320  0.6567 -0.3561
  348MOL0     H46933   5.499  11.819   3.357 -1.6269 -0.7839 -0.0903
  348MOL0     H46934   5.455  11.531   3.266 -0.6843 -0.3149  0.6588
  348MOL0     H46935   5.511  11.657   3.161 -0.5549 -3.0817 -1.4033
  348MOL0     H46936   5.296  11.787   3.222  2.0074  0.3104  0.2789
  348MOL0     H46937   5.242  11.636   3.309 -0.3045  3.3508  1.6592
  348MOL0     H46938   5.328  11.619   3.034  0.1847 -1.4225 -0.1847
  348MOL0     H46939   5.160  11.668   3.077  0.5593  2.5193  0.6191
  348MOL0     H46940   5.056  11.448   2.920 -1.7861 -0.0443 -0.5392
  348MOL0     H46941   4.725  11.319   2.927  2.0076 -1.5881  2.6694
  348MOL0     H46942   4.732  11.499   2.898 -0.4996 -1.1057  0.6064
  348MOL0     H46943   4.848  11.378   2.825 -0.4027  0.1298 -0.7043
  348MOL0     H46944   4.578  11.490   3.549 -0.4327 -0.5394  0.9210
  348MOL0     H46945   4.376  11.448   3.670 -1.9482 -2.7472  0.1810
  348MOL0     H46946   3.972  11.480   3.434  0.8791 -0.1272 -0.6565
  348MOL0     H46947   4.018  11.314   3.452  1.1849 -1.4384  1.1679
  348MOL0     H46948   3.946  11.313   3.692 -0.2947  3.0445  2.6830
  348MOL0     H46949   3.913  11.476   3.688  0.6835  0.6703 -1.0990
  348MOL0     H46950   3.749  11.270   3.522  0.4829  0.3420 -1.3645
  348MOL0     H46951   3.763  11.442   3.474 -2.7784 -1.0898 -1.3207
  348MOL0     H46952   3.686  11.331   3.751  1.8227 -0.8879 -0.2819
  348MOL0     H46953   3.674  11.500   3.708  0.7411 -1.0490  1.0262
  348MOL0     H46954   3.457  11.338   3.699  0.5373  0.6998  1.5405
  348MOL0     H46955   3.547  11.273   3.554  2.1293 -1.1166  0.9521
  348MOL0     H46956   3.452  11.562   3.586  0.0963 -0.8525  3.4762
  348MOL0     H46957   3.529  11.487   3.441 -0.2308  2.0053  0.3261
  348MOL0     H46958   3.278  11.404   3.584  1.8605  1.7691  2.0728
  348MOL0     H46959   3.334  11.329   3.431  1.1822 -1.1177  1.0300
  348MOL0     H46960   3.146  11.481   3.404 -0.3774  1.5478 -1.5343
  348MOL0     H46961   3.292  11.528   3.310  0.6673 -2.4245  0.5418
  348MOL0     H46962   4.174  11.447   3.291 -1.1285  0.5659  2.3579
  348MOL0     H46963   4.379  11.446   3.175  0.1101  1.2108 -0.6832
  348MOL0     H46964   4.889  11.420   3.392  1.1447 -0.3014  1.3873
  348MOL0     H46965   5.092  11.444   3.362 -2.5446  0.9635  0.1381
  348MOL0     H46966   6.714  11.659   4.131  0.6115 -1.1463 -0.1065
  348MOL0     H46967   6.946  11.613   4.134 -1.6958 -0.8147 -2.0858
  348MOL0     H46968   7.333  11.536   4.372 -0.5670 -0.5611 -1.8797
  348MOL0     H46969   7.564  11.491   4.436  0.3606 -1.0202  1.5637
  348MOL0     H46970   7.780  11.431   4.419 -1.2572 -1.2577 -1.9071
  348MOL0     H46971   7.714  11.352   4.566 -2.5430 -0.1172 -1.3399
  348MOL0     H46972   7.892  11.169   4.548  1.1375 -0.3846 -1.8755
  348MOL0     H46973   7.952  11.328   4.579  4.0859 -1.8338 -1.1034
  348MOL0     H46974   8.040  11.341   4.374  0.1270 -0.1548  2.7130
  348MOL0     H46975   7.925  11.230   4.285 -1.0442 -0.8817  1.2009
  348MOL0     H46976   8.033  11.053   4.432  1.8836 -0.5766  1.7455
  348MOL0     H46977   8.172  11.155   4.458  2.8547 -1.6823 -2.5634
  348MOL0     H46978   8.226  11.073   4.041  1.8038  1.5062  0.9324
  348MOL0     H46979   7.515  11.093   4.264  1.6121  0.7352 -2.7660
  348MOL0     H46980   7.287  11.142   4.223  0.3461  0.5978 -1.2779
  349MOL0     O46981   7.795   2.924   4.384 -0.4771 -0.9736  0.0429
  349MOL0     C46982   7.831   2.996   4.472 -0.2897 -0.8811 -0.4373
  349MOL0     O46983   7.956   2.994   4.542  0.4245  0.0534  0.1400
  349MOL0     C46984   8.062   2.928   4.475  0.0208 -0.0798 -0.4325
  349MOL0     C46985   8.072   2.920   4.336  0.0986 -0.3435  0.3423
  349MOL0     C46986   8.169   2.842   4.275  0.0264  0.4490  0.5446
  349MOL0     C46987   8.265   2.779   4.353  0.0112 -0.7653  0.8499
  349MOL0     O46988   8.358   2.697   4.301  0.0394 -0.5757 -1.0501
  349MOL0     C46989   8.384   2.682   4.160  0.0953 -0.4862 -0.5554
  349MOL0     C46990   8.486   2.575   4.133 -0.3926 -0.3104 -0.0688
  349MOL0     C46991   8.620   2.583   4.210 -0.2465 -0.3496  0.3259
  349MOL0     C46992   8.701   2.455   4.188  0.2897  0.5628  0.2330
  349MOL0     C46993   8.832   2.459   4.264 -0.1335  0.2305  0.4157
  349MOL0     C46994   8.922   2.331   4.254  0.4028 -0.3848  0.5444
  349MOL0     C46995   8.968   2.296   4.111 -0.0800  0.0203  0.2692
  349MOL0     C46996   9.057   2.163   4.094 -0.2328  0.9844  0.3676
  349MOL0     N46997   9.176   2.169   4.186  0.1475  0.1805 -0.2098
  349MOL0     C46998   9.251   2.283   4.217 -0.4294 -0.5629  0.2982
  349MOL0     C46999   9.344   2.247   4.303 -0.3176  0.6788 -0.5534
  349MOL0     C47000   9.446   2.335   4.352  0.4782  0.1845  0.0322
  349MOL0     C47001   9.448   2.329   4.510 -1.2477  0.4125  0.2181
  349MOL0     C47002   9.307   2.366   4.570 -0.0902  0.9675  0.5061
  349MOL0     C47003   9.281   2.510   4.575 -0.1828 -1.3994  0.4056
  349MOL0     O47004   9.142   2.533   4.598  0.3156  0.0115  0.0649
  349MOL0     C47005   9.074   2.637   4.542  0.3729 -0.5493  0.4188
  349MOL0     C47006   9.131   2.746   4.470  0.1574  0.2660 -1.4209
  349MOL0     C47007   9.050   2.843   4.407 -0.3823  0.3823 -0.9789
  349MOL0     C47008   9.121   2.939   4.320  0.2915  0.6706 -0.1253
  349MOL0     C47009   8.910   2.840   4.428 -1.1301 -0.0498 -1.5404
  349MOL0     C47010   8.823   2.950   4.401 -0.4809  0.0183 -0.4783
  349MOL0     O47011   8.707   2.909   4.338  0.4356 -0.3551  0.4080
  349MOL0     C47012   8.619   3.002   4.307 -0.4731 -0.0304  0.3932
  349MOL0     C47013   8.637   3.107   4.218 -0.2627 -1.0642 -0.7266
  349MOL0     C47014   8.538   3.201   4.195 -0.2223  0.0996 -0.6502
  349MOL0     C47015   8.413   3.191   4.272  0.4054 -0.2260 -0.0182
  349MOL0     O47016   8.327   3.295   4.242 -0.5020 -0.5403 -0.0828
  349MOL0     C47017   8.195   3.280   4.290  1.1904 -0.2562 -0.4088
  349MOL0     C47018   8.105   3.393   4.248  0.0958  0.2264  0.5744
  349MOL0     C47019   7.961   3.395   4.299 -0.2726 -0.1724 -0.4924
  349MOL0     C47020   7.884   3.512   4.246 -1.1521  0.1299  0.6893
  349MOL0     C47021   7.744   3.513   4.298 -0.0393 -0.8841 -0.0019
  349MOL0     C47022   7.683   3.643   4.240  0.3322  0.0062  0.2967
  349MOL0     C47023   7.540   3.654   4.290 -0.6416  0.1034  1.1377
  349MOL0     C47024   7.467   3.769   4.211  0.4477 -0.8406 -0.8546
  349MOL0    Cl47025   7.468   3.748   4.037  0.1878  0.1121 -0.1105
  349MOL0     C47026   8.397   3.087   4.363 -0.4494 -0.2511  1.1514
  349MOL0     C47027   8.497   2.990   4.376  0.1740 -1.2834  0.0791
  349MOL0     O47028   8.851   3.062   4.446 -0.3231 -0.4065  0.5031
  349MOL0     C47029   8.855   2.733   4.503 -0.8623  0.4121  0.0811
  349MOL0     C47030   8.935   2.640   4.561  0.2681 -0.8233  0.2043
  349MOL0     N47031   9.326   2.112   4.331  0.5419  0.1101  0.8907
  349MOL0     N47032   9.226   2.070   4.267  0.2447  0.2190 -0.5864
  349MOL0     C47033   8.262   2.803   4.495 -0.0725 -0.3544 -0.3212
  349MOL0     C47034   8.163   2.875   4.554 -0.3743  0.0818 -1.2650
  349MOL0     C47035   7.741   3.103   4.515 -0.0095  0.6494  0.8582
  349MOL0     C47036   7.771   3.183   4.636  0.5447  0.5047  0.2949
  349MOL0     C47037   7.701   3.299   4.666 -1.0683 -0.2205 -0.1132
  349MOL0     C47038   7.587   3.329   4.589 -0.0659 -0.1132  0.5865
  349MOL0     O47039   7.507   3.439   4.607 -0.7999  0.4398  0.5868
  349MOL0     C47040   7.530   3.525   4.721 -0.9555  0.0999 -0.1030
  349MOL0     C47041   7.448   3.651   4.700 -0.3696  0.3453  0.4261
  349MOL0     C47042   7.298   3.630   4.688  0.3699  0.8656 -0.3485
  349MOL0     C47043   7.218   3.763   4.660 -0.0718  0.3431 -0.1919
  349MOL0     C47044   7.087   3.711   4.620 -0.4806  0.0217  0.2291
  349MOL0     C47045   6.984   3.661   4.586 -0.0668  0.7459  0.0383
  349MOL0     C47046   7.560   3.254   4.478  1.3286  0.2060 -0.2916
  349MOL0     C47047   7.625   3.138   4.444  0.1861  0.7376 -0.0779
  349MOL0     H47048   8.000   2.973   4.274  0.5910  1.5325  1.3028
  349MOL0     H47049   8.169   2.816   4.170  0.1249  1.9084  0.1566
  349MOL0     H47050   8.291   2.658   4.108 -0.4320  1.1877 -0.4234
  349MOL0     H47051   8.420   2.777   4.119 -0.3084 -0.2429 -0.3485
  349MOL0     H47052   8.451   2.475   4.161  2.5678 -1.9690 -1.7661
  349MOL0     H47053   8.511   2.572   4.027  2.4168 -0.6726  0.5422
  349MOL0     H47054   8.683   2.669   4.185  1.9514 -2.1721 -0.8016
  349MOL0     H47055   8.604   2.587   4.318 -1.7075 -2.3881  0.2292
  349MOL0     H47056   8.641   2.367   4.215  0.6366  0.2032 -0.1637
  349MOL0     H47057   8.720   2.438   4.082 -5.0997  1.2568 -1.1464
  349MOL0     H47058   8.884   2.544   4.220  0.7641 -0.3440  0.3411
  349MOL0     H47059   8.816   2.477   4.370 -1.3185  0.6165  0.1832
  349MOL0     H47060   9.008   2.348   4.319 -0.0393 -0.0298  1.0506
  349MOL0     H47061   8.860   2.244   4.278 -0.7888 -0.0173 -1.0631
  349MOL0     H47062   8.875   2.279   4.054 -0.7056  0.3821  1.1704
  349MOL0     H47063   9.014   2.387   4.071 -1.2343  0.8677  0.8200
  349MOL0     H47064   9.087   2.152   3.990 -0.4458  1.3281  0.2671
  349MOL0     H47065   8.996   2.074   4.113  1.8002 -1.5806 -3.7214
  349MOL0     H47066   9.245   2.377   4.164  2.1660 -0.7839 -0.5061
  349MOL0     H47067   9.541   2.297   4.315 -0.2726  0.5210 -2.4269
  349MOL0     H47068   9.429   2.435   4.311  0.7019  0.8398  1.4686
  349MOL0     H47069   9.524   2.398   4.548  1.9525 -1.2132 -2.7123
  349MOL0     H47070   9.476   2.231   4.550  0.0242  0.0542 -1.4750
  349MOL0     H47071   9.317   2.331   4.673  1.5931  1.6626  0.6069
  349MOL0     H47072   9.229   2.308   4.519 -0.2913  0.5831  1.2385
  349MOL0     H47073   9.315   2.549   4.479  0.1087 -1.3102  0.5430
  349MOL0     H47074   9.330   2.552   4.664 -0.7741 -1.6641  0.8663
  349MOL0     H47075   9.238   2.760   4.460  0.6064 -0.7974  1.0961
  349MOL0     H47076   9.145   3.031   4.373  0.9313  0.4147  0.0407
  349MOL0     H47077   9.218   2.902   4.286  0.2742  0.8682 -0.3925
  349MOL0     H47078   9.055   2.964   4.236 -0.1929  0.2888  0.1378
  349MOL0     H47079   8.729   3.141   4.172 -0.3758  0.7252  0.2583
  349MOL0     H47080   8.556   3.277   4.120  0.8440  0.6637  0.1399
  349MOL0     H47081   8.162   3.185   4.246  0.6484 -0.2581  0.0099
  349MOL0     H47082   8.195   3.264   4.398  2.3963 -1.0946 -0.5000
  349MOL0     H47083   8.151   3.484   4.286  0.6078 -0.0230  0.5614
  349MOL0     H47084   8.102   3.393   4.138  0.5854 -0.2457  0.5569
  349MOL0     H47085   7.954   3.394   4.408  2.4796 -1.0296 -0.2318
  349MOL0     H47086   7.910   3.305   4.262 -0.4277  0.2963 -1.4405
  349MOL0     H47087   7.928   3.609   4.271 -0.4827  0.2758 -0.9121
  349MOL0     H47088   7.867   3.509   4.138 -3.1248  0.6940  0.9480
  349MOL0     H47089   7.736   3.508   4.407  1.0211 -0.8242  0.0864
  349MOL0     H47090   7.690   3.423   4.266 -1.2595 -0.0124 -0.4360
  349MOL0     H47091   7.735   3.735   4.268 -2.2089  2.3556 -2.0482
  349MOL0     H47092   7.683   3.635   4.131  1.9632 -1.6128  0.3766
  349MOL0     H47093   7.550   3.686   4.394 -2.5956 -0.3188  1.4890
  349MOL0     H47094   7.494   3.556   4.285  3.0697 -1.7478 -1.5836
  349MOL0     H47095   7.510   3.869   4.223  2.1885 -1.5174 -1.1749
  349MOL0     H47096   7.363   3.765   4.246  0.5067 -1.3755 -0.7307
  349MOL0     H47097   8.310   3.064   4.424  0.2504  0.1661  2.3390
  349MOL0     H47098   8.492   2.905   4.443  1.9956 -1.3039  0.2396
  349MOL0     H47099   8.748   2.738   4.523 -0.6470  0.6203  1.2843
  349MOL0     H47100   8.893   2.554   4.613  1.0735 -1.0370  0.5174
  349MOL0     H47101   8.340   2.760   4.556 -1.0822 -1.4556  0.2389
  349MOL0     H47102   8.158   2.876   4.662  0.7765 -2.3410 -1.1338
  349MOL0     H47103   7.851   3.165   4.708  1.0578  2.0022  0.1396
  349MOL0     H47104   7.729   3.362   4.750  0.8102 -2.5325  1.1040
  349MOL0     H47105   7.495   3.483   4.816 -0.2171  2.5960  1.3763
  349MOL0     H47106   7.634   3.557   4.730 -0.8649  0.0592 -0.9407
  349MOL0     H47107   7.481   3.691   4.604  0.2217 -3.4134 -1.1042
  349MOL0     H47108   7.464   3.718   4.785 -1.2143  0.4831  0.4896
  349MOL0     H47109   7.250   3.588   4.777 -0.1014  1.8613 -0.1147
  349MOL0     H47110   7.279   3.564   4.603 -0.6827  0.9988 -0.2401
  349MOL0     H47111   7.261   3.815   4.574  0.0437  0.5565 -0.0081
  349MOL0     H47112   7.198   3.828   4.746 -1.2093 -0.6999  0.3756
  349MOL0     H47113   6.901   3.613   4.539 -0.3224 -0.3702  1.5560
  349MOL0     H47114   7.471   3.271   4.418 -0.3896 -1.7550  1.5522
  349MOL0     H47115   7.585   3.082   4.360  0.6986  1.9035 -1.1278
  350MOL0     O47116   3.970   8.240   5.422 -0.4394  0.5987  1.2879
  350MOL0     C47117   3.946   8.269   5.532  0.3436 -0.0180 -0.7173
  350MOL0     O47118   3.891   8.175   5.626 -0.2385 -0.8426  0.3377
  350MOL0     C47119   3.828   8.055   5.599  1.0147 -0.4370  0.3610
  350MOL0     C47120   3.831   7.965   5.698 -0.6540  0.1412 -0.3463
  350MOL0     C47121   3.788   7.840   5.686  0.6199  0.9341 -0.5055
  350MOL0     C47122   3.721   7.807   5.570  0.5629 -0.3588 -0.1887
  350MOL0     O47123   3.653   7.688   5.547 -0.1869 -0.1451  0.3310
  350MOL0     C47124   3.654   7.580   5.636 -0.5368  0.3651 -0.7720
  350MOL0     C47125   3.574   7.455   5.581 -0.3480  0.4427  0.0967
  350MOL0     C47126   3.565   7.331   5.669  0.1122 -0.2516  0.3260
  350MOL0     C47127   3.493   7.221   5.589 -0.6770  0.1700 -0.2117
  350MOL0     C47128   3.506   7.091   5.676  0.2640  0.5864 -0.5458
  350MOL0     C47129   3.430   6.970   5.623  0.7988 -0.1452  0.0072
  350MOL0     C47130   3.284   7.001   5.577  0.0185 -0.8866  0.2699
  350MOL0     C47131   3.210   6.874   5.547  0.1159  0.4722  0.0212
  350MOL0     N47132   3.071   6.904   5.525 -0.1901 -0.0775  0.5954
  350MOL0     C47133   2.971   6.911   5.627  0.3586  0.7102  0.4522
  350MOL0     C47134   2.861   6.953   5.566  0.4070 -0.7209  0.0470
  350MOL0     C47135   2.733   6.997   5.637  1.2708  0.2415  0.0959
  350MOL0     C47136   2.632   6.884   5.626  0.0720  0.0591 -0.3861
  350MOL0     C47137   2.668   6.761   5.709  0.1682 -0.0892 -0.3911
  350MOL0     C47138   2.548   6.668   5.721  0.0868  0.3035  0.0273
  350MOL0     O47139   2.490   6.625   5.589  0.1032 -0.5976  0.5811
  350MOL0     C47140   2.364   6.578   5.592  0.4491  0.5491  0.0280
  350MOL0     C47141   2.302   6.586   5.466 -0.2941  0.0853  0.2478
  350MOL0     C47142   2.165   6.546   5.441 -0.4810  0.9131  0.3575
  350MOL0     C47143   2.104   6.564   5.304  0.3348  0.3641  0.6624
  350MOL0     C47144   2.092   6.500   5.555  0.0797 -0.8025  0.5350
  350MOL0     C47145   1.953   6.460   5.545 -0.0967 -0.4860 -0.0214
  350MOL0     O47146   1.921   6.344   5.615  0.1534  0.0095 -0.0544
  350MOL0     C47147   1.784   6.313   5.622 -0.3914 -0.4811 -0.0271
  350MOL0     C47148   1.696   6.404   5.686  0.8411  0.0047  0.8965
  350MOL0     C47149   1.557   6.391   5.670  0.1007 -0.1870  0.6348
  350MOL0     C47150   1.505   6.277   5.604  0.2990 -0.9014 -0.4850
  350MOL0     O47151   1.370   6.282   5.580 -0.4206 -0.7943 -0.0625
  350MOL0     C47152   1.328   6.189   5.482  0.3505 -0.3542 -0.5644
  350MOL0     C47153   1.179   6.207   5.470 -0.7401  0.5821 -0.0945
  350MOL0     C47154   1.131   6.116   5.354 -1.0946  0.0517 -0.1840
  350MOL0     C47155   0.979   6.110   5.341 -0.3911  0.2350  0.0899
  350MOL0     C47156   0.925   6.231   5.256  0.3015 -0.7159 -0.3609
  350MOL0     C47157   0.785   6.207   5.209 -0.8491 -0.3536 -0.4348
  350MOL0     C47158   0.705   6.329   5.169  0.6178  0.3376  0.6476
  350MOL0     C47159   0.577   6.284   5.094 -1.2387 -0.5011 -0.6711
  350MOL0    Cl47160   0.456   6.204   5.210  0.4345  0.2106 -0.1208
  350MOL0     C47161   1.592   6.177   5.563  0.3445 -0.0162  0.4585
  350MOL0     C47162   1.735   6.196   5.566  0.7301  0.6294  0.7856
  350MOL0     O47163   1.872   6.540   5.487 -0.7170  0.1955  0.3023
  350MOL0     C47164   2.151   6.490   5.688 -0.2708  0.4146  0.7534
  350MOL0     C47165   2.288   6.529   5.702  0.6154 -0.0608  0.4044
  350MOL0     N47166   2.889   6.958   5.428  0.5037  0.1562 -0.3859
  350MOL0     N47167   3.018   6.949   5.407 -0.2098  0.2814  0.4389
  350MOL0     C47168   3.711   7.899   5.465 -0.1054  0.0318  0.5813
  350MOL0     C47169   3.762   8.024   5.479 -0.1835  0.2837  0.1284
  350MOL0     C47170   3.995   8.403   5.578  1.3397 -0.1345 -0.4518
  350MOL0     C47171   3.993   8.436   5.715 -0.3196 -0.2498  0.2990
  350MOL0     C47172   4.044   8.556   5.769 -0.1001 -0.4845  0.2576
  350MOL0     C47173   4.093   8.649   5.675 -0.4304  0.5532 -0.1234
  350MOL0     O47174   4.144   8.762   5.725 -0.1187 -0.1044 -0.7894
  350MOL0     C47175   4.097   8.877   5.656 -0.2929  0.7726  0.4217
  350MOL0     C47176   3.965   8.933   5.721  0.1286  0.0434  0.3320
  350MOL0     C47177   3.966   8.945   5.885  0.8454  0.3364  0.0898
  350MOL0     C47178   4.048   9.074   5.916 -0.2549  0.0681  0.0882
  350MOL0     C47179   3.957   9.191   5.899 -0.0728 -0.7877  0.8096
  350MOL0     C47180   3.903   9.303   5.898 -0.6136  0.2450  0.4742
  350MOL0     C47181   4.108   8.616   5.540  0.0965  0.0237  0.5317
  350MOL0     C47182   4.044   8.501   5.493  0.5521  0.8623  0.3246
  350MOL0     H47183   3.900   7.988   5.779 -1.7351  1.1283  0.3261
  350MOL0     H47184   3.814   7.769   5.764 -0.1293  0.3439 -0.7776
  350MOL0     H47185   3.761   7.561   5.648 -0.7662  0.1326  1.2676
  350MOL0     H47186   3.617   7.609   5.735 -1.7245  0.5110 -1.2405
  350MOL0     H47187   3.470   7.489   5.579 -0.3568  0.3815 -0.7180
  350MOL0     H47188   3.612   7.429   5.482 -0.0411  1.3741 -0.0383
  350MOL0     H47189   3.662   7.290   5.700 -0.2292 -0.7212  0.7946
  350MOL0     H47190   3.511   7.366   5.757 -0.8860  3.2146 -1.4845
  350MOL0     H47191   3.394   7.266   5.580 -0.3807  1.4215  1.8541
  350MOL0     H47192   3.539   7.204   5.491  2.0453 -1.4998  1.2243
  350MOL0     H47193   3.607   7.056   5.696 -0.4503 -2.4094 -1.5934
  350MOL0     H47194   3.460   7.104   5.775 -0.0377 -1.7630 -0.3013
  350MOL0     H47195   3.483   6.914   5.545 -0.1311 -1.9701  0.6331
  350MOL0     H47196   3.419   6.897   5.704 -1.2470 -1.3746 -1.2936
  350MOL0     H47197   3.233   7.055   5.657  1.1598 -0.7284  0.9077
  350MOL0     H47198   3.286   7.064   5.487  2.1160 -0.9009  0.2577
  350MOL0     H47199   3.213   6.810   5.635  1.2676 -2.9496 -2.2939
  350MOL0     H47200   3.258   6.820   5.465 -0.2602 -0.0452  0.1376
  350MOL0     H47201   2.983   6.897   5.734 -2.4749  0.4463  0.8127
  350MOL0     H47202   2.755   7.024   5.741  0.7715  0.9103  0.0391
  350MOL0     H47203   2.688   7.086   5.591 -0.0248 -1.5215 -2.2163
  350MOL0     H47204   2.636   6.851   5.522  0.5047  2.7758 -1.3045
  350MOL0     H47205   2.539   6.923   5.668  0.7240  1.7359 -0.4260
  350MOL0     H47206   2.706   6.779   5.810  1.8406 -1.5110 -0.7176
  350MOL0     H47207   2.747   6.716   5.649 -0.5709  2.0382 -3.1810
  350MOL0     H47208   2.476   6.725   5.782 -0.5932 -1.8380  1.3421
  350MOL0     H47209   2.562   6.575   5.776 -0.9522  0.5698  0.7797
  350MOL0     H47210   2.360   6.637   5.390  1.7102 -0.4777  1.3294
  350MOL0     H47211   2.035   6.648   5.292  0.7278  0.4027 -1.9353
  350MOL0     H47212   2.189   6.585   5.238  0.8608 -0.5924  1.0090
  350MOL0     H47213   2.054   6.475   5.267 -0.3271  0.6228  0.9247
  350MOL0     H47214   1.721   6.494   5.742  1.5824  0.7263 -0.5289
  350MOL0     H47215   1.489   6.469   5.701  1.5628  0.6934  1.8140
  350MOL0     H47216   1.381   6.201   5.387 -1.1089  0.4886 -1.3069
  350MOL0     H47217   1.351   6.091   5.524 -0.5518 -1.6442 -2.8641
  350MOL0     H47218   1.127   6.178   5.561  0.2096 -1.8014 -0.2561
  350MOL0     H47219   1.173   6.313   5.443 -0.0795  0.4371 -0.8578
  350MOL0     H47220   1.164   6.015   5.381 -2.0186  0.0145  0.8540
  350MOL0     H47221   1.180   6.145   5.261 -1.2149  1.7354  0.2361
  350MOL0     H47222   0.947   6.016   5.296 -0.5484  0.7395 -0.8870
  350MOL0     H47223   0.934   6.112   5.440  0.8710  1.4844  0.6834
  350MOL0     H47224   0.993   6.257   5.174  0.4939  2.8861  0.7474
  350MOL0     H47225   0.917   6.322   5.316  0.0144  0.0517 -1.5343
  350MOL0     H47226   0.801   6.140   5.123 -4.1779  0.5359 -1.9022
  350MOL0     H47227   0.732   6.157   5.290 -0.2771 -0.7550 -0.3001
  350MOL0     H47228   0.761   6.383   5.092 -0.6639  1.2534  0.3378
  350MOL0     H47229   0.692   6.382   5.263  3.6503 -1.3655  2.1796
  350MOL0     H47230   0.601   6.206   5.021 -1.6520 -2.9615  1.6472
  350MOL0     H47231   0.533   6.368   5.040  1.8114  1.1560 -0.7850
  350MOL0     H47232   1.557   6.083   5.521  2.9260 -1.6467  1.6540
  350MOL0     H47233   1.793   6.119   5.517 -1.9285 -0.1451 -1.4494
  350MOL0     H47234   2.098   6.468   5.781  1.9555  0.1625  2.0334
  350MOL0     H47235   2.337   6.537   5.799  2.8079  1.4578 -0.7214
  350MOL0     H47236   3.657   7.863   5.378 -0.6871  0.2188  0.8587
  350MOL0     H47237   3.771   8.082   5.387 -0.4960 -1.2981 -0.9512
  350MOL0     H47238   3.958   8.358   5.782  2.3772 -0.5106  1.5326
  350MOL0     H47239   4.038   8.580   5.875  4.2000 -1.6287  0.9501
  350MOL0     H47240   4.174   8.952   5.675  1.7232 -0.6362 -1.6392
  350MOL0     H47241   4.067   8.865   5.551 -4.1850  1.0476  1.3462
  350MOL0     H47242   3.868   8.889   5.696 -0.6157  0.1643  2.8165
  350MOL0     H47243   3.950   9.031   5.675 -1.2903 -0.2909  0.0199
  350MOL0     H47244   4.009   8.858   5.935 -0.4022 -1.5583 -1.9121
  350MOL0     H47245   3.863   8.943   5.922  1.7412  1.1210  2.8169
  350MOL0     H47246   4.148   9.081   5.871  0.6134 -1.5462  1.6315
  350MOL0     H47247   4.058   9.070   6.025  0.4174 -0.5061  0.0111
  350MOL0     H47248   3.864   9.402   5.894 -1.6590 -0.0282  2.5391
  350MOL0     H47249   4.162   8.683   5.475 -2.0619  3.3310  1.9067
  350MOL0     H47250   4.023   8.470   5.391  1.3856  1.6987 -0.1181
  351MOL0     O47251   0.559   0.328   9.082 -0.1065  0.1867 -0.0710
  351MOL0     C47252   0.574   0.366   9.199  0.5151 -0.4660 -0.8796
  351MOL0     O47253   0.474   0.363   9.291  0.0970  0.3480  0.1231
  351MOL0     C47254   0.344   0.332   9.238 -0.0014 -0.6145 -0.8584
  351MOL0     C47255   0.277   0.228   9.301 -0.0937 -0.4007  0.5202
  351MOL0     C47256   0.147   0.195   9.267  0.0673  0.0271  0.1565
  351MOL0     C47257   0.077   0.264   9.172 -0.8505  0.2018  0.0062
  351MOL0     O47258  -0.051   0.221   9.161 -0.7831 -0.0637  0.0721
  351MOL0     C47259  -0.133   0.303   9.074  0.3240  0.9190 -0.4520
  351MOL0     C47260  -0.281   0.247   9.080 -0.4039  0.9927  0.6198
  351MOL0     C47261  -0.335   0.250   9.222  0.0890  0.6144 -0.3077
  351MOL0     C47262  -0.458   0.149   9.246  0.1107  0.0034 -0.5093
  351MOL0     C47263  -0.496   0.129   9.395  0.2566  0.3623  0.3002
  351MOL0     C47264  -0.630   0.073   9.425 -1.4329 -0.5563  0.1255
  351MOL0     C47265  -0.635  -0.066   9.367 -0.4233 -0.1325  0.4536
  351MOL0     C47266  -0.767  -0.137   9.400  0.1344 -0.1205 -0.1572
  351MOL0     N47267  -0.889  -0.064   9.357 -0.9365 -0.0130  0.6802
  351MOL0     C47268  -0.920  -0.042   9.220  0.3518  1.2151 -0.5239
  351MOL0     C47269  -1.041   0.018   9.222  0.1299 -0.3823 -0.2246
  351MOL0     C47270  -1.121   0.066   9.112 -1.0671 -0.1465  1.0260
  351MOL0     C47271  -1.264   0.099   9.148  0.0828 -0.4919 -0.0420
  351MOL0     C47272  -1.334   0.198   9.052 -1.2449  0.0438 -1.0233
  351MOL0     C47273  -1.483   0.201   9.093  0.1824 -0.5880 -0.4543
  351MOL0     O47274  -1.533   0.323   9.028  0.6997  0.0410 -0.1945
  351MOL0     C47275  -1.662   0.367   9.064 -0.4388  0.2914 -0.3200
  351MOL0     C47276  -1.708   0.480   9.004  0.2050 -0.0771  0.6293
  351MOL0     C47277  -1.830   0.544   9.027 -0.2813 -0.0739  0.2451
  351MOL0     C47278  -1.856   0.669   8.951  0.7859 -0.0399 -0.2784
  351MOL0     C47279  -1.924   0.473   9.099 -0.1760  0.4478  0.6109
  351MOL0     C47280  -2.053   0.529   9.124  0.2386 -0.6929  0.2758
  351MOL0     O47281  -2.113   0.471   9.231  0.4187  0.1006 -0.3480
  351MOL0     C47282  -2.237   0.500   9.285 -0.2322  0.8578  0.3320
  351MOL0     C47283  -2.290   0.408   9.373  0.3199  1.2377 -0.5131
  351MOL0     C47284  -2.402   0.436   9.457  1.0717 -0.0975 -0.4771
  351MOL0     C47285  -2.470   0.559   9.453  0.5826  0.2276  0.4337
  351MOL0     O47286  -2.571   0.587   9.540 -0.7033  0.3229 -0.3336
  351MOL0     C47287  -2.590   0.721   9.571 -0.6901 -0.7575  0.4532
  351MOL0     C47288  -2.701   0.792   9.490 -0.6816 -0.6362 -0.6331
  351MOL0     C47289  -2.745   0.922   9.571 -0.4789  0.8991 -0.0135
  351MOL0     C47290  -2.838   1.019   9.502 -1.1222 -0.3999 -0.9616
  351MOL0     C47291  -2.923   1.117   9.581  0.2038 -1.0247  0.1798
  351MOL0     C47292  -2.853   1.166   9.709  0.0508  0.5469 -1.2936
  351MOL0     C47293  -2.943   1.271   9.780 -0.1483  0.1745 -0.5859
  351MOL0     C47294  -3.072   1.221   9.842  1.0188  0.5530 -0.2124
  351MOL0    Cl47295  -3.057   1.101   9.980  0.1003 -0.3816  0.3910
  351MOL0     C47296  -2.419   0.650   9.354 -0.4266 -0.3021  0.7278
  351MOL0     C47297  -2.298   0.626   9.279  0.3169 -0.0686  0.2590
  351MOL0     O47298  -2.109   0.608   9.045  0.7419 -0.3530 -0.2431
  351MOL0     C47299  -1.879   0.359   9.172 -1.1421 -0.2221 -0.1797
  351MOL0     C47300  -1.749   0.312   9.150 -0.5915  0.1659 -0.0667
  351MOL0     N47301  -1.074   0.040   9.361 -0.8598 -0.0856 -0.3139
  351MOL0     N47302  -0.987  -0.019   9.438 -0.8684 -0.3967  0.4113
  351MOL0     C47303   0.138   0.377   9.114  0.1410 -0.2589  0.1717
  351MOL0     C47304   0.271   0.405   9.143  0.4005  0.7044 -0.4884
  351MOL0     C47305   0.710   0.408   9.234 -0.5461  0.4140 -0.5891
  351MOL0     C47306   0.788   0.470   9.140  0.5298  0.3414 -0.2554
  351MOL0     C47307   0.914   0.508   9.180 -0.4937  0.2833  0.0722
  351MOL0     C47308   0.966   0.499   9.314  0.3443  0.4510 -0.1340
  351MOL0     O47309   1.104   0.530   9.330  0.2724  0.2469  0.5550
  351MOL0     C47310   1.154   0.512   9.466 -0.6382  0.2153 -0.0347
  351MOL0     C47311   1.293   0.575   9.492 -0.0041  0.6882  0.5477
  351MOL0     C47312   1.390   0.549   9.377 -0.1699 -0.1545 -0.5925
  351MOL0     C47313   1.534   0.575   9.407 -0.4596  0.3093 -0.2889
  351MOL0     C47314   1.555   0.720   9.421 -0.3292  0.5557 -0.2308
  351MOL0     C47315   1.582   0.836   9.432 -0.0747  0.6466  1.5669
  351MOL0     C47316   0.878   0.445   9.410 -0.4229  0.2713  0.5865
  351MOL0     C47317   0.756   0.399   9.363  0.3766 -0.5020  0.0306
  351MOL0     H47318   0.326   0.167   9.376  1.2812  0.4503  0.3557
  351MOL0     H47319   0.102   0.102   9.299 -0.9591  1.1113  2.0989
  351MOL0     H47320  -0.139   0.404   9.116 -1.6691  0.2563  0.9655
  351MOL0     H47321  -0.091   0.300   8.973 -0.6663 -3.9512 -0.9673
  351MOL0     H47322  -0.349   0.301   9.012 -0.3530  1.9407  1.3013
  351MOL0     H47323  -0.269   0.143   9.048  0.8000  1.3578 -0.1549
  351MOL0     H47324  -0.258   0.206   9.286 -2.3676  0.3776  2.7456
  351MOL0     H47325  -0.367   0.352   9.245 -1.4503  0.3736 -1.2630
  351MOL0     H47326  -0.549   0.186   9.196 -0.8139  0.0005  1.1052
  351MOL0     H47327  -0.439   0.051   9.201  1.4593  0.4059 -0.8572
  351MOL0     H47328  -0.425   0.055   9.434 -3.3231 -3.1643  0.7281
  351MOL0     H47329  -0.494   0.226   9.445 -1.6301  0.0397  1.0849
  351MOL0     H47330  -0.639   0.082   9.533  2.6307  2.9213  0.4536
  351MOL0     H47331  -0.696   0.144   9.374  0.5216 -0.1886 -2.0794
  351MOL0     H47332  -0.631  -0.060   9.258  0.1834  0.5142  0.5045
  351MOL0     H47333  -0.547  -0.126   9.394  0.5945  0.2641 -1.7664
  351MOL0     H47334  -0.773  -0.138   9.509 -0.6967  1.0055 -0.1700
  351MOL0     H47335  -0.772  -0.236   9.355  0.7283  0.0724 -0.6608
  351MOL0     H47336  -0.876  -0.084   9.131  0.2919 -1.4622  0.6193
  351MOL0     H47337  -1.064   0.152   9.076  0.7249 -1.7921 -0.2866
  351MOL0     H47338  -1.124  -0.007   9.031  0.2745  1.6092 -0.7110
  351MOL0     H47339  -1.276   0.131   9.252  3.1701  2.4396 -0.4044
  351MOL0     H47340  -1.314   0.002   9.142 -1.9923  0.4923  0.6584
  351MOL0     H47341  -1.319   0.169   8.948 -0.5602 -3.8354 -0.0306
  351MOL0     H47342  -1.290   0.295   9.076 -1.5714 -0.7464  3.9929
  351MOL0     H47343  -1.494   0.226   9.199 -1.6290  2.6397 -1.2678
  351MOL0     H47344  -1.540   0.112   9.065  0.5413 -1.3946  1.2356
  351MOL0     H47345  -1.648   0.531   8.929  1.3724 -0.0216  1.5601
  351MOL0     H47346  -1.764   0.719   8.920  0.3409  1.3080  0.5046
  351MOL0     H47347  -1.924   0.659   8.866 -1.2078  1.6630  1.0272
  351MOL0     H47348  -1.909   0.733   9.022 -0.3054 -1.8666  0.6503
  351MOL0     H47349  -2.236   0.316   9.393  1.3114  1.8664 -0.1875
  351MOL0     H47350  -2.436   0.373   9.539 -0.3037  1.3467  0.1172
  351MOL0     H47351  -2.624   0.717   9.674 -2.0733  2.0223  0.1912
  351MOL0     H47352  -2.501   0.784   9.563 -0.9898 -0.1539  1.7575
  351MOL0     H47353  -2.660   0.823   9.394 -1.3360  3.0816  0.1309
  351MOL0     H47354  -2.781   0.720   9.471 -1.5093  0.5278 -1.6635
  351MOL0     H47355  -2.657   0.970   9.613  0.0038  3.5491 -3.6244
  351MOL0     H47356  -2.799   0.885   9.659  0.9636 -2.1771 -0.2895
  351MOL0     H47357  -2.770   1.067   9.430 -1.1039  1.6179  0.3487
  351MOL0     H47358  -2.907   0.970   9.432 -0.9370 -0.5806 -1.0206
  351MOL0     H47359  -3.009   1.059   9.615  1.0396 -2.1260  0.4764
  351MOL0     H47360  -2.942   1.199   9.511  2.7299 -0.9921 -0.5652
  351MOL0     H47361  -2.834   1.082   9.776  0.1776  0.5223 -1.3604
  351MOL0     H47362  -2.756   1.212   9.686  0.7205 -0.5807 -0.7960
  351MOL0     H47363  -2.961   1.350   9.707  1.4965  1.2736  0.1242
  351MOL0     H47364  -2.890   1.319   9.863 -0.3738 -1.2437  0.4160
  351MOL0     H47365  -3.134   1.175   9.765  0.0666  0.7353  0.4262
  351MOL0     H47366  -3.130   1.305   9.880  0.7378 -0.3491  1.4229
  351MOL0     H47367  -2.463   0.746   9.329  2.1867  1.2389  1.5579
  351MOL0     H47368  -2.257   0.702   9.214 -0.0515  0.0648  0.1835
  351MOL0     H47369  -1.936   0.302   9.244  0.9149 -0.7403  1.1118
  351MOL0     H47370  -1.726   0.227   9.214  1.8330  2.5022  2.4454
  351MOL0     H47371   0.088   0.433   9.036 -1.6465 -2.0190 -0.0296
  351MOL0     H47372   0.311   0.492   9.092 -1.9533  2.0162 -0.2425
  351MOL0     H47373   0.757   0.476   9.037 -1.4769  1.0369  0.3381
  351MOL0     H47374   0.984   0.537   9.102 -0.3640 -0.2852 -0.0284
  351MOL0     H47375   1.078   0.539   9.540  0.2180  0.4574  0.7820
  351MOL0     H47376   1.172   0.405   9.478  0.7006  0.4998  0.7314
  351MOL0     H47377   1.340   0.530   9.580 -1.9558  0.8795  1.7280
  351MOL0     H47378   1.299   0.684   9.502  2.3852  0.8998 -1.9722
  351MOL0     H47379   1.363   0.603   9.286  2.7733  0.7208 -1.0829
  351MOL0     H47380   1.382   0.443   9.352  0.2136 -0.0642 -1.1182
  351MOL0     H47381   1.593   0.546   9.320 -0.4271  2.8773 -1.2153
  351MOL0     H47382   1.571   0.524   9.496 -0.3238  1.7550  0.5102
  351MOL0     H47383   1.602   0.940   9.446  0.2276  0.7835  0.2579
  351MOL0     H47384   0.911   0.428   9.512  1.6984 -1.0237 -0.2495
  351MOL0     H47385   0.688   0.354   9.435 -3.2523  2.5900 -1.1914
  352MOL0     O47386   5.401   5.357   3.955 -0.1893  0.4990  0.0876
  352MOL0     C47387   5.344   5.346   4.067 -0.4780 -0.3964 -0.2349
  352MOL0     O47388   5.403   5.324   4.179  0.2001  0.4267  0.2925
  352MOL0     C47389   5.542   5.300   4.179  0.3194 -0.8490 -0.7641
  352MOL0     C47390   5.590   5.181   4.223 -0.2125  0.5690  0.2503
  352MOL0     C47391   5.732   5.165   4.230 -0.2728 -0.2743 -0.1889
  352MOL0     C47392   5.814   5.272   4.202  0.2093 -0.3294  0.3353
  352MOL0     O47393   5.950   5.280   4.215 -0.5311  0.1251 -1.1528
  352MOL0     C47394   6.031   5.162   4.197  1.3219 -0.2536 -0.8906
  352MOL0     C47395   6.188   5.184   4.197  0.6864  0.9443  0.8341
  352MOL0     C47396   6.245   5.278   4.291 -0.3430  0.2503 -0.6133
  352MOL0     C47397   6.397   5.309   4.265  0.9411 -0.1314 -0.1462
  352MOL0     C47398   6.491   5.193   4.289 -0.2484 -1.3270 -0.1318
  352MOL0     C47399   6.637   5.203   4.262  0.1441  1.2487  0.5302
  352MOL0     C47400   6.715   5.078   4.321  0.3317  0.8412 -1.3107
  352MOL0     C47401   6.860   5.077   4.280  0.4779  0.2134  0.8660
  352MOL0     N47402   6.929   4.964   4.342 -0.3380 -0.8041  0.6253
  352MOL0     C47403   6.958   4.956   4.473 -0.0101 -0.4232 -0.6045
  352MOL0     C47404   7.020   4.835   4.494 -0.1552 -0.1150  0.2146
  352MOL0     C47405   7.075   4.773   4.620 -0.8330  0.3589 -0.1849
  352MOL0     C47406   7.003   4.637   4.647  0.2194 -0.9440  0.7750
  352MOL0     C47407   7.074   4.563   4.761  0.0382  0.1445 -0.0373
  352MOL0     C47408   7.014   4.624   4.893  0.0736 -0.0248  0.3868
  352MOL0     O47409   6.872   4.611   4.883  0.1236 -0.4889  0.5368
  352MOL0     C47410   6.775   4.686   4.951  1.1049  0.3630  1.2618
  352MOL0     C47411   6.806   4.770   5.057  0.0785 -0.1896  0.0004
  352MOL0     C47412   6.704   4.839   5.126 -0.2515  0.0773  0.8043
  352MOL0     C47413   6.744   4.929   5.242  0.0661 -0.7869 -0.0934
  352MOL0     C47414   6.572   4.816   5.089 -0.1134 -1.0962 -0.1408
  352MOL0     C47415   6.453   4.876   5.161  0.7448  0.5488  0.3513
  352MOL0     O47416   6.336   4.883   5.089 -0.8802 -0.1359 -0.6076
  352MOL0     C47417   6.213   4.922   5.144 -0.3761 -0.9489  0.3275
  352MOL0     C47418   6.108   4.909   5.053  0.8030  0.2175  0.0779
  352MOL0     C47419   5.986   4.978   5.062  0.4686 -0.3140  0.0153
  352MOL0     C47420   5.966   5.056   5.174 -0.4219 -0.0565  0.3052
  352MOL0     O47421   5.849   5.123   5.191  0.4787 -1.0876  0.1326
  352MOL0     C47422   5.785   5.111   5.322  0.0638 -0.0934  0.4472
  352MOL0     C47423   5.630   5.125   5.314 -0.7566  0.3364 -0.0744
  352MOL0     C47424   5.592   5.253   5.241 -0.3892  0.0245  0.0815
  352MOL0     C47425   5.439   5.261   5.246  0.2884 -0.3041 -0.2910
  352MOL0     C47426   5.400   5.387   5.166 -0.1269  0.2980 -0.2971
  352MOL0     C47427   5.260   5.419   5.177 -0.1490 -0.4456 -0.2945
  352MOL0     C47428   5.225   5.529   5.082  0.0724  0.2626 -1.1637
  352MOL0     C47429   5.075   5.554   5.086 -1.1303 -0.5062 -0.4842
  352MOL0    Cl47430   5.047   5.696   4.968  0.1369 -0.2055 -0.2903
  352MOL0     C47431   6.061   5.052   5.283  0.5660  1.0770  0.3251
  352MOL0     C47432   6.193   5.001   5.261  0.8391  0.2677  0.6834
  352MOL0     O47433   6.465   4.896   5.281  0.2144 -0.5834  0.1902
  352MOL0     C47434   6.545   4.726   4.990 -0.2064  0.3295 -0.9277
  352MOL0     C47435   6.635   4.660   4.919 -0.4149  0.2288  0.0452
  352MOL0     N47436   7.025   4.774   4.370 -0.6286  0.0881 -1.3023
  352MOL0     N47437   6.977   4.849   4.279  0.0573  0.9530 -0.6247
  352MOL0     C47438   5.773   5.392   4.146 -1.0701  0.5933 -1.5238
  352MOL0     C47439   5.636   5.407   4.139  0.6019 -0.3675  0.0514
  352MOL0     C47440   5.198   5.366   4.074  0.5319 -0.7195  0.6355
  352MOL0     C47441   5.131   5.408   4.189  0.3320 -0.3353  0.1049
  352MOL0     C47442   4.991   5.429   4.186  0.5369 -0.3156 -0.3138
  352MOL0     C47443   4.914   5.412   4.066  0.4167  0.1698 -0.1194
  352MOL0     O47444   4.779   5.444   4.082 -0.5154  0.0989 -0.0596
  352MOL0     C47445   4.696   5.449   3.967  0.1745 -0.0645  0.4943
  352MOL0     C47446   4.562   5.527   4.007  0.5014  1.6757 -0.3107
  352MOL0     C47447   4.581   5.662   4.088  0.4299  0.2657  0.6000
  352MOL0     C47448   4.451   5.719   4.129  0.3583 -0.5303 -0.0831
  352MOL0     C47449   4.474   5.859   4.170  0.3807  0.1226  0.3013
  352MOL0     C47450   4.507   5.969   4.207  0.1159 -0.5116  0.7569
  352MOL0     C47451   4.981   5.368   3.950  0.1654 -0.0009 -0.5127
  352MOL0     C47452   5.119   5.344   3.957  0.1822  0.0673 -0.6799
  352MOL0     H47453   5.526   5.096   4.242  2.6354 -1.8274 -0.1765
  352MOL0     H47454   5.772   5.070   4.264 -2.0075 -1.7847 -2.1196
  352MOL0     H47455   6.003   5.094   4.279  1.2861  0.6240 -0.1542
  352MOL0     H47456   6.010   5.111   4.102 -1.1846  0.2432 -0.6800
  352MOL0     H47457   6.230   5.084   4.205 -0.6293  0.1582 -1.1873
  352MOL0     H47458   6.216   5.223   4.098  1.2715  0.3036  0.7408
  352MOL0     H47459   6.194   5.371   4.268 -0.5227 -0.0319 -1.3611
  352MOL0     H47460   6.221   5.249   4.394  1.1372  0.1441 -0.2743
  352MOL0     H47461   6.397   5.340   4.160 -1.0938  2.6300  0.5573
  352MOL0     H47462   6.430   5.394   4.325 -1.0477 -0.6442  1.8078
  352MOL0     H47463   6.479   5.171   4.396  0.1866 -3.7133 -0.5203
  352MOL0     H47464   6.468   5.102   4.233  0.2530 -2.0574  0.8040
  352MOL0     H47465   6.644   5.214   4.153 -0.7901  1.0420  0.4436
  352MOL0     H47466   6.677   5.301   4.290  0.2244  1.1398  0.7948
  352MOL0     H47467   6.697   5.104   4.426 -1.0946  0.6005 -1.4697
  352MOL0     H47468   6.660   4.988   4.291  0.7060  0.7431 -1.7026
  352MOL0     H47469   6.905   5.174   4.304  1.7930 -0.1048 -0.1998
  352MOL0     H47470   6.855   5.068   4.171 -0.5192 -0.8117  0.9818
  352MOL0     H47471   6.934   5.035   4.543  0.2830 -1.3183  0.5386
  352MOL0     H47472   7.182   4.754   4.620 -0.5574  1.4894  2.5344
  352MOL0     H47473   7.062   4.846   4.701  1.8687 -2.1042  2.7249
  352MOL0     H47474   7.023   4.569   4.564 -0.8810  0.8874 -1.0621
  352MOL0     H47475   6.896   4.658   4.654  0.5239  0.2784  2.4313
  352MOL0     H47476   7.183   4.573   4.752  0.1161 -1.7447 -2.1954
  352MOL0     H47477   7.054   4.456   4.747 -1.4128  0.5965 -1.7563
  352MOL0     H47478   7.042   4.729   4.904  0.3072 -0.1116  0.6283
  352MOL0     H47479   7.055   4.572   4.980  2.5639 -0.8719 -1.1850
  352MOL0     H47480   6.905   4.783   5.100  0.0199  1.0246 -0.1826
  352MOL0     H47481   6.744   4.877   5.338  2.3533  1.3885  1.1836
  352MOL0     H47482   6.845   4.967   5.227  0.0877 -0.4943  0.7219
  352MOL0     H47483   6.674   5.013   5.248 -0.7598 -1.4429 -0.3167
  352MOL0     H47484   6.140   4.862   4.960  2.6948  2.1275 -0.3162
  352MOL0     H47485   5.918   4.965   4.979  1.2883  0.4369 -0.7933
  352MOL0     H47486   5.811   5.024   5.383  3.4240  0.0726 -0.5638
  352MOL0     H47487   5.820   5.200   5.375  1.0410  0.2496 -0.7457
  352MOL0     H47488   5.587   5.042   5.257  0.3357  0.3194 -0.9172
  352MOL0     H47489   5.584   5.121   5.413  0.1805  1.9411  0.4617
  352MOL0     H47490   5.632   5.245   5.139  4.0224 -1.2819  1.6631
  352MOL0     H47491   5.648   5.335   5.287 -0.5956 -0.0238  0.4181
  352MOL0     H47492   5.394   5.165   5.216  0.4387 -0.5221  0.1615
  352MOL0     H47493   5.407   5.282   5.349 -0.5458  1.0513 -0.8165
  352MOL0     H47494   5.425   5.361   5.063 -1.3427 -0.9975 -0.2943
  352MOL0     H47495   5.455   5.479   5.191 -4.8356  3.2067  0.5100
  352MOL0     H47496   5.194   5.338   5.144 -0.6193 -0.2241  0.0786
  352MOL0     H47497   5.231   5.449   5.278  1.8444  0.2909  0.1057
  352MOL0     H47498   5.258   5.497   4.983 -0.3757 -2.4151 -0.5046
  352MOL0     H47499   5.281   5.620   5.108 -1.8637  1.4103 -0.7494
  352MOL0     H47500   5.035   5.578   5.185 -0.6991  0.8074 -0.6052
  352MOL0     H47501   5.021   5.461   5.066  1.8235 -2.4759  0.1364
  352MOL0     H47502   6.036   5.105   5.374 -0.0821 -0.5919  1.1626
  352MOL0     H47503   6.274   5.002   5.333  0.7645  0.4899  0.7643
  352MOL0     H47504   6.439   4.710   4.974 -0.4509 -1.3439  1.8737
  352MOL0     H47505   6.603   4.593   4.840  1.1253  1.2933 -1.5377
  352MOL0     H47506   5.845   5.465   4.109  0.8166 -0.6552 -0.4995
  352MOL0     H47507   5.598   5.502   4.101  2.5827  1.7983  3.0450
  352MOL0     H47508   5.185   5.426   4.282 -0.4226  2.1041  0.1454
  352MOL0     H47509   4.937   5.481   4.265  0.7760  0.8602 -0.8960
  352MOL0     H47510   4.747   5.507   3.890  1.2539 -0.7416  0.6796
  352MOL0     H47511   4.662   5.350   3.934  0.4320  0.2341 -0.6949
  352MOL0     H47512   4.507   5.461   4.074  3.5762 -0.7525  0.1089
  352MOL0     H47513   4.498   5.535   3.918  1.5537  1.8363 -1.0790
  352MOL0     H47514   4.619   5.737   4.018  1.6767  0.2288  1.2087
  352MOL0     H47515   4.646   5.646   4.175  1.0756  1.6903  0.4006
  352MOL0     H47516   4.412   5.668   4.217 -1.8615  1.1366 -0.0011
  352MOL0     H47517   4.370   5.720   4.055 -0.8630 -1.0362  1.1842
  352MOL0     H47518   4.530   6.067   4.243 -1.2992 -0.0244  0.3942
  352MOL0     H47519   4.931   5.365   3.854 -0.9131  1.3206 -0.0346
  352MOL0     H47520   5.178   5.302   3.876  2.0392 -4.5541  2.6179
  353MOL0     O47521   5.159   2.930   0.771  0.2906 -0.5500 -0.2145
  353MOL0     C47522   5.214   2.966   0.664 -0.3522 -0.1187 -0.5984
  353MOL0     O47523   5.160   3.055   0.578  0.8283 -0.0687  0.0941
  353MOL0     C47524   5.030   3.112   0.603 -0.3457 -0.1487 -0.3737
  353MOL0     C47525   4.932   3.092   0.514  0.1956 -0.0132  0.0206
  353MOL0     C47526   4.804   3.144   0.529 -0.3410 -0.2552  0.6184
  353MOL0     C47527   4.780   3.220   0.643  0.4006 -0.4284  0.2781
  353MOL0     O47528   4.661   3.269   0.699 -0.2250  0.1758  0.0979
  353MOL0     C47529   4.531   3.267   0.632  0.1091 -0.0634  0.3294
  353MOL0     C47530   4.479   3.406   0.600  0.0978 -0.6927  0.0133
  353MOL0     C47531   4.517   3.510   0.704 -0.0191 -0.4354  0.3924
  353MOL0     C47532   4.434   3.486   0.836  0.1559 -0.3891  0.4023
  353MOL0     C47533   4.435   3.607   0.931  0.8684  0.4723  0.3519
  353MOL0     C47534   4.353   3.730   0.870 -0.1212  0.5370 -0.8348
  353MOL0     C47535   4.319   3.822   0.990  0.2944 -0.4289 -0.9235
  353MOL0     C47536   4.188   3.895   0.949 -0.1100  0.8167 -1.2531
  353MOL0     N47537   4.141   3.989   1.055  0.1189 -0.0305  0.5122
  353MOL0     C47538   4.106   3.958   1.184  0.2214  0.4004 -0.7528
  353MOL0     C47539   4.115   4.081   1.250  0.9970 -0.0458  0.4268
  353MOL0     C47540   4.101   4.101   1.392  0.1791 -0.5156 -0.1919
  353MOL0     C47541   4.006   4.212   1.418  0.5312  0.0485  0.1602
  353MOL0     C47542   3.867   4.179   1.366  0.2678  0.2600  0.0597
  353MOL0     C47543   3.760   4.270   1.421  0.3038 -0.3037 -0.6264
  353MOL0     O47544   3.632   4.207   1.407 -0.8125  0.0841 -0.7848
  353MOL0     C47545   3.520   4.287   1.438  0.1764  0.8066 -0.2912
  353MOL0     C47546   3.400   4.242   1.380 -0.1982  0.1789 -0.3463
  353MOL0     C47547   3.284   4.321   1.390 -0.4335 -0.7998 -0.1519
  353MOL0     C47548   3.167   4.265   1.317  0.4013 -0.1518 -0.3424
  353MOL0     C47549   3.288   4.433   1.472 -0.0635  0.3746 -0.3207
  353MOL0     C47550   3.165   4.509   1.491  0.3231  0.0266  0.2339
  353MOL0     O47551   3.117   4.557   1.376 -0.0069 -0.2433  0.6256
  353MOL0     C47552   2.988   4.597   1.367 -0.5309 -0.0849  0.3082
  353MOL0     C47553   2.876   4.541   1.436 -0.3256  0.3428  0.7418
  353MOL0     C47554   2.747   4.579   1.401 -0.1718  0.1325  0.0807
  353MOL0     C47555   2.713   4.676   1.306  0.3003 -0.6361  0.9274
  353MOL0     O47556   2.593   4.722   1.270 -0.2245 -0.2008  0.0712
  353MOL0     C47557   2.467   4.670   1.333  0.1426  0.4322  0.2103
  353MOL0     C47558   2.343   4.730   1.267 -0.4834 -0.4322  0.9995
  353MOL0     C47559   2.220   4.685   1.334 -0.5418 -0.4039  1.4802
  353MOL0     C47560   2.093   4.755   1.268 -0.5911 -0.2630  1.3098
  353MOL0     C47561   2.077   4.707   1.123 -0.7419 -0.5306  0.0635
  353MOL0     C47562   1.946   4.763   1.060  0.1069 -1.2262  0.9073
  353MOL0     C47563   1.915   4.705   0.924  0.4453  0.4971  0.1274
  353MOL0     C47564   1.953   4.788   0.802  0.4617  0.1573  0.2184
  353MOL0    Cl47565   2.126   4.785   0.759  0.3688 -0.1091 -0.3311
  353MOL0     C47566   2.823   4.734   1.242 -0.3164  0.3649  0.1992
  353MOL0     C47567   2.956   4.684   1.253 -0.3596  0.8139  0.0426
  353MOL0     O47568   3.122   4.530   1.605  0.1991 -0.4088 -0.0016
  353MOL0     C47569   3.407   4.464   1.553  0.1751  0.0468  0.7494
  353MOL0     C47570   3.528   4.396   1.523  0.1359 -0.5054 -0.5701
  353MOL0     N47571   4.161   4.178   1.156 -0.9867  0.7206 -0.2826
  353MOL0     N47572   4.165   4.120   1.041 -0.4636 -0.7862 -0.3754
  353MOL0     C47573   4.882   3.249   0.731 -0.0414  0.6375  0.0558
  353MOL0     C47574   5.012   3.196   0.710 -0.4580  0.2654  0.6319
  353MOL0     C47575   5.344   2.908   0.638  0.1411 -1.1633  0.3597
  353MOL0     C47576   5.407   2.820   0.722 -0.1228  0.5272 -0.9654
  353MOL0     C47577   5.540   2.777   0.701  0.1846 -0.1653  0.2865
  353MOL0     C47578   5.614   2.824   0.593 -0.6397 -0.4910 -0.0024
  353MOL0     O47579   5.748   2.793   0.586 -0.5485 -0.0756 -0.8823
  353MOL0     C47580   5.810   2.814   0.457  0.0333  0.2165  0.2284
  353MOL0     C47581   5.957   2.777   0.469 -0.1247  0.2328  0.0626
  353MOL0     C47582   6.031   2.844   0.590  0.1754  0.0198  0.8500
  353MOL0     C47583   6.188   2.824   0.592  0.0510 -0.3024 -0.5036
  353MOL0     C47584   6.219   2.679   0.592  0.2784  0.7640 -0.7732
  353MOL0     C47585   6.252   2.567   0.573 -0.1397 -0.2777 -0.4761
  353MOL0     C47586   5.551   2.917   0.511  0.5360 -0.4158  0.7305
  353MOL0     C47587   5.420   2.960   0.526  1.0167 -0.4356 -0.2623
  353MOL0     H47588   4.956   3.029   0.429 -0.8718  0.0754 -0.3539
  353MOL0     H47589   4.731   3.127   0.450 -0.1974  0.4382  0.3293
  353MOL0     H47590   4.527   3.213   0.537 -1.1506  1.8454 -0.7721
  353MOL0     H47591   4.466   3.219   0.705 -1.5572  1.6990  0.0809
  353MOL0     H47592   4.514   3.439   0.502 -0.9933 -2.3701 -1.0043
  353MOL0     H47593   4.372   3.418   0.582  0.6813  1.0937 -2.8417
  353MOL0     H47594   4.623   3.523   0.727  0.6874  4.1012 -3.8800
  353MOL0     H47595   4.492   3.613   0.675 -1.8211  0.1809  3.6180
  353MOL0     H47596   4.328   3.466   0.818 -0.7324  2.1343  2.1515
  353MOL0     H47597   4.489   3.413   0.896  0.6096  2.5654  3.9813
  353MOL0     H47598   4.380   3.571   1.019 -0.5189  1.5625 -0.0231
  353MOL0     H47599   4.539   3.634   0.947  1.1222 -1.4262  2.3129
  353MOL0     H47600   4.417   3.779   0.796  0.6418  1.7897  0.5874
  353MOL0     H47601   4.259   3.700   0.822  0.0806 -0.7485 -0.4464
  353MOL0     H47602   4.299   3.768   1.084  0.5624 -1.6470 -1.5424
  353MOL0     H47603   4.395   3.899   1.004 -0.9636  0.7319 -0.2548
  353MOL0     H47604   4.105   3.825   0.937  0.2710  0.3398 -1.1215
  353MOL0     H47605   4.194   3.954   0.857  1.3199  1.2500 -0.8986
  353MOL0     H47606   4.093   3.857   1.222 -0.8068  0.6282 -0.4702
  353MOL0     H47607   4.067   4.009   1.442  0.0512 -0.7482 -0.6997
  353MOL0     H47608   4.196   4.120   1.443 -1.9349  3.1532  2.9239
  353MOL0     H47609   4.052   4.301   1.373  2.2852 -1.1143 -0.4658
  353MOL0     H47610   4.008   4.230   1.526  1.2913  0.5816  0.0628
  353MOL0     H47611   3.838   4.076   1.393 -1.6295  1.1524  1.6888
  353MOL0     H47612   3.868   4.194   1.258 -0.6306 -1.9433 -0.3153
  353MOL0     H47613   3.764   4.363   1.362  1.2545  1.0226  1.4144
  353MOL0     H47614   3.776   4.285   1.528 -0.3609 -2.6191 -0.1563
  353MOL0     H47615   3.406   4.151   1.322 -2.8564 -1.1033  1.2198
  353MOL0     H47616   3.163   4.156   1.321 -0.5849 -0.1185 -0.2162
  353MOL0     H47617   3.074   4.290   1.369  1.5286 -2.5514  3.1408
  353MOL0     H47618   3.168   4.287   1.209  1.1060 -0.5410 -0.4215
  353MOL0     H47619   2.896   4.469   1.514  1.1632  0.3781  0.4230
  353MOL0     H47620   2.666   4.534   1.458 -0.4538  3.0733  2.2608
  353MOL0     H47621   2.475   4.562   1.315  4.1748  0.3665  1.3548
  353MOL0     H47622   2.469   4.680   1.442  3.0024  0.0193  0.2823
  353MOL0     H47623   2.347   4.839   1.278  1.9695 -0.3191 -0.2271
  353MOL0     H47624   2.336   4.703   1.161 -1.3428  1.4577  0.5392
  353MOL0     H47625   2.225   4.725   1.436 -1.5552  2.6796  0.4004
  353MOL0     H47626   2.213   4.576   1.339 -0.9024 -0.7291 -2.6578
  353MOL0     H47627   2.005   4.735   1.331 -1.6816  1.8498  0.5571
  353MOL0     H47628   2.121   4.858   1.243  1.5922 -2.0528 -6.0479
  353MOL0     H47629   2.072   4.598   1.123 -2.8210 -0.4819 -0.9340
  353MOL0     H47630   2.160   4.738   1.059 -1.1035 -3.0131 -1.7310
  353MOL0     H47631   1.860   4.745   1.126 -1.4044 -0.4913 -0.7853
  353MOL0     H47632   1.950   4.871   1.046 -1.6373 -1.0498  1.5060
  353MOL0     H47633   1.808   4.707   0.903  0.5931 -1.8137 -1.2849
  353MOL0     H47634   1.950   4.602   0.913  0.3487  0.6805 -2.5090
  353MOL0     H47635   1.916   4.891   0.804  1.6043  0.6183 -1.1551
  353MOL0     H47636   1.902   4.735   0.722 -4.0459  1.6039  1.8078
  353MOL0     H47637   2.799   4.804   1.162 -1.2578  0.7095  0.7661
  353MOL0     H47638   3.037   4.715   1.189 -0.3566 -0.0283 -0.3729
  353MOL0     H47639   3.407   4.546   1.625 -3.4056 -1.3021  2.4964
  353MOL0     H47640   3.620   4.431   1.568  0.6335 -2.0836 -0.3029
  353MOL0     H47641   4.868   3.319   0.813  0.5605  0.2664  0.4702
  353MOL0     H47642   5.093   3.206   0.780 -0.4056  3.4105  0.2598
  353MOL0     H47643   5.356   2.792   0.814  1.7412  3.6354  1.1726
  353MOL0     H47644   5.582   2.699   0.764  0.7902  0.0228  0.1219
  353MOL0     H47645   5.759   2.758   0.378  1.6858  0.2816 -0.9228
  353MOL0     H47646   5.815   2.920   0.429  1.6432  0.5413  1.5659
  353MOL0     H47647   6.007   2.801   0.375  0.3386 -0.0872  0.2257
  353MOL0     H47648   5.955   2.668   0.484  1.4415  0.4612  2.2951
  353MOL0     H47649   5.979   2.804   0.678 -3.2848  0.5102 -0.7777
  353MOL0     H47650   6.009   2.951   0.581  0.9874  0.1059 -0.2753
  353MOL0     H47651   6.231   2.874   0.680 -1.1300  0.8715 -0.5648
  353MOL0     H47652   6.238   2.874   0.508  0.3233  1.5384  0.6804
  353MOL0     H47653   6.276   2.462   0.568  0.0483 -0.3072  0.7740
  353MOL0     H47654   5.609   2.956   0.428  2.2026 -1.3643  1.4038
  353MOL0     H47655   5.373   3.025   0.453  1.4778  0.2039  0.0038
  354MOL0     O47656   7.059   0.100   7.138 -0.0741 -0.0479 -0.1973
  354MOL0     C47657   7.130   0.201   7.144  0.3197  0.1159 -0.1824
  354MOL0     O47658   7.088   0.321   7.195  0.1679  0.6123  0.5740
  354MOL0     C47659   6.954   0.351   7.223 -0.5081  0.0924  0.3978
  354MOL0     C47660   6.871   0.267   7.304  0.5222 -0.6464  0.2518
  354MOL0     C47661   6.744   0.309   7.342  0.1444 -0.2160  0.0939
  354MOL0     C47662   6.704   0.440   7.319 -0.4241 -0.2500  0.3431
  354MOL0     O47663   6.582   0.484   7.358 -0.1883  0.4334 -0.9226
  354MOL0     C47664   6.541   0.616   7.334  0.3847 -0.5384 -0.0136
  354MOL0     C47665   6.385   0.631   7.358 -0.2126  0.8283 -0.6277
  354MOL0     C47666   6.347   0.586   7.503 -0.4419  0.1776 -0.0724
  354MOL0     C47667   6.381   0.690   7.609  0.0720  0.7270 -1.8113
  354MOL0     C47668   6.336   0.663   7.752  0.3504  0.5317 -0.8595
  354MOL0     C47669   6.323   0.785   7.842  0.4097  0.0745 -0.7344
  354MOL0     C47670   6.322   0.759   7.996 -0.4129 -0.7607 -0.2002
  354MOL0     C47671   6.358   0.890   8.062  0.6239 -0.4809 -0.2918
  354MOL0     N47672   6.350   0.868   8.208 -0.5171  0.3866  0.5147
  354MOL0     C47673   6.264   0.930   8.293  0.3993  0.4344 -0.1538
  354MOL0     C47674   6.291   0.876   8.412 -0.1802 -0.0226 -0.1574
  354MOL0     C47675   6.217   0.897   8.536  0.1861 -0.5119 -0.5968
  354MOL0     C47676   6.129   0.777   8.574  0.0691  0.2663 -0.1969
  354MOL0     C47677   6.064   0.788   8.712  0.7175 -0.1886 -0.0353
  354MOL0     C47678   5.935   0.708   8.703  0.2153 -0.5736  0.3278
  354MOL0     O47679   5.859   0.695   8.828  0.1330 -0.4639  0.4906
  354MOL0     C47680   5.730   0.727   8.809 -1.1213  0.1147  0.0203
  354MOL0     C47681   5.689   0.865   8.816  0.1468  0.6810  0.5180
  354MOL0     C47682   5.552   0.897   8.775  0.1167  1.0029  0.4434
  354MOL0     C47683   5.525   1.047   8.781  0.1608  1.0952 -0.7224
  354MOL0     C47684   5.455   0.794   8.755  0.2110 -0.6003 -0.3579
  354MOL0     C47685   5.302   0.816   8.736  0.2909  0.6085  0.5363
  354MOL0     O47686   5.234   0.706   8.689  0.2044 -0.2345 -0.2636
  354MOL0     C47687   5.099   0.717   8.668 -0.5871  0.4461 -1.2560
  354MOL0     C47688   5.058   0.669   8.545  0.6229 -1.3775  0.4820
  354MOL0     C47689   4.926   0.692   8.498  0.3447 -0.1032  0.0884
  354MOL0     C47690   4.836   0.752   8.593 -0.0530 -0.4152 -0.5293
  354MOL0     O47691   4.701   0.776   8.561  0.1304 -0.4326 -0.5695
  354MOL0     C47692   4.664   0.770   8.419  0.5750 -0.0700  0.4912
  354MOL0     C47693   4.516   0.811   8.411  0.6885  0.0935 -0.1036
  354MOL0     C47694   4.497   0.959   8.462  0.1132  0.9754  0.0947
  354MOL0     C47695   4.352   1.020   8.427 -0.0419 -0.1402  0.2531
  354MOL0     C47696   4.232   0.924   8.443  0.0018 -0.5127  0.1785
  354MOL0     C47697   4.100   1.003   8.423  0.0028  0.2582 -0.6998
  354MOL0     C47698   3.973   0.919   8.430  0.1697  0.5225  0.3931
  354MOL0     C47699   3.844   1.010   8.431 -0.6891  0.2132 -0.0095
  354MOL0    Cl47700   3.782   1.039   8.262  0.4649  0.3850 -0.6762
  354MOL0     C47701   4.875   0.799   8.718  0.2199  0.0980  0.0563
  354MOL0     C47702   5.007   0.778   8.761  0.4472  0.2185 -1.2471
  354MOL0     O47703   5.251   0.920   8.764  0.4663 -0.2233 -0.2409
  354MOL0     C47704   5.503   0.663   8.760  0.2987  0.2571 -0.0656
  354MOL0     C47705   5.638   0.629   8.776 -0.3214  0.0464 -0.7862
  354MOL0     N47706   6.397   0.787   8.397 -1.3226  0.2486 -0.2127
  354MOL0     N47707   6.435   0.785   8.274  0.1794 -0.5715 -0.4119
  354MOL0     C47708   6.791   0.523   7.246 -0.3887 -0.4943 -0.0585
  354MOL0     C47709   6.913   0.484   7.189 -0.2478 -0.6754  0.0671
  354MOL0     C47710   7.274   0.185   7.136 -0.1132 -0.2775 -0.4007
  354MOL0     C47711   7.326   0.053   7.148  0.1229  1.1225 -0.5334
  354MOL0     C47712   7.465   0.028   7.126  1.4219 -0.9621  0.6597
  354MOL0     C47713   7.556   0.131   7.089 -0.1980 -0.9165  0.4985
  354MOL0     O47714   7.687   0.118   7.058  1.0137  0.2038  0.3599
  354MOL0     C47715   7.748  -0.007   7.082 -0.2715 -0.1776 -0.3060
  354MOL0     C47716   7.904   0.001   7.070 -0.7230 -0.1003 -0.1253
  354MOL0     C47717   7.939   0.056   6.927  0.9554  0.0267  0.4896
  354MOL0     C47718   8.085   0.094   6.907  0.0808 -0.4130  0.2988
  354MOL0     C47719   8.095   0.174   6.785  0.7831 -0.6931  0.4930
  354MOL0     C47720   8.089   0.263   6.706  0.2373 -0.8164 -0.2246
  354MOL0     C47721   7.499   0.257   7.069  0.0727  0.2418  0.3577
  354MOL0     C47722   7.360   0.283   7.094 -0.0015 -0.5074 -0.0416
  354MOL0     H47723   6.908   0.171   7.340 -1.8416 -1.4331  0.7787
  354MOL0     H47724   6.673   0.237   7.380  1.4654 -1.1480  0.8634
  354MOL0     H47725   6.601   0.687   7.391 -2.6689  0.9556  1.5871
  354MOL0     H47726   6.554   0.646   7.230 -3.0393 -1.3153 -0.7918
  354MOL0     H47727   6.353   0.735   7.349 -0.5684  0.8744  0.8616
  354MOL0     H47728   6.338   0.563   7.287 -1.0487  0.9904 -0.2409
  354MOL0     H47729   6.239   0.576   7.501 -0.4567  0.1531  0.5529
  354MOL0     H47730   6.391   0.489   7.530  1.3744  0.6981 -1.0167
  354MOL0     H47731   6.489   0.707   7.612  0.2155  0.0107  1.8665
  354MOL0     H47732   6.329   0.775   7.565 -0.5102  0.4734 -1.6230
  354MOL0     H47733   6.239   0.612   7.752  0.8963 -0.5804 -2.3636
  354MOL0     H47734   6.400   0.583   7.790 -0.6590  0.9063  1.8543
  354MOL0     H47735   6.414   0.842   7.818  2.7109 -2.1149  2.0282
  354MOL0     H47736   6.233   0.844   7.820  0.8423  1.3148  0.6482
  354MOL0     H47737   6.224   0.720   8.027 -1.5707  1.7854 -0.3626
  354MOL0     H47738   6.383   0.673   8.025 -0.7867 -0.6041  1.1309
  354MOL0     H47739   6.288   0.963   8.022  1.8944  0.2842 -1.1943
  354MOL0     H47740   6.457   0.925   8.033 -0.1737  1.8233 -0.3841
  354MOL0     H47741   6.186   1.002   8.270  2.2751  2.1209 -1.6252
  354MOL0     H47742   6.287   0.933   8.612 -0.6324  2.3086 -1.0608
  354MOL0     H47743   6.149   0.980   8.516 -2.5431 -1.3614  3.7575
  354MOL0     H47744   6.198   0.694   8.589  0.5763  0.8996  1.1792
  354MOL0     H47745   6.050   0.757   8.501  0.5416 -2.4052 -0.0699
  354MOL0     H47746   6.037   0.892   8.733 -0.2412 -0.0885 -1.5812
  354MOL0     H47747   6.123   0.746   8.794 -1.4961 -1.5516  0.9556
  354MOL0     H47748   5.960   0.604   8.680 -1.2127 -0.6678 -1.0454
  354MOL0     H47749   5.868   0.750   8.626 -0.7367 -0.6492  1.0908
  354MOL0     H47750   5.770   0.933   8.840  2.0398 -2.3727  3.9132
  354MOL0     H47751   5.616   1.100   8.750  2.5046 -0.4813  2.8395
  354MOL0     H47752   5.439   1.073   8.718 -0.9019 -1.8102 -0.5856
  354MOL0     H47753   5.508   1.082   8.883  1.2614 -3.1207  1.1126
  354MOL0     H47754   5.129   0.636   8.470 -0.2022 -4.4803  0.9144
  354MOL0     H47755   4.898   0.663   8.397  0.4582 -3.6885  0.9471
  354MOL0     H47756   4.723   0.841   8.360  0.6144  0.7881  1.5158
  354MOL0     H47757   4.669   0.669   8.379  0.5135 -0.1334  0.6443
  354MOL0     H47758   4.481   0.809   8.307  1.6480  0.6705 -0.4467
  354MOL0     H47759   4.454   0.757   8.483 -1.6600  2.4291 -0.1804
  354MOL0     H47760   4.577   1.022   8.422 -1.9263  2.4638 -1.9535
  354MOL0     H47761   4.503   0.966   8.571 -0.4451  0.3807  0.1679
  354MOL0     H47762   4.337   1.104   8.495 -1.6378 -0.9089  0.9100
  354MOL0     H47763   4.356   1.060   8.325 -2.4599 -0.6366 -0.0960
  354MOL0     H47764   4.231   0.882   8.544 -2.9811  3.6170  2.1765
  354MOL0     H47765   4.238   0.848   8.365 -2.4943 -1.2963  0.6573
  354MOL0     H47766   4.101   1.086   8.494 -1.7806  0.3829 -0.7862
  354MOL0     H47767   4.112   1.061   8.331  2.4106  1.3727  0.2371
  354MOL0     H47768   3.971   0.865   8.525 -2.4127  1.3707  0.9005
  354MOL0     H47769   3.967   0.844   8.350  0.7853 -4.3545  4.4190
  354MOL0     H47770   3.869   1.102   8.486  1.3888 -0.6635  0.6013
  354MOL0     H47771   3.760   0.968   8.486 -0.1396 -1.0777 -0.1300
  354MOL0     H47772   4.806   0.852   8.784  0.9794  4.7374 -2.4366
  354MOL0     H47773   5.024   0.815   8.862 -1.2358 -1.4787 -0.2683
  354MOL0     H47774   5.439   0.575   8.748  0.9577 -0.4294  1.3052
  354MOL0     H47775   5.676   0.528   8.776  0.0292  0.1779 -0.5111
  354MOL0     H47776   6.758   0.621   7.214  1.3280 -0.3592 -1.6203
  354MOL0     H47777   6.977   0.550   7.131  0.1100 -0.3576  0.7943
  354MOL0     H47778   7.268  -0.035   7.175 -0.0857  0.3660 -3.1570
  354MOL0     H47779   7.498  -0.073   7.144  2.3127 -0.4968  1.7911
  354MOL0     H47780   7.716  -0.037   7.182 -0.3827 -1.5359 -0.7323
  354MOL0     H47781   7.713  -0.085   7.014 -1.4907 -1.6382  1.8864
  354MOL0     H47782   7.948  -0.097   7.091  0.2527  0.1997 -0.6997
  354MOL0     H47783   7.942   0.075   7.141 -0.3610 -1.1481  0.7925
  354MOL0     H47784   7.873   0.138   6.896 -0.6068 -1.6053 -0.7377
  354MOL0     H47785   7.911  -0.017   6.850  0.9751  0.9841 -0.4531
  354MOL0     H47786   8.152   0.007   6.907 -1.0394 -1.4532 -3.5951
  354MOL0     H47787   8.124   0.151   6.992 -2.0979 -1.8854  2.4222
  354MOL0     H47788   8.090   0.346   6.638  0.2525 -1.1944 -0.6896
  354MOL0     H47789   7.558   0.338   7.027  1.1208 -1.1073 -0.8653
  354MOL0     H47790   7.318   0.380   7.069 -1.2900 -1.0592 -0.1052
  355MOL0     O47791   8.146  10.970   7.507  0.4704 -0.4182 -0.7020
  355MOL0     C47792   8.205  10.883   7.569 -0.1001 -0.5611  0.7746
  355MOL0     O47793   8.139  10.768   7.611  0.9793 -0.3817  0.3900
  355MOL0     C47794   8.003  10.753   7.618 -0.5324 -0.0035  0.4935
  355MOL0     C47795   7.958  10.656   7.706  0.5122 -0.4361 -0.2607
  355MOL0     C47796   7.824  10.636   7.736  0.0549 -0.2503  0.8828
  355MOL0     C47797   7.726  10.709   7.663 -0.2233 -0.7807  0.4810
  355MOL0     O47798   7.599  10.690   7.713 -0.0252 -0.1060  0.2955
  355MOL0     C47799   7.487  10.725   7.622  0.7224 -0.6196  0.3966
  355MOL0     C47800   7.471  10.615   7.518  0.1854 -0.6518 -0.6297
  355MOL0     C47801   7.334  10.577   7.479 -1.0269 -0.1149 -0.8988
  355MOL0     C47802   7.280  10.691   7.381 -0.3236  0.3325  0.3223
  355MOL0     C47803   7.141  10.653   7.327 -0.3459  0.8824 -0.0365
  355MOL0     C47804   7.035  10.701   7.432 -0.4654  0.1427  0.5398
  355MOL0     C47805   6.908  10.632   7.410  0.6983  0.3792 -0.2213
  355MOL0     C47806   6.829  10.674   7.276 -0.6944  0.7740 -0.0053
  355MOL0     N47807   6.703  10.616   7.268  0.2259  0.4672  0.8766
  355MOL0     C47808   6.599  10.663   7.340  0.7436  0.0041 -0.4305
  355MOL0     C47809   6.499  10.572   7.323 -0.0343  0.9243 -1.1608
  355MOL0     C47810   6.371  10.577   7.396 -0.9562 -0.4869  0.4965
  355MOL0     C47811   6.385  10.551   7.549 -0.1945 -0.1337  0.0277
  355MOL0     C47812   6.257  10.560   7.636  0.6740  0.0961  0.1208
  355MOL0     C47813   6.254  10.467   7.756  0.1170 -0.2182  0.3787
  355MOL0     O47814   6.146  10.512   7.842 -0.7253 -0.0131  0.3520
  355MOL0     C47815   6.022  10.456   7.845  0.1673 -0.0895  0.2939
  355MOL0     C47816   5.974  10.357   7.765  0.6000 -0.5293 -0.0716
  355MOL0     C47817   5.839  10.309   7.785 -1.9509  0.3259 -0.2101
  355MOL0     C47818   5.791  10.189   7.694  0.0673  0.1059  0.0017
  355MOL0     C47819   5.750  10.371   7.876  0.0433  0.5904  0.0097
  355MOL0     C47820   5.606  10.323   7.898  0.2320 -1.0636 -1.0960
  355MOL0     O47821   5.551  10.316   8.029 -0.3112  0.9161 -0.4115
  355MOL0     C47822   5.420  10.292   8.052 -0.0079  0.1703 -1.0417
  355MOL0     C47823   5.307  10.343   7.981  0.6051  0.4932 -0.0687
  355MOL0     C47824   5.172  10.306   8.001  0.3322  0.8122  0.2913
  355MOL0     C47825   5.142  10.226   8.109  0.2153  0.2796 -0.7145
  355MOL0     O47826   5.008  10.197   8.122  0.1019  0.0707  0.1144
  355MOL0     C47827   4.968  10.155   8.249 -0.4751  0.4187 -0.0826
  355MOL0     C47828   4.816  10.097   8.254 -0.1393 -0.1308 -0.5957
  355MOL0     C47829   4.718  10.208   8.262  0.8183 -0.6451 -0.4375
  355MOL0     C47830   4.593  10.174   8.342  1.1295 -0.9323  0.6014
  355MOL0     C47831   4.478  10.288   8.330 -0.1377  1.6001 -0.3606
  355MOL0     C47832   4.527  10.419   8.394 -0.2767 -0.1619  0.0477
  355MOL0     C47833   4.577  10.415   8.543 -0.5354 -0.6236 -0.7950
  355MOL0     C47834   4.587  10.548   8.608  0.1696  0.6722 -0.9287
  355MOL0    Cl47835   4.704  10.512   8.747  0.1474 -0.2353 -0.2837
  355MOL0     C47836   5.253  10.174   8.185  0.2282  0.1036  0.4075
  355MOL0     C47837   5.386  10.196   8.155  0.0391  0.4086  0.3412
  355MOL0     O47838   5.539  10.292   7.795  0.1831 -0.2368  0.7615
  355MOL0     C47839   5.805  10.472   7.951  0.5515 -0.3152 -0.2704
  355MOL0     C47840   5.940  10.512   7.938  0.1676  1.0851 -0.2753
  355MOL0     N47841   6.548  10.465   7.251 -0.4526 -0.5139  0.1121
  355MOL0     N47842   6.666  10.496   7.208 -0.0062  0.0185 -0.2406
  355MOL0     C47843   7.772  10.798   7.562 -0.0817 -0.1504 -0.9102
  355MOL0     C47844   7.909  10.824   7.540  0.1728 -0.3444 -0.6986
  355MOL0     C47845   8.349  10.880   7.576 -0.0940 -0.4832 -0.2090
  355MOL0     C47846   8.418  10.787   7.651 -1.0780 -0.4778 -0.5375
  355MOL0     C47847   8.558  10.803   7.658 -0.3689 -0.2061  0.3429
  355MOL0     C47848   8.631  10.892   7.579  0.3456  0.7829 -0.1168
  355MOL0     O47849   8.762  10.929   7.601 -0.5858  0.2708  0.0527
  355MOL0     C47850   8.835  10.857   7.694 -0.5767  0.8215 -0.0361
  355MOL0     C47851   8.952  10.939   7.740 -0.7722 -1.0088 -0.7230
  355MOL0     C47852   9.051  10.971   7.624 -0.6841 -0.9129 -0.0592
  355MOL0     C47853   9.108  10.853   7.546  0.3905 -0.1764  0.5023
  355MOL0     C47854   9.196  10.771   7.624  0.4575  0.1292 -0.1642
  355MOL0     C47855   9.279  10.710   7.690  0.5706  0.7300 -0.4195
  355MOL0     C47856   8.559  10.968   7.498 -0.1977  0.2484 -0.0173
  355MOL0     C47857   8.417  10.977   7.505 -0.7273  0.3318 -0.5332
  355MOL0     H47858   8.039  10.613   7.763 -0.9417  0.1223  2.4380
  355MOL0     H47859   7.789  10.565   7.810  0.7227 -0.5239  0.9442
  355MOL0     H47860   7.400  10.722   7.688 -1.1061  0.7742 -1.8175
  355MOL0     H47861   7.483  10.827   7.581  0.2510  0.2306  2.4191
  355MOL0     H47862   7.520  10.649   7.426 -0.3196  3.2063  0.3793
  355MOL0     H47863   7.520  10.528   7.563 -1.5790 -1.3168  0.0733
  355MOL0     H47864   7.331  10.477   7.433 -0.4970  1.2243 -4.0782
  355MOL0     H47865   7.264  10.573   7.563 -1.2729  5.1763 -0.5360
  355MOL0     H47866   7.275  10.792   7.422  1.0142  0.9995 -1.0449
  355MOL0     H47867   7.343  10.700   7.292  1.3425 -1.8358  1.1750
  355MOL0     H47868   7.128  10.714   7.238 -0.3582 -0.6185 -1.1079
  355MOL0     H47869   7.134  10.547   7.299  0.4525  0.2368  1.9874
  355MOL0     H47870   7.066  10.683   7.535 -1.9869 -0.0268  0.9920
  355MOL0     H47871   7.028  10.810   7.428 -0.7754  0.3080  3.6273
  355MOL0     H47872   6.918  10.524   7.422 -0.8276  0.3072  0.6629
  355MOL0     H47873   6.843  10.670   7.489  0.1345 -3.1636  1.2005
  355MOL0     H47874   6.895  10.631   7.200  0.3904  0.6860  0.9628
  355MOL0     H47875   6.830  10.782   7.259 -1.1596  1.0443  1.5011
  355MOL0     H47876   6.603  10.745   7.411  5.0971 -0.8619  0.6387
  355MOL0     H47877   6.354  10.683   7.380 -0.5301 -0.6943 -1.6052
  355MOL0     H47878   6.292  10.516   7.349  0.0541 -0.6502 -1.0718
  355MOL0     H47879   6.459  10.615   7.598  1.5704 -1.0572 -1.3418
  355MOL0     H47880   6.425  10.450   7.557  1.3620  0.3698 -1.0754
  355MOL0     H47881   6.168  10.532   7.578 -0.8339  0.9278  1.9510
  355MOL0     H47882   6.251  10.664   7.669  2.6987  0.2722  0.0666
  355MOL0     H47883   6.348  10.463   7.812  1.1454 -3.5927 -1.2856
  355MOL0     H47884   6.241  10.362   7.727  0.2155 -0.0116 -0.4358
  355MOL0     H47885   6.024  10.322   7.675 -2.3320  1.3116 -2.5821
  355MOL0     H47886   5.758  10.106   7.757 -2.5455  1.4502  0.5484
  355MOL0     H47887   5.704  10.216   7.634  0.8341 -0.1793 -1.2573
  355MOL0     H47888   5.865  10.162   7.619 -0.8511  2.8487 -2.0648
  355MOL0     H47889   5.333  10.393   7.888  2.2409 -0.4187 -0.1502
  355MOL0     H47890   5.099  10.353   7.936  1.5624  1.2728 -0.8179
  355MOL0     H47891   5.023  10.069   8.287 -3.4263 -0.8005  1.7701
  355MOL0     H47892   4.972  10.247   8.307 -2.8940  1.1431 -0.9325
  355MOL0     H47893   4.793  10.047   8.160 -0.9393 -3.7508  1.3146
  355MOL0     H47894   4.804  10.031   8.340 -0.5949  2.2301  1.2838
  355MOL0     H47895   4.690  10.251   8.166 -1.2388  0.6508  0.6469
  355MOL0     H47896   4.770  10.285   8.321 -2.4496 -1.1015  3.5659
  355MOL0     H47897   4.545  10.085   8.300 -0.3420  0.3813 -0.6777
  355MOL0     H47898   4.623  10.154   8.445 -0.6590  1.7080  1.7397
  355MOL0     H47899   4.394  10.260   8.395 -0.2882  0.0972 -1.1486
  355MOL0     H47900   4.436  10.290   8.229  0.1111 -3.0489 -0.7935
  355MOL0     H47901   4.612  10.457   8.336 -0.2339 -1.0272 -0.4713
  355MOL0     H47902   4.450  10.496   8.383 -0.7159 -0.4142  1.1712
  355MOL0     H47903   4.680  10.378   8.544  0.7558  2.6187 -0.2884
  355MOL0     H47904   4.514  10.344   8.596  1.0694 -2.3611 -1.1055
  355MOL0     H47905   4.499  10.580   8.663  0.7509  0.4723  0.1344
  355MOL0     H47906   4.621  10.629   8.543 -1.3846  1.4443 -0.8147
  355MOL0     H47907   5.218  10.104   8.259 -1.0024 -2.5018 -2.4126
  355MOL0     H47908   5.458  10.138   8.211  0.3496 -0.7505 -1.2000
  355MOL0     H47909   5.735  10.510   8.025 -0.7522 -0.9247 -1.1439
  355MOL0     H47910   5.973  10.597   7.996 -0.6818  0.4386  1.2197
  355MOL0     H47911   7.703  10.858   7.503  0.0654  0.3328 -0.6046
  355MOL0     H47912   7.939  10.900   7.468  0.4269  0.1136 -0.1147
  355MOL0     H47913   8.372  10.705   7.705  3.4867 -3.1984 -0.3233
  355MOL0     H47914   8.611  10.731   7.720  2.9928  0.9722 -0.9897
  355MOL0     H47915   8.773  10.831   7.781  0.2264 -2.3987 -0.2998
  355MOL0     H47916   8.875  10.763   7.654 -2.1413  0.7950 -1.6676
  355MOL0     H47917   9.008  10.892   7.821  2.7142  0.0142 -2.3346
  355MOL0     H47918   8.917  11.034   7.781  1.2992 -1.5336  2.5872
  355MOL0     H47919   9.136  11.030   7.658 -0.9932 -0.5253  0.0529
  355MOL0     H47920   9.003  11.027   7.542  2.6504  1.7809 -0.3649
  355MOL0     H47921   9.148  10.886   7.450  2.3808 -2.1065  0.5921
  355MOL0     H47922   9.025  10.785   7.523 -0.7167  1.0386  0.7828
  355MOL0     H47923   9.348  10.660   7.754 -0.4614  0.4868  0.5539
  355MOL0     H47924   8.602  11.039   7.428 -0.9436 -2.2402 -3.2644
  355MOL0     H47925   8.359  11.041   7.439 -0.6319 -0.0866 -1.0293
  356MOL0     O47926   3.620   6.964   6.657 -0.1907  0.0025 -0.1362
  356MOL0     C47927   3.664   6.864   6.607 -0.1475 -0.2736 -0.0043
  356MOL0     O47928   3.583   6.765   6.545 -0.4609 -0.4849 -0.2806
  356MOL0     C47929   3.446   6.750   6.578 -0.0414 -0.0842 -1.0350
  356MOL0     C47930   3.376   6.674   6.483 -0.2499  0.2481 -1.0140
  356MOL0     C47931   3.238   6.654   6.487  0.0971 -0.9755 -0.9006
  356MOL0     C47932   3.158   6.724   6.584 -0.0906 -0.0873  0.1284
  356MOL0     O47933   3.021   6.714   6.574  0.3503  0.2123  0.1708
  356MOL0     C47934   2.956   6.677   6.692  0.6181 -0.0290  0.1741
  356MOL0     C47935   2.798   6.658   6.674 -0.4262  0.7469  0.0844
  356MOL0     C47936   2.767   6.552   6.562  0.5295 -0.3100 -0.6537
  356MOL0     C47937   2.620   6.552   6.546  0.4327 -0.4040  1.1754
  356MOL0     C47938   2.572   6.479   6.419 -1.1216  0.0853 -0.3191
  356MOL0     C47939   2.607   6.329   6.418  0.1087  0.3895 -0.3814
  356MOL0     C47940   2.563   6.254   6.293  0.2127  0.0169 -0.2934
  356MOL0     C47941   2.573   6.103   6.338 -0.4140  0.8285  0.1521
  356MOL0     N47942   2.440   6.070   6.401  0.0815  0.1949 -0.9403
  356MOL0     C47943   2.308   6.076   6.351 -0.5747  1.1334  0.5534
  356MOL0     C47944   2.223   6.020   6.434  0.2074  0.4466 -0.6400
  356MOL0     C47945   2.085   5.991   6.409  0.2063  0.9397  0.2003
  356MOL0     C47946   2.059   5.862   6.323  0.8886  0.0517 -0.0696
  356MOL0     C47947   1.902   5.833   6.323 -0.0316  0.3326 -0.2130
  356MOL0     C47948   1.859   5.706   6.245 -1.2815 -1.1410  0.2233
  356MOL0     O47949   1.721   5.680   6.276 -0.0140  0.1575  0.0945
  356MOL0     C47950   1.618   5.738   6.202  0.9601  0.2128 -0.4456
  356MOL0     C47951   1.614   5.787   6.075 -0.5438 -0.3501 -0.1516
  356MOL0     C47952   1.494   5.840   6.020 -0.6488  0.5323  0.0884
  356MOL0     C47953   1.501   5.893   5.877  0.2377 -0.2727  0.2768
  356MOL0     C47954   1.374   5.841   6.099  0.5874 -0.0395  0.8359
  356MOL0     C47955   1.235   5.893   6.058 -0.0689 -0.2667 -0.3678
  356MOL0     O47956   1.132   5.882   6.151  0.3746  0.3006  0.1556
  356MOL0     C47957   1.011   5.934   6.127 -0.1975 -0.4285  0.8440
  356MOL0     C47958   0.971   6.021   6.030 -0.2779 -0.3454 -0.6205
  356MOL0     C47959   0.837   6.064   6.026  0.7576 -0.4171 -0.2107
  356MOL0     C47960   0.736   6.003   6.102  0.5710 -0.8978 -0.1680
  356MOL0     O47961   0.602   6.045   6.083 -0.6095 -0.6519  0.0908
  356MOL0     C47962   0.502   5.945   6.093 -0.3373 -0.1309 -0.6305
  356MOL0     C47963   0.375   5.972   6.024 -0.7062  0.6720 -0.2690
  356MOL0     C47964   0.306   6.095   6.086  0.7152 -1.1258  0.4719
  356MOL0     C47965   0.182   6.147   6.010 -0.3633 -0.6747  0.3093
  356MOL0     C47966   0.146   6.284   6.074  0.3853  0.7237  0.4557
  356MOL0     C47967   0.029   6.339   5.984  0.0583  0.2952  0.0524
  356MOL0     C47968  -0.047   6.450   6.055  0.0259 -0.1204 -0.0172
  356MOL0     C47969  -0.162   6.502   5.969 -0.0020  0.0161  0.6083
  356MOL0    Cl47970  -0.265   6.610   6.066  0.2852  0.1271 -0.1836
  356MOL0     C47971   0.778   5.910   6.199  0.4892 -0.7276 -0.7640
  356MOL0     C47972   0.918   5.890   6.217  0.2013 -0.5947 -0.2027
  356MOL0     O47973   1.236   5.949   5.952  0.6083 -0.1050 -0.3384
  356MOL0     C47974   1.387   5.796   6.232  0.0952 -0.8141 -0.3412
  356MOL0     C47975   1.511   5.748   6.286  0.9060 -0.9037  0.0324
  356MOL0     N47976   2.308   5.984   6.542 -0.0704 -0.7033 -0.3503
  356MOL0     N47977   2.429   6.014   6.526 -0.3732 -0.1764  0.3257
  356MOL0     C47978   3.236   6.803   6.680 -0.4591  0.2984  0.9264
  356MOL0     C47979   3.373   6.812   6.679  0.7724  0.3402 -1.0828
  356MOL0     C47980   3.808   6.861   6.587 -0.9246 -0.3309 -0.5836
  356MOL0     C47981   3.871   6.758   6.515 -0.1301  0.1100 -0.8445
  356MOL0     C47982   4.010   6.759   6.499  0.1614  0.4710  0.7328
  356MOL0     C47983   4.088   6.869   6.546  0.3211 -0.1518  0.1940
  356MOL0     O47984   4.225   6.867   6.513  0.4458  0.1772  0.0158
  356MOL0     C47985   4.319   6.961   6.569  0.1151 -0.5419 -1.3047
  356MOL0     C47986   4.332   6.948   6.725  0.3320 -0.1712  0.0428
  356MOL0     C47987   4.464   7.020   6.784  0.5671 -0.6271  0.5341
  356MOL0     C47988   4.494   7.000   6.930 -0.7577 -0.3007  0.1556
  356MOL0     C47989   4.394   7.064   7.009  0.1782 -0.0962 -1.0773
  356MOL0     C47990   4.306   7.107   7.081  0.5296  0.1551 -0.8423
  356MOL0     C47991   4.022   6.967   6.615 -0.8883 -0.6613  0.9672
  356MOL0     C47992   3.886   6.963   6.638 -0.0448 -0.2779 -1.0268
  356MOL0     H47993   3.441   6.621   6.415  1.6755  0.3739  0.6315
  356MOL0     H47994   3.193   6.594   6.408  0.2584  0.8160 -2.4073
  356MOL0     H47995   2.994   6.580   6.726  3.2563  0.7396 -0.3445
  356MOL0     H47996   2.966   6.755   6.768 -2.0563  0.5665  0.0317
  356MOL0     H47997   2.765   6.619   6.770 -0.8897  1.7049  0.3257
  356MOL0     H47998   2.751   6.755   6.655 -2.5775  0.0714  1.6208
  356MOL0     H47999   2.819   6.595   6.476  1.3718  2.8933  1.2784
  356MOL0     H48000   2.801   6.450   6.586  0.1675 -0.1492  0.6104
  356MOL0     H48001   2.586   6.517   6.644  1.5497 -1.4007  1.2372
  356MOL0     H48002   2.582   6.655   6.542  0.3054 -0.4375  1.5292
  356MOL0     H48003   2.466   6.492   6.398 -0.6075  2.9585 -1.7546
  356MOL0     H48004   2.625   6.532   6.339 -2.2851  0.1423 -1.0644
  356MOL0     H48005   2.714   6.312   6.431  0.4608  0.1392 -3.1528
  356MOL0     H48006   2.555   6.272   6.496  1.8149 -1.3848 -0.4613
  356MOL0     H48007   2.462   6.287   6.266 -0.2145 -0.6394  0.4633
  356MOL0     H48008   2.618   6.274   6.201 -1.7527 -0.2974 -1.6195
  356MOL0     H48009   2.658   6.086   6.404  0.8348 -2.0899 -1.9789
  356MOL0     H48010   2.579   6.043   6.247 -2.6140  2.1405 -0.9329
  356MOL0     H48011   2.282   6.100   6.248  2.6260 -0.2553 -0.7101
  356MOL0     H48012   2.028   5.982   6.502  0.9696 -1.0188  0.5178
  356MOL0     H48013   2.040   6.076   6.356 -0.8180 -0.0633 -0.5699
  356MOL0     H48014   2.108   5.774   6.367 -1.0971  0.0552  2.3494
  356MOL0     H48015   2.089   5.878   6.219 -2.7566  0.9968 -1.1363
  356MOL0     H48016   1.849   5.921   6.285 -1.0647  0.0561  0.5456
  356MOL0     H48017   1.868   5.818   6.425 -0.8851  2.0434 -0.2166
  356MOL0     H48018   1.921   5.625   6.284  1.4819  1.0171  0.6585
  356MOL0     H48019   1.884   5.718   6.139 -0.7602  0.1742  0.4717
  356MOL0     H48020   1.706   5.798   6.018 -0.7388 -0.7715 -0.5607
  356MOL0     H48021   1.422   5.861   5.808 -0.3908 -0.7229  1.1766
  356MOL0     H48022   1.501   6.002   5.884 -2.7815 -0.2482  1.5963
  356MOL0     H48023   1.598   5.860   5.841 -0.1483 -0.6664 -0.4232
  356MOL0     H48024   1.021   6.089   5.961  0.1101  1.3375  1.2236
  356MOL0     H48025   0.814   6.146   5.958  1.2106 -1.1191 -1.2418
  356MOL0     H48026   0.537   5.851   6.048  0.8923 -0.7360  1.4393
  356MOL0     H48027   0.480   5.921   6.197  0.7923 -0.5668 -0.4681
  356MOL0     H48028   0.398   6.004   5.922 -0.4572  0.1520 -0.3755
  356MOL0     H48029   0.312   5.883   6.031 -0.6772  0.3354 -3.0259
  356MOL0     H48030   0.368   6.186   6.080 -0.5790 -0.3248 -2.2502
  356MOL0     H48031   0.270   6.068   6.185 -0.2663  0.0139  0.4537
  356MOL0     H48032   0.213   6.161   5.906  1.5025 -1.3114  0.7437
  356MOL0     H48033   0.095   6.082   6.026 -1.8623  1.3825  0.9535
  356MOL0     H48034   0.217   6.367   6.075  0.4227  0.8791 -3.2061
  356MOL0     H48035   0.107   6.257   6.173  1.7818  0.0886  0.8528
  356MOL0     H48036   0.063   6.364   5.883 -0.2288  2.2282  0.3892
  356MOL0     H48037  -0.046   6.261   5.973 -2.9281  2.9819  0.0051
  356MOL0     H48038   0.021   6.533   6.075  3.3223 -2.0219 -2.2582
  356MOL0     H48039  -0.094   6.407   6.144  1.2307 -2.9303 -0.6126
  356MOL0     H48040  -0.221   6.414   5.940  3.1150 -2.6254  1.6231
  356MOL0     H48041  -0.114   6.547   5.882  0.6518 -4.4036 -1.6046
  356MOL0     H48042   0.694   5.859   6.246  0.3590  0.2286  0.0815
  356MOL0     H48043   0.954   5.819   6.292 -0.4795  0.7403  1.4563
  356MOL0     H48044   1.306   5.793   6.304 -0.5750  0.6130 -1.0023
  356MOL0     H48045   1.523   5.726   6.392  0.3789 -2.2856 -0.1726
  356MOL0     H48046   3.192   6.881   6.742  0.6955  3.2457 -1.6991
  356MOL0     H48047   3.420   6.871   6.757  1.6024  1.3102 -2.2962
  356MOL0     H48048   3.809   6.676   6.480 -0.5239  0.1281 -0.1977
  356MOL0     H48049   4.058   6.675   6.449 -2.2491 -0.6599  0.1710
  356MOL0     H48050   4.414   6.953   6.516  0.1057  0.5083 -1.4931
  356MOL0     H48051   4.299   7.068   6.563  2.6972  0.1367  0.5550
  356MOL0     H48052   4.345   6.842   6.750 -1.1043 -1.0569 -2.5420
  356MOL0     H48053   4.242   6.980   6.777 -0.5544 -1.0605 -0.9001
  356MOL0     H48054   4.451   7.125   6.754 -1.0184 -1.5489 -2.4112
  356MOL0     H48055   4.555   6.987   6.733  0.9943 -0.3082  1.0718
  356MOL0     H48056   4.583   7.055   6.964 -0.8679 -0.3890  0.5903
  356MOL0     H48057   4.505   6.896   6.960 -1.8808 -0.7406 -0.9064
  356MOL0     H48058   4.216   7.141   7.129  0.8900 -0.0604 -0.0013
  356MOL0     H48059   4.075   7.053   6.655  0.0463 -1.6127  1.8035
  356MOL0     H48060   3.848   7.040   6.705  0.3602 -2.5299  1.9860
  357MOL0     O48061   0.986   1.486   4.349 -0.3512 -0.7471  0.5029
  357MOL0     C48062   0.964   1.553   4.448  0.7513  0.1801  0.0831
  357MOL0     O48063   0.836   1.594   4.494 -0.0520  0.3606 -0.1659
  357MOL0     C48064   0.733   1.605   4.401 -0.0054  0.2768  0.0900
  357MOL0     C48065   0.693   1.494   4.318  0.0181 -0.1372  0.0110
  357MOL0     C48066   0.590   1.507   4.226  0.1398 -1.1192  0.2947
  357MOL0     C48067   0.507   1.625   4.226 -0.0888  0.2770 -0.0605
  357MOL0     O48068   0.405   1.643   4.134 -0.0125  0.4463  0.3312
  357MOL0     C48069   0.279   1.652   4.194 -0.2152  0.2222 -0.0953
  357MOL0     C48070   0.193   1.622   4.073  0.0049 -0.2959  0.5005
  357MOL0     C48071   0.044   1.603   4.126 -0.4341  0.5315  0.8745
  357MOL0     C48072  -0.020   1.495   4.030 -0.3199 -0.0075  0.8077
  357MOL0     C48073  -0.168   1.509   4.017 -0.1313 -0.4188  1.2146
  357MOL0     C48074  -0.241   1.466   4.146 -0.6547  0.0690 -0.3885
  357MOL0     C48075  -0.400   1.455   4.132 -0.2760 -0.5475  0.2506
  357MOL0     C48076  -0.477   1.588   4.155  0.4692  0.1052  0.0519
  357MOL0     N48077  -0.451   1.676   4.036  0.8502 -0.4234  0.0233
  357MOL0     C48078  -0.515   1.650   3.917 -0.0481  0.7949 -0.0253
  357MOL0     C48079  -0.495   1.774   3.856 -0.4205 -0.1925 -0.5980
  357MOL0     C48080  -0.537   1.812   3.717  0.0565  0.6545 -0.6167
  357MOL0     C48081  -0.680   1.875   3.726 -0.3397  0.1422  0.0080
  357MOL0     C48082  -0.734   1.875   3.584 -0.4415 -0.6748  0.1787
  357MOL0     C48083  -0.871   1.939   3.586 -0.7464  0.4558  0.1458
  357MOL0     O48084  -0.961   1.833   3.623 -0.2245  0.5314 -0.0729
  357MOL0     C48085  -1.085   1.831   3.582  0.0511 -0.3353  0.0233
  357MOL0     C48086  -1.166   1.729   3.601 -0.2904 -0.4965 -0.3784
  357MOL0     C48087  -1.297   1.721   3.565 -0.0658 -0.0604 -0.6540
  357MOL0     C48088  -1.374   1.593   3.612 -0.7983 -0.4758 -1.0197
  357MOL0     C48089  -1.358   1.826   3.500  0.0266 -0.6050 -0.0888
  357MOL0     C48090  -1.509   1.837   3.464  0.2106 -0.8302  0.4473
  357MOL0     O48091  -1.536   1.950   3.384  0.5519  0.8214 -0.0090
  357MOL0     C48092  -1.664   1.984   3.354  0.3259  0.3035 -0.2048
  357MOL0     C48093  -1.751   1.916   3.261 -0.2808  0.7426 -0.6309
  357MOL0     C48094  -1.876   1.962   3.242  0.5955  0.3892 -0.2917
  357MOL0     C48095  -1.925   2.067   3.315  0.2130  0.3053 -0.2287
  357MOL0     O48096  -2.054   2.107   3.313 -0.2292  0.0609  0.5349
  357MOL0     C48097  -2.102   2.125   3.179  0.5391  0.8577 -0.2886
  357MOL0     C48098  -2.233   2.207   3.186 -0.9428  0.4491 -0.1740
  357MOL0     C48099  -2.211   2.350   3.259  0.3556  1.0205 -0.9931
  357MOL0     C48100  -2.146   2.453   3.174  0.2538  0.0147 -0.0290
  357MOL0     C48101  -2.123   2.587   3.261 -0.8505  1.3911  0.3767
  357MOL0     C48102  -2.255   2.645   3.319 -0.7645 -1.1368  0.8510
  357MOL0     C48103  -2.237   2.790   3.377 -0.2492  0.6679  0.1878
  357MOL0     C48104  -2.351   2.894   3.342  0.2112 -0.2173 -0.0385
  357MOL0    Cl48105  -2.525   2.844   3.378 -0.4875  0.0626  0.2726
  357MOL0     C48106  -1.847   2.128   3.410 -0.7549 -0.0880 -0.2181
  357MOL0     C48107  -1.716   2.091   3.424 -0.7711 -0.2214 -0.2625
  357MOL0     O48108  -1.597   1.772   3.520  0.4743  0.3217 -0.1926
  357MOL0     C48109  -1.278   1.938   3.472  0.3685  0.5635 -0.2876
  357MOL0     C48110  -1.143   1.937   3.509 -0.0220  0.3353 -0.4057
  357MOL0     N48111  -0.411   1.858   3.933  0.8678  0.2841  1.2569
  357MOL0     N48112  -0.400   1.804   4.044 -0.3487  0.4306  0.6643
  357MOL0     C48113   0.535   1.722   4.326  0.0086  0.1635 -0.5906
  357MOL0     C48114   0.650   1.711   4.410 -0.4674 -0.4565  0.6080
  357MOL0     C48115   1.077   1.601   4.531  0.8492  0.7270  0.0610
  357MOL0     C48116   1.207   1.563   4.500  0.2075  0.7646 -0.0462
  357MOL0     C48117   1.318   1.612   4.573  0.0097 -0.3005 -0.0238
  357MOL0     C48118   1.305   1.707   4.676 -0.1214  0.1822  0.7786
  357MOL0     O48119   1.409   1.766   4.739  0.2963  0.0222 -0.0827
  357MOL0     C48120   1.444   1.704   4.864  0.3194  0.0401 -0.1619
  357MOL0     C48121   1.590   1.737   4.914  0.3427 -0.5146  0.1005
  357MOL0     C48122   1.607   1.891   4.902  0.0159 -0.0525  0.3474
  357MOL0     C48123   1.737   1.948   4.950  0.4317  0.5059  1.1492
  357MOL0     C48124   1.848   1.897   4.850 -0.0066 -0.6699 -0.0815
  357MOL0     C48125   1.942   1.879   4.773  0.4128  0.0930 -0.1938
  357MOL0     C48126   1.176   1.751   4.694 -0.4527 -0.5852 -0.5808
  357MOL0     C48127   1.056   1.695   4.634 -0.8498  0.0769  0.0459
  357MOL0     H48128   0.748   1.401   4.303 -1.0852 -0.6292 -1.1011
  357MOL0     H48129   0.579   1.424   4.157  2.4288 -2.6079  1.6094
  357MOL0     H48130   0.262   1.574   4.268 -0.5055  0.1147 -0.2719
  357MOL0     H48131   0.262   1.754   4.231 -1.3263  0.5098 -1.3121
  357MOL0     H48132   0.197   1.702   3.999  0.1333  1.7921  2.6616
  357MOL0     H48133   0.234   1.531   4.027 -1.1765 -1.0646  0.9213
  357MOL0     H48134   0.042   1.567   4.229  3.7098 -0.6862  0.6998
  357MOL0     H48135  -0.011   1.697   4.117 -0.9746  0.2330  0.9740
  357MOL0     H48136   0.026   1.502   3.931  0.6554 -0.0027  1.2440
  357MOL0     H48137   0.003   1.391   4.054  2.2099 -0.1853 -1.7684
  357MOL0     H48138  -0.189   1.609   3.979  3.8918  0.3451  0.5571
  357MOL0     H48139  -0.198   1.448   3.930 -2.0282  1.6186  0.3598
  357MOL0     H48140  -0.195   1.370   4.172 -1.4407 -0.1095  0.3702
  357MOL0     H48141  -0.208   1.526   4.231 -0.7480 -3.4567  2.3687
  357MOL0     H48142  -0.431   1.419   4.034 -0.8234  1.7174 -0.4792
  357MOL0     H48143  -0.439   1.385   4.206 -2.6316  0.4759  0.0828
  357MOL0     H48144  -0.444   1.635   4.248 -3.7548  4.1603 -0.1331
  357MOL0     H48145  -0.581   1.557   4.154  0.1165  0.7514 -4.3295
  357MOL0     H48146  -0.571   1.561   3.891 -0.2832  0.9382 -0.0150
  357MOL0     H48147  -0.460   1.883   3.685  0.9595  1.4343  2.8333
  357MOL0     H48148  -0.546   1.717   3.664  0.5333 -0.6886  1.5591
  357MOL0     H48149  -0.683   1.973   3.775  0.7385  1.1332 -1.8067
  357MOL0     H48150  -0.744   1.808   3.785  1.1640 -1.4621 -0.1017
  357MOL0     H48151  -0.743   1.772   3.551  0.3913 -0.5574 -0.4540
  357MOL0     H48152  -0.669   1.923   3.510  0.2222  0.1367  1.2506
  357MOL0     H48153  -0.892   1.991   3.492 -1.8114  3.2892  1.8268
  357MOL0     H48154  -0.875   2.026   3.652  1.3562  0.5118  0.2450
  357MOL0     H48155  -1.114   1.644   3.644  0.4085 -0.8173 -1.8006
  357MOL0     H48156  -1.449   1.619   3.688  1.3607 -0.6061  1.3177
  357MOL0     H48157  -1.430   1.546   3.531 -1.6785 -1.4633  0.1238
  357MOL0     H48158  -1.303   1.529   3.666 -0.0325  1.4793  0.4294
  357MOL0     H48159  -1.726   1.821   3.215  1.2876  0.0133  1.5567
  357MOL0     H48160  -1.935   1.910   3.168  1.3109  1.5676 -1.7370
  357MOL0     H48161  -2.029   2.181   3.119  1.8168 -0.1161  0.3037
  357MOL0     H48162  -2.125   2.028   3.133 -1.5512  0.1470  2.0693
  357MOL0     H48163  -2.255   2.237   3.083 -3.9806  1.5046  0.6662
  357MOL0     H48164  -2.318   2.146   3.219  0.2018 -2.7505 -2.5619
  357MOL0     H48165  -2.147   2.330   3.345 -1.1624  2.5460  0.5680
  357MOL0     H48166  -2.311   2.385   3.286  0.5661  0.5320  0.4932
  357MOL0     H48167  -2.052   2.411   3.138 -1.9923 -2.6617 -3.5083
  357MOL0     H48168  -2.205   2.477   3.084  1.4988  3.4604 -0.0952
  357MOL0     H48169  -2.069   2.659   3.200 -0.7817  2.2870  1.4718
  357MOL0     H48170  -2.066   2.556   3.349 -2.3722 -0.2036  0.8748
  357MOL0     H48171  -2.327   2.637   3.237  2.0895 -2.4455 -1.7582
  357MOL0     H48172  -2.293   2.578   3.397 -1.3874 -1.9498 -0.1256
  357MOL0     H48173  -2.143   2.838   3.346 -0.4936  1.0872  0.0750
  357MOL0     H48174  -2.249   2.778   3.485 -1.8984 -0.7160 -0.1050
  357MOL0     H48175  -2.331   2.924   3.239  0.5775 -1.5144 -0.3565
  357MOL0     H48176  -2.342   2.981   3.408 -0.6614  2.0038 -2.6396
  357MOL0     H48177  -1.887   2.199   3.482 -2.5881 -1.2103 -0.0743
  357MOL0     H48178  -1.672   2.143   3.509 -0.8162 -0.9517  0.2226
  357MOL0     H48179  -1.309   2.027   3.418 -1.7928  2.4435  3.5976
  357MOL0     H48180  -1.082   2.024   3.484  0.4766  0.0884 -0.0813
  357MOL0     H48181   0.468   1.807   4.322 -0.9375 -0.5076  0.3682
  357MOL0     H48182   0.660   1.786   4.487  0.1926  0.9106 -0.7692
  357MOL0     H48183   1.223   1.500   4.413 -2.3332 -0.6748  0.4065
  357MOL0     H48184   1.415   1.568   4.550  0.4651  0.0379  1.1475
  357MOL0     H48185   1.369   1.747   4.931  1.3283  0.7269  0.5456
  357MOL0     H48186   1.432   1.596   4.868 -2.1637  0.2047 -1.2995
  357MOL0     H48187   1.659   1.681   4.850  1.2066  1.0526 -0.3981
  357MOL0     H48188   1.607   1.712   5.019  1.8273 -0.4782 -0.1167
  357MOL0     H48189   1.529   1.949   4.951  0.5897  0.2346  0.9474
  357MOL0     H48190   1.602   1.910   4.795  0.1178 -1.5348  0.0587
  357MOL0     H48191   1.754   1.925   5.055  1.1626 -1.5775  0.6347
  357MOL0     H48192   1.736   2.057   4.943  0.7278  0.4287 -0.8147
  357MOL0     H48193   2.023   1.854   4.708  1.7787 -4.3341  2.7583
  357MOL0     H48194   1.161   1.826   4.771 -1.9361 -1.6333  0.2129
  357MOL0     H48195   0.957   1.732   4.657 -0.7629 -0.3481  1.1423
  358MOL0     O48196   2.404  11.243   6.049 -0.7485 -0.0305 -0.1010
  358MOL0     C48197   2.448  11.230   6.166  0.8997  0.2072  0.9136
  358MOL0     O48198   2.369  11.215   6.269  0.6419 -0.3962 -0.3843
  358MOL0     C48199   2.228  11.222   6.243  0.0650 -0.1746  0.0773
  358MOL0     C48200   2.151  11.111   6.198  0.2541  1.2265 -0.0129
  358MOL0     C48201   2.011  11.125   6.190  0.6223 -0.4353 -0.0961
  358MOL0     C48202   1.952  11.252   6.207 -0.7550  0.2109 -0.5440
  358MOL0     O48203   1.815  11.274   6.206 -0.0558  0.0344 -0.1956
  358MOL0     C48204   1.735  11.214   6.315 -1.1504  0.0623  0.3841
  358MOL0     C48205   1.608  11.296   6.309  0.2880 -0.0950 -0.9877
  358MOL0     C48206   1.529  11.287   6.436 -0.1975 -0.5105  0.3577
  358MOL0     C48207   1.457  11.155   6.446 -0.4070  0.4602  1.2703
  358MOL0     C48208   1.385  11.145   6.571 -0.4338 -0.2099 -1.1491
  358MOL0     C48209   1.260  11.243   6.582  0.4027  0.5745 -1.0939
  358MOL0     C48210   1.193  11.220   6.724  0.3618 -0.4125  0.7527
  358MOL0     C48211   1.088  11.321   6.757 -0.5310  0.4300 -0.2305
  358MOL0     N48212   0.968  11.316   6.672 -0.1558 -0.0263 -0.3013
  358MOL0     C48213   0.864  11.229   6.676 -0.0552 -0.0285  0.1389
  358MOL0     C48214   0.771  11.288   6.594 -0.5421  0.7282  0.2741
  358MOL0     C48215   0.644  11.226   6.550  0.1164  0.5345  0.4546
  358MOL0     C48216   0.659  11.168   6.405 -0.7219 -0.3441 -0.4092
  358MOL0     C48217   0.536  11.086   6.358  0.4025 -0.3334  0.1425
  358MOL0     C48218   0.410  11.176   6.336 -0.5756 -0.1167 -0.4280
  358MOL0     O48219   0.437  11.312   6.289  0.1464  0.5609 -0.3289
  358MOL0     C48220   0.328  11.395   6.295  1.0802  0.3369 -0.5055
  358MOL0     C48221   0.339  11.516   6.347  0.8739 -0.1464  0.0274
  358MOL0     C48222   0.228  11.602   6.353  0.3255 -0.6489 -0.0840
  358MOL0     C48223   0.256  11.730   6.414 -0.7094 -0.0912  1.0887
  358MOL0     C48224   0.098  11.565   6.302 -0.8344  0.0235 -1.2040
  358MOL0     C48225  -0.030  11.648   6.314 -0.2278 -0.1480  0.8596
  358MOL0     O48226  -0.147  11.577   6.287 -0.1707 -0.6019 -0.2322
  358MOL0     C48227  -0.261  11.627   6.345  0.4445 -0.7862 -0.6300
  358MOL0     C48228  -0.314  11.749   6.317  0.0505 -0.5940  0.2265
  358MOL0     C48229  -0.435  11.790   6.366  0.4214 -0.0283 -0.2693
  358MOL0     C48230  -0.507  11.701   6.459  0.0639  0.2643  0.3556
  358MOL0     O48231  -0.635  11.751   6.494  1.2162  0.2026  0.0193
  358MOL0     C48232  -0.694  11.703   6.618 -0.5240 -0.3354  0.1929
  358MOL0     C48233  -0.823  11.783   6.646 -0.5501  0.1148  1.4950
  358MOL0     C48234  -0.931  11.774   6.535 -0.2845  0.4396 -0.0957
  358MOL0     C48235  -1.069  11.835   6.576  0.4597  0.3394  0.4008
  358MOL0     C48236  -1.191  11.795   6.493 -1.4933  0.1839 -0.3319
  358MOL0     C48237  -1.327  11.856   6.533  0.5906  0.1471  0.0149
  358MOL0     C48238  -1.431  11.814   6.424  0.2903  0.3878 -0.1995
  358MOL0     C48239  -1.418  11.887   6.293  0.2181 -1.3193  0.8964
  358MOL0    Cl48240  -1.443  12.061   6.288  0.0841  0.2395 -0.3456
  358MOL0     C48241  -0.466  11.566   6.467  0.9943  0.7252 -0.3457
  358MOL0     C48242  -0.342  11.533   6.402  0.0114  0.4256  0.2791
  358MOL0     O48243  -0.030  11.771   6.322  0.1686 -0.4940 -0.6176
  358MOL0     C48244   0.092  11.436   6.250  0.6495 -0.0633 -0.3240
  358MOL0     C48245   0.207  11.360   6.243  0.6210 -0.1948 -0.0501
  358MOL0     N48246   0.821  11.406   6.541 -0.8881 -0.6829 -0.3317
  358MOL0     N48247   0.941  11.415   6.589 -0.4354  0.3105  0.7420
  358MOL0     C48248   2.039  11.362   6.238  0.3782  0.2686  1.0830
  358MOL0     C48249   2.172  11.343   6.266 -0.1854  0.4780  0.2410
  358MOL0     C48250   2.590  11.240   6.202 -0.0716  0.3504  0.0870
  358MOL0     C48251   2.695  11.219   6.110  0.6588 -0.0067 -0.1100
  358MOL0     C48252   2.832  11.197   6.150  1.3254 -0.3795 -0.4052
  358MOL0     C48253   2.875  11.213   6.278  0.6545  0.6780 -1.3338
  358MOL0     O48254   3.012  11.192   6.305  0.0939  0.3650  0.1163
  358MOL0     C48255   3.067  11.219   6.431 -0.7178 -0.6956 -1.1470
  358MOL0     C48256   3.033  11.108   6.532 -0.2425  0.1317 -0.4253
  358MOL0     C48257   3.048  11.143   6.684  1.1159 -0.0967 -1.1172
  358MOL0     C48258   2.953  11.248   6.741 -0.2566 -0.0385  0.1008
  358MOL0     C48259   2.815  11.190   6.744 -0.1119 -1.1943  0.1039
  358MOL0     C48260   2.705  11.150   6.729  0.3387 -0.2027  0.3445
  358MOL0     C48261   2.772  11.248   6.370  0.0932 -0.8277 -0.4036
  358MOL0     C48262   2.633  11.255   6.335 -0.3950 -0.4832 -0.5889
  358MOL0     H48263   2.194  11.015   6.170 -1.4801  0.0252  1.2157
  358MOL0     H48264   1.944  11.044   6.163  0.3251  0.4051 -2.0250
  358MOL0     H48265   1.706  11.112   6.290  2.3126 -0.4843 -2.1544
  358MOL0     H48266   1.792  11.211   6.408 -1.9754 -2.6363  0.8704
  358MOL0     H48267   1.629  11.401   6.284  2.2543 -0.0142  0.7219
  358MOL0     H48268   1.544  11.262   6.227 -0.5597  0.8326 -0.7340
  358MOL0     H48269   1.605  11.303   6.513 -0.7814 -0.9533  1.0424
  358MOL0     H48270   1.453  11.365   6.453  1.1114  0.5662  1.5836
  358MOL0     H48271   1.387  11.150   6.362 -0.0416 -1.4526  1.0319
  358MOL0     H48272   1.523  11.068   6.440  0.7579  1.3761 -0.0177
  358MOL0     H48273   1.344  11.043   6.573 -2.2679  0.4853 -1.5124
  358MOL0     H48274   1.456  11.166   6.651 -2.1969  5.1441 -0.6476
  358MOL0     H48275   1.305  11.343   6.586  3.6738 -0.8085  0.1515
  358MOL0     H48276   1.180  11.237   6.507 -0.1566 -1.4559 -0.4034
  358MOL0     H48277   1.137  11.126   6.715 -2.4685  1.1341  0.8922
  358MOL0     H48278   1.266  11.222   6.805 -2.1060 -0.7175  3.1191
  358MOL0     H48279   1.134  11.419   6.771  0.8234 -0.0064 -1.3562
  358MOL0     H48280   1.064  11.299   6.861 -0.6764 -1.6759 -0.6705
  358MOL0     H48281   0.853  11.133   6.725 -1.1866  0.1061  0.1652
  358MOL0     H48282   0.615  11.141   6.612  0.1165 -0.0408 -0.3235
  358MOL0     H48283   0.562  11.298   6.543 -1.6216 -1.3519  0.5092
  358MOL0     H48284   0.743  11.099   6.413 -1.4554 -1.3434 -1.1446
  358MOL0     H48285   0.691  11.242   6.331 -1.1179 -1.8560 -2.1627
  358MOL0     H48286   0.507  11.000   6.419 -1.2909 -0.0564 -0.2319
  358MOL0     H48287   0.561  11.050   6.258  1.2787  0.5066  0.0446
  358MOL0     H48288   0.375  11.194   6.438  1.0839  2.2551 -0.1877
  358MOL0     H48289   0.335  11.124   6.276 -1.4889  0.3097  0.3388
  358MOL0     H48290   0.422  11.547   6.409  0.1932  2.2127 -0.1429
  358MOL0     H48291   0.254  11.800   6.330  1.3488 -1.7906 -0.4917
  358MOL0     H48292   0.185  11.769   6.487  1.8538  3.2836  2.0096
  358MOL0     H48293   0.362  11.737   6.438 -0.0057 -1.8823 -1.0876
  358MOL0     H48294  -0.262  11.822   6.257  0.4973  0.9934  2.4453
  358MOL0     H48295  -0.467  11.889   6.336 -2.5283 -0.4209  1.2245
  358MOL0     H48296  -0.726  11.600   6.605 -0.0693 -0.6728  1.5390
  358MOL0     H48297  -0.619  11.705   6.698  1.9085 -1.6879 -1.8900
  358MOL0     H48298  -0.865  11.728   6.731 -1.0947 -2.5538 -0.3573
  358MOL0     H48299  -0.799  11.889   6.658 -0.8150  0.0570  2.7681
  358MOL0     H48300  -0.939  11.671   6.499 -0.5523  0.9898 -1.6951
  358MOL0     H48301  -0.901  11.829   6.445  3.1127  0.9921  1.2115
  358MOL0     H48302  -1.102  11.804   6.676 -0.5007  0.1138  0.0259
  358MOL0     H48303  -1.069  11.944   6.575 -0.4538  0.3912  2.2035
  358MOL0     H48304  -1.191  11.686   6.499 -2.0339  0.2690  1.7720
  358MOL0     H48305  -1.163  11.826   6.391  3.3366 -2.2181 -0.0724
  358MOL0     H48306  -1.355  11.822   6.633  0.2651  2.3668  0.7292
  358MOL0     H48307  -1.313  11.964   6.540 -2.0519  0.4577  2.1165
  358MOL0     H48308  -1.536  11.827   6.452 -0.6494 -2.7695 -1.7662
  358MOL0     H48309  -1.419  11.709   6.397 -1.2762 -0.0961  0.8820
  358MOL0     H48310  -1.494  11.849   6.223  0.2431 -1.9549  1.2044
  358MOL0     H48311  -1.322  11.872   6.242 -1.2134 -0.4370 -2.3291
  358MOL0     H48312  -0.510  11.485   6.524  0.0010 -0.3954 -2.5949
  358MOL0     H48313  -0.319  11.431   6.431 -3.3907 -0.0190  1.9772
  358MOL0     H48314   0.006  11.389   6.203  1.8173  0.3365 -3.0521
  358MOL0     H48315   0.195  11.256   6.215 -2.9199  0.0102  0.1873
  358MOL0     H48316   1.979  11.452   6.238  0.3884  0.3630 -1.7793
  358MOL0     H48317   2.221  11.433   6.303  0.0748  1.0705 -1.4488
  358MOL0     H48318   2.668  11.196   6.008 -1.8569 -0.6350  0.6045
  358MOL0     H48319   2.910  11.171   6.079  0.1566 -0.8076 -1.5809
  358MOL0     H48320   3.176  11.225   6.430 -0.4690  0.6366  4.0223
  358MOL0     H48321   3.042  11.314   6.478  0.5945  0.2472 -2.2772
  358MOL0     H48322   3.087  11.017   6.507  0.1573  0.7527 -1.9091
  358MOL0     H48323   2.927  11.096   6.508 -0.9838  0.9678  2.0215
  358MOL0     H48324   3.152  11.176   6.693  0.4233  2.3115 -1.4663
  358MOL0     H48325   3.049  11.048   6.739  0.3599  0.5801  0.1010
  358MOL0     H48326   2.935  11.332   6.673 -0.7448  0.1114  0.4058
  358MOL0     H48327   2.996  11.279   6.837  1.2394 -1.0494 -0.2097
  358MOL0     H48328   2.601  11.125   6.722 -0.4499  2.3119  1.5804
  358MOL0     H48329   2.793  11.255   6.476  2.6651  1.0076 -0.9466
  358MOL0     H48330   2.562  11.276   6.414  1.5879 -0.9853  1.4391
  359MOL0     O48331   4.833   6.971   1.537 -0.3618  0.2995  0.6982
  359MOL0     C48332   4.807   6.856   1.579 -0.1517  0.8712 -0.2385
  359MOL0     O48333   4.697   6.777   1.540 -0.4363  0.1288  1.3412
  359MOL0     C48334   4.595   6.815   1.454  0.3131  0.6449  0.0257
  359MOL0     C48335   4.510   6.708   1.436  0.5752  0.3192  0.0147
  359MOL0     C48336   4.392   6.717   1.355 -0.4204  0.9958  1.7330
  359MOL0     C48337   4.365   6.839   1.288  0.4333  0.3671  0.3297
  359MOL0     O48338   4.254   6.865   1.209  0.3280 -0.9029  0.0401
  359MOL0     C48339   4.199   6.760   1.134  0.9470  0.3971 -0.7563
  359MOL0     C48340   4.118   6.818   1.015 -0.1961  0.2180 -0.4590
  359MOL0     C48341   4.001   6.722   0.982  0.5615  0.5745 -0.4456
  359MOL0     C48342   3.867   6.764   1.048  0.2677 -0.1361  0.4892
  359MOL0     C48343   3.761   6.655   1.034 -0.7538  0.2001 -0.6069
  359MOL0     C48344   3.631   6.715   1.079 -0.0814 -0.8885 -0.4873
  359MOL0     C48345   3.512   6.618   1.083 -0.0468  0.2807  0.1605
  359MOL0     C48346   3.383   6.698   1.091 -0.7484  0.2961  0.1752
  359MOL0     N48347   3.269   6.607   1.085  0.4968 -0.4513  0.2395
  359MOL0     C48348   3.154   6.635   1.155  0.0542  0.0753  0.5266
  359MOL0     C48349   3.061   6.551   1.115 -0.4915 -0.3560  0.8397
  359MOL0     C48350   2.918   6.546   1.161  0.2084 -0.0757 -0.3656
  359MOL0     C48351   2.809   6.602   1.065  0.1394 -1.2340 -0.8872
  359MOL0     C48352   2.768   6.743   1.115 -0.6863 -0.5003  0.5130
  359MOL0     C48353   2.632   6.792   1.054 -0.1814 -0.5341 -0.0411
  359MOL0     O48354   2.587   6.709   0.952 -0.8420 -0.0964 -0.6350
  359MOL0     C48355   2.452   6.711   0.918 -0.5516  0.1291 -0.1748
  359MOL0     C48356   2.364   6.815   0.939 -1.1039 -0.5544  0.3582
  359MOL0     C48357   2.228   6.809   0.899 -0.1485  0.7894 -0.2540
  359MOL0     C48358   2.155   6.934   0.921 -0.0112  0.1892 -0.4073
  359MOL0     C48359   2.178   6.689   0.847 -0.1668 -0.0036  0.0133
  359MOL0     C48360   2.041   6.664   0.804 -1.0500 -0.2050 -0.6581
  359MOL0     O48361   1.996   6.536   0.774 -0.0044  0.2862 -0.4556
  359MOL0     C48362   1.859   6.516   0.756  0.2349  0.9657  0.2380
  359MOL0     C48363   1.766   6.573   0.834  0.8082 -0.4265 -0.1418
  359MOL0     C48364   1.630   6.549   0.815 -0.6099 -0.0039 -0.1772
  359MOL0     C48365   1.587   6.463   0.718 -0.1021  0.2557 -0.3229
  359MOL0     O48366   1.449   6.448   0.691  0.7509  0.9049  0.1258
  359MOL0     C48367   1.401   6.411   0.556  0.3563  0.4081 -0.3051
  359MOL0     C48368   1.257   6.448   0.533  0.3632  0.3187  0.6949
  359MOL0     C48369   1.220   6.410   0.395 -0.3721 -0.1409  0.0020
  359MOL0     C48370   1.073   6.436   0.382  0.2509  0.2449 -0.2057
  359MOL0     C48371   1.009   6.412   0.247  1.0433 -0.1978 -0.1896
  359MOL0     C48372   1.049   6.517   0.146 -0.6445 -0.4968 -0.2055
  359MOL0     C48373   0.988   6.492   0.015  0.3959 -0.2084  0.0316
  359MOL0     C48374   0.850   6.554   0.017  0.2676  0.2780 -0.2053
  359MOL0    Cl48375   0.781   6.566  -0.150 -0.5931 -0.1426 -0.1770
  359MOL0     C48376   1.679   6.393   0.635  0.1641  0.1033 -0.1487
  359MOL0     C48377   1.816   6.424   0.653 -0.2280 -1.2652  0.2923
  359MOL0     O48378   1.968   6.764   0.787 -0.4250  0.2149 -0.0929
  359MOL0     C48379   2.268   6.578   0.837 -0.5028 -0.7557 -0.5875
  359MOL0     C48380   2.401   6.593   0.869  0.9016  0.0924 -0.1713
  359MOL0     N48381   3.115   6.469   1.012 -0.8135 -0.3813  0.1317
  359MOL0     N48382   3.242   6.508   0.996  0.8059  0.7066  0.0981
  359MOL0     C48383   4.450   6.947   1.310  0.0311 -0.5934 -0.2285
  359MOL0     C48384   4.560   6.941   1.397 -1.0293 -0.4471  0.2405
  359MOL0     C48385   4.887   6.791   1.684  0.1960  0.5788 -0.1727
  359MOL0     C48386   5.000   6.851   1.730 -0.1684 -0.1336  1.1778
  359MOL0     C48387   5.081   6.797   1.827  0.7809 -0.6736 -0.1817
  359MOL0     C48388   5.048   6.678   1.890  0.5051 -0.0974 -0.0890
  359MOL0     O48389   5.121   6.640   1.996 -0.6210 -0.3736 -0.1877
  359MOL0     C48390   5.208   6.535   1.969  0.4831  0.5267 -0.1010
  359MOL0     C48391   5.278   6.487   2.098  1.0547  0.3482 -0.4469
  359MOL0     C48392   5.420   6.429   2.073 -0.5449 -0.0362  0.3633
  359MOL0     C48393   5.480   6.374   2.209 -0.2248  0.3542 -0.0036
  359MOL0     C48394   5.391   6.271   2.273 -1.0926  0.4932  0.1693
  359MOL0     C48395   5.335   6.185   2.333 -0.5482  0.4455  1.2105
  359MOL0     C48396   4.928   6.617   1.854 -0.0304 -0.4754  0.8605
  359MOL0     C48397   4.850   6.668   1.745  0.4808 -0.3875 -0.3737
  359MOL0     H48398   4.544   6.613   1.474  0.9839 -0.6248 -2.5033
  359MOL0     H48399   4.326   6.631   1.358  1.0748 -0.2028  1.1060
  359MOL0     H48400   4.271   6.682   1.103 -2.2068 -3.5262  0.9044
  359MOL0     H48401   4.133   6.702   1.199  1.3269 -0.3070 -0.9775
  359MOL0     H48402   4.080   6.914   1.052 -0.8904  0.0553 -0.7441
  359MOL0     H48403   4.180   6.840   0.928 -0.7987  3.1592 -0.2635
  359MOL0     H48404   4.007   6.713   0.874  1.6374 -1.3316 -0.2652
  359MOL0     H48405   4.028   6.625   1.023 -0.8614  0.6992  0.8929
  359MOL0     H48406   3.882   6.781   1.155 -0.8497 -3.9954  1.4294
  359MOL0     H48407   3.836   6.858   1.002  0.0841 -1.5879 -2.5638
  359MOL0     H48408   3.757   6.619   0.931 -2.9193  2.3740 -1.3718
  359MOL0     H48409   3.791   6.573   1.099  1.7011  0.3580 -1.4274
  359MOL0     H48410   3.630   6.754   1.182 -2.8877 -0.2407 -0.6805
  359MOL0     H48411   3.616   6.802   1.015  0.2971 -0.8578 -0.5340
  359MOL0     H48412   3.523   6.552   0.996 -0.4045  0.1396  0.2242
  359MOL0     H48413   3.520   6.557   1.174 -0.8223 -2.2153 -1.3246
  359MOL0     H48414   3.392   6.769   1.008  1.6266 -1.3592 -1.0911
  359MOL0     H48415   3.378   6.763   1.179  2.3023  1.6630 -0.5289
  359MOL0     H48416   3.150   6.708   1.235  1.3929  1.5057 -0.6716
  359MOL0     H48417   2.893   6.442   1.184  0.7941  0.3457  2.5655
  359MOL0     H48418   2.912   6.592   1.260  0.2440  0.6831 -0.7054
  359MOL0     H48419   2.737   6.520   1.073 -0.5536 -0.4775  1.1206
  359MOL0     H48420   2.850   6.615   0.964 -1.7381 -0.9354 -1.6383
  359MOL0     H48421   2.841   6.814   1.075 -2.9730  2.0515  0.5793
  359MOL0     H48422   2.754   6.749   1.223  0.7300 -2.4975  0.8482
  359MOL0     H48423   2.642   6.895   1.019  0.6789 -1.0608 -1.4657
  359MOL0     H48424   2.557   6.788   1.133 -0.5617  2.9831 -0.0418
  359MOL0     H48425   2.404   6.903   0.988  1.1331 -0.7831 -0.9102
  359MOL0     H48426   2.223   7.008   0.965  1.6198 -0.0073 -2.4400
  359MOL0     H48427   2.116   6.980   0.829 -1.3015  0.5656  0.3029
  359MOL0     H48428   2.072   6.913   0.989  2.4651  0.5632  2.9829
  359MOL0     H48429   1.783   6.640   0.918 -1.8803 -0.9616  0.9687
  359MOL0     H48430   1.557   6.610   0.866  1.3397  2.6235 -0.3208
  359MOL0     H48431   1.459   6.466   0.481 -2.0898  0.9971 -1.8810
  359MOL0     H48432   1.418   6.305   0.539 -2.7909 -0.3954  0.8464
  359MOL0     H48433   1.197   6.395   0.608 -1.9119 -1.4011 -2.1556
  359MOL0     H48434   1.235   6.555   0.540 -0.3959  0.0683  3.9210
  359MOL0     H48435   1.252   6.307   0.374  1.1876  0.6501 -1.9051
  359MOL0     H48436   1.273   6.472   0.322 -0.4782 -0.2687 -0.1852
  359MOL0     H48437   1.025   6.373   0.457  0.1012 -0.0462 -0.5430
  359MOL0     H48438   1.056   6.539   0.414 -0.8035  0.0016  0.0418
  359MOL0     H48439   0.901   6.404   0.261  0.9655 -1.6828 -1.3138
  359MOL0     H48440   1.041   6.314   0.208  3.5853  0.9702 -1.2807
  359MOL0     H48441   1.019   6.617   0.178 -3.7744 -1.1446 -0.8065
  359MOL0     H48442   1.158   6.523   0.143 -0.4885 -0.9365  2.2932
  359MOL0     H48443   0.986   6.384  -0.001  2.8088 -0.8114  2.8923
  359MOL0     H48444   1.039   6.547  -0.064 -1.3741  1.4801 -0.0356
  359MOL0     H48445   0.853   6.658   0.050 -3.7299  0.7720 -0.9074
  359MOL0     H48446   0.785   6.505   0.089  2.0626  0.9503  1.9798
  359MOL0     H48447   1.650   6.335   0.547 -1.0144  3.8049 -2.4428
  359MOL0     H48448   1.900   6.382   0.598  1.0383  0.3004  0.9416
  359MOL0     H48449   2.233   6.484   0.796 -2.7682  0.3082 -1.2243
  359MOL0     H48450   2.480   6.519   0.858  0.3085 -0.5409 -0.3226
  359MOL0     H48451   4.425   7.043   1.266  1.1103  0.9354  2.2630
  359MOL0     H48452   4.624   7.025   1.423 -1.3784  0.1724 -0.8360
  359MOL0     H48453   5.033   6.943   1.682 -0.7100 -1.5775 -2.2913
  359MOL0     H48454   5.175   6.847   1.848 -0.6878  2.2421  0.0570
  359MOL0     H48455   5.158   6.447   1.926 -0.5037  1.0560 -0.0624
  359MOL0     H48456   5.281   6.570   1.896 -0.8810  0.0265 -1.7695
  359MOL0     H48457   5.208   6.419   2.147  0.3697  3.0190  2.6223
  359MOL0     H48458   5.287   6.570   2.170 -1.5098 -1.2514  1.9129
  359MOL0     H48459   5.489   6.503   2.031  1.2431 -1.5923  0.4375
  359MOL0     H48460   5.422   6.347   2.001 -0.2862 -0.0407  0.3723
  359MOL0     H48461   5.509   6.456   2.274 -0.6139  1.5242 -1.2552
  359MOL0     H48462   5.573   6.326   2.177 -0.1374  0.5899 -0.1074
  359MOL0     H48463   5.272   6.120   2.392 -0.8012  1.4300  2.0421
  359MOL0     H48464   4.894   6.530   1.909 -2.0212 -0.9901 -1.0478
  359MOL0     H48465   4.758   6.625   1.706  0.5799  0.8663 -2.0803
  360MOL0     O48466   4.198   7.225  10.878 -0.0212 -0.5945 -0.4168
  360MOL0     C48467   4.284   7.308  10.907  0.1150  0.3055 -0.3386
  360MOL0     O48468   4.258   7.447  10.887 -0.0848 -0.2777 -0.3915
  360MOL0     C48469   4.145   7.475  10.820 -0.3597 -1.3745 -0.1299
  360MOL0     C48470   4.104   7.420  10.706 -0.1441  0.5072  0.5868
  360MOL0     C48471   3.986   7.460  10.646  0.7291  0.7773  0.1700
  360MOL0     C48472   3.906   7.558  10.702 -0.2091 -0.0362 -0.4776
  360MOL0     O48473   3.793   7.609  10.632 -0.7270  0.6919  0.2470
  360MOL0     C48474   3.721   7.518  10.539 -0.5568 -0.2977  0.6054
  360MOL0     C48475   3.577   7.557  10.522 -1.1531 -0.3343  0.1812
  360MOL0     C48476   3.550   7.686  10.452 -0.6617 -0.1644  0.5080
  360MOL0     C48477   3.402   7.705  10.435  0.1867 -0.0082 -0.1223
  360MOL0     C48478   3.372   7.816  10.331 -0.4282  1.0303 -0.6210
  360MOL0     C48479   3.455   7.810  10.198 -0.4405 -0.0722  0.6898
  360MOL0     C48480   3.387   7.895  10.081  0.9147  0.0479  0.7350
  360MOL0     C48481   3.369   7.823   9.947 -0.4243 -0.9215 -0.7430
  360MOL0     N48482   3.309   7.686   9.965  0.7884  0.5441  1.2857
  360MOL0     C48483   3.200   7.649  10.041  0.5512  0.0078 -0.2572
  360MOL0     C48484   3.194   7.520  10.046 -0.1733  0.2989 -0.1182
  360MOL0     C48485   3.090   7.432  10.117 -0.4426  0.1344  0.0173
  360MOL0     C48486   3.151   7.382  10.244  1.0586  0.1964 -1.0865
  360MOL0     C48487   3.296   7.324  10.224 -0.0761  0.4513 -0.3086
  360MOL0     C48488   3.351   7.278  10.353 -0.0995  0.1624 -0.0953
  360MOL0     O48489   3.324   7.135  10.381 -0.7914 -0.1703  0.0316
  360MOL0     C48490   3.389   7.041  10.306  0.9301  0.4560 -0.2624
  360MOL0     C48491   3.338   6.908  10.309  0.9254 -0.6612  0.8825
  360MOL0     C48492   3.388   6.807  10.226 -1.1760 -0.3045  1.0797
  360MOL0     C48493   3.318   6.672  10.219 -0.2363  0.2043 -0.5879
  360MOL0     C48494   3.505   6.828  10.154  0.4426 -0.4533 -0.4229
  360MOL0     C48495   3.575   6.716  10.074 -0.0963  0.0080  0.2509
  360MOL0     O48496   3.682   6.761  10.006  0.0033 -0.6342 -0.4659
  360MOL0     C48497   3.760   6.675   9.942  0.3329 -0.2322  1.0158
  360MOL0     C48498   3.768   6.685   9.799 -0.8577 -0.2141  0.2272
  360MOL0     C48499   3.862   6.600   9.727 -0.3008 -0.8442 -0.4401
  360MOL0     C48500   3.933   6.496   9.797  0.2988 -0.2055  0.6198
  360MOL0     O48501   4.013   6.406   9.740 -0.6469  0.0203  0.0212
  360MOL0     C48502   4.054   6.411   9.610  0.3146  0.7057  0.6241
  360MOL0     C48503   4.114   6.275   9.574  0.5773 -0.6149  0.0476
  360MOL0     C48504   4.245   6.252   9.647  0.0003  0.5267 -0.1124
  360MOL0     C48505   4.340   6.156   9.567 -0.2354 -0.3225 -0.0567
  360MOL0     C48506   4.440   6.081   9.658 -0.5690  0.2642  0.5543
  360MOL0     C48507   4.545   6.169   9.720  0.2167  0.5396 -0.3379
  360MOL0     C48508   4.665   6.095   9.778 -0.6375 -0.5574  0.4660
  360MOL0     C48509   4.757   6.202   9.819 -0.2675 -0.2108 -1.0308
  360MOL0    Cl48510   4.669   6.303   9.941 -0.0984 -0.4458 -0.2190
  360MOL0     C48511   3.905   6.482   9.933 -0.8518  0.0222 -0.0052
  360MOL0     C48512   3.829   6.574  10.008  0.4064  0.6290 -0.3440
  360MOL0     O48513   3.540   6.602  10.080 -0.4147  0.1242 -0.2238
  360MOL0     C48514   3.558   6.959  10.161  0.0300  0.8431 -0.8879
  360MOL0     C48515   3.497   7.064  10.230 -0.7819  0.5752  0.1977
  360MOL0     N48516   3.306   7.472   9.972 -0.3704 -0.5124  0.1035
  360MOL0     N48517   3.363   7.572   9.921  0.1090 -0.0972  1.1539
  360MOL0     C48518   3.948   7.619  10.812  0.2039 -0.2451  0.0540
  360MOL0     C48519   4.059   7.575  10.880 -0.7660  0.1565 -0.5523
  360MOL0     C48520   4.418   7.253  10.955  0.0098  0.4255 -0.1235
  360MOL0     C48521   4.443   7.116  10.951 -0.7555  0.2707 -0.5803
  360MOL0     C48522   4.552   7.058  11.017  0.2715 -0.7794  0.1235
  360MOL0     C48523   4.639   7.142  11.088 -0.3541  0.4013 -0.3903
  360MOL0     O48524   4.729   7.077  11.171  0.3472  0.5244  0.3051
  360MOL0     C48525   4.855   7.114  11.144  0.1413  0.2511  1.1093
  360MOL0     C48526   4.891   7.089  11.001  0.3075  0.5588 -0.0488
  360MOL0     C48527   5.046   7.087  11.006 -0.7844  0.5394 -0.1286
  360MOL0     C48528   5.112   7.096  10.873  0.7610 -0.3991 -0.1709
  360MOL0     C48529   5.256   7.053  10.893  0.6277  0.2928  1.3745
  360MOL0     C48530   5.377   7.031  10.886 -0.0516  0.4248  0.0506
  360MOL0     C48531   4.622   7.276  11.083 -0.0758 -0.2028  0.3076
  360MOL0     C48532   4.509   7.338  11.018  0.2172  0.1794 -0.7867
  360MOL0     H48533   4.164   7.354  10.645 -0.8251  1.1088 -0.7906
  360MOL0     H48534   3.971   7.417  10.547 -1.6265  3.1769 -0.6185
  360MOL0     H48535   3.770   7.517  10.441  1.1769  2.6412  1.3007
  360MOL0     H48536   3.715   7.416  10.576 -1.0640 -1.0073 -1.3044
  360MOL0     H48537   3.538   7.481  10.454 -0.0329 -0.0107 -0.8426
  360MOL0     H48538   3.538   7.550  10.624 -1.5489 -2.9092 -0.0934
  360MOL0     H48539   3.592   7.770  10.509 -1.7817 -0.9733  2.6139
  360MOL0     H48540   3.598   7.674  10.355  0.7252 -0.6947  1.2247
  360MOL0     H48541   3.369   7.604  10.407 -1.0881 -0.1112  1.5812
  360MOL0     H48542   3.362   7.720  10.535 -0.7069 -3.3745  0.1575
  360MOL0     H48543   3.267   7.814  10.303 -0.8738  2.0998  0.8547
  360MOL0     H48544   3.398   7.911  10.379  0.2710 -0.0008  1.0950
  360MOL0     H48545   3.556   7.851  10.200 -0.1442 -0.4479 -2.1613
  360MOL0     H48546   3.459   7.704  10.171 -2.7449  0.3274 -1.7044
  360MOL0     H48547   3.292   7.939  10.111 -0.9330 -0.5852 -3.4888
  360MOL0     H48548   3.448   7.983  10.060 -0.5978  0.8872 -0.2472
  360MOL0     H48549   3.471   7.829   9.906  0.2488  1.3493  1.0176
  360MOL0     H48550   3.316   7.884   9.873 -2.2366 -0.7137  0.6696
  360MOL0     H48551   3.130   7.714  10.093  0.6160  0.4527 -0.7244
  360MOL0     H48552   2.999   7.489  10.139 -1.3647 -2.1082  2.6791
  360MOL0     H48553   3.049   7.353  10.054 -0.7628  0.0216  0.3636
  360MOL0     H48554   3.081   7.304  10.275 -2.0240  2.0355 -2.9599
  360MOL0     H48555   3.132   7.458  10.321 -1.0526 -3.5456  2.5034
  360MOL0     H48556   3.364   7.404  10.194 -0.6350  2.5433  3.3566
  360MOL0     H48557   3.291   7.249  10.145  0.9437 -0.7267  0.6961
  360MOL0     H48558   3.316   7.339  10.437  1.9930  0.2097  0.7842
  360MOL0     H48559   3.458   7.295  10.341  0.5047 -2.6060  0.6802
  360MOL0     H48560   3.249   6.882  10.365 -0.3074 -1.0524 -1.1344
  360MOL0     H48561   3.378   6.607  10.283  1.5970  1.2898 -1.1522
  360MOL0     H48562   3.218   6.676  10.263 -0.1072  0.9992 -0.3587
  360MOL0     H48563   3.295   6.637  10.118 -2.6958  1.2244 -0.4740
  360MOL0     H48564   3.709   6.754   9.740  0.8691  3.0997  2.0499
  360MOL0     H48565   3.849   6.602   9.619 -0.1051  1.3517 -0.4670
  360MOL0     H48566   3.966   6.429   9.547  1.4551 -1.9180 -2.0398
  360MOL0     H48567   4.122   6.490   9.578 -1.9211  1.4077 -3.0732
  360MOL0     H48568   4.044   6.194   9.593  0.3564 -0.6654 -0.9333
  360MOL0     H48569   4.130   6.275   9.465 -0.6654 -2.6029 -0.1726
  360MOL0     H48570   4.216   6.209   9.743 -3.4535 -1.7428 -1.9624
  360MOL0     H48571   4.307   6.342   9.663  2.6714 -1.3015  0.4804
  360MOL0     H48572   4.288   6.085   9.503  3.2246 -0.8789 -2.5393
  360MOL0     H48573   4.397   6.219   9.497  1.3545 -1.0401  0.5382
  360MOL0     H48574   4.493   6.005   9.600  0.8362  0.5964  1.3616
  360MOL0     H48575   4.403   6.019   9.741  1.2211  0.6077  1.6814
  360MOL0     H48576   4.588   6.230   9.640  2.4732  0.2712  0.5802
  360MOL0     H48577   4.490   6.226   9.796 -0.8657 -0.9962  0.0700
  360MOL0     H48578   4.712   6.030   9.703  0.2476 -2.6814  2.7244
  360MOL0     H48579   4.639   6.036   9.866 -3.1937 -0.3534 -0.0873
  360MOL0     H48580   4.792   6.269   9.740  0.9164 -1.4268 -1.5687
  360MOL0     H48581   4.847   6.152   9.857 -1.1133  0.9731  3.0678
  360MOL0     H48582   3.968   6.411   9.986 -0.5272 -0.3901 -0.9275
  360MOL0     H48583   3.820   6.569  10.116  1.9904 -1.9965 -0.2308
  360MOL0     H48584   3.645   6.996  10.107 -0.0389 -0.0082 -1.5954
  360MOL0     H48585   3.546   7.161  10.228  1.5744 -0.5555 -0.6022
  360MOL0     H48586   3.890   7.703  10.847 -2.4298 -0.2052 -3.7225
  360MOL0     H48587   4.083   7.618  10.977  1.0881 -0.9179 -0.4812
  360MOL0     H48588   4.378   7.046  10.899 -2.4163  0.5289  1.0238
  360MOL0     H48589   4.562   6.950  11.014  1.3930 -0.7135  0.9361
  360MOL0     H48590   4.868   7.221  11.162 -4.0412  0.5082  4.2606
  360MOL0     H48591   4.921   7.064  11.215 -0.2558  0.4965  1.6547
  360MOL0     H48592   4.853   7.172  10.941  0.9762  1.1632  0.3517
  360MOL0     H48593   4.843   6.996  10.967  0.1492  0.3104  0.8235
  360MOL0     H48594   5.077   6.991  11.048  1.7013  0.2486 -2.3787
  360MOL0     H48595   5.070   7.177  11.063 -2.7775  0.1404  1.4398
  360MOL0     H48596   5.105   7.201  10.845 -0.1428 -0.4735 -0.2782
  360MOL0     H48597   5.061   7.038  10.795 -1.4757 -1.0479  1.6435
  360MOL0     H48598   5.484   7.020  10.878 -0.1401 -0.4392 -0.0628
  360MOL0     H48599   4.685   7.346  11.138 -0.0211 -0.5093  0.6380
  360MOL0     H48600   4.489   7.444  11.031 -1.0697 -0.0867 -0.4882
  361MOL0     O48601  10.370   1.628   2.250  0.2147 -0.5683 -0.6971
  361MOL0     C48602  10.473   1.618   2.182  0.1003  0.3761 -0.6310
  361MOL0     O48603  10.483   1.637   2.046  0.4723 -0.4465  0.0543
  361MOL0     C48604  10.375   1.678   1.968 -1.1497 -0.9569 -0.1045
  361MOL0     C48605  10.248   1.624   1.994  0.1804 -0.1061 -1.3377
  361MOL0     C48606  10.146   1.661   1.910  0.6093 -0.6235 -0.7573
  361MOL0     C48607  10.166   1.744   1.803  0.3899 -0.2572  0.7146
  361MOL0     O48608  10.067   1.775   1.713 -0.3936 -0.2092 -0.1624
  361MOL0     C48609   9.931   1.801   1.759  0.0546  1.3967  0.3208
  361MOL0     C48610   9.861   1.850   1.625 -0.2207 -0.1464  0.0811
  361MOL0     C48611   9.744   1.938   1.643  0.1822  0.7685 -0.2533
  361MOL0     C48612   9.613   1.861   1.636  0.2521  0.6732  1.3237
  361MOL0     C48613   9.492   1.947   1.655 -0.6016  0.5185 -0.6094
  361MOL0     C48614   9.370   1.847   1.679  0.7823 -0.1747 -0.0814
  361MOL0     C48615   9.246   1.933   1.712 -0.0914 -0.3529  0.0812
  361MOL0     C48616   9.250   2.012   1.843  1.5806 -0.1903 -0.4439
  361MOL0     N48617   9.131   2.093   1.846  0.4910  0.3387  0.0400
  361MOL0     C48618   9.141   2.230   1.852  0.7380 -1.2259  0.8646
  361MOL0     C48619   9.014   2.274   1.835 -0.2711  0.2785  0.7049
  361MOL0     C48620   8.966   2.412   1.835  0.5675 -0.5911 -0.2434
  361MOL0     C48621   8.820   2.425   1.811  0.6020  0.2630  0.2798
  361MOL0     C48622   8.771   2.579   1.803  0.3914 -0.6443  0.3179
  361MOL0     C48623   8.613   2.581   1.808  0.2347 -0.3174 -0.5581
  361MOL0     O48624   8.565   2.711   1.764  0.5107 -0.2921  0.9378
  361MOL0     C48625   8.429   2.737   1.764  0.1695  0.4815  0.2559
  361MOL0     C48626   8.338   2.661   1.828  0.4595  0.8512 -0.1541
  361MOL0     C48627   8.198   2.694   1.822  0.1361  0.4157 -0.4954
  361MOL0     C48628   8.115   2.593   1.896 -0.0205  0.3326 -0.4602
  361MOL0     C48629   8.153   2.815   1.763 -0.3338  0.0590  0.2200
  361MOL0     C48630   8.025   2.880   1.768 -0.3465 -0.1522  0.0839
  361MOL0     O48631   7.974   2.964   1.669 -0.6553  0.1020 -0.3072
  361MOL0     C48632   7.846   3.014   1.678 -0.5258 -0.0618  0.6009
  361MOL0     C48633   7.799   3.062   1.554  0.1292  0.1219 -0.4947
  361MOL0     C48634   7.675   3.115   1.533  0.0486  0.2717 -0.2223
  361MOL0     C48635   7.584   3.119   1.641 -0.6123 -1.2557 -0.4847
  361MOL0     O48636   7.455   3.152   1.624  0.2764 -0.2791 -0.4438
  361MOL0     C48637   7.419   3.269   1.548 -0.8436  0.3955  0.0379
  361MOL0     C48638   7.267   3.268   1.560  0.3572 -0.0509  0.0207
  361MOL0     C48639   7.206   3.386   1.475  0.8846  0.0415 -0.2305
  361MOL0     C48640   7.174   3.523   1.546 -1.0471 -0.6360  0.5927
  361MOL0     C48641   7.119   3.632   1.445  0.9518 -0.1417 -0.5265
  361MOL0     C48642   7.184   3.650   1.312  0.3059  0.5211 -0.0831
  361MOL0     C48643   7.152   3.788   1.254  0.2155  0.5303 -0.9113
  361MOL0     C48644   7.119   3.807   1.102 -0.9145 -0.1867 -0.9153
  361MOL0    Cl48645   6.953   3.756   1.068 -0.7201  0.2176  0.0306
  361MOL0     C48646   7.627   3.078   1.772  0.2872  0.1488 -0.5531
  361MOL0     C48647   7.758   3.036   1.789  0.1911 -0.1475 -0.0833
  361MOL0     O48648   7.957   2.833   1.855  0.4755 -0.1044 -0.4415
  361MOL0     C48649   8.249   2.885   1.691  0.6662  0.0459 -0.1381
  361MOL0     C48650   8.381   2.848   1.700 -0.0052 -0.3492 -0.2345
  361MOL0     N48651   8.928   2.159   1.830  0.1374 -0.3276 -0.6194
  361MOL0     N48652   8.999   2.051   1.836 -0.0600 -0.1457  0.3402
  361MOL0     C48653  10.292   1.807   1.783 -0.7805  0.2013 -0.5013
  361MOL0     C48654  10.396   1.768   1.860  0.1515  0.0103 -0.6990
  361MOL0     C48655  10.589   1.553   2.248 -0.9510  0.5475  0.4163
  361MOL0     C48656  10.574   1.501   2.375 -0.1668 -0.3803 -0.2687
  361MOL0     C48657  10.674   1.433   2.441  0.0197  0.3435  1.1161
  361MOL0     C48658  10.805   1.413   2.379  0.6781  0.2049 -0.4854
  361MOL0     O48659  10.913   1.367   2.444 -0.2357 -0.0119  0.1649
  361MOL0     C48660  10.891   1.281   2.550 -0.2790  0.3232  0.3364
  361MOL0     C48661  11.019   1.213   2.590  0.3138  0.1906 -0.5640
  361MOL0     C48662  11.106   1.308   2.673 -0.2099  0.3328 -0.0285
  361MOL0     C48663  11.232   1.253   2.727  0.2471  0.4888 -0.0899
  361MOL0     C48664  11.317   1.177   2.637  0.4282  0.1481  0.1488
  361MOL0     C48665  11.377   1.102   2.559  0.2260 -0.4095 -0.1383
  361MOL0     C48666  10.821   1.477   2.254 -0.1038 -0.5568  0.7684
  361MOL0     C48667  10.715   1.535   2.185 -0.1174 -0.5724 -0.1037
  361MOL0     H48668  10.229   1.561   2.081 -0.0076  2.0327  0.2444
  361MOL0     H48669  10.051   1.609   1.920  0.1023  0.2857 -0.6665
  361MOL0     H48670   9.882   1.713   1.802  1.9412  0.6329  0.9906
  361MOL0     H48671   9.939   1.881   1.833  4.7302  0.5867  1.0162
  361MOL0     H48672   9.941   1.909   1.580 -0.9218  2.2361  1.7573
  361MOL0     H48673   9.832   1.771   1.556  2.1592 -0.4340 -0.6920
  361MOL0     H48674   9.747   1.986   1.741 -1.8348 -1.9434  1.2900
  361MOL0     H48675   9.744   2.009   1.560 -1.6472 -0.1780 -1.1188
  361MOL0     H48676   9.604   1.805   1.542 -0.9003 -0.1191  1.8850
  361MOL0     H48677   9.615   1.795   1.723 -0.4439  0.0820  0.9107
  361MOL0     H48678   9.507   2.018   1.736  1.9951  0.0395 -0.5762
  361MOL0     H48679   9.475   2.009   1.566 -0.1988  0.3419 -0.8144
  361MOL0     H48680   9.354   1.789   1.587 -0.3164 -0.5655  0.3406
  361MOL0     H48681   9.389   1.779   1.762  1.6308 -0.4767 -0.5088
  361MOL0     H48682   9.236   2.000   1.627  1.5087  0.7272  0.6920
  361MOL0     H48683   9.162   1.864   1.715 -0.3972  0.0357  0.6066
  361MOL0     H48684   9.327   2.090   1.848 -1.3312  2.9018  0.5267
  361MOL0     H48685   9.254   1.948   1.931 -1.9427  0.4663  0.3627
  361MOL0     H48686   9.228   2.293   1.866  0.5262 -0.9022  0.7294
  361MOL0     H48687   8.976   2.447   1.938  0.9980 -1.9135  0.1988
  361MOL0     H48688   9.026   2.470   1.764  0.3167  0.9594  0.7627
  361MOL0     H48689   8.753   2.372   1.879 -2.6743  1.8889 -1.4098
  361MOL0     H48690   8.795   2.378   1.715  0.8296 -1.5288  1.0641
  361MOL0     H48691   8.810   2.627   1.713 -2.0976  0.1038 -0.4464
  361MOL0     H48692   8.810   2.639   1.886  0.3626 -1.2132  0.7470
  361MOL0     H48693   8.578   2.544   1.905 -2.2208 -3.5706 -2.5020
  361MOL0     H48694   8.570   2.505   1.742 -0.0491 -2.5393  2.0009
  361MOL0     H48695   8.364   2.575   1.890  1.6832  2.8812  2.3682
  361MOL0     H48696   8.164   2.497   1.911  1.1444  1.1216  1.0530
  361MOL0     H48697   8.077   2.633   1.990 -0.1004 -1.6406  0.3780
  361MOL0     H48698   8.027   2.571   1.834 -0.7293  2.3598 -0.2787
  361MOL0     H48699   7.853   3.040   1.462 -0.0649 -1.6930 -0.2157
  361MOL0     H48700   7.643   3.146   1.435  2.0473 -4.5594 -2.7399
  361MOL0     H48701   7.454   3.358   1.601  1.4293 -0.5294  0.1883
  361MOL0     H48702   7.458   3.263   1.446 -0.4796  0.3823  0.1763
  361MOL0     H48703   7.233   3.168   1.535  3.9719 -2.0784  2.2363
  361MOL0     H48704   7.242   3.290   1.665  1.1169 -1.0397  0.4261
  361MOL0     H48705   7.110   3.343   1.444  1.6721 -3.3385  1.5209
  361MOL0     H48706   7.276   3.409   1.395  0.9182 -1.2545 -0.6032
  361MOL0     H48707   7.114   3.493   1.632  1.5876 -0.6303  2.5547
  361MOL0     H48708   7.260   3.563   1.601 -1.9370 -0.2427  1.7113
  361MOL0     H48709   7.117   3.722   1.507 -2.4515 -0.8576  0.6089
  361MOL0     H48710   7.021   3.592   1.417  0.1531  0.2717  1.4730
  361MOL0     H48711   7.293   3.652   1.322  0.7732  3.6950 -3.3545
  361MOL0     H48712   7.150   3.573   1.242 -1.1646  0.6449  0.4457
  361MOL0     H48713   7.226   3.853   1.302 -0.0361  1.1249 -1.3169
  361MOL0     H48714   7.051   3.814   1.289 -0.2470  0.0097 -1.8263
  361MOL0     H48715   7.189   3.746   1.045  0.0794  1.7803 -1.8667
  361MOL0     H48716   7.135   3.907   1.062  1.2048 -0.3294 -0.5455
  361MOL0     H48717   7.558   3.100   1.853  1.0761 -2.7164  1.0165
  361MOL0     H48718   7.772   3.015   1.895 -1.6669  0.6511  0.3692
  361MOL0     H48719   8.222   2.968   1.627  0.6128 -0.9356 -1.4316
  361MOL0     H48720   8.463   2.901   1.650  0.2618 -0.7484 -0.2237
  361MOL0     H48721  10.310   1.887   1.711  2.8885  0.1188  0.1257
  361MOL0     H48722  10.496   1.807   1.847 -0.1529  1.9016  1.9039
  361MOL0     H48723  10.479   1.518   2.427  1.9342  1.2249  3.4888
  361MOL0     H48724  10.652   1.377   2.531 -0.2801 -3.0614 -0.9150
  361MOL0     H48725  10.855   1.319   2.646  0.5599 -1.2058  1.3068
  361MOL0     H48726  10.822   1.200   2.527  0.9703 -1.2037  1.7267
  361MOL0     H48727  11.070   1.174   2.501 -0.3972  0.7305 -1.2122
  361MOL0     H48728  10.990   1.129   2.654 -1.9271  0.4926 -1.1327
  361MOL0     H48729  11.044   1.342   2.756  0.3940  0.3405  0.4304
  361MOL0     H48730  11.127   1.386   2.599 -1.3088  0.0807 -0.6191
  361MOL0     H48731  11.208   1.181   2.805  0.8357 -1.6804 -1.8099
  361MOL0     H48732  11.278   1.338   2.778 -0.0097  0.5628  0.0170
  361MOL0     H48733  11.442   1.048   2.494  0.9313 -0.1875  0.3701
  361MOL0     H48734  10.922   1.484   2.216 -0.4300  0.9811  0.0867
  361MOL0     H48735  10.726   1.580   2.088 -1.5060  2.8288  1.1762
  362MOL0     O48736   5.222   1.476   3.693 -0.1622 -0.4141 -1.0988
  362MOL0     C48737   5.252   1.360   3.672 -0.7890  0.0978  0.7386
  362MOL0     O48738   5.173   1.264   3.625  0.4565 -0.3220  0.0605
  362MOL0     C48739   5.031   1.272   3.634 -0.0932 -0.6264 -0.0849
  362MOL0     C48740   4.952   1.376   3.678 -0.1869 -0.9529  0.3242
  362MOL0     C48741   4.812   1.354   3.686 -0.2751 -0.0500  0.8527
  362MOL0     C48742   4.750   1.234   3.641 -0.8933  0.7580  1.0477
  362MOL0     O48743   4.617   1.219   3.661  0.7650 -0.2743 -0.3456
  362MOL0     C48744   4.561   1.092   3.647  0.1653 -0.3257  0.1592
  362MOL0     C48745   4.413   1.108   3.658  0.8211  0.8268  0.3996
  362MOL0     C48746   4.343   1.137   3.520 -0.1002  0.8201 -0.7939
  362MOL0     C48747   4.186   1.148   3.537  0.2658  0.3767 -0.7208
  362MOL0     C48748   4.119   1.004   3.544  0.0199 -1.0027  0.4668
  362MOL0     C48749   3.965   1.019   3.545  0.5588  0.3965 -0.4743
  362MOL0     C48750   3.906   0.878   3.562  0.4353  0.4792  0.0840
  362MOL0     C48751   3.761   0.857   3.557  1.1304 -1.1707 -0.5216
  362MOL0     N48752   3.710   0.957   3.654  0.2123  0.5932  0.1387
  362MOL0     C48753   3.682   0.931   3.786 -0.0440  0.4452  0.4447
  362MOL0     C48754   3.616   1.038   3.830 -0.3545  0.6314 -0.1950
  362MOL0     C48755   3.563   1.068   3.969  0.0156  0.7534  0.0622
  362MOL0     C48756   3.426   1.135   3.967 -0.1953  0.6687  0.3978
  362MOL0     C48757   3.427   1.291   3.955  0.7951  0.1093 -0.2193
  362MOL0     C48758   3.285   1.341   3.989  0.6878  0.1605 -0.4731
  362MOL0     O48759   3.249   1.329   4.134  0.6142 -0.6326  0.1419
  362MOL0     C48760   3.115   1.365   4.151 -1.0099  0.1667 -1.2605
  362MOL0     C48761   3.107   1.477   4.236 -0.3315  0.1670 -0.2928
  362MOL0     C48762   2.987   1.534   4.262  0.8655 -0.0321 -0.0101
  362MOL0     C48763   2.984   1.653   4.358 -0.2477  0.1236  0.6105
  362MOL0     C48764   2.873   1.479   4.199  0.5024  0.6021 -1.1326
  362MOL0     C48765   2.733   1.534   4.233 -0.2088 -0.3710  0.7427
  362MOL0     O48766   2.661   1.493   4.340  0.5432 -0.2837 -0.6624
  362MOL0     C48767   2.535   1.544   4.331  0.2296 -0.1748  0.8926
  362MOL0     C48768   2.493   1.646   4.422 -1.0577 -0.9623  0.4744
  362MOL0     C48769   2.363   1.701   4.423 -1.2963  0.0263 -0.0216
  362MOL0     C48770   2.265   1.643   4.338 -0.2464 -0.2146 -0.1319
  362MOL0     O48771   2.135   1.693   4.324  0.8763 -0.1801 -0.3107
  362MOL0     C48772   2.064   1.717   4.449 -0.0705  0.2296  0.6632
  362MOL0     C48773   1.916   1.761   4.406  0.2164  0.3243 -0.6002
  362MOL0     C48774   1.838   1.647   4.347  0.2509 -0.3661  0.3658
  362MOL0     C48775   1.690   1.688   4.327 -0.7470 -0.1766  0.2100
  362MOL0     C48776   1.594   1.588   4.247  0.2018 -0.0761 -0.4333
  362MOL0     C48777   1.456   1.668   4.239  0.3654 -0.3531 -0.6417
  362MOL0     C48778   1.353   1.573   4.187  0.0615  1.0616  0.0381
  362MOL0     C48779   1.228   1.655   4.162 -0.0460  0.4907  0.3910
  362MOL0    Cl48780   1.112   1.562   4.082 -0.0399 -0.1446  0.2146
  362MOL0     C48781   2.310   1.542   4.248  0.3513  0.0183  0.3911
  362MOL0     C48782   2.440   1.491   4.242 -0.4024  0.1785 -0.3593
  362MOL0     O48783   2.703   1.629   4.156 -0.7695 -0.3764  0.4612
  362MOL0     C48784   2.886   1.372   4.112  0.4628  0.5002  0.2459
  362MOL0     C48785   3.002   1.318   4.090  0.5002  0.7999  0.7540
  362MOL0     N48786   3.612   1.132   3.723 -0.0846  1.0185 -0.0961
  362MOL0     N48787   3.668   1.082   3.622  0.4692 -0.2719  0.7070
  362MOL0     C48788   4.834   1.134   3.595  0.1308 -0.1343  0.2669
  362MOL0     C48789   4.975   1.156   3.594 -0.2045  0.2490 -0.1222
  362MOL0     C48790   5.380   1.312   3.699  0.0401  0.3214 -0.4408
  362MOL0     C48791   5.494   1.396   3.712  0.0170  0.7219  1.1504
  362MOL0     C48792   5.617   1.335   3.749  0.6195 -0.4211  0.3827
  362MOL0     C48793   5.633   1.208   3.789  0.2659  0.1025 -0.5301
  362MOL0     O48794   5.758   1.162   3.818 -0.2158  0.8670 -0.1999
  362MOL0     C48795   5.829   1.131   3.695 -0.0957  0.0408 -0.8386
  362MOL0     C48796   5.954   1.067   3.751  0.5600  0.4500 -0.5128
  362MOL0     C48797   6.052   1.020   3.634 -0.2222  0.1874 -0.9619
  362MOL0     C48798   6.179   0.956   3.687 -0.0844 -0.1894  0.1031
  362MOL0     C48799   6.283   1.058   3.702 -0.1684 -0.1656  0.4063
  362MOL0     C48800   6.375   1.132   3.719 -0.6468  0.5042  0.3031
  362MOL0     C48801   5.522   1.126   3.779  1.1047  0.2070  0.3250
  362MOL0     C48802   5.398   1.182   3.734 -0.5157  0.4843  0.0524
  362MOL0     H48803   4.998   1.464   3.722  0.2830 -0.8344 -0.3963
  362MOL0     H48804   4.733   1.413   3.731 -0.0325 -0.7348  2.2436
  362MOL0     H48805   4.580   1.053   3.546 -0.1338  0.7379 -0.3222
  362MOL0     H48806   4.596   1.016   3.718 -3.2273 -0.9777  1.3173
  362MOL0     H48807   4.375   1.014   3.699 -0.8667  1.0731 -0.4868
  362MOL0     H48808   4.385   1.187   3.728  0.1143  0.3342  0.6810
  362MOL0     H48809   4.384   1.228   3.475 -0.5909  1.6898  0.4710
  362MOL0     H48810   4.371   1.062   3.446  0.9856  0.7763 -0.3480
  362MOL0     H48811   4.163   1.200   3.630 -3.0221 -2.1685  0.0743
  362MOL0     H48812   4.137   1.204   3.457  1.2461  1.5862 -0.5077
  362MOL0     H48813   4.156   0.946   3.458  0.5393 -0.1446  0.0993
  362MOL0     H48814   4.162   0.957   3.633 -1.2307 -0.1191  1.5718
  362MOL0     H48815   3.943   1.084   3.630  1.8977 -3.0001  2.7433
  362MOL0     H48816   3.920   1.061   3.455 -2.6452 -1.8058 -0.0823
  362MOL0     H48817   3.944   0.815   3.480 -0.8848  0.4373 -0.5232
  362MOL0     H48818   3.931   0.839   3.661 -1.9881  0.7241  0.8502
  362MOL0     H48819   3.739   0.753   3.582 -2.9723 -0.5054 -0.6594
  362MOL0     H48820   3.727   0.887   3.457 -3.5061 -2.2544  0.4986
  362MOL0     H48821   3.706   0.834   3.827  2.3393 -0.5319 -2.8244
  362MOL0     H48822   3.534   0.978   4.024 -1.8480 -0.1337 -2.1970
  362MOL0     H48823   3.642   1.115   4.029  0.1895 -1.3807  1.6060
  362MOL0     H48824   3.381   1.117   4.065 -0.6331  0.9050  0.2431
  362MOL0     H48825   3.359   1.099   3.889 -0.8919  0.5007  1.0598
  362MOL0     H48826   3.449   1.318   3.851 -1.0460 -0.2460 -0.7486
  362MOL0     H48827   3.509   1.330   4.015  0.6444 -1.2652  0.9381
  362MOL0     H48828   3.214   1.276   3.937 -0.0473  1.0902 -0.6618
  362MOL0     H48829   3.273   1.445   3.956  0.0899  0.3017  0.1692
  362MOL0     H48830   3.194   1.508   4.292 -0.7429 -1.8295  1.6256
  362MOL0     H48831   3.081   1.702   4.357  1.2588 -2.6584  0.0100
  362MOL0     H48832   2.911   1.728   4.326 -0.0407 -0.0364 -0.2487
  362MOL0     H48833   2.971   1.630   4.465 -1.2224  0.2587  0.5341
  362MOL0     H48834   2.568   1.697   4.482 -1.7722 -0.1068  0.6692
  362MOL0     H48835   2.359   1.773   4.504 -0.4701  0.8516 -0.6995
  362MOL0     H48836   2.061   1.635   4.520  2.1879  1.5318  2.3773
  362MOL0     H48837   2.121   1.798   4.496  0.1394 -1.6526  3.9415
  362MOL0     H48838   1.866   1.796   4.497  0.1615  3.8109 -1.8559
  362MOL0     H48839   1.934   1.850   4.346  0.9531  0.7077  0.1728
  362MOL0     H48840   1.841   1.556   4.407 -1.2400  2.4396  5.2195
  362MOL0     H48841   1.880   1.623   4.249  0.5361 -1.5351  0.7575
  362MOL0     H48842   1.648   1.715   4.424 -1.1023 -3.8842  1.2547
  362MOL0     H48843   1.696   1.782   4.270 -1.3523  1.1307  2.2086
  362MOL0     H48844   1.583   1.494   4.303  1.3302 -0.2904 -0.5516
  362MOL0     H48845   1.636   1.571   4.148 -1.4694 -1.0194 -1.0202
  362MOL0     H48846   1.417   1.715   4.329 -2.1558  0.8615 -2.2615
  362MOL0     H48847   1.467   1.744   4.161 -0.0128 -0.9371 -1.2876
  362MOL0     H48848   1.344   1.480   4.243  0.3394  1.3983  0.6524
  362MOL0     H48849   1.382   1.537   4.087  1.6040 -3.6193  1.9090
  362MOL0     H48850   1.244   1.743   4.098 -1.9205  0.8068  0.3106
  362MOL0     H48851   1.177   1.689   4.252  0.1394  0.7947  0.3829
  362MOL0     H48852   2.243   1.518   4.166  2.7486 -1.5644 -1.2575
  362MOL0     H48853   2.468   1.420   4.165 -1.7984 -1.3961  0.5278
  362MOL0     H48854   2.796   1.329   4.070  0.8380  0.5267 -0.6297
  362MOL0     H48855   2.998   1.234   4.021 -1.3822  0.3075  1.3933
  362MOL0     H48856   4.800   1.043   3.546 -0.9322  0.6177 -0.4186
  362MOL0     H48857   5.045   1.085   3.553  3.4804  3.6288 -0.2794
  362MOL0     H48858   5.502   1.502   3.691  1.9061  0.7718  1.9350
  362MOL0     H48859   5.708   1.392   3.760 -0.5189  1.1707  2.1435
  362MOL0     H48860   5.773   1.061   3.632  0.6025  1.0186 -2.6478
  362MOL0     H48861   5.852   1.219   3.634  3.7665  0.3312  0.7307
  362MOL0     H48862   5.930   0.981   3.814  0.3215  1.7718  1.2549
  362MOL0     H48863   6.003   1.143   3.811 -1.5641  0.9732  0.6373
  362MOL0     H48864   6.066   1.100   3.561  0.6048 -0.5192 -1.6118
  362MOL0     H48865   6.012   0.943   3.567 -1.2026  2.9691 -3.8507
  362MOL0     H48866   6.220   0.886   3.614 -1.7638  0.8937 -1.9806
  362MOL0     H48867   6.154   0.909   3.783 -1.3232  1.7187  0.7861
  362MOL0     H48868   6.465   1.189   3.729  1.9573 -3.1419 -0.3976
  362MOL0     H48869   5.528   1.019   3.795  0.7112  0.2329  0.6549
  362MOL0     H48870   5.319   1.108   3.719 -1.0175  0.8571  0.8012
  363MOL0     O48871   1.192   9.855   3.576 -0.2244  0.0998  0.3870
  363MOL0     C48872   1.261   9.909   3.493  0.9459 -0.4286  0.3385
  363MOL0     O48873   1.210   9.970   3.376  0.1238 -0.4103 -0.5391
  363MOL0     C48874   1.080   9.957   3.335  0.9467 -0.3828  0.9757
  363MOL0     C48875   1.005   9.838   3.346  0.8524  0.1452 -0.1881
  363MOL0     C48876   0.875   9.838   3.300 -0.3970 -0.0807 -1.2698
  363MOL0     C48877   0.822   9.943   3.229  0.3164 -0.3358  0.7776
  363MOL0     O48878   0.695   9.922   3.191 -0.0213 -0.1171  0.2887
  363MOL0     C48879   0.618  10.029   3.138  0.4894  0.6376 -0.3144
  363MOL0     C48880   0.470  10.004   3.162  0.0818  0.5557  0.2303
  363MOL0     C48881   0.391  10.089   3.054  0.2173 -0.4807  0.7884
  363MOL0     C48882   0.240  10.115   3.067 -0.2283  0.6032  0.6518
  363MOL0     C48883   0.172  10.173   2.942  0.1797 -0.3410 -0.0623
  363MOL0     C48884   0.022  10.201   2.968  0.0362  0.4982  0.3813
  363MOL0     C48885  -0.043  10.231   2.832  0.7145  0.1167  0.1364
  363MOL0     C48886  -0.188  10.281   2.847 -0.1882 -0.0241  0.0327
  363MOL0     N48887  -0.201  10.413   2.904  0.2760  0.0401  0.3451
  363MOL0     C48888  -0.199  10.532   2.843  1.1569  0.0185 -0.1190
  363MOL0     C48889  -0.214  10.628   2.938 -0.4956 -0.7345  0.3517
  363MOL0     C48890  -0.203  10.778   2.921  0.1176  1.1189 -0.8898
  363MOL0     C48891  -0.336  10.833   2.869 -0.5545  0.3905 -0.9058
  363MOL0     C48892  -0.335  10.978   2.822  0.0630 -0.8272  0.7284
  363MOL0     C48893  -0.427  11.065   2.917  0.7295  0.7226  0.4150
  363MOL0     O48894  -0.505  11.136   2.819 -0.0854  0.4475  0.6675
  363MOL0     C48895  -0.630  11.185   2.844 -0.0425  0.4042 -0.9991
  363MOL0     C48896  -0.687  11.251   2.743  1.3654 -0.9267 -0.2292
  363MOL0     C48897  -0.814  11.304   2.747  0.0994 -0.7805 -0.3574
  363MOL0     C48898  -0.867  11.387   2.623 -0.2954  0.1587  0.3176
  363MOL0     C48899  -0.889  11.303   2.875 -0.3647 -0.0217  1.5982
  363MOL0     C48900  -1.012  11.376   2.892 -0.3779 -0.6630  0.3282
  363MOL0     O48901  -1.031  11.403   3.026  1.1315  0.5671  0.5678
  363MOL0     C48902  -1.152  11.453   3.081 -0.0935 -0.2243  0.1524
  363MOL0     C48903  -1.264  11.508   3.020 -0.3811 -0.6093 -0.2993
  363MOL0     C48904  -1.372  11.546   3.094  0.8093 -0.2210 -0.4909
  363MOL0     C48905  -1.378  11.532   3.233 -0.1765 -0.8001 -0.6282
  363MOL0     O48906  -1.488  11.584   3.301 -0.6778 -0.2989 -0.1486
  363MOL0     C48907  -1.501  11.540   3.437 -0.2577  0.3288 -0.2986
  363MOL0     C48908  -1.632  11.591   3.499  0.2286  0.1492  0.1339
  363MOL0     C48909  -1.751  11.529   3.433 -0.2772  0.3096 -0.4721
  363MOL0     C48910  -1.874  11.574   3.508 -0.1212 -0.5900 -0.6277
  363MOL0     C48911  -1.997  11.494   3.454  0.1226 -0.3759  0.1972
  363MOL0     C48912  -2.132  11.547   3.497  0.5626  0.8850  0.0823
  363MOL0     C48913  -2.246  11.461   3.451  0.3005  0.0575  0.0630
  363MOL0     C48914  -2.382  11.523   3.517 -0.3204  0.1366  0.2259
  363MOL0    Cl48915  -2.514  11.412   3.556  0.4039  0.2992 -0.3007
  363MOL0     C48916  -1.269  11.466   3.296  0.6187  0.6475 -0.5489
  363MOL0     C48917  -1.158  11.430   3.220 -0.1271 -0.9008  0.2927
  363MOL0     O48918  -1.085  11.412   2.797 -0.2930  0.0855  0.0797
  363MOL0     C48919  -0.835  11.232   2.977 -0.2986 -0.4785  0.2952
  363MOL0     C48920  -0.704  11.175   2.965  0.2778  0.8368 -0.6173
  363MOL0     N48921  -0.219  10.559   3.060  0.0812 -0.8804  0.4548
  363MOL0     N48922  -0.213  10.439   3.038 -0.4554  0.3893 -0.4982
  363MOL0     C48923   0.896  10.055   3.201 -0.6887 -0.7864 -0.0063
  363MOL0     C48924   1.023  10.063   3.256 -0.3017 -0.3798 -0.0721
  363MOL0     C48925   1.400   9.945   3.523 -0.5464  0.2437  1.1105
  363MOL0     C48926   1.467   9.881   3.632  0.2133  0.6862  0.4838
  363MOL0     C48927   1.595   9.912   3.671 -0.3137  0.1095  0.1902
  363MOL0     C48928   1.665  10.013   3.607  0.7128  0.5731  0.4160
  363MOL0     O48929   1.796  10.053   3.645 -0.0073 -0.0587  0.2053
  363MOL0     C48930   1.888   9.943   3.651 -0.3175  0.1313 -0.4076
  363MOL0     C48931   2.022   9.999   3.606 -0.4661 -0.0246 -1.0743
  363MOL0     C48932   2.023  10.022   3.451 -0.1978 -0.2043  0.7818
  363MOL0     C48933   2.137  10.114   3.419 -0.4091  0.2412  0.0626
  363MOL0     C48934   2.260  10.079   3.487  0.1497  0.3187  0.3974
  363MOL0     C48935   2.362  10.053   3.541 -0.5690  0.7891 -0.8571
  363MOL0     C48936   1.597  10.076   3.495 -0.0301 -0.8593 -0.3311
  363MOL0     C48937   1.468  10.042   3.459  0.6352 -0.3782  0.4783
  363MOL0     H48938   1.056   9.753   3.391  1.5755  0.7927  0.2438
  363MOL0     H48939   0.810   9.758   3.334  1.7986 -2.3047 -1.9872
  363MOL0     H48940   0.631  10.123   3.192 -1.3060  1.8088 -1.7558
  363MOL0     H48941   0.648  10.050   3.035  3.0420 -0.6900  0.0770
  363MOL0     H48942   0.463   9.897   3.141  1.2385  0.1381  1.8048
  363MOL0     H48943   0.440  10.032   3.263 -0.3257  1.9341 -0.2445
  363MOL0     H48944   0.444  10.184   3.039  2.6634 -1.2471  3.5498
  363MOL0     H48945   0.411  10.040   2.959 -0.1097 -0.8713  0.9170
  363MOL0     H48946   0.198  10.015   3.080  2.3608 -0.6627 -0.1006
  363MOL0     H48947   0.205  10.171   3.155  0.9585 -1.3708  2.4624
  363MOL0     H48948   0.227  10.256   2.896 -1.4715  0.0491 -1.4222
  363MOL0     H48949   0.179  10.099   2.862  1.8126 -0.5431  0.2335
  363MOL0     H48950  -0.028  10.113   3.010 -1.0277 -0.0291 -1.8147
  363MOL0     H48951   0.005  10.275   3.046  0.7326  0.1720  0.8520
  363MOL0     H48952   0.005  10.317   2.785 -0.7591 -0.2575 -2.1965
  363MOL0     H48953  -0.050  10.136   2.778 -5.0190 -1.9159  3.6202
  363MOL0     H48954  -0.222  10.215   2.927 -0.1042  3.1272  2.9065
  363MOL0     H48955  -0.243  10.286   2.752 -2.7643  0.5296  1.4477
  363MOL0     H48956  -0.193  10.552   2.736 -0.5279  0.9597 -0.0626
  363MOL0     H48957  -0.189  10.828   3.017 -0.3184 -0.6588  0.1529
  363MOL0     H48958  -0.116  10.805   2.859 -0.4443  3.3389 -0.8030
  363MOL0     H48959  -0.399  10.815   2.956 -0.6422 -0.4992 -1.1457
  363MOL0     H48960  -0.369  10.776   2.781 -1.5223  2.8243 -2.2145
  363MOL0     H48961  -0.374  10.977   2.720  1.5189 -0.8926  0.1538
  363MOL0     H48962  -0.240  11.031   2.817 -1.8890  3.3392  2.3771
  363MOL0     H48963  -0.371  11.132   2.982  0.8404  2.1951 -1.1479
  363MOL0     H48964  -0.496  11.002   2.975  0.2445  0.2053 -0.6966
  363MOL0     H48965  -0.629  11.242   2.651 -1.1847 -1.6532 -1.8713
  363MOL0     H48966  -0.859  11.494   2.643  0.0398  0.2281 -0.1596
  363MOL0     H48967  -0.820  11.368   2.526 -2.9028  0.9393 -1.1970
  363MOL0     H48968  -0.972  11.360   2.608 -0.1463 -3.3166  3.8026
  363MOL0     H48969  -1.264  11.524   2.912  1.3905  0.4420 -0.1820
  363MOL0     H48970  -1.464  11.585   3.050  0.5159  0.1296  0.4185
  363MOL0     H48971  -1.493  11.431   3.435  2.9124  0.3810  2.0895
  363MOL0     H48972  -1.422  11.567   3.508  0.7580 -0.1123 -1.2360
  363MOL0     H48973  -1.641  11.560   3.604  0.3848 -1.2326 -0.2494
  363MOL0     H48974  -1.618  11.700   3.494  1.0832  0.0867  0.7467
  363MOL0     H48975  -1.739  11.421   3.430 -1.2191 -0.0011  2.6950
  363MOL0     H48976  -1.766  11.570   3.333 -2.2222 -1.2512 -0.8904
  363MOL0     H48977  -1.847  11.568   3.614  2.3028  1.3471 -1.0450
  363MOL0     H48978  -1.891  11.679   3.485  0.5103 -0.2120  0.5175
  363MOL0     H48979  -1.990  11.390   3.488  0.1769 -0.8645 -1.2331
  363MOL0     H48980  -1.988  11.486   3.345  0.1831 -0.0750  0.1804
  363MOL0     H48981  -2.135  11.546   3.606  1.5487 -0.2342  0.1262
  363MOL0     H48982  -2.140  11.651   3.464 -1.2598  1.1905  1.3450
  363MOL0     H48983  -2.226  11.360   3.487  2.1666  0.2990 -0.2439
  363MOL0     H48984  -2.250  11.455   3.342 -0.9018  0.7140  0.0503
  363MOL0     H48985  -2.413  11.600   3.446  1.8871  2.5584  1.6820
  363MOL0     H48986  -2.363  11.585   3.605 -0.8320  0.7604 -0.0875
  363MOL0     H48987  -1.267  11.442   3.402 -2.2554  2.7886  0.1310
  363MOL0     H48988  -1.085  11.366   3.269 -0.9540 -1.0830  1.3265
  363MOL0     H48989  -0.890  11.226   3.070 -1.6520 -1.4358 -0.5367
  363MOL0     H48990  -0.669  11.111   3.044 -1.2957  3.0513  2.0521
  363MOL0     H48991   0.870  10.149   3.155  3.0726  0.2543 -0.3573
  363MOL0     H48992   1.089  10.148   3.238  1.1907 -1.2952  0.8396
  363MOL0     H48993   1.422   9.807   3.698  0.4816 -0.6483 -0.7669
  363MOL0     H48994   1.637   9.865   3.759 -1.7778 -2.1883 -0.2493
  363MOL0     H48995   1.903   9.903   3.752  0.8549 -4.2477 -2.0719
  363MOL0     H48996   1.862   9.858   3.587  4.0188 -2.3563  0.7337
  363MOL0     H48997   2.099   9.932   3.646 -1.0728 -1.4210 -2.1569
  363MOL0     H48998   2.036  10.095   3.657 -0.3226 -0.1342 -0.9057
  363MOL0     H48999   1.928  10.066   3.417  0.7240  1.1578 -0.1168
  363MOL0     H49000   2.032   9.926   3.400 -3.5533 -0.4830  0.4619
  363MOL0     H49001   2.110  10.219   3.434  1.0506  0.2083  4.3546
  363MOL0     H49002   2.154  10.098   3.312  0.1512  2.1785 -0.1749
  363MOL0     H49003   2.453  10.023   3.588 -2.0313 -1.5794  0.6300
  363MOL0     H49004   1.650  10.156   3.444 -1.1576  0.0797 -0.0812
  363MOL0     H49005   1.414  10.100   3.384  0.5454  1.1857  1.6831
  364MOL0     O49006   5.618   8.638   5.906  0.2350  0.5749  0.1068
  364MOL0     C49007   5.668   8.644   5.796  0.2501  0.2729 -0.2436
  364MOL0     O49008   5.619   8.713   5.690 -0.1928 -0.5740  0.6095
  364MOL0     C49009   5.496   8.763   5.703  0.2372 -0.3516  0.0775
  364MOL0     C49010   5.468   8.896   5.681 -0.2834 -0.1315  0.1129
  364MOL0     C49011   5.338   8.945   5.692  0.3952 -0.3957 -0.2983
  364MOL0     C49012   5.234   8.862   5.728  0.8577  0.8090  0.6524
  364MOL0     O49013   5.108   8.923   5.743  0.4437  0.6593  0.1287
  364MOL0     C49014   5.089   9.042   5.809 -0.1799 -0.0741  1.1347
  364MOL0     C49015   4.941   9.081   5.823 -0.1817  1.5313 -0.0047
  364MOL0     C49016   4.868   9.070   5.688 -0.8867  0.0158  0.2319
  364MOL0     C49017   4.793   8.934   5.679 -0.2469 -0.6754  0.6959
  364MOL0     C49018   4.788   8.882   5.536 -0.1420  0.2715 -0.1881
  364MOL0     C49019   4.669   8.785   5.509  0.4365  0.0686  0.8147
  364MOL0     C49020   4.542   8.855   5.470 -0.0265  0.1441 -0.2574
  364MOL0     C49021   4.539   8.910   5.325  0.1572  0.0330  0.2768
  364MOL0     N49022   4.414   8.970   5.288 -0.3437 -0.1645  0.3017
  364MOL0     C49023   4.321   8.908   5.215  1.1033 -0.1046 -0.4397
  364MOL0     C49024   4.205   8.986   5.230  0.3690  0.7036  0.0345
  364MOL0     C49025   4.069   8.963   5.166  0.2342  0.0932  0.3620
  364MOL0     C49026   3.988   8.854   5.247 -0.5690 -1.0807  0.5443
  364MOL0     C49027   3.869   8.792   5.174  0.4968  0.2926  0.8590
  364MOL0     C49028   3.814   8.679   5.260  0.1537 -0.0755 -0.4773
  364MOL0     O49029   3.792   8.704   5.399  0.1258 -0.0729 -0.3042
  364MOL0     C49030   3.716   8.609   5.470 -0.3472  0.6306  0.0655
  364MOL0     C49031   3.705   8.630   5.605 -0.0411 -0.4845 -0.4749
  364MOL0     C49032   3.636   8.547   5.695  0.0009 -0.5729 -0.7834
  364MOL0     C49033   3.626   8.587   5.838 -0.6406  0.1974 -0.0518
  364MOL0     C49034   3.577   8.436   5.639  1.0097  0.5558  0.0111
  364MOL0     C49035   3.486   8.340   5.709  0.7422 -0.2593 -0.0332
  364MOL0     O49036   3.454   8.228   5.643  0.1519  1.1093  0.2777
  364MOL0     C49037   3.388   8.122   5.714 -0.9736 -0.2487 -0.2434
  364MOL0     C49038   3.461   8.044   5.814  0.6058  0.1475 -0.3643
  364MOL0     C49039   3.390   7.943   5.887 -0.2434 -0.7325  0.0259
  364MOL0     C49040   3.257   7.917   5.851  0.1189  0.0286  0.1894
  364MOL0     O49041   3.189   7.821   5.914  0.4204  0.6008  0.9363
  364MOL0     C49042   3.072   7.874   5.992 -0.1410  0.8236 -0.6577
  364MOL0     C49043   2.951   7.790   5.949 -0.1394 -0.2748 -0.1987
  364MOL0     C49044   2.850   7.811   6.055 -0.0548 -0.0506  0.3231
  364MOL0     C49045   2.714   7.788   6.000  0.0017  0.6088  0.4883
  364MOL0     C49046   2.606   7.822   6.104  0.0867 -0.1013 -0.1813
  364MOL0     C49047   2.468   7.796   6.031 -0.4416 -0.9854  1.1115
  364MOL0     C49048   2.360   7.836   6.122  0.0377 -0.1960  0.3645
  364MOL0     C49049   2.236   7.810   6.039 -0.0373  0.5195  0.3645
  364MOL0    Cl49050   2.093   7.880   6.124 -0.0879 -0.0062 -0.0293
  364MOL0     C49051   3.202   7.985   5.746 -0.6422  0.5988  0.6271
  364MOL0     C49052   3.268   8.083   5.677 -0.1070  0.5366  0.7920
  364MOL0     O49053   3.454   8.366   5.823  0.4150 -0.3606  0.6737
  364MOL0     C49054   3.595   8.405   5.502 -0.2420 -0.7628 -0.5919
  364MOL0     C49055   3.678   8.479   5.424 -0.3945  0.7712  0.2409
  364MOL0     N49056   4.241   9.095   5.298 -0.0645  0.2842 -0.6777
  364MOL0     N49057   4.367   9.097   5.326  0.5105 -0.8055  0.2910
  364MOL0     C49058   5.261   8.718   5.739  0.3394 -0.4527  0.3531
  364MOL0     C49059   5.393   8.673   5.727  0.2838 -0.7030  0.3717
  364MOL0     C49060   5.806   8.593   5.780 -0.8277 -0.1759 -1.1610
  364MOL0     C49061   5.862   8.486   5.858  0.0827  0.3844  0.1337
  364MOL0     C49062   5.996   8.439   5.840  0.4111 -0.2512 -0.5845
  364MOL0     C49063   6.084   8.493   5.743  0.1377 -0.6767  0.1241
  364MOL0     O49064   6.211   8.461   5.713 -0.4437  0.5888  0.0942
  364MOL0     C49065   6.266   8.338   5.774  0.5054 -0.0193  0.2562
  364MOL0     C49066   6.322   8.347   5.918  0.4990  0.7951 -0.2087
  364MOL0     C49067   6.383   8.478   5.946 -1.1814  0.5606  0.6445
  364MOL0     C49068   6.509   8.507   5.850 -0.1089 -0.6981 -0.3980
  364MOL0     C49069   6.582   8.625   5.897 -0.4023 -0.0506 -0.0022
  364MOL0     C49070   6.637   8.722   5.932 -0.3939 -0.3276 -0.2220
  364MOL0     C49071   6.033   8.603   5.667  0.3347 -0.7579  1.2298
  364MOL0     C49072   5.902   8.655   5.698  0.1516 -1.0297  0.4946
  364MOL0     H49073   5.555   8.954   5.654  0.2557 -0.9539  0.0413
  364MOL0     H49074   5.331   9.050   5.665  0.3579 -0.4924 -0.6738
  364MOL0     H49075   5.137   9.028   5.906 -1.0480 -2.8892  1.2369
  364MOL0     H49076   5.141   9.120   5.752  1.6537 -1.4385  0.8653
  364MOL0     H49077   4.900   9.012   5.897  0.3724  0.3744 -0.7400
  364MOL0     H49078   4.930   9.184   5.858 -0.1292  0.8417  2.1644
  364MOL0     H49079   4.800   9.156   5.688  0.5204  1.1543  0.0269
  364MOL0     H49080   4.939   9.089   5.607  1.1314 -0.7910  1.7346
  364MOL0     H49081   4.834   8.863   5.751 -0.5445  1.0266  2.6698
  364MOL0     H49082   4.689   8.960   5.704 -0.0380  0.3176  0.5791
  364MOL0     H49083   4.795   8.963   5.462 -2.8031  0.5393 -0.2538
  364MOL0     H49084   4.885   8.832   5.534  0.1694  0.8559 -0.0741
  364MOL0     H49085   4.686   8.715   5.427 -0.4111  2.1117 -1.2109
  364MOL0     H49086   4.641   8.745   5.607  0.5446  0.4701  1.0125
  364MOL0     H49087   4.448   8.801   5.479 -1.7730  2.9248 -0.7477
  364MOL0     H49088   4.525   8.943   5.534 -0.7442  1.4074 -2.1182
  364MOL0     H49089   4.575   8.832   5.257  0.5458 -0.1599  0.7046
  364MOL0     H49090   4.616   8.987   5.317  0.3458 -0.2479 -0.8571
  364MOL0     H49091   4.331   8.809   5.172  0.2733 -0.4025  0.0318
  364MOL0     H49092   4.014   9.058   5.169  1.5233  0.8481  0.6790
  364MOL0     H49093   4.095   8.938   5.063 -0.3095  1.7050 -0.1946
  364MOL0     H49094   3.940   8.895   5.336 -2.1981 -0.0165 -0.7586
  364MOL0     H49095   4.057   8.780   5.288  2.0770 -0.0971 -1.8015
  364MOL0     H49096   3.900   8.749   5.078  0.1444 -2.6108  1.9687
  364MOL0     H49097   3.789   8.865   5.161  1.4117  1.2959  0.6643
  364MOL0     H49098   3.877   8.589   5.256  1.0500  0.4958  0.3586
  364MOL0     H49099   3.721   8.639   5.218 -0.7199 -1.4731  2.4979
  364MOL0     H49100   3.754   8.722   5.636  1.1879 -0.6213 -1.9177
  364MOL0     H49101   3.713   8.650   5.859 -1.6199  1.2006  1.1480
  364MOL0     H49102   3.534   8.639   5.864  0.8033  2.4820  0.8338
  364MOL0     H49103   3.635   8.498   5.901  0.3602 -1.5724 -2.5260
  364MOL0     H49104   3.568   8.049   5.832  1.2692 -0.5132 -3.5845
  364MOL0     H49105   3.447   7.875   5.949  1.2367 -0.7311 -1.2768
  364MOL0     H49106   3.100   7.860   6.096 -0.0997  2.6561 -0.4073
  364MOL0     H49107   3.046   7.979   5.977 -1.2986  0.2329 -3.4989
  364MOL0     H49108   2.916   7.819   5.849 -0.9395 -0.6682 -0.0421
  364MOL0     H49109   2.977   7.684   5.952  0.8387 -0.1504 -2.4404
  364MOL0     H49110   2.859   7.914   6.091  1.1327  0.2185 -0.6664
  364MOL0     H49111   2.873   7.744   6.138  1.0020 -1.2277 -0.8602
  364MOL0     H49112   2.694   7.857   5.917 -0.9363 -0.1682  0.0517
  364MOL0     H49113   2.699   7.683   5.974  0.6103  1.3308 -3.4111
  364MOL0     H49114   2.617   7.928   6.128 -0.0855 -0.6753  2.9524
  364MOL0     H49115   2.621   7.754   6.189 -1.5353 -2.4934 -1.7094
  364MOL0     H49116   2.467   7.870   5.951 -1.5028 -1.2244  0.8850
  364MOL0     H49117   2.459   7.695   5.992 -2.1063 -0.4310 -0.0928
  364MOL0     H49118   2.366   7.939   6.157 -0.3781 -0.6975  1.9919
  364MOL0     H49119   2.345   7.771   6.208 -0.7390  0.2756  0.5930
  364MOL0     H49120   2.227   7.701   6.037  1.0015  0.3375  2.7642
  364MOL0     H49121   2.249   7.853   5.939  1.7765  0.5103  0.5765
  364MOL0     H49122   3.104   7.966   5.703 -0.2370  2.2493 -1.1735
  364MOL0     H49123   3.224   8.148   5.602  0.0735 -1.2685 -0.9724
  364MOL0     H49124   3.542   8.320   5.459 -2.9402  1.0173 -1.0803
  364MOL0     H49125   3.691   8.444   5.322  1.3998 -0.4929  0.8641
  364MOL0     H49126   5.177   8.654   5.762 -3.9314  3.8055 -1.7913
  364MOL0     H49127   5.416   8.568   5.737 -1.4098 -1.0397  1.1019
  364MOL0     H49128   5.788   8.430   5.915 -0.7958  0.8931 -0.4799
  364MOL0     H49129   6.030   8.362   5.908  0.8414  0.5074  0.0804
  364MOL0     H49130   6.199   8.253   5.784  1.4618 -0.5560  3.0558
  364MOL0     H49131   6.350   8.308   5.711  2.3604  3.0993  0.9865
  364MOL0     H49132   6.391   8.263   5.933 -3.6518 -2.6957  1.6653
  364MOL0     H49133   6.241   8.336   5.990 -1.9164  1.9715 -2.5765
  364MOL0     H49134   6.428   8.478   6.045  1.6183 -1.9889 -0.4690
  364MOL0     H49135   6.307   8.557   5.941  0.2434  1.9850  0.4032
  364MOL0     H49136   6.481   8.531   5.747 -2.9117  1.7127  0.7633
  364MOL0     H49137   6.578   8.423   5.847 -0.5577 -1.1370  1.0348
  364MOL0     H49138   6.698   8.796   5.981 -0.1260 -0.7988  0.1662
  364MOL0     H49139   6.102   8.639   5.591  0.4687 -0.5204  1.4605
  364MOL0     H49140   5.878   8.744   5.640  2.8369 -0.0818  0.7126
  365MOL0     O49141   6.846   2.073   1.703  0.0388 -0.3272  0.5398
  365MOL0     C49142   6.862   2.078   1.579 -0.1405  0.8193  0.1854
  365MOL0     O49143   6.765   2.059   1.480 -0.0679  0.1444 -0.2981
  365MOL0     C49144   6.637   2.051   1.527  0.2178  0.3178 -0.2905
  365MOL0     C49145   6.582   2.174   1.589 -0.6886 -0.0316 -0.0371
  365MOL0     C49146   6.445   2.171   1.636 -1.6775 -0.2065 -0.0526
  365MOL0     C49147   6.365   2.055   1.619  0.3644 -0.3443  0.3900
  365MOL0     O49148   6.242   2.049   1.676 -0.0852 -0.2114 -0.0462
  365MOL0     C49149   6.168   2.174   1.694  0.2927  0.0699  0.4159
  365MOL0     C49150   6.020   2.154   1.699  0.4529 -0.3478 -0.0330
  365MOL0     C49151   5.972   2.091   1.578  0.3390 -0.2670  0.6085
  365MOL0     C49152   5.829   2.047   1.599  0.2601  0.2907 -0.7931
  365MOL0     C49153   5.763   2.000   1.466 -0.0389  0.4118  0.2661
  365MOL0     C49154   5.829   1.861   1.425  0.3426  0.4668  0.5999
  365MOL0     C49155   5.777   1.795   1.292  0.7516  0.2968  0.6955
  365MOL0     C49156   5.681   1.679   1.315  0.2934 -0.5395 -0.3731
  365MOL0     N49157   5.548   1.718   1.376 -0.1280  0.1383  0.2738
  365MOL0     C49158   5.432   1.711   1.314  0.7701 -0.7356  0.8856
  365MOL0     C49159   5.339   1.748   1.408  0.3315  0.5226  0.2904
  365MOL0     C49160   5.182   1.758   1.395 -0.5142  0.3016 -0.5051
  365MOL0     C49161   5.153   1.840   1.278  0.2702 -0.3813  0.0377
  365MOL0     C49162   4.997   1.845   1.242  0.8152  0.1232 -0.1432
  365MOL0     C49163   4.932   1.966   1.304  0.9610 -0.1748 -0.0266
  365MOL0     O49164   4.940   1.983   1.446 -0.1909 -0.3600  0.3713
  365MOL0     C49165   4.869   1.903   1.539  0.2845 -1.2366  0.6491
  365MOL0     C49166   4.915   1.887   1.661  0.7835  0.4104 -0.8358
  365MOL0     C49167   4.849   1.818   1.759 -0.2005  0.2307 -0.5058
  365MOL0     C49168   4.920   1.820   1.899 -0.6541  0.1354  0.5256
  365MOL0     C49169   4.720   1.765   1.738  0.8065 -0.6339  0.2628
  365MOL0     C49170   4.643   1.699   1.835 -0.4299  0.7292  0.8237
  365MOL0     O49171   4.519   1.639   1.788 -0.4196  0.2179 -0.1951
  365MOL0     C49172   4.452   1.553   1.869 -0.1733  0.5203 -0.7932
  365MOL0     C49173   4.389   1.595   1.983 -0.5922  0.9910 -0.3357
  365MOL0     C49174   4.309   1.503   2.061  0.4259  0.3472 -0.5897
  365MOL0     C49175   4.316   1.358   2.025 -0.0379 -0.1815 -0.3858
  365MOL0     O49176   4.253   1.277   2.106 -0.0084  1.1118 -0.0206
  365MOL0     C49177   4.237   1.136   2.055  0.0841 -0.4017  0.0725
  365MOL0     C49178   4.156   1.057   2.161  0.7727  0.1630  0.1233
  365MOL0     C49179   4.130   0.910   2.101 -0.9738 -0.2032 -0.1617
  365MOL0     C49180   4.023   0.841   2.178 -0.5209  0.1393 -0.0748
  365MOL0     C49181   3.886   0.842   2.107  0.3281 -2.2298 -0.3814
  365MOL0     C49182   3.783   0.785   2.189  0.3764 -0.0306 -1.6380
  365MOL0     C49183   3.659   0.760   2.104 -0.3194 -0.0137 -0.1028
  365MOL0     C49184   3.545   0.706   2.196  0.6288 -0.3259 -0.1854
  365MOL0    Cl49185   3.409   0.674   2.083 -0.4624 -0.0525  0.3598
  365MOL0     C49186   4.379   1.323   1.906 -0.3104  0.1749 -0.9473
  365MOL0     C49187   4.446   1.419   1.824 -0.3962 -0.3813 -0.2430
  365MOL0     O49188   4.675   1.714   1.950  0.0347 -0.1985  0.0448
  365MOL0     C49189   4.662   1.793   1.614  0.5081 -1.0416  0.8481
  365MOL0     C49190   4.735   1.869   1.517 -0.1535  1.6065  0.3940
  365MOL0     N49191   5.401   1.774   1.534  0.7772  0.7870  0.9729
  365MOL0     N49192   5.530   1.767   1.504  1.3880  0.8284  0.6368
  365MOL0     C49193   6.423   1.943   1.554 -0.5084  0.2053 -0.0311
  365MOL0     C49194   6.561   1.943   1.506  1.4799 -0.5211 -0.2004
  365MOL0     C49195   6.997   2.078   1.529  0.5957 -0.0121  0.4876
  365MOL0     C49196   7.098   2.082   1.622 -0.5718  0.5272  0.1044
  365MOL0     C49197   7.235   2.076   1.581 -0.4321  0.1703  0.3123
  365MOL0     C49198   7.264   2.049   1.445 -0.5804 -0.1575 -0.2974
  365MOL0     O49199   7.398   2.041   1.396 -0.3161  0.1132  0.0996
  365MOL0     C49200   7.512   2.061   1.483  0.6073 -0.5730  1.2105
  365MOL0     C49201   7.651   2.044   1.414 -1.1842  0.6807  0.4510
  365MOL0     C49202   7.672   1.897   1.360 -0.1419 -0.1506  0.5949
  365MOL0     C49203   7.624   1.881   1.211  0.2690 -0.2698 -0.4023
  365MOL0     C49204   7.674   1.975   1.110 -0.6828 -0.1767  0.0898
  365MOL0     C49205   7.709   2.053   1.023  0.3450 -0.8655 -0.0553
  365MOL0     C49206   7.158   2.045   1.351 -0.4816  0.4120  0.6918
  365MOL0     C49207   7.024   2.070   1.391  0.1916  0.7376  0.3563
  365MOL0     H49208   6.647   2.260   1.604 -1.1918  0.6656 -1.6400
  365MOL0     H49209   6.405   2.255   1.693  1.5010  1.7781 -0.4962
  365MOL0     H49210   6.202   2.231   1.782 -2.4657 -0.6303  2.0541
  365MOL0     H49211   6.182   2.244   1.610  1.0487  1.3273  1.5377
  365MOL0     H49212   5.991   2.092   1.784  0.4729 -1.2275 -0.6516
  365MOL0     H49213   5.972   2.251   1.711 -0.7874 -0.9831  0.2555
  365MOL0     H49214   5.961   2.158   1.492 -1.8564  0.0123  1.0608
  365MOL0     H49215   6.043   2.012   1.551  2.5536  1.5571  0.7636
  365MOL0     H49216   5.828   1.963   1.669  0.0643 -1.2786 -2.5762
  365MOL0     H49217   5.764   2.129   1.631  1.4857  1.7403 -1.8597
  365MOL0     H49218   5.655   2.000   1.481  0.0480 -4.0080  2.4142
  365MOL0     H49219   5.786   2.075   1.390 -0.9723 -1.2569 -1.7721
  365MOL0     H49220   5.931   1.895   1.402  0.1814  0.9808  0.6538
  365MOL0     H49221   5.829   1.780   1.499 -0.5929 -0.7703 -0.6898
  365MOL0     H49222   5.725   1.867   1.228 -2.2646 -2.4159 -0.1322
  365MOL0     H49223   5.862   1.765   1.230 -0.3415 -2.2373  0.3046
  365MOL0     H49224   5.734   1.601   1.371  1.6649 -0.5660 -1.6423
  365MOL0     H49225   5.659   1.639   1.216 -0.2132 -1.2446  0.0202
  365MOL0     H49226   5.410   1.670   1.215 -0.5864 -2.4935  1.8549
  365MOL0     H49227   5.142   1.657   1.380 -1.0344  0.6796 -1.8638
  365MOL0     H49228   5.126   1.791   1.483 -2.5941  2.1087 -2.3565
  365MOL0     H49229   5.211   1.806   1.191  3.4145  3.2175  0.4690
  365MOL0     H49230   5.192   1.941   1.292 -1.6186  0.0220  3.5536
  365MOL0     H49231   4.944   1.757   1.281  0.1010 -0.2141 -1.7929
  365MOL0     H49232   4.990   1.861   1.134 -0.3551  0.3353 -0.0548
  365MOL0     H49233   4.827   1.972   1.273  0.6703  3.2641  1.2396
  365MOL0     H49234   4.973   2.057   1.260 -0.6974  0.0517 -1.2089
  365MOL0     H49235   5.008   1.934   1.691  2.7355 -3.5694 -0.0120
  365MOL0     H49236   5.024   1.855   1.902 -0.2094 -1.0726 -0.0057
  365MOL0     H49237   4.854   1.882   1.960 -0.8481 -0.2764  0.7436
  365MOL0     H49238   4.924   1.723   1.949 -1.5075 -0.1328  0.0915
  365MOL0     H49239   4.392   1.697   2.020  0.0771  0.9386 -0.2417
  365MOL0     H49240   4.259   1.544   2.147 -0.9573  0.5210 -1.4435
  365MOL0     H49241   4.173   1.145   1.967 -0.0819 -0.6537  0.1653
  365MOL0     H49242   4.325   1.073   2.039  0.4433 -0.6898  2.6994
  365MOL0     H49243   4.205   1.043   2.258 -0.9532 -2.2968  0.7242
  365MOL0     H49244   4.059   1.106   2.175  0.7269  0.4226 -0.9839
  365MOL0     H49245   4.225   0.856   2.101  0.0113  1.4280  1.4673
  365MOL0     H49246   4.095   0.909   1.997  0.9493 -1.0892 -0.8459
  365MOL0     H49247   4.058   0.742   2.207  2.4069  1.5961  1.9463
  365MOL0     H49248   4.011   0.893   2.274  1.8792 -3.0443  2.1488
  365MOL0     H49249   3.915   0.787   2.017  1.9014 -2.7979  0.4477
  365MOL0     H49250   3.863   0.943   2.070  1.2590 -2.5634 -1.9415
  365MOL0     H49251   3.818   0.697   2.243  0.1884  0.0352 -1.4072
  365MOL0     H49252   3.741   0.855   2.261  0.7674  0.6084 -2.0224
  365MOL0     H49253   3.693   0.696   2.022 -0.8579 -0.4224 -0.0072
  365MOL0     H49254   3.627   0.857   2.064  1.2283 -0.1570 -1.8118
  365MOL0     H49255   3.521   0.785   2.268  3.2547  1.5377 -1.1700
  365MOL0     H49256   3.582   0.613   2.240 -2.7260 -1.4841  0.4283
  365MOL0     H49257   4.390   1.217   1.890 -3.2607 -0.8852  2.6143
  365MOL0     H49258   4.497   1.391   1.733  0.8811 -1.6875  0.8346
  365MOL0     H49259   4.560   1.769   1.587  0.8286  0.1464 -1.7988
  365MOL0     H49260   4.698   1.894   1.418  4.9547  1.4598 -1.8467
  365MOL0     H49261   6.363   1.863   1.512  1.0452 -1.2324  0.3406
  365MOL0     H49262   6.597   1.858   1.450 -1.4334 -4.7318  3.5976
  365MOL0     H49263   7.080   2.086   1.729  1.3914  2.1885  0.4141
  365MOL0     H49264   7.311   2.079   1.659 -1.8726  1.7349  1.7535
  365MOL0     H49265   7.506   2.157   1.536  0.0753  0.0554  0.0588
  365MOL0     H49266   7.500   1.980   1.556 -0.7617 -1.7240 -0.2269
  365MOL0     H49267   7.728   2.056   1.490 -1.9710 -0.4240  1.4771
  365MOL0     H49268   7.669   2.111   1.329  2.7265  0.4880  0.9631
  365MOL0     H49269   7.608   1.831   1.419  0.8275  0.7150  2.7174
  365MOL0     H49270   7.776   1.866   1.367 -0.9453 -3.1631  0.3743
  365MOL0     H49271   7.515   1.881   1.202 -0.0994 -1.7542  2.4995
  365MOL0     H49272   7.653   1.782   1.176  0.9453  1.3665 -5.0975
  365MOL0     H49273   7.768   2.108   0.952  2.3671  1.0618  2.8744
  365MOL0     H49274   7.177   2.042   1.244 -1.2903  0.6639  0.5388
  365MOL0     H49275   6.946   2.078   1.316 -0.2662  1.2352  0.8722
  366MOL0     O49276   4.414   4.365   2.032  0.9569 -0.0105 -0.9197
  366MOL0     C49277   4.454   4.337   1.918  0.7031  0.2908  0.6308
  366MOL0     O49278   4.377   4.268   1.822  0.9746  0.1402 -0.0591
  366MOL0     C49279   4.280   4.173   1.856  0.0389 -0.8272  0.4780
  366MOL0     C49280   4.225   4.145   1.985 -0.7701  0.0980 -1.0223
  366MOL0     C49281   4.126   4.059   2.015 -0.8054 -0.4633 -0.1823
  366MOL0     C49282   4.056   4.008   1.908  0.5940  0.4475  0.0152
  366MOL0     O49283   3.941   3.940   1.948 -0.0214 -0.0856  0.7742
  366MOL0     C49284   3.861   3.871   1.844  0.1119 -0.9357  0.2439
  366MOL0     C49285   3.747   3.802   1.908  0.1891  0.0141  1.3108
  366MOL0     C49286   3.641   3.901   1.970 -0.7827  0.0277  0.0743
  366MOL0     C49287   3.537   3.809   2.026 -0.4519 -0.1696  0.5668
  366MOL0     C49288   3.443   3.751   1.920  1.0415 -0.1357  0.4143
  366MOL0     C49289   3.312   3.701   1.982 -0.3479 -0.3333  0.1784
  366MOL0     C49290   3.232   3.608   1.886 -0.2304 -0.3249 -0.5974
  366MOL0     C49291   3.137   3.692   1.796  0.7000 -0.2400 -0.6760
  366MOL0     N49292   3.031   3.744   1.879 -0.3065  0.1958 -0.0935
  366MOL0     C49293   3.035   3.867   1.929 -0.9133  0.2342 -1.1209
  366MOL0     C49294   2.950   3.881   2.030 -0.1595 -1.1101 -0.0580
  366MOL0     C49295   2.921   4.008   2.104  0.2123 -1.2530  0.1508
  366MOL0     C49296   2.865   4.111   2.011 -0.0357  0.1719 -0.3244
  366MOL0     C49297   2.753   4.052   1.928  0.0327  0.1868  0.0450
  366MOL0     C49298   2.618   4.022   1.996 -0.0707 -0.4847 -0.1641
  366MOL0     O49299   2.520   4.026   1.902 -0.3666  0.0991  0.0233
  366MOL0     C49300   2.478   3.912   1.832 -1.0704 -0.9197  0.3628
  366MOL0     C49301   2.549   3.795   1.826  0.0612  0.3149 -0.2096
  366MOL0     C49302   2.499   3.686   1.757  0.5132 -0.9283 -0.6279
  366MOL0     C49303   2.584   3.559   1.768 -1.1775  0.0050  0.2907
  366MOL0     C49304   2.383   3.695   1.676  0.1592 -0.4273  0.3076
  366MOL0     C49305   2.311   3.585   1.594  0.6187  0.2325 -0.2131
  366MOL0     O49306   2.185   3.608   1.541  0.2973  0.2128 -0.3191
  366MOL0     C49307   2.106   3.504   1.510  0.3886 -0.0840 -0.5158
  366MOL0     C49308   2.011   3.519   1.407 -0.3100 -0.5671  0.6183
  366MOL0     C49309   1.920   3.423   1.373 -0.5439 -0.4787  0.4506
  366MOL0     C49310   1.909   3.303   1.448  1.2238  0.1174 -0.9920
  366MOL0     O49311   1.811   3.214   1.436  0.0519  0.4865  0.0222
  366MOL0     C49312   1.725   3.227   1.326  0.3831 -0.1496 -0.2156
  366MOL0     C49313   1.617   3.124   1.342  0.5340  0.3940  0.4324
  366MOL0     C49314   1.526   3.159   1.458  0.6593  0.0126 -0.4184
  366MOL0     C49315   1.427   3.049   1.493  0.8560  0.9307 -0.1709
  366MOL0     C49316   1.348   3.100   1.607 -0.8944 -0.1412  0.4680
  366MOL0     C49317   1.245   3.204   1.581  0.6015  0.5905 -0.7852
  366MOL0     C49318   1.120   3.160   1.496 -1.0379  0.2665  0.2460
  366MOL0     C49319   1.025   3.274   1.490  0.3010  0.5119  0.1008
  366MOL0    Cl49320   0.919   3.296   1.635  0.0907  0.1037 -0.0932
  366MOL0     C49321   2.007   3.278   1.539 -0.1777 -0.5976  0.4421
  366MOL0     C49322   2.108   3.373   1.569 -0.1348  0.1371 -0.1137
  366MOL0     O49323   2.366   3.478   1.590  0.6086  0.3924  0.7238
  366MOL0     C49324   2.313   3.814   1.680  0.5372  0.3567  0.0782
  366MOL0     C49325   2.357   3.917   1.763  0.2485 -0.3976 -0.0000
  366MOL0     N49326   2.878   3.764   2.033 -0.7594  0.2210  0.3597
  366MOL0     N49327   2.925   3.679   1.939 -0.1019  0.0565  0.2169
  366MOL0     C49328   4.112   4.020   1.776 -0.3063 -0.1362 -0.6655
  366MOL0     C49329   4.221   4.101   1.750 -0.3698 -0.0985 -0.6636
  366MOL0     C49330   4.588   4.373   1.878  0.1895  0.4488  1.0200
  366MOL0     C49331   4.646   4.298   1.776 -0.4513 -0.5524  0.4502
  366MOL0     C49332   4.786   4.318   1.756 -0.0824  0.0151  0.6585
  366MOL0     C49333   4.859   4.418   1.815  0.1287 -0.3597 -0.2092
  366MOL0     O49334   4.995   4.436   1.785 -0.2087  0.1085 -0.6557
  366MOL0     C49335   5.053   4.566   1.786 -1.6925 -0.3963  0.2166
  366MOL0     C49336   5.192   4.551   1.854 -0.4395  0.8544  0.3620
  366MOL0     C49337   5.181   4.533   2.000 -0.4168  0.0141 -0.6569
  366MOL0     C49338   5.305   4.559   2.088 -0.3155  0.4409  0.5655
  366MOL0     C49339   5.408   4.467   2.040  0.4664 -0.2410 -0.4407
  366MOL0     C49340   5.491   4.390   2.005 -0.6435  0.4638  0.1273
  366MOL0     C49341   4.801   4.489   1.918 -0.0952 -0.4149  0.1825
  366MOL0     C49342   4.667   4.467   1.948  0.8513 -0.6299  0.8031
  366MOL0     H49343   4.265   4.190   2.075 -2.3717  0.0457 -0.2468
  366MOL0     H49344   4.087   4.025   2.110  1.3438 -2.2463  0.1304
  366MOL0     H49345   3.826   3.937   1.764  3.3163  1.1516  0.3484
  366MOL0     H49346   3.933   3.805   1.795  4.7068  3.3491  0.3635
  366MOL0     H49347   3.699   3.737   1.834 -2.7156  1.2681  1.9658
  366MOL0     H49348   3.784   3.737   1.987  0.3889  0.7006  1.7968
  366MOL0     H49349   3.696   3.956   2.047 -1.6402  1.0502 -0.0336
  366MOL0     H49350   3.600   3.976   1.902 -0.5223  3.2294  3.1788
  366MOL0     H49351   3.591   3.735   2.086  1.8094  1.1756  0.3285
  366MOL0     H49352   3.485   3.864   2.105 -0.4047  1.1596 -0.2845
  366MOL0     H49353   3.408   3.832   1.855 -2.1837 -0.7298  1.2556
  366MOL0     H49354   3.484   3.666   1.865 -2.5130 -3.4039  2.4136
  366MOL0     H49355   3.348   3.638   2.064 -0.9556  0.7153  1.2781
  366MOL0     H49356   3.251   3.776   2.033  1.1451  0.4038  0.9473
  366MOL0     H49357   3.308   3.562   1.823 -0.3661  1.0035 -1.7690
  366MOL0     H49358   3.171   3.532   1.935 -0.5484 -0.7399 -1.6108
  366MOL0     H49359   3.101   3.630   1.712  0.9945 -0.9223 -0.3052
  366MOL0     H49360   3.188   3.775   1.747  2.6284 -1.8634 -1.5884
  366MOL0     H49361   3.114   3.937   1.900 -0.9636  0.3662 -0.9410
  366MOL0     H49362   2.839   4.006   2.177  0.2446  2.9871  0.5551
  366MOL0     H49363   3.011   4.024   2.164 -0.7512 -0.6654  1.4953
  366MOL0     H49364   2.947   4.139   1.944  2.3445 -0.1048  2.2733
  366MOL0     H49365   2.834   4.205   2.057  1.9624  0.0772  1.3661
  366MOL0     H49366   2.778   3.956   1.880  3.8062  0.3233  1.4086
  366MOL0     H49367   2.737   4.124   1.847  0.7297  2.7390  2.0403
  366MOL0     H49368   2.599   4.106   2.064 -1.4136 -0.6902 -0.2660
  366MOL0     H49369   2.616   3.926   2.048 -2.6677 -0.6225 -0.4172
  366MOL0     H49370   2.650   3.797   1.863  0.4252 -0.0249 -1.1623
  366MOL0     H49371   2.636   3.545   1.672  0.0443 -3.6882  1.3298
  366MOL0     H49372   2.650   3.563   1.855 -4.1632  1.9436  2.6524
  366MOL0     H49373   2.517   3.475   1.787  0.5689 -1.4508  0.3187
  366MOL0     H49374   2.029   3.613   1.355 -0.9351 -0.9729 -0.3523
  366MOL0     H49375   1.852   3.440   1.290 -1.2808  0.3402  1.2014
  366MOL0     H49376   1.676   3.323   1.311  0.3651 -0.5314 -3.4251
  366MOL0     H49377   1.770   3.193   1.232 -1.0295 -0.9467 -0.6289
  366MOL0     H49378   1.557   3.125   1.251 -0.6345  0.4690  1.1894
  366MOL0     H49379   1.654   3.023   1.359  2.7947  0.7555 -1.6908
  366MOL0     H49380   1.477   3.253   1.431 -1.7697 -0.9812  0.3133
  366MOL0     H49381   1.579   3.182   1.551  0.3717  0.4221 -0.3530
  366MOL0     H49382   1.359   3.045   1.407  1.3061  2.0633 -0.6032
  366MOL0     H49383   1.487   2.961   1.517 -1.0531  0.1006  1.9273
  366MOL0     H49384   1.421   3.144   1.675  0.5772  0.7251 -1.5796
  366MOL0     H49385   1.312   3.009   1.656 -2.3904 -0.6285 -1.4288
  366MOL0     H49386   1.203   3.221   1.680  1.4535 -1.1930 -0.0573
  366MOL0     H49387   1.287   3.297   1.542 -1.1362  2.1486  0.8705
  366MOL0     H49388   1.065   3.068   1.520 -0.9889 -0.0973 -0.9655
  366MOL0     H49389   1.159   3.140   1.396 -1.6203 -0.4170  0.1459
  366MOL0     H49390   0.949   3.254   1.414 -1.4902  1.0018  1.6924
  366MOL0     H49391   1.069   3.372   1.468 -1.5908  1.1148 -1.1867
  366MOL0     H49392   1.992   3.186   1.594  0.0559 -1.3521 -0.7181
  366MOL0     H49393   2.179   3.337   1.643  1.2789  1.2613 -0.8789
  366MOL0     H49394   2.225   3.833   1.619  2.3679  3.0423 -1.9816
  366MOL0     H49395   2.293   4.004   1.775  2.9790  2.0769 -1.9433
  366MOL0     H49396   4.056   3.990   1.688 -4.0530  0.6867  1.2390
  366MOL0     H49397   4.244   4.124   1.647  0.9629  1.5827 -0.0323
  366MOL0     H49398   4.605   4.215   1.720  0.4719  1.5301 -3.7134
  366MOL0     H49399   4.829   4.251   1.681 -3.0246 -1.7077  0.3686
  366MOL0     H49400   5.064   4.604   1.684 -1.0530 -2.9817 -0.7775
  366MOL0     H49401   4.995   4.642   1.838 -1.2284 -1.3469  2.2327
  366MOL0     H49402   5.249   4.641   1.828  0.8200 -0.5456 -2.0097
  366MOL0     H49403   5.246   4.468   1.809 -0.8698  1.0077 -0.4656
  366MOL0     H49404   5.142   4.434   2.026  1.9147 -0.5275  1.1013
  366MOL0     H49405   5.107   4.606   2.035 -0.8733 -1.8152  2.5074
  366MOL0     H49406   5.278   4.539   2.193  0.5815  0.6036  0.8299
  366MOL0     H49407   5.350   4.658   2.076  1.1817 -0.0303  1.9288
  366MOL0     H49408   5.571   4.325   1.976  2.4032  2.4632  3.1636
  366MOL0     H49409   4.854   4.568   1.968 -0.6043  0.5272 -0.7280
  366MOL0     H49410   4.622   4.534   2.020  0.1464  2.0320 -1.9085
  367MOL0     O49411   5.454   9.917   8.640  0.5919  0.1670 -0.5454
  367MOL0     C49412   5.444  10.008   8.566  0.1265 -0.8270  1.1358
  367MOL0     O49413   5.328  10.074   8.521  0.0820 -0.0276 -0.0242
  367MOL0     C49414   5.205  10.017   8.556 -0.3513 -0.0735 -0.2922
  367MOL0     C49415   5.118  10.081   8.644 -0.7911  0.3380 -1.1307
  367MOL0     C49416   4.989  10.027   8.671 -0.4356  0.9229  0.2345
  367MOL0     C49417   4.948   9.908   8.606  0.8886 -0.0329 -0.8959
  367MOL0     O49418   4.826   9.854   8.635  0.2872 -0.5428 -0.5040
  367MOL0     C49419   4.795   9.721   8.597  0.3345  0.0412  1.1973
  367MOL0     C49420   4.662   9.681   8.661  0.3735 -0.0822  0.1548
  367MOL0     C49421   4.534   9.745   8.599  0.4203 -0.1216 -0.0598
  367MOL0     C49422   4.394   9.709   8.648  0.5675 -0.1102 -0.4764
  367MOL0     C49423   4.284   9.720   8.547 -0.3543  0.6138  0.2078
  367MOL0     C49424   4.148   9.672   8.603 -0.3537 -0.1975 -0.1331
  367MOL0     C49425   4.127   9.518   8.622  0.0397  0.9892 -0.1771
  367MOL0     C49426   3.988   9.469   8.613  0.2352  0.4955  0.4341
  367MOL0     N49427   3.907   9.526   8.723 -0.3858  0.0550  0.2222
  367MOL0     C49428   3.860   9.454   8.831  0.1156  0.3280 -0.4422
  367MOL0     C49429   3.772   9.532   8.897 -0.6194  0.3005 -0.9006
  367MOL0     C49430   3.712   9.484   9.021  0.3714  0.4205 -0.0173
  367MOL0     C49431   3.585   9.559   9.070 -0.3549 -1.0093  0.2098
  367MOL0     C49432   3.492   9.491   9.172 -0.0357  0.0043 -1.0177
  367MOL0     C49433   3.361   9.567   9.207  0.0769  0.0565  0.0763
  367MOL0     O49434   3.253   9.542   9.113  0.6772 -0.0360  0.0780
  367MOL0     C49435   3.123   9.559   9.164 -1.0267  0.6645 -0.0707
  367MOL0     C49436   3.095   9.607   9.296  0.1330  0.0059  0.1691
  367MOL0     C49437   2.964   9.603   9.342 -0.0850 -0.6969 -0.4857
  367MOL0     C49438   2.941   9.637   9.489  0.1782  0.4386  0.2910
  367MOL0     C49439   2.859   9.554   9.262 -0.4626  0.3186 -0.1053
  367MOL0     C49440   2.718   9.539   9.307  0.0792 -0.1434 -0.4476
  367MOL0     O49441   2.619   9.557   9.211  0.2899  0.6574  0.1389
  367MOL0     C49442   2.481   9.543   9.245 -0.2974  0.0905 -0.7089
  367MOL0     C49443   2.438   9.417   9.275 -0.7754 -1.1491  0.0646
  367MOL0     C49444   2.302   9.390   9.299  0.7958 -0.0056 -0.3650
  367MOL0     C49445   2.210   9.494   9.293  0.1683  0.9060  0.2836
  367MOL0     O49446   2.080   9.461   9.325 -0.0398 -0.3271  0.1534
  367MOL0     C49447   1.979   9.536   9.261 -0.5881 -0.3021 -0.0432
  367MOL0     C49448   1.863   9.438   9.230  0.4224  0.9831  0.6675
  367MOL0     C49449   1.751   9.519   9.157 -0.2436  0.8848 -0.2036
  367MOL0     C49450   1.630   9.431   9.126  0.3826  0.6399  0.2568
  367MOL0     C49451   1.527   9.496   9.023 -0.0865 -1.3110  0.1331
  367MOL0     C49452   1.402   9.415   9.007  0.7275  0.1673  0.7962
  367MOL0     C49453   1.296   9.452   9.116 -0.0675  0.6964  0.8631
  367MOL0     C49454   1.152   9.398   9.072 -0.4584  0.2641 -0.0084
  367MOL0    Cl49455   1.094   9.468   8.917  0.4559 -0.1623  0.1503
  367MOL0     C49456   2.257   9.623   9.258  0.3171  0.0680  0.2274
  367MOL0     C49457   2.390   9.649   9.229 -0.0017  0.8536  0.1274
  367MOL0     O49458   2.694   9.522   9.424  0.3960  0.6056  0.4040
  367MOL0     C49459   2.891   9.520   9.127 -0.8192 -0.7731 -0.0084
  367MOL0     C49460   3.020   9.523   9.080 -0.1271  0.1270  0.3162
  367MOL0     N49461   3.753   9.648   8.827  0.0358 -0.4682  1.0734
  367MOL0     N49462   3.827   9.640   8.720 -0.1816 -0.0946  0.0101
  367MOL0     C49463   5.033   9.851   8.517 -0.5012  0.0326  0.3072
  367MOL0     C49464   5.161   9.897   8.490 -0.3498  0.3003 -0.4862
  367MOL0     C49465   5.577  10.054   8.521  0.1045 -0.1489 -0.5963
  367MOL0     C49466   5.685   9.969   8.505 -0.5280 -0.2022 -0.2135
  367MOL0     C49467   5.804  10.018   8.431  1.3991  0.0076 -0.1467
  367MOL0     C49468   5.824  10.145   8.390  0.7323 -0.1845 -0.4092
  367MOL0     O49469   5.929  10.200   8.323 -0.8086  0.7312  0.3859
  367MOL0     C49470   6.036  10.111   8.279  0.8427 -0.5341  0.0123
  367MOL0     C49471   6.145  10.197   8.209 -0.3664 -0.1665  0.1343
  367MOL0     C49472   6.264  10.104   8.178  0.3649 -0.7029  0.3198
  367MOL0     C49473   6.353  10.080   8.294  0.5249  0.2693  0.6204
  367MOL0     C49474   6.490  10.062   8.242  1.0559 -0.2087  1.4158
  367MOL0     C49475   6.600  10.043   8.212 -0.5595 -0.5042 -0.5963
  367MOL0     C49476   5.715  10.234   8.425 -0.5637 -0.1397 -0.5113
  367MOL0     C49477   5.598  10.186   8.486  0.2130 -0.0460 -0.2532
  367MOL0     H49478   5.152  10.163   8.707  1.2540  2.2227 -4.3922
  367MOL0     H49479   4.921  10.070   8.743 -1.5345  1.1316 -0.8973
  367MOL0     H49480   4.783   9.724   8.488  0.0842 -1.1050  1.1856
  367MOL0     H49481   4.870   9.645   8.621 -1.6329 -2.8755 -1.1106
  367MOL0     H49482   4.654   9.574   8.643 -4.5071  0.0603  0.3015
  367MOL0     H49483   4.661   9.697   8.769 -3.7536 -0.8045  0.3883
  367MOL0     H49484   4.539   9.854   8.609  1.0290 -0.3733  4.6004
  367MOL0     H49485   4.533   9.715   8.494 -1.2429 -1.9412  0.4212
  367MOL0     H49486   4.392   9.604   8.678 -1.2344 -0.0172 -0.1368
  367MOL0     H49487   4.368   9.766   8.738  2.0141  0.0813 -0.1613
  367MOL0     H49488   4.278   9.827   8.521  2.7997  0.4654 -1.6046
  367MOL0     H49489   4.324   9.671   8.458 -0.5328 -0.5666  0.7595
  367MOL0     H49490   4.130   9.715   8.702 -0.2601 -0.2639 -0.0877
  367MOL0     H49491   4.074   9.710   8.533  1.0015 -0.5954 -1.8507
  367MOL0     H49492   4.196   9.470   8.552 -0.0449 -2.1998  1.7282
  367MOL0     H49493   4.172   9.497   8.720 -3.1863  1.8157  1.6361
  367MOL0     H49494   3.987   9.359   8.613  0.8783  0.4749 -0.5533
  367MOL0     H49495   3.947   9.501   8.517 -0.9437  1.6247  1.2811
  367MOL0     H49496   3.872   9.351   8.863 -0.2200  0.3136 -0.3556
  367MOL0     H49497   3.680   9.380   9.007 -1.3485  0.5805  2.1898
  367MOL0     H49498   3.792   9.478   9.096  0.1968  0.5312  0.1781
  367MOL0     H49499   3.523   9.585   8.984 -1.6107 -1.3728  0.9914
  367MOL0     H49500   3.610   9.653   9.119 -1.3057 -1.6113  1.8921
  367MOL0     H49501   3.549   9.471   9.263 -2.7538 -0.3574  0.7221
  367MOL0     H49502   3.470   9.396   9.123 -0.5384 -0.7271  0.5540
  367MOL0     H49503   3.374   9.673   9.229  0.8278  0.2409 -1.1596
  367MOL0     H49504   3.334   9.520   9.302  0.9503 -1.7500 -0.5251
  367MOL0     H49505   3.166   9.650   9.365 -2.9486  2.2109  2.2144
  367MOL0     H49506   2.882   9.729   9.501  1.1068  0.9681  0.9357
  367MOL0     H49507   2.899   9.559   9.553  1.5754  0.4070  1.2219
  367MOL0     H49508   3.037   9.657   9.537  0.3488  0.8126 -0.1963
  367MOL0     H49509   2.514   9.341   9.287  1.1011 -0.2192 -4.2604
  367MOL0     H49510   2.268   9.289   9.322  0.8941 -0.0502 -0.4154
  367MOL0     H49511   1.951   9.622   9.322 -1.5054 -1.1074  0.7135
  367MOL0     H49512   2.028   9.575   9.171  6.1463 -1.5087  2.5321
  367MOL0     H49513   1.886   9.356   9.162  0.1430  0.5551  1.0789
  367MOL0     H49514   1.825   9.403   9.327 -2.0718 -0.1777 -0.6304
  367MOL0     H49515   1.797   9.552   9.063  1.4367 -1.7707 -0.4141
  367MOL0     H49516   1.711   9.594   9.226 -0.9343  0.0560  0.3205
  367MOL0     H49517   1.662   9.338   9.077 -1.0142  1.5730 -2.6664
  367MOL0     H49518   1.576   9.402   9.216 -0.0014  1.4149  0.2837
  367MOL0     H49519   1.568   9.516   8.923 -0.3510 -2.1768 -0.1620
  367MOL0     H49520   1.508   9.598   9.058 -3.0549 -1.0928 -1.7153
  367MOL0     H49521   1.361   9.441   8.909  2.6845  1.1236  0.2004
  367MOL0     H49522   1.419   9.307   9.010  1.8407  0.1510 -2.6768
  367MOL0     H49523   1.294   9.560   9.138  0.4251  0.7530  0.6295
  367MOL0     H49524   1.326   9.402   9.209 -1.2512 -0.1219  0.8254
  367MOL0     H49525   1.093   9.404   9.164 -1.3294  3.7713 -0.6607
  367MOL0     H49526   1.149   9.294   9.039  2.2318  0.8572 -2.5452
  367MOL0     H49527   2.193   9.709   9.249 -0.3412  0.2754  4.5276
  367MOL0     H49528   2.424   9.748   9.202 -0.9165  1.6423  1.6918
  367MOL0     H49529   2.810   9.491   9.060 -3.2308  0.4626  2.1747
  367MOL0     H49530   3.032   9.499   8.974  1.3452  0.5967  0.3499
  367MOL0     H49531   5.004   9.767   8.454  1.2338  0.8928 -1.8122
  367MOL0     H49532   5.224   9.843   8.420 -2.3119  0.4228 -2.4215
  367MOL0     H49533   5.665   9.869   8.541  0.4779 -0.5521 -0.5945
  367MOL0     H49534   5.886   9.950   8.414  0.9630 -0.6759  0.4028
  367MOL0     H49535   6.074  10.053   8.364 -3.1257 -2.5256  0.6563
  367MOL0     H49536   6.000  10.035   8.210  0.7275  1.7231 -2.5726
  367MOL0     H49537   6.186  10.278   8.271  0.1142 -1.3250  1.3669
  367MOL0     H49538   6.106  10.248   8.120 -1.8379 -0.2446  0.7016
  367MOL0     H49539   6.327  10.152   8.102  0.2492 -1.0168  0.0193
  367MOL0     H49540   6.231  10.006   8.143  0.6900 -1.1322  1.1977
  367MOL0     H49541   6.327   9.992   8.353  0.2325  0.7485  1.2229
  367MOL0     H49542   6.345  10.167   8.360 -1.4211  0.3059  0.4137
  367MOL0     H49543   6.705  10.037   8.189 -0.3504  2.5000 -0.8609
  367MOL0     H49544   5.730  10.341   8.413  1.7129 -0.2544  0.8425
  367MOL0     H49545   5.517  10.254   8.510 -0.5775 -1.1994  0.4493
  368MOL0     O49546   2.805   5.367   0.765 -0.3578 -0.7831  0.0666
  368MOL0     C49547   2.779   5.316   0.870 -1.3398  0.2843 -0.5175
  368MOL0     O49548   2.655   5.309   0.925  0.2820 -0.0383  0.4101
  368MOL0     C49549   2.553   5.352   0.854  1.0166 -0.1620  0.7523
  368MOL0     C49550   2.457   5.431   0.916  0.6993  0.0704 -0.1177
  368MOL0     C49551   2.342   5.472   0.848 -0.4508 -1.1700 -0.0888
  368MOL0     C49552   2.329   5.451   0.716 -0.2998  0.4316  0.3439
  368MOL0     O49553   2.218   5.514   0.671  0.0673  0.0173  0.2995
  368MOL0     C49554   2.202   5.523   0.527 -0.9286  0.4476 -1.2859
  368MOL0     C49555   2.111   5.638   0.499 -0.4718  0.6837  0.7926
  368MOL0     C49556   1.966   5.595   0.538 -0.4052 -0.2964 -0.3909
  368MOL0     C49557   1.865   5.700   0.475  0.1932 -0.6547 -0.0779
  368MOL0     C49558   1.718   5.706   0.510  0.2310 -0.6190 -0.4262
  368MOL0     C49559   1.633   5.794   0.425 -0.6499 -0.1834 -1.3526
  368MOL0     C49560   1.614   5.739   0.284  0.9256 -0.4736  1.6330
  368MOL0     C49561   1.512   5.819   0.194 -0.0546  0.5096  0.1167
  368MOL0     N49562   1.384   5.822   0.255  0.5499 -0.3453  0.2897
  368MOL0     C49563   1.299   5.717   0.286  0.1133 -0.5227  0.6577
  368MOL0     C49564   1.187   5.771   0.335  0.0318  0.5415 -0.0050
  368MOL0     C49565   1.066   5.687   0.383 -0.2421  0.6550  0.9402
  368MOL0     C49566   0.930   5.756   0.355 -0.1604  0.0678 -0.1606
  368MOL0     C49567   0.870   5.823   0.474 -0.4172 -0.0164  0.5344
  368MOL0     C49568   0.760   5.926   0.452  0.4715  0.0438 -0.4845
  368MOL0     O49569   0.666   5.869   0.349  0.2773 -0.5983  0.3325
  368MOL0     C49570   0.533   5.862   0.365 -0.1294 -0.3826 -0.3286
  368MOL0     C49571   0.468   5.766   0.283  0.3383 -0.2416  0.0669
  368MOL0     C49572   0.324   5.746   0.291 -0.7728  0.0459  0.8869
  368MOL0     C49573   0.270   5.641   0.198 -0.0748 -0.5713 -0.1299
  368MOL0     C49574   0.252   5.822   0.382  1.1344 -0.0003 -0.3307
  368MOL0     C49575   0.105   5.826   0.391 -0.1274  0.6367 -0.2739
  368MOL0     O49576   0.050   5.950   0.434 -0.3213  0.5327 -0.2663
  368MOL0     C49577  -0.084   5.983   0.429  0.2324  1.1152  0.5216
  368MOL0     C49578  -0.144   6.070   0.521  0.7535  0.1573  0.2876
  368MOL0     C49579  -0.284   6.109   0.502 -0.7209 -0.6207 -0.1369
  368MOL0     C49580  -0.352   6.069   0.390 -0.2515  0.0856  0.4489
  368MOL0     O49581  -0.480   6.117   0.374 -0.1306  0.1614  0.6320
  368MOL0     C49582  -0.561   6.065   0.266 -0.8416  0.3306 -0.6281
  368MOL0     C49583  -0.707   6.110   0.286 -0.4628 -0.0435 -0.4526
  368MOL0     C49584  -0.805   6.045   0.182  0.2247 -0.0512 -0.1869
  368MOL0     C49585  -0.953   6.060   0.231  0.5433  0.2519 -0.3064
  368MOL0     C49586  -1.040   5.946   0.162  0.2680 -0.1748 -0.2130
  368MOL0     C49587  -1.034   5.806   0.233 -0.1493 -0.1609 -0.1701
  368MOL0     C49588  -1.126   5.712   0.173  0.4669 -0.1884  0.5992
  368MOL0     C49589  -1.086   5.571   0.223 -0.3197 -0.9076  0.9318
  368MOL0    Cl49590  -1.156   5.448   0.111  0.1191  0.0971  0.4731
  368MOL0     C49591  -0.292   5.982   0.301 -1.0589  0.1410 -0.2940
  368MOL0     C49592  -0.159   5.943   0.318  0.2310 -0.4220  1.2788
  368MOL0     O49593   0.037   5.731   0.363 -0.0514  0.5283  0.3221
  368MOL0     C49594   0.320   5.904   0.475  0.6558  0.8451 -0.2705
  368MOL0     C49595   0.460   5.921   0.463  0.2109  0.0460  0.3147
  368MOL0     N49596   1.206   5.900   0.332 -0.6915 -1.1742 -0.3814
  368MOL0     N49597   1.323   5.934   0.281  0.9339  0.0510  0.2792
  368MOL0     C49598   2.410   5.365   0.650  1.1138  0.1937  0.4495
  368MOL0     C49599   2.522   5.313   0.720 -0.5936  0.4819  0.2949
  368MOL0     C49600   2.888   5.241   0.947 -0.1916  0.0702 -0.5626
  368MOL0     C49601   3.020   5.268   0.914  0.0746 -0.3459 -0.5665
  368MOL0     C49602   3.115   5.211   0.994 -0.1152 -0.7248 -0.3011
  368MOL0     C49603   3.087   5.134   1.104  0.1524  0.6179  0.5791
  368MOL0     O49604   3.194   5.086   1.179 -0.7296 -0.5578 -0.0037
  368MOL0     C49605   3.185   5.001   1.282 -0.3724  0.2772  0.4743
  368MOL0     C49606   3.322   4.998   1.338  0.1556 -0.9936  0.3506
  368MOL0     C49607   3.414   4.907   1.268 -0.4132 -0.2302  0.7962
  368MOL0     C49608   3.392   4.763   1.297  0.3082  0.3176 -0.4840
  368MOL0     C49609   3.508   4.684   1.251  0.1779 -0.6667 -0.9258
  368MOL0     C49610   3.603   4.618   1.235  1.1668  0.2805  0.0602
  368MOL0     C49611   2.955   5.115   1.144 -0.3941  1.2426  0.5014
  368MOL0     C49612   2.853   5.164   1.060  0.1930 -0.6655 -0.3270
  368MOL0     H49613   2.467   5.460   1.020  2.4599 -0.2700 -0.1531
  368MOL0     H49614   2.266   5.532   0.897 -0.0883  1.3733 -2.4106
  368MOL0     H49615   2.296   5.546   0.477  0.0344 -2.2587 -0.8918
  368MOL0     H49616   2.170   5.427   0.484 -1.3378  0.3639 -0.8105
  368MOL0     H49617   2.153   5.727   0.547 -0.1923  0.0909  1.6596
  368MOL0     H49618   2.115   5.650   0.390  1.3471 -2.6585  0.3688
  368MOL0     H49619   1.940   5.494   0.507 -4.7129 -0.1894  2.1071
  368MOL0     H49620   1.968   5.592   0.647 -2.1382 -0.2646 -0.3234
  368MOL0     H49621   1.902   5.798   0.507  4.3381 -2.5878  1.7507
  368MOL0     H49622   1.860   5.686   0.367 -1.7923  0.1332 -0.1225
  368MOL0     H49623   1.676   5.605   0.500  0.9720 -1.1377  1.3062
  368MOL0     H49624   1.709   5.730   0.616  1.5726  1.6252 -0.7504
  368MOL0     H49625   1.540   5.812   0.479 -1.0552  0.1921 -2.1467
  368MOL0     H49626   1.679   5.894   0.431 -0.1095 -0.4455 -1.0434
  368MOL0     H49627   1.708   5.747   0.230 -0.0277  2.7679  0.2767
  368MOL0     H49628   1.573   5.637   0.291 -0.6511 -0.2746 -2.2021
  368MOL0     H49629   1.499   5.772   0.095 -2.7847  0.2935  0.4963
  368MOL0     H49630   1.558   5.915   0.172  1.2778  0.1156  1.0980
  368MOL0     H49631   1.308   5.610   0.268  2.1619 -0.2829  0.0318
  368MOL0     H49632   1.071   5.590   0.333 -0.4271 -0.3078  2.7073
  368MOL0     H49633   1.084   5.655   0.486 -1.0477 -0.1295  0.8452
  368MOL0     H49634   0.856   5.680   0.327  1.3829 -1.2959 -0.7367
  368MOL0     H49635   0.934   5.821   0.267 -1.1182 -2.4532 -2.2049
  368MOL0     H49636   0.955   5.862   0.530 -0.2983 -3.6570  3.2645
  368MOL0     H49637   0.833   5.742   0.537 -2.8920 -2.4008 -3.5862
  368MOL0     H49638   0.800   6.016   0.405 -0.4813  1.1679  0.8142
  368MOL0     H49639   0.721   5.956   0.549 -0.6831 -1.3128 -0.4929
  368MOL0     H49640   0.540   5.720   0.217  2.9101  0.8978  1.8919
  368MOL0     H49641   0.233   5.559   0.261  0.4949 -1.4516 -0.9143
  368MOL0     H49642   0.185   5.690   0.150 -0.1152  3.1018  3.2044
  368MOL0     H49643   0.345   5.612   0.124 -0.3926  0.2427 -0.7801
  368MOL0     H49644  -0.085   6.118   0.598  1.6980  1.5985 -1.2744
  368MOL0     H49645  -0.323   6.180   0.575  0.5032 -1.0502  0.9701
  368MOL0     H49646  -0.521   6.105   0.173  1.8731  1.1927  0.8094
  368MOL0     H49647  -0.568   5.956   0.265 -1.0506  0.2609  1.8330
  368MOL0     H49648  -0.739   6.061   0.378  0.3320 -2.5901 -1.4313
  368MOL0     H49649  -0.716   6.219   0.287  2.1905  0.2444  0.8878
  368MOL0     H49650  -0.776   5.941   0.163  1.6201  0.6589 -2.2100
  368MOL0     H49651  -0.802   6.095   0.084  1.3674 -0.6006 -0.4490
  368MOL0     H49652  -0.963   6.051   0.339 -2.0029  0.6304 -0.4537
  368MOL0     H49653  -0.992   6.157   0.198 -0.4346  0.6115  1.7313
  368MOL0     H49654  -1.015   5.933   0.057 -2.1686  3.0948 -1.3442
  368MOL0     H49655  -1.143   5.981   0.169 -1.0771 -4.0052  2.9630
  368MOL0     H49656  -0.930   5.769   0.233 -0.2697 -0.5545  1.3218
  368MOL0     H49657  -1.066   5.829   0.334 -1.3593 -2.1642 -0.0315
  368MOL0     H49658  -1.123   5.735   0.066  5.2100  1.3503  0.8498
  368MOL0     H49659  -1.229   5.728   0.205  1.1818 -0.8726  3.4535
  368MOL0     H49660  -1.132   5.542   0.318  0.5285 -2.7182  0.8369
  368MOL0     H49661  -0.979   5.547   0.222 -0.5119 -1.8091 -0.0946
  368MOL0     H49662  -0.345   5.941   0.216 -1.5251  1.0718 -0.4728
  368MOL0     H49663  -0.125   5.892   0.228 -3.1169  0.1627 -0.4667
  368MOL0     H49664   0.262   5.959   0.548  2.5736  2.5744  0.0461
  368MOL0     H49665   0.512   5.994   0.525 -1.7865  2.1596 -0.3242
  368MOL0     H49666   2.401   5.338   0.546  2.2643 -0.0828  0.4012
  368MOL0     H49667   2.586   5.237   0.678 -0.4993 -0.9443  2.8255
  368MOL0     H49668   3.051   5.326   0.828  3.8520 -0.3594  0.5915
  368MOL0     H49669   3.217   5.245   0.981  0.8052 -2.9277  0.6099
  368MOL0     H49670   3.111   5.040   1.352 -1.4271 -0.2545 -0.3065
  368MOL0     H49671   3.139   4.906   1.252 -1.4875  1.1100 -0.5350
  368MOL0     H49672   3.322   4.960   1.441  1.6125 -4.2455 -0.7022
  368MOL0     H49673   3.361   5.100   1.337  0.9410 -1.2868  0.0977
  368MOL0     H49674   3.514   4.932   1.304  1.1029 -0.3554 -2.9402
  368MOL0     H49675   3.409   4.920   1.160  0.5229 -0.0451  0.7666
  368MOL0     H49676   3.298   4.734   1.250  0.7828 -0.6181 -0.8805
  368MOL0     H49677   3.382   4.750   1.406 -2.6216 -0.9805 -0.7997
  368MOL0     H49678   3.686   4.555   1.206 -0.8597 -1.7801 -1.6686
  368MOL0     H49679   2.948   5.041   1.222  2.5859 -0.9591 -1.1100
  368MOL0     H49680   2.748   5.149   1.082  0.7921  0.5338  4.6719
  369MOL0     O49681  11.072   8.822   4.846 -1.0827 -0.3609 -0.3609
  369MOL0     C49682  11.041   8.895   4.754 -0.5832 -0.6003  0.8285
  369MOL0     O49683  10.917   8.955   4.734  0.0435 -0.2511 -0.3809
  369MOL0     C49684  10.801   8.902   4.771 -0.1633  0.2010  0.1056
  369MOL0     C49685  10.694   8.982   4.751  0.3805  0.5108 -0.0615
  369MOL0     C49686  10.566   8.944   4.790  0.2884  0.6542  0.6674
  369MOL0     C49687  10.539   8.811   4.832  0.3297 -0.5965 -0.1192
  369MOL0     O49688  10.405   8.782   4.860 -0.3959  0.5395  0.2535
  369MOL0     C49689  10.381   8.642   4.895  0.0391  0.2807  0.1697
  369MOL0     C49690  10.232   8.633   4.948  0.0081 -0.3709  0.5070
  369MOL0     C49691  10.121   8.654   4.837 -0.6112 -0.2408 -0.3887
  369MOL0     C49692   9.986   8.586   4.886 -0.7392 -0.1861  0.0866
  369MOL0     C49693   9.867   8.624   4.799  0.0389 -0.5125  0.2256
  369MOL0     C49694   9.748   8.543   4.839  1.1834 -1.3022 -0.4064
  369MOL0     C49695   9.614   8.609   4.779  0.1244 -0.2224  0.3934
  369MOL0     C49696   9.496   8.565   4.862 -0.3867  0.2679  0.6742
  369MOL0     N49697   9.374   8.574   4.785  0.6293 -0.5573 -0.2256
  369MOL0     C49698   9.307   8.686   4.756  0.1816  0.3839 -0.7637
  369MOL0     C49699   9.190   8.637   4.697 -0.2706  0.3951 -0.7378
  369MOL0     C49700   9.084   8.722   4.646 -0.1003  0.8219 -0.2546
  369MOL0     C49701   8.947   8.656   4.672 -0.4467 -0.3938  0.0794
  369MOL0     C49702   8.842   8.750   4.609  1.1263 -0.1234 -0.6800
  369MOL0     C49703   8.699   8.713   4.643  0.4154  0.0953 -0.3994
  369MOL0     O49704   8.656   8.579   4.624 -0.0238 -0.1251  0.8246
  369MOL0     C49705   8.528   8.558   4.570 -0.3128 -0.2106 -0.5160
  369MOL0     C49706   8.513   8.451   4.490 -0.2012  0.3901 -0.5023
  369MOL0     C49707   8.394   8.424   4.421  0.2633  0.8486 -0.0564
  369MOL0     C49708   8.389   8.288   4.350  0.2368  0.2809  0.0776
  369MOL0     C49709   8.290   8.517   4.423  0.2302 -0.8836 -0.2531
  369MOL0     C49710   8.171   8.516   4.335  1.0859  0.6988 -0.2631
  369MOL0     O49711   8.060   8.588   4.378 -0.5340  0.8138  0.0000
  369MOL0     C49712   7.950   8.611   4.297 -1.0969  0.5504  0.4681
  369MOL0     C49713   7.906   8.735   4.271  0.4041  0.0305 -0.0505
  369MOL0     C49714   7.795   8.749   4.194  0.2435 -0.0385  0.0181
  369MOL0     C49715   7.717   8.635   4.152  0.4979 -1.1046  0.1520
  369MOL0     O49716   7.590   8.644   4.100 -0.1698  0.1838 -0.1792
  369MOL0     C49717   7.522   8.768   4.073 -0.1430  0.0029  0.3973
  369MOL0     C49718   7.384   8.742   4.020 -0.7190 -0.7949 -0.4818
  369MOL0     C49719   7.303   8.866   3.995  0.7494 -0.7906 -0.3601
  369MOL0     C49720   7.185   8.839   3.889  0.0901  0.0929  0.3677
  369MOL0     C49721   7.241   8.873   3.745 -0.4867 -0.2872 -0.2049
  369MOL0     C49722   7.133   8.876   3.639  1.2551 -0.8886 -0.1620
  369MOL0     C49723   7.090   8.724   3.619 -0.2220 -0.8659  0.4783
  369MOL0     C49724   6.944   8.701   3.669 -0.0347 -1.1685  0.1180
  369MOL0    Cl49725   6.905   8.527   3.653  0.0590  0.3814  0.6661
  369MOL0     C49726   7.764   8.511   4.189  0.4222  0.1752  0.3322
  369MOL0     C49727   7.876   8.496   4.261  0.5568  0.7307 -1.0608
  369MOL0     O49728   8.173   8.446   4.233  0.1859  0.1316  0.2645
  369MOL0     C49729   8.306   8.626   4.501  0.1667 -0.6469 -0.3157
  369MOL0     C49730   8.422   8.656   4.571  0.6309  1.0301  0.4013
  369MOL0     N49731   9.194   8.502   4.693 -0.3892  0.1232  0.9487
  369MOL0     N49732   9.300   8.462   4.750 -0.1120 -0.0147 -0.0179
  369MOL0     C49733  10.655   8.734   4.851  0.2424 -0.4221  0.3160
  369MOL0     C49734  10.779   8.777   4.820 -0.6973 -0.1038  0.6293
  369MOL0     C49735  11.154   8.941   4.659 -0.4118 -0.5678 -1.2683
  369MOL0     C49736  11.156   9.050   4.576  1.1614  0.8714  0.8387
  369MOL0     C49737  11.263   9.083   4.494  0.2502  0.3273  0.0189
  369MOL0     C49738  11.378   9.012   4.510 -0.1309  0.0967  0.4833
  369MOL0     O49739  11.481   9.057   4.430  0.2908 -0.5812  0.2865
  369MOL0     C49740  11.610   9.071   4.496  0.0148 -0.2472 -0.1813
  369MOL0     C49741  11.605   9.133   4.642  0.0101  0.4163 -0.1424
  369MOL0     C49742  11.743   9.129   4.693 -0.1126 -0.5768  0.8498
  369MOL0     C49743  11.836   9.238   4.636  0.5038 -0.6954 -0.6816
  369MOL0     C49744  11.958   9.230   4.724  0.2746 -0.3975  0.0756
  369MOL0     C49745  12.054   9.217   4.791  0.2520  0.7658 -1.1327
  369MOL0     C49746  11.389   8.898   4.592 -0.2212  0.4453 -0.2682
  369MOL0     C49747  11.276   8.868   4.662 -0.6485 -0.3063  0.2509
  369MOL0     H49748  10.708   9.083   4.714 -0.4214  1.6860  2.6387
  369MOL0     H49749  10.489   9.019   4.779  0.5725  1.2038  2.1151
  369MOL0     H49750  10.392   8.576   4.807  1.9152  0.4844  0.2078
  369MOL0     H49751  10.450   8.597   4.967  0.4588 -0.7513 -0.8274
  369MOL0     H49752  10.219   8.534   4.992  1.6597 -0.4427  0.9081
  369MOL0     H49753  10.209   8.706   5.026 -1.2203  0.2583 -0.4086
  369MOL0     H49754  10.099   8.759   4.816  3.2861  0.6091 -0.9786
  369MOL0     H49755  10.155   8.610   4.742  0.4161 -0.9715  0.3015
  369MOL0     H49756   9.995   8.479   4.904 -1.3323 -0.0487  1.3717
  369MOL0     H49757   9.969   8.621   4.989  1.7050  3.1348 -0.4666
  369MOL0     H49758   9.844   8.729   4.821  1.3122 -0.1183 -0.2599
  369MOL0     H49759   9.887   8.602   4.694  0.4189  1.1960 -0.0929
  369MOL0     H49760   9.761   8.437   4.814 -0.5127 -1.8360  0.8359
  369MOL0     H49761   9.746   8.549   4.948  0.0554 -1.5312 -0.4103
  369MOL0     H49762   9.619   8.718   4.788  2.4709 -0.1295 -1.1822
  369MOL0     H49763   9.597   8.583   4.674  2.5209  1.1911 -0.4165
  369MOL0     H49764   9.486   8.602   4.965  0.9567  0.6721  0.6780
  369MOL0     H49765   9.498   8.456   4.869  0.3975  0.0930 -1.5177
  369MOL0     H49766   9.353   8.784   4.763  1.1522 -0.1473  0.7791
  369MOL0     H49767   9.092   8.824   4.686 -1.0814  1.1495 -0.8582
  369MOL0     H49768   9.103   8.715   4.538  1.3718  0.9716 -0.0367
  369MOL0     H49769   8.933   8.650   4.780  0.9240 -3.8188  0.1681
  369MOL0     H49770   8.937   8.556   4.630 -1.8762 -0.1348 -0.2490
  369MOL0     H49771   8.842   8.746   4.500  0.7950  0.3661 -0.6977
  369MOL0     H49772   8.869   8.853   4.636  0.7238 -0.0186 -0.6659
  369MOL0     H49773   8.650   8.774   4.565  1.4195  1.0157 -0.3303
  369MOL0     H49774   8.663   8.750   4.740 -0.8678  2.3776 -1.6479
  369MOL0     H49775   8.592   8.377   4.481  0.2352  1.0440 -2.4778
  369MOL0     H49776   8.290   8.257   4.317  0.3053  0.3063 -0.1615
  369MOL0     H49777   8.448   8.302   4.259  1.0636  1.2557  0.7431
  369MOL0     H49778   8.417   8.207   4.417 -3.1246 -0.1821  1.0996
  369MOL0     H49779   7.965   8.812   4.321 -0.1459 -1.5692  3.3238
  369MOL0     H49780   7.756   8.850   4.183 -2.1213 -0.9782 -0.7191
  369MOL0     H49781   7.534   8.822   4.167  2.9396 -0.5702  0.4537
  369MOL0     H49782   7.587   8.826   4.005  2.7196 -0.4171  2.5918
  369MOL0     H49783   7.404   8.696   3.923  0.7180 -0.9271 -0.1560
  369MOL0     H49784   7.330   8.668   4.078 -0.9501 -1.5777 -1.6779
  369MOL0     H49785   7.375   8.942   3.964 -0.6164 -0.1734 -2.1805
  369MOL0     H49786   7.258   8.905   4.087  0.8218 -0.4171 -0.4830
  369MOL0     H49787   7.157   8.733   3.887 -1.3568  0.4109 -2.6152
  369MOL0     H49788   7.099   8.903   3.909  1.5826  2.1903  0.4208
  369MOL0     H49789   7.329   8.815   3.717  1.5533  2.6310 -0.2333
  369MOL0     H49790   7.289   8.969   3.765  2.2198 -1.7233  0.6790
  369MOL0     H49791   7.050   8.933   3.680  0.4438 -2.8241  0.9996
  369MOL0     H49792   7.164   8.903   3.537 -1.2278 -1.7037 -1.1950
  369MOL0     H49793   7.159   8.665   3.679 -0.9846 -1.2048  1.0327
  369MOL0     H49794   7.119   8.694   3.517  2.6093  0.3759  0.8159
  369MOL0     H49795   6.866   8.758   3.619  0.2005  2.1565  3.1643
  369MOL0     H49796   6.942   8.736   3.773  0.0638  0.8578 -0.5190
  369MOL0     H49797   7.713   8.418   4.166  0.1582 -0.1733  2.1282
  369MOL0     H49798   7.909   8.396   4.287  0.0115 -0.2331 -3.7442
  369MOL0     H49799   8.220   8.690   4.517  1.7749  1.1793  1.5199
  369MOL0     H49800   8.429   8.741   4.638 -4.9634  1.3959  0.9920
  369MOL0     H49801  10.647   8.628   4.875 -1.4512 -0.7658 -1.4586
  369MOL0     H49802  10.859   8.711   4.851 -1.8385 -0.6398  2.5778
  369MOL0     H49803  11.068   9.113   4.570  1.6199  1.4975  0.5066
  369MOL0     H49804  11.252   9.174   4.437 -3.1918  0.1503  0.2296
  369MOL0     H49805  11.655   8.972   4.500 -0.8996 -0.8383 -2.5072
  369MOL0     H49806  11.674   9.133   4.433 -1.8220  1.1575 -0.7918
  369MOL0     H49807  11.537   9.081   4.710 -1.1296  0.3735 -1.2767
  369MOL0     H49808  11.569   9.237   4.639  1.2142  0.9130  1.2581
  369MOL0     H49809  11.797   9.035   4.679  0.9153 -0.1209  1.5904
  369MOL0     H49810  11.746   9.136   4.802  0.6789 -0.8101  0.8527
  369MOL0     H49811  11.796   9.337   4.661  1.6091 -0.6170  0.9088
  369MOL0     H49812  11.852   9.230   4.528  3.0178  3.1198 -0.7765
  369MOL0     H49813  12.136   9.214   4.860 -1.6375  1.8925  1.3280
  369MOL0     H49814  11.478   8.838   4.609 -1.2331 -0.1009  4.6074
  369MOL0     H49815  11.277   8.794   4.742 -1.5146 -1.7665 -1.0460
  370MOL0     O49816   5.770   1.605   9.819  0.1405  0.7227 -0.2083
  370MOL0     C49817   5.858   1.676   9.858  0.7392  0.2947 -0.5350
  370MOL0     O49818   5.844   1.792   9.930 -0.3033  0.1228  0.4909
  370MOL0     C49819   5.715   1.837   9.930 -0.1217  0.0947 -0.0023
  370MOL0     C49820   5.690   1.955   9.861 -0.2809 -0.6242  0.3828
  370MOL0     C49821   5.562   2.012   9.857  0.5606  0.2655 -0.2853
  370MOL0     C49822   5.453   1.936   9.917 -0.1097 -0.9713  0.3286
  370MOL0     O49823   5.329   1.994   9.898  0.8125 -0.1852 -0.1059
  370MOL0     C49824   5.218   1.905   9.866  0.1328  0.0914  0.4590
  370MOL0     C49825   5.095   1.984   9.848  0.6098 -0.3934  0.3828
  370MOL0     C49826   5.053   2.036   9.987  0.5325 -0.4863  0.6656
  370MOL0     C49827   4.952   2.148   9.957 -0.7836  0.5206 -0.4037
  370MOL0     C49828   4.862   2.178  10.074  0.0656  0.6462  0.2280
  370MOL0     C49829   4.752   2.259  10.016 -0.0493 -0.2805 -0.5309
  370MOL0     C49830   4.649   2.311  10.123 -0.4778  0.3979  0.5686
  370MOL0     C49831   4.523   2.361  10.062 -0.3418 -0.3007 -0.3161
  370MOL0     N49832   4.436   2.418  10.166 -0.0769 -0.2927 -0.0625
  370MOL0     C49833   4.331   2.347  10.227  1.0350  0.0592  0.1578
  370MOL0     C49834   4.281   2.426  10.327 -0.0858 -0.0943 -0.1781
  370MOL0     C49835   4.179   2.413  10.436 -0.5426 -0.7426  0.4885
  370MOL0     C49836   4.056   2.484  10.378 -0.4790  0.0735 -0.3886
  370MOL0     C49837   3.933   2.436  10.461 -0.8227 -0.7429  0.6595
  370MOL0     C49838   3.806   2.424  10.362 -0.2691  0.4565  0.2537
  370MOL0     O49839   3.792   2.541  10.284  0.1695  0.2852 -1.0343
  370MOL0     C49840   3.709   2.538  10.179  0.3112 -0.5101  0.2681
  370MOL0     C49841   3.610   2.435  10.151 -0.5907 -0.0829 -0.0646
  370MOL0     C49842   3.519   2.449  10.044 -0.2795 -0.1459 -0.3572
  370MOL0     C49843   3.418   2.338  10.032 -0.0408  0.0153 -0.0583
  370MOL0     C49844   3.531   2.553   9.946  0.3977 -1.0093  1.2842
  370MOL0     C49845   3.445   2.566   9.827 -0.9185 -0.3386 -1.0602
  370MOL0     O49846   3.420   2.452   9.756 -0.1083 -0.0863  0.3126
  370MOL0     C49847   3.351   2.461   9.636 -0.2758  0.0608 -0.0545
  370MOL0     C49848   3.399   2.390   9.516  0.1806  1.3495  0.0714
  370MOL0     C49849   3.337   2.392   9.395 -0.1606 -0.4057 -0.0957
  370MOL0     C49850   3.214   2.468   9.388 -0.5927  0.4776  0.2069
  370MOL0     O49851   3.143   2.477   9.266 -0.0038  0.0263  0.7450
  370MOL0     C49852   3.182   2.407   9.154 -0.2830  0.5674  0.2980
  370MOL0     C49853   3.070   2.393   9.046  0.2267 -0.4873 -0.0577
  370MOL0     C49854   3.103   2.320   8.920 -0.2381 -0.0949  0.4263
  370MOL0     C49855   2.978   2.309   8.833 -0.3945 -0.4764 -0.0520
  370MOL0     C49856   2.971   2.170   8.765 -0.9118 -0.0466  0.0345
  370MOL0     C49857   2.840   2.135   8.682  0.6069  0.4990 -0.0691
  370MOL0     C49858   2.712   2.156   8.764  0.0646 -0.1851  0.1681
  370MOL0     C49859   2.586   2.092   8.720 -0.9532 -0.6514 -0.3992
  370MOL0    Cl49860   2.599   1.912   8.706 -0.0128 -0.4608 -0.1078
  370MOL0     C49861   3.175   2.554   9.489  0.1348  0.6485 -0.1092
  370MOL0     C49862   3.235   2.539   9.623 -0.3220 -1.0057 -0.3155
  370MOL0     O49863   3.414   2.682   9.795  0.4175  0.4090  0.2456
  370MOL0     C49864   3.621   2.659   9.983  0.1491  0.0949  0.1336
  370MOL0     C49865   3.706   2.648  10.093  0.0078  0.0063 -0.9382
  370MOL0     N49866   4.350   2.540  10.333 -0.3693 -0.4931  0.1700
  370MOL0     N49867   4.448   2.531  10.237  0.6518 -0.6839 -0.3177
  370MOL0     C49868   5.479   1.826   9.993  0.0535  0.3386  0.1408
  370MOL0     C49869   5.608   1.779  10.001  0.3788  0.4401  0.5491
  370MOL0     C49870   5.993   1.635   9.832  0.1018  0.2628  0.1654
  370MOL0     C49871   6.105   1.707   9.883  0.0475 -0.6170  0.5268
  370MOL0     C49872   6.229   1.650   9.882 -0.7494  0.5034 -0.3175
  370MOL0     C49873   6.252   1.529   9.813  0.0145 -0.7172 -0.6192
  370MOL0     O49874   6.383   1.477   9.811 -0.6184 -0.0437  0.1491
  370MOL0     C49875   6.419   1.360   9.741  0.2917  0.8069 -0.3514
  370MOL0     C49876   6.405   1.227   9.825  0.1644 -0.1514 -0.6161
  370MOL0     C49877   6.446   1.248   9.979 -0.5266 -0.5584  0.8852
  370MOL0     C49878   6.494   1.112  10.029  0.0702  0.0863 -0.6632
  370MOL0     C49879   6.603   1.049   9.936  0.4624 -0.0164 -1.0480
  370MOL0     C49880   6.681   0.993   9.864 -0.0566  0.5051  0.1427
  370MOL0     C49881   6.143   1.470   9.746 -0.5038  0.2475  0.7845
  370MOL0     C49882   6.020   1.510   9.761  0.1984  0.2479  0.2591
  370MOL0     H49883   5.777   2.004   9.817 -0.2362  0.5246  1.6766
  370MOL0     H49884   5.540   2.104   9.804  0.1139  1.1052  1.2857
  370MOL0     H49885   5.235   1.850   9.773  3.2246 -1.0099  1.5433
  370MOL0     H49886   5.208   1.840   9.953 -2.3463  0.8304  0.8106
  370MOL0     H49887   5.112   2.066   9.778  3.9724 -0.8431  0.4953
  370MOL0     H49888   5.015   1.923   9.807  1.0802 -1.6769  1.2856
  370MOL0     H49889   5.002   1.951  10.032  1.2625 -1.9105 -1.0711
  370MOL0     H49890   5.134   2.082  10.043 -0.7061  0.5349  1.6693
  370MOL0     H49891   5.015   2.234   9.934  0.2854 -0.5430 -1.5552
  370MOL0     H49892   4.896   2.126   9.866 -1.0672 -2.0659  0.3151
  370MOL0     H49893   4.812   2.091  10.119 -1.8869  1.0468 -1.0137
  370MOL0     H49894   4.919   2.239  10.144 -0.1830  1.8131 -0.5576
  370MOL0     H49895   4.799   2.334   9.951  1.4405 -1.3376 -0.7198
  370MOL0     H49896   4.701   2.185   9.954  0.7411 -0.0332 -1.4965
  370MOL0     H49897   4.631   2.221  10.183 -0.8742  0.3779  0.4197
  370MOL0     H49898   4.687   2.388  10.190 -0.0442  0.6515  0.0387
  370MOL0     H49899   4.482   2.275  10.008  1.0168 -0.2147 -1.5643
  370MOL0     H49900   4.540   2.436   9.984 -3.1331 -1.0801 -1.8459
  370MOL0     H49901   4.301   2.247  10.196  1.1372 -0.3518  1.3372
  370MOL0     H49902   4.152   2.310  10.464 -1.1056 -0.2487  1.8519
  370MOL0     H49903   4.206   2.463  10.530 -2.8151  0.4246  0.5984
  370MOL0     H49904   4.047   2.459  10.272  0.3374  0.4577 -0.5628
  370MOL0     H49905   4.069   2.591  10.395  0.5050 -0.1185  0.1615
  370MOL0     H49906   3.905   2.516  10.529 -0.3745  1.4794 -1.6044
  370MOL0     H49907   3.959   2.342  10.510  0.9029 -1.9956 -2.3570
  370MOL0     H49908   3.712   2.399  10.412 -0.2875  0.9846  0.4944
  370MOL0     H49909   3.844   2.352  10.289  3.4625  0.5624  1.8443
  370MOL0     H49910   3.618   2.344  10.209  4.8611 -2.6756 -3.9777
  370MOL0     H49911   3.322   2.391  10.037  0.2945  0.5108  1.4727
  370MOL0     H49912   3.429   2.281   9.939  4.0220 -1.6959  1.2620
  370MOL0     H49913   3.422   2.263  10.111 -3.4870 -0.8919 -0.5771
  370MOL0     H49914   3.489   2.332   9.535  1.0392  0.7700 -4.4987
  370MOL0     H49915   3.382   2.334   9.315 -0.9249 -0.5955 -0.3881
  370MOL0     H49916   3.272   2.458   9.120 -0.0888  1.1317  1.5850
  370MOL0     H49917   3.191   2.300   9.176  1.2153  0.5017 -0.5070
  370MOL0     H49918   2.992   2.342   9.105 -1.2579  1.3214 -0.3417
  370MOL0     H49919   3.038   2.497   9.032 -0.5638  0.1220  4.6421
  370MOL0     H49920   3.125   2.221   8.960 -1.6688 -1.3146 -1.6002
  370MOL0     H49921   3.191   2.363   8.871 -0.6855 -2.3963 -2.7253
  370MOL0     H49922   2.892   2.323   8.900  0.2660  0.7440  0.5654
  370MOL0     H49923   2.971   2.390   8.759  0.7865 -0.7986 -0.5359
  370MOL0     H49924   3.000   2.083   8.825  3.6121 -0.3992 -2.2272
  370MOL0     H49925   3.049   2.176   8.689 -2.3472  0.3227 -1.4484
  370MOL0     H49926   2.839   2.196   8.592  0.4583 -1.3770 -1.3984
  370MOL0     H49927   2.847   2.031   8.647  0.5443  0.7857 -0.9417
  370MOL0     H49928   2.688   2.262   8.770 -1.1116 -0.2978 -1.8875
  370MOL0     H49929   2.732   2.126   8.868 -0.3740  1.0828  0.6355
  370MOL0     H49930   2.554   2.132   8.623  0.6052  1.0094 -0.2731
  370MOL0     H49931   2.524   2.120   8.806 -1.1421 -2.0803 -0.0317
  370MOL0     H49932   3.090   2.619   9.471  1.2034  1.4361 -2.8322
  370MOL0     H49933   3.188   2.602   9.698 -1.6479 -1.5088 -0.6999
  370MOL0     H49934   3.625   2.757   9.935 -0.4547 -0.6063 -1.3801
  370MOL0     H49935   3.767   2.734  10.121  0.2477 -0.7127  0.8696
  370MOL0     H49936   5.396   1.786  10.051 -0.4043  0.2500 -0.5660
  370MOL0     H49937   5.629   1.690  10.059 -1.5557  0.0709  0.7582
  370MOL0     H49938   6.085   1.802   9.931 -1.1482  0.2130 -1.5052
  370MOL0     H49939   6.314   1.702   9.926 -2.1262  1.6377  1.1091
  370MOL0     H49940   6.368   1.350   9.644  1.3322 -5.3718 -0.6690
  370MOL0     H49941   6.526   1.362   9.720  0.0718  3.7349 -1.7162
  370MOL0     H49942   6.464   1.156   9.766 -1.3635 -0.7380 -1.4934
  370MOL0     H49943   6.302   1.192   9.822  0.6816 -1.8391  0.2823
  370MOL0     H49944   6.356   1.280  10.031 -1.1912 -0.3358 -0.3527
  370MOL0     H49945   6.524   1.324   9.989  0.8309 -1.9661  1.4349
  370MOL0     H49946   6.409   1.045  10.040 -1.6641  2.5879  3.0597
  370MOL0     H49947   6.526   1.134  10.131 -1.1916  1.8662 -0.6048
  370MOL0     H49948   6.755   0.934   9.814 -1.9797 -1.2209 -0.8162
  370MOL0     H49949   6.159   1.379   9.689 -0.4971  0.9041 -0.2911
  370MOL0     H49950   5.934   1.454   9.722 -1.9252  4.0321 -0.9916
  371MOL0     O49951   4.738  11.225  10.790  0.3652 -0.2131 -0.6962
  371MOL0     C49952   4.832  11.304  10.808 -0.5024 -0.4815  0.3301
  371MOL0     O49953   4.815  11.438  10.804 -0.2942 -0.2263 -0.0999
  371MOL0     C49954   4.684  11.488  10.804  0.4030 -0.4385  0.3200
  371MOL0     C49955   4.590  11.463  10.903  0.4180 -0.2395  0.3495
  371MOL0     C49956   4.455  11.507  10.883 -1.0635 -0.3555 -0.4442
  371MOL0     C49957   4.413  11.579  10.770 -0.0971 -0.3744 -0.5785
  371MOL0     O49958   4.288  11.635  10.751  0.7544 -0.1918 -0.7688
  371MOL0     C49959   4.182  11.603  10.844  0.4246  0.3974 -0.1245
  371MOL0     C49960   4.047  11.656  10.786  0.0123  0.0138  0.6710
  371MOL0     C49961   4.052  11.808  10.764 -0.4443  0.0545  0.0666
  371MOL0     C49962   3.925  11.859  10.692 -0.1873 -0.2268  0.3818
  371MOL0     C49963   3.902  12.012  10.708  0.5504  0.1508 -0.7416
  371MOL0     C49964   4.027  12.092  10.675 -0.1956  0.0589  0.0837
  371MOL0     C49965   4.001  12.247  10.663  0.5978 -0.2412 -0.8195
  371MOL0     C49966   3.942  12.318  10.792 -0.1898 -0.8639  1.0656
  371MOL0     N49967   3.949  12.456  10.771  0.0388 -0.2486 -0.2373
  371MOL0     C49968   4.068  12.534  10.770  1.3535 -0.2476  0.1952
  371MOL0     C49969   4.030  12.657  10.730 -0.3593  0.1706  0.2204
  371MOL0     C49970   4.126  12.766  10.692  0.3188  0.1199 -0.5864
  371MOL0     C49971   4.172  12.857  10.813 -0.6697 -0.6501  0.7113
  371MOL0     C49972   4.294  12.940  10.774 -0.4039 -0.1893  0.3884
  371MOL0     C49973   4.272  13.043  10.659 -0.4965 -0.2747 -0.9666
  371MOL0     O49974   4.142  13.096  10.678  0.8554 -0.4207 -0.1835
  371MOL0     C49975   4.068  13.155  10.578  0.2271  0.8284 -0.4464
  371MOL0     C49976   3.938  13.171  10.615  0.1840  0.5610  0.0471
  371MOL0     C49977   3.848  13.236  10.534  0.7399 -0.1031  0.6834
  371MOL0     C49978   3.705  13.262  10.579 -0.6762 -0.8164 -0.2916
  371MOL0     C49979   3.891  13.274  10.399  0.2615 -0.1769 -0.0062
  371MOL0     C49980   3.804  13.338  10.286 -0.1303  0.4926  1.0753
  371MOL0     O49981   3.821  13.285  10.156  0.2344 -0.6431 -0.1537
  371MOL0     C49982   3.733  13.321  10.054 -0.0269  0.3480 -0.5543
  371MOL0     C49983   3.744  13.446   9.986 -0.0430  0.4241 -0.1297
  371MOL0     C49984   3.664  13.473   9.882 -0.1696  0.5660  0.8916
  371MOL0     C49985   3.564  13.385   9.836  0.1661 -0.0039 -1.1253
  371MOL0     O49986   3.493  13.415   9.730  0.1974 -0.3462  0.1421
  371MOL0     C49987   3.423  13.315   9.653  0.4370  0.2399 -0.1369
  371MOL0     C49988   3.290  13.275   9.724 -0.6132 -0.1391 -0.5947
  371MOL0     C49989   3.179  13.251   9.629  1.2295  0.4531  0.9551
  371MOL0     C49990   3.104  13.384   9.590  0.1284  0.1652  0.0724
  371MOL0     C49991   3.008  13.362   9.474 -0.2450  0.0732  0.0378
  371MOL0     C49992   2.974  13.500   9.432 -0.0576 -0.0764 -0.9665
  371MOL0     C49993   2.874  13.506   9.311 -0.0301  0.6462  0.8918
  371MOL0     C49994   2.732  13.467   9.343  1.0858 -1.0744  0.4654
  371MOL0    Cl49995   2.647  13.478   9.190  0.0253 -0.0537 -0.2752
  371MOL0     C49996   3.547  13.259   9.912  0.0184 -0.9717 -0.2210
  371MOL0     C49997   3.637  13.233  10.020  0.5008  0.1538  0.6069
  371MOL0     O49998   3.716  13.414  10.318 -0.1373  0.1479  0.2006
  371MOL0     C49999   4.030  13.263  10.371 -0.3409 -0.2518  0.6834
  371MOL0     C50000   4.111  13.188  10.450 -0.7055 -0.2263 -0.6958
  371MOL0     N50001   3.890  12.648  10.700  0.0776 -0.5050 -0.5232
  371MOL0     N50002   3.844  12.534  10.726  0.0361 -0.1312 -0.3094
  371MOL0     C50003   4.513  11.597  10.673  0.7089  1.0132  0.5189
  371MOL0     C50004   4.643  11.561  10.690 -1.0429  1.0198  0.3303
  371MOL0     C50005   4.966  11.252  10.846 -0.7074 -0.2689  0.7761
  371MOL0     C50006   5.085  11.320  10.819 -0.3768  0.4556  0.6241
  371MOL0     C50007   5.205  11.271  10.869 -0.3273 -0.1348 -0.3032
  371MOL0     C50008   5.215  11.148  10.943  0.3203 -0.2975  0.2272
  371MOL0     O50009   5.337  11.130  11.008 -0.1211  0.0808  0.2257
  371MOL0     C50010   5.362  11.008  11.091  0.6668 -0.6121  0.0999
  371MOL0     C50011   5.501  11.018  11.140 -0.5638  0.0393  0.2153
  371MOL0     C50012   5.526  10.917  11.240 -0.7841  0.1520 -0.3942
  371MOL0     C50013   5.581  10.786  11.187  0.5043  0.5739 -0.7224
  371MOL0     C50014   5.699  10.794  11.102 -0.3660 -0.1818  0.9665
  371MOL0     C50015   5.780  10.800  11.013  0.0967  0.5335  0.4400
  371MOL0     C50016   5.090  11.080  10.966 -0.4109  0.5801 -0.3602
  371MOL0     C50017   4.970  11.136  10.916 -0.1082  0.2465  0.7346
  371MOL0     H50018   4.614  11.403  10.991 -2.0304  2.7964  3.3391
  371MOL0     H50019   4.375  11.473  10.948 -0.1061 -0.9606  0.4417
  371MOL0     H50020   4.172  11.496  10.864 -0.0006  0.4919  0.1880
  371MOL0     H50021   4.208  11.653  10.939 -0.3254 -0.4227  0.5271
  371MOL0     H50022   4.015  11.619  10.688 -2.3299  0.7951  1.0852
  371MOL0     H50023   3.965  11.633  10.855  0.3932 -2.6935  0.3223
  371MOL0     H50024   4.050  11.865  10.858 -1.4621  2.8770 -1.5499
  371MOL0     H50025   4.149  11.831  10.721  0.7556 -4.1178  0.0722
  371MOL0     H50026   3.919  11.842  10.585 -2.6405  2.9742 -0.1421
  371MOL0     H50027   3.838  11.804  10.728  0.3353 -2.7976 -1.9542
  371MOL0     H50028   3.813  12.042  10.652 -0.4916  0.3499  0.9558
  371MOL0     H50029   3.864  12.027  10.810 -0.9259 -1.3683 -1.0092
  371MOL0     H50030   4.110  12.074  10.745 -0.5470  0.7566  0.6928
  371MOL0     H50031   4.063  12.075  10.573  0.2995  0.6734  0.1468
  371MOL0     H50032   4.091  12.303  10.636  0.1081  1.7416  1.3179
  371MOL0     H50033   3.952  12.272  10.568 -0.4243  1.2678  0.0702
  371MOL0     H50034   3.985  12.276  10.884 -1.1870 -1.1098  1.4342
  371MOL0     H50035   3.837  12.288  10.788 -0.9394  1.6055  0.7029
  371MOL0     H50036   4.171  12.500  10.782  1.6518  0.8258  0.7388
  371MOL0     H50037   4.214  12.713  10.656  1.4788 -0.0708  2.2100
  371MOL0     H50038   4.081  12.824  10.612  0.5749  3.4110  1.4536
  371MOL0     H50039   4.201  12.793  10.897  0.4068  1.8567  2.3394
  371MOL0     H50040   4.088  12.917  10.849 -0.4556 -0.4710  0.9081
  371MOL0     H50041   4.379  12.874  10.754 -1.0331 -0.7335 -0.5567
  371MOL0     H50042   4.328  12.994  10.863  0.5803 -1.2605  0.6874
  371MOL0     H50043   4.273  12.994  10.561 -0.1426 -0.0309 -1.0863
  371MOL0     H50044   4.349  13.121  10.660 -0.9927  0.2212 -0.1516
  371MOL0     H50045   3.900  13.126  10.706 -3.7597  1.0956 -1.1143
  371MOL0     H50046   3.685  13.369  10.587  0.3241 -0.7566  2.4778
  371MOL0     H50047   3.633  13.222  10.507 -1.0503 -1.6010  0.4949
  371MOL0     H50048   3.688  13.213  10.676 -0.7540  0.4568  0.3689
  371MOL0     H50049   3.823  13.513  10.019 -0.6335  1.2234 -0.3221
  371MOL0     H50050   3.670  13.564   9.824 -0.8885 -0.8352 -1.5134
  371MOL0     H50051   3.400  13.362   9.557 -1.3749 -2.0586 -0.9280
  371MOL0     H50052   3.484  13.225   9.642  1.4823  0.8328  0.6764
  371MOL0     H50053   3.302  13.181   9.779  0.0452  2.4813  4.2311
  371MOL0     H50054   3.262  13.350   9.798 -3.1557 -1.2628 -0.3011
  371MOL0     H50055   3.102  13.190   9.678  2.1300 -0.9188  0.7187
  371MOL0     H50056   3.200  13.192   9.539 -1.0287 -1.6741  1.6951
  371MOL0     H50057   3.044  13.416   9.676 -0.2977 -0.6914  0.1087
  371MOL0     H50058   3.173  13.465   9.565 -0.0804 -0.3424 -2.3372
  371MOL0     H50059   2.919  13.308   9.506 -0.0215 -0.3203  0.0017
  371MOL0     H50060   3.057  13.315   9.388  0.0671  1.3091 -0.4859
  371MOL0     H50061   2.920  13.562   9.504  1.1973  1.4028 -1.2397
  371MOL0     H50062   3.065  13.554   9.403  0.6541 -0.8486 -0.2291
  371MOL0     H50063   2.917  13.469   9.217  1.3155  1.0765  1.3157
  371MOL0     H50064   2.871  13.613   9.288 -1.6628  0.7725  1.5892
  371MOL0     H50065   2.679  13.511   9.429 -2.1389 -2.9175 -0.3962
  371MOL0     H50066   2.739  13.362   9.370  2.1171 -0.9995  0.4994
  371MOL0     H50067   3.473  13.184   9.885 -2.1930  0.7503  0.7770
  371MOL0     H50068   3.641  13.132  10.062 -0.5943  0.3624  1.2600
  371MOL0     H50069   4.070  13.288  10.273 -1.3525 -0.7645  0.1319
  371MOL0     H50070   4.215  13.178  10.419  0.0449  1.5998  1.0184
  371MOL0     H50071   4.494  11.651  10.581  0.0751 -0.9191 -0.5207
  371MOL0     H50072   4.708  11.587  10.607  0.7803 -0.3477  1.2670
  371MOL0     H50073   5.096  11.408  10.755 -0.4337 -0.3209 -0.4782
  371MOL0     H50074   5.298  11.322  10.845  1.2568 -2.2949  0.8392
  371MOL0     H50075   5.275  11.008  11.158 -1.3397  1.4134 -2.2965
  371MOL0     H50076   5.369  10.918  11.028  0.7176 -1.3499  1.1278
  371MOL0     H50077   5.509  11.111  11.196 -0.7493  0.4209 -0.3922
  371MOL0     H50078   5.561  11.010  11.049 -2.4216  0.2995 -1.0745
  371MOL0     H50079   5.429  10.898  11.288 -1.7775 -1.2908 -2.7985
  371MOL0     H50080   5.601  10.949  11.314 -0.4463  0.2560 -0.7793
  371MOL0     H50081   5.503  10.731  11.133 -1.8712  2.2418  0.8269
  371MOL0     H50082   5.606  10.729  11.276 -0.6047 -0.8529 -1.2782
  371MOL0     H50083   5.837  10.808  10.923 -1.8573  2.0004 -0.7338
  371MOL0     H50084   5.101  10.987  11.021  2.8280  1.6311  1.0036
  371MOL0     H50085   4.884  11.071  10.927 -1.7295  2.3858  1.3037
  372MOL0     O50086   5.324   5.769   0.035 -0.4373 -0.0103  0.9010
  372MOL0     C50087   5.391   5.722   0.133  0.5680 -0.1545 -0.0883
  372MOL0     O50088   5.331   5.663   0.236  0.5209 -0.4000 -0.1720
  372MOL0     C50089   5.196   5.627   0.222 -0.3461 -0.1483 -0.0067
  372MOL0     C50090   5.113   5.642   0.338  0.6113 -0.0852 -0.1757
  372MOL0     C50091   4.992   5.575   0.342 -0.0033  0.6480 -0.4668
  372MOL0     C50092   4.936   5.521   0.220  0.6990  0.0495  0.0938
  372MOL0     O50093   4.809   5.472   0.201 -0.0876  0.4490  0.2535
  372MOL0     C50094   4.701   5.510   0.284  0.3505 -0.2819 -1.0207
  372MOL0     C50095   4.569   5.506   0.208 -0.4915 -0.2867 -0.3353
  372MOL0     C50096   4.457   5.566   0.306  0.7078 -0.4860 -0.4102
  372MOL0     C50097   4.378   5.453   0.369  0.1149 -0.2524 -0.6632
  372MOL0     C50098   4.250   5.510   0.422 -0.1998 -0.3123 -0.5251
  372MOL0     C50099   4.155   5.390   0.470 -1.0168 -1.3837 -0.2565
  372MOL0     C50100   4.108   5.288   0.369 -0.5376  0.0035  0.5553
  372MOL0     C50101   4.036   5.346   0.250  0.1520 -1.0972  0.5091
  372MOL0     N50102   3.909   5.411   0.286 -0.3164  0.1391  0.1344
  372MOL0     C50103   3.790   5.354   0.325  0.4926  0.5960  0.6642
  372MOL0     C50104   3.698   5.449   0.324 -0.3472 -0.5852  0.0471
  372MOL0     C50105   3.557   5.431   0.366  0.1376  0.1320  0.4290
  372MOL0     C50106   3.476   5.564   0.370 -0.0946  0.4459 -0.0767
  372MOL0     C50107   3.331   5.534   0.383 -0.2893 -0.6319  0.5528
  372MOL0     C50108   3.255   5.653   0.440 -0.2735 -1.1135  0.2066
  372MOL0     O50109   3.121   5.615   0.448 -0.0063 -0.6985  0.3563
  372MOL0     C50110   3.032   5.694   0.519 -0.4262  0.6525 -0.2531
  372MOL0     C50111   3.053   5.832   0.549 -0.9374 -0.0075  0.6607
  372MOL0     C50112   2.963   5.900   0.621  0.0239  0.1791 -0.1294
  372MOL0     C50113   2.996   6.045   0.641 -0.6258  0.2211 -0.2634
  372MOL0     C50114   2.842   5.832   0.661  0.2213 -0.0150 -0.7272
  372MOL0     C50115   2.729   5.908   0.731  0.2966  0.3782  0.5266
  372MOL0     O50116   2.620   5.831   0.737  0.0946  0.7071 -0.4398
  372MOL0     C50117   2.494   5.904   0.752 -0.1824  0.5884  0.1826
  372MOL0     C50118   2.380   5.821   0.752 -0.7403  0.1054 -0.0474
  372MOL0     C50119   2.253   5.868   0.767  0.2125 -0.2377 -0.0080
  372MOL0     C50120   2.232   6.006   0.772 -0.2747 -0.5531 -0.0611
  372MOL0     O50121   2.106   6.074   0.765 -0.5809  0.3405 -0.4114
  372MOL0     C50122   1.990   6.004   0.821  0.1789  0.0025  1.0841
  372MOL0     C50123   1.863   6.088   0.773 -0.4719  1.0226  0.1235
  372MOL0     C50124   1.742   6.015   0.832 -0.2186  0.5891 -0.5536
  372MOL0     C50125   1.612   6.053   0.752  0.0007 -0.1325 -0.0884
  372MOL0     C50126   1.492   5.954   0.772  0.0350 -0.2973  1.0004
  372MOL0     C50127   1.376   5.994   0.671 -0.1262  0.4100  0.4414
  372MOL0     C50128   1.250   5.906   0.706  0.2984  0.3728  0.5780
  372MOL0     C50129   1.121   5.971   0.752 -1.1783 -0.0382  0.4685
  372MOL0    Cl50130   1.084   6.108   0.639 -0.1375 -0.6136  0.0786
  372MOL0     C50131   2.345   6.089   0.772 -0.2577  0.2776  0.2827
  372MOL0     C50132   2.477   6.040   0.772  0.5379 -0.1067 -0.4335
  372MOL0     O50133   2.751   6.013   0.799 -0.4832  0.0878 -0.1343
  372MOL0     C50134   2.813   5.702   0.609 -0.1323 -0.8585  1.0795
  372MOL0     C50135   2.907   5.638   0.533 -0.9815 -0.0144  0.5223
  372MOL0     N50136   3.764   5.564   0.270  0.2212 -0.2352 -0.0242
  372MOL0     N50137   3.885   5.536   0.244  0.6531 -0.3362  0.0537
  372MOL0     C50138   5.025   5.502   0.115  0.3001  0.0113  0.7137
  372MOL0     C50139   5.149   5.556   0.113 -1.1175  0.5565 -0.3789
  372MOL0     C50140   5.538   5.743   0.136  0.4621 -0.5939  0.7047
  372MOL0     C50141   5.616   5.696   0.247  0.5974 -0.1000  0.0915
  372MOL0     C50142   5.750   5.725   0.264 -0.5392 -0.2111 -0.5753
  372MOL0     C50143   5.822   5.802   0.170 -0.4336 -0.4441  1.0792
  372MOL0     O50144   5.951   5.837   0.192  0.3797  0.7199 -0.0722
  372MOL0     C50145   5.992   5.961   0.141  0.0507 -0.5770 -0.6711
  372MOL0     C50146   6.145   5.981   0.156 -0.4362 -0.5070  0.3620
  372MOL0     C50147   6.220   5.879   0.069  0.4222 -0.5519  0.0248
  372MOL0     C50148   6.375   5.893   0.080 -0.1580 -0.0420  0.0596
  372MOL0     C50149   6.441   5.818  -0.036 -0.0766  0.3034 -0.9876
  372MOL0     C50150   6.489   5.763  -0.135 -0.1816 -0.5220  0.2660
  372MOL0     C50151   5.753   5.833   0.041 -0.6989  1.1764  0.4692
  372MOL0     C50152   5.615   5.806   0.036 -1.0443 -0.3804  0.0616
  372MOL0     H50153   5.137   5.700   0.427 -0.3180  2.8143 -1.6692
  372MOL0     H50154   4.929   5.576   0.430 -0.9126  0.0241 -1.1027
  372MOL0     H50155   4.690   5.452   0.376 -3.5617  0.5207 -0.8092
  372MOL0     H50156   4.718   5.612   0.318 -1.0732 -1.2181  3.0535
  372MOL0     H50157   4.575   5.565   0.116 -1.3372  2.8446  1.4778
  372MOL0     H50158   4.536   5.409   0.171 -0.3695  0.4776 -2.6191
  372MOL0     H50159   4.499   5.622   0.390  0.7221 -1.3998  0.2050
  372MOL0     H50160   4.401   5.644   0.253 -1.1693 -1.4585  0.0884
  372MOL0     H50161   4.356   5.373   0.298 -2.2336 -0.4007  0.1341
  372MOL0     H50162   4.446   5.427   0.451 -0.6803  0.0765  0.1196
  372MOL0     H50163   4.277   5.580   0.502 -1.0479 -0.1785 -0.3401
  372MOL0     H50164   4.204   5.573   0.345 -3.5408  0.5455  1.9247
  372MOL0     H50165   4.206   5.349   0.557  1.3105 -0.2976 -1.0229
  372MOL0     H50166   4.074   5.452   0.510  1.0201  1.7246 -0.5747
  372MOL0     H50167   4.195   5.228   0.339  0.6016  1.2925  1.1144
  372MOL0     H50168   4.034   5.227   0.421 -1.2995 -0.4042 -0.9609
  372MOL0     H50169   4.026   5.266   0.176  0.6741 -0.7723  0.0767
  372MOL0     H50170   4.105   5.419   0.206 -3.1393  2.7152  1.1391
  372MOL0     H50171   3.775   5.253   0.359 -0.8460  1.5895  3.2286
  372MOL0     H50172   3.504   5.363   0.298 -1.0005  0.1723  1.2454
  372MOL0     H50173   3.559   5.376   0.460  2.1156 -4.6008 -2.0491
  372MOL0     H50174   3.495   5.634   0.288  2.8923  1.3577  1.2534
  372MOL0     H50175   3.509   5.614   0.461  2.9105  0.7502 -1.2218
  372MOL0     H50176   3.322   5.446   0.448 -0.5667 -0.0610  1.2974
  372MOL0     H50177   3.288   5.498   0.289  3.2106 -0.4934 -1.2623
  372MOL0     H50178   3.265   5.736   0.370  0.2353  0.0457  1.6109
  372MOL0     H50179   3.301   5.683   0.534  0.7685 -2.1879  0.0642
  372MOL0     H50180   3.147   5.881   0.525 -1.1809  0.2517  0.2308
  372MOL0     H50181   2.993   6.075   0.747  0.4905 -0.8659  0.1025
  372MOL0     H50182   3.097   6.070   0.608 -0.6619  2.0535  0.8470
  372MOL0     H50183   2.923   6.106   0.586  0.2186  0.9900 -0.5474
  372MOL0     H50184   2.409   5.717   0.752  3.1000  0.9988  0.9577
  372MOL0     H50185   2.167   5.802   0.768 -0.7136  0.9272 -0.7069
  372MOL0     H50186   1.976   5.906   0.775 -4.5805  1.7443 -1.8680
  372MOL0     H50187   1.984   6.000   0.930 -4.5909 -0.0904  1.0215
  372MOL0     H50188   1.862   6.191   0.811 -0.8096  1.4131 -0.9249
  372MOL0     H50189   1.855   6.091   0.664 -1.8682  5.0807  0.1826
  372MOL0     H50190   1.733   6.017   0.941 -0.4480 -2.3555 -0.4230
  372MOL0     H50191   1.750   5.908   0.808 -0.6890  1.0911 -3.1945
  372MOL0     H50192   1.582   6.156   0.774 -1.2981 -0.3154 -0.9154
  372MOL0     H50193   1.633   6.053   0.645 -2.0559  3.1613 -0.6649
  372MOL0     H50194   1.454   5.958   0.874 -0.9115  0.8097  0.6273
  372MOL0     H50195   1.530   5.853   0.755  0.6348 -0.0787  1.0279
  372MOL0     H50196   1.372   6.102   0.684  0.5538  0.2859  1.9474
  372MOL0     H50197   1.401   5.973   0.567  1.4205 -1.3072  1.0873
  372MOL0     H50198   1.260   5.830   0.784  2.6664 -0.2305 -0.2382
  372MOL0     H50199   1.228   5.850   0.615 -1.6915  0.3078  1.0603
  372MOL0     H50200   1.117   6.015   0.852  1.0252  2.8773 -0.5653
  372MOL0     H50201   1.043   5.895   0.746  1.5610 -3.0629  0.2754
  372MOL0     H50202   2.324   6.195   0.761 -1.7553 -0.1585 -1.5630
  372MOL0     H50203   2.549   6.120   0.765 -1.5010  1.7823 -1.0468
  372MOL0     H50204   2.727   5.639   0.627 -1.0760  0.1262  0.1796
  372MOL0     H50205   2.902   5.532   0.510  1.9502 -0.2566  0.6598
  372MOL0     H50206   4.988   5.452   0.025  2.1776  0.5818 -0.4245
  372MOL0     H50207   5.221   5.537   0.034  0.0306 -0.2968  0.8287
  372MOL0     H50208   5.567   5.641   0.326  1.0317 -2.0271 -0.9157
  372MOL0     H50209   5.803   5.694   0.353 -0.4326  0.6141 -0.3458
  372MOL0     H50210   5.962   5.977   0.037 -0.1142  4.5802 -0.0939
  372MOL0     H50211   5.940   6.041   0.193  0.9774 -0.7277  0.5270
  372MOL0     H50212   6.160   5.978   0.264 -2.1755 -0.9989  0.6195
  372MOL0     H50213   6.170   6.082   0.122 -2.9823  0.1541  0.2490
  372MOL0     H50214   6.203   5.906  -0.035  2.6190  0.7700 -0.0660
  372MOL0     H50215   6.185   5.779   0.095 -1.1225  0.0381  0.3190
  372MOL0     H50216   6.405   5.854   0.178 -1.3018 -0.5868  0.2095
  372MOL0     H50217   6.407   5.997   0.070  1.1245 -0.6543 -4.2810
  372MOL0     H50218   6.528   5.732  -0.229  1.4409  2.6465 -0.1971
  372MOL0     H50219   5.805   5.881  -0.042  0.0295 -0.7689 -0.2615
  372MOL0     H50220   5.566   5.848  -0.051 -2.9010 -1.2033  0.6473
  373MOL0     O50221   4.457   3.084   2.790 -0.5327 -0.7537  0.0869
  373MOL0     C50222   4.487   3.203   2.796  0.3464 -0.6061 -0.4093
  373MOL0     O50223   4.407   3.301   2.828  0.3456 -0.3530 -0.2358
  373MOL0     C50224   4.280   3.287   2.873 -0.0478 -0.5619  0.6804
  373MOL0     C50225   4.194   3.188   2.821  0.1261  0.7836 -0.6475
  373MOL0     C50226   4.063   3.186   2.859 -0.0907  0.2571 -0.3358
  373MOL0     C50227   4.011   3.282   2.950 -0.3259  0.1038 -0.1253
  373MOL0     O50228   3.881   3.282   2.985  0.2547  0.5191 -0.5392
  373MOL0     C50229   3.780   3.302   2.881 -0.7952 -0.4262  0.4864
  373MOL0     C50230   3.638   3.286   2.933 -0.1927  0.3473  0.1991
  373MOL0     C50231   3.537   3.267   2.827  0.4826  0.3315  0.7858
  373MOL0     C50232   3.394   3.251   2.896 -0.2684 -0.4547 -0.6510
  373MOL0     C50233   3.296   3.223   2.780 -0.3738 -0.0806 -0.2046
  373MOL0     C50234   3.154   3.249   2.827 -0.5840  0.3139 -0.2409
  373MOL0     C50235   3.120   3.400   2.838 -0.3524 -0.6115 -0.1278
  373MOL0     C50236   2.975   3.430   2.792 -0.3304  0.2215 -0.2916
  373MOL0     N50237   2.970   3.453   2.651  0.2988 -0.0435  0.1931
  373MOL0     C50238   3.028   3.551   2.576 -0.2291  0.5435  1.1222
  373MOL0     C50239   2.960   3.536   2.458 -0.4329  0.6963  0.7194
  373MOL0     C50240   2.984   3.624   2.339 -0.3100 -0.3099  0.3319
  373MOL0     C50241   3.017   3.777   2.378 -0.0479  0.2154  0.3363
  373MOL0     C50242   2.911   3.849   2.459  0.0481 -0.3548  0.0876
  373MOL0     C50243   2.773   3.802   2.426  0.5390 -0.6143 -0.7551
  373MOL0     O50244   2.689   3.908   2.477  0.4266 -0.4440 -0.7469
  373MOL0     C50245   2.557   3.906   2.444 -0.3469 -0.9832  0.4811
  373MOL0     C50246   2.504   3.863   2.322  0.0814 -0.5067  0.4595
  373MOL0     C50247   2.369   3.876   2.278  0.3511  0.3311 -0.2746
  373MOL0     C50248   2.331   3.829   2.135 -0.2616  0.3396 -0.7243
  373MOL0     C50249   2.285   3.944   2.373 -0.2599  1.1626  0.6328
  373MOL0     C50250   2.141   3.988   2.326  0.3765  0.1513  0.3368
  373MOL0     O50251   2.048   4.024   2.417 -0.3446  0.6511 -0.0059
  373MOL0     C50252   1.928   4.063   2.369 -0.4560  0.2945 -0.2781
  373MOL0     C50253   1.821   3.989   2.407  0.6077  0.3919 -0.1282
  373MOL0     C50254   1.691   4.035   2.379  0.3343 -0.0211  0.4604
  373MOL0     C50255   1.670   4.159   2.313  0.7937  0.4414 -0.4329
  373MOL0     O50256   1.541   4.193   2.276  0.4894  0.1473  0.1296
  373MOL0     C50257   1.518   4.331   2.248 -0.1738  0.1610 -0.0286
  373MOL0     C50258   1.372   4.354   2.274 -0.1675 -0.3851  0.1041
  373MOL0     C50259   1.340   4.353   2.427  0.8805  0.0678 -0.0230
  373MOL0     C50260   1.190   4.384   2.438 -0.0460  0.0498 -0.0974
  373MOL0     C50261   1.143   4.361   2.581 -0.5211  0.4556  0.7365
  373MOL0     C50262   1.001   4.404   2.610  0.2285 -0.9148 -0.0745
  373MOL0     C50263   0.962   4.328   2.741 -1.0992 -0.0571  0.2645
  373MOL0     C50264   0.837   4.384   2.806 -0.1651  0.8898  0.1234
  373MOL0    Cl50265   0.697   4.323   2.714 -0.6657 -0.5641  0.1547
  373MOL0     C50266   1.777   4.230   2.276  0.3855 -0.7048 -0.0818
  373MOL0     C50267   1.909   4.187   2.309  0.0712  1.0214  0.1258
  373MOL0     O50268   2.119   3.999   2.203 -0.1085  0.1797 -0.1884
  373MOL0     C50269   2.325   3.974   2.499 -0.1713 -0.6022  0.3774
  373MOL0     C50270   2.464   3.959   2.533 -0.2009 -0.0700 -0.3279
  373MOL0     N50271   2.863   3.443   2.470 -0.0842  0.0452 -0.3304
  373MOL0     N50272   2.872   3.389   2.585  0.4598  0.8822  0.2691
  373MOL0     C50273   4.093   3.379   3.007  0.4520 -0.4201  0.4850
  373MOL0     C50274   4.230   3.374   2.970 -0.4185  0.3210 -0.2485
  373MOL0     C50275   4.625   3.246   2.766  0.2162  0.3430  0.0870
  373MOL0     C50276   4.737   3.167   2.804  0.2054 -1.1429 -0.0967
  373MOL0     C50277   4.875   3.199   2.774  0.3045  0.2325 -0.0191
  373MOL0     C50278   4.895   3.318   2.702 -0.0965 -0.0699  0.3564
  373MOL0     O50279   5.031   3.336   2.676  0.5851 -0.3799  0.7616
  373MOL0     C50280   5.062   3.441   2.588  0.1757 -0.2958 -0.0381
  373MOL0     C50281   5.212   3.443   2.566  0.0514  0.2054 -0.0305
  373MOL0     C50282   5.252   3.526   2.439  0.6705 -0.7007  0.0482
  373MOL0     C50283   5.202   3.479   2.302 -0.6009 -0.2006 -0.0675
  373MOL0     C50284   5.127   3.573   2.224 -0.1748 -0.1963  0.4596
  373MOL0     C50285   5.065   3.658   2.172 -0.0537 -0.1202  0.3065
  373MOL0     C50286   4.786   3.398   2.659  0.4194  0.4099  0.0262
  373MOL0     C50287   4.655   3.361   2.689  0.0399 -0.4595 -0.9735
  373MOL0     H50288   4.236   3.118   2.749  0.2555 -0.4386  0.5609
  373MOL0     H50289   4.007   3.100   2.826  3.0860 -2.6466  1.2129
  373MOL0     H50290   3.789   3.397   2.827  1.6228 -0.6312  0.4475
  373MOL0     H50291   3.799   3.222   2.809 -2.1188 -0.3875  0.0657
  373MOL0     H50292   3.638   3.208   3.009 -0.5996 -0.9737 -1.1242
  373MOL0     H50293   3.604   3.373   2.990 -1.5684  1.1794 -1.7717
  373MOL0     H50294   3.532   3.349   2.755 -4.1760 -1.8658 -1.8726
  373MOL0     H50295   3.565   3.177   2.771 -0.0668 -0.4975  1.8022
  373MOL0     H50296   3.382   3.179   2.978  3.9287 -0.0794  0.4963
  373MOL0     H50297   3.380   3.351   2.939  1.2233 -0.1145 -0.9034
  373MOL0     H50298   3.317   3.293   2.698 -1.7842 -2.3618 -2.6970
  373MOL0     H50299   3.312   3.121   2.743  1.2550  0.3559 -0.7708
  373MOL0     H50300   3.079   3.211   2.757 -2.7158  0.4106  1.8665
  373MOL0     H50301   3.143   3.208   2.928 -2.8623  3.8469  1.1559
  373MOL0     H50302   3.130   3.443   2.939  1.3796 -1.1063 -0.0665
  373MOL0     H50303   3.192   3.455   2.777 -1.9958  1.7454 -0.0817
  373MOL0     H50304   2.926   3.511   2.847 -2.2167 -1.6859  1.0071
  373MOL0     H50305   2.914   3.342   2.816  0.2200 -0.0916 -0.0208
  373MOL0     H50306   3.096   3.632   2.599  0.2222  0.5523 -0.1536
  373MOL0     H50307   3.070   3.573   2.295 -0.1336  0.7774 -0.6278
  373MOL0     H50308   2.904   3.611   2.265 -3.0067 -0.7784  3.0882
  373MOL0     H50309   3.027   3.833   2.284  2.2886 -3.6193 -1.9535
  373MOL0     H50310   3.113   3.784   2.431  0.6074  0.7084 -0.8773
  373MOL0     H50311   2.919   3.958   2.449 -3.1804 -0.2110 -2.5698
  373MOL0     H50312   2.914   3.823   2.565 -3.0068 -0.4109  0.2357
  373MOL0     H50313   2.746   3.707   2.472  0.2035 -0.1733 -0.0261
  373MOL0     H50314   2.764   3.800   2.317 -1.4876  2.1379 -0.7333
  373MOL0     H50315   2.571   3.815   2.252  1.2090 -1.9784  2.4516
  373MOL0     H50316   2.231   3.784   2.133  0.2013 -0.7879  0.0694
  373MOL0     H50317   2.336   3.925   2.084 -0.4681  1.7672  1.7711
  373MOL0     H50318   2.398   3.760   2.083  0.8813  1.1452 -0.3474
  373MOL0     H50319   1.824   3.895   2.461  0.1524 -0.5178 -1.6150
  373MOL0     H50320   1.608   3.967   2.393 -0.5870  0.4939 -2.0646
  373MOL0     H50321   1.586   4.400   2.298  2.6785 -1.8233 -0.9225
  373MOL0     H50322   1.533   4.354   2.142  1.3405  1.5994  0.4588
  373MOL0     H50323   1.339   4.450   2.234  0.1982  0.3257  1.4291
  373MOL0     H50324   1.307   4.283   2.221  0.4605  0.6657 -2.1855
  373MOL0     H50325   1.392   4.441   2.468 -0.1084  0.2916  0.7926
  373MOL0     H50326   1.378   4.268   2.485  1.1413 -0.4584 -0.9437
  373MOL0     H50327   1.170   4.481   2.392  0.2146 -0.8018 -2.0972
  373MOL0     H50328   1.131   4.316   2.376 -1.4559  1.4279 -0.3592
  373MOL0     H50329   1.208   4.414   2.652 -1.6438  0.6014  1.6756
  373MOL0     H50330   1.163   4.258   2.612 -4.1344 -0.7774 -0.6246
  373MOL0     H50331   1.000   4.512   2.627  0.2114 -1.2332  2.3345
  373MOL0     H50332   0.939   4.377   2.524  2.9966  1.3899 -2.9879
  373MOL0     H50333   1.038   4.345   2.819 -1.7282  0.9014  0.6886
  373MOL0     H50334   0.955   4.222   2.718  0.0694 -0.0276 -0.3451
  373MOL0     H50335   0.832   4.493   2.813 -0.5166  0.9468 -0.8693
  373MOL0     H50336   0.815   4.330   2.898 -1.8197  1.2373 -0.0434
  373MOL0     H50337   1.770   4.323   2.220  0.2895 -1.9895 -2.3151
  373MOL0     H50338   1.993   4.255   2.303 -1.2968  2.6718 -1.6409
  373MOL0     H50339   2.252   4.019   2.565 -1.1443 -0.1664 -0.9379
  373MOL0     H50340   2.490   3.995   2.632 -0.4466  0.2080 -0.3629
  373MOL0     H50341   4.044   3.456   3.065  0.9191  1.1173 -1.0631
  373MOL0     H50342   4.296   3.456   2.998  0.1402 -0.3541  0.4657
  373MOL0     H50343   4.718   3.074   2.858  0.8522 -0.8684  0.6058
  373MOL0     H50344   4.964   3.151   2.814  1.3828 -1.1778 -3.7349
  373MOL0     H50345   5.011   3.424   2.493  1.0053 -3.0399 -0.0683
  373MOL0     H50346   5.035   3.539   2.628  2.5044  0.9002 -1.1435
  373MOL0     H50347   5.249   3.341   2.564 -0.6218 -0.0312 -0.6330
  373MOL0     H50348   5.270   3.489   2.647  0.4728  0.0847 -0.2653
  373MOL0     H50349   5.362   3.529   2.439  0.6925 -0.5633  1.6289
  373MOL0     H50350   5.212   3.627   2.455 -3.1938 -1.7961 -1.7144
  373MOL0     H50351   5.144   3.389   2.325  1.6424 -1.4392  1.0830
  373MOL0     H50352   5.294   3.455   2.247  1.0923  0.1300  2.4455
  373MOL0     H50353   5.000   3.733   2.131 -2.6074 -3.0678 -1.4993
  373MOL0     H50354   4.810   3.490   2.607  1.1570 -0.1917 -0.7506
  373MOL0     H50355   4.570   3.416   2.648 -1.0348  1.2066  2.9492
  374MOL0     O50356   8.976   1.177   8.405  0.2282  0.0598  0.5006
  374MOL0     C50357   9.000   1.248   8.507  0.0342 -0.1071  0.1731
  374MOL0     O50358   8.899   1.297   8.588 -0.3528 -0.2540 -0.0757
  374MOL0     C50359   8.765   1.314   8.551 -0.0379 -0.4756 -0.4953
  374MOL0     C50360   8.695   1.398   8.640  0.3624 -0.3273 -0.5154
  374MOL0     C50361   8.566   1.430   8.612 -0.9161 -0.1262  0.5724
  374MOL0     C50362   8.490   1.372   8.512  0.2036  0.0783  0.1262
  374MOL0     O50363   8.353   1.374   8.499 -0.1518 -0.6432  0.3669
  374MOL0     C50364   8.265   1.456   8.582 -1.1222 -0.0050 -0.3384
  374MOL0     C50365   8.125   1.408   8.550 -0.3446 -0.5948  0.4381
  374MOL0     C50366   8.023   1.507   8.598 -0.2366  0.2073 -0.3840
  374MOL0     C50367   8.019   1.629   8.502  0.0683 -0.8215  0.2854
  374MOL0     C50368   7.894   1.700   8.528  0.6155 -0.1059 -0.5272
  374MOL0     C50369   7.877   1.747   8.677 -0.3356 -0.1574  0.2888
  374MOL0     C50370   7.739   1.808   8.693 -0.4336 -0.1326 -0.8290
  374MOL0     C50371   7.736   1.867   8.840  0.5993  0.1773  0.4187
  374MOL0     N50372   7.619   1.965   8.863  0.6440  0.1991 -0.1365
  374MOL0     C50373   7.477   1.947   8.835 -0.2320 -0.7160  0.5292
  374MOL0     C50374   7.428   2.067   8.861 -0.4424 -0.1161 -0.1523
  374MOL0     C50375   7.281   2.111   8.843 -0.3171  0.3721  0.4041
  374MOL0     C50376   7.229   2.132   8.984  0.7550 -0.4100 -0.4110
  374MOL0     C50377   7.086   2.183   8.981  0.2323  0.0394  0.6678
  374MOL0     C50378   7.086   2.329   8.951 -0.3177  0.0005 -0.2002
  374MOL0     O50379   6.950   2.388   8.971 -0.6257 -0.1118  0.4258
  374MOL0     C50380   6.914   2.511   8.932 -0.1073  0.0294 -1.0692
  374MOL0     C50381   6.987   2.579   8.837  0.5892 -0.1805  0.8584
  374MOL0     C50382   6.956   2.706   8.795  0.4152 -0.7891 -0.2123
  374MOL0     C50383   7.040   2.783   8.697 -0.5281  0.3746 -0.0215
  374MOL0     C50384   6.844   2.763   8.861  0.0028 -0.3156  0.1852
  374MOL0     C50385   6.796   2.894   8.828  0.4837  0.4227  0.6835
  374MOL0     O50386   6.658   2.899   8.826 -0.3219  0.0485  0.0105
  374MOL0     C50387   6.594   3.018   8.832  0.7239  0.1298  0.1462
  374MOL0     C50388   6.476   3.033   8.753  0.8846 -0.0373 -0.0273
  374MOL0     C50389   6.398   3.153   8.758 -0.3547  0.8810  0.3239
  374MOL0     C50390   6.441   3.266   8.818 -0.2988  0.3898 -0.6493
  374MOL0     O50391   6.356   3.369   8.824 -1.0160  0.0574 -0.8000
  374MOL0     C50392   6.377   3.463   8.932  1.1627  0.7951  0.8524
  374MOL0     C50393   6.271   3.579   8.942 -0.4080  0.1407  0.4914
  374MOL0     C50394   6.288   3.677   8.825 -0.8211 -0.4675  0.1781
  374MOL0     C50395   6.153   3.740   8.788  0.0158 -0.5332  0.2174
  374MOL0     C50396   6.156   3.843   8.669 -0.3118 -0.1113  0.1804
  374MOL0     C50397   6.268   3.945   8.679  0.3443 -0.8577 -0.1687
  374MOL0     C50398   6.271   4.029   8.812 -0.2480 -0.3794 -0.2104
  374MOL0     C50399   6.392   4.123   8.802  0.0893 -0.4996 -0.1384
  374MOL0    Cl50400   6.546   4.047   8.824 -0.0665  0.1164  0.0376
  374MOL0     C50401   6.556   3.255   8.895 -0.1229  0.1408  0.1874
  374MOL0     C50402   6.632   3.133   8.901  1.0210 -0.1887 -0.5929
  374MOL0     O50403   6.868   2.988   8.793  1.1065 -0.5663  0.7539
  374MOL0     C50404   6.772   2.698   8.962 -0.1251 -0.1754  0.1063
  374MOL0     C50405   6.802   2.566   8.990 -0.2445 -0.2923  0.4913
  374MOL0     N50406   7.526   2.154   8.900  0.0768 -0.1619  1.7566
  374MOL0     N50407   7.637   2.087   8.909  0.2137  0.8439 -0.1197
  374MOL0     C50408   8.557   1.288   8.427  0.3570 -0.6246  0.3715
  374MOL0     C50409   8.694   1.259   8.443 -0.0391  0.7336 -0.3762
  374MOL0     C50410   9.140   1.280   8.530  0.0917  0.1254 -0.8728
  374MOL0     C50411   9.178   1.361   8.642 -0.7456  0.3080 -0.2133
  374MOL0     C50412   9.317   1.393   8.657 -0.3257 -0.1280  0.1787
  374MOL0     C50413   9.420   1.336   8.572 -0.0772  0.4229  0.1914
  374MOL0     O50414   9.552   1.380   8.594  0.0138  0.0638 -0.2391
  374MOL0     C50415   9.665   1.317   8.538  0.3811  0.0385 -0.5508
  374MOL0     C50416   9.792   1.374   8.605  0.2223  0.1857  0.2255
  374MOL0     C50417   9.916   1.301   8.576 -0.4650  0.3300 -0.1836
  374MOL0     C50418  10.028   1.399   8.585  0.0116  0.9504  0.5677
  374MOL0     C50419  10.150   1.339   8.547  0.5339 -0.6782 -0.7534
  374MOL0     C50420  10.257   1.285   8.519 -0.3650  0.6095 -0.4578
  374MOL0     C50421   9.382   1.251   8.464  0.0784  0.4326 -1.0346
  374MOL0     C50422   9.244   1.227   8.450  0.4425  0.6017 -0.7227
  374MOL0     H50423   8.737   1.432   8.734  0.2660 -0.8096 -0.2963
  374MOL0     H50424   8.505   1.489   8.679 -1.7213  1.5185 -1.4938
  374MOL0     H50425   8.286   1.432   8.687 -2.0320 -2.1581 -0.6155
  374MOL0     H50426   8.283   1.562   8.558  0.6675 -0.8649 -3.2781
  374MOL0     H50427   8.124   1.400   8.441 -0.1891 -0.6425  0.4405
  374MOL0     H50428   8.115   1.312   8.601 -0.3815 -2.0489 -2.1577
  374MOL0     H50429   7.925   1.462   8.615 -0.0278 -0.0883  0.0740
  374MOL0     H50430   8.067   1.539   8.693  0.8002  0.0840 -0.8114
  374MOL0     H50431   8.104   1.694   8.522 -0.3264  0.6034 -2.1651
  374MOL0     H50432   8.034   1.614   8.394  1.3108 -0.1028  0.3399
  374MOL0     H50433   7.890   1.787   8.462 -0.1865  1.8158  1.8625
  374MOL0     H50434   7.806   1.637   8.510  1.4809 -1.6771  0.4733
  374MOL0     H50435   7.888   1.660   8.743  1.1843  1.0279  1.6664
  374MOL0     H50436   7.959   1.815   8.701  0.1945  0.1077 -1.9798
  374MOL0     H50437   7.731   1.886   8.617  0.9229  1.6611  0.7498
  374MOL0     H50438   7.657   1.737   8.678 -1.1552  0.2947  0.8717
  374MOL0     H50439   7.831   1.914   8.868  0.6010  0.8720 -0.6750
  374MOL0     H50440   7.721   1.784   8.909  1.5892  0.0104  0.4565
  374MOL0     H50441   7.423   1.867   8.785  0.6355 -0.4962 -0.8189
  374MOL0     H50442   7.280   2.207   8.791  2.5279  0.8291  1.0046
  374MOL0     H50443   7.227   2.038   8.782  1.6926  1.0336 -2.4062
  374MOL0     H50444   7.291   2.207   9.034  2.2273 -1.2325 -0.9584
  374MOL0     H50445   7.238   2.035   9.034 -1.1736 -0.3418  0.1431
  374MOL0     H50446   7.031   2.154   9.071  1.7139 -2.3042  0.8774
  374MOL0     H50447   7.028   2.132   8.903  0.3638 -1.0288  1.2492
  374MOL0     H50448   7.120   2.347   8.848  0.2051  0.5837  0.0666
  374MOL0     H50449   7.161   2.375   9.015  0.5110 -3.6370  1.6462
  374MOL0     H50450   7.069   2.528   8.788 -1.2572 -1.0971 -1.4122
  374MOL0     H50451   6.983   2.840   8.623  0.5163  0.4795 -0.7551
  374MOL0     H50452   7.114   2.843   8.751 -0.4739  1.9697 -1.7793
  374MOL0     H50453   7.105   2.725   8.632 -1.3258 -0.8488  0.2394
  374MOL0     H50454   6.442   2.946   8.697  2.2875  1.4105 -3.3907
  374MOL0     H50455   6.296   3.151   8.720  0.0139 -2.2652 -0.7521
  374MOL0     H50456   6.371   3.405   9.024 -1.8329  1.9254  1.5193
  374MOL0     H50457   6.477   3.507   8.938  0.6082  2.0213  1.5565
  374MOL0     H50458   6.172   3.532   8.954 -0.1175 -0.5243  0.3559
  374MOL0     H50459   6.288   3.640   9.031  0.9383  2.5729 -1.3450
  374MOL0     H50460   6.337   3.632   8.738 -1.9336  1.7011 -1.6859
  374MOL0     H50461   6.358   3.754   8.857  0.7389 -1.4874 -0.6718
  374MOL0     H50462   6.083   3.663   8.754 -0.2551  0.3210 -1.2789
  374MOL0     H50463   6.111   3.784   8.878 -0.2583  0.3823 -0.3429
  374MOL0     H50464   6.060   3.890   8.644  1.1048  0.8864 -4.3527
  374MOL0     H50465   6.187   3.785   8.581  1.0479  0.0691  0.5196
  374MOL0     H50466   6.362   3.889   8.674  0.8265 -0.4797  2.9249
  374MOL0     H50467   6.266   4.018   8.597  0.0425 -0.9359 -0.2302
  374MOL0     H50468   6.285   3.964   8.899  0.1975  2.6157  2.1432
  374MOL0     H50469   6.177   4.082   8.829 -0.5677 -1.2160  0.7696
  374MOL0     H50470   6.377   4.185   8.890  0.6445 -2.4453  1.4064
  374MOL0     H50471   6.392   4.175   8.705  3.8118 -0.6006 -0.3399
  374MOL0     H50472   6.593   3.328   8.966  1.1275 -0.6065  0.3370
  374MOL0     H50473   6.729   3.136   8.951  1.2193 -1.1024 -0.9254
  374MOL0     H50474   6.682   2.740   9.006 -1.0059  0.6007 -2.2297
  374MOL0     H50475   6.741   2.513   9.062 -0.5181 -1.7526 -0.7692
  374MOL0     H50476   8.509   1.219   8.358  2.1676 -1.8720  0.2921
  374MOL0     H50477   8.739   1.195   8.368 -0.1911  2.0855 -1.6564
  374MOL0     H50478   9.101   1.405   8.705 -1.1032 -1.8683  0.9345
  374MOL0     H50479   9.353   1.437   8.749  1.0835  1.6796 -1.1588
  374MOL0     H50480   9.668   1.207   8.544  5.8770 -0.0886 -0.3096
  374MOL0     H50481   9.663   1.343   8.432  0.2199 -0.0306 -0.5655
  374MOL0     H50482   9.785   1.360   8.713  1.4584  1.0343  0.4466
  374MOL0     H50483   9.804   1.479   8.576  2.3473 -0.3214 -0.9777
  374MOL0     H50484   9.919   1.253   8.477 -0.3066 -1.2364  0.5482
  374MOL0     H50485   9.935   1.222   8.649  1.8441 -0.2862 -1.3412
  374MOL0     H50486  10.022   1.437   8.687 -0.2937 -1.7109  1.6045
  374MOL0     H50487  10.000   1.480   8.516 -1.7916 -0.9099 -1.0219
  374MOL0     H50488  10.351   1.237   8.497 -1.1536 -1.1115 -0.2212
  374MOL0     H50489   9.455   1.213   8.393 -0.4915 -3.1008  0.0539
  374MOL0     H50490   9.200   1.178   8.364 -1.5920  1.1751 -0.0869
  375MOL0     O50491   5.717  11.088   6.337  0.3277 -0.2626 -0.1476
  375MOL0     C50492   5.743  11.003   6.427  0.3351 -0.2897  0.6960
  375MOL0     O50493   5.662  10.987   6.539  0.0983 -0.3672 -1.1958
  375MOL0     C50494   5.554  11.072   6.562 -0.1218 -0.6874 -1.2408
  375MOL0     C50495   5.568  11.203   6.604 -0.9050  0.2930  0.7658
  375MOL0     C50496   5.457  11.282   6.620  0.2840  0.8453 -0.3287
  375MOL0     C50497   5.332  11.228   6.592 -0.1660  0.1909  1.3777
  375MOL0     O50498   5.212  11.290   6.596 -0.1334 -0.3966  0.5196
  375MOL0     C50499   5.214  11.427   6.640  0.7186  0.2156  0.5474
  375MOL0     C50500   5.068  11.468   6.644  0.4361 -0.4487  1.1507
  375MOL0     C50501   4.979  11.421   6.761 -0.4351  0.9097 -0.5616
  375MOL0     C50502   4.832  11.465   6.754  0.5806  0.2363 -0.7220
  375MOL0     C50503   4.773  11.452   6.904 -0.7106  1.1209  0.8111
  375MOL0     C50504   4.634  11.507   6.889  0.1514  0.1887  1.2046
  375MOL0     C50505   4.585  11.518   7.036  0.4419 -0.2883 -0.0143
  375MOL0     C50506   4.535  11.394   7.101 -0.4894  0.1226  0.0122
  375MOL0     N50507   4.426  11.339   7.026  0.2437  0.6143  0.3184
  375MOL0     C50508   4.291  11.361   7.056  0.8927  0.1417 -0.0517
  375MOL0     C50509   4.222  11.260   6.997 -1.0666 -0.0560  0.1278
  375MOL0     C50510   4.079  11.225   6.998  0.4221 -0.6397 -0.2125
  375MOL0     C50511   4.053  11.106   7.101  0.6405  0.1152 -0.8999
  375MOL0     C50512   3.952  10.992   7.058  0.4693 -0.5274 -0.1536
  375MOL0     C50513   3.813  11.030   7.045 -0.6141  0.0334 -0.1827
  375MOL0     O50514   3.748  10.910   7.032  0.2002 -0.3003  0.1337
  375MOL0     C50515   3.612  10.911   7.059 -0.1587 -0.4117  0.6223
  375MOL0     C50516   3.526  11.024   7.068  0.3070 -0.4704 -0.2037
  375MOL0     C50517   3.390  11.014   7.092  0.3202 -0.3838  0.1190
  375MOL0     C50518   3.309  11.136   7.094  0.7639  0.1572  0.4916
  375MOL0     C50519   3.333  10.887   7.113  0.3453  0.6596  0.1160
  375MOL0     C50520   3.184  10.861   7.134  0.0190  1.0083 -0.8397
  375MOL0     O50521   3.135  10.739   7.078  0.2486 -0.2786  0.0959
  375MOL0     C50522   2.999  10.742   7.052  1.2274 -0.2191  0.9648
  375MOL0     C50523   2.935  10.838   6.979 -0.1138  0.0428  0.3820
  375MOL0     C50524   2.798  10.832   6.950  0.0391 -0.3046 -0.8746
  375MOL0     C50525   2.717  10.730   6.998 -1.0994  0.1983 -0.5159
  375MOL0     O50526   2.590  10.733   6.963 -0.4466 -0.3620 -0.4079
  375MOL0     C50527   2.498  10.642   7.020 -0.6080 -0.3026  0.0508
  375MOL0     C50528   2.363  10.638   6.951  0.1807  0.2556 -0.2554
  375MOL0     C50529   2.289  10.773   6.959 -0.3364 -0.2707 -0.2849
  375MOL0     C50530   2.172  10.774   6.869 -0.1140 -0.1982  0.4942
  375MOL0     C50531   2.111  10.907   6.873  0.0365 -0.3360  0.2105
  375MOL0     C50532   2.038  10.930   6.745  0.0248  0.2772 -0.3608
  375MOL0     C50533   1.949  11.047   6.766  0.4045  0.0242  0.7997
  375MOL0     C50534   1.902  11.083   6.625 -0.1999 -0.6445  0.6069
  375MOL0    Cl50535   1.783  10.974   6.564 -0.1945  0.3486  0.2923
  375MOL0     C50536   2.785  10.637   7.080  0.2056  0.0905  0.0560
  375MOL0     C50537   2.921  10.636   7.102 -0.3809 -0.6338 -0.2983
  375MOL0     O50538   3.120  10.933   7.206  0.6864  0.0415  0.2584
  375MOL0     C50539   3.412  10.771   7.106 -0.0133 -0.0344  0.1602
  375MOL0     C50540   3.550  10.784   7.082  0.1453  0.0525  0.5648
  375MOL0     N50541   4.321  11.189   6.921  0.5815 -0.1229 -0.3873
  375MOL0     N50542   4.436  11.240   6.939  0.7345 -0.4848 -0.5728
  375MOL0     C50543   5.315  11.096   6.555 -0.4368 -0.1030 -0.8347
  375MOL0     C50544   5.430  11.017   6.542 -0.1211  0.0003 -0.4850
  375MOL0     C50545   5.859  10.916   6.394 -0.0148  0.1058 -0.1818
  375MOL0     C50546   5.970  10.961   6.325  0.2700  0.2209  0.1023
  375MOL0     C50547   6.080  10.874   6.299  0.7047 -0.0808  0.4501
  375MOL0     C50548   6.075  10.741   6.349 -0.7172  0.2327  0.9202
  375MOL0     O50549   6.179  10.651   6.342 -0.1799  0.0051  0.0402
  375MOL0     C50550   6.300  10.687   6.266  1.3080 -0.2465  0.2461
  375MOL0     C50551   6.413  10.580   6.279  0.4861  0.4918  0.2680
  375MOL0     C50552   6.542  10.620   6.197 -0.9881 -0.1634  0.1975
  375MOL0     C50553   6.638  10.501   6.203 -0.6377 -0.3123  0.2378
  375MOL0     C50554   6.718  10.507   6.326  0.6986 -0.3628 -0.1492
  375MOL0     C50555   6.776  10.501   6.436  0.4387  0.0834  0.3315
  375MOL0     C50556   5.967  10.699   6.418  0.4692  0.4712 -0.4666
  375MOL0     C50557   5.850  10.783   6.433 -0.4205  0.4046  0.1137
  375MOL0     H50558   5.671  11.233   6.619 -1.2338  0.3308  3.3561
  375MOL0     H50559   5.474  11.385   6.651 -1.4646  0.9804  0.3079
  375MOL0     H50560   5.275  11.438   6.730  0.1615  0.3443  0.9122
  375MOL0     H50561   5.258  11.473   6.551 -0.2341 -0.5376 -0.3424
  375MOL0     H50562   5.055  11.577   6.639 -2.9862 -0.7550  0.7847
  375MOL0     H50563   5.023  11.434   6.550  3.3283 -0.5598 -0.2906
  375MOL0     H50564   4.980  11.313   6.744  1.7079  0.9994 -1.2685
  375MOL0     H50565   5.028  11.432   6.858  1.7477  0.6182 -1.5533
  375MOL0     H50566   4.831  11.569   6.719  1.5148 -0.5489 -3.3498
  375MOL0     H50567   4.780  11.401   6.682 -2.0522  0.0765  1.1972
  375MOL0     H50568   4.769  11.344   6.924 -0.5758  0.5239 -1.9873
  375MOL0     H50569   4.837  11.512   6.969 -0.1382  0.6508  0.6879
  375MOL0     H50570   4.643  11.607   6.846  4.9271  0.2288  1.8021
  375MOL0     H50571   4.574  11.443   6.824  0.4303 -1.4861  2.5289
  375MOL0     H50572   4.672  11.539   7.100 -0.1141 -0.5396  0.8328
  375MOL0     H50573   4.511  11.598   7.046 -0.5069 -0.8815 -1.9121
  375MOL0     H50574   4.509  11.403   7.207  0.1523 -0.9943  0.2831
  375MOL0     H50575   4.612  11.316   7.096 -2.1907 -1.5793 -0.7526
  375MOL0     H50576   4.235  11.434   7.114 -0.4149 -1.2660  0.5252
  375MOL0     H50577   4.040  11.318   7.040  1.2768  0.6084 -2.0465
  375MOL0     H50578   4.053  11.208   6.893  2.2048 -0.2713 -0.7558
  375MOL0     H50579   4.011  11.138   7.196 -0.2086 -1.3502 -0.7547
  375MOL0     H50580   4.151  11.063   7.124  1.3581  2.4601  0.8246
  375MOL0     H50581   3.957  10.916   7.136 -0.2372 -0.4048  0.0170
  375MOL0     H50582   3.981  10.951   6.960  1.2727 -0.7912  0.1911
  375MOL0     H50583   3.793  11.092   6.956  2.0548  2.4264  0.7246
  375MOL0     H50584   3.784  11.086   7.135 -1.6784  0.6176 -0.8538
  375MOL0     H50585   3.563  11.125   7.057  0.5383 -0.5737 -0.3760
  375MOL0     H50586   3.268  11.167   7.190  1.4827  4.0160 -0.2796
  375MOL0     H50587   3.358  11.231   7.070 -0.2275  0.8029  0.9889
  375MOL0     H50588   3.221  11.118   7.031 -1.7982 -1.5605  4.2082
  375MOL0     H50589   2.978  10.925   6.929  0.1059 -1.3374 -1.9995
  375MOL0     H50590   2.752  10.909   6.889 -1.3800  1.1688  1.8584
  375MOL0     H50591   2.538  10.541   7.006  0.2980  0.2505 -1.4679
  375MOL0     H50592   2.479  10.654   7.127 -1.5637 -2.1498  0.1426
  375MOL0     H50593   2.371  10.596   6.850  0.1540  2.0068 -1.0179
  375MOL0     H50594   2.293  10.570   7.000  3.1685 -1.0127  2.6194
  375MOL0     H50595   2.370  10.845   6.944 -0.1696 -0.8437 -2.4038
  375MOL0     H50596   2.261  10.781   7.064 -0.6798 -0.6648 -0.3423
  375MOL0     H50597   2.197  10.754   6.765 -0.6554  1.4541  0.0182
  375MOL0     H50598   2.105  10.691   6.891  0.4933 -0.8160  0.0440
  375MOL0     H50599   2.193  10.979   6.880  0.2332 -0.5808  0.4727
  375MOL0     H50600   2.055  10.920   6.965  1.6387 -0.5663  1.2562
  375MOL0     H50601   2.117  10.941   6.671  0.4737 -0.7747 -0.0606
  375MOL0     H50602   1.986  10.836   6.725 -0.1284  0.4327 -0.6993
  375MOL0     H50603   2.016  11.128   6.794  0.0779  0.0967  1.3896
  375MOL0     H50604   1.863  11.023   6.830 -0.4496 -0.7100 -0.5587
  375MOL0     H50605   1.981  11.088   6.550  1.0707 -0.0111  1.9468
  375MOL0     H50606   1.855  11.182   6.624 -0.6541 -0.8547  0.4249
  375MOL0     H50607   2.735  10.559   7.136  0.9794 -0.4070  0.0605
  375MOL0     H50608   2.964  10.557   7.163 -1.9396 -0.9744  0.4233
  375MOL0     H50609   3.372  10.671   7.119 -0.7577  0.0855 -0.9933
  375MOL0     H50610   3.606  10.693   7.063 -0.5869 -0.4850  0.9323
  375MOL0     H50611   5.218  11.058   6.528 -0.3495 -0.6044 -0.4520
  375MOL0     H50612   5.415  10.914   6.511 -1.1157  1.1691 -4.4284
  375MOL0     H50613   5.971  11.063   6.287 -0.4056 -0.1405 -0.9016
  375MOL0     H50614   6.162  10.924   6.248  0.2112  0.9590  0.6451
  375MOL0     H50615   6.273  10.681   6.160  0.9526 -0.8830  0.3613
  375MOL0     H50616   6.333  10.788   6.289  1.4274 -0.2496  0.0885
  375MOL0     H50617   6.366  10.485   6.253  1.4795 -0.2503  1.0768
  375MOL0     H50618   6.443  10.574   6.384 -0.0066 -0.7699  0.3613
  375MOL0     H50619   6.582  10.712   6.239  1.6039 -2.2994  2.9308
  375MOL0     H50620   6.521  10.648   6.093 -0.5158 -0.6648 -0.0418
  375MOL0     H50621   6.704  10.521   6.119 -1.8032  0.2133 -0.5859
  375MOL0     H50622   6.595  10.401   6.190  1.6932 -1.2411 -0.8412
  375MOL0     H50623   6.832  10.509   6.526 -1.4591 -1.9002  1.8016
  375MOL0     H50624   5.972  10.600   6.462  2.7314  0.6205 -0.3099
  375MOL0     H50625   5.769  10.757   6.499  0.6247 -1.4233  0.7434
  376MOL0     O50626   7.861   7.511   5.667 -0.1132 -0.3932  0.3350
  376MOL0     C50627   7.896   7.612   5.728  0.1984  0.0053 -0.5815
  376MOL0     O50628   7.835   7.742   5.728  0.4396  0.4076 -0.4928
  376MOL0     C50629   7.702   7.761   5.685 -0.3583  0.8815 -0.7849
  376MOL0     C50630   7.603   7.813   5.768 -0.1486  1.0312  0.4055
  376MOL0     C50631   7.475   7.838   5.719  0.3184 -0.1551  0.2077
  376MOL0     C50632   7.443   7.805   5.587 -0.1063  0.4880 -0.1482
  376MOL0     O50633   7.312   7.808   5.544 -0.1594 -0.1426  0.3692
  376MOL0     C50634   7.282   7.898   5.435 -0.1558 -0.9391  0.1797
  376MOL0     C50635   7.155   7.844   5.368 -0.2557  0.2109  0.1211
  376MOL0     C50636   7.065   7.952   5.307  0.3288 -0.0086 -0.9827
  376MOL0     C50637   6.998   8.050   5.412 -0.1606  0.0642 -0.3099
  376MOL0     C50638   6.997   8.193   5.363  0.1431 -0.0773  0.3257
  376MOL0     C50639   7.135   8.271   5.362  0.3458  0.9058 -0.6514
  376MOL0     C50640   7.127   8.423   5.361  0.7356 -0.4377  0.2449
  376MOL0     C50641   7.271   8.479   5.364 -0.4225 -0.3892  0.3669
  376MOL0     N50642   7.345   8.441   5.484 -0.5913 -0.6358 -0.2328
  376MOL0     C50643   7.309   8.478   5.612 -0.1944 -0.1959  0.0666
  376MOL0     C50644   7.385   8.399   5.692 -1.2992 -0.2160  1.2055
  376MOL0     C50645   7.366   8.371   5.838 -0.2961 -0.6404 -1.1587
  376MOL0     C50646   7.490   8.344   5.922 -0.5438  0.5296  0.3412
  376MOL0     C50647   7.559   8.221   5.854 -0.5811 -0.1001  0.5022
  376MOL0     C50648   7.639   8.146   5.963  0.6399 -0.8439 -0.5413
  376MOL0     O50649   7.743   8.238   6.002  0.1788 -0.6030  0.5880
  376MOL0     C50650   7.857   8.187   6.060 -0.3873 -0.4079 -0.4751
  376MOL0     C50651   7.977   8.249   6.029  0.4562 -0.0735  0.1323
  376MOL0     C50652   8.104   8.208   6.075 -0.1177 -0.0457  0.5712
  376MOL0     C50653   8.224   8.291   6.054 -0.2960 -0.1964 -0.4855
  376MOL0     C50654   8.114   8.087   6.151  0.4907 -0.2391 -0.0384
  376MOL0     C50655   8.240   8.030   6.220 -0.0620 -0.0384  0.1428
  376MOL0     O50656   8.220   7.911   6.281  0.0757  0.0449  0.4161
  376MOL0     C50657   8.328   7.855   6.332  0.1018 -0.2522 -0.6415
  376MOL0     C50658   8.429   7.810   6.258  0.0271 -1.0355  0.2861
  376MOL0     C50659   8.526   7.737   6.315  0.0642 -0.0741  0.2533
  376MOL0     C50660   8.542   7.719   6.453  0.1806 -0.9869  0.5804
  376MOL0     O50661   8.651   7.669   6.513 -0.4934 -0.4088  0.6072
  376MOL0     C50662   8.780   7.716   6.459 -0.2572 -0.4716  0.8851
  376MOL0     C50663   8.909   7.649   6.516  0.6741  0.2736  0.5344
  376MOL0     C50664   8.963   7.717   6.645  0.1782 -0.0993  0.1249
  376MOL0     C50665   9.037   7.856   6.610 -0.6176 -0.0606  0.3624
  376MOL0     C50666   9.153   7.905   6.704 -0.2541  0.1717 -0.7148
  376MOL0     C50667   9.256   7.803   6.724 -0.4211 -0.0655 -0.4797
  376MOL0     C50668   9.329   7.770   6.596 -0.0076 -0.7499 -0.8297
  376MOL0     C50669   9.438   7.662   6.603  0.0005 -0.0863 -1.2295
  376MOL0    Cl50670   9.561   7.682   6.477  0.0100  0.2788 -0.0595
  376MOL0     C50671   8.433   7.752   6.534 -0.4803 -0.6476  0.0647
  376MOL0     C50672   8.333   7.819   6.471  0.2140 -1.4818  0.3689
  376MOL0     O50673   8.344   8.101   6.227  0.1809 -0.4152 -0.8165
  376MOL0     C50674   7.990   8.025   6.182 -0.1385 -0.2117  0.2811
  376MOL0     C50675   7.867   8.073   6.129  0.3862  0.4703  0.5216
  376MOL0     N50676   7.453   8.311   5.607  0.2124 -0.1405  0.0620
  376MOL0     N50677   7.432   8.335   5.487 -0.0576 -0.0722 -0.2396
  376MOL0     C50678   7.543   7.749   5.503 -0.1368 -0.3645 -0.8519
  376MOL0     C50679   7.672   7.730   5.556 -0.2066  0.0160  0.0382
  376MOL0     C50680   8.017   7.595   5.813 -0.1502 -0.1604 -0.3364
  376MOL0     C50681   8.100   7.489   5.798  0.1187 -0.1532  0.3415
  376MOL0     C50682   8.203   7.463   5.885 -0.4600 -0.1449 -0.3860
  376MOL0     C50683   8.233   7.540   5.995 -0.8800  0.6599 -0.0527
  376MOL0     O50684   8.337   7.513   6.084 -0.5695 -0.6593 -0.0940
  376MOL0     C50685   8.397   7.387   6.090 -0.3874 -0.6888  0.0025
  376MOL0     C50686   8.548   7.399   6.138  0.8781  0.5931  0.3796
  376MOL0     C50687   8.636   7.478   6.036  0.9024 -0.0564  0.2764
  376MOL0     C50688   8.778   7.487   6.102 -0.2822  0.5109 -0.5637
  376MOL0     C50689   8.843   7.604   6.054  0.1608 -0.5859  0.0266
  376MOL0     C50690   8.893   7.709   6.009  0.5348  0.3920 -0.1050
  376MOL0     C50691   8.169   7.658   5.999  0.6048 -0.6041  0.1423
  376MOL0     C50692   8.062   7.684   5.920  0.1326  0.3985  0.1149
  376MOL0     H50693   7.635   7.831   5.869  1.2004 -2.4496  0.7234
  376MOL0     H50694   7.396   7.881   5.780 -0.7482  1.2358 -2.0155
  376MOL0     H50695   7.261   7.999   5.471  0.8467 -0.5525 -0.2773
  376MOL0     H50696   7.370   7.906   5.370 -0.3302 -0.9661 -0.0581
  376MOL0     H50697   7.193   7.781   5.287 -2.4537  1.2728 -1.8364
  376MOL0     H50698   7.096   7.782   5.436  0.2444 -0.3969  0.0158
  376MOL0     H50699   7.116   8.005   5.226 -0.5753  1.8253 -0.4117
  376MOL0     H50700   6.986   7.887   5.267 -2.6567 -0.0996  4.0919
  376MOL0     H50701   6.894   8.020   5.430 -0.4356  1.1276 -0.0792
  376MOL0     H50702   7.044   8.030   5.509 -1.9876 -2.3954  0.1599
  376MOL0     H50703   6.948   8.201   5.266  1.9810 -1.3369 -0.7688
  376MOL0     H50704   6.937   8.246   5.437 -2.6425 -3.9823  1.1421
  376MOL0     H50705   7.192   8.234   5.446 -0.1778 -1.9362 -1.4461
  376MOL0     H50706   7.196   8.238   5.277 -1.3089 -2.5590 -0.6640
  376MOL0     H50707   7.084   8.463   5.269  1.5212  0.1452  0.1255
  376MOL0     H50708   7.075   8.458   5.450  1.7216 -2.7220  1.8127
  376MOL0     H50709   7.276   8.588   5.357  4.9810 -0.4028 -1.0158
  376MOL0     H50710   7.321   8.436   5.276  1.0737 -1.4176  1.6689
  376MOL0     H50711   7.227   8.546   5.634  0.1000  0.0592  0.3956
  376MOL0     H50712   7.325   8.467   5.872  0.8436  0.1458 -1.9287
  376MOL0     H50713   7.308   8.280   5.851 -0.8259 -0.0746  0.8465
  376MOL0     H50714   7.453   8.322   6.023 -3.4597  0.9194 -0.5442
  376MOL0     H50715   7.551   8.433   5.937 -3.5711  2.3077  3.5931
  376MOL0     H50716   7.626   8.254   5.774 -2.2450  0.9581 -0.5082
  376MOL0     H50717   7.485   8.149   5.818  1.4929 -1.2024 -1.8382
  376MOL0     H50718   7.685   8.056   5.920  1.0246 -1.5262  1.2000
  376MOL0     H50719   7.573   8.126   6.048  1.4383  3.4315  1.3076
  376MOL0     H50720   7.968   8.333   5.961  0.7955  0.0131  0.1913
  376MOL0     H50721   8.253   8.342   6.146 -1.1740  0.1809 -0.4027
  376MOL0     H50722   8.308   8.235   6.012  0.8658  1.4328 -0.4344
  376MOL0     H50723   8.201   8.370   5.981 -0.2584  0.5753  0.3144
  376MOL0     H50724   8.440   7.823   6.151  0.3188 -0.5877  0.3704
  376MOL0     H50725   8.606   7.693   6.258  0.7836 -0.1251  1.2845
  376MOL0     H50726   8.784   7.692   6.353  1.0157 -0.1104  0.8412
  376MOL0     H50727   8.788   7.825   6.462 -1.2977 -0.2887 -1.4143
  376MOL0     H50728   8.883   7.546   6.542  2.0601 -0.1203  0.3977
  376MOL0     H50729   8.996   7.645   6.451  0.4171 -1.4207  0.2695
  376MOL0     H50730   9.036   7.643   6.679  0.1516 -0.1975 -0.0279
  376MOL0     H50731   8.880   7.742   6.711 -0.2564  1.4256 -0.9484
  376MOL0     H50732   9.079   7.843   6.510 -0.5656  0.7078  0.2837
  376MOL0     H50733   8.969   7.941   6.609 -2.7974 -1.6776 -1.1851
  376MOL0     H50734   9.111   7.932   6.801 -0.9357  2.3533 -1.5353
  376MOL0     H50735   9.203   7.998   6.672  0.1032  1.4439  3.0194
  376MOL0     H50736   9.325   7.840   6.800  2.0814  1.0970 -3.1206
  376MOL0     H50737   9.202   7.714   6.758 -1.1363  0.6800  0.3689
  376MOL0     H50738   9.375   7.865   6.569 -5.6469  3.3330  1.8230
  376MOL0     H50739   9.265   7.747   6.509 -0.0024 -0.2924 -0.9577
  376MOL0     H50740   9.392   7.562   6.598 -1.1908  0.3439  0.3709
  376MOL0     H50741   9.484   7.675   6.702  1.6814 -1.0240 -1.8420
  376MOL0     H50742   8.431   7.745   6.642  0.0197  0.7271  0.1766
  376MOL0     H50743   8.250   7.856   6.530  0.2883 -1.2360  0.3211
  376MOL0     H50744   7.982   7.936   6.244  0.8236 -0.7262 -0.3097
  376MOL0     H50745   7.780   8.013   6.155  1.1531 -0.2111  1.6078
  376MOL0     H50746   7.526   7.734   5.397  1.8053  0.3304 -1.2950
  376MOL0     H50747   7.741   7.689   5.483 -0.7945 -1.7493  0.4062
  376MOL0     H50748   8.070   7.415   5.724 -0.2250  1.6029 -1.3734
  376MOL0     H50749   8.262   7.374   5.868  0.8220  0.8385 -1.2929
  376MOL0     H50750   8.343   7.325   6.163 -0.9338  1.0539  1.1209
  376MOL0     H50751   8.394   7.331   5.996 -1.0887 -1.0661  0.2401
  376MOL0     H50752   8.580   7.295   6.143 -1.7438 -0.3254 -0.1158
  376MOL0     H50753   8.549   7.456   6.231 -0.8477  0.2084  0.6801
  376MOL0     H50754   8.603   7.581   6.018  0.5269  0.3966  3.0140
  376MOL0     H50755   8.638   7.430   5.938 -1.5488  1.4782 -0.6111
  376MOL0     H50756   8.831   7.397   6.068 -0.6089 -1.4724  3.5523
  376MOL0     H50757   8.771   7.491   6.211 -0.2286  2.1986 -0.6064
  376MOL0     H50758   8.931   7.803   5.972  0.8958  0.1726 -0.3009
  376MOL0     H50759   8.195   7.733   6.073 -0.5202 -0.5898  0.5392
  376MOL0     H50760   8.001   7.770   5.945 -0.6346 -0.2533  0.5461
  377MOL0     O50761   8.749   0.713   5.424  0.3969  0.2050 -0.2968
  377MOL0     C50762   8.840   0.714   5.503 -0.3933  0.3342 -0.6598
  377MOL0     O50763   8.830   0.703   5.637 -0.6731 -0.3006  0.2344
  377MOL0     C50764   8.716   0.700   5.707 -0.1650 -0.4877 -0.0102
  377MOL0     C50765   8.592   0.654   5.669  0.5927 -0.0629  0.1109
  377MOL0     C50766   8.471   0.664   5.751  0.2629 -0.5861 -0.0298
  377MOL0     C50767   8.484   0.702   5.885  0.4413  0.2382  1.0802
  377MOL0     O50768   8.371   0.714   5.968 -0.7879  0.6084 -0.0912
  377MOL0     C50769   8.251   0.649   5.929  0.6793 -0.2533  0.1785
  377MOL0     C50770   8.160   0.661   6.043 -0.5026 -0.6864  0.0940
  377MOL0     C50771   8.035   0.585   6.004  0.4550 -0.3767  0.5823
  377MOL0     C50772   7.944   0.606   6.125  0.2883  0.5716  0.1601
  377MOL0     C50773   7.800   0.571   6.110 -0.1866 -0.2867  0.5237
  377MOL0     C50774   7.712   0.587   6.233  0.2202 -0.4573 -0.8100
  377MOL0     C50775   7.567   0.524   6.237 -0.2567 -0.2760 -0.4369
  377MOL0     C50776   7.480   0.555   6.123  0.2751  0.8194 -0.0942
  377MOL0     N50777   7.472   0.706   6.099  1.1377 -0.0622  0.5423
  377MOL0     C50778   7.398   0.797   6.175  0.3750 -0.1136  0.6401
  377MOL0     C50779   7.414   0.919   6.118 -0.5002 -0.0587 -0.7120
  377MOL0     C50780   7.360   1.046   6.175  0.3169 -0.5073 -0.3160
  377MOL0     C50781   7.325   1.136   6.058 -0.3084 -0.3551  0.6823
  377MOL0     C50782   7.262   1.266   6.099 -0.6153 -0.6862 -0.4598
  377MOL0     C50783   7.142   1.258   6.192 -0.2400  0.7893 -1.0743
  377MOL0     O50784   7.062   1.381   6.178 -0.1209 -0.0666 -0.2716
  377MOL0     C50785   6.940   1.383   6.223  0.1983 -0.2453 -0.3519
  377MOL0     C50786   6.877   1.284   6.301  0.2373  0.4033  0.4142
  377MOL0     C50787   6.747   1.285   6.340  0.3673  0.2558  0.4870
  377MOL0     C50788   6.702   1.169   6.418  0.1724  0.0520 -0.3574
  377MOL0     C50789   6.662   1.393   6.305  0.9947  0.1220  0.4640
  377MOL0     C50790   6.517   1.402   6.338 -1.0532 -0.1338  0.5820
  377MOL0     O50791   6.482   1.357   6.463  0.3123  0.1008  0.1740
  377MOL0     C50792   6.348   1.330   6.497  0.1209  0.7778 -0.1682
  377MOL0     C50793   6.275   1.435   6.571 -0.2175 -0.2569  0.3538
  377MOL0     C50794   6.144   1.404   6.618 -0.2980 -0.1006  0.1367
  377MOL0     C50795   6.084   1.281   6.596 -0.4345  0.0171 -0.0780
  377MOL0     O50796   5.964   1.243   6.643 -0.0259  0.1717  0.2200
  377MOL0     C50797   5.859   1.280   6.551 -0.1164  1.3050 -0.0757
  377MOL0     C50798   5.716   1.261   6.610 -0.1337  0.7168  0.6462
  377MOL0     C50799   5.611   1.329   6.531  0.5142  0.0348 -1.2694
  377MOL0     C50800   5.468   1.335   6.593  0.2765 -0.1922  0.6970
  377MOL0     C50801   5.380   1.424   6.515 -0.4272 -0.7166  0.3914
  377MOL0     C50802   5.232   1.394   6.547  0.3757 -0.1624 -0.2183
  377MOL0     C50803   5.143   1.482   6.458  0.0798  0.2238 -0.3372
  377MOL0     C50804   5.002   1.468   6.490 -0.2918  0.0684  0.9145
  377MOL0    Cl50805   4.916   1.631   6.469  0.2872 -0.2465 -0.3101
  377MOL0     C50806   6.161   1.186   6.539  0.2737 -0.0778 -0.7213
  377MOL0     C50807   6.288   1.211   6.488 -0.3840 -0.2622  0.5162
  377MOL0     O50808   6.443   1.462   6.257  0.1720  0.3099 -0.2027
  377MOL0     C50809   6.724   1.507   6.250 -0.1526  0.0102  0.0003
  377MOL0     C50810   6.866   1.502   6.211 -0.5386 -0.0314 -0.0559
  377MOL0     N50811   7.487   0.897   6.002  0.3680  0.8773  0.0953
  377MOL0     N50812   7.526   0.774   5.996  0.2568 -0.4273  1.0482
  377MOL0     C50813   8.608   0.754   5.920 -0.0522  0.6248  0.1244
  377MOL0     C50814   8.722   0.751   5.834  1.0364 -0.7340  0.4635
  377MOL0     C50815   8.970   0.758   5.444  0.3214  0.5297  0.1691
  377MOL0     C50816   9.018   0.712   5.310  0.1653 -0.2016  0.2506
  377MOL0     C50817   9.147   0.755   5.264 -0.5560  0.1659 -0.7511
  377MOL0     C50818   9.228   0.841   5.351  0.2138  0.6079  0.0156
  377MOL0     O50819   9.343   0.901   5.302 -0.0285 -0.6442 -0.4795
  377MOL0     C50820   9.458   0.828   5.359  1.1858 -0.4137  0.4932
  377MOL0     C50821   9.578   0.819   5.265 -0.4447 -0.5145 -0.3854
  377MOL0     C50822   9.645   0.961   5.244 -1.3799  0.7331 -0.1935
  377MOL0     C50823   9.717   1.025   5.372 -0.9586 -0.0605 -0.4841
  377MOL0     C50824   9.829   0.939   5.422  0.0694  0.3892  0.5819
  377MOL0     C50825   9.917   0.875   5.460  0.1185 -0.2695 -0.2419
  377MOL0     C50826   9.187   0.880   5.477  0.9823 -1.0067  0.3268
  377MOL0     C50827   9.057   0.838   5.527  0.0413 -0.0465  0.7023
  377MOL0     H50828   8.576   0.605   5.574 -3.3689  1.4656 -0.2027
  377MOL0     H50829   8.380   0.629   5.702 -0.3817  0.0994  0.6484
  377MOL0     H50830   8.203   0.705   5.848 -3.9384  0.0060  2.7407
  377MOL0     H50831   8.275   0.546   5.901 -0.8138 -1.1794  2.0232
  377MOL0     H50832   8.205   0.612   6.130 -0.4666 -0.5658  0.1430
  377MOL0     H50833   8.153   0.764   6.078 -1.5582 -0.6524 -0.1774
  377MOL0     H50834   7.983   0.625   5.917  0.0615  1.9562  1.8030
  377MOL0     H50835   8.062   0.480   5.993  0.7542 -0.2567  0.1596
  377MOL0     H50836   7.997   0.548   6.201  3.1108  2.7677  0.0207
  377MOL0     H50837   7.949   0.711   6.155 -0.5819 -0.0460  2.7292
  377MOL0     H50838   7.760   0.633   6.029 -1.1037 -2.1494 -0.5322
  377MOL0     H50839   7.788   0.465   6.083  0.9794  0.0924 -1.7224
  377MOL0     H50840   7.774   0.536   6.307  1.7253 -0.4366 -1.9989
  377MOL0     H50841   7.709   0.695   6.251 -2.2526 -0.6090 -0.0355
  377MOL0     H50842   7.587   0.417   6.245 -0.7316 -0.3334  0.0758
  377MOL0     H50843   7.525   0.566   6.329 -0.0233 -2.0790  0.5346
  377MOL0     H50844   7.379   0.516   6.141  0.3975  0.9986  1.0776
  377MOL0     H50845   7.520   0.503   6.035  2.4972  0.9783  0.7474
  377MOL0     H50846   7.342   0.775   6.265  0.3533 -0.6499  0.4995
  377MOL0     H50847   7.273   1.019   6.236 -1.7126  1.2350 -2.2959
  377MOL0     H50848   7.438   1.086   6.241  1.8831 -1.8319 -1.2823
  377MOL0     H50849   7.263   1.080   5.988  1.1635 -1.0791 -0.0763
  377MOL0     H50850   7.423   1.161   6.016 -1.0500  1.8804  0.1068
  377MOL0     H50851   7.226   1.317   6.008 -0.5402  0.7544  0.2814
  377MOL0     H50852   7.335   1.326   6.155 -0.9808 -0.3698 -0.3211
  377MOL0     H50853   7.175   1.250   6.296 -2.2786  0.3129 -0.4064
  377MOL0     H50854   7.077   1.174   6.165 -0.2691  0.0397  1.1132
  377MOL0     H50855   6.928   1.190   6.322  2.1903  1.4929  0.8037
  377MOL0     H50856   6.623   1.123   6.358 -0.8227 -0.0966  1.0272
  377MOL0     H50857   6.770   1.087   6.443 -0.2025  0.2335  1.3420
  377MOL0     H50858   6.662   1.199   6.515  2.7045 -1.7417  1.3492
  377MOL0     H50859   6.325   1.531   6.581  0.9550 -0.8508  0.3444
  377MOL0     H50860   6.093   1.487   6.666 -0.3645  0.8314 -1.4836
  377MOL0     H50861   5.860   1.382   6.511 -1.8955  1.1789 -0.5342
  377MOL0     H50862   5.874   1.220   6.461 -0.7950  1.5845 -0.3845
  377MOL0     H50863   5.693   1.155   6.618 -1.4403  1.0211  1.0569
  377MOL0     H50864   5.720   1.307   6.709  1.9311  2.2762 -0.0820
  377MOL0     H50865   5.591   1.283   6.434  0.7542  1.6932 -2.1471
  377MOL0     H50866   5.653   1.429   6.514 -1.1362  1.0319  0.2316
  377MOL0     H50867   5.417   1.238   6.593  1.3179 -0.7757  1.9893
  377MOL0     H50868   5.488   1.367   6.696  2.6240 -2.4801  1.0403
  377MOL0     H50869   5.392   1.395   6.410  1.8841 -1.9120  0.8989
  377MOL0     H50870   5.401   1.531   6.514 -2.6088 -0.0210 -4.7613
  377MOL0     H50871   5.207   1.290   6.525  1.2770 -0.1875 -1.2232
  377MOL0     H50872   5.208   1.420   6.650 -1.4704  1.1378 -0.9294
  377MOL0     H50873   5.162   1.442   6.358  3.4110  2.4273 -0.7518
  377MOL0     H50874   5.172   1.588   6.457 -1.5507  0.6994 -1.3694
  377MOL0     H50875   4.994   1.447   6.597 -2.5632  0.7606  0.9479
  377MOL0     H50876   4.945   1.395   6.432  0.7584  0.0050 -0.0731
  377MOL0     H50877   6.112   1.089   6.530 -0.0565 -0.1550  1.3207
  377MOL0     H50878   6.336   1.128   6.435  2.6617  0.3505  2.0993
  377MOL0     H50879   6.660   1.594   6.239  1.7904  1.2746 -2.3625
  377MOL0     H50880   6.913   1.593   6.175 -0.6483  0.1359  0.2180
  377MOL0     H50881   8.610   0.790   6.022  1.2622 -0.2838  0.4451
  377MOL0     H50882   8.817   0.793   5.864 -0.4292  2.1418  1.4864
  377MOL0     H50883   8.953   0.659   5.242 -1.1964  2.1589 -0.3787
  377MOL0     H50884   9.179   0.717   5.168 -2.1668 -1.4753 -0.6946
  377MOL0     H50885   9.485   0.881   5.451  0.1027 -0.0002  0.5869
  377MOL0     H50886   9.424   0.731   5.397  1.7522 -1.0827 -0.6792
  377MOL0     H50887   9.543   0.794   5.165  1.3081  1.7321 -1.6231
  377MOL0     H50888   9.645   0.743   5.306 -0.7259  0.2663  1.6711
  377MOL0     H50889   9.583   1.038   5.198 -0.8073  3.0697  2.6386
  377MOL0     H50890   9.727   0.950   5.173 -1.6942  1.2310 -0.6416
  377MOL0     H50891   9.649   1.039   5.456 -0.4559  0.3683 -0.1460
  377MOL0     H50892   9.761   1.121   5.344 -0.7377  0.8621  2.6608
  377MOL0     H50893  10.003   0.821   5.495 -0.1121  1.5475  3.6641
  377MOL0     H50894   9.262   0.939   5.527  1.1418 -0.3703 -0.6284
  377MOL0     H50895   9.041   0.856   5.633  1.4885 -2.7892  1.5084
  378MOL0     O50896   5.139   2.400  10.115  1.1019 -0.2408  0.8030
  378MOL0     C50897   5.174   2.492  10.043  0.5219 -0.3768  0.5614
  378MOL0     O50898   5.115   2.619  10.038  0.1721 -0.7972  1.0608
  378MOL0     C50899   5.016   2.654  10.125 -0.6246 -0.6406  0.7231
  378MOL0     C50900   4.872   2.622  10.107 -0.6269  0.2556  0.0498
  378MOL0     C50901   4.778   2.661  10.209 -0.1161  0.2882  0.6299
  378MOL0     C50902   4.822   2.757  10.310 -0.8787  0.2804  0.0610
  378MOL0     O50903   4.750   2.816  10.403  0.2656  0.2417 -0.1352
  378MOL0     C50904   4.605   2.805  10.391 -0.5333 -0.8872 -0.4531
  378MOL0     C50905   4.534   2.894  10.492  0.1179 -0.5133 -0.0575
  378MOL0     C50906   4.385   2.895  10.454  0.6402  0.3143 -0.3105
  378MOL0     C50907   4.297   2.921  10.575  0.2994 -0.1464 -1.3279
  378MOL0     C50908   4.157   2.982  10.550  0.2671  0.1656  0.2339
  378MOL0     C50909   4.083   2.913  10.432  0.1568 -1.1125 -0.0409
  378MOL0     C50910   3.987   3.022  10.381 -0.0839 -0.1590  0.2990
  378MOL0     C50911   3.887   2.941  10.287  0.4134  0.2285 -0.5288
  378MOL0     N50912   3.840   3.027  10.181 -0.4752 -0.1000  0.2009
  378MOL0     C50913   3.851   3.000  10.045  0.0874 -0.7177 -0.2760
  378MOL0     C50914   3.802   3.112   9.985  0.2258  0.6642 -0.1626
  378MOL0     C50915   3.805   3.144   9.841  0.6299  0.3508 -0.0735
  378MOL0     C50916   3.943   3.196   9.812 -0.7131  0.3419 -0.4039
  378MOL0     C50917   4.047   3.079   9.791  0.6575 -0.5413 -0.3732
  378MOL0     C50918   4.152   3.121   9.687  0.5452  0.2921  0.4553
  378MOL0     O50919   4.217   3.237   9.733 -0.6224  0.2217  0.2091
  378MOL0     C50920   4.343   3.273   9.682  0.0245 -0.0810  0.5335
  378MOL0     C50921   4.390   3.391   9.729 -1.0264  0.3023  0.8995
  378MOL0     C50922   4.516   3.441   9.681  0.6938  0.1153 -0.6845
  378MOL0     C50923   4.554   3.580   9.734 -0.0582 -1.0060 -0.0289
  378MOL0     C50924   4.593   3.358   9.601 -0.0288  0.4540 -0.0449
  378MOL0     C50925   4.732   3.385   9.561 -0.1339 -1.0474  0.4436
  378MOL0     O50926   4.778   3.307   9.459  0.2645 -0.3602  0.1478
  378MOL0     C50927   4.905   3.283   9.435  0.4288  0.5553  0.7420
  378MOL0     C50928   4.996   3.261   9.528 -0.9727  0.0922  0.0745
  378MOL0     C50929   5.137   3.247   9.497  0.9798 -0.8331 -0.9450
  378MOL0     C50930   5.174   3.279   9.362  0.0532 -1.0705  0.2111
  378MOL0     O50931   5.301   3.266   9.307 -0.2656 -0.0923 -0.4607
  378MOL0     C50932   5.403   3.215   9.391  0.1705  0.8917  0.2255
  378MOL0     C50933   5.543   3.187   9.317 -0.2353 -0.3778 -0.2120
  378MOL0     C50934   5.604   3.314   9.267  0.4207 -0.5929 -0.1958
  378MOL0     C50935   5.738   3.305   9.206  0.1553  0.5139 -0.0641
  378MOL0     C50936   5.838   3.280   9.320 -0.0231 -0.8302 -0.2597
  378MOL0     C50937   5.982   3.291   9.287 -0.1112 -0.3541  0.6409
  378MOL0     C50938   6.032   3.438   9.302 -0.3096  0.4292 -0.0616
  378MOL0     C50939   6.188   3.451   9.312 -0.2609 -0.3634 -0.1315
  378MOL0    Cl50940   6.248   3.381   9.470 -0.2013 -0.0947  0.1717
  378MOL0     C50941   5.077   3.305   9.266 -0.7010  1.0870 -0.7585
  378MOL0     C50942   4.943   3.291   9.302  0.7258  0.1195  0.2084
  378MOL0     O50943   4.788   3.488   9.606  0.0988 -0.1424  0.1656
  378MOL0     C50944   4.532   3.246   9.539  0.5094  0.8114 -0.0161
  378MOL0     C50945   4.407   3.200   9.581  0.0269  0.0470 -0.6672
  378MOL0     N50946   3.764   3.199  10.085 -0.0461 -0.6741  0.3130
  378MOL0     N50947   3.804   3.155  10.196 -0.0399  0.0602  0.1888
  378MOL0     C50948   4.962   2.777  10.321  0.2374  0.3113  0.1075
  378MOL0     C50949   5.060   2.731  10.232  0.4794  1.4150 -0.5875
  378MOL0     C50950   5.305   2.478   9.981  0.5546 -0.0907 -0.6196
  378MOL0     C50951   5.366   2.589   9.922  0.7922 -0.1998  0.6641
  378MOL0     C50952   5.500   2.582   9.869  0.5406  0.1039  0.1436
  378MOL0     C50953   5.569   2.462   9.893  0.0345 -0.1852 -0.3403
  378MOL0     O50954   5.696   2.458   9.852  0.1090 -0.4904 -0.5791
  378MOL0     C50955   5.750   2.318   9.826 -0.1435 -0.8542  0.9301
  378MOL0     C50956   5.897   2.323   9.813 -0.0873 -0.1712 -0.0028
  378MOL0     C50957   5.965   2.350   9.953 -0.5655  0.6883  0.3079
  378MOL0     C50958   6.114   2.291   9.940 -0.2166 -1.2704 -0.0015
  378MOL0     C50959   6.195   2.393   9.884 -0.3054 -0.7326  0.1690
  378MOL0     C50960   6.274   2.481   9.845 -0.5871 -0.0456  0.0444
  378MOL0     C50961   5.513   2.359   9.960 -0.5310 -1.2877  0.0919
  378MOL0     C50962   5.376   2.362   9.986 -0.3074  0.5517  0.2384
  378MOL0     H50963   4.842   2.566  10.019  2.7104 -1.4549 -0.1473
  378MOL0     H50964   4.673   2.633  10.210 -1.8646  5.3284 -2.3183
  378MOL0     H50965   4.581   2.848  10.293 -0.1869  0.9554  0.2368
  378MOL0     H50966   4.569   2.702  10.402 -2.1635 -0.2167  0.8096
  378MOL0     H50967   4.549   2.858  10.594 -0.0823 -0.0417  0.1441
  378MOL0     H50968   4.575   2.995  10.482  1.9203 -1.1646  0.4024
  378MOL0     H50969   4.370   2.972  10.377  1.4917 -0.8891 -1.7396
  378MOL0     H50970   4.361   2.805  10.396 -0.3980 -2.3069  3.8109
  378MOL0     H50971   4.270   2.818  10.601 -1.6719  0.6180 -0.2403
  378MOL0     H50972   4.344   2.988  10.647  0.6123  0.6899 -2.2791
  378MOL0     H50973   4.096   2.972  10.641 -2.0115 -1.4196 -1.3590
  378MOL0     H50974   4.176   3.086  10.523  1.9396 -0.2109 -0.1706
  378MOL0     H50975   4.139   2.885  10.343 -2.5169  2.1610 -3.0682
  378MOL0     H50976   4.017   2.832  10.467 -0.2051 -1.4557 -1.4255
  378MOL0     H50977   3.922   3.068  10.456 -1.2841 -1.7303  0.2954
  378MOL0     H50978   4.041   3.093  10.318 -1.5852  2.4448  1.7570
  378MOL0     H50979   3.796   2.900  10.332  0.7725 -1.0231 -0.8979
  378MOL0     H50980   3.941   2.852  10.253 -2.4813 -1.6648 -0.4612
  378MOL0     H50981   3.879   2.907   9.996  1.8882  0.5555 -1.8035
  378MOL0     H50982   3.772   3.066   9.771 -1.8592  0.4799  0.8875
  378MOL0     H50983   3.727   3.218   9.819 -1.5810 -2.3264 -1.9100
  378MOL0     H50984   3.986   3.246   9.898 -2.3495 -2.8316  2.5218
  378MOL0     H50985   3.930   3.255   9.721  3.3058  1.5913 -0.3393
  378MOL0     H50986   4.001   2.985   9.760 -0.6625 -0.2315  0.5474
  378MOL0     H50987   4.088   3.062   9.891 -0.3702 -0.9639 -0.0089
  378MOL0     H50988   4.112   3.138   9.587  1.7157  0.8460  0.0593
  378MOL0     H50989   4.216   3.032   9.679  0.2852  0.2281 -1.4261
  378MOL0     H50990   4.322   3.450   9.789 -1.6737  0.9163 -0.3900
  378MOL0     H50991   4.578   3.648   9.652 -1.3698 -1.8919 -1.2177
  378MOL0     H50992   4.468   3.623   9.786  1.3146 -0.5782  1.9613
  378MOL0     H50993   4.627   3.571   9.815 -0.8609 -2.3684  0.5906
  378MOL0     H50994   4.971   3.248   9.633  1.9910 -0.3820  0.8341
  378MOL0     H50995   5.209   3.220   9.573  1.0710 -1.1208 -1.1321
  378MOL0     H50996   5.413   3.262   9.489 -0.2006 -1.7556  1.6163
  378MOL0     H50997   5.361   3.116   9.411  1.3577  0.1008 -1.0134
  378MOL0     H50998   5.614   3.156   9.395 -0.5717  1.2259  0.7628
  378MOL0     H50999   5.527   3.114   9.237 -2.3782 -1.5678  1.1926
  378MOL0     H51000   5.604   3.396   9.339 -2.5098 -0.1211 -0.6196
  378MOL0     H51001   5.543   3.353   9.185  3.2060 -1.3761 -2.8195
  378MOL0     H51002   5.735   3.225   9.131 -1.0287  2.1369 -1.8603
  378MOL0     H51003   5.760   3.397   9.151  2.6723  0.8545  1.3831
  378MOL0     H51004   5.823   3.179   9.359  1.4206 -1.3548 -0.9711
  378MOL0     H51005   5.822   3.344   9.407  0.0901 -1.5190  0.2811
  378MOL0     H51006   6.039   3.223   9.351  0.2090 -0.3883  0.3189
  378MOL0     H51007   5.992   3.258   9.183  0.6960  0.3687  0.4836
  378MOL0     H51008   5.979   3.492   9.381 -0.9243  0.1682 -0.2889
  378MOL0     H51009   6.005   3.487   9.208 -0.0615  1.4713  0.3965
  378MOL0     H51010   6.224   3.554   9.302 -0.0689 -0.5786 -1.9195
  378MOL0     H51011   6.237   3.395   9.232  2.3656  1.7653 -0.1400
  378MOL0     H51012   5.110   3.319   9.164  0.7798  0.1683 -0.4316
  378MOL0     H51013   4.874   3.300   9.218  2.0068 -0.0166 -0.9017
  378MOL0     H51014   4.575   3.173   9.471 -0.1235  0.2454  0.1728
  378MOL0     H51015   4.353   3.120   9.532  0.3372 -2.0332  2.1325
  378MOL0     H51016   5.007   2.839  10.398  2.2294 -0.7109 -0.1527
  378MOL0     H51017   5.163   2.759  10.249  0.7755  1.8913 -2.9021
  378MOL0     H51018   5.324   2.689   9.918 -0.3646 -0.7201 -1.8478
  378MOL0     H51019   5.553   2.661   9.817 -2.0959 -0.0628 -3.2149
  378MOL0     H51020   5.733   2.243   9.903 -2.6520 -0.5063  0.7901
  378MOL0     H51021   5.700   2.290   9.733 -4.4153  2.6385  1.8434
  378MOL0     H51022   5.918   2.408   9.748 -1.1274  0.5249  0.5557
  378MOL0     H51023   5.930   2.225   9.776  1.0198 -1.3168  3.6445
  378MOL0     H51024   5.912   2.290  10.028 -3.0775  1.6066 -0.6499
  378MOL0     H51025   5.968   2.457   9.976 -1.4178  0.6669  0.5532
  378MOL0     H51026   6.119   2.196   9.887 -1.4441  0.4970 -3.6429
  378MOL0     H51027   6.150   2.280  10.043  1.5222  1.3334 -0.2222
  378MOL0     H51028   6.338   2.559   9.808  0.5658 -0.6509  0.7079
  378MOL0     H51029   5.579   2.280   9.992  3.6111  1.4664 -0.8356
  378MOL0     H51030   5.330   2.276  10.035  0.2098  0.5045  0.6493
  379MOL0     O51031  10.391   6.012   7.293 -0.7682 -0.0041 -0.4365
  379MOL0     C51032  10.462   5.936   7.363 -0.0898  0.3414 -0.7195
  379MOL0     O51033  10.434   5.802   7.377  0.3349 -0.6988  0.1505
  379MOL0     C51034  10.307   5.767   7.359 -0.4273 -0.0555  0.2384
  379MOL0     C51035  10.208   5.799   7.450  0.1298  0.0420  0.2008
  379MOL0     C51036  10.076   5.754   7.429 -0.4307 -0.0306 -0.7258
  379MOL0     C51037  10.035   5.688   7.314 -0.3576 -0.0447 -0.1919
  379MOL0     O51038   9.908   5.655   7.286 -1.2246  0.2772  0.5498
  379MOL0     C51039   9.849   5.746   7.187  0.2131  0.3364  0.2073
  379MOL0     C51040   9.698   5.737   7.200 -0.7653 -0.1123 -0.2546
  379MOL0     C51041   9.644   5.602   7.151 -0.0545  0.2100 -0.7546
  379MOL0     C51042   9.490   5.621   7.173 -0.1376 -0.9811 -0.6201
  379MOL0     C51043   9.417   5.500   7.104  0.4893  0.1249 -0.1684
  379MOL0     C51044   9.283   5.519   7.051 -0.0158  0.1760 -0.3354
  379MOL0     C51045   9.186   5.572   7.165 -0.1332  1.0437  0.2031
  379MOL0     C51046   9.042   5.515   7.154  0.4558  0.0028 -0.2546
  379MOL0     N51047   8.943   5.574   7.244  0.0195  0.0204  0.4982
  379MOL0     C51048   8.809   5.554   7.222 -0.1320  1.1161  0.3652
  379MOL0     C51049   8.751   5.624   7.319 -0.4650 -0.4766  0.1361
  379MOL0     C51050   8.609   5.625   7.353  0.0055  0.5831 -0.3090
  379MOL0     C51051   8.545   5.760   7.321 -0.0277  0.6578 -1.3654
  379MOL0     C51052   8.465   5.813   7.441  0.3582 -0.1249 -1.2834
  379MOL0     C51053   8.324   5.737   7.464 -0.6666 -0.2727  0.3147
  379MOL0     O51054   8.226   5.802   7.383 -0.0106 -0.3378 -0.3630
  379MOL0     C51055   8.106   5.741   7.368 -0.1305 -0.2795  0.1040
  379MOL0     C51056   8.005   5.808   7.292  0.0008  0.6303 -0.0351
  379MOL0     C51057   7.873   5.762   7.274  0.0162  0.1308 -0.4139
  379MOL0     C51058   7.781   5.858   7.203  0.2201  0.7888  0.0185
  379MOL0     C51059   7.847   5.626   7.302 -0.3014  0.6055 -0.2609
  379MOL0     C51060   7.716   5.555   7.258 -0.6416  0.6950  0.5616
  379MOL0     O51061   7.727   5.422   7.247  0.0581  0.4350 -0.1182
  379MOL0     C51062   7.621   5.341   7.201  0.0189  0.6487  0.4714
  379MOL0     C51063   7.565   5.361   7.076 -0.3996 -0.2755  0.0773
  379MOL0     C51064   7.474   5.275   7.015 -0.0103  0.6568 -0.2397
  379MOL0     C51065   7.423   5.160   7.087  0.0039 -1.0944 -0.2071
  379MOL0     O51066   7.332   5.079   7.017  0.2087 -0.2726 -0.4984
  379MOL0     C51067   7.264   4.972   7.096  0.2648 -0.2334 -0.1019
  379MOL0     C51068   7.135   4.929   7.014  0.2666 -0.1703  0.4362
  379MOL0     C51069   7.053   4.812   7.073 -0.2406  0.0364 -0.7008
  379MOL0     C51070   6.933   4.788   6.975  0.6165  0.5184 -0.5432
  379MOL0     C51071   6.961   4.660   6.890 -0.2463  0.7832 -0.5315
  379MOL0     C51072   6.833   4.608   6.820 -0.3410  0.1839 -1.2990
  379MOL0     C51073   6.731   4.554   6.908 -0.0448 -0.1315  0.7687
  379MOL0     C51074   6.606   4.506   6.831  0.2334  0.6226 -0.1572
  379MOL0    Cl51075   6.456   4.508   6.939 -0.0536  0.3811 -0.7275
  379MOL0     C51076   7.471   5.144   7.217  0.6620  0.1309 -0.5695
  379MOL0     C51077   7.580   5.227   7.270  0.6416  0.2392  0.4629
  379MOL0     O51078   7.608   5.618   7.245 -0.7262  0.2702 -0.1514
  379MOL0     C51079   7.947   5.556   7.378 -0.4029 -0.0087  0.5411
  379MOL0     C51080   8.071   5.612   7.417 -0.4990  0.2315  0.0290
  379MOL0     N51081   8.848   5.698   7.393  0.6163 -0.1994 -0.2427
  379MOL0     N51082   8.962   5.666   7.345 -0.6931 -0.0731  0.2816
  379MOL0     C51083  10.141   5.644   7.222  0.9008 -0.7204  0.3259
  379MOL0     C51084  10.272   5.686   7.254 -0.5089 -0.1310  0.2893
  379MOL0     C51085  10.571   6.000   7.444 -0.1415  0.3014 -0.1049
  379MOL0     C51086  10.610   6.130   7.416  0.2790 -0.4286 -0.1370
  379MOL0     C51087  10.728   6.181   7.479  0.4094  0.1822  0.0097
  379MOL0     C51088  10.810   6.098   7.555 -0.9373 -0.0458 -0.2977
  379MOL0     O51089  10.936   6.153   7.604 -0.4444 -0.0744 -0.0852
  379MOL0     C51090  10.994   6.266   7.536 -0.4783  0.0344  0.5213
  379MOL0     C51091  11.134   6.275   7.573 -0.3068  0.2160 -0.3038
  379MOL0     C51092  11.147   6.277   7.730 -0.4251 -0.2383  0.2463
  379MOL0     C51093  11.280   6.219   7.774  0.3614 -0.1940  0.2627
  379MOL0     C51094  11.272   6.073   7.776 -0.0636 -0.3756  1.1262
  379MOL0     C51095  11.251   5.951   7.779 -1.1555  0.1247  0.5991
  379MOL0     C51096  10.764   5.970   7.578  0.4349  0.3904  0.3459
  379MOL0     C51097  10.649   5.922   7.526  0.4912 -0.4372 -0.2116
  379MOL0     H51098  10.236   5.841   7.546  3.1263  0.2584 -0.6351
  379MOL0     H51099  10.006   5.752   7.512 -1.9435  3.1628 -1.7520
  379MOL0     H51100   9.879   5.850   7.199 -1.7821  1.2903 -2.2654
  379MOL0     H51101   9.875   5.727   7.083  0.2604 -0.9067  0.4206
  379MOL0     H51102   9.669   5.763   7.302 -1.7243 -1.2556 -0.2199
  379MOL0     H51103   9.659   5.813   7.133  0.1084 -0.1274 -0.7916
  379MOL0     H51104   9.663   5.580   7.045 -0.5877 -2.2412 -0.4157
  379MOL0     H51105   9.689   5.517   7.204  2.3147  0.0915 -2.7820
  379MOL0     H51106   9.457   5.644   7.274  0.0264 -1.4390 -0.4590
  379MOL0     H51107   9.467   5.707   7.109  2.2877 -0.7364 -1.2506
  379MOL0     H51108   9.471   5.459   7.019  0.1820 -1.1205  0.2116
  379MOL0     H51109   9.408   5.418   7.176  0.4941  0.8250  0.6393
  379MOL0     H51110   9.298   5.598   6.977  3.0017 -2.2515 -2.5497
  379MOL0     H51111   9.228   5.434   7.010 -1.4777  0.4097  1.0094
  379MOL0     H51112   9.222   5.536   7.262 -1.1869 -2.8195 -0.6518
  379MOL0     H51113   9.185   5.679   7.141 -0.5618  0.7706 -1.0820
  379MOL0     H51114   9.037   5.410   7.185 -3.1139  0.0620 -0.2749
  379MOL0     H51115   9.011   5.509   7.049 -1.7143 -1.6588  0.4172
  379MOL0     H51116   8.764   5.468   7.172  2.9907 -0.3842 -0.1600
  379MOL0     H51117   8.558   5.544   7.298 -0.7210 -1.4923  3.1490
  379MOL0     H51118   8.591   5.588   7.454 -0.3087 -0.9855 -0.9051
  379MOL0     H51119   8.475   5.769   7.237 -3.4937 -0.2279  1.1747
  379MOL0     H51120   8.629   5.828   7.303  3.1223 -2.3375  0.8103
  379MOL0     H51121   8.444   5.920   7.432 -1.3937 -0.2978  0.1933
  379MOL0     H51122   8.517   5.800   7.536 -1.8579  2.7633  0.4981
  379MOL0     H51123   8.298   5.747   7.570  0.1247 -1.1336  0.6020
  379MOL0     H51124   8.343   5.632   7.441  1.1667  0.2918 -0.9767
  379MOL0     H51125   8.035   5.900   7.242  0.5939  1.0656  1.0764
  379MOL0     H51126   7.773   5.846   7.094 -4.3458 -1.0551  0.3441
  379MOL0     H51127   7.683   5.843   7.247 -0.4742  1.9311 -1.0855
  379MOL0     H51128   7.806   5.963   7.218  0.3228  0.7044  0.4453
  379MOL0     H51129   7.598   5.448   7.021 -1.4605 -1.8816 -3.4241
  379MOL0     H51130   7.439   5.299   6.915  0.8966  0.7905 -0.5335
  379MOL0     H51131   7.331   4.889   7.118  0.6123  0.2217  0.5920
  379MOL0     H51132   7.232   5.020   7.189  0.3028  1.6879 -1.0217
  379MOL0     H51133   7.069   5.014   6.999  1.4753  0.5289 -1.2269
  379MOL0     H51134   7.163   4.889   6.916 -2.5803 -1.6539  0.1013
  379MOL0     H51135   7.014   4.835   7.172  2.6590 -0.0940  0.5758
  379MOL0     H51136   7.107   4.719   7.095  0.6094  0.8707  0.8497
  379MOL0     H51137   6.851   4.775   7.046  0.7471  0.0375 -0.4801
  379MOL0     H51138   6.914   4.876   6.913  0.5418  1.8355  1.2587
  379MOL0     H51139   7.005   4.580   6.949 -1.6915  0.4860  0.1826
  379MOL0     H51140   7.034   4.679   6.810  1.2342 -1.1649  0.2969
  379MOL0     H51141   6.797   4.689   6.755 -2.0258  0.5935  0.0746
  379MOL0     H51142   6.871   4.525   6.759  1.6823  1.3704 -1.7602
  379MOL0     H51143   6.688   4.638   6.964 -1.2996 -1.6048  2.1208
  379MOL0     H51144   6.767   4.473   6.971 -0.4950 -1.0715 -0.1418
  379MOL0     H51145   6.620   4.404   6.795 -0.3475 -0.5045  2.6250
  379MOL0     H51146   6.584   4.574   6.748 -0.0316  2.5619  1.4370
  379MOL0     H51147   7.442   5.059   7.278  2.8073  0.9243  1.7213
  379MOL0     H51148   7.619   5.200   7.367 -2.6746 -0.3420  1.7519
  379MOL0     H51149   7.927   5.458   7.419 -2.9788  0.8030  1.3743
  379MOL0     H51150   8.134   5.560   7.488  3.4448  0.2875 -3.0936
  379MOL0     H51151  10.116   5.597   7.128 -1.7253  0.5778  0.2798
  379MOL0     H51152  10.350   5.642   7.192  0.4945 -0.2214  1.5644
  379MOL0     H51153  10.556   6.192   7.346 -0.3256  1.4606  1.8866
  379MOL0     H51154  10.759   6.284   7.464  1.7224 -0.3986 -1.6007
  379MOL0     H51155  10.982   6.263   7.427 -1.5744 -0.0289  0.6284
  379MOL0     H51156  10.960   6.365   7.571  4.0932  1.5850  1.2214
  379MOL0     H51157  11.169   6.374   7.541 -0.6498  0.0409 -1.2651
  379MOL0     H51158  11.185   6.186   7.533 -0.4086  0.6187 -1.3594
  379MOL0     H51159  11.062   6.239   7.788 -1.2416  1.8841  0.5396
  379MOL0     H51160  11.158   6.384   7.752 -0.9845 -0.6665  2.9412
  379MOL0     H51161  11.294   6.256   7.876  0.8715  0.4537 -0.0348
  379MOL0     H51162  11.358   6.255   7.706  0.2762 -0.2688  0.1249
  379MOL0     H51163  11.231   5.846   7.774  1.8636 -0.5680  1.2457
  379MOL0     H51164  10.828   5.900   7.631  0.6583 -1.6512 -2.4073
  379MOL0     H51165  10.621   5.821   7.555  1.2027 -1.2433 -2.2138
  380MOL0     O51166   1.421   5.477  11.218 -0.5412 -0.3712 -0.5221
  380MOL0     C51167   1.467   5.467  11.337  0.9213  0.1386 -0.3828
  380MOL0     O51168   1.385   5.448  11.443  0.3827 -0.4951 -0.2195
  380MOL0     C51169   1.250   5.438  11.423 -0.0820  0.0179 -0.2701
  380MOL0     C51170   1.167   5.539  11.365 -0.3112  0.6518 -0.4014
  380MOL0     C51171   1.027   5.527  11.369  0.1332  0.5162  0.2629
  380MOL0     C51172   0.972   5.419  11.439  0.6114  0.5474  0.4051
  380MOL0     O51173   0.840   5.402  11.455  0.4199 -0.1232 -0.2805
  380MOL0     C51174   0.753   5.470  11.372  0.4738 -0.3196  0.0932
  380MOL0     C51175   0.605   5.422  11.409  0.4355 -0.4701  0.3932
  380MOL0     C51176   0.577   5.272  11.406 -0.1630 -0.7115  0.0061
  380MOL0     C51177   0.581   5.235  11.256 -0.7783 -0.4961 -0.0308
  380MOL0     C51178   0.556   5.086  11.233 -0.5086  1.0279  0.3199
  380MOL0     C51179   0.576   5.052  11.089  0.4596 -0.3909  0.5969
  380MOL0     C51180   0.598   4.902  11.054  0.9349 -0.4304 -0.5076
  380MOL0     C51181   0.472   4.821  11.092 -0.7071 -1.0641  0.2992
  380MOL0     N51182   0.362   4.858  11.006  0.1432 -0.3919  0.7051
  380MOL0     C51183   0.355   4.822  10.877 -0.3311 -0.4561  0.1872
  380MOL0     C51184   0.234   4.871  10.837  0.3570 -0.5426 -0.7238
  380MOL0     C51185   0.163   4.864  10.700  0.0315 -0.4418 -0.3262
  380MOL0     C51186   0.072   4.739  10.694  0.2108  0.8131  0.4838
  380MOL0     C51187  -0.050   4.744  10.799  1.2615 -0.0447  0.4915
  380MOL0     C51188  -0.177   4.802  10.740 -0.2924  0.0370 -0.2388
  380MOL0     O51189  -0.223   4.711  10.639  1.1604  0.0826  0.7962
  380MOL0     C51190  -0.340   4.734  10.575  0.4555 -0.4484 -1.0232
  380MOL0     C51191  -0.426   4.840  10.608 -0.7697 -0.9555  0.3337
  380MOL0     C51192  -0.557   4.848  10.547 -0.3656  0.1877 -0.5340
  380MOL0     C51193  -0.639   4.967  10.594 -0.8209 -0.9934  0.4915
  380MOL0     C51194  -0.597   4.758  10.449  1.1183  1.2029  0.6378
  380MOL0     C51195  -0.734   4.737  10.387 -0.5327 -0.1554 -0.3348
  380MOL0     O51196  -0.756   4.702  10.258 -0.6941 -0.0365 -0.4531
  380MOL0     C51197  -0.887   4.695  10.220  1.0587 -0.5294  0.1344
  380MOL0     C51198  -0.950   4.575  10.187  0.5456  0.5041 -0.0544
  380MOL0     C51199  -1.079   4.577  10.129  0.4364 -0.5101  0.4841
  380MOL0     C51200  -1.149   4.690  10.094 -0.7700 -0.9005 -0.4356
  380MOL0     O51201  -1.273   4.708  10.043 -0.9566 -0.4954  0.3108
  380MOL0     C51202  -1.289   4.641   9.921  0.3707 -0.2344 -0.0255
  380MOL0     C51203  -1.353   4.740   9.827 -0.0010 -0.4387  0.0534
  380MOL0     C51204  -1.367   4.704   9.679  1.0242  0.9791  1.0242
  380MOL0     C51205  -1.241   4.647   9.610 -0.3233  0.1975 -0.1248
  380MOL0     C51206  -1.251   4.661   9.458 -0.1654  0.0245  0.0536
  380MOL0     C51207  -1.110   4.667   9.389 -0.6498  0.0451 -0.5744
  380MOL0     C51208  -1.028   4.542   9.427 -0.4248 -0.5268 -0.4337
  380MOL0     C51209  -0.894   4.555   9.362 -0.7492 -0.5309 -0.3735
  380MOL0    Cl51210  -0.802   4.675   9.449 -0.3189  0.2407  0.1367
  380MOL0     C51211  -1.089   4.812  10.124  0.7176  0.7084 -0.1214
  380MOL0     C51212  -0.961   4.808  10.180  0.1752 -1.3382 -0.8468
  380MOL0     O51213  -0.820   4.761  10.466  0.4380 -0.2397  0.3684
  380MOL0     C51214  -0.506   4.654  10.414  0.6431 -0.7070 -0.0749
  380MOL0     C51215  -0.386   4.639  10.480  0.1908 -1.4320  1.2647
  380MOL0     N51216   0.176   4.931  10.944  0.2742  0.1423  0.2214
  380MOL0     N51217   0.255   4.918  11.045  1.9171  0.6399 -0.2247
  380MOL0     C51218   1.060   5.316  11.492 -0.0245 -0.9424 -0.2039
  380MOL0     C51219   1.200   5.328  11.481  0.2351  0.6569 -0.9208
  380MOL0     C51220   1.621   5.476  11.362  0.0368  0.8793 -0.4091
  380MOL0     C51221   1.704   5.547  11.273 -0.1233 -0.6598 -0.0561
  380MOL0     C51222   1.842   5.552  11.280 -0.3892 -0.1769 -0.7953
  380MOL0     C51223   1.907   5.503  11.397  0.9321  0.4634  0.1372
  380MOL0     O51224   2.038   5.511  11.432  0.4108 -0.1121  0.1337
  380MOL0     C51225   2.120   5.588  11.345  0.1762 -0.8539  0.4561
  380MOL0     C51226   2.252   5.613  11.428 -0.5295  0.4534  0.7329
  380MOL0     C51227   2.329   5.487  11.469  0.1077 -0.1097  0.3087
  380MOL0     C51228   2.478   5.509  11.507  0.8912 -0.3152 -0.6307
  380MOL0     C51229   2.492   5.592  11.627  0.9938 -0.4802 -0.1911
  380MOL0     C51230   2.508   5.658  11.737  0.6141 -0.6131 -0.4475
  380MOL0     C51231   1.824   5.434  11.492 -0.1897 -0.6069  0.3535
  380MOL0     C51232   1.685   5.427  11.481 -0.2136  0.2471 -0.2111
  380MOL0     H51233   1.213   5.628  11.323 -0.0640  0.4659 -0.5241
  380MOL0     H51234   0.955   5.601  11.335 -1.8141 -1.4034 -0.0020
  380MOL0     H51235   0.757   5.578  11.392  1.1964 -0.3384  0.1004
  380MOL0     H51236   0.771   5.454  11.265 -0.1561 -0.5554  0.0196
  380MOL0     H51237   0.574   5.462  11.506 -0.4095  0.3559 -0.1985
  380MOL0     H51238   0.543   5.471  11.334  0.4165 -2.2331 -0.7980
  380MOL0     H51239   0.649   5.200  11.445 -1.2488 -2.3279 -0.8253
  380MOL0     H51240   0.482   5.231  11.443  0.2650 -1.2164  0.5621
  380MOL0     H51241   0.514   5.302  11.203 -1.3002 -0.1110  1.0900
  380MOL0     H51242   0.679   5.254  11.212 -1.2164 -1.6454 -1.5701
  380MOL0     H51243   0.626   5.023  11.288 -1.2239 -0.3183 -0.2781
  380MOL0     H51244   0.454   5.056  11.259 -0.4547 -1.0073 -1.5633
  380MOL0     H51245   0.484   5.089  11.044  1.5963  1.3798 -0.3754
  380MOL0     H51246   0.655   5.113  11.045 -2.4945  1.7770 -2.2213
  380MOL0     H51247   0.618   4.881  10.949 -0.5231 -2.8561 -0.3858
  380MOL0     H51248   0.691   4.866  11.100  1.1639 -2.3662 -2.3292
  380MOL0     H51249   0.439   4.847  11.193  1.2590  1.2456  0.4366
  380MOL0     H51250   0.487   4.713  11.081  1.5529 -0.7542 -0.2122
  380MOL0     H51251   0.422   4.758  10.819 -0.6713 -1.1765  0.5764
  380MOL0     H51252   0.105   4.956  10.684 -0.2706 -0.4386  0.6824
  380MOL0     H51253   0.238   4.860  10.620  1.7242 -1.9192  1.2221
  380MOL0     H51254   0.125   4.646  10.718 -1.5546 -0.4133 -0.1573
  380MOL0     H51255   0.020   4.726  10.599 -4.0471 -2.8472  2.9082
  380MOL0     H51256  -0.027   4.807  10.886  2.4337 -0.5846  0.5915
  380MOL0     H51257  -0.069   4.647  10.846 -0.6529 -0.9981 -2.0180
  380MOL0     H51258  -0.156   4.899  10.696  0.2039 -0.9429 -2.2967
  380MOL0     H51259  -0.256   4.817  10.815 -1.1409 -2.8646 -0.4320
  380MOL0     H51260  -0.409   4.919  10.680 -0.5519  1.5195 -2.2182
  380MOL0     H51261  -0.587   5.060  10.618  0.0830 -0.0831 -4.1339
  380MOL0     H51262  -0.712   4.997  10.519  0.9274  1.4959 -0.3574
  380MOL0     H51263  -0.696   4.927  10.678 -0.2612 -3.0056 -0.0298
  380MOL0     H51264  -0.897   4.480  10.183  1.4892  1.0467 -1.3984
  380MOL0     H51265  -1.118   4.479  10.104  1.5202 -0.4687 -1.6555
  380MOL0     H51266  -1.196   4.600   9.879  0.6490  1.6315 -1.3659
  380MOL0     H51267  -1.359   4.558   9.934  2.6952 -2.2148  0.7812
  380MOL0     H51268  -1.450   4.775   9.862 -0.2323 -2.6912  1.9081
  380MOL0     H51269  -1.286   4.824   9.847  0.5156 -1.4919  3.4662
  380MOL0     H51270  -1.393   4.791   9.620 -0.8179 -1.1641 -1.5791
  380MOL0     H51271  -1.436   4.619   9.667  1.5026  0.9097 -1.6858
  380MOL0     H51272  -1.152   4.701   9.641 -0.3464 -0.2812  0.8196
  380MOL0     H51273  -1.225   4.541   9.632 -2.5510  0.5616  4.4081
  380MOL0     H51274  -1.291   4.760   9.435  1.3964  1.3051  2.4475
  380MOL0     H51275  -1.307   4.581   9.408  0.5357 -0.5885  0.2170
  380MOL0     H51276  -1.125   4.664   9.280  1.8576 -1.5572 -0.9635
  380MOL0     H51277  -1.063   4.764   9.410  0.3792 -0.3819 -0.8258
  380MOL0     H51278  -1.080   4.453   9.390 -1.5714 -0.3328  0.6353
  380MOL0     H51279  -1.013   4.530   9.535 -1.7278 -0.3270 -0.2152
  380MOL0     H51280  -0.895   4.574   9.254  0.6126 -2.2537 -0.7339
  380MOL0     H51281  -0.836   4.463   9.372  0.2967  0.3212  2.4258
  380MOL0     H51282  -1.125   4.912  10.105  0.7988  0.3375 -2.6438
  380MOL0     H51283  -0.919   4.907  10.197 -3.2908  0.8830 -3.7577
  380MOL0     H51284  -0.528   4.575  10.342  1.8504  0.0732 -1.3458
  380MOL0     H51285  -0.316   4.557  10.469  0.4551 -0.9494 -1.2746
  380MOL0     H51286   1.013   5.239  11.551  2.8415  0.0269  3.7915
  380MOL0     H51287   1.270   5.255  11.520  0.5691 -0.8592 -4.0161
  380MOL0     H51288   1.662   5.589  11.183  0.3855 -0.3270 -0.1407
  380MOL0     H51289   1.884   5.614  11.202 -1.9669  1.7160 -0.2424
  380MOL0     H51290   2.130   5.543  11.246 -2.9987  1.2180 -0.9661
  380MOL0     H51291   2.072   5.686  11.337 -0.2825 -1.0043  1.2761
  380MOL0     H51292   2.215   5.675  11.510 -2.8118 -2.0241  1.7442
  380MOL0     H51293   2.323   5.662  11.361 -1.3076 -0.8841 -1.1808
  380MOL0     H51294   2.335   5.421  11.382  2.3272 -2.1707  1.8843
  380MOL0     H51295   2.274   5.439  11.550  2.0476  1.3149  2.5948
  380MOL0     H51296   2.524   5.558  11.420 -0.1210  2.0529  0.0930
  380MOL0     H51297   2.524   5.411  11.525  2.1180  0.4093  0.3332
  380MOL0     H51298   2.523   5.719  11.824 -2.2708 -1.7985  1.0246
  380MOL0     H51299   1.860   5.406  11.590 -0.2872  1.8125  1.1359
  380MOL0     H51300   1.627   5.384  11.562  0.5908 -0.8200 -0.1856
  381MOL0     O51301   2.292   7.586  11.246 -0.6482  0.4629 -0.9851
  381MOL0     C51302   2.363   7.660  11.316 -0.4998  0.5066 -0.1904
  381MOL0     O51303   2.317   7.760  11.400 -0.1607 -0.3371  0.8442
  381MOL0     C51304   2.187   7.760  11.436 -0.2878 -0.8648  0.0169
  381MOL0     C51305   2.076   7.727  11.365  0.5937 -0.3874  0.4056
  381MOL0     C51306   1.948   7.731  11.424 -0.1245 -0.0427 -0.1441
  381MOL0     C51307   1.932   7.771  11.558  0.3134  0.4061 -0.2021
  381MOL0     O51308   1.816   7.782  11.627 -0.3010  0.2926  0.1478
  381MOL0     C51309   1.701   7.799  11.545 -0.2611  1.2179 -0.2655
  381MOL0     C51310   1.585   7.830  11.642 -0.7375  0.1092 -0.6304
  381MOL0     C51311   1.461   7.827  11.560 -0.2323 -0.1035 -0.7919
  381MOL0     C51312   1.348   7.814  11.657  0.5893  0.2940 -0.8252
  381MOL0     C51313   1.318   7.940  11.731  0.1267 -0.2844 -0.1221
  381MOL0     C51314   1.196   7.928  11.826  0.0795  0.8987 -0.2638
  381MOL0     C51315   1.061   7.976  11.764 -1.1565  0.1875  1.0581
  381MOL0     C51316   0.940   7.974  11.860  0.7502 -0.4717 -0.4909
  381MOL0     N51317   0.817   8.012  11.791  0.0747  0.4637 -0.9322
  381MOL0     C51318   0.775   8.139  11.812 -0.7546  0.3996 -0.1204
  381MOL0     C51319   0.653   8.134  11.757  0.6974  0.1866  0.2076
  381MOL0     C51320   0.566   8.247  11.723  0.3528 -0.8731 -0.7645
  381MOL0     C51321   0.525   8.248  11.571 -0.6793  0.6600  0.6300
  381MOL0     C51322   0.640   8.230  11.469 -0.3084 -0.4324  0.6350
  381MOL0     C51323   0.759   8.334  11.484 -0.5163 -0.5663 -0.3076
  381MOL0     O51324   0.849   8.324  11.371  0.4137 -0.7636 -0.4480
  381MOL0     C51325   0.957   8.412  11.368 -0.8550  0.1084 -0.8040
  381MOL0     C51326   0.983   8.523  11.449 -0.1000 -0.0597  0.1668
  381MOL0     C51327   1.106   8.597  11.434 -0.1401 -0.7170 -0.4912
  381MOL0     C51328   1.109   8.721  11.520  0.3888  0.6817 -0.3780
  381MOL0     C51329   1.202   8.556  11.334 -0.2638 -0.4627  0.6017
  381MOL0     C51330   1.335   8.624  11.331  1.1479  0.2604  0.4826
  381MOL0     O51331   1.447   8.545  11.320  0.4394  0.8780 -0.3650
  381MOL0     C51332   1.571   8.598  11.307  0.8494  0.2939 -0.7361
  381MOL0     C51333   1.610   8.692  11.405  0.5792  1.4483 -0.0147
  381MOL0     C51334   1.731   8.759  11.393  0.0754  0.4706 -0.6045
  381MOL0     C51335   1.825   8.721  11.287  0.2810 -0.6741 -0.2040
  381MOL0     O51336   1.944   8.787  11.280  0.3804  0.2113  0.3514
  381MOL0     C51337   2.046   8.747  11.180 -0.7116 -0.2268 -0.8445
  381MOL0     C51338   2.152   8.849  11.203  0.0943 -0.2730 -0.1720
  381MOL0     C51339   2.278   8.808  11.117  0.0248 -1.1305  0.4455
  381MOL0     C51340   2.390   8.912  11.138 -0.0713  0.7292 -0.4596
  381MOL0     C51341   2.525   8.862  11.081  0.0527  0.4737  0.7893
  381MOL0     C51342   2.646   8.955  11.118 -0.1507  0.1871  0.5260
  381MOL0     C51343   2.773   8.907  11.048  0.6057 -0.0632  0.2528
  381MOL0     C51344   2.873   9.022  11.044  0.1563 -0.0767  0.1569
  381MOL0    Cl51345   2.929   9.065  11.215  0.1826  0.1039  0.2779
  381MOL0     C51346   1.784   8.630  11.200  0.5218 -0.1576 -0.0981
  381MOL0     C51347   1.654   8.573  11.199 -0.9038 -0.4499 -0.5263
  381MOL0     O51348   1.334   8.741  11.316  0.3119 -0.6171  0.9053
  381MOL0     C51349   1.187   8.432  11.267 -0.4492 -0.9085 -0.4981
  381MOL0     C51350   1.059   8.365  11.283  0.5222  0.4742 -0.6135
  381MOL0     N51351   0.614   8.000  11.733 -0.8005  0.0809 -1.0139
  381MOL0     N51352   0.719   7.930  11.756  0.0087 -0.6880 -0.1646
  381MOL0     C51353   2.051   7.814  11.629  0.2081 -0.6662  0.5279
  381MOL0     C51354   2.176   7.801  11.567  0.2761 -0.1551 -0.1783
  381MOL0     C51355   2.507   7.638  11.298 -0.1787  0.1654  0.6597
  381MOL0     C51356   2.602   7.719  11.370 -0.6563  0.8465 -0.7311
  381MOL0     C51357   2.741   7.701  11.355 -0.1766  0.6816  0.1568
  381MOL0     C51358   2.789   7.599  11.272  0.0576 -0.2066 -0.9827
  381MOL0     O51359   2.924   7.593  11.266  0.0983 -0.0106 -0.1503
  381MOL0     C51360   2.970   7.570  11.123  0.1141 -0.3364 -1.0321
  381MOL0     C51361   3.121   7.575  11.113 -0.3201 -0.4884  0.0695
  381MOL0     C51362   3.194   7.710  11.149  0.9471 -1.0359 -0.1381
  381MOL0     C51363   3.348   7.696  11.132  1.4134  0.7061  0.5910
  381MOL0     C51364   3.399   7.666  10.992 -0.1668 -0.0231 -0.3732
  381MOL0     C51365   3.432   7.658  10.877  0.4986 -0.7615  0.2957
  381MOL0     C51366   2.702   7.523  11.204  0.8816 -0.6443 -0.3874
  381MOL0     C51367   2.562   7.537  11.212 -0.1298  0.0878 -0.2356
  381MOL0     H51368   2.076   7.689  11.263  1.5161 -0.3715  0.3931
  381MOL0     H51369   1.869   7.696  11.360 -0.5220  1.4576 -0.5226
  381MOL0     H51370   1.712   7.884  11.478  0.2878  3.4200  2.4138
  381MOL0     H51371   1.668   7.704  11.501 -0.6081 -0.2562  2.8232
  381MOL0     H51372   1.578   7.748  11.714 -1.9316 -0.0801 -0.9422
  381MOL0     H51373   1.602   7.920  11.703 -1.2661 -1.2051  1.5843
  381MOL0     H51374   1.446   7.925  11.514  1.9033  2.3192  3.0846
  381MOL0     H51375   1.454   7.741  11.494 -1.0324  0.2465 -1.1774
  381MOL0     H51376   1.261   7.787  11.598  0.7481 -4.7567  0.8109
  381MOL0     H51377   1.367   7.739  11.734 -2.0823  2.3558  2.0932
  381MOL0     H51378   1.407   7.965  11.789  0.0731 -3.2010  1.4614
  381MOL0     H51379   1.305   8.028  11.668 -2.8043  2.8739  4.2639
  381MOL0     H51380   1.194   7.826  11.864  0.1819  1.4546  1.2889
  381MOL0     H51381   1.210   7.993  11.913 -0.6366  0.9516 -0.1831
  381MOL0     H51382   1.086   8.071  11.714 -1.5578 -1.3233 -2.2976
  381MOL0     H51383   1.035   7.913  11.679 -0.6157 -0.0387  1.0530
  381MOL0     H51384   0.964   8.032  11.949  1.4798  0.2853 -1.1678
  381MOL0     H51385   0.913   7.878  11.906 -0.1355  0.5185  1.1346
  381MOL0     H51386   0.829   8.227  11.844 -0.2488  0.8425 -2.0757
  381MOL0     H51387   0.478   8.250  11.789  0.3464  1.2523 -0.8075
  381MOL0     H51388   0.615   8.340  11.750 -2.0162  0.1628  0.2845
  381MOL0     H51389   0.467   8.333  11.534 -0.4636  0.5682  0.0751
  381MOL0     H51390   0.464   8.160  11.551  1.7273 -0.2387 -4.0761
  381MOL0     H51391   0.601   8.223  11.367  1.9628 -1.9674 -0.2208
  381MOL0     H51392   0.685   8.132  11.484 -1.3601 -1.1284 -0.6379
  381MOL0     H51393   0.811   8.314  11.579  1.7305 -0.0852 -1.3678
  381MOL0     H51394   0.714   8.433  11.487 -0.2788 -0.3978 -1.7983
  381MOL0     H51395   0.904   8.542  11.521  0.9630 -0.7318  1.5642
  381MOL0     H51396   1.211   8.730  11.557  0.3826 -0.4699 -0.0560
  381MOL0     H51397   1.078   8.810  11.464 -2.3609 -0.8964 -1.5744
  381MOL0     H51398   1.046   8.719  11.610  1.2402  2.9615  0.3526
  381MOL0     H51399   1.552   8.722  11.492  0.8894  1.5272  0.1677
  381MOL0     H51400   1.753   8.828  11.474 -0.8754 -2.3293  2.2327
  381MOL0     H51401   2.080   8.645  11.200  1.2471  0.2128 -1.7590
  381MOL0     H51402   2.010   8.759  11.078  1.0007 -0.4595 -1.5004
  381MOL0     H51403   2.115   8.948  11.173 -0.6629 -0.8453 -1.1909
  381MOL0     H51404   2.187   8.853  11.306  0.6857  1.0853 -0.3936
  381MOL0     H51405   2.256   8.797  11.010  0.5241  0.2466  0.1804
  381MOL0     H51406   2.300   8.704  11.144 -2.3808 -1.9847 -0.6076
  381MOL0     H51407   2.357   9.001  11.085 -0.4669  0.3019 -0.9460
  381MOL0     H51408   2.397   8.936  11.245 -3.4734 -0.7595  0.2302
  381MOL0     H51409   2.515   8.847  10.974 -1.9630  2.4631  0.6295
  381MOL0     H51410   2.541   8.758  11.112 -1.3670  0.2506  0.8115
  381MOL0     H51411   2.621   9.057  11.086  2.5001  1.6101  2.5383
  381MOL0     H51412   2.664   8.961  11.226 -0.2127  2.4905  0.4689
  381MOL0     H51413   2.741   8.867  10.952 -0.9042  0.2462  0.6113
  381MOL0     H51414   2.813   8.823  11.105 -3.1291 -2.2013  0.0016
  381MOL0     H51415   2.821   9.105  10.996 -2.5237  0.0944  3.0840
  381MOL0     H51416   2.962   8.983  10.993  0.8375  1.4167  0.1507
  381MOL0     H51417   1.849   8.605  11.116  0.6131 -0.1257 -0.0374
  381MOL0     H51418   1.618   8.506  11.122 -0.5283 -4.1820  2.2637
  381MOL0     H51419   1.270   8.403  11.204  0.4211  1.0069 -0.3077
  381MOL0     H51420   1.022   8.278  11.229 -2.8122 -1.0374  3.5199
  381MOL0     H51421   2.050   7.856  11.729  1.6726 -0.7616  0.5973
  381MOL0     H51422   2.267   7.831  11.616 -0.0958  1.4827 -0.4297
  381MOL0     H51423   2.557   7.796  11.431 -0.7085  1.5810 -1.6672
  381MOL0     H51424   2.821   7.765  11.394  0.8818 -1.5310  1.8374
  381MOL0     H51425   2.935   7.475  11.080  1.7717 -1.1339 -0.6851
  381MOL0     H51426   2.915   7.642  11.063 -1.1148 -2.1445 -2.1687
  381MOL0     H51427   3.148   7.566  11.008  1.6063  1.1947  0.3545
  381MOL0     H51428   3.167   7.494  11.171 -1.0234 -1.6909 -0.9975
  381MOL0     H51429   3.168   7.749  11.248  0.2836  0.0859 -0.7312
  381MOL0     H51430   3.155   7.792  11.087  0.0506 -0.9897  0.4719
  381MOL0     H51431   3.372   7.607  11.192 -1.9822 -1.8366 -1.4254
  381MOL0     H51432   3.397   7.788  11.164  3.4089  0.6594 -2.0218
  381MOL0     H51433   3.432   7.653  10.770 -1.6287  1.7706  0.0615
  381MOL0     H51434   2.728   7.437  11.143 -0.4353 -0.5351 -1.1531
  381MOL0     H51435   2.500   7.466  11.158 -0.3121  0.4367 -0.4839
  382MOL0     O51436  10.621   6.577   8.986  0.4840  0.0167 -0.2961
  382MOL0     C51437  10.695   6.663   9.043  0.3100 -0.4170 -0.3476
  382MOL0     O51438  10.644   6.778   9.108  0.0634 -0.5279  0.6441
  382MOL0     C51439  10.513   6.821   9.075  0.2835  0.5085 -0.0098
  382MOL0     C51440  10.493   6.946   9.017 -0.4558 -0.4859  0.6642
  382MOL0     C51441  10.373   7.007   8.994  0.2097 -0.9238  0.3143
  382MOL0     C51442  10.260   6.936   9.026 -0.9246  0.5284  0.3874
  382MOL0     O51443  10.132   6.992   9.009 -0.5847  0.3999  0.2068
  382MOL0     C51444  10.080   6.954   8.880  0.3047 -0.3319 -0.6581
  382MOL0     C51445   9.936   7.001   8.862 -0.8197 -0.2106  0.3795
  382MOL0     C51446   9.862   6.914   8.972 -0.5112 -0.3938  0.4361
  382MOL0     C51447   9.719   6.970   8.990  0.3377  0.1582  0.4300
  382MOL0     C51448   9.645   6.885   9.086  0.3260  0.1829  0.8587
  382MOL0     C51449   9.495   6.930   9.105 -0.6393  0.1600  0.6071
  382MOL0     C51450   9.405   6.914   8.971 -0.3738  0.0710 -0.8456
  382MOL0     C51451   9.276   6.984   9.006 -0.4009 -0.4548  0.0440
  382MOL0     N51452   9.178   6.962   8.904  0.4440  0.7867  0.0656
  382MOL0     C51453   9.035   6.968   8.910  0.1571  0.2113  0.6595
  382MOL0     C51454   8.993   6.910   8.795  0.4959  1.2626 -0.3041
  382MOL0     C51455   8.855   6.890   8.750  0.5034 -0.4011 -0.8625
  382MOL0     C51456   8.831   6.783   8.651 -0.1442 -0.0423  0.4293
  382MOL0     C51457   8.684   6.785   8.601 -0.1254 -0.3436  0.4407
  382MOL0     C51458   8.677   6.863   8.468  0.3237  0.4156 -0.6081
  382MOL0     O51459   8.542   6.886   8.409 -0.1820  0.1119  0.2341
  382MOL0     C51460   8.466   6.778   8.380  0.3789  0.1969 -0.7166
  382MOL0     C51461   8.520   6.657   8.336 -0.2510 -0.3533  0.1923
  382MOL0     C51462   8.431   6.543   8.322 -0.4169  1.2363 -0.4189
  382MOL0     C51463   8.495   6.409   8.298  0.3135 -0.4435 -0.2971
  382MOL0     C51464   8.295   6.554   8.352  0.9962 -0.7016  1.3804
  382MOL0     C51465   8.188   6.454   8.322  0.2698  0.4218  0.4043
  382MOL0     O51466   8.062   6.482   8.365  0.8301 -0.3660  0.7882
  382MOL0     C51467   7.969   6.376   8.368 -1.4505 -0.4488  0.3732
  382MOL0     C51468   7.995   6.249   8.428 -0.0296  0.0837  0.7029
  382MOL0     C51469   7.893   6.152   8.447 -0.3060 -0.1307  0.5796
  382MOL0     C51470   7.766   6.174   8.399 -0.5558 -0.4446  0.0801
  382MOL0     O51471   7.676   6.079   8.435  0.6035 -0.0229 -0.0166
  382MOL0     C51472   7.540   6.098   8.403  0.0216  0.3878  0.4880
  382MOL0     C51473   7.469   5.960   8.423 -0.6511 -1.2700  0.8576
  382MOL0     C51474   7.334   5.968   8.356 -0.2351  0.0347 -0.2756
  382MOL0     C51475   7.248   5.853   8.398  0.3584  0.5789 -0.2714
  382MOL0     C51476   7.114   5.859   8.317  0.8656 -0.7127  0.6421
  382MOL0     C51477   7.019   5.743   8.357 -0.0544  0.0190  0.4104
  382MOL0     C51478   6.894   5.742   8.267 -0.6734 -0.0454 -0.4706
  382MOL0     C51479   6.783   5.649   8.330  0.7022  0.1414  0.0882
  382MOL0    Cl51480   6.618   5.675   8.252 -0.3348  0.2481 -0.4742
  382MOL0     C51481   7.747   6.298   8.332  0.1161 -0.0400 -0.7131
  382MOL0     C51482   7.844   6.400   8.318 -0.1194 -0.0598 -0.3206
  382MOL0     O51483   8.219   6.353   8.255 -0.0497  0.1985 -0.2644
  382MOL0     C51484   8.252   6.678   8.401  0.1732  0.3502 -0.3647
  382MOL0     C51485   8.330   6.791   8.416 -0.1497  0.6489  0.9774
  382MOL0     N51486   9.103   6.880   8.721 -0.0589  1.3172  0.2400
  382MOL0     N51487   9.207   6.896   8.784  0.1349 -0.4286 -0.0427
  382MOL0     C51488  10.274   6.804   9.076  0.8550  0.3277  0.0426
  382MOL0     C51489  10.397   6.745   9.103  0.1902 -0.1790  0.2254
  382MOL0     C51490  10.837   6.622   9.059 -0.8226 -0.0579  0.5998
  382MOL0     C51491  10.890   6.530   8.969 -0.0544 -0.2359 -0.6535
  382MOL0     C51492  11.021   6.507   8.967 -0.3028  0.7614 -1.6022
  382MOL0     C51493  11.106   6.568   9.066  0.9095 -0.5444 -0.4477
  382MOL0     O51494  11.238   6.524   9.062  0.2324  0.1513  0.2055
  382MOL0     C51495  11.324   6.585   9.153 -0.2260 -0.2416  0.2841
  382MOL0     C51496  11.372   6.715   9.101 -0.6968 -0.3886  0.3504
  382MOL0     C51497  11.453   6.698   8.976 -0.9867 -0.0090  0.6933
  382MOL0     C51498  11.571   6.597   8.976  0.1179  0.2763  0.0466
  382MOL0     C51499  11.670   6.641   9.078  1.0019 -0.5183 -0.6598
  382MOL0     C51500  11.748   6.670   9.170 -0.4790 -1.2109  0.6852
  382MOL0     C51501  11.051   6.664   9.160 -0.5614  0.1064  0.0502
  382MOL0     C51502  10.916   6.687   9.157  0.3417 -0.8305 -0.2716
  382MOL0     H51503  10.577   7.012   8.999 -0.2210 -0.5223  1.5615
  382MOL0     H51504  10.365   7.107   8.952 -0.4854 -1.4520 -0.8352
  382MOL0     H51505  10.143   6.971   8.792  0.6058 -4.5486 -1.4798
  382MOL0     H51506  10.078   6.845   8.879  0.2735 -0.3734  1.2131
  382MOL0     H51507   9.937   7.109   8.877 -1.5825 -0.1985  0.4167
  382MOL0     H51508   9.888   6.986   8.765  0.1875 -0.4058 -0.0986
  382MOL0     H51509   9.847   6.809   8.942  0.9955 -0.3283 -0.6844
  382MOL0     H51510   9.915   6.919   9.067 -1.7284 -1.5691  1.2101
  382MOL0     H51511   9.732   7.067   9.040  2.7441  1.1697 -1.9067
  382MOL0     H51512   9.668   6.991   8.896  0.9869 -0.1464  0.0044
  382MOL0     H51513   9.643   6.782   9.048  1.5178  1.1846 -2.2842
  382MOL0     H51514   9.696   6.880   9.182 -2.5331 -0.7692  2.4428
  382MOL0     H51515   9.439   6.868   9.176 -0.8951  0.7308  0.9070
  382MOL0     H51516   9.489   7.032   9.143  0.1064 -0.0996  1.4686
  382MOL0     H51517   9.459   6.959   8.888 -0.8871  3.3319  0.4537
  382MOL0     H51518   9.382   6.815   8.931 -1.0541  0.9489 -2.7567
  382MOL0     H51519   9.296   7.092   9.007  1.2142 -0.7254  1.4476
  382MOL0     H51520   9.235   6.955   9.103 -1.1095 -1.1214 -0.4440
  382MOL0     H51521   8.976   6.999   8.996 -1.1141 -0.3140 -0.0014
  382MOL0     H51522   8.783   6.880   8.831  2.3826 -1.4046  0.7674
  382MOL0     H51523   8.829   6.991   8.715 -1.1121 -0.3864  0.3150
  382MOL0     H51524   8.859   6.690   8.701  0.7784  0.0181  0.0571
  382MOL0     H51525   8.895   6.799   8.563 -2.0459  0.9487 -0.8520
  382MOL0     H51526   8.599   6.816   8.663  0.3877  0.1103  0.9391
  382MOL0     H51527   8.658   6.681   8.582 -1.6459  0.1447 -0.3102
  382MOL0     H51528   8.741   6.812   8.396 -2.1134 -3.7200 -0.1698
  382MOL0     H51529   8.714   6.965   8.483  0.4573  0.5627 -1.8418
  382MOL0     H51530   8.622   6.658   8.300  1.2855  0.6690  3.9912
  382MOL0     H51531   8.596   6.419   8.340 -0.2577  2.5013  0.5868
  382MOL0     H51532   8.444   6.325   8.345 -1.7208  0.5678 -0.5568
  382MOL0     H51533   8.490   6.388   8.191 -2.6608 -0.3095 -0.2530
  382MOL0     H51534   8.096   6.242   8.468  1.1603 -2.0483 -2.3006
  382MOL0     H51535   7.917   6.058   8.496  1.1554  0.4806  1.1095
  382MOL0     H51536   7.502   6.164   8.481  1.4757  1.0587  0.6614
  382MOL0     H51537   7.527   6.125   8.298 -0.7548 -3.4953 -0.5583
  382MOL0     H51538   7.523   5.882   8.370  0.1968  1.1025 -2.0061
  382MOL0     H51539   7.474   5.942   8.531  3.4099  1.2116  1.2777
  382MOL0     H51540   7.353   5.972   8.249 -0.4395 -1.4707 -0.3823
  382MOL0     H51541   7.275   6.044   8.409 -0.5846 -1.8178  2.2039
  382MOL0     H51542   7.302   5.760   8.376  1.3424  1.1506 -0.3511
  382MOL0     H51543   7.232   5.873   8.504  0.1401 -3.0351  0.5026
  382MOL0     H51544   7.143   5.849   8.212 -0.8905 -0.0451  0.0589
  382MOL0     H51545   7.056   5.951   8.332 -0.3881 -1.1217 -1.3123
  382MOL0     H51546   7.077   5.650   8.355  0.9149  0.5822 -2.2078
  382MOL0     H51547   6.990   5.769   8.459  0.9140  0.7200  0.5294
  382MOL0     H51548   6.926   5.710   8.168 -3.5287 -0.8652 -1.2402
  382MOL0     H51549   6.856   5.844   8.272 -2.2716 -0.6311  0.4805
  382MOL0     H51550   6.782   5.684   8.433  0.9967  3.9475 -1.0416
  382MOL0     H51551   6.807   5.543   8.335 -2.1012 -0.5646  0.3563
  382MOL0     H51552   7.644   6.317   8.303 -1.1766 -0.9703  2.7668
  382MOL0     H51553   7.818   6.487   8.258 -0.2891 -1.1733 -1.9024
  382MOL0     H51554   8.149   6.690   8.433 -0.0952 -0.6531 -0.8055
  382MOL0     H51555   8.310   6.885   8.466 -2.6466  0.4140  0.5252
  382MOL0     H51556  10.180   6.751   9.090 -1.3805  3.2265 -2.6007
  382MOL0     H51557  10.411   6.643   9.137  1.9109 -1.1766 -3.0515
  382MOL0     H51558  10.825   6.483   8.895 -3.1450  2.3178  0.2282
  382MOL0     H51559  11.054   6.440   8.888  0.2013 -0.0209 -0.7451
  382MOL0     H51560  11.287   6.606   9.254  2.7772 -0.7410  1.5996
  382MOL0     H51561  11.415   6.525   9.159 -0.3215 -0.3511  0.6508
  382MOL0     H51562  11.441   6.750   9.178 -2.9790  1.8998  1.5255
  382MOL0     H51563  11.295   6.792   9.086  0.6107  0.8782 -0.0862
  382MOL0     H51564  11.492   6.798   8.952 -2.2932  0.1640 -0.9435
  382MOL0     H51565  11.388   6.660   8.897 -1.3838 -0.8953  1.4311
  382MOL0     H51566  11.611   6.592   8.874 -0.4759  2.8841 -0.3706
  382MOL0     H51567  11.536   6.495   8.996 -2.1026  1.1733  1.0378
  382MOL0     H51568  11.810   6.709   9.248  2.7032  1.4733 -2.7903
  382MOL0     H51569  11.107   6.720   9.234 -0.4746 -1.7332  1.4483
  382MOL0     H51570  10.874   6.756   9.229  0.7203 -2.3309  1.4771
  383MOL0     O51571   9.996   9.020   9.208  0.4037 -0.5388 -0.7867
  383MOL0     C51572   9.964   9.110   9.135 -0.3078 -0.0050 -0.2087
  383MOL0     O51573   9.839   9.134   9.085  0.8432 -0.1386  0.1378
  383MOL0     C51574   9.727   9.049   9.106  0.8156 -0.2436  0.2543
  383MOL0     C51575   9.699   8.972   9.221 -0.7437  0.3605 -0.2008
  383MOL0     C51576   9.591   8.886   9.218 -0.5175 -0.0238 -0.3766
  383MOL0     C51577   9.512   8.870   9.099 -0.8022  0.5542 -0.7754
  383MOL0     O51578   9.402   8.785   9.103  0.1690 -0.5306 -0.2326
  383MOL0     C51579   9.291   8.829   9.023 -0.3062 -0.0850 -0.1492
  383MOL0     C51580   9.182   8.741   9.060 -0.0113  0.4400 -0.2796
  383MOL0     C51581   9.065   8.741   8.962 -0.5107 -0.5479 -0.4932
  383MOL0     C51582   8.996   8.877   8.956  0.2642 -0.3017  0.7944
  383MOL0     C51583   8.854   8.883   8.911  0.4095  0.0676  0.6233
  383MOL0     C51584   8.771   8.859   9.031  1.3592 -0.0719  0.0830
  383MOL0     C51585   8.625   8.855   8.998  0.6727 -0.1099 -0.1687
  383MOL0     C51586   8.547   8.777   9.097 -0.0725  0.1720 -0.3217
  383MOL0     N51587   8.402   8.802   9.088 -0.2698  0.0025  0.5605
  383MOL0     C51588   8.325   8.859   9.181 -1.3207 -0.9916 -0.7730
  383MOL0     C51589   8.201   8.865   9.131 -0.5829 -0.0230  0.0876
  383MOL0     C51590   8.082   8.922   9.194 -0.4374 -0.4750  0.2869
  383MOL0     C51591   7.991   9.013   9.101  0.0513  0.4376  0.1996
  383MOL0     C51592   7.876   9.060   9.176  0.2472  0.3766 -0.2798
  383MOL0     C51593   7.786   9.160   9.089 -0.0787  0.2869 -0.7696
  383MOL0     O51594   7.658   9.171   9.161 -0.3898 -0.0841  0.4571
  383MOL0     C51595   7.553   9.243   9.104  0.2144 -0.1885 -0.5763
  383MOL0     C51596   7.555   9.315   8.987 -0.1726 -0.0647  1.1536
  383MOL0     C51597   7.439   9.389   8.936 -1.4569 -0.3715 -0.3820
  383MOL0     C51598   7.474   9.480   8.813  0.5798 -0.2688 -0.2655
  383MOL0     C51599   7.325   9.374   9.012  0.5152 -1.1901  0.2381
  383MOL0     C51600   7.199   9.439   8.971  1.0697  0.5503  1.1459
  383MOL0     O51601   7.212   9.550   8.897 -0.3720  0.1785 -0.5270
  383MOL0     C51602   7.104   9.606   8.838 -1.0407 -0.3945 -0.1835
  383MOL0     C51603   7.038   9.535   8.748 -0.2255 -0.1586  0.0425
  383MOL0     C51604   6.934   9.599   8.678  0.3429 -0.5231 -0.7900
  383MOL0     C51605   6.880   9.714   8.729  1.1698 -0.8693 -0.0946
  383MOL0     O51606   6.779   9.766   8.652 -0.0110 -0.0792 -0.1536
  383MOL0     C51607   6.768   9.902   8.642  0.6615 -0.4355  0.5286
  383MOL0     C51608   6.664   9.948   8.530 -0.0143  0.0284 -0.6534
  383MOL0     C51609   6.523   9.914   8.576  0.1842 -0.0933 -0.3615
  383MOL0     C51610   6.443  10.031   8.636 -0.5732 -0.4880 -0.3117
  383MOL0     C51611   6.305   9.989   8.681 -0.8999 -0.7466 -0.6693
  383MOL0     C51612   6.211  10.113   8.687  0.5817 -0.3155  0.2077
  383MOL0     C51613   6.186  10.147   8.835  0.2085  0.0985 -0.1424
  383MOL0     C51614   6.098  10.272   8.864  0.6114 -0.3262  0.1701
  383MOL0    Cl51615   5.941  10.257   8.777 -0.2030 -0.4377  0.2763
  383MOL0     C51616   6.948   9.780   8.834  0.2523  0.1160 -0.0708
  383MOL0     C51617   7.058   9.723   8.893 -0.4964  0.7315  0.8379
  383MOL0     O51618   7.084   9.406   9.022  0.2163  0.5672  0.5135
  383MOL0     C51619   7.328   9.297   9.132  0.3195 -0.4388  0.0632
  383MOL0     C51620   7.435   9.235   9.184  0.0637  0.0006  0.4330
  383MOL0     N51621   8.205   8.817   9.002 -0.6117 -0.0700  0.2494
  383MOL0     N51622   8.318   8.766   8.988  0.3325 -0.5980  0.2246
  383MOL0     C51623   9.543   8.948   8.993 -0.5755  0.3942 -0.3042
  383MOL0     C51624   9.648   9.032   8.994 -0.5335 -0.4539 -0.5475
  383MOL0     C51625  10.061   9.220   9.118  0.2203  0.5096 -0.8558
  383MOL0     C51626  10.194   9.197   9.152  0.3131  0.5937  0.4711
  383MOL0     C51627  10.284   9.301   9.144 -0.6463  0.5670 -0.1739
  383MOL0     C51628  10.252   9.420   9.088  0.5477 -0.8911  1.4904
  383MOL0     O51629  10.332   9.532   9.065 -0.3205  0.4988  0.4224
  383MOL0     C51630  10.454   9.547   9.136 -0.1621 -0.4332 -0.1728
  383MOL0     C51631  10.504   9.691   9.101 -0.2453 -0.0988 -0.0122
  383MOL0     C51632  10.417   9.804   9.170  0.1040 -0.0585 -0.4883
  383MOL0     C51633  10.475   9.947   9.178  0.6240 -0.5419 -0.0449
  383MOL0     C51634  10.595   9.958   9.264 -0.7872 -0.0863 -0.9179
  383MOL0     C51635  10.694   9.968   9.331 -0.1398 -0.7436  0.3163
  383MOL0     C51636  10.125   9.439   9.048  0.0779 -0.5640 -0.1164
  383MOL0     C51637  10.028   9.347   9.071  0.2590  0.6173 -0.0557
  383MOL0     H51638   9.769   8.978   9.304  0.2666  3.1819 -1.1504
  383MOL0     H51639   9.562   8.832   9.307  0.9579 -0.7713 -0.3229
  383MOL0     H51640   9.259   8.930   9.050 -1.2782 -0.2699 -0.5597
  383MOL0     H51641   9.311   8.825   8.915  2.4914  0.4798  0.2635
  383MOL0     H51642   9.212   8.637   9.075  0.5569  0.5281 -0.7898
  383MOL0     H51643   9.155   8.767   9.163  1.7512 -0.9502  0.6015
  383MOL0     H51644   9.084   8.702   8.861 -2.9418 -1.2741 -0.7473
  383MOL0     H51645   8.992   8.666   8.994 -1.3183 -1.1844 -3.4653
  383MOL0     H51646   9.009   8.930   9.051 -3.1163  2.7530 -0.2168
  383MOL0     H51647   9.053   8.929   8.879 -0.9681 -0.5210 -0.3052
  383MOL0     H51648   8.845   8.986   8.876 -1.4321 -1.1618 -3.1407
  383MOL0     H51649   8.824   8.815   8.830  0.7825 -0.7737  1.1801
  383MOL0     H51650   8.803   8.760   9.064  4.3161  0.9808  0.7799
  383MOL0     H51651   8.788   8.926   9.116 -0.9049 -1.3734  1.6640
  383MOL0     H51652   8.587   8.957   8.994  0.2945 -0.0806  2.4543
  383MOL0     H51653   8.603   8.809   8.901  0.8154  0.1405 -0.3214
  383MOL0     H51654   8.580   8.802   9.198  1.3039 -1.2886 -0.3799
  383MOL0     H51655   8.565   8.672   9.076 -2.4603 -0.2206 -0.7499
  383MOL0     H51656   8.358   8.901   9.275 -4.4566 -1.0052  0.4383
  383MOL0     H51657   8.026   8.833   9.223 -2.4184  0.6020 -0.1134
  383MOL0     H51658   8.114   8.979   9.282 -1.8053  0.5160  0.1747
  383MOL0     H51659   7.967   8.950   9.014  1.0589 -0.5215  0.5884
  383MOL0     H51660   8.050   9.099   9.068  1.7314 -0.7293  0.0222
  383MOL0     H51661   7.916   9.106   9.267  1.5031 -4.8317  2.2043
  383MOL0     H51662   7.816   8.975   9.211 -0.9862  1.3991  0.1363
  383MOL0     H51663   7.770   9.110   8.993 -0.5409  1.4301 -1.3118
  383MOL0     H51664   7.835   9.256   9.071 -2.9474  2.0768  0.1164
  383MOL0     H51665   7.650   9.317   8.935  0.1669  1.4358  1.7692
  383MOL0     H51666   7.411   9.457   8.726 -0.1266 -2.4380  0.7550
  383MOL0     H51667   7.459   9.586   8.835 -0.2973 -0.5217  0.4117
  383MOL0     H51668   7.573   9.459   8.771  1.3125 -0.6227  1.5740
  383MOL0     H51669   7.068   9.437   8.710 -3.7144 -2.5650  2.7672
  383MOL0     H51670   6.900   9.549   8.588  0.5276 -2.0690 -0.0365
  383MOL0     H51671   6.729   9.945   8.734 -0.1427  0.0772 -0.0437
  383MOL0     H51672   6.852   9.965   8.609  0.0140 -0.0535 -0.4215
  383MOL0     H51673   6.662  10.053   8.498 -1.0350 -0.5040 -2.4612
  383MOL0     H51674   6.702   9.897   8.442  0.9865 -0.2924 -0.0549
  383MOL0     H51675   6.532   9.844   8.660  3.6026  1.4875  0.7644
  383MOL0     H51676   6.475   9.864   8.491  0.5430 -2.2827  0.6446
  383MOL0     H51677   6.495  10.076   8.722  1.1738 -2.6696 -0.1256
  383MOL0     H51678   6.443  10.104   8.555  5.8682 -0.1412 -0.4996
  383MOL0     H51679   6.308   9.936   8.776 -1.1332  0.0422 -0.2154
  383MOL0     H51680   6.257   9.916   8.615  0.7674 -1.7919 -0.7854
  383MOL0     H51681   6.273  10.196   8.652  4.2778 -2.3762  1.2726
  383MOL0     H51682   6.110  10.106   8.645  1.1329 -0.7291 -1.1117
  383MOL0     H51683   6.285  10.157   8.880  1.0476  1.3804 -2.1294
  383MOL0     H51684   6.135  10.062   8.881  1.7311  0.2308  1.9244
  383MOL0     H51685   6.140  10.363   8.821  1.3930 -1.7294 -2.2326
  383MOL0     H51686   6.094  10.291   8.972 -0.4187 -3.6805  0.8396
  383MOL0     H51687   6.911   9.874   8.874 -1.6862 -1.4171  1.9097
  383MOL0     H51688   7.115   9.754   8.981  0.4447 -1.6259  1.1577
  383MOL0     H51689   7.237   9.290   9.191  0.9954  1.4558  1.4184
  383MOL0     H51690   7.431   9.175   9.275 -1.2031  0.0080  0.4065
  383MOL0     H51691   9.477   8.952   8.907 -3.0313 -1.0702  1.3740
  383MOL0     H51692   9.662   9.100   8.910 -0.1599 -1.2926 -1.1827
  383MOL0     H51693  10.228   9.098   9.182  0.0202  0.0989 -0.7887
  383MOL0     H51694  10.386   9.269   9.163 -0.7807  0.3346  0.1515
  383MOL0     H51695  10.447   9.543   9.245  0.1428 -0.6445 -0.1576
  383MOL0     H51696  10.525   9.471   9.099  0.0489  0.7616 -2.4149
  383MOL0     H51697  10.519   9.706   8.993 -0.0696  5.0862  0.4747
  383MOL0     H51698  10.602   9.704   9.146  0.0679 -0.1733 -0.6531
  383MOL0     H51699  10.389   9.778   9.272 -0.1613  0.6196 -0.3825
  383MOL0     H51700  10.325   9.806   9.110  1.1392  1.6921 -2.1417
  383MOL0     H51701  10.401  10.019   9.212  0.7438  0.1218 -1.1489
  383MOL0     H51702  10.508   9.977   9.078 -0.8886  0.9185 -0.1435
  383MOL0     H51703  10.787   9.991   9.379  0.5647 -2.3320 -0.2097
  383MOL0     H51704  10.100   9.529   8.992  0.2026 -1.2705 -1.3479
  383MOL0     H51705   9.930   9.360   9.026  0.0716 -0.0494  0.1564
  384MOL0     O51706   8.753  11.014  10.618 -0.1316  1.3017 -0.0850
  384MOL0     C51707   8.802  11.125  10.587  0.4076  0.8491 -0.0629
  384MOL0     O51708   8.722  11.235  10.554 -0.3220  0.7268  0.4072
  384MOL0     C51709   8.584  11.212  10.556 -0.1397  0.4317  0.5046
  384MOL0     C51710   8.506  11.187  10.669  0.1496 -0.1996 -0.8708
  384MOL0     C51711   8.368  11.192  10.664  0.0090 -0.9173 -0.1666
  384MOL0     C51712   8.307  11.232  10.541 -0.0165  0.8136  0.0392
  384MOL0     O51713   8.177  11.260  10.526  0.3405  0.9923 -0.1096
  384MOL0     C51714   8.094  11.204  10.641 -0.2105  0.8022  0.0638
  384MOL0     C51715   7.942  11.221  10.602 -1.2469 -0.3858 -0.8500
  384MOL0     C51716   7.846  11.238  10.725 -0.1817  0.2041  0.1247
  384MOL0     C51717   7.869  11.129  10.835 -0.4965  0.6205  0.0559
  384MOL0     C51718   7.749  11.104  10.935  0.3746 -1.3751 -0.2237
  384MOL0     C51719   7.759  10.980  11.021  0.0937  1.1192  0.1694
  384MOL0     C51720   7.652  10.957  11.122 -0.4900 -0.3894 -0.7865
  384MOL0     C51721   7.572  11.083  11.166  0.1362  0.3316  0.5492
  384MOL0     N51722   7.667  11.171  11.244 -0.3338  0.6756  0.4832
  384MOL0     C51723   7.801  11.157  11.274 -0.1862 -0.1551 -0.0895
  384MOL0     C51724   7.847  11.283  11.314  0.5954  1.1121 -0.5566
  384MOL0     C51725   7.983  11.315  11.365  0.3092 -0.5408 -0.0336
  384MOL0     C51726   8.007  11.297  11.516 -0.0880 -0.0186 -0.0334
  384MOL0     C51727   8.000  11.150  11.569  0.1085 -0.4867  0.0946
  384MOL0     C51728   8.033  11.141  11.719  0.5592  0.2417  0.6149
  384MOL0     O51729   8.148  11.222  11.751  0.0673  0.4668  0.6793
  384MOL0     C51730   8.126  11.321  11.844  0.9831  0.1011 -1.0238
  384MOL0     C51731   8.194  11.440  11.831  0.1023 -0.4479  0.3018
  384MOL0     C51732   8.194  11.553  11.916  0.1079  0.4691 -0.3436
  384MOL0     C51733   8.293  11.667  11.896  0.5468 -0.0319  0.9889
  384MOL0     C51734   8.111  11.544  12.029 -0.5378  0.0106 -0.3737
  384MOL0     C51735   8.119  11.635  12.140 -0.1774  0.2156  0.2656
  384MOL0     O51736   8.168  11.761  12.120 -0.9377 -0.0853  0.3118
  384MOL0     C51737   8.204  11.842  12.228  0.4145  0.6801 -0.0856
  384MOL0     C51738   8.292  11.797  12.320  0.1675 -0.2499  0.0022
  384MOL0     C51739   8.346  11.890  12.413 -0.3987  0.2713  0.1809
  384MOL0     C51740   8.307  12.025  12.411 -0.3722 -0.2661  0.0671
  384MOL0     O51741   8.362  12.129  12.488 -0.6652  0.1118 -0.1080
  384MOL0     C51742   8.411  12.101  12.619 -0.4393 -0.2707  0.2559
  384MOL0     C51743   8.306  12.145  12.726  0.7791 -0.6950 -0.8696
  384MOL0     C51744   8.166  12.057  12.722  0.0848 -0.6738  0.0529
  384MOL0     C51745   8.079  12.065  12.856 -0.6944  0.1138  0.4777
  384MOL0     C51746   8.001  12.191  12.868  0.1446  0.9056  0.4473
  384MOL0     C51747   7.929  12.197  13.003 -0.6123 -0.7565  0.1753
  384MOL0     C51748   7.872  12.332  13.047  0.4053  0.5729  0.3064
  384MOL0     C51749   7.815  12.322  13.189  0.6233 -0.8428  0.1369
  384MOL0    Cl51750   7.941  12.307  13.303 -0.0049  0.0919 -0.6233
  384MOL0     C51751   8.212  12.064  12.317  0.0686  1.0119  0.2863
  384MOL0     C51752   8.164  11.980  12.223 -0.2446 -0.2510 -0.2456
  384MOL0     O51753   8.096  11.589  12.254 -0.0832  0.1830  0.4666
  384MOL0     C51754   8.043  11.422  12.050 -0.5087  0.0112 -0.5456
  384MOL0     C51755   8.059  11.309  11.969  0.3517 -0.2853  0.5441
  384MOL0     N51756   7.734  11.362  11.309 -0.4332 -0.1081 -0.1819
  384MOL0     N51757   7.640  11.296  11.254  1.1333 -0.0012  0.0074
  384MOL0     C51758   8.385  11.255  10.426  0.3894 -0.2493 -0.8093
  384MOL0     C51759   8.523  11.246  10.435  0.1178  0.3566 -0.8422
  384MOL0     C51760   8.949  11.148  10.596 -0.3118  0.0197  0.8926
  384MOL0     C51761   9.043  11.048  10.607  0.0056  0.3740  0.5738
  384MOL0     C51762   9.174  11.084  10.598 -0.6983  0.1737  0.5647
  384MOL0     C51763   9.219  11.216  10.590  0.2974 -1.1421  0.0775
  384MOL0     O51764   9.350  11.255  10.596  0.0766 -0.2801  0.5642
  384MOL0     C51765   9.440  11.145  10.627  0.4954  0.0386  0.1393
  384MOL0     C51766   9.580  11.205  10.638  0.2869  0.2965  1.1386
  384MOL0     C51767   9.576  11.308  10.750  0.0631  0.4216  0.3486
  384MOL0     C51768   9.715  11.368  10.759 -0.1471 -0.5520  0.8661
  384MOL0     C51769   9.837  11.281  10.762  0.7800  0.8097  0.3166
  384MOL0     C51770   9.936  11.215  10.753  0.4405  0.1974 -0.2747
  384MOL0     C51771   9.119  11.314  10.575 -0.5343  0.6660 -0.2218
  384MOL0     C51772   8.987  11.280  10.577 -0.1696  0.3133 -0.6805
  384MOL0     H51773   8.543  11.152  10.764 -2.1060 -2.6227 -0.7503
  384MOL0     H51774   8.313  11.176  10.756  0.7258 -1.3373  0.1990
  384MOL0     H51775   8.111  11.096  10.647  0.6575  0.8871 -0.7403
  384MOL0     H51776   8.132  11.248  10.733  2.6660  0.0930 -0.6858
  384MOL0     H51777   7.927  11.300  10.528 -1.4597 -0.2662 -0.6792
  384MOL0     H51778   7.906  11.133  10.548 -0.1377 -1.6956  0.4318
  384MOL0     H51779   7.849  11.338  10.769 -1.6772 -0.2325  1.2818
  384MOL0     H51780   7.746  11.228  10.683 -0.4329  2.0293  0.2074
  384MOL0     H51781   7.896  11.043  10.773  2.2377  2.1159 -0.9900
  384MOL0     H51782   7.956  11.168  10.888 -2.2205  1.0207  2.8112
  384MOL0     H51783   7.752  11.195  10.996 -0.2572 -0.3649 -1.6428
  384MOL0     H51784   7.653  11.113  10.884  0.9260 -0.0748 -1.0832
  384MOL0     H51785   7.768  10.893  10.955  2.6015 -1.2264  3.3133
  384MOL0     H51786   7.854  10.986  11.074 -0.8325 -0.1363  2.0549
  384MOL0     H51787   7.574  10.884  11.097 -1.6150  0.3994  0.3006
  384MOL0     H51788   7.701  10.919  11.212 -0.6956  1.5520  0.2042
  384MOL0     H51789   7.490  11.061  11.235  0.2623  0.6113  0.7926
  384MOL0     H51790   7.525  11.138  11.085 -0.7512  3.2237  2.8538
  384MOL0     H51791   7.861  11.067  11.269  1.3064  0.7711  0.3119
  384MOL0     H51792   8.055  11.258  11.306 -0.9812 -3.4732  1.0243
  384MOL0     H51793   7.995  11.421  11.339 -3.4422 -1.0307 -5.0239
  384MOL0     H51794   7.933  11.356  11.571 -0.9793 -2.5508  1.6536
  384MOL0     H51795   8.106  11.338  11.538  0.4739 -1.0323 -0.6166
  384MOL0     H51796   8.051  11.074  11.510  1.3318  0.3974 -0.0162
  384MOL0     H51797   7.892  11.138  11.556 -0.4577  3.3260 -0.1237
  384MOL0     H51798   8.048  11.034  11.735 -0.3457 -0.1986 -1.2294
  384MOL0     H51799   7.949  11.184  11.774  1.5342  0.8946  1.6427
  384MOL0     H51800   8.261  11.438  11.746  0.4434 -0.7487  0.5713
  384MOL0     H51801   8.248  11.767  11.909  2.5063  0.5669  4.6156
  384MOL0     H51802   8.364  11.635  11.973 -1.8968 -3.3716  2.0801
  384MOL0     H51803   8.340  11.676  11.798 -1.4985  1.0001  0.0404
  384MOL0     H51804   8.320  11.692  12.319  2.2599  0.2722  0.5295
  384MOL0     H51805   8.421  11.850  12.481  0.5138  1.7384  0.0842
  384MOL0     H51806   8.428  11.992  12.622 -0.3640 -0.4302 -3.1337
  384MOL0     H51807   8.506  12.145  12.652 -0.3528  0.1434 -0.5271
  384MOL0     H51808   8.335  12.134  12.830 -4.9250 -2.6263  0.8899
  384MOL0     H51809   8.271  12.248  12.714  4.1399  0.7779  0.8406
  384MOL0     H51810   8.183  11.954  12.687 -0.9760 -0.9152  0.2034
  384MOL0     H51811   8.103  12.111  12.652  1.3279  2.3196  1.1018
  384MOL0     H51812   8.002  11.987  12.846 -1.3973  0.8316  0.1707
  384MOL0     H51813   8.143  12.045  12.942  0.0348  1.5673  0.3003
  384MOL0     H51814   7.924  12.190  12.790 -0.7928  1.1372  1.3457
  384MOL0     H51815   8.069  12.277  12.861  1.0496  0.1046 -1.0275
  384MOL0     H51816   7.853  12.118  13.001  2.1999 -3.6737 -0.1670
  384MOL0     H51817   8.007  12.178  13.078 -0.1089  0.1393 -0.1050
  384MOL0     H51818   7.785  12.357  12.985 -1.6185 -0.7814  2.3973
  384MOL0     H51819   7.926  12.426  13.036 -2.6414  2.1930 -2.8418
  384MOL0     H51820   7.750  12.235  13.198  2.6695 -2.5961 -1.0710
  384MOL0     H51821   7.771  12.417  13.222  3.1429  0.0303  1.2544
  384MOL0     H51822   8.172  12.165  12.319 -1.4798  0.4455 -0.1785
  384MOL0     H51823   8.101  12.022  12.144 -0.9072 -2.9274 -1.2496
  384MOL0     H51824   7.982  11.409  12.138  0.3782  1.6790  0.3438
  384MOL0     H51825   8.019  11.209  11.984 -1.1539  0.1559 -0.3120
  384MOL0     H51826   8.327  11.295  10.343 -2.6015 -1.3357  0.6035
  384MOL0     H51827   8.570  11.265  10.339 -0.9005  0.3442 -1.3451
  384MOL0     H51828   9.020  10.943  10.619  0.5211 -0.1727 -2.4165
  384MOL0     H51829   9.242  10.999  10.603 -1.2363 -0.4599 -1.5551
  384MOL0     H51830   9.408  11.090  10.716  2.1266 -1.1981  0.0027
  384MOL0     H51831   9.439  11.075  10.543  0.0718 -1.6850  1.5222
  384MOL0     H51832   9.615  11.254  10.547  1.9485 -1.5628  0.7157
  384MOL0     H51833   9.641  11.119  10.665  0.1502 -0.5528 -1.0715
  384MOL0     H51834   9.548  11.257  10.843 -2.0644  1.2676  0.2279
  384MOL0     H51835   9.507  11.392  10.736 -0.0133  0.1569 -1.0406
  384MOL0     H51836   9.735  11.430  10.847  4.9340 -0.6158  0.0751
  384MOL0     H51837   9.728  11.435  10.674  1.1631 -2.3848 -0.4735
  384MOL0     H51838  10.024  11.154  10.762  2.5158  2.9353 -0.4362
  384MOL0     H51839   9.155  11.415  10.557  0.3669  0.1355 -1.5379
  384MOL0     H51840   8.917  11.362  10.567 -2.4504 -1.5812 -0.8838
  385MOL0     O51841   7.695   5.907   8.798 -0.2368  0.1676  0.2456
  385MOL0     C51842   7.712   6.000   8.871 -0.1725 -0.7771 -0.6636
  385MOL0     O51843   7.608   6.079   8.916  0.2235 -0.4251 -0.2663
  385MOL0     C51844   7.489   6.047   8.862 -0.1743  0.7623  0.4850
  385MOL0     C51845   7.451   6.115   8.756  1.1474 -0.0311  0.1828
  385MOL0     C51846   7.325   6.118   8.703 -0.6588  0.3902 -0.2090
  385MOL0     C51847   7.230   6.036   8.762 -0.9675 -0.3715 -0.2379
  385MOL0     O51848   7.113   6.028   8.694  0.5269  0.2857  0.3287
  385MOL0     C51849   7.006   5.939   8.739  0.1375  0.2128 -0.3139
  385MOL0     C51850   6.878   5.987   8.664 -0.8405 -0.5703 -0.2311
  385MOL0     C51851   6.752   5.909   8.707  0.1173 -0.6932 -0.1145
  385MOL0     C51852   6.775   5.758   8.735  0.6120 -0.5562  0.2220
  385MOL0     C51853   6.637   5.699   8.740  0.2027 -0.0443 -0.1306
  385MOL0     C51854   6.639   5.545   8.755  0.0910 -0.1379  0.0543
  385MOL0     C51855   6.495   5.486   8.774 -0.2356 -0.7271 -0.7173
  385MOL0     C51856   6.426   5.507   8.911 -0.7581 -0.9803  0.7535
  385MOL0     N51857   6.285   5.473   8.910 -0.3183 -0.1589  0.1140
  385MOL0     C51858   6.182   5.523   8.827 -1.0278  0.4812  0.1549
  385MOL0     C51859   6.086   5.428   8.838  0.3875  0.5551  0.0796
  385MOL0     C51860   5.942   5.443   8.784 -1.3416  0.0190 -0.8928
  385MOL0     C51861   5.881   5.341   8.691 -0.4739  0.3510 -0.2192
  385MOL0     C51862   5.732   5.337   8.711  0.6714  0.6898  0.4471
  385MOL0     C51863   5.664   5.460   8.645  0.1849 -0.5420 -0.4921
  385MOL0     O51864   5.523   5.449   8.656  0.1676 -0.3205 -0.0544
  385MOL0     C51865   5.439   5.550   8.618  0.0415  0.3678 -0.2138
  385MOL0     C51866   5.478   5.670   8.557  0.0891 -0.3767  0.5451
  385MOL0     C51867   5.383   5.767   8.529  0.4327  0.7820 -0.0822
  385MOL0     C51868   5.426   5.884   8.456  0.2369 -0.8146  0.6872
  385MOL0     C51869   5.246   5.740   8.570 -0.1802 -0.3471 -0.4364
  385MOL0     C51870   5.142   5.849   8.572  0.4270 -1.0752 -0.1546
  385MOL0     O51871   5.011   5.815   8.577  0.2392  0.2834  0.2854
  385MOL0     C51872   4.900   5.891   8.600  0.1944 -0.6505 -0.0722
  385MOL0     C51873   4.773   5.827   8.599 -0.5002  0.4633 -0.0909
  385MOL0     C51874   4.661   5.895   8.618  0.3171 -0.0414 -0.6105
  385MOL0     C51875   4.657   6.029   8.641  0.6168 -0.2785 -1.1526
  385MOL0     O51876   4.527   6.083   8.664 -0.4306  0.8357  0.4390
  385MOL0     C51877   4.502   6.222   8.650 -0.3522 -0.4132 -0.4823
  385MOL0     C51878   4.362   6.263   8.701 -0.4459 -0.2607  0.0252
  385MOL0     C51879   4.253   6.224   8.593 -0.8824 -0.4324 -0.5980
  385MOL0     C51880   4.238   6.329   8.487  1.3879  0.7485 -0.3375
  385MOL0     C51881   4.185   6.279   8.349  0.0907 -0.2513  0.2879
  385MOL0     C51882   4.049   6.217   8.366 -0.1141  0.2608  0.0157
  385MOL0     C51883   3.989   6.177   8.229 -0.4313 -1.2928  0.0577
  385MOL0     C51884   3.888   6.062   8.230 -0.1201  0.5614 -0.5595
  385MOL0    Cl51885   3.737   6.131   8.293  0.2132 -0.2173  0.0226
  385MOL0     C51886   4.777   6.099   8.638 -0.2592 -0.1475 -0.0637
  385MOL0     C51887   4.901   6.031   8.621  0.2488  0.1061 -0.2884
  385MOL0     O51888   5.186   5.961   8.578 -0.4417 -0.1400  0.4467
  385MOL0     C51889   5.213   5.626   8.629 -0.1718  0.2162 -0.0267
  385MOL0     C51890   5.308   5.535   8.657 -0.5680 -0.2966 -0.3888
  385MOL0     N51891   6.121   5.337   8.931 -0.4678  0.5142  0.4502
  385MOL0     N51892   6.248   5.356   8.959  0.9368 -0.1164  0.8940
  385MOL0     C51893   7.262   5.965   8.880  0.3018  0.6903  0.0524
  385MOL0     C51894   7.397   5.963   8.927 -0.0348  0.1765 -0.4462
  385MOL0     C51895   7.850   6.036   8.902  0.8911 -0.6328 -0.5035
  385MOL0     C51896   7.957   5.965   8.848 -0.1151 -0.0558  0.0086
  385MOL0     C51897   8.091   5.987   8.885 -0.1210 -0.8319  0.9823
  385MOL0     C51898   8.129   6.089   8.975  0.2433  0.5799  1.2456
  385MOL0     O51899   8.262   6.099   9.004  1.0135  0.7006  0.0230
  385MOL0     C51900   8.294   6.177   9.116 -0.5603  0.4584  0.4843
  385MOL0     C51901   8.451   6.176   9.147  0.2923  0.3000  0.1069
  385MOL0     C51902   8.537   6.195   9.023  0.0354  0.5490 -0.3385
  385MOL0     C51903   8.643   6.082   9.022 -0.8688 -0.4934  0.1790
  385MOL0     C51904   8.741   6.120   8.913  0.2275 -0.7101  0.1356
  385MOL0     C51905   8.817   6.122   8.819  0.0303 -0.1357  0.0478
  385MOL0     C51906   8.018   6.164   9.028 -0.8351 -0.7486  0.5150
  385MOL0     C51907   7.887   6.143   8.987  0.2092  0.5533  0.1863
  385MOL0     H51908   7.518   6.180   8.703 -1.8141 -0.5113 -4.7481
  385MOL0     H51909   7.304   6.178   8.615  2.4540  2.8731  0.5391
  385MOL0     H51910   7.038   5.837   8.717  1.7593  0.6314 -0.0247
  385MOL0     H51911   6.993   5.951   8.847 -1.4738  2.8630 -0.6897
  385MOL0     H51912   6.844   6.090   8.675  4.3272  1.3585  0.6759
  385MOL0     H51913   6.897   5.980   8.556 -0.9996 -1.0411 -0.2302
  385MOL0     H51914   6.714   5.954   8.799  0.1729  1.5772 -1.1246
  385MOL0     H51915   6.673   5.926   8.633  0.2498 -0.4234 -0.1954
  385MOL0     H51916   6.838   5.705   8.663 -0.1500  0.1866 -1.0242
  385MOL0     H51917   6.822   5.746   8.833  0.8771 -1.3695  0.0033
  385MOL0     H51918   6.596   5.745   8.830 -1.9190 -1.3539 -0.3599
  385MOL0     H51919   6.583   5.719   8.647  1.3778  2.8091 -0.3038
  385MOL0     H51920   6.700   5.506   8.673 -2.2230  1.1826 -2.4485
  385MOL0     H51921   6.699   5.517   8.843  0.5115 -1.8207 -0.7317
  385MOL0     H51922   6.438   5.526   8.689  0.7786  0.6359 -0.7940
  385MOL0     H51923   6.507   5.378   8.758 -2.1345 -1.5949  2.8364
  385MOL0     H51924   6.445   5.610   8.943 -0.6235 -0.6466 -0.3434
  385MOL0     H51925   6.470   5.440   8.985 -0.3063  3.0956  4.6170
  385MOL0     H51926   6.170   5.613   8.768  0.4788  0.0674 -0.8234
  385MOL0     H51927   5.886   5.452   8.878  0.5780  1.8870  0.1907
  385MOL0     H51928   5.920   5.542   8.743  0.2496  0.4983 -0.6627
  385MOL0     H51929   5.925   5.244   8.713  1.3918  0.6909 -2.1321
  385MOL0     H51930   5.906   5.362   8.587  0.4361 -1.2538 -0.3584
  385MOL0     H51931   5.707   5.340   8.817 -1.4532  0.4969  0.0072
  385MOL0     H51932   5.683   5.253   8.660  0.2961  0.9245  0.4146
  385MOL0     H51933   5.691   5.450   8.540  1.8723  0.5417 -0.2137
  385MOL0     H51934   5.702   5.556   8.681  0.1088  0.6008 -3.1985
  385MOL0     H51935   5.582   5.680   8.528 -0.4194 -3.2712 -3.0182
  385MOL0     H51936   5.371   5.893   8.362  1.0912  1.7219  0.3618
  385MOL0     H51937   5.418   5.964   8.530  2.5673 -0.0502  0.1748
  385MOL0     H51938   5.530   5.880   8.425  0.1064 -2.1085  0.3447
  385MOL0     H51939   4.769   5.720   8.582  1.9188  0.3895 -0.5542
  385MOL0     H51940   4.569   5.837   8.624 -2.0488  3.5327  1.5002
  385MOL0     H51941   4.562   6.259   8.735  1.6267 -3.3302 -0.4808
  385MOL0     H51942   4.535   6.269   8.557  0.6573 -0.8408 -0.3593
  385MOL0     H51943   4.345   6.215   8.798  2.5336 -0.7589  0.3891
  385MOL0     H51944   4.367   6.372   8.698  2.4555 -0.2887 -3.1186
  385MOL0     H51945   4.154   6.204   8.636 -0.7057  1.7666  1.0178
  385MOL0     H51946   4.290   6.129   8.552 -1.0141  0.1482 -2.1304
  385MOL0     H51947   4.174   6.407   8.529 -0.5865 -1.2784  0.6976
  385MOL0     H51948   4.334   6.368   8.454  2.4869 -0.3995  1.3439
  385MOL0     H51949   4.249   6.201   8.307  1.1318  0.4101  0.6110
  385MOL0     H51950   4.183   6.372   8.291  2.2002 -1.6911 -2.3599
  385MOL0     H51951   4.077   6.125   8.417 -0.6838  0.3263  0.4509
  385MOL0     H51952   3.980   6.278   8.426 -0.2853  0.9428 -0.8533
  385MOL0     H51953   4.067   6.144   8.161 -0.7075  0.1711 -1.0114
  385MOL0     H51954   3.936   6.261   8.184 -1.5681 -1.3694  1.1790
  385MOL0     H51955   3.920   5.989   8.305  0.7528 -0.2651 -1.7012
  385MOL0     H51956   3.878   6.015   8.131  2.4734 -0.5326 -0.3581
  385MOL0     H51957   4.793   6.206   8.644  2.1959 -0.2066 -2.9021
  385MOL0     H51958   4.992   6.090   8.612  0.8691 -1.0711 -2.2220
  385MOL0     H51959   5.113   5.621   8.673  0.5215  0.0518  1.5986
  385MOL0     H51960   5.281   5.457   8.727 -1.8200 -0.5587 -1.1337
  385MOL0     H51961   7.193   5.901   8.934 -0.0703 -1.1278 -2.4134
  385MOL0     H51962   7.432   5.908   9.014  1.0999 -1.8282 -2.0763
  385MOL0     H51963   7.930   5.879   8.788 -1.8086  1.2731 -1.2383
  385MOL0     H51964   8.170   5.922   8.847 -0.2296 -1.2105  1.3938
  385MOL0     H51965   8.259   6.279   9.097 -0.7197  0.1256 -1.0992
  385MOL0     H51966   8.240   6.137   9.203 -0.1483 -2.8242 -0.6415
  385MOL0     H51967   8.477   6.080   9.193  0.2747  0.9593  1.5305
  385MOL0     H51968   8.483   6.243   9.227  1.8911 -1.2587  0.8594
  385MOL0     H51969   8.567   6.300   9.029 -4.2511  1.9753 -0.4149
  385MOL0     H51970   8.482   6.182   8.929 -0.5493 -3.5556  0.3908
  385MOL0     H51971   8.607   5.979   9.011  1.2563 -1.0488 -3.1903
  385MOL0     H51972   8.701   6.089   9.114  0.6958  0.7506 -0.8498
  385MOL0     H51973   8.871   6.146   8.730  0.4786  2.7897  0.9915
  385MOL0     H51974   8.037   6.256   9.082 -2.9916 -0.5813  1.0768
  385MOL0     H51975   7.807   6.206   9.026 -1.3257 -0.7283 -0.7409
  386MOL0     O51976   2.593   3.854   0.916  0.3550  0.3410  0.8609
  386MOL0     C51977   2.643   3.917   1.002 -0.4099 -1.1222  0.0394
  386MOL0     O51978   2.574   3.992   1.105 -0.1615 -0.3201  0.4461
  386MOL0     C51979   2.441   4.026   1.102  0.1478  0.0738  0.5937
  386MOL0     C51980   2.347   3.965   1.024  0.3292 -0.2638 -0.4224
  386MOL0     C51981   2.216   4.016   1.021 -0.1186  0.1448  0.0116
  386MOL0     C51982   2.187   4.129   1.097 -0.2039 -0.3523 -0.0683
  386MOL0     O51983   2.062   4.180   1.063 -0.4119 -0.8915  0.0739
  386MOL0     C51984   1.994   4.265   1.159  0.3471  0.3327 -0.2000
  386MOL0     C51985   1.864   4.315   1.107 -0.0665 -0.5033 -0.0323
  386MOL0     C51986   1.748   4.220   1.119 -0.1959  0.5268 -0.2117
  386MOL0     C51987   1.619   4.275   1.041  0.0399  1.1798 -0.4336
  386MOL0     C51988   1.499   4.192   1.087  0.6711 -0.5563  0.1767
  386MOL0     C51989   1.384   4.186   0.991 -0.2777 -0.3377 -0.2222
  386MOL0     C51990   1.282   4.084   1.014  0.0208  0.0611 -0.3050
  386MOL0     C51991   1.200   4.056   0.885 -0.7431 -0.0851 -0.0848
  386MOL0     N51992   1.084   3.972   0.928 -0.0980  0.0719  0.3487
  386MOL0     C51993   0.978   4.024   0.994 -0.2123 -0.1961  0.0023
  386MOL0     C51994   0.901   3.914   1.028 -0.7604  0.0285 -0.5683
  386MOL0     C51995   0.782   3.915   1.113 -0.0186  0.2928 -0.1808
  386MOL0     C51996   0.661   3.983   1.048 -0.7089  0.0602 -0.1129
  386MOL0     C51997   0.532   3.933   1.110 -0.9768  0.2253 -0.2798
  386MOL0     C51998   0.396   3.984   1.062  0.4893  0.0946  0.1320
  386MOL0     O51999   0.290   3.947   1.153  0.6296 -0.0404 -0.3277
  386MOL0     C52000   0.166   4.011   1.161  0.0200  1.1703  0.2229
  386MOL0     C52001   0.101   4.063   1.045  0.2008 -0.6698  0.0674
  386MOL0     C52002  -0.031   4.120   1.060  1.1256 -0.3842  1.0960
  386MOL0     C52003  -0.094   4.176   0.931  0.7487  0.1997  0.1065
  386MOL0     C52004  -0.091   4.134   1.189 -0.7996 -0.0601  0.0896
  386MOL0     C52005  -0.215   4.207   1.214 -0.5405  0.0071 -0.1445
  386MOL0     O52006  -0.273   4.171   1.327 -0.2604  0.4944  0.2155
  386MOL0     C52007  -0.407   4.173   1.355 -0.0518  0.4126  0.1781
  386MOL0     C52008  -0.441   4.181   1.492  0.3303  0.1977 -0.6065
  386MOL0     C52009  -0.577   4.182   1.527 -0.4989 -0.3546 -0.0260
  386MOL0     C52010  -0.680   4.175   1.431  0.5625  0.7644  0.5896
  386MOL0     O52011  -0.811   4.169   1.471 -0.7451  0.5101  0.3411
  386MOL0     C52012  -0.848   4.049   1.541 -0.2191  0.0887 -0.6403
  386MOL0     C52013  -0.964   3.971   1.462 -0.1874 -0.0384 -0.4007
  386MOL0     C52014  -0.927   3.928   1.315 -0.1276 -0.6386 -0.8342
  386MOL0     C52015  -0.798   3.840   1.316  0.8699 -0.0869  0.1428
  386MOL0     C52016  -0.808   3.707   1.241 -0.9046 -0.3783 -0.5017
  386MOL0     C52017  -0.884   3.609   1.330  0.2141 -0.7381  0.5998
  386MOL0     C52018  -0.892   3.471   1.257 -0.9554 -0.4630  1.0057
  386MOL0     C52019  -0.980   3.373   1.325 -0.2160 -0.7825  0.1383
  386MOL0    Cl52020  -0.902   3.345   1.489  0.3586  0.0272 -0.2736
  386MOL0     C52021  -0.643   4.166   1.296  0.7482 -0.2570 -0.7010
  386MOL0     C52022  -0.508   4.164   1.256  0.2672  0.5019  0.6597
  386MOL0     O52023  -0.245   4.300   1.146 -0.1465 -0.0651 -0.2734
  386MOL0     C52024  -0.023   4.072   1.294  0.9361 -0.4653  0.0703
  386MOL0     C52025   0.099   4.013   1.276  0.0885  0.4643  0.3746
  386MOL0     N52026   0.970   3.799   0.989 -0.3138 -0.4694  0.4744
  386MOL0     N52027   1.078   3.839   0.930 -0.5748  0.0450  0.1170
  386MOL0     C52028   2.280   4.186   1.184  0.0895 -0.2519 -0.8447
  386MOL0     C52029   2.408   4.136   1.182 -0.1899  0.5417  0.1386
  386MOL0     C52030   2.791   3.908   1.032  0.4238  0.4613  0.2876
  386MOL0     C52031   2.849   3.974   1.139  0.5054  0.3815 -1.2911
  386MOL0     C52032   2.988   3.951   1.176  0.1389 -0.1356  0.7349
  386MOL0     C52033   3.069   3.878   1.094  0.0073  0.1329  0.9743
  386MOL0     O52034   3.202   3.865   1.134 -0.6426  0.2677 -0.3640
  386MOL0     C52035   3.288   3.798   1.048 -0.3347  0.4547  0.0079
  386MOL0     C52036   3.428   3.777   1.108 -0.2380 -0.1705  0.0431
  386MOL0     C52037   3.510   3.901   1.077  0.0946  0.6097  0.1003
  386MOL0     C52038   3.646   3.899   1.156 -0.4099  0.4888  0.5893
  386MOL0     C52039   3.748   3.821   1.069  0.6805  0.1187 -0.7150
  386MOL0     C52040   3.825   3.761   1.003 -0.1249 -0.5810 -0.5946
  386MOL0     C52041   3.010   3.822   0.975  0.1105  0.4116 -0.5000
  386MOL0     C52042   2.877   3.830   0.948  0.0656 -1.5645 -0.4735
  386MOL0     H52043   2.378   3.890   0.952 -0.1793  1.4442 -2.5224
  386MOL0     H52044   2.143   3.982   0.948 -0.4130  0.9980 -0.1160
  386MOL0     H52045   1.964   4.217   1.252 -1.3093  2.2130  0.2927
  386MOL0     H52046   2.059   4.350   1.184  1.5236 -0.7980  0.7723
  386MOL0     H52047   1.831   4.408   1.154  1.5753 -0.7040  1.6259
  386MOL0     H52048   1.876   4.319   0.998 -0.5895 -0.3279 -0.0915
  386MOL0     H52049   1.778   4.122   1.080  1.4018  0.1257  1.8265
  386MOL0     H52050   1.708   4.207   1.220 -0.3877 -3.6220 -0.6458
  386MOL0     H52051   1.600   4.380   1.062 -3.3270  1.1162 -2.4404
  386MOL0     H52052   1.632   4.268   0.933  2.4253  1.6893 -0.2288
  386MOL0     H52053   1.529   4.086   1.094  0.2704 -0.7513 -0.9600
  386MOL0     H52054   1.463   4.228   1.184 -1.7635 -1.2015 -0.4226
  386MOL0     H52055   1.337   4.282   1.014 -0.6500 -1.2019  3.0945
  386MOL0     H52056   1.423   4.193   0.889  1.8672 -1.5408  0.4532
  386MOL0     H52057   1.326   3.989   1.047  3.5013  2.0945  1.4854
  386MOL0     H52058   1.224   4.127   1.096  0.6655  0.1789  0.0978
  386MOL0     H52059   1.270   4.002   0.821 -1.9590 -1.6274 -0.1599
  386MOL0     H52060   1.160   4.153   0.854 -2.4979 -1.0472 -0.9720
  386MOL0     H52061   0.956   4.130   1.001 -1.1285 -0.4293  1.0385
  386MOL0     H52062   0.765   3.809   1.130  0.3408 -0.7563 -4.9669
  386MOL0     H52063   0.808   3.958   1.211 -0.9958  0.2310  0.1115
  386MOL0     H52064   0.653   3.963   0.941  1.9148 -0.3761 -0.2689
  386MOL0     H52065   0.670   4.091   1.063 -0.8698 -0.2029  2.1496
  386MOL0     H52066   0.547   3.934   1.219 -1.6188 -3.5805 -0.0134
  386MOL0     H52067   0.519   3.825   1.098 -0.5443  0.0383  0.7791
  386MOL0     H52068   0.369   3.937   0.967 -3.6544  1.7606  0.2472
  386MOL0     H52069   0.399   4.093   1.052 -1.1774  0.1150 -0.4351
  386MOL0     H52070   0.149   4.065   0.948 -2.6037  1.3804 -1.3871
  386MOL0     H52071  -0.202   4.191   0.933  0.4898 -0.7470 -2.6713
  386MOL0     H52072  -0.046   4.270   0.901  1.3943 -0.1270  0.0956
  386MOL0     H52073  -0.065   4.106   0.852  2.1000  0.3861  0.3975
  386MOL0     H52074  -0.353   4.198   1.553  1.7866  1.7831 -3.0073
  386MOL0     H52075  -0.610   4.195   1.630 -1.5100 -0.0727 -0.3725
  386MOL0     H52076  -0.763   3.982   1.557 -1.1116 -1.0874 -0.5912
  386MOL0     H52077  -0.887   4.078   1.639  1.6669 -1.5450  0.6813
  386MOL0     H52078  -1.003   3.889   1.523 -1.6974  0.0147 -1.2519
  386MOL0     H52079  -1.047   4.042   1.469  0.8245  1.0131  2.3384
  386MOL0     H52080  -0.931   4.012   1.245 -1.1469 -2.1171 -2.6073
  386MOL0     H52081  -1.013   3.864   1.295 -1.1356  0.3481  0.2070
  386MOL0     H52082  -0.707   3.894   1.286 -0.2268  1.5751 -0.2821
  386MOL0     H52083  -0.780   3.815   1.421 -0.7614 -0.3775  0.3826
  386MOL0     H52084  -0.710   3.665   1.217 -1.3524 -1.3500 -0.6754
  386MOL0     H52085  -0.866   3.718   1.149 -0.8447 -0.3079 -0.5302
  386MOL0     H52086  -0.841   3.586   1.429  1.6194 -2.0216 -0.2515
  386MOL0     H52087  -0.980   3.658   1.346  1.2723  0.7181  3.1215
  386MOL0     H52088  -0.797   3.418   1.242  1.2617  3.6504 -1.3076
  386MOL0     H52089  -0.932   3.480   1.156  1.0304 -0.8957  0.1356
  386MOL0     H52090  -0.987   3.281   1.265  0.2577  1.2296 -3.2808
  386MOL0     H52091  -1.075   3.417   1.355  0.8389  2.3033 -0.6334
  386MOL0     H52092  -0.722   4.176   1.222  0.8132 -1.2058 -0.9127
  386MOL0     H52093  -0.482   4.164   1.151 -1.8517 -0.8904  0.0852
  386MOL0     H52094  -0.080   4.066   1.387  1.9564 -0.2580  0.7229
  386MOL0     H52095   0.141   3.969   1.366  1.2718  1.5612  0.3976
  386MOL0     H52096   2.275   4.272   1.250  1.1351  0.4580 -1.6753
  386MOL0     H52097   2.492   4.167   1.244 -1.8783  0.5531  2.5275
  386MOL0     H52098   2.793   4.033   1.211 -0.7509 -0.2937 -1.6764
  386MOL0     H52099   3.039   3.996   1.261 -0.2807  1.5167  0.1522
  386MOL0     H52100   3.250   3.697   1.030  2.8075 -0.8498 -0.0357
  386MOL0     H52101   3.301   3.845   0.950 -0.3877  1.2312  0.3603
  386MOL0     H52102   3.471   3.686   1.063 -2.3864 -1.9125  1.3066
  386MOL0     H52103   3.424   3.763   1.217  1.6692  0.9326  0.2969
  386MOL0     H52104   3.451   3.987   1.108 -0.4641 -0.0510  0.9324
  386MOL0     H52105   3.519   3.909   0.969  1.3376  2.0841  0.2845
  386MOL0     H52106   3.643   3.850   1.254 -0.3300  1.8443  1.2977
  386MOL0     H52107   3.685   3.999   1.175  0.2108 -0.1989  3.3618
  386MOL0     H52108   3.897   3.709   0.943 -1.0521 -1.5832 -0.8693
  386MOL0     H52109   3.065   3.755   0.910 -3.1614 -2.5029 -0.5106
  386MOL0     H52110   2.843   3.777   0.860 -1.8247  1.6597 -1.8739
  387MOL0     O52111   8.024   1.431   7.758  0.1275  0.0439  0.2122
  387MOL0     C52112   8.118   1.388   7.690  0.2314 -0.5816 -0.9798
  387MOL0     O52113   8.113   1.337   7.558 -0.2561 -0.7672 -0.5588
  387MOL0     C52114   7.993   1.305   7.497 -0.2068 -0.1292  0.0339
  387MOL0     C52115   7.955   1.334   7.356  0.1707 -1.0535 -0.0343
  387MOL0     C52116   7.829   1.306   7.302 -0.1477 -0.3545 -0.0602
  387MOL0     C52117   7.737   1.239   7.387  0.4098 -0.1483  0.2335
  387MOL0     O52118   7.603   1.207   7.362 -0.0192  0.1985 -0.3153
  387MOL0     C52119   7.531   1.285   7.266 -0.4479  0.4387 -0.2966
  387MOL0     C52120   7.459   1.402   7.331 -0.6457 -0.1321  0.6488
  387MOL0     C52121   7.344   1.370   7.427  0.3355  0.8992 -0.8722
  387MOL0     C52122   7.383   1.427   7.566 -0.0248 -0.6695  1.2680
  387MOL0     C52123   7.279   1.396   7.665  0.5521 -0.0532 -0.1465
  387MOL0     C52124   7.293   1.467   7.798 -0.9542  0.4027 -0.4000
  387MOL0     C52125   7.154   1.481   7.866 -0.2848 -0.1210 -0.6733
  387MOL0     C52126   7.081   1.596   7.819 -1.0825 -0.3936  0.6707
  387MOL0     N52127   6.949   1.628   7.884 -0.1085  0.6382  0.7467
  387MOL0     C52128   6.941   1.695   8.001  0.8929  0.5952 -0.5572
  387MOL0     C52129   6.811   1.700   8.028 -0.1691  0.3808 -0.3739
  387MOL0     C52130   6.754   1.738   8.160  0.3153 -0.4579  0.5496
  387MOL0     C52131   6.761   1.886   8.171  0.2849 -1.1943 -0.5579
  387MOL0     C52132   6.718   1.931   8.308  0.7384 -0.4072  0.1726
  387MOL0     C52133   6.568   1.971   8.307  0.9513 -0.0321  0.2143
  387MOL0     O52134   6.516   1.971   8.439  0.4770  0.0463  1.0453
  387MOL0     C52135   6.379   1.967   8.447  0.2032  0.3041  0.3438
  387MOL0     C52136   6.321   1.955   8.575  0.4155  0.7394 -0.0767
  387MOL0     C52137   6.175   1.966   8.594  0.2060 -1.3826 -0.1249
  387MOL0     C52138   6.132   1.975   8.731 -0.0120  0.8062 -0.3134
  387MOL0     C52139   6.085   1.987   8.491  0.4882 -0.1656 -0.0538
  387MOL0     C52140   5.942   1.997   8.492 -0.5584  0.1532  0.2895
  387MOL0     O52141   5.882   1.954   8.605 -0.2942 -0.7248 -0.2820
  387MOL0     C52142   5.753   1.973   8.637 -0.0712  0.1590  0.6185
  387MOL0     C52143   5.644   1.931   8.558  0.0135  0.6093  0.5987
  387MOL0     C52144   5.512   1.946   8.594 -0.4433  0.6675 -0.4009
  387MOL0     C52145   5.476   2.018   8.705  0.1939  0.0594  0.2166
  387MOL0     O52146   5.343   2.048   8.715 -0.1504  0.3018 -0.5251
  387MOL0     C52147   5.292   2.085   8.849 -0.5188 -0.3273 -0.7738
  387MOL0     C52148   5.137   2.054   8.868  0.6213  0.4208  0.2133
  387MOL0     C52149   5.074   2.106   9.000  0.2522  0.4747  0.6653
  387MOL0     C52150   4.928   2.050   9.006 -0.0815 -1.0490 -0.3365
  387MOL0     C52151   4.833   2.119   9.107  0.0062  0.6783  0.4102
  387MOL0     C52152   4.686   2.068   9.088 -0.0776 -0.6750  0.0330
  387MOL0     C52153   4.615   2.118   8.957 -1.1073  0.3937 -0.2212
  387MOL0     C52154   4.468   2.077   8.952 -0.0388  0.5724 -0.6713
  387MOL0    Cl52155   4.476   1.899   8.944 -0.0799 -0.0972 -0.5584
  387MOL0     C52156   5.586   2.079   8.781 -0.2645  0.4167 -0.0126
  387MOL0     C52157   5.727   2.053   8.749  0.2543  0.4023  0.1281
  387MOL0     O52158   5.890   2.057   8.402  0.8219 -0.0035  0.0120
  387MOL0     C52159   6.147   2.000   8.370 -0.5055 -0.0084  0.1352
  387MOL0     C52160   6.285   2.000   8.350 -0.0266  0.6764  0.0656
  387MOL0     N52161   6.747   1.636   7.930 -0.4052  0.6153  0.5742
  387MOL0     N52162   6.825   1.587   7.842 -0.5619  0.3325  0.6748
  387MOL0     C52163   7.773   1.187   7.516 -0.3986 -0.2921 -0.6957
  387MOL0     C52164   7.900   1.228   7.574  0.0914 -0.1535  0.1543
  387MOL0     C52165   8.258   1.380   7.749  0.1335  0.6035  0.0018
  387MOL0     C52166   8.368   1.345   7.664 -0.2419 -0.3449  0.1281
  387MOL0     C52167   8.493   1.325   7.718 -0.0569  0.3768 -0.4352
  387MOL0     C52168   8.502   1.333   7.852 -1.0779 -0.1460 -0.0607
  387MOL0     O52169   8.619   1.304   7.912 -0.0678  0.2787  0.1005
  387MOL0     C52170   8.615   1.220   8.029  1.3466 -0.0332 -0.3478
  387MOL0     C52171   8.738   1.124   8.046 -0.0181 -0.1948 -0.7551
  387MOL0     C52172   8.870   1.208   8.038 -0.1416 -0.5065 -0.4093
  387MOL0     C52173   8.992   1.131   8.081  0.2394 -0.5579 -0.3569
  387MOL0     C52174   9.104   1.221   8.111 -0.6698 -0.1207 -0.4509
  387MOL0     C52175   9.187   1.304   8.125  0.1681 -0.1712 -0.5443
  387MOL0     C52176   8.391   1.381   7.940  0.4317  0.5838  1.1813
  387MOL0     C52177   8.271   1.411   7.882  0.7675 -0.4669 -0.1264
  387MOL0     H52178   8.026   1.387   7.292 -0.8792  0.2089 -0.1905
  387MOL0     H52179   7.795   1.340   7.204 -1.0450  0.4323  0.5049
  387MOL0     H52180   7.590   1.322   7.182 -2.3050  0.4981 -1.6224
  387MOL0     H52181   7.457   1.222   7.215  1.1752  0.8701 -3.3694
  387MOL0     H52182   7.525   1.471   7.384  0.4513 -1.6122  1.2900
  387MOL0     H52183   7.433   1.460   7.242  0.2466 -2.8339 -1.4963
  387MOL0     H52184   7.245   1.409   7.401 -0.9505 -0.3401  1.7531
  387MOL0     H52185   7.333   1.262   7.440  0.6148  0.7734 -1.6434
  387MOL0     H52186   7.477   1.390   7.607 -0.3989 -1.9694  0.9738
  387MOL0     H52187   7.380   1.535   7.543  0.1163 -1.0602 -0.8093
  387MOL0     H52188   7.184   1.423   7.617  1.3697  2.1672 -0.6240
  387MOL0     H52189   7.277   1.289   7.690  2.5935  0.0105  0.4781
  387MOL0     H52190   7.362   1.425   7.872 -2.0674  0.2442  0.5743
  387MOL0     H52191   7.332   1.567   7.777 -0.0833  0.0961 -0.2810
  387MOL0     H52192   7.096   1.389   7.872  0.0978 -0.2545  2.7630
  387MOL0     H52193   7.172   1.498   7.972 -2.1458  1.8589 -0.6077
  387MOL0     H52194   7.057   1.579   7.714 -0.4648 -1.3589  0.6740
  387MOL0     H52195   7.150   1.681   7.829 -0.5727 -0.5604 -1.1682
  387MOL0     H52196   7.019   1.734   8.064 -0.2848  1.0801  0.6458
  387MOL0     H52197   6.660   1.682   8.159 -0.0840  0.1815  1.4173
  387MOL0     H52198   6.813   1.708   8.247  2.5541  1.5054 -0.1915
  387MOL0     H52199   6.696   1.936   8.099 -1.3112 -0.5098  1.2459
  387MOL0     H52200   6.862   1.929   8.167 -1.3179  3.2029  0.5176
  387MOL0     H52201   6.777   2.019   8.334 -2.7230  2.2697 -0.2201
  387MOL0     H52202   6.721   1.850   8.381 -1.5204  0.3008  1.1524
  387MOL0     H52203   6.522   1.895   8.244  2.4821 -0.2952 -0.6382
  387MOL0     H52204   6.542   2.062   8.253  0.7436 -1.3761 -2.1111
  387MOL0     H52205   6.379   1.957   8.667  0.3832 -0.0232 -0.0358
  387MOL0     H52206   6.213   1.981   8.804 -1.8153  4.0546  1.6390
  387MOL0     H52207   6.082   2.071   8.748 -1.3226 -0.1748  1.9059
  387MOL0     H52208   6.070   1.891   8.766  0.6234  0.6505  0.4721
  387MOL0     H52209   5.668   1.879   8.466 -3.5906 -0.1351 -0.0946
  387MOL0     H52210   5.426   1.914   8.536 -1.2329  0.9320  0.5860
  387MOL0     H52211   5.350   2.034   8.926  1.5043  0.7539 -1.4811
  387MOL0     H52212   5.311   2.192   8.860  1.5032 -0.8165  1.2020
  387MOL0     H52213   5.083   2.109   8.790 -2.2972  0.2342  1.9498
  387MOL0     H52214   5.116   1.946   8.862  3.2504 -0.2350  1.2423
  387MOL0     H52215   5.056   2.214   9.005 -2.7776  0.0601  0.6177
  387MOL0     H52216   5.128   2.067   9.087  0.6362  0.3882  0.3871
  387MOL0     H52217   4.884   2.061   8.906 -0.9567 -3.2259 -0.2518
  387MOL0     H52218   4.926   1.944   9.032 -1.5582 -0.8365  0.5389
  387MOL0     H52219   4.828   2.227   9.090 -2.4398  0.1988 -2.8987
  387MOL0     H52220   4.868   2.090   9.207  1.5348  1.4466  0.1126
  387MOL0     H52221   4.687   1.958   9.090 -3.9780 -0.8596 -0.2742
  387MOL0     H52222   4.636   2.102   9.179 -1.5523  1.8351 -1.6025
  387MOL0     H52223   4.663   2.071   8.871  1.9654  0.1917  1.4636
  387MOL0     H52224   4.624   2.226   8.948 -2.5178  0.5912  0.4557
  387MOL0     H52225   4.415   2.117   8.865 -3.2383 -2.0252 -0.1272
  387MOL0     H52226   4.415   2.113   9.040  1.8071  1.9328 -0.0534
  387MOL0     H52227   5.582   2.139   8.871  0.3492 -2.9478  2.4232
  387MOL0     H52228   5.800   2.111   8.804  1.3327 -0.5929 -0.2132
  387MOL0     H52229   6.086   2.016   8.281 -0.0012 -1.2673 -0.4748
  387MOL0     H52230   6.323   2.013   8.249  3.9079 -0.4115  1.2337
  387MOL0     H52231   7.697   1.134   7.572 -0.0835 -2.1336 -1.9138
  387MOL0     H52232   7.932   1.211   7.676  0.0745  1.5381  0.4602
  387MOL0     H52233   8.368   1.318   7.559  1.5892 -0.5608  0.1508
  387MOL0     H52234   8.579   1.297   7.658  0.0655 -0.0667 -0.0542
  387MOL0     H52235   8.606   1.284   8.117 -1.6994 -2.9624  1.7623
  387MOL0     H52236   8.525   1.158   8.020  1.8967 -0.9186  0.1035
  387MOL0     H52237   8.738   1.048   7.967  0.9866  1.0956 -2.0620
  387MOL0     H52238   8.723   1.070   8.140  2.2921 -0.7135 -0.6264
  387MOL0     H52239   8.851   1.291   8.106  0.9253 -0.3389 -0.3053
  387MOL0     H52240   8.876   1.263   7.943 -2.0293 -0.1019 -0.3349
  387MOL0     H52241   9.016   1.051   8.010  2.8627  1.9425 -2.5315
  387MOL0     H52242   8.966   1.076   8.172 -0.1429 -0.8192 -0.6238
  387MOL0     H52243   9.282   1.348   8.149  0.2092  1.0967 -2.7319
  387MOL0     H52244   8.399   1.412   8.044  0.3146  1.9263  0.8066
  387MOL0     H52245   8.185   1.442   7.940  2.7816  4.8651  0.5772
  388MOL0     O52246   4.199   7.511   7.743 -0.7282 -0.5090 -0.4015
  388MOL0     C52247   4.265   7.422   7.691 -0.7292  0.6715  0.1275
  388MOL0     O52248   4.231   7.338   7.591 -0.3044  0.0045  0.1694
  388MOL0     C52249   4.095   7.331   7.555  0.3741  0.2090  0.9439
  388MOL0     C52250   4.069   7.284   7.420 -0.5709 -0.3474  0.2912
  388MOL0     C52251   3.938   7.253   7.380  0.4804  0.7111 -1.0949
  388MOL0     C52252   3.831   7.260   7.474 -0.0340 -0.0415  0.8953
  388MOL0     O52253   3.710   7.223   7.417 -0.8356  0.5577  0.1528
  388MOL0     C52254   3.592   7.243   7.488  0.7882 -0.3034 -0.1677
  388MOL0     C52255   3.472   7.194   7.396  0.5865  0.3465  1.0621
  388MOL0     C52256   3.338   7.207   7.473 -1.1528  0.3642  0.1525
  388MOL0     C52257   3.229   7.126   7.406  1.1949  0.0324  0.1803
  388MOL0     C52258   3.082   7.134   7.450  0.1814  0.6014 -0.1349
  388MOL0     C52259   2.992   7.044   7.359 -0.5248 -0.0926 -0.1533
  388MOL0     C52260   2.852   7.011   7.418 -0.2406 -1.4776  0.8488
  388MOL0     C52261   2.771   6.932   7.323  0.1414 -0.1667  0.0376
  388MOL0     N52262   2.650   6.881   7.391  0.6117 -0.1562 -0.3550
  388MOL0     C52263   2.591   6.921   7.518 -0.1240  0.3498  0.6137
  388MOL0     C52264   2.465   6.862   7.511 -0.2191  0.3457 -0.1033
  388MOL0     C52265   2.358   6.879   7.613  0.2476 -0.0104 -0.5310
  388MOL0     C52266   2.287   7.011   7.593  0.1355 -0.2296 -0.4213
  388MOL0     C52267   2.179   7.040   7.698  0.4863  0.0156  0.8825
  388MOL0     C52268   2.038   7.048   7.628 -0.1260 -0.3134 -0.3159
  388MOL0     O52269   2.019   7.153   7.533 -0.4706  0.5614 -0.2548
  388MOL0     C52270   1.933   7.131   7.428 -0.6081  0.2827  0.5636
  388MOL0     C52271   1.913   7.245   7.349  0.3128  0.3628  0.0928
  388MOL0     C52272   1.822   7.245   7.242  0.5949 -1.3200  0.7373
  388MOL0     C52273   1.794   7.387   7.178  0.0309  1.1343  0.0622
  388MOL0     C52274   1.752   7.123   7.213  0.2079  0.6986 -0.4552
  388MOL0     C52275   1.652   7.119   7.103 -0.0625 -0.1108 -0.4282
  388MOL0     O52276   1.546   7.034   7.128 -0.0175 -0.0783 -0.0067
  388MOL0     C52277   1.453   7.053   7.036  0.3782 -0.1682  0.1449
  388MOL0     C52278   1.412   6.953   6.953 -0.0415 -0.1518 -0.1512
  388MOL0     C52279   1.314   6.963   6.855  0.2743  0.2235 -1.3649
  388MOL0     C52280   1.245   7.084   6.851  0.3440  0.4287  0.0109
  388MOL0     O52281   1.154   7.120   6.752 -0.3102 -0.4829 -0.4412
  388MOL0     C52282   1.059   7.016   6.718  0.1270 -0.2214  0.8118
  388MOL0     C52283   0.970   6.974   6.835 -0.3194  0.1411  0.0212
  388MOL0     C52284   0.867   7.079   6.881 -0.4047 -0.1569 -0.1709
  388MOL0     C52285   0.748   7.108   6.782 -0.2600  0.2866  0.3603
  388MOL0     C52286   0.656   7.216   6.834 -0.6459  0.6275  0.6397
  388MOL0     C52287   0.531   7.228   6.742 -0.0759 -1.1384  0.0123
  388MOL0     C52288   0.419   7.307   6.811  0.4466  0.3097 -0.3654
  388MOL0     C52289   0.304   7.318   6.714 -0.5626 -0.2470  0.1128
  388MOL0    Cl52290   0.217   7.162   6.695 -0.1441  0.0977  0.1596
  388MOL0     C52291   1.275   7.196   6.931  0.3217  0.5713  0.1064
  388MOL0     C52292   1.378   7.177   7.033 -0.4753 -0.0001  0.7902
  388MOL0     O52293   1.683   7.177   6.995 -0.1463 -0.0341 -0.8195
  388MOL0     C52294   1.773   7.007   7.285  0.2427 -0.9978 -1.0066
  388MOL0     C52295   1.871   7.013   7.389  0.0316 -0.1443  0.5497
  388MOL0     N52296   2.453   6.796   7.391  0.3179  0.5277  0.0406
  388MOL0     N52297   2.562   6.804   7.319 -0.1404 -0.5711  0.4025
  388MOL0     C52298   3.852   7.307   7.604  0.1550 -0.3187  0.1548
  388MOL0     C52299   3.981   7.337   7.641 -0.0605  0.0764  0.0978
  388MOL0     C52300   4.416   7.431   7.716 -0.7169 -0.0286  0.1734
  388MOL0     C52301   4.512   7.333   7.682 -0.2451 -0.7555 -0.0712
  388MOL0     C52302   4.641   7.329   7.733  0.0449  0.5291  0.2007
  388MOL0     C52303   4.681   7.416   7.828 -0.2608  0.5130  0.6139
  388MOL0     O52304   4.806   7.389   7.870 -0.1104 -0.1806 -0.1668
  388MOL0     C52305   4.851   7.465   7.978 -0.0855 -0.0259  1.2924
  388MOL0     C52306   4.957   7.552   7.933 -0.3735 -0.3206  0.5466
  388MOL0     C52307   5.087   7.480   7.877 -0.4880 -0.5495 -0.4270
  388MOL0     C52308   5.182   7.460   7.995 -0.3038  0.5906  0.0698
  388MOL0     C52309   5.311   7.394   7.961 -0.2262  0.7895  0.0168
  388MOL0     C52310   5.417   7.345   7.924 -0.2248  0.4786 -0.5355
  388MOL0     C52311   4.598   7.522   7.862 -0.3861 -0.6633 -0.4332
  388MOL0     C52312   4.468   7.535   7.806 -0.4245  0.5459 -0.9188
  388MOL0     H52313   4.150   7.294   7.348 -2.2087  3.5217 -1.2519
  388MOL0     H52314   3.920   7.218   7.279 -0.9679 -2.0615  0.0231
  388MOL0     H52315   3.592   7.189   7.584  4.5384  0.0626  0.1607
  388MOL0     H52316   3.580   7.350   7.509 -0.5431 -0.0727 -1.8569
  388MOL0     H52317   3.460   7.260   7.309  1.1098 -1.0454 -0.1202
  388MOL0     H52318   3.496   7.093   7.362 -0.2101  0.5472 -0.1627
  388MOL0     H52319   3.359   7.155   7.567  3.6418  1.8181  0.1566
  388MOL0     H52320   3.303   7.310   7.488 -2.8042 -0.0193 -0.7944
  388MOL0     H52321   3.231   7.166   7.304  0.1467 -1.4837 -0.4638
  388MOL0     H52322   3.261   7.023   7.391 -2.0001 -1.3302  1.7401
  388MOL0     H52323   3.087   7.106   7.556  1.0286 -1.5118 -0.6701
  388MOL0     H52324   3.035   7.232   7.440 -0.9037 -0.0962 -2.5071
  388MOL0     H52325   2.981   7.088   7.260  0.8376 -0.2890 -0.4118
  388MOL0     H52326   3.045   6.951   7.338  2.6048  1.7555 -1.0402
  388MOL0     H52327   2.874   6.955   7.509 -1.0043 -1.7379  0.8853
  388MOL0     H52328   2.799   7.106   7.433  0.3282 -1.0313  0.0980
  388MOL0     H52329   2.828   6.852   7.276 -1.0553 -0.5419 -0.8193
  388MOL0     H52330   2.734   6.995   7.241 -0.3412 -1.8303 -1.0574
  388MOL0     H52331   2.647   6.977   7.592 -2.6879  0.5739  2.5131
  388MOL0     H52332   2.297   6.788   7.609  0.1768  0.0856 -1.8533
  388MOL0     H52333   2.396   6.885   7.716 -0.0040 -0.9034 -0.3726
  388MOL0     H52334   2.245   6.997   7.493 -3.1325 -0.1599  0.8201
  388MOL0     H52335   2.357   7.096   7.589  0.5972 -0.5576  0.3811
  388MOL0     H52336   2.201   7.131   7.755 -1.9838  1.7980 -0.8200
  388MOL0     H52337   2.175   6.952   7.763 -1.7498 -1.6442 -1.2981
  388MOL0     H52338   1.965   7.053   7.709  0.5208 -1.4692  0.3612
  388MOL0     H52339   2.036   6.951   7.577  2.1147 -1.4696  1.5639
  388MOL0     H52340   1.968   7.333   7.382  2.1188 -0.5899 -0.2130
  388MOL0     H52341   1.848   7.463   7.236  3.0513 -1.6601  1.2811
  388MOL0     H52342   1.828   7.391   7.074 -4.8162  1.8694 -1.7552
  388MOL0     H52343   1.687   7.410   7.177 -0.3325 -0.4095  0.8700
  388MOL0     H52344   1.474   6.864   6.946 -0.3539 -0.6251  2.2724
  388MOL0     H52345   1.290   6.877   6.794  0.3280 -1.4251  0.8021
  388MOL0     H52346   0.995   7.062   6.642 -1.3680 -5.5831 -1.6972
  388MOL0     H52347   1.107   6.936   6.660 -1.0396  0.7809 -1.6626
  388MOL0     H52348   0.914   6.887   6.801  0.1944  0.2003 -1.0258
  388MOL0     H52349   1.018   6.945   6.929  0.4353  0.1090 -0.3666
  388MOL0     H52350   0.926   7.170   6.897 -0.2584  0.0325 -1.6577
  388MOL0     H52351   0.830   7.040   6.976  1.2896 -1.7903 -0.1143
  388MOL0     H52352   0.773   7.147   6.683 -2.2512 -1.2363 -0.8108
  388MOL0     H52353   0.683   7.022   6.762 -2.0097  1.7829 -0.6155
  388MOL0     H52354   0.715   7.308   6.830  1.4361 -0.6279  0.6620
  388MOL0     H52355   0.630   7.185   6.936  2.2815 -0.8281  1.0638
  388MOL0     H52356   0.559   7.285   6.653  0.0530  1.3088  1.5256
  388MOL0     H52357   0.488   7.128   6.732 -3.3238  0.0906  0.2454
  388MOL0     H52358   0.457   7.405   6.840 -2.1928  1.1092  0.6524
  388MOL0     H52359   0.382   7.250   6.898  1.1641 -0.8193 -0.7737
  388MOL0     H52360   0.349   7.353   6.620 -2.2660 -0.7030 -0.9146
  388MOL0     H52361   0.222   7.381   6.750  0.5173 -0.0426  2.4231
  388MOL0     H52362   1.219   7.288   6.917  0.2588  0.8900  2.1522
  388MOL0     H52363   1.409   7.256   7.101  0.8790  0.3617 -0.2057
  388MOL0     H52364   1.724   6.916   7.252 -0.3805 -1.8359  1.9415
  388MOL0     H52365   1.899   6.918   7.434  0.4914 -1.4060 -2.1614
  388MOL0     H52366   3.768   7.317   7.672 -0.6158  0.7561 -0.9078
  388MOL0     H52367   4.004   7.371   7.742  0.0497  0.7586 -0.1502
  388MOL0     H52368   4.483   7.261   7.607 -0.5659  0.7985 -1.5029
  388MOL0     H52369   4.711   7.257   7.691 -3.1319 -1.0707 -2.7727
  388MOL0     H52370   4.767   7.513   8.029 -0.5612 -1.7707  2.2528
  388MOL0     H52371   4.891   7.399   8.056 -2.1679  0.0250  2.4696
  388MOL0     H52372   4.981   7.612   8.021 -1.4373 -1.5854  1.7421
  388MOL0     H52373   4.913   7.618   7.858  1.6247 -0.2560 -0.6184
  388MOL0     H52374   5.131   7.544   7.800 -4.3728  2.0986 -0.7411
  388MOL0     H52375   5.060   7.382   7.837  0.6223 -1.9638  2.0488
  388MOL0     H52376   5.147   7.383   8.065  2.2723  0.2961  1.1284
  388MOL0     H52377   5.194   7.551   8.055  1.6960  0.5302 -0.1824
  388MOL0     H52378   5.514   7.301   7.914 -0.6056 -0.5868  0.2687
  388MOL0     H52379   4.618   7.605   7.930 -0.0290 -0.1611 -1.1308
  388MOL0     H52380   4.401   7.613   7.841 -1.7979 -0.5531 -1.0117
  389MOL0     O52381  10.099   3.830   3.117  0.0978 -0.4735  0.4346
  389MOL0     C52382  10.119   3.946   3.149 -0.3225  0.4482  0.2702
  389MOL0     O52383  10.026   4.033   3.190  0.0279  0.2430 -1.0418
  389MOL0     C52384   9.905   3.991   3.227 -0.7594  0.2841 -0.3044
  389MOL0     C52385   9.794   4.077   3.201 -0.2880  0.5802  0.8573
  389MOL0     C52386   9.664   4.044   3.254  0.4197 -0.6617  0.0738
  389MOL0     C52387   9.641   3.921   3.311  0.4028 -0.1672  0.3752
  389MOL0     O52388   9.525   3.865   3.344 -0.0377 -0.4752 -0.3011
  389MOL0     C52389   9.413   3.939   3.299 -0.1658  0.4713  0.1742
  389MOL0     C52390   9.292   3.875   3.375 -0.3177 -0.4793  0.0180
  389MOL0     C52391   9.159   3.941   3.340  0.6864  0.8505  0.6712
  389MOL0     C52392   9.133   3.969   3.191 -0.0279 -0.4365  0.5245
  389MOL0     C52393   8.986   4.015   3.165  0.3797  0.0419 -0.0407
  389MOL0     C52394   8.971   4.070   3.023  0.1192 -0.5268  0.8709
  389MOL0     C52395   8.829   4.125   3.007 -0.4130  0.2483  0.2778
  389MOL0     C52396   8.795   4.141   2.856 -0.2070 -0.5667 -0.2015
  389MOL0     N52397   8.667   4.207   2.843  0.2120  0.4364  0.9347
  389MOL0     C52398   8.549   4.146   2.884 -0.1644  0.0029  0.2781
  389MOL0     C52399   8.460   4.256   2.868 -0.0660  0.6796 -0.5212
  389MOL0     C52400   8.313   4.249   2.909 -0.8451 -0.5535 -0.7521
  389MOL0     C52401   8.223   4.188   2.801  0.4242  0.2995 -1.0137
  389MOL0     C52402   8.094   4.142   2.871 -0.4123 -0.5933 -0.5120
  389MOL0     C52403   8.009   4.041   2.791  1.8123  0.0555  0.4962
  389MOL0     O52404   7.946   4.098   2.671 -0.1957 -0.0545  0.2060
  389MOL0     C52405   7.830   4.034   2.624  0.6463  0.2986  0.9764
  389MOL0     C52406   7.733   4.101   2.561 -0.2228  0.2403  0.6999
  389MOL0     C52407   7.618   4.050   2.514  1.2072  1.1666 -0.4111
  389MOL0     C52408   7.522   4.145   2.444 -0.6361 -0.6349 -0.3848
  389MOL0     C52409   7.593   3.918   2.517 -0.0043  0.0119 -0.0940
  389MOL0     C52410   7.458   3.847   2.493 -0.6277  0.3578  1.2919
  389MOL0     O52411   7.466   3.715   2.528  0.4456  0.4813 -0.3385
  389MOL0     C52412   7.347   3.647   2.513 -0.6238  0.2913 -0.0320
  389MOL0     C52413   7.239   3.683   2.585 -0.2163 -0.0740 -0.0583
  389MOL0     C52414   7.125   3.610   2.594 -0.1312  0.5459  0.0006
  389MOL0     C52415   7.109   3.504   2.509 -0.5410  0.0557  0.3184
  389MOL0     O52416   7.011   3.409   2.526  0.2084 -0.2392  0.0445
  389MOL0     C52417   6.878   3.459   2.526  0.8294 -0.2821 -0.5097
  389MOL0     C52418   6.782   3.338   2.511 -0.4544 -0.4870 -0.4160
  389MOL0     C52419   6.639   3.371   2.506  0.2149 -0.7731 -0.4383
  389MOL0     C52420   6.567   3.234   2.521 -0.6433  0.2293 -0.0004
  389MOL0     C52421   6.422   3.238   2.507  0.5101  0.0486 -0.1480
  389MOL0     C52422   6.349   3.101   2.522 -0.5860  0.8611 -0.7477
  389MOL0     C52423   6.189   3.104   2.544  0.1137  0.1070 -0.6374
  389MOL0     C52424   6.141   3.189   2.669 -0.4355  0.2364 -0.8024
  389MOL0    Cl52425   6.177   3.098   2.825  0.0155  0.3056 -0.3091
  389MOL0     C52426   7.212   3.476   2.411 -0.4137 -0.4673  0.3344
  389MOL0     C52427   7.328   3.547   2.414  0.4568  0.6893  0.3081
  389MOL0     O52428   7.363   3.907   2.435 -0.0745  0.1238 -0.0226
  389MOL0     C52429   7.694   3.838   2.576  0.9182 -0.4241 -0.1739
  389MOL0     C52430   7.808   3.896   2.635 -0.1195  0.3033 -0.9242
  389MOL0     N52431   8.539   4.375   2.855  0.1479 -0.1077 -0.6704
  389MOL0     N52432   8.659   4.342   2.825 -0.4296  0.0321 -0.5363
  389MOL0     C52433   9.756   3.841   3.341  0.6326  0.7995  0.7046
  389MOL0     C52434   9.884   3.876   3.303  0.1017  0.5926 -0.2923
  389MOL0     C52435  10.263   3.991   3.139  0.2756  0.1671 -0.5163
  389MOL0     C52436  10.298   4.119   3.169 -0.6633  0.4256  0.4862
  389MOL0     C52437  10.430   4.143   3.197  0.0513  0.2014 -0.0340
  389MOL0     C52438  10.531   4.049   3.178 -0.1104 -0.2248  0.1766
  389MOL0     O52439  10.664   4.078   3.219  1.0152 -0.1999  0.1733
  389MOL0     C52440  10.785   4.003   3.185  0.2755  0.2744  0.3670
  389MOL0     C52441  10.830   4.059   3.049  0.4730 -0.2102 -0.4735
  389MOL0     C52442  10.939   4.168   3.082  0.3467  0.3835  0.0334
  389MOL0     C52443  11.001   4.247   2.970 -0.1088 -0.2924  0.0924
  389MOL0     C52444  11.083   4.154   2.890 -0.5151  0.5957 -0.1130
  389MOL0     C52445  11.171   4.091   2.839 -0.2351 -0.0816  0.7685
  389MOL0     C52446  10.498   3.927   3.126  0.5742 -0.1749  0.3567
  389MOL0     C52447  10.363   3.899   3.107  0.4157  0.6480  0.5511
  389MOL0     H52448   9.811   4.169   3.146  0.0669 -0.4449 -0.8335
  389MOL0     H52449   9.588   4.120   3.242 -0.0950 -1.4213 -1.8014
  389MOL0     H52450   9.415   4.042   3.336  1.4391  0.1460  1.0819
  389MOL0     H52451   9.398   3.925   3.192  0.6151  0.9120  0.0047
  389MOL0     H52452   9.289   3.767   3.355 -0.0384 -0.2712 -1.2214
  389MOL0     H52453   9.302   3.888   3.483 -0.3677  1.7501 -0.2091
  389MOL0     H52454   9.075   3.880   3.375 -1.1855  3.2688  0.6736
  389MOL0     H52455   9.158   4.041   3.384  0.0716  1.8948 -1.5747
  389MOL0     H52456   9.197   4.049   3.154 -0.1318 -0.7868 -0.4462
  389MOL0     H52457   9.161   3.879   3.134  1.0750 -0.0360  0.4049
  389MOL0     H52458   8.926   3.924   3.180  0.3874 -0.3203 -1.9445
  389MOL0     H52459   8.954   4.088   3.240 -2.1003 -0.7939 -0.1749
  389MOL0     H52460   9.037   4.154   2.999  1.7621 -2.0023  0.0168
  389MOL0     H52461   9.003   3.990   2.956 -1.9310 -2.4142  2.0196
  389MOL0     H52462   8.767   4.047   3.052  2.0735 -2.0461 -0.0048
  389MOL0     H52463   8.798   4.223   3.046 -0.3968  1.9461 -3.4950
  389MOL0     H52464   8.787   4.050   2.796 -1.7028  0.2040 -1.2205
  389MOL0     H52465   8.872   4.204   2.809  1.1496 -1.7875  0.3026
  389MOL0     H52466   8.534   4.044   2.918  0.4199  0.5561  2.3773
  389MOL0     H52467   8.308   4.193   3.003  2.3505 -0.6412 -0.4966
  389MOL0     H52468   8.271   4.347   2.934  0.2161  0.0288 -1.1611
  389MOL0     H52469   8.276   4.102   2.759  2.2428  1.4635 -1.2170
  389MOL0     H52470   8.200   4.260   2.721 -1.0920 -0.7962 -1.6180
  389MOL0     H52471   8.024   4.225   2.881 -1.4059 -1.5099  0.4213
  389MOL0     H52472   8.125   4.102   2.968 -0.1509 -0.5796 -0.5885
  389MOL0     H52473   7.930   4.002   2.856  1.7127 -0.1377  0.2597
  389MOL0     H52474   8.071   3.957   2.758  0.3819 -1.4556  1.5112
  389MOL0     H52475   7.761   4.206   2.561 -0.0802  0.2044  0.0508
  389MOL0     H52476   7.435   4.160   2.510 -0.3322 -1.2833  0.1842
  389MOL0     H52477   7.571   4.242   2.431 -1.8932  0.1549  0.5141
  389MOL0     H52478   7.490   4.103   2.348 -1.2216 -1.3895  0.1240
  389MOL0     H52479   7.242   3.776   2.641  2.3861  0.2034 -0.5445
  389MOL0     H52480   7.053   3.644   2.667  2.0763  1.5524  1.8296
  389MOL0     H52481   6.856   3.511   2.619 -0.3843 -1.9352  0.1564
  389MOL0     H52482   6.870   3.525   2.439 -0.2455  0.4142  0.0941
  389MOL0     H52483   6.814   3.288   2.419  2.5527  1.4210 -0.5438
  389MOL0     H52484   6.802   3.268   2.593 -0.4984  0.0712  0.0757
  389MOL0     H52485   6.611   3.436   2.422  3.6531  2.7016  0.7777
  389MOL0     H52486   6.622   3.431   2.596  0.0631 -1.0932 -0.2542
  389MOL0     H52487   6.620   3.160   2.460  0.5269 -0.5907  1.9321
  389MOL0     H52488   6.594   3.202   2.622 -1.1032 -2.5107 -0.6738
  389MOL0     H52489   6.402   3.278   2.407  2.4288 -0.0551 -0.6022
  389MOL0     H52490   6.382   3.307   2.581  1.4358  1.0152 -0.5189
  389MOL0     H52491   6.363   3.053   2.425 -2.3134  0.9004 -1.0590
  389MOL0     H52492   6.395   3.032   2.594 -0.5088 -1.3026 -2.7547
  389MOL0     H52493   6.145   3.004   2.545 -2.8938  1.1966  3.1681
  389MOL0     H52494   6.149   3.154   2.456 -1.3915 -0.7613 -0.4759
  389MOL0     H52495   6.031   3.187   2.664 -0.5148  1.8783 -0.1723
  389MOL0     H52496   6.173   3.293   2.663  0.2307  0.3743  2.7686
  389MOL0     H52497   7.202   3.397   2.338  0.1814 -1.4187  1.2472
  389MOL0     H52498   7.404   3.541   2.338 -0.0755  0.8293 -0.2397
  389MOL0     H52499   7.682   3.731   2.580 -0.2778 -0.4317 -2.6704
  389MOL0     H52500   7.877   3.831   2.689 -2.5914 -1.4377  0.3435
  389MOL0     H52501   9.741   3.749   3.396  0.0403  1.3494  1.4922
  389MOL0     H52502   9.962   3.806   3.332 -1.2249 -0.5803  0.5948
  389MOL0     H52503  10.222   4.191   3.195 -2.1209 -1.1287  0.7057
  389MOL0     H52504  10.451   4.243   3.234  1.7129 -0.0176 -0.2917
  389MOL0     H52505  10.867   4.023   3.256  0.2865  0.5271  0.2828
  389MOL0     H52506  10.758   3.897   3.177 -0.8904  0.7068 -2.3527
  389MOL0     H52507  10.743   4.098   2.995  0.2093 -1.6834 -1.1602
  389MOL0     H52508  10.871   3.973   2.995  1.8029 -0.9745  1.6486
  389MOL0     H52509  11.012   4.122   3.149 -0.9746 -2.1532 -0.1409
  389MOL0     H52510  10.878   4.236   3.142 -0.1175  0.3439 -0.3841
  389MOL0     H52511  11.066   4.323   3.014 -0.5216  0.1598 -0.0718
  389MOL0     H52512  10.935   4.298   2.899  1.6811 -1.1238 -2.3326
  389MOL0     H52513  11.244   4.047   2.774  0.4503 -0.9976  2.1002
  389MOL0     H52514  10.578   3.859   3.101  0.3418 -1.3984  2.6415
  389MOL0     H52515  10.325   3.802   3.078 -0.5334  1.3575 -0.7045
  390MOL0     O52516   4.082   3.959   2.823 -0.0497 -0.0009  0.4850
  390MOL0     C52517   4.130   3.844   2.821  0.4364  0.5793 -0.0316
  390MOL0     O52518   4.056   3.724   2.851  0.0754  0.4640 -0.4841
  390MOL0     C52519   3.936   3.744   2.910  0.0384  0.0951 -0.9304
  390MOL0     C52520   3.922   3.822   3.022 -0.2194  0.1381  0.1983
  390MOL0     C52521   3.809   3.819   3.096 -0.1533 -1.1892  0.7598
  390MOL0     C52522   3.697   3.739   3.056  0.6261 -1.2431  0.2283
  390MOL0     O52523   3.582   3.720   3.130 -0.2577  0.0650  0.1672
  390MOL0     C52524   3.542   3.827   3.216  0.6903  0.5137 -0.8804
  390MOL0     C52525   3.411   3.785   3.277  0.4447  0.6565  0.6157
  390MOL0     C52526   3.364   3.875   3.387  0.2698 -0.0913 -0.0349
  390MOL0     C52527   3.241   3.805   3.461 -0.4234  0.6462 -0.0541
  390MOL0     C52528   3.116   3.839   3.382 -0.0117  0.0903 -0.4293
  390MOL0     C52529   2.998   3.785   3.463 -0.2315 -0.0908  0.2347
  390MOL0     C52530   2.980   3.633   3.452  0.1767 -0.2565 -0.7130
  390MOL0     C52531   2.868   3.590   3.550  0.0441  0.9986  0.7192
  390MOL0     N52532   2.733   3.623   3.503 -0.1231  0.5159 -0.0333
  390MOL0     C52533   2.637   3.704   3.569  0.7504  0.5515 -0.6814
  390MOL0     C52534   2.521   3.682   3.508 -0.1986 -0.2946  0.4764
  390MOL0     C52535   2.397   3.763   3.545 -0.6319  0.5956  0.2909
  390MOL0     C52536   2.316   3.705   3.666 -0.6095  0.0477  0.7438
  390MOL0     C52537   2.277   3.552   3.646  0.3203 -0.9139 -0.0655
  390MOL0     C52538   2.149   3.545   3.553  0.1341 -0.5127 -0.3532
  390MOL0     O52539   2.052   3.633   3.615  0.1350  0.4520  0.3224
  390MOL0     C52540   1.919   3.603   3.578 -0.1958 -0.6910 -0.8864
  390MOL0     C52541   1.831   3.640   3.677  0.0736  0.5573  0.0278
  390MOL0     C52542   1.695   3.609   3.670 -0.1731 -0.2152 -0.0885
  390MOL0     C52543   1.631   3.608   3.803  0.2153 -0.5499 -0.4366
  390MOL0     C52544   1.643   3.537   3.561 -0.2892  0.4779  0.0508
  390MOL0     C52545   1.503   3.481   3.553  0.3721  0.3460  0.7661
  390MOL0     O52546   1.493   3.391   3.453  0.6926  0.9006  0.2907
  390MOL0     C52547   1.374   3.337   3.422 -0.2008 -0.4099  0.5766
  390MOL0     C52548   1.352   3.202   3.455  0.5976  0.4076 -0.6557
  390MOL0     C52549   1.228   3.144   3.423 -0.3964 -0.5534 -0.3567
  390MOL0     C52550   1.136   3.214   3.349  0.3400  0.5090 -0.3206
  390MOL0     O52551   1.021   3.161   3.297 -0.5654  0.1674 -0.0961
  390MOL0     C52552   1.023   3.019   3.273  0.4343  0.9846 -0.2879
  390MOL0     C52553   0.914   3.001   3.171 -0.7476 -0.1058 -0.8584
  390MOL0     C52554   0.901   2.857   3.122 -0.4408 -0.0497 -0.5874
  390MOL0     C52555   1.040   2.795   3.088  0.1346  0.4121  0.2039
  390MOL0     C52556   1.040   2.660   3.017  0.1251 -0.3111 -0.4393
  390MOL0     C52557   1.159   2.635   2.920  0.4921 -0.3098  0.2618
  390MOL0     C52558   1.283   2.573   2.989 -0.7489 -0.1745 -0.9725
  390MOL0     C52559   1.377   2.685   3.038  0.7506  0.7765  0.0554
  390MOL0    Cl52560   1.482   2.725   2.898  0.5267  0.0034  0.0455
  390MOL0     C52561   1.155   3.352   3.342 -0.1974 -0.9186  0.0586
  390MOL0     C52562   1.274   3.412   3.375  0.1813 -0.3751  0.1150
  390MOL0     O52563   1.412   3.531   3.608 -0.0463 -0.2621  0.0678
  390MOL0     C52564   1.741   3.512   3.455 -0.1361  0.8083 -0.1126
  390MOL0     C52565   1.876   3.540   3.460  0.3712 -0.8159  0.2578
  390MOL0     N52566   2.536   3.604   3.393 -0.9251  0.2274 -0.4006
  390MOL0     N52567   2.670   3.567   3.396  1.0124 -0.6871  0.2187
  390MOL0     C52568   3.701   3.676   2.934  0.0312 -0.1586 -0.1212
  390MOL0     C52569   3.830   3.669   2.863  0.0823 -0.1576 -0.2606
  390MOL0     C52570   4.272   3.819   2.776  0.3357 -0.6948  0.2509
  390MOL0     C52571   4.341   3.928   2.736  0.5265  0.2209 -0.1666
  390MOL0     C52572   4.483   3.918   2.714  0.1644 -1.0645  0.1245
  390MOL0     C52573   4.548   3.803   2.724 -0.6649  0.8119  0.3432
  390MOL0     O52574   4.680   3.767   2.701  0.0308  0.7846  0.4299
  390MOL0     C52575   4.773   3.871   2.676 -0.0071  0.1708 -0.2381
  390MOL0     C52576   4.888   3.816   2.594 -0.3708 -0.0088 -0.1311
  390MOL0     C52577   4.854   3.809   2.444  0.7487  0.1770  0.7465
  390MOL0     C52578   4.739   3.713   2.411  0.3143 -0.0660 -0.1014
  390MOL0     C52579   4.751   3.667   2.271  0.9896  0.6753  0.1340
  390MOL0     C52580   4.766   3.595   2.177  0.3144  0.3797 -0.9377
  390MOL0     C52581   4.479   3.687   2.756 -0.1949 -0.7826  0.6918
  390MOL0     C52582   4.339   3.698   2.777 -0.4653  0.4307 -0.4465
  390MOL0     H52583   4.014   3.859   3.065 -0.0013 -3.0508  2.9724
  390MOL0     H52584   3.814   3.868   3.193  0.2533  0.9557 -0.2740
  390MOL0     H52585   3.622   3.849   3.288  1.0956  0.6947 -1.3751
  390MOL0     H52586   3.520   3.915   3.155 -1.0499  0.2803 -0.6292
  390MOL0     H52587   3.341   3.773   3.195  2.1057  3.6533 -1.4136
  390MOL0     H52588   3.436   3.689   3.324  0.3404 -0.2094 -1.0503
  390MOL0     H52589   3.441   3.905   3.459  0.7458 -0.5859 -0.3371
  390MOL0     H52590   3.326   3.972   3.352 -0.0386  0.9437  2.8978
  390MOL0     H52591   3.262   3.698   3.476 -1.3707  0.7833  3.0816
  390MOL0     H52592   3.231   3.845   3.562 -0.4482  1.8757 -0.5330
  390MOL0     H52593   3.100   3.946   3.362 -0.8451 -0.1295 -0.9814
  390MOL0     H52594   3.109   3.781   3.290 -0.0160 -1.3717  0.4560
  390MOL0     H52595   2.993   3.815   3.569  3.1247 -1.6421  0.9647
  390MOL0     H52596   2.910   3.832   3.419  0.5430  3.1206  1.8325
  390MOL0     H52597   2.969   3.604   3.347 -1.0993 -1.4347 -0.2793
  390MOL0     H52598   3.072   3.579   3.479  0.5638  0.0279 -1.4241
  390MOL0     H52599   2.874   3.641   3.647  0.7845 -0.1730  1.3164
  390MOL0     H52600   2.885   3.484   3.568 -4.2615  0.0659  0.2200
  390MOL0     H52601   2.660   3.762   3.658  0.4344 -2.8136  1.7903
  390MOL0     H52602   2.432   3.865   3.559  2.8571 -0.0816 -2.2566
  390MOL0     H52603   2.328   3.767   3.460 -0.3764 -1.0166 -0.0383
  390MOL0     H52604   2.226   3.767   3.678 -1.7523 -1.2091 -0.8134
  390MOL0     H52605   2.383   3.720   3.751 -0.6869  0.5756  0.7173
  390MOL0     H52606   2.252   3.504   3.741 -0.1200  2.2414  1.5547
  390MOL0     H52607   2.367   3.504   3.607  2.0868  2.1842 -0.1309
  390MOL0     H52608   2.121   3.440   3.555  0.7474 -0.7296  3.3415
  390MOL0     H52609   2.181   3.576   3.453  0.9909 -1.7670 -0.4851
  390MOL0     H52610   1.884   3.678   3.764  1.1472  2.5550 -1.4244
  390MOL0     H52611   1.529   3.648   3.801  0.5366  0.3501  0.2228
  390MOL0     H52612   1.622   3.508   3.847  2.3453 -1.3178 -1.6275
  390MOL0     H52613   1.690   3.667   3.875  0.9866  1.8638 -2.8856
  390MOL0     H52614   1.430   3.146   3.506  0.1538  1.1346  0.8767
  390MOL0     H52615   1.211   3.039   3.443 -2.7016 -0.0356  0.7168
  390MOL0     H52616   1.121   2.988   3.236 -0.6028 -0.9286 -1.5633
  390MOL0     H52617   0.994   2.961   3.361 -0.1246  0.8913 -0.5259
  390MOL0     H52618   0.825   3.034   3.225 -1.4536 -1.4681 -1.1285
  390MOL0     H52619   0.933   3.068   3.087 -0.1556  0.2688 -0.4310
  390MOL0     H52620   0.832   2.845   3.038 -1.5034  2.2625 -0.1176
  390MOL0     H52621   0.864   2.791   3.201  1.6012 -4.1052 -2.6843
  390MOL0     H52622   1.084   2.868   3.020 -0.4819 -0.0339 -0.6938
  390MOL0     H52623   1.102   2.782   3.177 -0.6281 -0.7508  0.5985
  390MOL0     H52624   0.947   2.667   2.960 -1.4783 -0.6381  1.9843
  390MOL0     H52625   1.034   2.579   3.090  0.4566  0.2671  0.2478
  390MOL0     H52626   1.117   2.568   2.844 -0.5041  2.8796 -2.1982
  390MOL0     H52627   1.191   2.725   2.867 -1.5962 -0.0542 -0.6674
  390MOL0     H52628   1.329   2.505   2.916 -0.7078 -0.8509 -0.3322
  390MOL0     H52629   1.251   2.516   3.077  1.5466 -0.3781 -0.2082
  390MOL0     H52630   1.434   2.642   3.121 -0.1322 -2.3447 -0.8022
  390MOL0     H52631   1.329   2.767   3.092 -0.6904 -1.6083  2.6846
  390MOL0     H52632   1.089   3.417   3.286 -1.7709 -3.0099 -0.6546
  390MOL0     H52633   1.291   3.515   3.345  1.8817 -0.5998  0.1835
  390MOL0     H52634   1.699   3.474   3.363  1.6436  0.6031 -0.8806
  390MOL0     H52635   1.941   3.531   3.373 -0.1096  1.9035 -0.4808
  390MOL0     H52636   3.614   3.618   2.907 -1.0650  1.6829 -0.6992
  390MOL0     H52637   3.852   3.611   2.774 -1.7565 -0.4705 -0.5540
  390MOL0     H52638   4.300   4.028   2.725  0.6290  0.3121  0.2534
  390MOL0     H52639   4.531   4.008   2.677  0.2991  0.1340  2.9997
  390MOL0     H52640   4.738   3.961   2.625 -2.0528  0.4259  1.4787
  390MOL0     H52641   4.822   3.909   2.766 -0.3826  0.4522 -0.1492
  390MOL0     H52642   4.922   3.716   2.622  1.3021 -0.0016 -1.9524
  390MOL0     H52643   4.973   3.884   2.603 -1.0030  1.0581 -1.8051
  390MOL0     H52644   4.939   3.763   2.391 -0.1925  0.4782 -1.0919
  390MOL0     H52645   4.826   3.908   2.407 -1.6571 -0.4391  0.7945
  390MOL0     H52646   4.646   3.765   2.434  0.7531  0.1775  1.1792
  390MOL0     H52647   4.748   3.625   2.475  0.7592  0.1808  0.1821
  390MOL0     H52648   4.788   3.536   2.090  2.9523 -1.2277  0.6821
  390MOL0     H52649   4.531   3.592   2.766  0.2599 -0.9053 -2.1421
  390MOL0     H52650   4.311   3.605   2.827  1.4912 -0.0196 -0.0807
  391MOL0     O52651  10.507   7.720   0.523  0.2172  0.8108 -0.1770
  391MOL0     C52652  10.585   7.624   0.544  0.6187  0.3340  0.4691
  391MOL0     O52653  10.558   7.517   0.621  0.3063 -0.3205 -0.3695
  391MOL0     C52654  10.450   7.522   0.700  0.7450 -0.0587 -0.3491
  391MOL0     C52655  10.468   7.515   0.837 -0.9004  1.1554 -0.6393
  391MOL0     C52656  10.361   7.524   0.927 -0.1461  0.1553  0.1800
  391MOL0     C52657  10.224   7.525   0.873  0.0138  0.3748  0.9402
  391MOL0     O52658  10.104   7.522   0.938 -0.1203  0.0529 -0.1318
  391MOL0     C52659  10.099   7.471   1.073  0.0077  0.2657  0.0370
  391MOL0     C52660   9.955   7.427   1.070  0.2407 -0.3169 -1.0782
  391MOL0     C52661   9.866   7.547   1.073 -0.2222  0.2886 -0.2760
  391MOL0     C52662   9.719   7.510   1.105  0.2785 -0.5852 -0.1184
  391MOL0     C52663   9.625   7.623   1.043  0.9614 -0.1071 -0.4122
  391MOL0     C52664   9.670   7.769   1.077 -0.1081  0.4140  0.2068
  391MOL0     C52665   9.566   7.868   1.011 -0.5491  0.2179 -0.4325
  391MOL0     C52666   9.582   8.012   1.061 -0.5113 -0.2035 -0.4827
  391MOL0     N52667   9.475   8.049   1.154  0.1577 -0.2931  0.0433
  391MOL0     C52668   9.459   7.996   1.277 -0.6524  0.1950 -1.0977
  391MOL0     C52669   9.342   8.049   1.336  0.2484 -0.2688  0.0792
  391MOL0     C52670   9.293   8.018   1.477 -1.3892 -0.1184 -0.4839
  391MOL0     C52671   9.355   8.125   1.565 -0.4803 -0.3676  0.5593
  391MOL0     C52672   9.313   8.269   1.534  0.4371 -0.8288 -0.5559
  391MOL0     C52673   9.362   8.370   1.638  0.4280 -0.3417 -0.3314
  391MOL0     O52674   9.501   8.350   1.669 -0.5998 -0.2277  0.0570
  391MOL0     C52675   9.593   8.440   1.623  0.4536 -0.2866 -0.2596
  391MOL0     C52676   9.627   8.456   1.490  0.1292 -0.8418  1.4099
  391MOL0     C52677   9.735   8.536   1.455 -0.3072 -0.2286  0.3205
  391MOL0     C52678   9.772   8.537   1.305  0.1712 -0.1975  0.9003
  391MOL0     C52679   9.802   8.624   1.549 -0.7767 -0.2133  0.2306
  391MOL0     C52680   9.909   8.727   1.525 -0.8931 -0.3764  1.1421
  391MOL0     O52681   9.979   8.719   1.410 -0.3664  0.1163 -0.5595
  391MOL0     C52682  10.098   8.786   1.379 -0.8608  0.6084 -1.1192
  391MOL0     C52683  10.145   8.909   1.417  0.2648 -0.5121 -0.3927
  391MOL0     C52684  10.270   8.955   1.367 -0.0468  0.2818  0.1448
  391MOL0     C52685  10.354   8.877   1.287 -0.2425  0.1496 -1.0598
  391MOL0     O52686  10.485   8.924   1.281  0.3632 -0.4363 -0.1148
  391MOL0     C52687  10.568   8.833   1.211 -0.2526  0.0067 -0.7867
  391MOL0     C52688  10.712   8.875   1.218 -0.9034 -0.0013 -0.5482
  391MOL0     C52689  10.767   8.903   1.365  0.0799  0.0871  0.1594
  391MOL0     C52690  10.914   8.946   1.361 -0.3740  0.3008 -0.5769
  391MOL0     C52691  10.978   8.963   1.498  0.0226  0.8766 -0.2209
  391MOL0     C52692  11.118   9.014   1.481 -0.6033  0.0584  0.8076
  391MOL0     C52693  11.174   9.070   1.613 -0.1011  0.3116 -0.9716
  391MOL0     C52694  11.325   9.087   1.611 -0.0127  0.0089 -0.0425
  391MOL0    Cl52695  11.404   8.933   1.577 -0.2341 -0.1554 -0.5464
  391MOL0     C52696  10.306   8.748   1.248 -0.0729  0.3255 -0.1449
  391MOL0     C52697  10.171   8.712   1.287 -1.1689  0.6320 -0.2950
  391MOL0     O52698   9.913   8.819   1.604 -0.0496 -0.3881  0.2264
  391MOL0     C52699   9.769   8.606   1.688  0.6278 -0.0435 -0.0861
  391MOL0     C52700   9.671   8.511   1.722  0.3263  0.3900  0.1442
  391MOL0     N52701   9.299   8.141   1.234 -0.5335 -0.5840  0.0901
  391MOL0     N52702   9.362   8.129   1.127  0.4709 -0.2657  0.8398
  391MOL0     C52703  10.205   7.531   0.735 -0.7796  0.2904  0.6820
  391MOL0     C52704  10.319   7.525   0.649  0.9922  0.1412 -0.2048
  391MOL0     C52705  10.713   7.617   0.463  0.1942  0.2254  0.6211
  391MOL0     C52706  10.804   7.511   0.471  0.6743 -0.4834  0.0092
  391MOL0     C52707  10.912   7.501   0.374  0.1605  0.3081 -0.1352
  391MOL0     C52708  10.935   7.606   0.290 -0.1132  1.2523 -0.0514
  391MOL0     O52709  11.039   7.581   0.202  0.1241  0.1488  0.3047
  391MOL0     C52710  11.085   7.685   0.125  0.2130  1.0309  0.7109
  391MOL0     C52711  11.169   7.774   0.205 -0.5876 -0.5085 -0.1298
  391MOL0     C52712  11.308   7.711   0.262  0.7756 -1.5250  0.3456
  391MOL0     C52713  11.413   7.818   0.277 -0.2467 -0.1889  0.5311
  391MOL0     C52714  11.528   7.772   0.358  0.9275  0.4433 -0.4713
  391MOL0     C52715  11.626   7.750   0.421 -0.6955 -0.7678  0.8829
  391MOL0     C52716  10.850   7.721   0.298  0.3842  0.3493  0.2766
  391MOL0     C52717  10.738   7.724   0.378 -1.3624 -0.1053  0.1017
  391MOL0     H52718  10.572   7.506   0.865 -1.3217 -0.7824  0.4697
  391MOL0     H52719  10.378   7.506   1.033 -1.4000 -2.0585  0.0807
  391MOL0     H52720  10.167   7.388   1.091 -1.0197 -0.1478  2.4500
  391MOL0     H52721  10.124   7.555   1.139 -2.4755 -0.2166  1.7265
  391MOL0     H52722   9.939   7.366   0.980 -0.4760 -0.2181 -1.0180
  391MOL0     H52723   9.934   7.369   1.160 -1.9534 -0.7729 -1.8268
  391MOL0     H52724   9.898   7.616   1.152 -0.0181 -0.4538  0.3043
  391MOL0     H52725   9.878   7.596   0.976 -1.1601  0.1518 -0.4643
  391MOL0     H52726   9.692   7.408   1.076 -0.8307 -0.3872  0.1758
  391MOL0     H52727   9.714   7.512   1.214 -0.1529  0.9920 -0.1486
  391MOL0     H52728   9.618   7.614   0.935  2.1657  2.3747 -0.7664
  391MOL0     H52729   9.518   7.605   1.062  1.3688 -1.1018  1.1751
  391MOL0     H52730   9.664   7.776   1.186  0.1571 -2.2220  0.4556
  391MOL0     H52731   9.771   7.793   1.044  0.3927 -1.6707  0.1105
  391MOL0     H52732   9.576   7.857   0.902 -2.0085 -2.2850 -0.3892
  391MOL0     H52733   9.469   7.826   1.039  0.8076 -1.1970  2.6220
  391MOL0     H52734   9.589   8.081   0.976  2.5739  1.0740  0.6270
  391MOL0     H52735   9.676   8.039   1.112 -0.4076  1.2183 -1.3709
  391MOL0     H52736   9.525   7.930   1.332 -2.1784  0.7978  1.6568
  391MOL0     H52737   9.185   8.031   1.493 -1.9150 -0.7811 -2.9834
  391MOL0     H52738   9.316   7.918   1.515 -0.2937  0.8031  1.4369
  391MOL0     H52739   9.462   8.118   1.543 -1.0407 -2.2742 -2.0834
  391MOL0     H52740   9.329   8.095   1.667 -0.5238 -0.6393  0.4682
  391MOL0     H52741   9.204   8.283   1.541  0.6625  1.0988 -0.3095
  391MOL0     H52742   9.346   8.300   1.434  2.4138  2.9721  1.0884
  391MOL0     H52743   9.312   8.363   1.735 -0.9249 -0.7544 -1.0406
  391MOL0     H52744   9.344   8.469   1.596  2.1889  0.0630 -0.2122
  391MOL0     H52745   9.578   8.387   1.422  0.0294 -0.2207  0.8358
  391MOL0     H52746   9.806   8.636   1.273 -0.5292  0.6766  2.7156
  391MOL0     H52747   9.854   8.469   1.282 -1.5265 -1.3560 -2.4110
  391MOL0     H52748   9.691   8.501   1.240  1.2488 -0.7670 -0.1650
  391MOL0     H52749  10.092   8.969   1.491 -0.1090  1.0144 -1.8437
  391MOL0     H52750  10.300   9.052   1.406  2.2610 -1.6930  3.8354
  391MOL0     H52751  10.562   8.732   1.254 -2.3804 -1.0651 -3.2920
  391MOL0     H52752  10.544   8.826   1.105  1.3382  0.9190 -1.2365
  391MOL0     H52753  10.778   8.808   1.162  0.0196  0.5215 -0.1186
  391MOL0     H52754  10.730   8.971   1.167 -1.2949 -0.0925 -0.8631
  391MOL0     H52755  10.754   8.808   1.418 -2.4322 -0.9892 -2.1549
  391MOL0     H52756  10.704   8.977   1.417  0.6149  0.3018  0.5068
  391MOL0     H52757  10.983   8.875   1.315  4.4266  1.5797  3.6576
  391MOL0     H52758  10.911   9.044   1.313  0.5773  1.9981  2.5712
  391MOL0     H52759  10.992   8.868   1.551  1.9532  0.9973 -0.4669
  391MOL0     H52760  10.914   9.022   1.564  0.1342  0.6303  0.1067
  391MOL0     H52761  11.177   8.932   1.439  2.0369  2.8334 -1.3068
  391MOL0     H52762  11.122   9.096   1.410 -1.5291 -0.6404 -0.0945
  391MOL0     H52763  11.163   9.004   1.700 -1.4898  1.3486 -0.3244
  391MOL0     H52764  11.137   9.165   1.651  0.0849  0.3037 -0.7640
  391MOL0     H52765  11.354   9.137   1.704 -1.1993  2.7319 -1.0237
  391MOL0     H52766  11.340   9.161   1.532 -0.7394  1.1657  0.8596
  391MOL0     H52767  10.368   8.677   1.194 -0.5035 -0.5309  0.4734
  391MOL0     H52768  10.133   8.614   1.258  0.4945 -0.8627  2.2116
  391MOL0     H52769   9.815   8.662   1.769 -1.0495  1.5719 -0.1783
  391MOL0     H52770   9.653   8.474   1.823  2.8109 -1.4701 -0.0000
  391MOL0     H52771  10.101   7.528   0.705 -0.7076  2.6467  0.0685
  391MOL0     H52772  10.309   7.523   0.541  1.6517  0.9172 -0.2844
  391MOL0     H52773  10.778   7.431   0.540 -0.5201 -0.5532 -0.4939
  391MOL0     H52774  10.975   7.412   0.382  1.4207  1.1704 -0.1001
  391MOL0     H52775  11.144   7.641   0.044 -0.2004  0.8606  0.5002
  391MOL0     H52776  11.000   7.734   0.076 -0.0879  0.2724  0.4621
  391MOL0     H52777  11.109   7.818   0.285  1.7087  0.3817  1.2225
  391MOL0     H52778  11.188   7.855   0.134 -0.4509 -0.3522  0.0804
  391MOL0     H52779  11.344   7.650   0.179  1.6863  2.1485 -2.2378
  391MOL0     H52780  11.297   7.658   0.357 -2.4103  1.0858  1.6605
  391MOL0     H52781  11.373   7.904   0.331 -0.2746 -1.2206  2.2051
  391MOL0     H52782  11.444   7.871   0.186  0.3997  0.3778  1.0665
  391MOL0     H52783  11.712   7.747   0.484 -2.3160 -0.5769  3.2691
  391MOL0     H52784  10.872   7.803   0.230 -1.6051 -0.2483 -1.1924
  391MOL0     H52785  10.670   7.808   0.376 -0.7599  0.4623 -3.7411
  392MOL0     O52786   4.481   5.173  10.040  0.2586  0.0085  0.3354
  392MOL0     C52787   4.509   5.194  10.159  0.1921 -1.0333 -0.3392
  392MOL0     O52788   4.413   5.199  10.258 -0.3886  0.0059 -1.4971
  392MOL0     C52789   4.280   5.183  10.233  1.2238  0.1444 -0.5365
  392MOL0     C52790   4.209   5.249  10.133 -0.4200 -0.4680 -0.0278
  392MOL0     C52791   4.071   5.231  10.115 -0.6806  0.3659  0.1039
  392MOL0     C52792   3.998   5.150  10.203  0.3332  0.1902  0.3980
  392MOL0     O52793   3.859   5.112  10.185 -0.8326  0.7146  0.5931
  392MOL0     C52794   3.789   5.192  10.090  0.1920 -0.3836  0.0076
  392MOL0     C52795   3.653   5.132  10.065  0.3685 -0.2316 -0.1387
  392MOL0     C52796   3.572   5.091  10.187 -0.2324  0.4557  0.0298
  392MOL0     C52797   3.552   5.201  10.293  0.3756 -0.0443  0.7366
  392MOL0     C52798   3.458   5.161  10.398 -0.0951  0.3375  0.2598
  392MOL0     C52799   3.425   5.287  10.480 -0.2744 -0.4240 -0.9313
  392MOL0     C52800   3.301   5.286  10.574 -0.2639  0.8976  0.8638
  392MOL0     C52801   3.252   5.428  10.595  0.6250  0.5201  0.0596
  392MOL0     N52802   3.122   5.434  10.657  0.6881 -0.4929 -0.1179
  392MOL0     C52803   3.097   5.409  10.791  0.3347  0.4249  0.3884
  392MOL0     C52804   2.979   5.456  10.808 -0.1582 -0.2811 -0.2558
  392MOL0     C52805   2.913   5.464  10.939  0.1235 -0.9667 -0.0321
  392MOL0     C52806   2.763   5.421  10.928  0.6516 -0.0056 -0.4875
  392MOL0     C52807   2.688   5.468  11.054 -0.3177  0.5311 -0.2042
  392MOL0     C52808   2.537   5.424  11.055 -0.1163 -0.3013  0.5057
  392MOL0     O52809   2.546   5.289  11.097 -0.1280 -0.1295 -0.2068
  392MOL0     C52810   2.428   5.226  11.107 -0.2494  0.3498  0.6858
  392MOL0     C52811   2.354   5.181  10.997  0.8795  0.1587 -0.2766
  392MOL0     C52812   2.229   5.125  11.009  0.1061 -0.9805  1.2446
  392MOL0     C52813   2.162   5.078  10.879  0.1174  0.4231  0.2705
  392MOL0     C52814   2.173   5.103  11.144 -0.2759  0.3487 -0.6444
  392MOL0     C52815   2.041   5.042  11.173  0.3171 -0.6148  0.5858
  392MOL0     O52816   2.011   5.028  11.306  0.6099 -0.3535 -1.0538
  392MOL0     C52817   1.875   5.004  11.334 -0.0783  0.6352 -0.7991
  392MOL0     C52818   1.777   5.101  11.357  0.4159  0.0792  0.9282
  392MOL0     C52819   1.654   5.068  11.401  0.8124 -1.0426  0.7552
  392MOL0     C52820   1.626   4.935  11.438  0.9408 -0.4199 -0.2111
  392MOL0     O52821   1.511   4.893  11.499  0.0752  0.0491 -0.8196
  392MOL0     C52822   1.385   4.933  11.441 -0.1931 -0.5411 -0.0450
  392MOL0     C52823   1.277   4.876  11.529 -0.9619  0.5332  0.2122
  392MOL0     C52824   1.136   4.895  11.456 -0.3253 -0.5060  0.1321
  392MOL0     C52825   1.019   4.861  11.552 -0.6680 -0.0201 -0.3001
  392MOL0     C52826   0.894   4.868  11.476 -0.0734 -0.2385 -0.0961
  392MOL0     C52827   0.785   4.802  11.551 -0.3123  0.7143  0.0579
  392MOL0     C52828   0.658   4.828  11.480 -0.0511  0.1283  0.0217
  392MOL0     C52829   0.540   4.765  11.556 -0.6320  0.0034 -0.2152
  392MOL0    Cl52830   0.397   4.818  11.472  0.2130 -0.0482 -0.1882
  392MOL0     C52831   1.722   4.833  11.423 -0.5081 -0.2645 -0.0589
  392MOL0     C52832   1.843   4.870  11.361  0.2729  0.3103  0.0366
  392MOL0     O52833   1.965   4.998  11.083  0.5414 -0.2447 -0.2212
  392MOL0     C52834   2.256   5.138  11.253 -0.6435 -0.2237  0.4854
  392MOL0     C52835   2.376   5.202  11.237  0.7120 -0.1969 -0.0681
  392MOL0     N52836   2.925   5.493  10.689 -0.9324 -0.0342  0.7889
  392MOL0     N52837   3.019   5.480  10.601  0.8827 -0.1004  0.2127
  392MOL0     C52838   4.064   5.084  10.305  0.1532  0.1858  0.1917
  392MOL0     C52839   4.200   5.112  10.319  0.5513  0.5751  0.2660
  392MOL0     C52840   4.654   5.203  10.190  0.2955  0.2201 -0.3197
  392MOL0     C52841   4.742   5.219  10.083 -0.2079  0.7478  0.2793
  392MOL0     C52842   4.879   5.232  10.100 -0.0684  0.1746 -0.6631
  392MOL0     C52843   4.936   5.230  10.232 -0.8307  0.4381 -0.4779
  392MOL0     O52844   5.067   5.254  10.252 -0.0715  0.2904  0.2133
  392MOL0     C52845   5.133   5.218  10.374  0.0155  0.7215 -0.2334
  392MOL0     C52846   5.282   5.175  10.356 -0.0377 -0.1287 -0.2378
  392MOL0     C52847   5.320   5.042  10.282  0.8990 -0.5433  0.0586
  392MOL0     C52848   5.461   5.012  10.305 -0.4926  0.0772 -0.0466
  392MOL0     C52849   5.498   4.877  10.257 -0.8950 -0.3608 -0.9979
  392MOL0     C52850   5.525   4.761  10.248  0.7423  0.5838 -0.2465
  392MOL0     C52851   4.843   5.189  10.340  0.3356 -0.8743 -0.1253
  392MOL0     C52852   4.707   5.182  10.319  0.7195 -0.3100 -0.4314
  392MOL0     H52853   4.271   5.321  10.080  1.6741  0.0397  2.8861
  392MOL0     H52854   4.023   5.288  10.036  0.7678  0.7511 -0.5270
  392MOL0     H52855   3.769   5.290  10.134  2.0653 -0.9977  2.4354
  392MOL0     H52856   3.838   5.200   9.992  2.1139 -1.7629  0.7998
  392MOL0     H52857   3.603   5.208  10.004  0.2826 -0.9146 -0.9424
  392MOL0     H52858   3.669   5.044  10.002 -0.0704 -0.4550  0.0584
  392MOL0     H52859   3.471   5.064  10.157 -0.5055  2.1356 -0.6755
  392MOL0     H52860   3.624   5.002  10.224  0.3125  1.4449  1.7979
  392MOL0     H52861   3.645   5.225  10.347  1.2059 -0.3672 -0.4957
  392MOL0     H52862   3.514   5.284  10.234  3.5134 -0.4585 -2.1780
  392MOL0     H52863   3.365   5.120  10.359 -0.3048  1.5968 -0.5964
  392MOL0     H52864   3.506   5.080  10.456 -1.0959 -1.9993 -1.9776
  392MOL0     H52865   3.514   5.318  10.537 -1.0760 -3.6773  2.4953
  392MOL0     H52866   3.409   5.363  10.403 -0.5905  0.6353  0.1506
  392MOL0     H52867   3.222   5.216  10.545  0.3371  0.3867  0.4314
  392MOL0     H52868   3.338   5.247  10.670  1.8441 -1.4872 -0.7661
  392MOL0     H52869   3.269   5.477  10.498  2.4860  1.9461  1.0448
  392MOL0     H52870   3.323   5.475  10.664 -0.7231 -0.1767  1.9891
  392MOL0     H52871   3.168   5.381  10.868  3.0098  2.6652 -1.0647
  392MOL0     H52872   2.968   5.403  11.011  0.2383  1.4775  2.0431
  392MOL0     H52873   2.918   5.569  10.969  2.0468 -0.8691 -0.5504
  392MOL0     H52874   2.749   5.313  10.918  3.3381 -0.2865 -2.2505
  392MOL0     H52875   2.710   5.480  10.853  0.1757  3.3506  2.2253
  392MOL0     H52876   2.688   5.578  11.062 -0.0523  0.4501  1.0088
  392MOL0     H52877   2.748   5.431  11.137 -0.2047  0.7544 -0.1850
  392MOL0     H52878   2.506   5.439  10.952  1.2246 -1.2540 -0.0685
  392MOL0     H52879   2.480   5.484  11.127  3.0744  0.5749  2.5159
  392MOL0     H52880   2.375   5.200  10.893 -1.5801 -1.6523 -1.1801
  392MOL0     H52881   2.083   5.145  10.843  0.2899  0.5953  0.2118
  392MOL0     H52882   2.233   5.054  10.800  1.8605  0.9858  1.5825
  392MOL0     H52883   2.121   4.980  10.905  1.0253  0.8373  3.8485
  392MOL0     H52884   1.802   5.204  11.332  1.1524 -0.0931  0.9335
  392MOL0     H52885   1.573   5.140  11.412 -1.2153 -3.1547  0.5668
  392MOL0     H52886   1.370   5.041  11.439  1.6672 -0.0667  3.3546
  392MOL0     H52887   1.379   4.890  11.341  2.1745  1.3185 -1.0624
  392MOL0     H52888   1.290   4.768  11.541 -0.6397  0.6103  0.5674
  392MOL0     H52889   1.282   4.927  11.625 -0.5322 -0.0174  0.4915
  392MOL0     H52890   1.127   4.826  11.372 -1.3341 -1.1549  0.7489
  392MOL0     H52891   1.115   4.994  11.415  1.6941 -0.1679 -0.1690
  392MOL0     H52892   1.034   4.757  11.582  0.5265  0.1783 -0.1483
  392MOL0     H52893   1.001   4.923  11.640 -1.8562 -1.3512  0.4298
  392MOL0     H52894   0.904   4.825  11.376  0.7121 -2.4315  0.8530
  392MOL0     H52895   0.871   4.974  11.461  0.7956  0.0343  0.4378
  392MOL0     H52896   0.809   4.695  11.555  0.3832  0.6411 -3.2594
  392MOL0     H52897   0.783   4.843  11.653 -1.2540 -0.8972  0.7350
  392MOL0     H52898   0.653   4.783  11.380 -0.4022  0.4197 -0.0943
  392MOL0     H52899   0.640   4.935  11.467 -1.1975  0.0081  0.4742
  392MOL0     H52900   0.539   4.808  11.657 -0.2031  0.4003 -0.3740
  392MOL0     H52901   0.557   4.657  11.566  0.8704  0.3447  1.4319
  392MOL0     H52902   1.696   4.728  11.437 -2.8522  0.1617 -0.7606
  392MOL0     H52903   1.924   4.803  11.333  0.0746 -0.8796  2.0629
  392MOL0     H52904   2.210   5.134  11.351 -1.4572 -0.3138  0.1121
  392MOL0     H52905   2.435   5.236  11.322  0.0040  1.4248 -0.1888
  392MOL0     H52906   4.002   5.023  10.370 -1.1443  2.3353  1.0804
  392MOL0     H52907   4.249   5.057  10.399  1.9354  2.6252  0.9211
  392MOL0     H52908   4.701   5.236   9.983 -0.5902  0.0399  0.3147
  392MOL0     H52909   4.952   5.248  10.022  0.8277 -2.5426 -0.4590
  392MOL0     H52910   5.135   5.303  10.442 -0.9225  1.6490 -1.3241
  392MOL0     H52911   5.077   5.134  10.417 -0.0269  1.4017  1.0787
  392MOL0     H52912   5.341   5.178  10.448  0.1981  0.2190 -0.3973
  392MOL0     H52913   5.319   5.263  10.301 -1.4285  1.5946  1.4537
  392MOL0     H52914   5.294   5.045  10.176  0.9736 -0.7364  0.0346
  392MOL0     H52915   5.265   4.962  10.333 -1.2589  0.9147  0.1697
  392MOL0     H52916   5.492   5.025  10.409  0.9976 -0.9509 -0.3327
  392MOL0     H52917   5.523   5.080  10.245 -2.0061  1.0976 -0.5161
  392MOL0     H52918   5.516   4.657  10.228  0.0987  0.3184  1.3212
  392MOL0     H52919   4.869   5.168  10.443  1.4041  1.9150  0.2507
  392MOL0     H52920   4.648   5.168  10.409  3.5126  2.8176  2.1980
  393MOL0     O52921   8.304  10.812   0.290 -0.6222 -0.2286 -0.0444
  393MOL0     C52922   8.428  10.818   0.292  0.1270  0.6197  0.0620
  393MOL0     O52923   8.509  10.726   0.224  0.1916  0.0671 -0.9037
  393MOL0     C52924   8.446  10.622   0.158 -0.4575  0.4355 -1.3589
  393MOL0     C52925   8.480  10.579   0.029 -0.0142 -0.1449  0.8374
  393MOL0     C52926   8.410  10.480  -0.036  0.3127 -0.1439  0.0988
  393MOL0     C52927   8.311  10.403   0.032 -0.1058 -0.5161 -0.3007
  393MOL0     O52928   8.244  10.302  -0.033  0.3081 -0.2428  0.0404
  393MOL0     C52929   8.169  10.224   0.054  1.3448 -0.6070  0.0870
  393MOL0     C52930   8.116  10.103  -0.014 -0.4833 -0.2017 -0.1273
  393MOL0     C52931   8.023  10.138  -0.136  0.0053 -1.0043 -0.2143
  393MOL0     C52932   7.959  10.001  -0.170 -0.8858 -0.0301 -0.4901
  393MOL0     C52933   7.882  10.001  -0.300 -0.2034  0.0684 -0.7315
  393MOL0     C52934   7.747  10.083  -0.294 -0.3408 -0.1459 -0.5888
  393MOL0     C52935   7.653  10.028  -0.393  0.4281  0.3968 -0.1300
  393MOL0     C52936   7.564   9.907  -0.350 -0.2114 -0.6056 -0.5107
  393MOL0     N52937   7.449   9.944  -0.272  0.2862 -0.9268 -0.6891
  393MOL0     C52938   7.346  10.012  -0.336 -0.1778 -0.4107  0.1101
  393MOL0     C52939   7.253  10.040  -0.249  0.1089 -0.3986 -0.0018
  393MOL0     C52940   7.134  10.134  -0.282  0.0047 -0.9031  0.8273
  393MOL0     C52941   7.038  10.090  -0.385  0.7443 -0.0943 -0.5492
  393MOL0     C52942   6.963  10.201  -0.459  0.8149 -0.1116 -0.0657
  393MOL0     C52943   6.881  10.302  -0.383 -0.4804 -0.3370 -0.5378
  393MOL0     O52944   6.800  10.241  -0.288 -1.3738  0.3690 -0.8546
  393MOL0     C52945   6.703  10.306  -0.217  0.1894  0.4600  0.3103
  393MOL0     C52946   6.662  10.437  -0.246 -0.7104 -0.5532 -0.4682
  393MOL0     C52947   6.562  10.508  -0.174  0.3257 -0.1503 -0.1943
  393MOL0     C52948   6.529  10.652  -0.221  0.3504 -0.1275 -0.0819
  393MOL0     C52949   6.482  10.438  -0.077 -0.8512 -0.0279  0.1110
  393MOL0     C52950   6.364  10.498  -0.014  0.1503 -0.2646  0.5229
  393MOL0     O52951   6.329  10.624  -0.028  0.1207  0.5558  0.3985
  393MOL0     C52952   6.215  10.661   0.041  0.0544 -1.0476 -0.6245
  393MOL0     C52953   6.090  10.691  -0.020 -1.2114  0.1949 -0.2814
  393MOL0     C52954   5.981  10.736   0.054 -0.4044  0.0954  1.5148
  393MOL0     C52955   5.991  10.771   0.184  0.7415 -0.2871  0.2933
  393MOL0     O52956   5.888  10.809   0.260  0.0323 -0.8777 -0.9046
  393MOL0     C52957   5.813  10.922   0.224  0.2801  0.3360  0.1473
  393MOL0     C52958   5.696  10.925   0.323 -0.4754  0.5683  0.4943
  393MOL0     C52959   5.610  11.045   0.288 -0.0956 -0.6201  0.3322
  393MOL0     C52960   5.466  11.039   0.340 -0.5819 -0.2452  0.6981
  393MOL0     C52961   5.367  11.129   0.248 -1.0297 -0.0547 -0.4402
  393MOL0     C52962   5.217  11.106   0.292 -0.3057  0.7572 -0.1600
  393MOL0     C52963   5.128  11.190   0.200  0.1124  0.5035 -0.1249
  393MOL0     C52964   5.116  11.157   0.058 -0.4874 -0.1457 -0.1216
  393MOL0    Cl52965   5.102  10.980   0.028  0.1202  0.2060 -0.0113
  393MOL0     C52966   6.112  10.767   0.244 -0.3994 -0.7378 -0.6327
  393MOL0     C52967   6.219  10.704   0.183  0.4909  0.2281  0.1012
  393MOL0     O52968   6.301  10.410   0.040  0.4083  0.2508 -0.3080
  393MOL0     C52969   6.529  10.302  -0.054  0.2895 -0.5069  0.1683
  393MOL0     C52970   6.637  10.242  -0.121  0.3699 -0.5062 -0.2097
  393MOL0     N52971   7.288   9.968  -0.135  0.7078  0.2355  0.2017
  393MOL0     N52972   7.406   9.930  -0.144  0.1429 -0.0109  0.4742
  393MOL0     C52973   8.297  10.431   0.171  0.4142 -0.5924  0.0726
  393MOL0     C52974   8.360  10.541   0.225  0.1900  0.4896 -0.1801
  393MOL0     C52975   8.493  10.935   0.358 -0.3005 -1.0250  0.7345
  393MOL0     C52976   8.408  11.031   0.423 -0.5003 -0.0721  0.3476
  393MOL0     C52977   8.461  11.135   0.501 -0.2048 -0.1796  0.1990
  393MOL0     C52978   8.602  11.138   0.527 -0.2172 -0.8833  0.2915
  393MOL0     O52979   8.671  11.234   0.598  0.6208  0.1598  0.0416
  393MOL0     C52980   8.591  11.328   0.672 -0.1725  0.2656 -0.6240
  393MOL0     C52981   8.506  11.269   0.794 -0.2453  0.3107  0.6390
  393MOL0     C52982   8.471  11.370   0.905 -0.7767  0.0161 -0.4960
  393MOL0     C52983   8.377  11.304   1.008 -0.3368  0.4895 -0.3772
  393MOL0     C52984   8.415  11.165   1.030 -0.7183  0.4609 -0.3153
  393MOL0     C52985   8.439  11.050   1.050 -0.3336 -0.1746  0.2915
  393MOL0     C52986   8.685  11.038   0.473  0.3416 -1.0710  0.1836
  393MOL0     C52987   8.631  10.956   0.378  0.5996 -0.5563  0.2607
  393MOL0     H52988   8.566  10.623  -0.021  2.6771 -1.9177  3.5565
  393MOL0     H52989   8.435  10.458  -0.140 -0.3579  1.5683 -0.4484
  393MOL0     H52990   8.228  10.185   0.137  0.1906  2.3704  2.4828
  393MOL0     H52991   8.082  10.278   0.092  0.3246 -3.3422  1.9295
  393MOL0     H52992   8.200  10.050  -0.059  0.9277  1.6790  0.1813
  393MOL0     H52993   8.071  10.033   0.058 -0.2779  0.6953  0.8877
  393MOL0     H52994   7.948  10.213  -0.109 -0.3894 -1.4543 -0.0539
  393MOL0     H52995   8.082  10.181  -0.217 -1.1020  1.2225  0.0704
  393MOL0     H52996   8.038   9.926  -0.175 -1.3199 -0.5094 -0.1473
  393MOL0     H52997   7.902   9.974  -0.081  2.1676 -0.4642  1.4647
  393MOL0     H52998   7.938  10.045  -0.383 -2.0756  0.5363 -1.8092
  393MOL0     H52999   7.861   9.897  -0.328 -2.6816  0.1011  0.6529
  393MOL0     H53000   7.709  10.087  -0.191 -0.4874  1.8793 -0.6810
  393MOL0     H53001   7.764  10.186  -0.325 -2.5467  0.5079  0.1437
  393MOL0     H53002   7.576  10.101  -0.419 -1.4032 -1.5247 -0.3428
  393MOL0     H53003   7.693  10.004  -0.492 -2.3992  0.9715 -1.5191
  393MOL0     H53004   7.621   9.830  -0.298  1.6710  2.0720  1.7405
  393MOL0     H53005   7.521   9.864  -0.441 -2.1392  0.5522 -0.2166
  393MOL0     H53006   7.351  10.056  -0.435  1.8341 -0.5057  0.1219
  393MOL0     H53007   7.083  10.147  -0.186 -1.4805 -1.9956  0.2292
  393MOL0     H53008   7.168  10.226  -0.329 -0.6919 -0.8925  0.3166
  393MOL0     H53009   6.971  10.027  -0.325  2.9710 -0.3658  1.8091
  393MOL0     H53010   7.084  10.033  -0.467 -0.8523 -1.7673 -0.3634
  393MOL0     H53011   6.892  10.158  -0.530  0.7030  1.4017 -0.9167
  393MOL0     H53012   7.040  10.259  -0.511  0.3072 -0.5503 -1.3425
  393MOL0     H53013   6.821  10.358  -0.456 -1.3446  0.0356  0.4338
  393MOL0     H53014   6.955  10.364  -0.330  2.1961 -1.4099 -2.7750
  393MOL0     H53015   6.703  10.501  -0.322  0.4559 -1.4140 -0.5938
  393MOL0     H53016   6.544  10.733  -0.149  0.9272  1.5193 -1.9569
  393MOL0     H53017   6.603  10.682  -0.296  1.8617  2.6173  2.2951
  393MOL0     H53018   6.425  10.652  -0.256  1.1012 -1.3453 -2.5814
  393MOL0     H53019   6.067  10.677  -0.125 -2.3165 -2.5377  0.2380
  393MOL0     H53020   5.880  10.742   0.015 -0.1329  0.5310  0.8652
  393MOL0     H53021   5.880  11.008   0.233  0.3403  0.2479  0.5710
  393MOL0     H53022   5.766  10.916   0.125  1.0985  0.1395 -0.2368
  393MOL0     H53023   5.624  10.845   0.304 -0.2882  0.5270 -0.0325
  393MOL0     H53024   5.736  10.936   0.425  0.6238  0.7341  0.0604
  393MOL0     H53025   5.609  11.050   0.178  2.7377  0.6067  0.2713
  393MOL0     H53026   5.651  11.141   0.322 -1.6626 -0.0998  0.8269
  393MOL0     H53027   5.429  10.937   0.346 -1.1442 -0.5193 -3.8964
  393MOL0     H53028   5.454  11.094   0.434 -1.2761  1.2175 -0.2116
  393MOL0     H53029   5.382  11.098   0.145  1.1801 -2.3108  0.4655
  393MOL0     H53030   5.402  11.232   0.262 -0.2285 -0.3256 -0.4248
  393MOL0     H53031   5.186  11.002   0.302  0.5142  0.6372  1.7613
  393MOL0     H53032   5.214  11.154   0.391  1.9049  0.2689  0.2031
  393MOL0     H53033   5.155  11.294   0.219  3.0435 -0.0984 -0.5033
  393MOL0     H53034   5.027  11.180   0.241  0.3405 -1.7070  0.0118
  393MOL0     H53035   5.205  11.192   0.005  1.3106 -1.9861  1.5148
  393MOL0     H53036   5.032  11.207   0.008  0.8320 -0.5125 -2.9151
  393MOL0     H53037   6.123  10.802   0.346 -0.0991  0.9792 -1.2294
  393MOL0     H53038   6.307  10.703   0.246  2.3877 -1.0722 -2.3826
  393MOL0     H53039   6.467  10.242   0.013 -1.0731  0.9947  0.3323
  393MOL0     H53040   6.649  10.140  -0.084  0.1222 -1.1413 -1.8006
  393MOL0     H53041   8.229  10.367   0.225 -0.2571 -0.2609 -0.3711
  393MOL0     H53042   8.331  10.555   0.329  0.4030  0.7779 -0.1587
  393MOL0     H53043   8.301  11.022   0.414 -0.9590  2.2912  2.4230
  393MOL0     H53044   8.401  11.216   0.542  2.7948  2.5896 -0.4302
  393MOL0     H53045   8.658  11.400   0.720 -0.9514 -0.9323  2.5556
  393MOL0     H53046   8.520  11.374   0.603 -1.6835 -0.5946  0.2976
  393MOL0     H53047   8.556  11.180   0.834 -3.5547 -1.1813  1.7874
  393MOL0     H53048   8.410  11.235   0.757 -0.2559 -0.4163  1.3232
  393MOL0     H53049   8.415  11.456   0.865 -1.1377  0.0965  0.1752
  393MOL0     H53050   8.567  11.400   0.948 -0.1608 -2.5218  0.0472
  393MOL0     H53051   8.271  11.308   0.981 -1.5599 -2.0156  3.3131
  393MOL0     H53052   8.388  11.358   1.102 -1.3175 -1.2504  0.7848
  393MOL0     H53053   8.474  10.949   1.053 -0.7327 -0.3217  0.0998
  393MOL0     H53054   8.792  11.045   0.489  0.5030 -1.9586 -0.4105
  393MOL0     H53055   8.693  10.892   0.316 -1.3858 -0.8722 -1.4961
  394MOL0     O53056   7.281  10.905   0.266  0.2379  0.0213  0.4755
  394MOL0     C53057   7.242  11.003   0.192 -0.3954 -0.4850  0.0212
  394MOL0     O53058   7.187  11.115   0.248  0.0248  0.3642 -0.3186
  394MOL0     C53059   7.090  11.118   0.346  0.3488  0.2027  0.1211
  394MOL0     C53060   7.053  11.245   0.389  0.9058  0.9868 -0.8488
  394MOL0     C53061   6.956  11.259   0.481 -0.2924 -0.5088 -0.7776
  394MOL0     C53062   6.874  11.153   0.525 -0.8621 -0.2613 -0.9339
  394MOL0     O53063   6.761  11.175   0.610  0.8486  0.1881  0.5190
  394MOL0     C53064   6.780  11.256   0.728  0.1637 -0.1424  0.1377
  394MOL0     C53065   6.695  11.189   0.842  0.7230  0.1603  1.3181
  394MOL0     C53066   6.758  11.056   0.891  0.8626 -0.5624 -0.4998
  394MOL0     C53067   6.672  10.970   0.985 -0.6093  0.7524  0.6906
  394MOL0     C53068   6.623  11.054   1.098 -0.0407  0.8537  0.1144
  394MOL0     C53069   6.723  11.125   1.186 -0.1816 -0.5230  0.7304
  394MOL0     C53070   6.661  11.184   1.309  0.2283 -0.8229 -0.6290
  394MOL0     C53071   6.769  11.223   1.410 -0.9946  0.0409  0.4922
  394MOL0     N53072   6.713  11.308   1.519  0.0306 -0.7807 -0.9418
  394MOL0     C53073   6.626  11.411   1.497 -0.7695 -0.6454  0.5753
  394MOL0     C53074   6.617  11.471   1.625 -0.1992 -0.1005  0.4482
  394MOL0     C53075   6.524  11.574   1.657  0.4635 -0.4559  0.0487
  394MOL0     C53076   6.383  11.524   1.683  0.1805 -0.3272  0.4923
  394MOL0     C53077   6.281  11.645   1.674  0.0505  0.3941 -0.2141
  394MOL0     C53078   6.330  11.781   1.723 -0.6505 -0.0396 -0.6069
  394MOL0     O53079   6.224  11.876   1.738 -0.3893  0.0027 -0.2703
  394MOL0     C53080   6.146  11.870   1.849  0.9787 -0.6788 -0.0781
  394MOL0     C53081   6.015  11.910   1.829 -0.4829 -0.5480  0.1353
  394MOL0     C53082   5.914  11.927   1.929  0.4431 -0.3578 -0.2257
  394MOL0     C53083   5.771  11.981   1.894 -0.1045  0.1322  0.0797
  394MOL0     C53084   5.954  11.887   2.063  0.6768  0.0456 -0.1934
  394MOL0     C53085   5.849  11.899   2.170  0.0679 -0.4768 -0.2282
  394MOL0     O53086   5.801  11.797   2.247  0.2612  0.2270 -0.3715
  394MOL0     C53087   5.811  11.664   2.198  0.4797  0.3950 -0.5074
  394MOL0     C53088   5.777  11.627   2.068  0.0250  1.2443  0.0062
  394MOL0     C53089   5.816  11.502   2.029 -0.5592  0.1007  0.7439
  394MOL0     C53090   5.880  11.407   2.110  0.2724  0.9551  0.2645
  394MOL0     O53091   5.902  11.270   2.078 -0.1789  0.1099 -0.0924
  394MOL0     C53092   5.850  11.210   1.954  0.5344 -0.4276 -0.5772
  394MOL0     C53093   5.948  11.231   1.841  0.0289 -0.1883 -0.6245
  394MOL0     C53094   5.939  11.131   1.728  0.0895 -0.0174 -0.2658
  394MOL0     C53095   5.942  10.977   1.769  0.5908 -0.1745 -0.2371
  394MOL0     C53096   6.001  10.876   1.667  1.0857 -0.5332 -0.1388
  394MOL0     C53097   5.901  10.839   1.549  0.1948 -0.8100 -0.4516
  394MOL0     C53098   5.966  10.748   1.440  0.7177  0.3824  0.0289
  394MOL0     C53099   5.863  10.696   1.344 -0.3211  0.3952 -0.6685
  394MOL0    Cl53100   5.814  10.829   1.234 -0.0322  0.1650 -0.3396
  394MOL0     C53101   5.901  11.443   2.247 -0.3061 -1.0212  0.1904
  394MOL0     C53102   5.863  11.570   2.289  0.9935 -0.1448  0.9993
  394MOL0     O53103   5.838  12.016   2.202 -0.1994 -0.4337  0.8072
  394MOL0     C53104   6.088  11.851   2.087  0.4655  0.2125 -0.6139
  394MOL0     C53105   6.188  11.847   1.986  0.3284  0.7073  0.9641
  394MOL0     N53106   6.685  11.396   1.711 -0.1275 -0.8195  0.0189
  394MOL0     N53107   6.742  11.301   1.644 -0.0715  0.4037 -0.7952
  394MOL0     C53108   6.905  11.028   0.473  1.2968 -0.2643 -0.3191
  394MOL0     C53109   7.017  11.005   0.394  0.1693 -0.2557  0.7764
  394MOL0     C53110   7.231  10.990   0.045  0.6710 -0.0621  0.9234
  394MOL0     C53111   7.285  10.880  -0.018  0.1859  0.5061 -0.4979
  394MOL0     C53112   7.295  10.865  -0.157  0.0354 -0.5099 -0.0993
  394MOL0     C53113   7.238  10.970  -0.237 -1.2466  0.2197 -0.5700
  394MOL0     O53114   7.260  10.948  -0.370  0.5363 -0.0344  0.3754
  394MOL0     C53115   7.232  11.062  -0.451 -0.1106 -0.0448  0.2469
  394MOL0     C53116   7.242  11.031  -0.599  0.7229  0.4327 -0.2193
  394MOL0     C53117   7.362  10.946  -0.638 -0.0263 -0.6377 -0.2653
  394MOL0     C53118   7.373  10.951  -0.793 -0.2325  0.6809 -0.9108
  394MOL0     C53119   7.269  10.870  -0.852  0.2556  0.4334 -0.1603
  394MOL0     C53120   7.195  10.779  -0.885  0.0863  0.9033  0.8282
  394MOL0     C53121   7.176  11.076  -0.173  0.8787 -0.2635 -0.4618
  394MOL0     C53122   7.166  11.090  -0.031 -0.6543  0.0413 -0.4042
  394MOL0     H53123   7.103  11.334   0.353  1.0773  0.6997 -1.3261
  394MOL0     H53124   6.940  11.359   0.522 -0.0165  0.0620 -2.0206
  394MOL0     H53125   6.885  11.264   0.755 -0.1047 -1.1823  1.5949
  394MOL0     H53126   6.733  11.354   0.716  1.6333  0.5289 -0.2384
  394MOL0     H53127   6.690  11.263   0.923 -1.9243  0.1387  1.2784
  394MOL0     H53128   6.596  11.166   0.802  0.9460 -0.9749  1.3864
  394MOL0     H53129   6.788  10.998   0.804  1.0231  1.0801 -1.5933
  394MOL0     H53130   6.854  11.076   0.940  1.3711 -2.4470 -0.6500
  394MOL0     H53131   6.597  10.913   0.930  0.7232  0.2110 -0.6374
  394MOL0     H53132   6.736  10.891   1.026 -0.4790  0.1231 -0.6562
  394MOL0     H53133   6.549  11.129   1.069 -1.1009  0.3306  1.3762
  394MOL0     H53134   6.567  10.981   1.158  1.5424  1.1012  1.9838
  394MOL0     H53135   6.802  11.056   1.216  0.3176  0.3254  1.4129
  394MOL0     H53136   6.768  11.213   1.140 -4.5544  0.7357 -1.7527
  394MOL0     H53137   6.594  11.268   1.289  2.3790  0.9095 -0.9232
  394MOL0     H53138   6.607  11.103   1.360  1.8556 -0.9267  1.0325
  394MOL0     H53139   6.857  11.269   1.364 -0.1099 -1.1387  0.9686
  394MOL0     H53140   6.807  11.126   1.444 -2.7222 -0.9517 -0.2786
  394MOL0     H53141   6.574  11.447   1.408 -1.2890 -3.8386 -0.5313
  394MOL0     H53142   6.571  11.614   1.747  2.5543 -2.4982 -0.0453
  394MOL0     H53143   6.525  11.646   1.575  1.6735  0.5382  0.8918
  394MOL0     H53144   6.379  11.488   1.786 -0.5116  1.2147  1.0309
  394MOL0     H53145   6.358  11.435   1.624  3.3954 -0.3212 -1.0649
  394MOL0     H53146   6.191  11.614   1.726  0.7404 -1.4217 -0.0069
  394MOL0     H53147   6.263  11.653   1.566  2.9174 -1.5845 -0.9809
  394MOL0     H53148   6.408  11.812   1.653  1.3501 -1.7476  0.7564
  394MOL0     H53149   6.372  11.758   1.821  0.4776  1.7295 -0.6232
  394MOL0     H53150   5.998  11.950   1.730  1.6879 -0.7182 -0.3350
  394MOL0     H53151   5.707  11.956   1.979  0.3436 -1.1580  0.0626
  394MOL0     H53152   5.773  12.090   1.884  0.1287  0.4373  2.6895
  394MOL0     H53153   5.732  11.936   1.802  0.0261 -0.2048  0.1867
  394MOL0     H53154   5.729  11.690   1.994  0.1330  1.6014  0.2364
  394MOL0     H53155   5.790  11.481   1.926 -1.2292  0.9054  0.7345
  394MOL0     H53156   5.842  11.103   1.975  0.5226 -0.8274 -2.4459
  394MOL0     H53157   5.752  11.250   1.928  1.0752 -1.1441 -4.2118
  394MOL0     H53158   5.943  11.337   1.812 -2.6273 -0.1633 -0.2715
  394MOL0     H53159   6.044  11.214   1.890 -1.0865  0.3856  1.9156
  394MOL0     H53160   6.024  11.155   1.664  0.5436 -0.5019  0.1472
  394MOL0     H53161   5.859  11.156   1.657 -0.8312  2.3758  1.4839
  394MOL0     H53162   5.999  10.974   1.862  1.2015 -0.6080 -0.6115
  394MOL0     H53163   5.839  10.947   1.788 -0.2982  2.8293  0.0857
  394MOL0     H53164   6.044  10.785   1.707  1.0065 -0.3735  0.3078
  394MOL0     H53165   6.086  10.925   1.620  2.3806 -2.2712  0.3040
  394MOL0     H53166   5.822  10.783   1.601  1.9771 -2.0852  0.9886
  394MOL0     H53167   5.861  10.926   1.497 -0.2440 -1.9049 -2.0249
  394MOL0     H53168   6.006  10.655   1.480 -0.1351 -1.0410 -2.2601
  394MOL0     H53169   6.048  10.809   1.400  0.4922  0.7795  0.1697
  394MOL0     H53170   5.776  10.657   1.399  1.2280  0.0006  1.6859
  394MOL0     H53171   5.900  10.611   1.286 -1.0315  0.9399 -1.9376
  394MOL0     H53172   5.945  11.374   2.318 -0.8382 -0.0899  1.4764
  394MOL0     H53173   5.889  11.600   2.390  1.5320 -0.8115  1.0653
  394MOL0     H53174   6.101  11.827   2.192 -0.8220  1.2356 -0.1821
  394MOL0     H53175   6.287  11.810   2.014 -0.0995 -0.5977  0.8234
  394MOL0     H53176   6.856  10.932   0.483  0.5434  0.1286 -0.2322
  394MOL0     H53177   7.036  10.909   0.347  3.6122  1.3522 -1.5832
  394MOL0     H53178   7.338  10.801   0.035 -1.4480 -0.4207 -0.1677
  394MOL0     H53179   7.343  10.777  -0.196 -0.9411 -1.3381  0.5092
  394MOL0     H53180   7.133  11.107  -0.445  0.1007  0.7120 -1.3277
  394MOL0     H53181   7.311  11.135  -0.434  0.7780 -0.9236  0.0042
  394MOL0     H53182   7.243  11.128  -0.650  1.5469 -1.5623 -4.4100
  394MOL0     H53183   7.152  10.983  -0.638  0.8523  1.0800 -1.3510
  394MOL0     H53184   7.342  10.843  -0.607 -0.0750 -0.1730  1.3247
  394MOL0     H53185   7.456  10.987  -0.599 -0.8068  0.4278  0.5301
  394MOL0     H53186   7.472  10.913  -0.821 -0.1548  1.8690 -2.4368
  394MOL0     H53187   7.380  11.055  -0.829  1.8688  0.8606 -0.1203
  394MOL0     H53188   7.122  10.706  -0.913  1.6945 -1.6151  2.7948
  394MOL0     H53189   7.128  11.145  -0.241 -1.5224 -2.6463 -1.3282
  394MOL0     H53190   7.106  11.168   0.014  1.4502  0.4527  1.9093
  395MOL0     O53191   9.347   1.066   1.633 -0.0712  0.1112  0.4410
  395MOL0     C53192   9.419   1.005   1.553  0.1231 -0.1618  0.0527
  395MOL0     O53193   9.378   0.957   1.428 -1.0636 -0.4714 -0.9851
  395MOL0     C53194   9.262   0.990   1.378  0.1027  0.1433  0.1037
  395MOL0     C53195   9.208   0.889   1.299 -0.0838 -0.5086 -0.4959
  395MOL0     C53196   9.099   0.916   1.211 -0.2555 -0.0669 -0.6659
  395MOL0     C53197   9.028   1.036   1.217  0.1582 -0.6149  0.2763
  395MOL0     O53198   8.916   1.058   1.134 -0.2504 -0.5089  0.1603
  395MOL0     C53199   8.814   1.139   1.196 -0.6178 -0.5575  0.1953
  395MOL0     C53200   8.677   1.093   1.158 -0.0971  0.7512 -0.0869
  395MOL0     C53201   8.648   1.138   1.012 -0.0835  0.1080 -0.8942
  395MOL0     C53202   8.506   1.099   0.988 -0.2070  1.1413  0.2010
  395MOL0     C53203   8.477   1.126   0.837 -0.2322 -0.1966  0.0557
  395MOL0     C53204   8.355   1.033   0.794 -0.9295  0.0278 -0.0103
  395MOL0     C53205   8.308   1.040   0.647 -0.8664  0.1057  0.0874
  395MOL0     C53206   8.171   0.979   0.643 -0.2533  0.5671 -0.4643
  395MOL0     N53207   8.119   0.983   0.507 -0.1734  0.3106 -0.0132
  395MOL0     C53208   8.087   0.881   0.414  0.0553  0.1654  0.2215
  395MOL0     C53209   8.030   0.939   0.303 -0.4472  0.2043 -0.6309
  395MOL0     C53210   7.981   0.867   0.185  0.6704 -0.7546 -0.0371
  395MOL0     C53211   7.966   0.945   0.051  0.1097 -0.7453 -0.3126
  395MOL0     C53212   7.961   0.857  -0.072 -0.1921 -0.7270 -0.2765
  395MOL0     C53213   8.098   0.790  -0.097  0.8463  0.1986 -0.0469
  395MOL0     O53214   8.108   0.732  -0.227  0.3520  0.4493  0.1786
  395MOL0     C53215   8.231   0.689  -0.279 -0.3485 -0.2716 -1.0978
  395MOL0     C53216   8.242   0.670  -0.412  0.1833  0.9482 -0.1565
  395MOL0     C53217   8.350   0.620  -0.477 -0.7413 -0.3727 -0.7554
  395MOL0     C53218   8.352   0.611  -0.629 -0.8160  0.2313  0.0355
  395MOL0     C53219   8.461   0.586  -0.398 -0.6880  0.2574  0.0481
  395MOL0     C53220   8.596   0.543  -0.455 -0.4730  0.2763  0.0509
  395MOL0     O53221   8.612   0.425  -0.527  0.2651  0.4532  0.2276
  395MOL0     C53222   8.744   0.399  -0.552 -0.7525 -1.1295 -0.2757
  395MOL0     C53223   8.798   0.398  -0.682  0.1761  0.2572  0.1102
  395MOL0     C53224   8.934   0.372  -0.703 -0.7635 -0.2449  0.3873
  395MOL0     C53225   9.014   0.328  -0.600  0.0120 -0.3127 -0.2005
  395MOL0     O53226   9.148   0.299  -0.605 -0.2680 -0.1658  0.2032
  395MOL0     C53227   9.236   0.398  -0.655  0.0048 -0.7415  0.0645
  395MOL0     C53228   9.366   0.362  -0.596 -0.5144  0.3405  0.3145
  395MOL0     C53229   9.468   0.482  -0.612  0.5557 -0.3004 -0.9848
  395MOL0     C53230   9.609   0.445  -0.582  0.0041 -0.0649  0.4367
  395MOL0     C53231   9.669   0.537  -0.473 -0.7050  0.0082  0.2251
  395MOL0     C53232   9.819   0.488  -0.460 -0.0543 -0.6314  0.4408
  395MOL0     C53233   9.899   0.563  -0.357  0.0226  0.2496  0.0851
  395MOL0     C53234  10.047   0.533  -0.348 -0.2999 -0.7529 -0.0597
  395MOL0    Cl53235  10.083   0.367  -0.366  0.3591 -0.2213 -0.0976
  395MOL0     C53236   8.960   0.322  -0.472  0.0749  0.2304 -1.0592
  395MOL0     C53237   8.829   0.360  -0.442  0.8491 -0.0302  0.2472
  395MOL0     O53238   8.692   0.616  -0.412  0.5915  0.4041  0.5340
  395MOL0     C53239   8.452   0.598  -0.255  0.8367  0.3510  0.7451
  395MOL0     C53240   8.343   0.664  -0.199  0.2774 -0.1362 -0.2189
  395MOL0     N53241   8.025   1.074   0.329  0.0585  0.1076 -0.2384
  395MOL0     N53242   8.072   1.095   0.446 -0.2667  0.4041 -0.2379
  395MOL0     C53243   9.070   1.134   1.314 -0.3473  0.6647  0.6210
  395MOL0     C53244   9.190   1.108   1.391 -0.0759  0.0864  0.7601
  395MOL0     C53245   9.564   0.982   1.569 -0.0875  0.0863 -0.5291
  395MOL0     C53246   9.631   1.050   1.667 -0.5340  0.0914 -0.3100
  395MOL0     C53247   9.770   1.040   1.682 -0.2456 -0.3390  0.1647
  395MOL0     C53248   9.846   0.950   1.612 -0.0206  0.0479 -0.6186
  395MOL0     O53249   9.979   0.937   1.654  0.2235 -0.5919 -0.4794
  395MOL0     C53250  10.083   0.872   1.561  0.4667 -0.2497 -0.1364
  395MOL0     C53251  10.222   0.906   1.609  0.5957  0.1403 -0.0948
  395MOL0     C53252  10.246   1.060   1.647  0.6736 -0.2868  1.1490
  395MOL0     C53253  10.383   1.099   1.701  0.4864  0.7080  1.0131
  395MOL0     C53254  10.390   1.243   1.728  1.0905 -0.0618 -0.7479
  395MOL0     C53255  10.378   1.356   1.768 -0.1533 -0.2354  0.1663
  395MOL0     C53256   9.782   0.870   1.515  0.5606 -0.1371  0.4453
  395MOL0     C53257   9.641   0.892   1.488  0.4101  0.1749 -0.4456
  395MOL0     H53258   9.271   0.802   1.288  0.9474 -0.2737  2.6292
  395MOL0     H53259   9.061   0.835   1.150 -2.1153 -0.4938  0.9418
  395MOL0     H53260   8.812   1.144   1.305 -1.6040  1.7509  0.1255
  395MOL0     H53261   8.825   1.245   1.172 -0.5224 -0.4711  0.6128
  395MOL0     H53262   8.666   0.985   1.146 -1.8594  1.0359 -1.4470
  395MOL0     H53263   8.606   1.130   1.232 -0.4159  0.0853 -0.0506
  395MOL0     H53264   8.657   1.247   1.002 -1.3345  0.1302 -2.0694
  395MOL0     H53265   8.718   1.081   0.950 -0.0097 -1.7760  0.8260
  395MOL0     H53266   8.498   0.991   1.002 -0.8030  1.1774  0.1770
  395MOL0     H53267   8.434   1.134   1.063 -0.2388  0.5200  0.4686
  395MOL0     H53268   8.460   1.232   0.814  3.3227  0.2088 -1.4046
  395MOL0     H53269   8.565   1.088   0.784 -0.4809  0.1170 -0.6013
  395MOL0     H53270   8.396   0.935   0.821 -0.1437  0.9533  2.4638
  395MOL0     H53271   8.269   1.051   0.859 -1.1557 -0.4697 -0.1679
  395MOL0     H53272   8.296   1.142   0.610 -5.1279 -0.7726 -1.5424
  395MOL0     H53273   8.383   0.990   0.585 -0.5438  1.5402 -0.7121
  395MOL0     H53274   8.105   1.030   0.713 -0.9772 -3.0547  1.7579
  395MOL0     H53275   8.169   0.874   0.676 -0.2052  0.1466 -1.7608
  395MOL0     H53276   8.115   0.777   0.425  2.2776  0.7278  0.2405
  395MOL0     H53277   8.052   0.785   0.176  0.9408 -0.5624  0.2949
  395MOL0     H53278   7.887   0.817   0.212  0.6358 -0.5231  0.2775
  395MOL0     H53279   8.043   1.023   0.044 -0.8779  0.3590  0.7500
  395MOL0     H53280   7.870   0.996   0.057  0.1296 -0.3001 -2.7301
  395MOL0     H53281   7.936   0.919  -0.159 -1.0866 -1.4941 -0.5869
  395MOL0     H53282   7.882   0.781  -0.065 -2.0073  1.0833 -0.1537
  395MOL0     H53283   8.121   0.710  -0.027 -1.0580  0.6975  1.2083
  395MOL0     H53284   8.174   0.867  -0.083  0.6545  0.3801  0.0035
  395MOL0     H53285   8.156   0.710  -0.465 -0.3466  0.9573  0.6985
  395MOL0     H53286   8.432   0.542  -0.657  0.7664  0.2510  3.8931
  395MOL0     H53287   8.261   0.573  -0.677 -0.5624  0.4351 -0.6162
  395MOL0     H53288   8.370   0.712  -0.667  1.1146  1.0773  2.8741
  395MOL0     H53289   8.725   0.417  -0.760 -0.5694  2.3256  1.2246
  395MOL0     H53290   8.983   0.373  -0.800 -0.5854  1.1833  0.4701
  395MOL0     H53291   9.230   0.403  -0.764  2.4083  0.3575 -0.0778
  395MOL0     H53292   9.204   0.492  -0.610  0.4774 -0.3709 -0.3569
  395MOL0     H53293   9.359   0.332  -0.491  2.6023 -1.3410  0.1398
  395MOL0     H53294   9.393   0.281  -0.664 -2.3937  1.2774 -1.6439
  395MOL0     H53295   9.424   0.549  -0.538  0.2974 -0.2169 -1.2128
  395MOL0     H53296   9.456   0.528  -0.710  1.9189 -0.9507 -1.4751
  395MOL0     H53297   9.631   0.341  -0.555  1.3022  0.0542 -0.0756
  395MOL0     H53298   9.658   0.454  -0.679 -1.1852  0.0237 -0.1722
  395MOL0     H53299   9.612   0.533  -0.380 -2.0466  4.3197 -0.2096
  395MOL0     H53300   9.674   0.642  -0.501  0.6901  0.2745  1.3862
  395MOL0     H53301   9.821   0.383  -0.431  0.1497 -0.3231  1.5917
  395MOL0     H53302   9.868   0.503  -0.557 -1.2485  0.8810  0.0309
  395MOL0     H53303   9.859   0.552  -0.256  2.0414  0.3405  0.9487
  395MOL0     H53304   9.902   0.668  -0.388 -0.1649  0.3957  0.5526
  395MOL0     H53305  10.083   0.575  -0.254 -0.4184 -0.5496 -0.1064
  395MOL0     H53306  10.101   0.584  -0.428 -0.1563  0.0942  0.5719
  395MOL0     H53307   9.022   0.280  -0.393  0.0893  0.7457 -0.7942
  395MOL0     H53308   8.781   0.359  -0.345 -4.2733  6.2795 -1.4802
  395MOL0     H53309   8.533   0.574  -0.187  2.7173 -2.0972 -2.1246
  395MOL0     H53310   8.341   0.689  -0.093  0.6689  2.3547 -0.7328
  395MOL0     H53311   9.032   1.235   1.325  0.4967  1.1592 -0.7685
  395MOL0     H53312   9.232   1.179   1.462 -0.4082 -1.7118  2.8555
  395MOL0     H53313   9.582   1.123   1.730 -0.8084  0.3028 -0.7562
  395MOL0     H53314   9.829   1.090   1.759 -1.3099 -1.1560  1.5596
  395MOL0     H53315  10.063   0.764   1.561 -1.5219  0.0638  1.1225
  395MOL0     H53316  10.067   0.923   1.466 -0.1075  1.1266  0.6822
  395MOL0     H53317  10.291   0.867   1.534  1.1360 -0.5513  0.7292
  395MOL0     H53318  10.227   0.846   1.701  0.8367 -0.7993 -0.7127
  395MOL0     H53319  10.178   1.072   1.732  0.0224 -6.0435  1.7987
  395MOL0     H53320  10.215   1.121   1.561 -0.3977 -3.2883 -0.7523
  395MOL0     H53321  10.454   1.062   1.627 -2.2697 -0.7196 -1.1113
  395MOL0     H53322  10.416   1.054   1.795  1.2202  3.1079  1.9881
  395MOL0     H53323  10.378   1.459   1.797  1.0004 -0.5020  1.1674
  395MOL0     H53324   9.835   0.793   1.461  0.9637  0.5459 -0.1375
  395MOL0     H53325   9.585   0.833   1.416 -3.1347 -0.2890  2.4195
  396MOL0     O53326   9.752   2.165   0.162 -0.7446  0.2961  0.2049
  396MOL0     C53327   9.761   2.045   0.185  1.1095  0.1545 -0.0590
  396MOL0     O53328   9.662   1.950   0.162 -0.8750 -0.1500 -0.6529
  396MOL0     C53329   9.550   1.978   0.080 -0.1965  0.4264 -0.1054
  396MOL0     C53330   9.545   2.076  -0.024 -0.3020  0.3694  0.7380
  396MOL0     C53331   9.429   2.101  -0.099  0.4838  0.0293  0.0399
  396MOL0     C53332   9.316   2.020  -0.076 -0.4045 -0.3190 -0.3534
  396MOL0     O53333   9.191   2.043  -0.129  0.9256 -0.7611 -0.3014
  396MOL0     C53334   9.183   2.141  -0.229 -0.4135 -0.4354 -0.3091
  396MOL0     C53335   9.043   2.138  -0.297  0.2339  0.7147 -0.0789
  396MOL0     C53336   8.925   2.191  -0.211  0.7009  0.0680 -0.8126
  396MOL0     C53337   8.788   2.157  -0.274  0.1190 -0.1097 -0.4624
  396MOL0     C53338   8.656   2.161  -0.192 -0.1305  0.1237  0.0365
  396MOL0     C53339   8.630   2.299  -0.126  0.7476  1.1298 -0.4509
  396MOL0     C53340   8.483   2.320  -0.074  0.0137  0.2598 -0.3544
  396MOL0     C53341   8.378   2.298  -0.174  0.5559  0.3070 -0.5538
  396MOL0     N53342   8.300   2.174  -0.165  0.1898  0.9539  0.6651
  396MOL0     C53343   8.302   2.064  -0.244 -0.0403  0.0623 -0.7310
  396MOL0     C53344   8.190   1.992  -0.209  0.2331  0.9728 -0.2244
  396MOL0     C53345   8.123   1.879  -0.286 -0.1617 -0.1681  0.8981
  396MOL0     C53346   8.122   1.742  -0.210  0.1382  0.1163  0.4429
  396MOL0     C53347   8.021   1.647  -0.272 -0.0557 -0.4565  0.4450
  396MOL0     C53348   7.882   1.684  -0.237 -0.0193  0.7010 -0.0394
  396MOL0     O53349   7.793   1.579  -0.283  0.6488  0.1615 -0.1628
  396MOL0     C53350   7.663   1.561  -0.231 -0.5549  0.4146 -0.8062
  396MOL0     C53351   7.601   1.628  -0.126  0.2003  0.4239 -0.4812
  396MOL0     C53352   7.468   1.618  -0.085  0.1099 -0.4906  0.9796
  396MOL0     C53353   7.429   1.710   0.028 -0.6126  0.5866 -0.6947
  396MOL0     C53354   7.380   1.536  -0.158  0.3674 -0.4265 -0.1704
  396MOL0     C53355   7.229   1.534  -0.132 -0.8983  0.7043  0.3756
  396MOL0     O53356   7.164   1.618  -0.045 -0.6841 -0.4610 -0.3115
  396MOL0     C53357   7.038   1.588   0.005 -0.4151  1.1763  0.3114
  396MOL0     C53358   7.028   1.464   0.066  0.6283 -0.5308  0.4682
  396MOL0     C53359   6.907   1.421   0.128 -1.1470  0.1148  0.6551
  396MOL0     C53360   6.796   1.503   0.118 -0.2235 -0.5597 -0.4288
  396MOL0     O53361   6.678   1.452   0.161  0.1424 -0.6920  0.4264
  396MOL0     C53362   6.546   1.509   0.121 -0.3635 -0.4878 -0.5366
  396MOL0     C53363   6.427   1.476   0.204  0.9244 -0.0446  0.3901
  396MOL0     C53364   6.398   1.327   0.204 -0.2300  0.2210  0.1798
  396MOL0     C53365   6.286   1.289   0.295 -0.1965 -1.2268 -1.1635
  396MOL0     C53366   6.148   1.321   0.237  0.3210  0.0787 -0.0086
  396MOL0     C53367   6.025   1.284   0.331  0.6062  0.5692  0.6837
  396MOL0     C53368   6.037   1.369   0.461  0.0476 -0.4933 -0.9517
  396MOL0     C53369   5.931   1.357   0.564 -0.3599  0.1751 -0.7549
  396MOL0    Cl53370   5.774   1.421   0.514 -0.3111  0.2731 -0.6204
  396MOL0     C53371   6.809   1.631   0.050  0.7044  1.0575 -0.6015
  396MOL0     C53372   6.930   1.671  -0.002  0.7135  0.4867 -0.3870
  396MOL0     O53373   7.176   1.443  -0.192  0.3230 -0.6237  0.3356
  396MOL0     C53374   7.439   1.468  -0.265  0.3405  0.5256  0.2739
  396MOL0     C53375   7.579   1.477  -0.299  0.2156 -1.2940 -0.2166
  396MOL0     N53376   8.124   2.054  -0.111  1.0035  0.5154  1.0613
  396MOL0     N53377   8.195   2.157  -0.076 -0.2309  0.0158 -0.3162
  396MOL0     C53378   9.321   1.915   0.013  0.0889 -0.0633  0.4166
  396MOL0     C53379   9.446   1.891   0.088  0.3449 -0.4069 -0.1799
  396MOL0     C53380   9.900   1.993   0.207 -0.4825 -0.2630  0.1916
  396MOL0     C53381  10.014   2.069   0.226 -0.5048 -0.3265 -0.1068
  396MOL0     C53382  10.138   2.010   0.252 -0.3985  0.0700 -0.3471
  396MOL0     C53383  10.164   1.876   0.238  1.0949 -0.6625  0.0725
  396MOL0     O53384  10.288   1.821   0.271 -0.0069 -0.2701  0.6716
  396MOL0     C53385  10.320   1.681   0.244 -0.0670 -0.1473  0.8577
  396MOL0     C53386  10.459   1.660   0.302  0.1687 -0.8674 -0.3486
  396MOL0     C53387  10.460   1.634   0.456  0.3367  0.9606 -0.5168
  396MOL0     C53388  10.609   1.649   0.508 -0.0387  0.3019  0.3733
  396MOL0     C53389  10.690   1.529   0.469  0.1987  0.0128  0.6889
  396MOL0     C53390  10.753   1.433   0.444  0.0989 -0.4724  0.9165
  396MOL0     C53391  10.052   1.794   0.205 -0.5126  0.3920  0.6405
  396MOL0     C53392   9.927   1.856   0.196  0.0450  0.6239  0.5463
  396MOL0     H53393   9.626   2.147  -0.035 -0.9469  0.8964 -0.7619
  396MOL0     H53394   9.434   2.186  -0.166  1.6005 -1.1019 -1.3664
  396MOL0     H53395   9.187   2.239  -0.179 -0.0782 -0.5291 -0.1502
  396MOL0     H53396   9.263   2.130  -0.302  1.0136 -0.4963  1.2042
  396MOL0     H53397   9.054   2.202  -0.385 -2.1248 -0.5944 -1.4238
  396MOL0     H53398   9.020   2.043  -0.346  0.6031  1.4324 -1.7016
  396MOL0     H53399   8.932   2.139  -0.115  4.6368  2.6232  0.5652
  396MOL0     H53400   8.922   2.301  -0.205 -0.1420 -0.0478  1.6478
  396MOL0     H53401   8.777   2.224  -0.361  1.2677  1.5488  0.6044
  396MOL0     H53402   8.791   2.056  -0.314 -1.0643 -0.9241  1.4013
  396MOL0     H53403   8.573   2.136  -0.259  1.1240  0.1933 -1.6032
  396MOL0     H53404   8.676   2.079  -0.123  0.1569 -1.4159 -1.7987
  396MOL0     H53405   8.688   2.303  -0.033 -1.0417 -2.1227  0.9683
  396MOL0     H53406   8.655   2.378  -0.197 -0.1211  0.0828 -1.9827
  396MOL0     H53407   8.461   2.254   0.011 -2.2555  2.9624  1.3469
  396MOL0     H53408   8.465   2.425  -0.049  3.0255  0.5279  1.2187
  396MOL0     H53409   8.425   2.300  -0.273 -0.5458  0.5267 -1.0914
  396MOL0     H53410   8.302   2.376  -0.178 -0.7348 -0.9348 -1.1875
  396MOL0     H53411   8.368   2.038  -0.326  0.2074  0.4110 -0.6420
  396MOL0     H53412   8.022   1.917  -0.305 -0.4402 -0.4955  1.6992
  396MOL0     H53413   8.169   1.869  -0.385 -1.3491 -0.2578  0.3402
  396MOL0     H53414   8.088   1.753  -0.107 -1.9242 -0.0702 -0.1596
  396MOL0     H53415   8.229   1.721  -0.208  1.1325  4.2216  0.3989
  396MOL0     H53416   8.039   1.547  -0.233  0.9975 -0.0781  0.9735
  396MOL0     H53417   8.033   1.659  -0.380  2.7408 -1.8608  0.5059
  396MOL0     H53418   7.846   1.773  -0.288 -2.3895 -0.9203 -1.3853
  396MOL0     H53419   7.854   1.703  -0.134 -0.1759 -0.9930  0.2656
  396MOL0     H53420   7.659   1.705  -0.075 -1.1163  1.0042  0.1638
  396MOL0     H53421   7.366   1.791  -0.011  2.4468  2.0064 -3.1420
  396MOL0     H53422   7.377   1.660   0.111  3.6737 -1.9127  0.7909
  396MOL0     H53423   7.519   1.764   0.059  1.6039 -1.0197 -3.7161
  396MOL0     H53424   7.111   1.393   0.071  0.5543 -0.6723 -0.2437
  396MOL0     H53425   6.901   1.323   0.175  0.3406  0.0618  0.7927
  396MOL0     H53426   6.548   1.619   0.125 -1.0921 -0.4806 -0.2591
  396MOL0     H53427   6.536   1.477   0.017  2.5030 -0.5978 -0.8621
  396MOL0     H53428   6.455   1.503   0.306  4.9247 -3.5048  0.4904
  396MOL0     H53429   6.346   1.539   0.168  0.6328 -0.0409  1.0510
  396MOL0     H53430   6.477   1.265   0.249 -4.0922 -3.7565  2.3450
  396MOL0     H53431   6.368   1.279   0.110  0.1893 -0.9634  0.6289
  396MOL0     H53432   6.286   1.183   0.322  0.8653 -0.9603  0.0215
  396MOL0     H53433   6.297   1.337   0.393  0.3647 -2.0237 -0.8125
  396MOL0     H53434   6.131   1.259   0.149 -0.4099  0.2272  0.0169
  396MOL0     H53435   6.137   1.427   0.212  1.0657  0.8762  2.6941
  396MOL0     H53436   5.931   1.299   0.277 -0.2375 -2.4326  1.1450
  396MOL0     H53437   6.027   1.178   0.357  0.5766  0.8256  1.7517
  396MOL0     H53438   6.039   1.473   0.428 -2.3093  0.9926  2.9803
  396MOL0     H53439   6.133   1.366   0.512  0.0792  3.5140 -0.5067
  396MOL0     H53440   5.963   1.420   0.648  2.8801 -0.6275 -1.2402
  396MOL0     H53441   5.917   1.256   0.603  0.3393 -0.0908 -1.1651
  396MOL0     H53442   6.730   1.706   0.054 -1.7177 -1.3933  0.9383
  396MOL0     H53443   6.951   1.767  -0.048  0.4782  1.4519  1.4076
  396MOL0     H53444   7.372   1.406  -0.325  2.1326  0.1750 -1.4691
  396MOL0     H53445   7.620   1.422  -0.384  2.1599 -0.6783  0.2770
  396MOL0     H53446   9.232   1.863   0.047  0.1060 -0.0223  0.5267
  396MOL0     H53447   9.448   1.813   0.164 -1.3081 -0.6388 -0.3306
  396MOL0     H53448  10.021   2.177   0.227  0.4952 -0.3540 -1.1393
  396MOL0     H53449  10.225   2.074   0.262  0.4244 -1.2411  1.2643
  396MOL0     H53450  10.246   1.617   0.294  0.0760 -1.0605 -0.0635
  396MOL0     H53451  10.324   1.663   0.136 -1.3160  1.1503  0.5663
  396MOL0     H53452  10.531   1.731   0.261 -1.1227  0.5514 -0.2714
  396MOL0     H53453  10.497   1.563   0.268 -1.7344 -1.2856 -1.4743
  396MOL0     H53454  10.435   1.528   0.465  0.9122  0.5566 -2.8069
  396MOL0     H53455  10.399   1.711   0.504 -0.4456 -0.2394  0.4541
  396MOL0     H53456  10.611   1.646   0.617  1.4563  3.3484  0.5395
  396MOL0     H53457  10.643   1.747   0.473 -2.5953  1.6537  1.4260
  396MOL0     H53458  10.814   1.345   0.432  3.0505  1.7196 -2.0261
  396MOL0     H53459  10.055   1.687   0.190  2.9899  0.3811  0.5240
  396MOL0     H53460   9.854   1.779   0.173 -0.8057  1.2645  1.0501
  397MOL0     O53461   1.804   6.234  10.418  0.0672  0.3664 -0.3136
  397MOL0     C53462   1.891   6.301  10.358 -0.1081  0.8903  1.3295
  397MOL0     O53463   1.874   6.428  10.303 -0.7807 -0.0714  0.3926
  397MOL0     C53464   1.745   6.475  10.302  0.3580  0.9637  0.9030
  397MOL0     C53465   1.673   6.488  10.178 -0.2106  0.2621  0.7586
  397MOL0     C53466   1.551   6.550  10.170  0.3580 -0.4545  0.3923
  397MOL0     C53467   1.478   6.572  10.283 -0.0001  0.4646 -0.8446
  397MOL0     O53468   1.352   6.620  10.272 -0.2554  0.6733  0.0972
  397MOL0     C53469   1.347   6.765  10.270  0.0498  1.1278  0.5212
  397MOL0     C53470   1.213   6.805  10.214  0.5567  0.2027  0.3725
  397MOL0     C53471   1.090   6.741  10.296 -0.1629 -0.1895 -0.1508
  397MOL0     C53472   0.958   6.790  10.222  0.3891  0.8924  0.1732
  397MOL0     C53473   0.828   6.759  10.300  0.1322  0.4145  0.1061
  397MOL0     C53474   0.783   6.611  10.303  0.6550  0.0568 -0.7405
  397MOL0     C53475   0.691   6.569  10.187  0.8060  0.8368 -0.1175
  397MOL0     C53476   0.627   6.427  10.199  0.6301  0.5353  0.1762
  397MOL0     N53477   0.553   6.404  10.080 -0.0355 -0.2458  0.2464
  397MOL0     C53478   0.424   6.451  10.059 -0.5166 -0.1754 -0.0753
  397MOL0     C53479   0.409   6.441   9.920 -0.0380 -0.0822  0.4074
  397MOL0     C53480   0.285   6.463   9.843 -0.0604  0.3190  0.5664
  397MOL0     C53481   0.155   6.455   9.909 -0.6963 -0.1315  0.2130
  397MOL0     C53482   0.039   6.500   9.826  0.0831  0.2993  0.3529
  397MOL0     C53483  -0.090   6.493   9.899  0.4142 -0.3120  0.2257
  397MOL0     O53484  -0.196   6.558   9.830 -0.2005  0.3887  0.4656
  397MOL0     C53485  -0.319   6.559   9.894  0.6481  0.2143  0.6287
  397MOL0     C53486  -0.394   6.677   9.886 -0.3086 -0.0998 -0.6655
  397MOL0     C53487  -0.517   6.697   9.955  0.0760 -0.3144 -0.2489
  397MOL0     C53488  -0.556   6.839   9.961  0.4405  0.0746  0.4000
  397MOL0     C53489  -0.573   6.594  10.034  0.2119 -0.6163 -0.1358
  397MOL0     C53490  -0.698   6.602  10.122  0.3831  0.0300  0.2760
  397MOL0     O53491  -0.715   6.502  10.213 -0.1901 -0.8203 -0.2897
  397MOL0     C53492  -0.834   6.472  10.271  0.1914  0.5301 -0.4273
  397MOL0     C53493  -0.933   6.563  10.310  0.3280  0.4009 -0.0029
  397MOL0     C53494  -1.045   6.515  10.381 -0.3338 -0.1244 -0.3223
  397MOL0     C53495  -1.053   6.389  10.432 -0.6159  0.0649 -0.0809
  397MOL0     O53496  -1.166   6.355  10.502  0.0488 -0.9017  0.0201
  397MOL0     C53497  -1.149   6.274  10.617  0.8702 -0.0125 -0.1482
  397MOL0     C53498  -1.236   6.328  10.733 -0.0226  0.1798 -0.2179
  397MOL0     C53499  -1.376   6.258  10.723 -0.0195 -0.6845  0.0789
  397MOL0     C53500  -1.488   6.343  10.793  0.1425  0.8580  0.3170
  397MOL0     C53501  -1.627   6.304  10.749 -0.6384  0.7857  0.3009
  397MOL0     C53502  -1.644   6.152  10.728  0.0120  0.2619 -0.1296
  397MOL0     C53503  -1.791   6.102  10.700  0.0595  0.8201  0.4747
  397MOL0     C53504  -1.858   6.034  10.807  0.1094 -0.2617 -0.6919
  397MOL0    Cl53505  -2.037   6.017  10.752  0.0610  0.4016  0.0214
  397MOL0     C53506  -0.958   6.288  10.396 -0.6719 -0.9542 -0.5517
  397MOL0     C53507  -0.844   6.333  10.322 -0.1223  0.8827 -0.6294
  397MOL0     O53508  -0.778   6.694  10.105 -0.2472 -0.1630  0.4729
  397MOL0     C53509  -0.498   6.478  10.045 -0.1545 -0.6855 -0.3843
  397MOL0     C53510  -0.370   6.458   9.983 -0.3838 -0.3893  0.2535
  397MOL0     N53511   0.531   6.394   9.871  0.1464  0.0639  0.9198
  397MOL0     N53512   0.608   6.366   9.968  0.2166 -0.3354  0.5348
  397MOL0     C53513   1.530   6.538  10.404 -0.3705 -0.0809  0.0194
  397MOL0     C53514   1.668   6.501  10.417 -0.0617  0.1407 -0.3260
  397MOL0     C53515   2.025   6.240  10.347  0.5863 -1.4486  0.0087
  397MOL0     C53516   2.058   6.117  10.400 -0.0350 -0.4277  0.1214
  397MOL0     C53517   2.191   6.071  10.406 -0.5832  0.1570  0.1113
  397MOL0     C53518   2.291   6.131  10.333 -0.2656  0.1931 -0.4557
  397MOL0     O53519   2.411   6.068  10.335  0.1118  0.6999 -0.8061
  397MOL0     C53520   2.513   6.110  10.248  0.2780 -0.6304  0.7138
  397MOL0     C53521   2.613   6.004  10.229 -0.4111  0.6627 -0.0883
  397MOL0     C53522   2.721   6.036  10.126  1.3518 -1.1180  1.5853
  397MOL0     C53523   2.819   5.922  10.110  0.1663 -0.3098  0.0158
  397MOL0     C53524   2.902   5.944   9.992 -0.4187  0.6011 -0.4189
  397MOL0     C53525   2.986   5.945   9.900 -0.2616 -1.1075 -1.1155
  397MOL0     C53526   2.260   6.252  10.267  0.0040 -0.3218 -0.6890
  397MOL0     C53527   2.133   6.311  10.283  0.7311  0.7903  0.0548
  397MOL0     H53528   1.722   6.466  10.083  1.0058 -0.8268  1.5967
  397MOL0     H53529   1.492   6.552  10.079 -1.5288 -0.9411  1.5357
  397MOL0     H53530   1.373   6.811  10.366  0.1067 -0.4576  1.3105
  397MOL0     H53531   1.428   6.809  10.211 -0.6388  0.7399 -0.7494
  397MOL0     H53532   1.200   6.914  10.216 -3.0047 -0.1245  2.2005
  397MOL0     H53533   1.224   6.780  10.108  1.2506 -0.6404  0.6328
  397MOL0     H53534   1.103   6.633  10.303 -2.9384 -0.5164  1.9721
  397MOL0     H53535   1.096   6.783  10.397 -0.3085  0.2639 -0.3302
  397MOL0     H53536   0.944   6.898  10.220 -3.4536  0.5412 -1.9503
  397MOL0     H53537   0.943   6.754  10.120 -0.9260 -0.6478  0.8598
  397MOL0     H53538   0.825   6.798  10.403  1.8586  0.8649  0.0127
  397MOL0     H53539   0.752   6.825  10.257 -1.2083 -2.2117 -1.7985
  397MOL0     H53540   0.873   6.549  10.303  0.2900 -0.6350  2.1875
  397MOL0     H53541   0.733   6.600  10.400  1.9450  0.3776 -0.0149
  397MOL0     H53542   0.606   6.638  10.193 -0.5399 -0.7018 -0.5609
  397MOL0     H53543   0.732   6.582  10.087 -0.0565 -2.9589 -1.1565
  397MOL0     H53544   0.555   6.423  10.281  2.0629 -0.1643  1.4434
  397MOL0     H53545   0.692   6.340  10.207 -1.2069 -1.1368 -1.7470
  397MOL0     H53546   0.359   6.475  10.143 -0.0841 -1.1260  0.5505
  397MOL0     H53547   0.291   6.564   9.802 -1.0389 -0.5725 -1.9731
  397MOL0     H53548   0.296   6.395   9.758  0.2662  0.6220  0.3622
  397MOL0     H53549   0.159   6.526   9.993  1.6343  0.4026 -0.2691
  397MOL0     H53550   0.137   6.358   9.955 -2.7899  0.9536  1.8777
  397MOL0     H53551   0.030   6.436   9.738  0.8129  1.3268 -0.5052
  397MOL0     H53552   0.060   6.606   9.807 -1.4187  0.8764  1.6759
  397MOL0     H53553  -0.071   6.540   9.996  0.6159 -0.4771  0.2659
  397MOL0     H53554  -0.116   6.387   9.903 -0.3303 -0.2242 -1.5947
  397MOL0     H53555  -0.351   6.765   9.840 -0.1724 -0.9178 -2.1487
  397MOL0     H53556  -0.645   6.845   9.898  0.3388  0.8423  0.6023
  397MOL0     H53557  -0.579   6.873  10.063  1.0645 -0.1671  0.6248
  397MOL0     H53558  -0.480   6.906   9.920 -0.2297 -0.1324 -1.2366
  397MOL0     H53559  -0.936   6.668  10.284 -1.3972  0.1647 -0.9592
  397MOL0     H53560  -1.114   6.594  10.410  0.3459 -0.4765  2.5903
  397MOL0     H53561  -1.184   6.177  10.582  0.2868  0.0932  0.1277
  397MOL0     H53562  -1.045   6.252  10.642  0.2095  0.3046  3.3937
  397MOL0     H53563  -1.188   6.319  10.831  0.6510 -2.3402 -0.7064
  397MOL0     H53564  -1.239   6.437  10.727  4.9799  0.9268  3.5657
  397MOL0     H53565  -1.372   6.157  10.764 -0.6452 -0.7644 -0.0547
  397MOL0     H53566  -1.404   6.247  10.617  0.5960 -0.7481 -0.0829
  397MOL0     H53567  -1.478   6.332  10.901  0.9177  1.1461  0.2817
  397MOL0     H53568  -1.479   6.448  10.762  2.7604  1.5899  3.1177
  397MOL0     H53569  -1.659   6.348  10.653 -0.5294 -1.7296 -0.9735
  397MOL0     H53570  -1.706   6.331  10.820 -3.9398 -3.0778 -1.5025
  397MOL0     H53571  -1.577   6.120  10.647  2.2284 -0.9387  2.0631
  397MOL0     H53572  -1.614   6.098  10.818  1.7905 -1.6043 -1.7298
  397MOL0     H53573  -1.784   6.042  10.609 -0.4194  3.4409 -1.4051
  397MOL0     H53574  -1.852   6.190  10.676 -0.1022  0.6152  0.1294
  397MOL0     H53575  -1.850   6.097  10.896 -0.0027 -1.9045  0.5257
  397MOL0     H53576  -1.820   5.934  10.830 -0.6281  0.0519  2.1924
  397MOL0     H53577  -0.965   6.188  10.436  0.1236 -1.3271 -1.3098
  397MOL0     H53578  -0.760   6.270  10.293 -0.8774  0.2561 -1.5542
  397MOL0     H53579  -0.524   6.396  10.111 -2.3904 -2.0960 -2.8258
  397MOL0     H53580  -0.317   6.364   9.994  2.2762  1.1022  1.0649
  397MOL0     H53581   1.461   6.548  10.488 -2.1146  0.1667 -1.3772
  397MOL0     H53582   1.709   6.484  10.515  0.5272 -0.6512 -0.6986
  397MOL0     H53583   1.976   6.060  10.442 -0.2206  0.9421  1.7097
  397MOL0     H53584   2.206   5.969  10.442 -1.0078  0.4085  1.0248
  397MOL0     H53585   2.467   6.123  10.150 -1.6167  0.4053  1.6791
  397MOL0     H53586   2.540   6.212  10.277 -0.4880  0.1021 -1.0215
  397MOL0     H53587   2.553   5.914  10.210 -0.5653  0.3129  1.8179
  397MOL0     H53588   2.659   5.990  10.328 -1.8075 -0.0147  0.4955
  397MOL0     H53589   2.761   6.134  10.152 -1.6816  1.0753 -1.2895
  397MOL0     H53590   2.675   6.054  10.029  2.3358 -0.7770  1.1619
  397MOL0     H53591   2.762   5.830  10.091 -1.3072  0.6629 -0.5036
  397MOL0     H53592   2.884   5.920  10.197  0.3687  0.7957 -0.1050
  397MOL0     H53593   3.059   5.962   9.824 -2.0329  0.4243 -2.6003
  397MOL0     H53594   2.331   6.303  10.203  0.0816 -1.3179 -1.4094
  397MOL0     H53595   2.118   6.409  10.240  0.4866  0.1358 -1.4048
  398MOL0     O53596   9.382   8.883   5.695  0.3611 -0.2219  0.6672
  398MOL0     C53597   9.338   8.771   5.660  0.6661 -0.3109  0.1189
  398MOL0     O53598   9.217   8.749   5.595 -0.1508 -0.6385  0.0555
  398MOL0     C53599   9.119   8.847   5.583  0.4628 -0.2600  0.8086
  398MOL0     C53600   9.119   8.978   5.643 -0.6754 -0.6842 -0.2988
  398MOL0     C53601   9.006   9.051   5.626  0.2502 -0.6048 -0.2159
  398MOL0     C53602   8.891   9.028   5.548 -0.3879 -0.0256 -0.4729
  398MOL0     O53603   8.797   9.121   5.548 -0.2624 -0.2991 -0.5350
  398MOL0     C53604   8.682   9.094   5.624 -0.4195  0.2740 -1.1480
  398MOL0     C53605   8.590   9.204   5.600 -0.1252  0.2517  0.6884
  398MOL0     C53606   8.614   9.310   5.716  0.1043  0.6054 -0.1209
  398MOL0     C53607   8.554   9.445   5.690 -1.0047 -0.2248 -0.2771
  398MOL0     C53608   8.401   9.448   5.725 -0.2553  0.9463 -0.5469
  398MOL0     C53609   8.374   9.484   5.875  0.0813  0.5389 -0.1815
  398MOL0     C53610   8.241   9.440   5.927  0.1122  0.0695  0.2389
  398MOL0     C53611   8.125   9.515   5.854 -0.3979 -0.5260 -0.0346
  398MOL0     N53612   8.011   9.535   5.946 -1.0459 -0.0836  0.0339
  398MOL0     C53613   8.007   9.591   6.068 -0.8145  0.2374  0.8984
  398MOL0     C53614   7.873   9.595   6.097  0.4016 -0.2056  0.4875
  398MOL0     C53615   7.808   9.655   6.219 -0.0420  0.1854  0.9310
  398MOL0     C53616   7.691   9.574   6.277 -0.0298 -0.8213  0.7404
  398MOL0     C53617   7.551   9.636   6.246 -0.3623  0.2473  0.1927
  398MOL0     C53618   7.468   9.671   6.365 -0.0711  0.3263  0.1489
  398MOL0     O53619   7.333   9.705   6.329  0.5542 -0.3136  0.2133
  398MOL0     C53620   7.225   9.692   6.416 -0.4121 -0.4020  0.0855
  398MOL0     C53621   7.215   9.604   6.525  0.6662 -0.5955  0.3212
  398MOL0     C53622   7.092   9.596   6.605  0.0387  0.1233  0.9057
  398MOL0     C53623   7.071   9.478   6.696 -0.6863  0.1466 -0.6203
  398MOL0     C53624   6.988   9.685   6.571  0.1158 -0.3049 -0.0445
  398MOL0     C53625   6.856   9.690   6.640  0.2878 -0.6001 -0.8442
  398MOL0     O53626   6.748   9.728   6.563 -0.4637  0.0245  0.2255
  398MOL0     C53627   6.634   9.748   6.635  0.2729 -0.0028  0.9571
  398MOL0     C53628   6.538   9.650   6.662  0.0267 -0.2566 -1.3071
  398MOL0     C53629   6.417   9.688   6.716 -0.3297 -0.1208  0.1472
  398MOL0     C53630   6.388   9.821   6.740 -0.2624 -0.1703 -0.4085
  398MOL0     O53631   6.265   9.847   6.797  0.0610 -0.1474  0.4162
  398MOL0     C53632   6.218   9.984   6.811  0.0184 -0.1926 -0.4886
  398MOL0     C53633   6.081   9.959   6.873 -0.2495 -0.6372  0.2752
  398MOL0     C53634   6.021  10.096   6.901 -0.1883  0.3666 -0.6218
  398MOL0     C53635   5.865  10.095   6.934  0.4134 -0.3713  0.2964
  398MOL0     C53636   5.810  10.240   6.959 -0.9440  0.2591  0.2887
  398MOL0     C53637   5.680  10.232   7.030 -0.1916  0.5622 -0.4402
  398MOL0     C53638   5.612  10.367   7.041  0.4823  0.6876  0.9844
  398MOL0     C53639   5.502  10.373   7.140 -0.1237  0.1247 -0.3260
  398MOL0    Cl53640   5.371  10.249   7.106  0.0699  0.6046  0.1633
  398MOL0     C53641   6.481   9.926   6.711  0.4960  0.0442  0.5323
  398MOL0     C53642   6.605   9.889   6.661 -0.1166 -0.2900  0.1275
  398MOL0     O53643   6.842   9.666   6.762 -0.5035 -1.0720 -0.3730
  398MOL0     C53644   7.002   9.777   6.461  1.0708 -0.0924  0.4159
  398MOL0     C53645   7.117   9.770   6.386  0.6307 -0.1689  0.3623
  398MOL0     N53646   7.800   9.568   5.984  0.8805 -0.1112 -0.2003
  398MOL0     N53647   7.885   9.523   5.892  0.4677  0.8473  0.3087
  398MOL0     C53648   8.900   8.910   5.476 -0.2361 -0.2057  0.2335
  398MOL0     C53649   9.008   8.821   5.500 -0.0192  0.0176 -0.5017
  398MOL0     C53650   9.421   8.655   5.689 -0.4228 -0.2853  0.8093
  398MOL0     C53651   9.364   8.529   5.679 -0.0315  0.3788 -0.8048
  398MOL0     C53652   9.440   8.417   5.708 -0.3164  0.5918 -0.1071
  398MOL0     C53653   9.572   8.429   5.752 -0.6230 -0.0022 -0.5139
  398MOL0     O53654   9.641   8.313   5.800 -0.6717  0.3178  0.1686
  398MOL0     C53655   9.778   8.329   5.830  0.1586 -0.4209  0.7844
  398MOL0     C53656   9.837   8.190   5.867 -0.1125 -0.2085 -0.3059
  398MOL0     C53657   9.820   8.153   6.010  0.0491 -0.4391 -0.0177
  398MOL0     C53658   9.878   8.010   6.037  0.0167 -0.8120  0.1844
  398MOL0     C53659   9.896   7.975   6.179 -0.4082 -0.5944  0.0116
  398MOL0     C53660   9.901   7.949   6.298 -0.3456  0.4412 -0.6085
  398MOL0     C53661   9.635   8.556   5.754 -0.1397  0.3653 -0.0560
  398MOL0     C53662   9.561   8.668   5.725 -0.2253 -0.1368  0.8416
  398MOL0     H53663   9.193   9.015   5.713 -0.3237  0.7495 -1.3787
  398MOL0     H53664   9.003   9.144   5.683  1.1631  0.2174 -1.4482
  398MOL0     H53665   8.645   8.994   5.601  0.5302 -1.1745  2.8487
  398MOL0     H53666   8.710   9.088   5.729 -2.5141 -1.5971 -0.6332
  398MOL0     H53667   8.607   9.250   5.502 -1.7283  0.0598  0.2841
  398MOL0     H53668   8.486   9.169   5.598 -0.4679  1.1301  1.6807
  398MOL0     H53669   8.592   9.278   5.818 -1.6267  2.0584 -0.0008
  398MOL0     H53670   8.722   9.326   5.721  0.0860  0.9613 -0.8274
  398MOL0     H53671   8.613   9.511   5.755 -0.1942 -1.8737  0.7324
  398MOL0     H53672   8.577   9.464   5.585  0.0450 -3.0282 -0.6309
  398MOL0     H53673   8.359   9.526   5.661  0.2522  1.6930  0.0182
  398MOL0     H53674   8.371   9.345   5.704  3.5393 -1.0968  2.7285
  398MOL0     H53675   8.443   9.419   5.928 -1.6558 -0.4900  0.9216
  398MOL0     H53676   8.383   9.591   5.897 -2.0411  0.8134 -0.3981
  398MOL0     H53677   8.207   9.339   5.902  0.0601  0.0989  0.1912
  398MOL0     H53678   8.249   9.452   6.035 -1.9435  1.6794  0.2818
  398MOL0     H53679   8.087   9.463   5.766 -1.7195  0.0637  0.1612
  398MOL0     H53680   8.165   9.614   5.830  0.3599 -0.2278  2.1849
  398MOL0     H53681   8.089   9.620   6.132  0.2515 -2.5284  0.9413
  398MOL0     H53682   7.881   9.661   6.300  0.5393 -0.3270  0.4605
  398MOL0     H53683   7.777   9.757   6.198 -1.8703 -0.7741 -1.5410
  398MOL0     H53684   7.702   9.571   6.386 -0.6037 -2.2682  0.7825
  398MOL0     H53685   7.706   9.470   6.248  0.8828 -0.4144 -0.3023
  398MOL0     H53686   7.501   9.557   6.188  1.9798 -2.1712  1.2845
  398MOL0     H53687   7.558   9.727   6.185 -3.5116  0.0482 -0.6478
  398MOL0     H53688   7.515   9.754   6.419 -1.2399  0.0185  1.7239
  398MOL0     H53689   7.461   9.576   6.418 -1.8730 -0.0207 -0.6311
  398MOL0     H53690   7.307   9.548   6.539  3.0106  2.1480 -2.6194
  398MOL0     H53691   7.090   9.505   6.801  1.2794  1.3646 -1.2381
  398MOL0     H53692   6.970   9.439   6.683 -0.2940 -0.6950 -1.2441
  398MOL0     H53693   7.150   9.408   6.668 -0.1415 -0.7255  2.6488
  398MOL0     H53694   6.552   9.543   6.653 -2.5582 -0.9626  1.3777
  398MOL0     H53695   6.344   9.610   6.736  0.5067 -1.3271 -1.2937
  398MOL0     H53696   6.277  10.046   6.880 -2.7174  2.1096 -0.0298
  398MOL0     H53697   6.216  10.033   6.713 -3.5768 -1.5709 -1.2554
  398MOL0     H53698   6.005   9.909   6.812 -1.8457  2.1342 -0.1655
  398MOL0     H53699   6.094   9.905   6.968 -3.8462 -0.7723  0.8089
  398MOL0     H53700   6.038  10.167   6.820  0.3765 -1.0508 -1.7980
  398MOL0     H53701   6.072  10.154   6.978  1.0117  3.5506 -3.5514
  398MOL0     H53702   5.811  10.045   6.853  2.8626 -1.3926 -0.8471
  398MOL0     H53703   5.854  10.041   7.028  1.0642  0.1257  0.6645
  398MOL0     H53704   5.800  10.299   6.868 -0.2257 -0.5109 -0.3161
  398MOL0     H53705   5.886  10.288   7.021  0.2402 -2.1051  0.7912
  398MOL0     H53706   5.609  10.164   6.982 -1.4685  1.8327 -0.4233
  398MOL0     H53707   5.695  10.192   7.131 -2.0004  0.6277 -0.1218
  398MOL0     H53708   5.580  10.383   6.938  1.0401  0.1963  0.7260
  398MOL0     H53709   5.689  10.438   7.071  2.9220 -1.3083 -0.1767
  398MOL0     H53710   5.460  10.474   7.129 -1.3235 -0.2203  0.9018
  398MOL0     H53711   5.532  10.362   7.244 -0.1670 -0.0287 -0.3303
  398MOL0     H53712   6.456  10.032   6.710 -2.3549 -0.5585  0.3472
  398MOL0     H53713   6.687   9.956   6.637 -0.1665 -0.0189  0.7011
  398MOL0     H53714   6.921   9.843   6.433  1.7502 -0.4954 -2.8480
  398MOL0     H53715   7.135   9.837   6.303  1.9716  1.0334  1.5862
  398MOL0     H53716   8.816   8.882   5.413  0.3736 -0.2120 -0.5945
  398MOL0     H53717   8.998   8.722   5.456 -2.7906  0.6775 -1.5811
  398MOL0     H53718   9.259   8.508   5.660 -0.3394  1.5504 -0.4201
  398MOL0     H53719   9.397   8.318   5.695  1.8944 -0.7249  1.7640
  398MOL0     H53720   9.827   8.362   5.738 -0.6801 -0.5338  0.2835
  398MOL0     H53721   9.795   8.402   5.911 -0.7304  0.5958  0.0879
  398MOL0     H53722   9.943   8.196   5.840 -1.1203 -0.0727 -5.2976
  398MOL0     H53723   9.799   8.111   5.802 -0.9147 -0.4931  0.4921
  398MOL0     H53724   9.718   8.155   6.049  0.2608  0.3271  0.5081
  398MOL0     H53725   9.881   8.228   6.061 -0.2539  1.8797 -2.8210
  398MOL0     H53726   9.974   8.014   5.985  1.0868  3.1167  2.0964
  398MOL0     H53727   9.808   7.943   5.985 -1.0003  1.1755 -1.1416
  398MOL0     H53728   9.906   7.930   6.403  0.0280  1.0109 -0.5177
  398MOL0     H53729   9.739   8.561   5.785 -0.5796 -2.9399  2.5183
  398MOL0     H53730   9.599   8.769   5.733 -1.9216  0.5332  0.9421
  399MOL0     O53731   0.097   2.446  11.313 -0.1758 -0.6042  0.3632
  399MOL0     C53732   0.171   2.539  11.276 -0.2157  0.0782 -0.7928
  399MOL0     O53733   0.137   2.665  11.239  0.2388 -0.4657  0.3303
  399MOL0     C53734   0.002   2.683  11.206 -0.1049  0.3777  0.2995
  399MOL0     C53735  -0.109   2.662  11.298 -0.2734  0.2887  0.4279
  399MOL0     C53736  -0.243   2.683  11.247 -0.3462 -0.2258  0.2602
  399MOL0     C53737  -0.266   2.712  11.115  0.5546  0.0755 -0.2421
  399MOL0     O53738  -0.390   2.717  11.058  0.3651 -0.3794 -0.5545
  399MOL0     C53739  -0.507   2.655  11.123 -0.2871 -0.2176 -0.8763
  399MOL0     C53740  -0.616   2.657  11.016 -1.1055  0.2805  0.1297
  399MOL0     C53741  -0.749   2.661  11.082  0.3988  0.0262 -0.2431
  399MOL0     C53742  -0.859   2.656  10.974 -0.1339 -0.0946 -0.2421
  399MOL0     C53743  -0.996   2.625  11.036 -0.5258  0.2025  0.3626
  399MOL0     C53744  -1.045   2.733  11.135  0.6500 -0.2324  0.4896
  399MOL0     C53745  -1.184   2.701  11.179 -0.5574  0.0093 -0.3288
  399MOL0     C53746  -1.301   2.692  11.081  1.0782 -0.5775  0.1673
  399MOL0     N53747  -1.323   2.824  11.016  0.0236 -0.1105 -0.3771
  399MOL0     C53748  -1.277   2.864  10.896  0.0345 -0.4506 -0.5775
  399MOL0     C53749  -1.327   2.988  10.880  0.2431 -0.6179  0.7454
  399MOL0     C53750  -1.311   3.068  10.750  0.0644  0.2825 -0.0580
  399MOL0     C53751  -1.442   3.109  10.692  0.8324  0.1493  0.4242
  399MOL0     C53752  -1.515   3.226  10.765 -0.1278  0.2033  0.2117
  399MOL0     C53753  -1.526   3.353  10.679  0.1766 -0.2324 -0.1192
  399MOL0     O53754  -1.602   3.332  10.556  0.5909 -0.2025  0.1201
  399MOL0     C53755  -1.689   3.436  10.516 -0.3762  0.2256 -0.0604
  399MOL0     C53756  -1.783   3.388  10.425 -0.0939  0.2609 -0.6472
  399MOL0     C53757  -1.894   3.467  10.382  0.2805  0.1393 -0.6159
  399MOL0     C53758  -1.998   3.395  10.306  0.8948 -0.6623  0.1759
  399MOL0     C53759  -1.902   3.597  10.430  0.1704  0.2262  0.0035
  399MOL0     C53760  -2.007   3.697  10.409  0.3839 -0.5445 -0.1773
  399MOL0     O53761  -1.988   3.832  10.408 -1.1540 -0.3934  0.6589
  399MOL0     C53762  -2.098   3.916  10.420 -0.0615 -0.1713 -0.1150
  399MOL0     C53763  -2.170   3.950  10.311  0.8636 -0.5126  0.4310
  399MOL0     C53764  -2.262   4.053  10.316  0.4982 -0.0929 -0.3189
  399MOL0     C53765  -2.281   4.125  10.437  0.4131  0.3614  0.3464
  399MOL0     O53766  -2.367   4.232  10.438 -0.3365  0.3444 -0.1212
  399MOL0     C53767  -2.427   4.261  10.570 -0.1084 -0.8420 -0.2005
  399MOL0     C53768  -2.562   4.323  10.542 -0.1054 -0.1168 -0.1724
  399MOL0     C53769  -2.671   4.216  10.514 -0.0130 -1.1751 -0.0854
  399MOL0     C53770  -2.801   4.287  10.532 -0.2679 -0.2864 -0.0519
  399MOL0     C53771  -2.908   4.230  10.450 -0.0578  0.8637 -0.1685
  399MOL0     C53772  -3.031   4.299  10.496 -0.1310 -0.5283 -0.3297
  399MOL0     C53773  -3.165   4.278  10.427 -0.5000 -0.1998  0.4765
  399MOL0     C53774  -3.163   4.292  10.274 -0.9231  0.2320  0.1392
  399MOL0    Cl53775  -3.321   4.324  10.190 -0.2839  0.1864  0.0777
  399MOL0     C53776  -2.200   4.089  10.550  0.4489 -0.1337  0.3315
  399MOL0     C53777  -2.112   3.979  10.538 -0.0559  0.1054 -0.3318
  399MOL0     O53778  -2.119   3.647  10.416 -0.1450  0.7862 -0.8683
  399MOL0     C53779  -1.794   3.641  10.509 -0.1448 -0.3158 -0.2070
  399MOL0     C53780  -1.689   3.569  10.555 -0.2734 -0.7669  0.5349
  399MOL0     N53781  -1.405   3.021  10.988  0.6394 -0.3193  0.5568
  399MOL0     N53782  -1.400   2.924  11.069  0.0736  0.3001  0.8970
  399MOL0     C53783  -0.154   2.760  11.046  0.6641 -1.1090  0.4450
  399MOL0     C53784  -0.024   2.737  11.080  0.0788 -0.7631 -0.1564
  399MOL0     C53785   0.314   2.516  11.306 -0.3112 -0.1795 -0.0447
  399MOL0     C53786   0.354   2.435  11.413  0.1180  0.6362  0.0201
  399MOL0     C53787   0.491   2.403  11.446  0.3763 -0.2419  0.3736
  399MOL0     C53788   0.594   2.469  11.370  0.3035  1.2323  0.0894
  399MOL0     O53789   0.723   2.448  11.398  1.2235 -0.3643 -0.3159
  399MOL0     C53790   0.752   2.392  11.529  0.0498  0.8579 -0.6423
  399MOL0     C53791   0.896   2.418  11.565 -0.4787  0.1363 -0.8956
  399MOL0     C53792   0.990   2.319  11.490 -0.7955  0.0483  0.7057
  399MOL0     C53793   1.128   2.336  11.528  0.6817  0.6167 -0.4093
  399MOL0     C53794   1.227   2.266  11.435 -0.0252 -0.2821  0.3559
  399MOL0     C53795   1.299   2.201  11.353 -0.0873  0.1687  0.0221
  399MOL0     C53796   0.555   2.566  11.280 -0.7915  0.0661  0.5566
  399MOL0     C53797   0.421   2.584  11.243 -0.0653  0.5834 -0.2286
  399MOL0     H53798  -0.097   2.616  11.395  0.2997 -1.7740 -0.5695
  399MOL0     H53799  -0.325   2.665  11.317 -1.6860 -0.3606 -1.2834
  399MOL0     H53800  -0.472   2.558  11.160  1.4716  1.2400  1.6268
  399MOL0     H53801  -0.545   2.707  11.212 -1.6017 -0.9312 -0.9949
  399MOL0     H53802  -0.598   2.745  10.953  2.6720  0.3872  1.1470
  399MOL0     H53803  -0.606   2.565  10.958  0.7219 -0.2945  1.2838
  399MOL0     H53804  -0.770   2.575  11.146  1.7862 -0.3956 -0.3335
  399MOL0     H53805  -0.766   2.756  11.133 -4.0138 -0.7013  0.0417
  399MOL0     H53806  -0.864   2.733  10.897 -0.1227 -1.2825 -1.4685
  399MOL0     H53807  -0.840   2.566  10.915 -0.8421 -0.3377 -0.1150
  399MOL0     H53808  -1.064   2.624  10.951  0.5184 -2.1230 -0.5201
  399MOL0     H53809  -0.986   2.527  11.082 -0.8081  0.4756  1.0282
  399MOL0     H53810  -0.976   2.740  11.219  0.5317  0.6103  0.5338
  399MOL0     H53811  -1.037   2.827  11.079  0.5982 -1.3715 -1.5336
  399MOL0     H53812  -1.171   2.601  11.223  2.4184  1.0772  1.5029
  399MOL0     H53813  -1.219   2.765  11.260 -2.9521 -1.7375  0.1535
  399MOL0     H53814  -1.393   2.674  11.139 -1.6856  0.8808 -3.3641
  399MOL0     H53815  -1.289   2.605  11.016  0.1177 -0.2900 -0.4310
  399MOL0     H53816  -1.214   2.808  10.828  0.4680 -0.5527 -0.1026
  399MOL0     H53817  -1.250   3.157  10.762  0.4485 -0.2002  1.9574
  399MOL0     H53818  -1.258   3.002  10.680  0.1391 -1.5286  1.6015
  399MOL0     H53819  -1.514   3.028  10.691  1.9881 -0.9021 -0.2680
  399MOL0     H53820  -1.424   3.143  10.589 -1.6908 -0.7725 -0.3765
  399MOL0     H53821  -1.457   3.256  10.853 -0.9080  1.9556  0.1786
  399MOL0     H53822  -1.610   3.195  10.809 -3.5249  6.7257 -1.1891
  399MOL0     H53823  -1.426   3.392  10.656  0.9921 -1.8312  0.5255
  399MOL0     H53824  -1.575   3.416  10.753  1.1148  2.0182 -1.3243
  399MOL0     H53825  -1.777   3.283  10.399  0.2494 -0.3996  1.8101
  399MOL0     H53826  -1.962   3.351  10.212 -1.4040 -1.6687 -0.2973
  399MOL0     H53827  -2.029   3.323  10.381 -1.0030 -1.2246 -1.0865
  399MOL0     H53828  -2.097   3.439  10.295  0.7582 -1.2978 -1.3946
  399MOL0     H53829  -2.156   3.895  10.219  2.0642 -1.4564  1.1418
  399MOL0     H53830  -2.326   4.081  10.233 -0.5542 -2.7606 -0.4978
  399MOL0     H53831  -2.451   4.174  10.631 -0.2636 -1.7444 -1.5026
  399MOL0     H53832  -2.357   4.331  10.617 -0.6194 -0.5639  0.1578
  399MOL0     H53833  -2.595   4.382  10.628  1.8379  2.9503 -1.3956
  399MOL0     H53834  -2.544   4.384  10.453 -0.3026  2.0373  1.2117
  399MOL0     H53835  -2.664   4.131  10.583 -1.0264 -1.0413  0.1917
  399MOL0     H53836  -2.669   4.170  10.415 -0.3110 -0.9496 -0.1965
  399MOL0     H53837  -2.835   4.294  10.635  0.1771  0.9006  0.0209
  399MOL0     H53838  -2.771   4.386  10.498  0.9249 -0.1586  1.2951
  399MOL0     H53839  -2.918   4.127  10.488  0.1888  0.6675 -0.6346
  399MOL0     H53840  -2.884   4.234  10.343  3.0238 -1.8435  0.2510
  399MOL0     H53841  -3.044   4.271  10.601  1.4380 -1.9139 -0.4498
  399MOL0     H53842  -3.016   4.407  10.490 -0.0730 -0.5476 -0.5357
  399MOL0     H53843  -3.238   4.357  10.450 -0.3382  0.2449 -0.4740
  399MOL0     H53844  -3.228   4.196  10.461 -1.9038  1.6208  2.5100
  399MOL0     H53845  -3.125   4.202  10.225 -2.4161 -0.3967  0.0775
  399MOL0     H53846  -3.092   4.371  10.248 -1.3164  0.1525 -1.2700
  399MOL0     H53847  -2.206   4.141  10.645  4.3484  1.9137 -0.3266
  399MOL0     H53848  -2.055   3.954  10.627  0.9223  0.2512 -0.8976
  399MOL0     H53849  -1.797   3.738  10.557 -0.3042 -1.8016  3.0875
  399MOL0     H53850  -1.613   3.617  10.616  0.8651  1.8225 -2.6296
  399MOL0     H53851  -0.168   2.798  10.945 -1.0004  1.6183  1.5833
  399MOL0     H53852   0.056   2.759  11.011 -0.8806  1.2906 -0.6835
  399MOL0     H53853   0.277   2.407  11.484  0.8820  1.8028  1.3871
  399MOL0     H53854   0.507   2.325  11.519 -3.5396 -0.3658  1.3158
  399MOL0     H53855   0.687   2.439  11.604  0.7373  3.6736 -1.6962
  399MOL0     H53856   0.724   2.286  11.529  0.7972  0.6510 -0.5455
  399MOL0     H53857   0.904   2.406  11.674  0.2158  0.8942 -0.8522
  399MOL0     H53858   0.923   2.522  11.549  0.0582 -0.0609 -1.3083
  399MOL0     H53859   0.975   2.327  11.382 -2.9706 -0.2004  0.9583
  399MOL0     H53860   0.969   2.214  11.511 -1.1482 -0.7204 -2.9471
  399MOL0     H53861   1.143   2.285  11.623 -0.5840  0.9114 -0.0376
  399MOL0     H53862   1.155   2.442  11.531  2.0129  0.3580 -1.8004
  399MOL0     H53863   1.370   2.142  11.299  0.6168  0.0475  1.0398
  399MOL0     H53864   0.615   2.624  11.210 -1.8851  0.4695 -0.0623
  399MOL0     H53865   0.398   2.659  11.168 -2.9691 -1.4719 -1.5955
  400MOL0     O53866  11.194   2.332   2.929  0.2040 -0.6697 -0.9517
  400MOL0     C53867  11.162   2.220   2.960 -0.7021 -0.6919  0.2455
  400MOL0     O53868  11.041   2.167   2.948 -0.2697  0.1744 -0.3799
  400MOL0     C53869  10.937   2.236   2.880  0.2879 -0.2926 -0.4667
  400MOL0     C53870  10.966   2.310   2.763 -0.5898  0.5772  0.0287
  400MOL0     C53871  10.856   2.368   2.704 -0.0922  0.4477 -0.7056
  400MOL0     C53872  10.732   2.365   2.756  0.4781  0.1013 -0.2454
  400MOL0     O53873  10.633   2.429   2.689 -0.4507 -0.2861  0.4871
  400MOL0     C53874  10.526   2.352   2.623  0.3182  0.0872  0.1143
  400MOL0     C53875  10.473   2.436   2.502 -0.1004 -0.0520  0.1972
  400MOL0     C53876  10.368   2.357   2.428  0.1509 -0.0154  0.3106
  400MOL0     C53877  10.332   2.414   2.294 -0.8788  0.3027 -0.4965
  400MOL0     C53878  10.252   2.539   2.307  0.1161  0.4262  0.1899
  400MOL0     C53879  10.211   2.591   2.165 -0.5411  1.1108  0.1839
  400MOL0     C53880  10.097   2.689   2.175 -0.4481  0.7889 -0.4097
  400MOL0     C53881  10.070   2.753   2.039 -0.4704 -0.3594 -0.3544
  400MOL0     N53882   9.944   2.831   2.048  0.2096  0.6659 -0.1858
  400MOL0     C53883   9.823   2.775   2.044  0.0726  0.2744 -0.2697
  400MOL0     C53884   9.742   2.874   2.080  0.1988  0.0462  0.3916
  400MOL0     C53885   9.591   2.854   2.093  0.7051  0.1340 -0.2209
  400MOL0     C53886   9.510   2.987   2.095 -0.7411  0.2592  0.5357
  400MOL0     C53887   9.360   2.982   2.092  0.5232  0.0225  0.1454
  400MOL0     C53888   9.294   2.998   1.951  0.9278  0.0460 -0.0472
  400MOL0     O53889   9.184   2.915   1.937  0.3663 -0.5385 -0.3725
  400MOL0     C53890   9.050   2.967   1.958 -0.4099 -0.0778 -0.2542
  400MOL0     C53891   9.013   3.100   1.980 -0.3891  0.0552  0.0304
  400MOL0     C53892   8.887   3.144   2.009 -0.4884  0.3072  0.0095
  400MOL0     C53893   8.877   3.294   2.040  0.3130 -0.6550 -0.5447
  400MOL0     C53894   8.786   3.045   2.013  0.2146  0.8464  0.1743
  400MOL0     C53895   8.638   3.085   2.057 -0.2744 -0.3577 -0.4719
  400MOL0     O53896   8.570   2.976   2.104 -0.5596 -0.4272  0.4652
  400MOL0     C53897   8.435   2.996   2.139 -0.2083 -0.4824 -0.1568
  400MOL0     C53898   8.328   2.948   2.061 -0.5606  0.0870 -0.4198
  400MOL0     C53899   8.197   2.970   2.100  0.3077 -0.6905 -0.2140
  400MOL0     C53900   8.162   3.026   2.226  0.0919  0.1279  0.0108
  400MOL0     O53901   8.031   3.046   2.249  0.2894  0.1822 -0.3172
  400MOL0     C53902   7.996   3.123   2.363  0.1486  0.1663 -0.5338
  400MOL0     C53903   7.840   3.126   2.353 -0.1741 -0.3254 -0.2458
  400MOL0     C53904   7.795   3.185   2.214 -0.3090  0.8890 -1.1634
  400MOL0     C53905   7.647   3.185   2.212  0.3076 -0.0622 -0.1264
  400MOL0     C53906   7.607   3.284   2.098 -0.1186 -0.2394  0.4229
  400MOL0     C53907   7.457   3.280   2.080  0.1103 -0.2782  0.1499
  400MOL0     C53908   7.425   3.382   1.970  0.2575  0.3449 -0.2519
  400MOL0     C53909   7.285   3.434   1.978  0.4282 -0.5718  0.1165
  400MOL0    Cl53910   7.161   3.298   1.968 -0.2601  0.2147 -0.1439
  400MOL0     C53911   8.269   3.066   2.303 -0.3974  0.1551 -0.2971
  400MOL0     C53912   8.403   3.050   2.258  0.0808 -0.4244  0.4559
  400MOL0     O53913   8.596   3.201   2.064  0.1756  0.5574 -0.2361
  400MOL0     C53914   8.827   2.905   1.997 -0.0675 -0.6664 -0.9635
  400MOL0     C53915   8.958   2.874   1.973 -0.5733  0.4592 -0.5152
  400MOL0     N53916   9.808   2.993   2.100 -0.3137 -0.2068 -0.0753
  400MOL0     N53917   9.929   2.965   2.072 -0.7287  0.1716  0.1856
  400MOL0     C53918  10.701   2.278   2.865 -0.5016 -0.9506 -0.5741
  400MOL0     C53919  10.805   2.216   2.925  0.7089  0.1862 -0.8115
  400MOL0     C53920  11.271   2.115   2.977 -0.1382 -0.2957  0.5130
  400MOL0     C53921  11.405   2.147   2.935  0.0822  0.0268  0.1102
  400MOL0     C53922  11.512   2.059   2.950  1.6206 -0.3067  0.6483
  400MOL0     C53923  11.488   1.936   3.010  0.6166  0.0528  0.0339
  400MOL0     O53924  11.593   1.848   3.033 -0.1134 -0.5074 -0.0225
  400MOL0     C53925  11.567   1.706   3.054 -0.8063  0.0633  0.2886
  400MOL0     C53926  11.690   1.618   3.014 -0.3244 -0.6844  0.2653
  400MOL0     C53927  11.815   1.653   3.092  0.4336 -0.3220  0.5818
  400MOL0     C53928  11.846   1.536   3.192  0.8757 -0.8072 -0.2410
  400MOL0     C53929  11.968   1.567   3.265 -0.1014  0.6471 -0.0982
  400MOL0     C53930  12.074   1.563   3.319 -0.5793 -0.6238 -0.3784
  400MOL0     C53931  11.354   1.908   3.064 -0.1071 -0.3331  0.8769
  400MOL0     C53932  11.250   1.999   3.042  0.4485  0.8719  0.3373
  400MOL0     H53933  11.061   2.312   2.710 -1.5705  1.4365 -1.8045
  400MOL0     H53934  10.879   2.437   2.623  1.7033  2.5095  1.4065
  400MOL0     H53935  10.549   2.252   2.587 -0.9041 -0.3068  0.3932
  400MOL0     H53936  10.450   2.346   2.701  0.1654  0.6549  0.0146
  400MOL0     H53937  10.436   2.527   2.551 -0.3439 -1.1054  2.0458
  400MOL0     H53938  10.552   2.476   2.437 -0.2518  2.4421  1.4060
  400MOL0     H53939  10.391   2.251   2.419 -1.9301 -0.3570 -2.2465
  400MOL0     H53940  10.280   2.360   2.494  0.3652 -0.0795  0.5999
  400MOL0     H53941  10.418   2.423   2.227  0.3875 -1.1389  0.8598
  400MOL0     H53942  10.264   2.346   2.241 -0.2180 -1.2866  0.6205
  400MOL0     H53943  10.168   2.531   2.376  1.8491  1.0274  2.5071
  400MOL0     H53944  10.311   2.624   2.342 -0.6992  1.1520 -0.1549
  400MOL0     H53945  10.293   2.633   2.106  0.1189 -2.2846 -1.5548
  400MOL0     H53946  10.175   2.510   2.100 -0.3238  0.6516  0.6260
  400MOL0     H53947  10.009   2.630   2.203  2.1563 -3.2991  0.1532
  400MOL0     H53948  10.114   2.769   2.247 -2.5961 -1.3084  2.6817
  400MOL0     H53949  10.074   2.677   1.960  0.7127 -0.1204 -0.5437
  400MOL0     H53950  10.151   2.824   2.019 -0.8335  0.5546  1.2282
  400MOL0     H53951   9.802   2.675   2.008 -0.6300 -0.0738  1.0423
  400MOL0     H53952   9.549   2.796   2.011  1.0626  1.5065 -1.4090
  400MOL0     H53953   9.573   2.797   2.185 -1.6168 -0.6508 -1.0934
  400MOL0     H53954   9.531   3.042   2.003 -3.3701  3.2275  1.5108
  400MOL0     H53955   9.550   3.046   2.178 -0.3554 -0.0811  0.5924
  400MOL0     H53956   9.330   3.075   2.142  2.5468  1.3819 -1.0083
  400MOL0     H53957   9.331   2.888   2.138  2.3147 -1.7847 -2.1871
  400MOL0     H53958   9.369   2.968   1.877 -0.2409  0.1497 -1.3210
  400MOL0     H53959   9.277   3.104   1.932 -1.3033 -0.3409 -0.5464
  400MOL0     H53960   9.101   3.163   1.972 -0.0166 -0.6921 -2.4823
  400MOL0     H53961   8.803   3.293   2.120  2.0141  0.2949  1.1317
  400MOL0     H53962   8.970   3.338   2.078 -0.1602  1.2813 -1.4886
  400MOL0     H53963   8.850   3.355   1.953  0.1875 -1.8260 -1.3531
  400MOL0     H53964   8.354   2.904   1.965  0.7706 -0.3106  0.0925
  400MOL0     H53965   8.113   2.945   2.035 -1.8565  0.1842  2.0589
  400MOL0     H53966   8.022   3.069   2.455  1.1824 -0.2828 -1.0787
  400MOL0     H53967   8.021   3.230   2.368  0.2329  0.0887  1.9342
  400MOL0     H53968   7.802   3.024   2.365 -1.8117  0.4015  1.2219
  400MOL0     H53969   7.794   3.186   2.431 -0.2421  0.3287 -0.7820
  400MOL0     H53970   7.827   3.130   2.125  0.8110  0.7278 -0.6764
  400MOL0     H53971   7.833   3.288   2.211  0.5624  0.5541 -2.8171
  400MOL0     H53972   7.600   3.087   2.209 -1.9491  0.8911  1.1318
  400MOL0     H53973   7.608   3.228   2.305 -2.4102  2.0500 -2.0881
  400MOL0     H53974   7.654   3.245   2.007  1.9727 -0.2020  1.4099
  400MOL0     H53975   7.649   3.384   2.108  1.7135 -0.5200 -2.8925
  400MOL0     H53976   7.411   3.185   2.052 -1.4712  0.3735  0.4375
  400MOL0     H53977   7.416   3.313   2.176 -0.1942 -0.8276  0.2149
  400MOL0     H53978   7.446   3.338   1.872 -0.5276 -0.0309 -0.2634
  400MOL0     H53979   7.498   3.461   1.992 -0.1477  0.2663  1.4778
  400MOL0     H53980   7.259   3.512   1.906 -1.5976 -1.5114 -0.2454
  400MOL0     H53981   7.272   3.473   2.079 -1.9183  0.4102 -0.4774
  400MOL0     H53982   8.262   3.103   2.405 -0.1678  0.8230 -0.5169
  400MOL0     H53983   8.482   3.082   2.325  0.6049  1.2170 -0.8607
  400MOL0     H53984   8.757   2.822   2.004  1.1872 -1.7641 -0.9380
  400MOL0     H53985   8.990   2.772   1.954  2.3731  0.9805  1.0662
  400MOL0     H53986  10.599   2.268   2.899 -0.3972  0.9413  0.3855
  400MOL0     H53987  10.785   2.148   3.007  1.2713 -1.1223 -1.7189
  400MOL0     H53988  11.421   2.244   2.890  1.3077 -0.7887 -1.3299
  400MOL0     H53989  11.610   2.079   2.908  0.8374  0.3387 -0.9200
  400MOL0     H53990  11.535   1.675   3.154 -0.1848 -0.2886  0.3824
  400MOL0     H53991  11.484   1.678   2.988  1.3737 -2.6253 -1.5576
  400MOL0     H53992  11.703   1.639   2.908  0.8530  0.5041  0.6221
  400MOL0     H53993  11.658   1.513   3.021 -2.5297 -0.3370 -2.6242
  400MOL0     H53994  11.800   1.750   3.141 -1.7622 -0.3174  0.0299
  400MOL0     H53995  11.892   1.652   3.014  0.8744  0.0699  1.0089
  400MOL0     H53996  11.841   1.438   3.144 -1.8269 -0.7587 -0.2206
  400MOL0     H53997  11.766   1.532   3.267  0.2778 -3.0786 -0.9148
  400MOL0     H53998  12.162   1.556   3.380 -1.6354 -0.6566  1.2006
  400MOL0     H53999  11.331   1.813   3.111 -2.8706 -1.5293 -2.4548
  400MOL0     H54000  11.145   1.976   3.062  0.4858 -0.0414 -0.4861
  401MOL0     O54001   2.971   4.325   0.116 -0.5946  0.5249  0.5666
  401MOL0     C54002   3.089   4.306   0.141 -0.4799  0.0764 -0.3082
  401MOL0     O54003   3.162   4.365   0.242  0.4053 -1.0843  0.2123
  401MOL0     C54004   3.092   4.442   0.334  1.4408  0.2726  0.0821
  401MOL0     C54005   3.052   4.575   0.311 -0.0971  0.2940 -0.1655
  401MOL0     C54006   2.991   4.657   0.409 -0.1205 -0.1134 -0.0083
  401MOL0     C54007   2.960   4.608   0.536  0.6227  0.9109  0.4430
  401MOL0     O54008   2.884   4.684   0.623  0.6552 -0.3414 -0.4507
  401MOL0     C54009   2.898   4.651   0.763  0.4140 -0.2772  0.0923
  401MOL0     C54010   2.830   4.757   0.847  0.3631 -1.0127 -0.9619
  401MOL0     C54011   2.686   4.801   0.791  0.1514 -0.0291 -0.6077
  401MOL0     C54012   2.624   4.870   0.912 -0.4436 -0.3521 -0.5935
  401MOL0     C54013   2.483   4.917   0.890  0.0460  0.1587 -0.5837
  401MOL0     C54014   2.439   4.993   1.006  0.4046  0.7545 -0.2045
  401MOL0     C54015   2.291   5.022   0.992  0.6862 -0.0858 -0.3332
  401MOL0     C54016   2.258   5.136   0.898 -0.0368 -0.5371 -0.3970
  401MOL0     N54017   2.117   5.161   0.866 -0.2138  0.2557 -0.5419
  401MOL0     C54018   2.067   5.226   0.757 -1.3232 -0.0908 -0.7582
  401MOL0     C54019   1.933   5.222   0.778  0.3946 -0.7638 -0.3972
  401MOL0     C54020   1.822   5.282   0.692  0.6989 -0.1615  1.5569
  401MOL0     C54021   1.684   5.227   0.734 -0.8618 -0.5160 -0.2495
  401MOL0     C54022   1.583   5.308   0.645  0.8268 -0.2977 -0.6803
  401MOL0     C54023   1.588   5.270   0.501 -0.6917 -0.7614 -0.1202
  401MOL0     O54024   1.477   5.315   0.426  0.9528  0.5136  0.1950
  401MOL0     C54025   1.360   5.258   0.465  1.0629  0.5438  0.3596
  401MOL0     C54026   1.355   5.125   0.509 -0.4067  0.4990  0.0431
  401MOL0     C54027   1.236   5.056   0.551  0.1049 -0.2561 -0.0081
  401MOL0     C54028   1.249   4.916   0.590  0.1764  0.6419  0.1971
  401MOL0     C54029   1.111   5.130   0.546  0.1581 -0.3576  0.1888
  401MOL0     C54030   0.973   5.072   0.569  0.0115 -0.3178 -0.2371
  401MOL0     O54031   0.871   5.160   0.543 -0.0887 -1.1611  0.2265
  401MOL0     C54032   0.749   5.101   0.544  0.6184  0.3491  0.1793
  401MOL0     C54033   0.684   5.061   0.665  0.3360  0.0249 -0.2290
  401MOL0     C54034   0.546   5.024   0.663 -0.1279 -0.3443  0.2013
  401MOL0     C54035   0.479   5.014   0.540  0.9813  0.7794  0.1828
  401MOL0     O54036   0.343   4.979   0.545  0.2027  0.1737 -0.2963
  401MOL0     C54037   0.246   4.992   0.443  0.4350 -0.0095  0.3578
  401MOL0     C54038   0.123   4.907   0.471 -0.6213  0.6241 -0.4667
  401MOL0     C54039   0.023   4.920   0.360  0.2013 -0.0824  1.0168
  401MOL0     C54040  -0.079   4.814   0.379  0.0059  0.0484  0.6629
  401MOL0     C54041  -0.203   4.834   0.290 -0.3551  0.4531 -0.0329
  401MOL0     C54042  -0.314   4.736   0.336 -0.4489 -0.6460  0.1770
  401MOL0     C54043  -0.448   4.798   0.281  0.6161  0.5684 -0.1312
  401MOL0     C54044  -0.561   4.697   0.313  0.6313  1.2790 -0.2399
  401MOL0    Cl54045  -0.694   4.729   0.196  0.0311 -0.2579 -0.3142
  401MOL0     C54046   0.547   5.047   0.417  0.5177 -0.1576 -0.2325
  401MOL0     C54047   0.678   5.087   0.421  0.5450 -0.3174 -0.1287
  401MOL0     O54048   0.954   4.948   0.604 -0.1370 -0.4402 -0.1392
  401MOL0     C54049   1.118   5.269   0.502  0.5176 -0.4123  1.0677
  401MOL0     C54050   1.241   5.329   0.460  0.0846  0.3460  0.0452
  401MOL0     N54051   1.906   5.158   0.902  0.5930 -0.0094  1.0301
  401MOL0     N54052   2.020   5.123   0.955  0.1566 -0.3675  0.1681
  401MOL0     C54053   2.999   4.473   0.565 -0.2613  1.0693  0.6543
  401MOL0     C54054   3.055   4.389   0.463  0.0104  0.1199 -0.2604
  401MOL0     C54055   3.153   4.200   0.061  0.4373  0.3219 -0.6861
  401MOL0     C54056   3.077   4.124  -0.033  0.5704  0.2296 -0.3118
  401MOL0     C54057   3.138   4.047  -0.131  0.0920 -0.5685  0.1238
  401MOL0     C54058   3.271   4.021  -0.116  0.0472  0.7794  0.5556
  401MOL0     O54059   3.319   3.930  -0.209 -0.0179 -0.0599  0.0992
  401MOL0     C54060   3.459   3.890  -0.218  0.1598  0.0985 -0.1573
  401MOL0     C54061   3.470   3.737  -0.257  0.4214 -0.3353  0.3581
  401MOL0     C54062   3.404   3.702  -0.389 -0.0258  0.6028 -0.0087
  401MOL0     C54063   3.407   3.556  -0.401 -0.1189 -0.1988  0.4493
  401MOL0     C54064   3.342   3.543  -0.536  0.6487 -0.5272 -0.0415
  401MOL0     C54065   3.277   3.522  -0.631 -0.2115 -0.7110  0.2621
  401MOL0     C54066   3.344   4.091  -0.016  0.1651 -0.1700  0.9847
  401MOL0     C54067   3.293   4.178   0.071  1.0077  0.0058  0.1378
  401MOL0     H54068   3.064   4.609   0.209 -0.1099  0.6777 -0.0422
  401MOL0     H54069   2.957   4.755   0.377  0.7025 -0.1206 -0.9410
  401MOL0     H54070   2.843   4.558   0.783 -1.2952 -0.1257 -3.1865
  401MOL0     H54071   3.002   4.645   0.797 -0.5746  1.5182  4.0097
  401MOL0     H54072   2.819   4.706   0.943 -2.2403  0.1869 -0.5363
  401MOL0     H54073   2.893   4.845   0.862 -0.3299 -0.9265  1.9407
  401MOL0     H54074   2.702   4.871   0.709  2.2288 -0.4962 -0.6730
  401MOL0     H54075   2.624   4.715   0.767  1.6142 -1.3862  0.2509
  401MOL0     H54076   2.632   4.809   1.003 -0.8129 -0.4666 -0.6347
  401MOL0     H54077   2.685   4.960   0.925  0.2653 -0.6955 -1.3897
  401MOL0     H54078   2.481   4.979   0.800  1.2457  0.6135 -0.3147
  401MOL0     H54079   2.424   4.826   0.874  1.5724 -0.6797 -1.7465
  401MOL0     H54080   2.455   4.938   1.099 -0.9679  1.8965  0.7641
  401MOL0     H54081   2.496   5.086   1.013  0.6852  0.7386 -1.8007
  401MOL0     H54082   2.253   4.925   0.958  0.6896 -0.0974 -0.3033
  401MOL0     H54083   2.234   5.038   1.084 -1.4832 -0.3332 -1.5652
  401MOL0     H54084   2.313   5.123   0.804 -0.0088 -0.9260 -0.3312
  401MOL0     H54085   2.308   5.220   0.947  0.7761 -1.4945  0.4837
  401MOL0     H54086   2.112   5.264   0.666  0.6502  1.1382  0.6379
  401MOL0     H54087   1.822   5.391   0.677  1.1424 -0.4964 -1.7129
  401MOL0     H54088   1.853   5.239   0.596 -0.3244 -0.8795  1.5354
  401MOL0     H54089   1.661   5.235   0.840 -1.2143  2.1624 -0.4500
  401MOL0     H54090   1.673   5.124   0.701  0.6642 -0.3588 -1.4178
  401MOL0     H54091   1.596   5.416   0.657  1.7737 -0.2235 -2.0678
  401MOL0     H54092   1.485   5.282   0.685  0.9144  0.4788  0.0443
  401MOL0     H54093   1.598   5.162   0.487 -2.7983 -0.6940 -3.3387
  401MOL0     H54094   1.670   5.328   0.459 -2.4826  2.6284  0.6825
  401MOL0     H54095   1.441   5.059   0.513  0.5802  1.6606 -1.2522
  401MOL0     H54096   1.333   4.892   0.657  2.6140  1.3663 -2.4144
  401MOL0     H54097   1.164   4.871   0.642  0.4827 -1.4156 -0.9725
  401MOL0     H54098   1.255   4.861   0.496 -0.4719 -0.9387  1.0259
  401MOL0     H54099   0.726   5.075   0.764 -0.4779  2.6587 -0.1766
  401MOL0     H54100   0.478   5.016   0.747  0.2951  3.9231  1.1797
  401MOL0     H54101   0.219   5.098   0.446  1.8813  0.4869 -1.5277
  401MOL0     H54102   0.292   4.959   0.349  0.2353 -0.2581  0.3487
  401MOL0     H54103   0.152   4.802   0.480  2.1357  1.3665  0.4079
  401MOL0     H54104   0.076   4.932   0.566 -1.0143  2.2271 -1.0560
  401MOL0     H54105   0.067   4.901   0.262  1.6900 -0.9979  1.8164
  401MOL0     H54106  -0.012   5.024   0.364  2.5146  0.7824  0.6033
  401MOL0     H54107  -0.036   4.716   0.360  0.8495  0.1378  1.9147
  401MOL0     H54108  -0.114   4.806   0.483  0.4492 -1.4537  0.7200
  401MOL0     H54109  -0.181   4.827   0.183  0.4211  0.6628  0.1011
  401MOL0     H54110  -0.243   4.935   0.302 -1.7351  0.0513 -1.0356
  401MOL0     H54111  -0.299   4.641   0.285 -0.6196 -1.0086  0.7902
  401MOL0     H54112  -0.313   4.722   0.445 -1.8477 -3.9101 -0.1253
  401MOL0     H54113  -0.448   4.825   0.176 -1.9656  2.7088  0.3184
  401MOL0     H54114  -0.474   4.892   0.331 -2.5250 -0.0841 -0.3579
  401MOL0     H54115  -0.600   4.716   0.413  1.3612 -0.8094  0.5097
  401MOL0     H54116  -0.530   4.592   0.302 -0.5747  0.6105  2.0781
  401MOL0     H54117   0.492   5.061   0.325 -1.5848  2.5739  1.2956
  401MOL0     H54118   0.733   5.115   0.332  1.2281 -4.0675 -1.0440
  401MOL0     H54119   1.030   5.329   0.482  2.1773  0.8865 -3.5957
  401MOL0     H54120   1.234   5.428   0.415  1.0100 -0.4141 -1.8628
  401MOL0     H54121   2.991   4.424   0.661  1.5938 -1.7290 -0.4722
  401MOL0     H54122   3.080   4.286   0.482  0.8047  0.3905  0.2002
  401MOL0     H54123   2.971   4.141  -0.047  0.1625 -0.2779  1.8995
  401MOL0     H54124   3.076   4.013  -0.214 -1.9217  0.4858  1.1233
  401MOL0     H54125   3.507   3.942  -0.302 -0.3218  0.8512  0.0201
  401MOL0     H54126   3.523   3.894  -0.130  1.4321 -3.3894 -0.7593
  401MOL0     H54127   3.420   3.688  -0.173 -2.1787 -0.7606 -1.2933
  401MOL0     H54128   3.574   3.709  -0.270  1.2416  2.0400  1.2653
  401MOL0     H54129   3.456   3.754  -0.471  0.3161  0.1892 -0.0619
  401MOL0     H54130   3.302   3.739  -0.382 -0.5914 -1.2012  2.6766
  401MOL0     H54131   3.345   3.511  -0.323 -0.2496  1.2370  1.2129
  401MOL0     H54132   3.507   3.512  -0.402 -0.9212 -2.1294 -0.8131
  401MOL0     H54133   3.215   3.510  -0.717 -0.4876  0.6697  0.2476
  401MOL0     H54134   3.448   4.067   0.002 -0.0820 -2.9547 -0.7579
  401MOL0     H54135   3.345   4.240   0.143  0.8342 -0.4821  0.6916
  402MOL0     O54136   2.887   4.380  10.019 -0.5079  0.5697  0.4588
  402MOL0     C54137   2.893   4.388   9.898  0.4166  0.1688  0.3421
  402MOL0     O54138   2.784   4.392   9.809  0.3319 -0.0337  0.0883
  402MOL0     C54139   2.656   4.375   9.854  0.3204  0.1049  0.6084
  402MOL0     C54140   2.604   4.254   9.913  0.4388  0.1206  0.0943
  402MOL0     C54141   2.467   4.241   9.923 -0.3803  0.4805 -0.3408
  402MOL0     C54142   2.378   4.335   9.881  0.0014  0.2626  0.6788
  402MOL0     O54143   2.238   4.321   9.900  0.1038 -0.1143  0.2552
  402MOL0     C54144   2.181   4.424   9.981 -0.3737 -0.1259 -0.2168
  402MOL0     C54145   2.043   4.366  10.020 -0.5924 -0.3261  0.8442
  402MOL0     C54146   1.974   4.455  10.120 -0.5301  0.4224  0.8588
  402MOL0     C54147   1.863   4.377  10.197 -0.6390  0.4151  0.4130
  402MOL0     C54148   1.797   4.457  10.299  0.0865 -0.6451 -0.1969
  402MOL0     C54149   1.661   4.393  10.337  0.2009 -0.9968  0.1350
  402MOL0     C54150   1.600   4.476  10.450  0.1073  0.0738 -0.3017
  402MOL0     C54151   1.545   4.614  10.399  1.1012 -0.0305 -0.2318
  402MOL0     N54152   1.477   4.681  10.513  0.0442  0.0945 -0.2702
  402MOL0     C54153   1.524   4.694  10.644 -0.3855  0.2429  0.0828
  402MOL0     C54154   1.427   4.761  10.715  0.3366  0.1113 -0.1617
  402MOL0     C54155   1.434   4.792  10.861  0.9218 -0.4080  0.2708
  402MOL0     C54156   1.335   4.712  10.951  0.4263 -0.6033  0.0033
  402MOL0     C54157   1.186   4.739  10.948  0.4179 -0.7199 -0.1976
  402MOL0     C54158   1.125   4.720  11.087  0.6831  0.4842  0.7841
  402MOL0     O54159   1.101   4.583  11.113  0.3568 -0.3026  1.2186
  402MOL0     C54160   0.969   4.548  11.108 -0.1692 -0.6206 -0.0977
  402MOL0     C54161   0.901   4.502  11.222 -1.2006  0.2024 -0.4699
  402MOL0     C54162   0.768   4.470  11.234  0.5445 -0.7332 -0.1057
  402MOL0     C54163   0.713   4.421  11.365  0.1183 -0.2087 -0.2530
  402MOL0     C54164   0.695   4.473  11.114 -0.6596  0.9352 -0.0268
  402MOL0     C54165   0.553   4.431  11.104 -0.0358  0.3662  0.8196
  402MOL0     O54166   0.496   4.474  10.986  0.4344  0.4995  0.5410
  402MOL0     C54167   0.377   4.424  10.953 -0.5182 -0.4288  1.0426
  402MOL0     C54168   0.267   4.490  11.001 -0.3287 -0.2466 -0.2855
  402MOL0     C54169   0.140   4.444  10.961 -0.2979  0.2699  0.4210
  402MOL0     C54170   0.122   4.335  10.872  0.2630 -0.7736 -0.5112
  402MOL0     O54171  -0.005   4.301  10.832 -0.1318  0.2971 -0.8016
  402MOL0     C54172  -0.025   4.346  10.694 -0.2562  0.1167 -0.3923
  402MOL0     C54173  -0.141   4.277  10.633 -0.2105  0.1761 -0.1888
  402MOL0     C54174  -0.151   4.296  10.482  0.1056 -0.4028  0.3488
  402MOL0     C54175  -0.295   4.254  10.437  0.1641 -1.1273  1.4355
  402MOL0     C54176  -0.295   4.266  10.282  0.4461 -0.2844  0.3943
  402MOL0     C54177  -0.424   4.209  10.227  0.2767  0.0606 -0.0912
  402MOL0     C54178  -0.434   4.217  10.070  0.3920  0.0488  0.2247
  402MOL0     C54179  -0.462   4.362  10.012 -0.4847  0.2972  1.0234
  402MOL0    Cl54180  -0.602   4.441  10.086  0.9579 -0.0203 -0.2990
  402MOL0     C54181   0.240   4.269  10.821 -0.5637  0.7715 -0.0310
  402MOL0     C54182   0.365   4.318  10.864  0.4498  0.4824  0.2207
  402MOL0     O54183   0.503   4.354  11.179 -0.0977 -0.4007 -0.1989
  402MOL0     C54184   0.760   4.526  10.998  0.2467 -0.0188  0.5056
  402MOL0     C54185   0.885   4.570  10.994  0.1680 -0.3736 -0.9806
  402MOL0     N54186   1.326   4.779  10.628 -0.2316 -0.6973  1.0807
  402MOL0     N54187   1.343   4.731  10.510 -0.0577 -0.7334 -0.7547
  402MOL0     C54188   2.427   4.454   9.822  0.5362  0.2859 -0.3224
  402MOL0     C54189   2.566   4.469   9.817  0.6688 -0.3894  0.9830
  402MOL0     C54190   3.029   4.393   9.836  0.2506 -0.0349  0.5983
  402MOL0     C54191   3.060   4.361   9.707  0.9515 -0.4420 -0.1976
  402MOL0     C54192   3.190   4.389   9.657 -0.0072  0.4803 -0.5595
  402MOL0     C54193   3.299   4.433   9.743  0.3064  0.2015  0.8642
  402MOL0     O54194   3.422   4.460   9.687  0.1996  0.5610  0.0253
  402MOL0     C54195   3.544   4.453   9.760 -0.2300 -0.2788 -0.4720
  402MOL0     C54196   3.575   4.319   9.813  0.3367  0.6787  0.6457
  402MOL0     C54197   3.548   4.193   9.723 -0.3972  0.1584  0.3306
  402MOL0     C54198   3.667   4.166   9.634  0.0219 -0.0165 -0.0317
  402MOL0     C54199   3.786   4.119   9.703 -1.1175 -0.4621 -0.0501
  402MOL0     C54200   3.872   4.091   9.783 -0.6349  0.6141 -0.3170
  402MOL0     C54201   3.268   4.448   9.881 -0.1679  0.2028 -0.5167
  402MOL0     C54202   3.137   4.430   9.920 -0.0832 -1.0263  0.0438
  402MOL0     H54203   2.669   4.169   9.935 -1.9110 -1.5675  0.8566
  402MOL0     H54204   2.428   4.150   9.968 -1.5821  1.6884  1.2028
  402MOL0     H54205   2.242   4.438  10.070 -0.1525 -0.7682 -0.2607
  402MOL0     H54206   2.172   4.521   9.931 -0.9621  0.7696  1.5242
  402MOL0     H54207   1.975   4.358   9.934 -2.6506 -3.1047  2.5572
  402MOL0     H54208   2.057   4.267  10.065 -0.4700 -1.2281 -1.0609
  402MOL0     H54209   2.044   4.497  10.192 -2.0646  4.3151  0.3372
  402MOL0     H54210   1.940   4.539  10.058  1.3058  0.6155  0.0496
  402MOL0     H54211   1.793   4.344  10.120  2.5793 -0.9022 -2.2116
  402MOL0     H54212   1.909   4.293  10.250  2.3301  1.4650 -0.2700
  402MOL0     H54213   1.862   4.458  10.387  0.6519  1.0973 -0.5847
  402MOL0     H54214   1.786   4.559  10.259  1.0194  0.6829  2.6386
  402MOL0     H54215   1.593   4.403  10.252  0.8098  2.1805 -0.0955
  402MOL0     H54216   1.692   4.292  10.364  1.6380 -0.9981 -1.3291
  402MOL0     H54217   1.530   4.414  10.507 -1.1461  1.4545 -0.2763
  402MOL0     H54218   1.685   4.496  10.517 -0.0051  1.1629 -0.4790
  402MOL0     H54219   1.472   4.602  10.318  0.8854 -1.4993  0.1434
  402MOL0     H54220   1.624   4.683  10.369  1.6099  0.4719  2.0207
  402MOL0     H54221   1.619   4.658  10.683 -0.8693 -1.6866 -0.4311
  402MOL0     H54222   1.536   4.766  10.891  0.8864 -0.8634  0.0179
  402MOL0     H54223   1.424   4.900  10.874 -0.1479 -0.2506 -1.4090
  402MOL0     H54224   1.373   4.749  11.046  0.2168  0.5231 -0.3414
  402MOL0     H54225   1.364   4.607  10.937  1.0839 -0.8494  2.6442
  402MOL0     H54226   1.137   4.673  10.876 -0.1365 -3.3176  2.3592
  402MOL0     H54227   1.179   4.845  10.920 -0.4024 -1.1458 -1.6800
  402MOL0     H54228   1.034   4.780  11.091 -0.6987 -1.3287 -1.2500
  402MOL0     H54229   1.187   4.753  11.171  1.7833  1.0439 -0.2175
  402MOL0     H54230   0.973   4.500  11.303 -0.4201  0.1514 -1.1543
  402MOL0     H54231   0.669   4.321  11.372 -0.5506 -0.0276 -1.5371
  402MOL0     H54232   0.797   4.427  11.435  1.9615  0.0670 -2.3722
  402MOL0     H54233   0.640   4.489  11.411 -0.3129  0.2755 -1.6143
  402MOL0     H54234   0.278   4.578  11.064  1.9557 -1.3479  0.9652
  402MOL0     H54235   0.053   4.501  10.992  0.6516  1.4228  1.0595
  402MOL0     H54236  -0.037   4.455  10.695  0.4626  0.2120 -1.4351
  402MOL0     H54237   0.065   4.306  10.648  0.4297 -2.9566  3.1607
  402MOL0     H54238  -0.129   4.172  10.661 -1.3942  0.3845  1.2529
  402MOL0     H54239  -0.235   4.315  10.675 -1.4248 -1.6141 -1.1775
  402MOL0     H54240  -0.084   4.233  10.424 -0.4795  0.5862 -1.4805
  402MOL0     H54241  -0.120   4.399  10.465  1.6394 -0.4509  2.4379
  402MOL0     H54242  -0.300   4.150  10.471  1.5540 -0.7876  2.7579
  402MOL0     H54243  -0.378   4.311  10.480 -0.5430  2.9025 -4.1770
  402MOL0     H54244  -0.210   4.208  10.244 -0.5645 -1.5106 -0.0494
  402MOL0     H54245  -0.282   4.370  10.251  2.4456 -0.4977  0.3574
  402MOL0     H54246  -0.438   4.104  10.254 -2.5975 -0.0771 -1.7409
  402MOL0     H54247  -0.508   4.264  10.270 -0.4526 -2.0409  1.2979
  402MOL0     H54248  -0.521   4.157  10.043  0.2753  0.0542  0.5828
  402MOL0     H54249  -0.344   4.167  10.031 -0.3424 -1.6429  0.6160
  402MOL0     H54250  -0.484   4.345   9.906 -2.3463 -0.7699  1.5229
  402MOL0     H54251  -0.369   4.417  10.029  1.0468 -2.2351  1.4133
  402MOL0     H54252   0.234   4.189  10.749  1.6936 -0.7290  1.3167
  402MOL0     H54253   0.457   4.281  10.820  0.4432  0.1619  0.4740
  402MOL0     H54254   0.702   4.538  10.907 -0.3409 -0.2121  0.8463
  402MOL0     H54255   0.927   4.620  10.907  0.7280  2.1041  0.6038
  402MOL0     H54256   2.356   4.526   9.783  1.9725  0.5061 -2.6651
  402MOL0     H54257   2.603   4.557   9.765 -1.6531  0.1533  0.1237
  402MOL0     H54258   2.987   4.323   9.636 -0.7029  1.1804  0.5418
  402MOL0     H54259   3.218   4.371   9.553  1.8954 -2.2689  0.3215
  402MOL0     H54260   3.623   4.482   9.690  0.3723  2.9249  1.3228
  402MOL0     H54261   3.551   4.534   9.833 -1.5069  0.8012 -1.4981
  402MOL0     H54262   3.517   4.304   9.905  3.5863 -0.3226  2.7000
  402MOL0     H54263   3.679   4.316   9.848  0.7123 -0.3866 -0.4857
  402MOL0     H54264   3.462   4.211   9.657  1.5441  0.5017 -2.2535
  402MOL0     H54265   3.516   4.106   9.782  2.1448 -0.5242  0.8097
  402MOL0     H54266   3.699   4.253   9.576 -0.3837 -0.6188 -1.1886
  402MOL0     H54267   3.648   4.095   9.552  2.2522  0.5485 -1.1276
  402MOL0     H54268   3.947   4.064   9.855 -0.3119 -3.5189 -1.9721
  402MOL0     H54269   3.345   4.482   9.950  0.9830 -2.7130 -0.2305
  402MOL0     H54270   3.117   4.479  10.014  1.0035  2.8666 -1.5613
  403MOL0     O54271   1.495  10.965   8.031  0.0496 -0.1210  0.9062
  403MOL0     C54272   1.529  10.961   7.916 -0.2086  0.2079 -0.6384
  403MOL0     O54273   1.446  10.970   7.809  0.1098  0.6951  0.7342
  403MOL0     C54274   1.311  10.973   7.818 -0.4555 -0.1024  0.3960
  403MOL0     C54275   1.245  11.054   7.720  0.1969 -0.0343 -0.4544
  403MOL0     C54276   1.106  11.050   7.704 -0.5101 -0.1854  0.6029
  403MOL0     C54277   1.030  10.991   7.804  0.0168  0.2938 -0.3215
  403MOL0     O54278   0.890  11.008   7.801 -0.7641  0.0455  0.2824
  403MOL0     C54279   0.814  10.963   7.918 -0.7062  0.1424  0.2076
  403MOL0     C54280   0.664  10.998   7.914 -0.8260 -0.6218 -0.7227
  403MOL0     C54281   0.590  10.915   7.812 -0.0499 -0.0316  0.6010
  403MOL0     C54282   0.437  10.936   7.845  0.5369  0.8062  0.4395
  403MOL0     C54283   0.354  10.862   7.738 -0.0947  0.2930 -0.1539
  403MOL0     C54284   0.209  10.899   7.754  0.2005  0.4432  1.0160
  403MOL0     C54285   0.120  10.833   7.643  0.8696 -0.1108 -0.0232
  403MOL0     C54286  -0.028  10.849   7.680 -0.0702  0.3084 -0.3208
  403MOL0     N54287  -0.123  10.832   7.565 -0.1852  0.2109 -0.0628
  403MOL0     C54288  -0.246  10.765   7.571  0.0612  0.2898  1.0957
  403MOL0     C54289  -0.307  10.774   7.443 -0.3489  0.0556 -0.1564
  403MOL0     C54290  -0.437  10.723   7.396 -0.0675  0.3733  0.0939
  403MOL0     C54291  -0.548  10.755   7.492 -0.0379 -0.2247 -0.1017
  403MOL0     C54292  -0.673  10.677   7.467 -0.0225  0.0561  0.5297
  403MOL0     C54293  -0.798  10.731   7.544 -0.8767  0.9649  0.8354
  403MOL0     O54294  -0.837  10.866   7.491 -0.0696  0.0467  0.5656
  403MOL0     C54295  -0.952  10.921   7.534  0.0056  0.6396 -0.6868
  403MOL0     C54296  -0.992  11.041   7.474  0.6947  0.4848  0.1135
  403MOL0     C54297  -1.097  11.128   7.522  0.5309  1.2446 -0.6660
  403MOL0     C54298  -1.125  11.256   7.438 -1.1931  0.7678  0.3177
  403MOL0     C54299  -1.190  11.068   7.616 -0.0675 -0.1817 -0.9447
  403MOL0     C54300  -1.317  11.140   7.662 -0.1777 -0.6991 -0.3706
  403MOL0     O54301  -1.359  11.257   7.603  0.1265 -0.5430  0.3648
  403MOL0     C54302  -1.498  11.297   7.596  0.2517 -0.1289 -0.4531
  403MOL0     C54303  -1.605  11.205   7.610  0.1074  0.2316  0.2798
  403MOL0     C54304  -1.738  11.256   7.611 -0.3768 -0.4873  0.5727
  403MOL0     C54305  -1.774  11.390   7.591  0.3896 -0.4085 -0.0070
  403MOL0     O54306  -1.896  11.456   7.581 -0.2894  0.4782  0.2758
  403MOL0     C54307  -2.004  11.370   7.609  0.2136  0.9520 -0.3910
  403MOL0     C54308  -2.136  11.452   7.590 -0.0199  0.1795 -0.3337
  403MOL0     C54309  -2.256  11.363   7.632 -0.4003 -0.3658  0.3905
  403MOL0     C54310  -2.391  11.433   7.617  0.1103  0.5978  0.5148
  403MOL0     C54311  -2.527  11.346   7.637 -0.8742  0.0088 -0.5570
  403MOL0     C54312  -2.645  11.448   7.627  0.3189  1.0754 -0.7496
  403MOL0     C54313  -2.773  11.376   7.608 -0.5529 -0.5068 -0.3540
  403MOL0     C54314  -2.886  11.482   7.626 -0.3103 -0.2093 -0.2793
  403MOL0    Cl54315  -2.885  11.568   7.785 -0.2758 -0.0234  0.4822
  403MOL0     C54316  -1.661  11.472   7.558  0.3115 -0.6135  0.6016
  403MOL0     C54317  -1.529  11.434   7.570  0.0788 -0.2071 -0.4590
  403MOL0     O54318  -1.379  11.071   7.740  0.3131 -0.2594  0.2257
  403MOL0     C54319  -1.156  10.937   7.671  0.3545  0.3837 -0.3910
  403MOL0     C54320  -1.040  10.866   7.632 -0.5232 -0.0437  0.0855
  403MOL0     N54321  -0.224  10.855   7.363 -0.0741 -0.8559 -1.1404
  403MOL0     N54322  -0.117  10.884   7.436 -0.2001 -0.6263  0.9436
  403MOL0     C54323   1.090  10.914   7.896 -0.3318 -0.7609  0.0784
  403MOL0     C54324   1.228  10.899   7.902 -0.5910 -1.2651  0.4334
  403MOL0     C54325   1.677  10.962   7.885  0.9133  0.3266 -0.4202
  403MOL0     C54326   1.762  11.007   7.982  0.3011  0.1158  0.4219
  403MOL0     C54327   1.894  10.996   7.974 -0.2885  0.3307 -0.6863
  403MOL0     C54328   1.954  10.937   7.854 -0.0340  0.1667 -0.5412
  403MOL0     O54329   2.085  10.927   7.834  0.3236  0.4813 -0.3674
  403MOL0     C54330   2.171  10.899   7.948  0.3394  0.8947  0.0601
  403MOL0     C54331   2.314  10.902   7.917  0.1658  0.0767  0.2728
  403MOL0     C54332   2.342  10.785   7.827  0.1913 -1.3279  0.0824
  403MOL0     C54333   2.494  10.754   7.807 -0.0802 -0.6608 -0.2183
  403MOL0     C54334   2.517  10.611   7.795  0.7543 -0.3805 -0.1679
  403MOL0     C54335   2.534  10.490   7.783  0.4938 -0.6724 -0.4575
  403MOL0     C54336   1.871  10.901   7.751 -0.1039 -0.3850  0.3100
  403MOL0     C54337   1.732  10.921   7.758 -0.3709  0.3811 -0.7129
  403MOL0     H54338   1.301  11.121   7.656  0.1180  0.8062  0.3388
  403MOL0     H54339   1.056  11.104   7.625  1.9700  0.0708 -0.8906
  403MOL0     H54340   0.823  10.854   7.913  0.5344  0.2977 -2.4530
  403MOL0     H54341   0.844  10.995   8.019 -0.5233 -1.1684  0.5896
  403MOL0     H54342   0.618  10.971   8.009  1.1220 -0.1653  0.4164
  403MOL0     H54343   0.651  11.104   7.894  1.5952 -0.0734  0.2408
  403MOL0     H54344   0.606  10.941   7.707 -3.3178  1.2684  0.2918
  403MOL0     H54345   0.603  10.808   7.831  1.5153  0.4107  2.3288
  403MOL0     H54346   0.409  10.887   7.938  1.0701 -4.5416 -1.8361
  403MOL0     H54347   0.419  11.043   7.845  2.9932  1.3160  2.5572
  403MOL0     H54348   0.385  10.889   7.637 -0.0711  0.6501 -0.0515
  403MOL0     H54349   0.355  10.753   7.748  0.3032  0.3854  0.9219
  403MOL0     H54350   0.186  10.866   7.855 -0.1945  0.7550  1.0279
  403MOL0     H54351   0.194  11.008   7.750 -3.9787  0.0020 -0.5940
  403MOL0     H54352   0.144  10.887   7.551  0.7527  0.4538  0.2765
  403MOL0     H54353   0.139  10.727   7.625  0.9646  0.1410 -1.5232
  403MOL0     H54354  -0.037  10.951   7.720  5.1590  0.0542  2.2809
  403MOL0     H54355  -0.058  10.781   7.760 -3.1475 -0.2131 -1.7660
  403MOL0     H54356  -0.304  10.703   7.639 -3.3893 -0.3157 -2.0621
  403MOL0     H54357  -0.458  10.759   7.295 -0.3188  0.4586  0.1746
  403MOL0     H54358  -0.440  10.614   7.389 -1.1562  0.1578  2.7143
  403MOL0     H54359  -0.560  10.863   7.479 -0.4253 -0.2275  0.1979
  403MOL0     H54360  -0.522  10.745   7.598 -2.4174 -0.1899  0.5446
  403MOL0     H54361  -0.651  10.573   7.496  0.8602 -0.5912 -2.1969
  403MOL0     H54362  -0.694  10.666   7.360  1.0244  1.7163  0.1232
  403MOL0     H54363  -0.785  10.750   7.651 -1.0945  2.1873  0.6611
  403MOL0     H54364  -0.879  10.658   7.538 -0.1446  0.2043 -0.0312
  403MOL0     H54365  -0.928  11.085   7.398  0.3260 -1.0041 -1.0974
  403MOL0     H54366  -1.224  11.244   7.395 -1.1125  1.2238  0.0017
  403MOL0     H54367  -1.125  11.341   7.508  0.9246 -0.0267  1.3673
  403MOL0     H54368  -1.050  11.272   7.360 -1.5969  0.3956 -0.1450
  403MOL0     H54369  -1.573  11.102   7.621  2.9173  1.2247  2.7545
  403MOL0     H54370  -1.816  11.184   7.632 -2.1594  1.5239  1.2755
  403MOL0     H54371  -2.010  11.290   7.534  3.0561  0.9721 -0.7741
  403MOL0     H54372  -1.999  11.327   7.710  0.3901 -0.6977 -1.0628
  403MOL0     H54373  -2.133  11.544   7.649 -1.5030  0.8807 -1.2847
  403MOL0     H54374  -2.148  11.490   7.488  1.3186  3.5124  0.6202
  403MOL0     H54375  -2.247  11.327   7.734  1.4841 -0.7458  0.1119
  403MOL0     H54376  -2.258  11.278   7.563 -3.4617 -0.3422  0.2925
  403MOL0     H54377  -2.393  11.524   7.678 -0.3479  0.6734  0.3854
  403MOL0     H54378  -2.377  11.467   7.513  1.7228 -1.0386  0.1454
  403MOL0     H54379  -2.515  11.300   7.736 -0.7486  2.1779  0.4988
  403MOL0     H54380  -2.538  11.258   7.573  1.6166 -2.1260  1.6497
  403MOL0     H54381  -2.648  11.505   7.720 -0.6237  1.7615 -1.1848
  403MOL0     H54382  -2.630  11.515   7.542 -0.9480  2.2698 -0.0795
  403MOL0     H54383  -2.786  11.287   7.670 -0.4846 -1.3497 -1.5143
  403MOL0     H54384  -2.774  11.335   7.507  0.5055 -0.6562 -0.3142
  403MOL0     H54385  -2.985  11.437   7.616 -0.6478  0.7833 -1.8774
  403MOL0     H54386  -2.864  11.558   7.550 -1.7392  0.4440 -0.0788
  403MOL0     H54387  -1.688  11.576   7.542  1.2758 -0.5144 -0.4581
  403MOL0     H54388  -1.455  11.514   7.566  0.6805 -0.7737 -0.9708
  403MOL0     H54389  -1.227  10.880   7.730 -0.4525  2.4960  0.7983
  403MOL0     H54390  -1.031  10.762   7.661 -1.4268 -0.8299 -2.2164
  403MOL0     H54391   1.043  10.853   7.973  3.2642 -0.9243  2.3499
  403MOL0     H54392   1.271  10.848   7.988 -0.5149  1.5709  2.1806
  403MOL0     H54393   1.719  11.049   8.073 -0.7120  0.6508 -0.2901
  403MOL0     H54394   1.949  11.040   8.056 -0.6417  0.0352 -0.2834
  403MOL0     H54395   2.156  10.979   8.021  0.1942 -0.0569  1.0918
  403MOL0     H54396   2.145  10.807   8.001 -0.1311  1.0310  0.0690
  403MOL0     H54397   2.374  10.902   8.009  1.6961  1.3997 -0.6885
  403MOL0     H54398   2.320  11.000   7.869 -1.9233 -0.0773 -0.3930
  403MOL0     H54399   2.286  10.792   7.734  0.8119 -2.8239 -0.4274
  403MOL0     H54400   2.305  10.704   7.890 -0.7051  1.1451  2.9773
  403MOL0     H54401   2.545  10.772   7.902  2.7142 -1.5399 -1.4359
  403MOL0     H54402   2.540  10.810   7.725 -1.1469 -1.5746 -1.4869
  403MOL0     H54403   2.540  10.385   7.763 -1.3264 -1.0670  0.7825
  403MOL0     H54404   1.900  10.862   7.654 -0.0606 -2.5948  1.1719
  403MOL0     H54405   1.667  10.894   7.676 -2.5133  0.0637  0.9784
  404MOL0     O54406   8.839   7.020  11.298  0.1662  0.2922 -0.8294
  404MOL0     C54407   8.852   7.140  11.318  0.3078 -0.2373 -1.1047
  404MOL0     O54408   8.761   7.214  11.383 -0.6684 -0.2166  0.0318
  404MOL0     C54409   8.657   7.146  11.437  0.4533  0.0585  0.7726
  404MOL0     C54410   8.666   7.110  11.572  0.2252  0.2103  0.2908
  404MOL0     C54411   8.555   7.043  11.624 -0.7313 -0.4290 -0.1427
  404MOL0     C54412   8.435   7.012  11.544 -0.0465 -0.1567  0.4172
  404MOL0     O54413   8.318   6.960  11.599 -0.0459 -0.4935  0.4333
  404MOL0     C54414   8.324   6.874  11.711 -0.8342  0.4561 -0.1580
  404MOL0     C54415   8.198   6.786  11.712  0.1528 -0.8746 -0.8057
  404MOL0     C54416   8.081   6.889  11.695  0.3563  0.6323  0.5042
  404MOL0     C54417   7.948   6.822  11.744 -0.0077 -0.7721  0.3999
  404MOL0     C54418   7.832   6.933  11.739  0.7726  0.2696 -0.1106
  404MOL0     C54419   7.828   7.007  11.607  0.0243 -0.8555  0.3459
  404MOL0     C54420   7.701   7.093  11.598  0.3767  0.4368  0.8073
  404MOL0     C54421   7.581   7.010  11.547  0.6361 -0.6077 -0.0494
  404MOL0     N54422   7.463   6.996  11.639 -0.5664 -0.0311 -0.0504
  404MOL0     C54423   7.408   6.878  11.689 -0.2808  0.0117 -0.0396
  404MOL0     C54424   7.293   6.923  11.746 -0.5947 -0.1545 -1.0282
  404MOL0     C54425   7.190   6.833  11.808 -0.1965 -0.2275  0.1225
  404MOL0     C54426   7.055   6.853  11.756  0.3121 -0.5078  0.3862
  404MOL0     C54427   6.955   6.781  11.850 -0.5572 -0.1178  0.3902
  404MOL0     C54428   6.809   6.827  11.835  0.1972 -0.4877  0.2831
  404MOL0     O54429   6.712   6.749  11.909  0.8712  0.0995  0.3728
  404MOL0     C54430   6.585   6.800  11.900  0.2711  0.5306  0.0867
  404MOL0     C54431   6.472   6.716  11.874 -1.2925  1.2976  0.0953
  404MOL0     C54432   6.346   6.760  11.850  0.5871  0.7862 -0.5226
  404MOL0     C54433   6.252   6.644  11.794 -0.6583 -0.7162 -0.3316
  404MOL0     C54434   6.317   6.902  11.854  0.0782 -0.3824  1.1181
  404MOL0     C54435   6.179   6.959  11.833  0.3211  0.1593 -0.3856
  404MOL0     O54436   6.075   6.864  11.833  0.0156 -0.4863 -0.0405
  404MOL0     C54437   5.948   6.917  11.835 -0.8536 -1.3126 -0.1355
  404MOL0     C54438   5.866   6.893  11.729  0.1323  0.4677 -0.1683
  404MOL0     C54439   5.730   6.933  11.741 -0.9844  0.4964  0.2796
  404MOL0     C54440   5.681   6.995  11.859  0.2839 -0.5229 -0.9391
  404MOL0     O54441   5.542   7.020  11.871 -0.1260 -0.0728  0.0955
  404MOL0     C54442   5.496   7.112  11.959  0.6230 -0.1398  0.2833
  404MOL0     C54443   5.344   7.081  11.947  0.1490  0.4846 -0.0630
  404MOL0     C54444   5.259   7.165  12.045 -0.4364 -0.8960 -0.3354
  404MOL0     C54445   5.275   7.317  12.013  0.6064 -0.2642  0.3762
  404MOL0     C54446   5.198   7.403  12.118  0.0976 -0.1116 -0.0903
  404MOL0     C54447   5.062   7.348  12.162  0.2147 -0.3277  1.2562
  404MOL0     C54448   4.981   7.455  12.233 -0.6627  0.7128  0.1550
  404MOL0     C54449   4.842   7.437  12.271  0.4357  0.1532  1.1059
  404MOL0    Cl54450   4.782   7.576  12.364 -0.4285 -0.3256  0.3502
  404MOL0     C54451   5.774   7.036  11.958  0.2954  0.2925  0.6975
  404MOL0     C54452   5.906   6.996  11.945 -0.6654 -0.1481  0.9262
  404MOL0     O54453   6.170   7.083  11.807 -0.1205  0.3576 -0.2162
  404MOL0     C54454   6.429   6.987  11.861  0.0333  0.7402  1.4161
  404MOL0     C54455   6.556   6.938  11.886  0.2933  0.1110 -0.8465
  404MOL0     N54456   7.282   7.065  11.726  0.2538  0.1943 -1.0739
  404MOL0     N54457   7.382   7.103  11.663 -0.2867 -0.3038  0.4477
  404MOL0     C54458   8.432   7.060  11.410  0.2007  0.4181  0.5712
  404MOL0     C54459   8.546   7.121  11.358 -0.6524  0.6401 -0.3434
  404MOL0     C54460   8.961   7.201  11.240  0.2416  0.1837  0.9135
  404MOL0     C54461   9.042   7.125  11.154  0.5903 -0.1128 -0.4849
  404MOL0     C54462   9.161   7.177  11.098  0.9965 -0.1118  0.1540
  404MOL0     C54463   9.197   7.308  11.120  0.0763  0.5784 -0.3637
  404MOL0     O54464   9.292   7.379  11.053  0.0626  0.3375  0.6365
  404MOL0     C54465   9.368   7.310  10.952 -0.0484  0.4238  0.1968
  404MOL0     C54466   9.453   7.408  10.858  0.2501  0.2383  0.5878
  404MOL0     C54467   9.576   7.466  10.929 -0.1659  0.2411 -0.6592
  404MOL0     C54468   9.540   7.551  11.054  0.0589 -0.0442  0.4553
  404MOL0     C54469   9.449   7.662  11.022 -0.8348 -0.6383  0.3582
  404MOL0     C54470   9.380   7.757  11.015  0.5054 -0.4035 -1.1671
  404MOL0     C54471   9.102   7.390  11.189  0.1285  0.3016  0.5682
  404MOL0     C54472   8.989   7.340  11.256 -0.6969  0.2219 -0.6938
  404MOL0     H54473   8.752   7.132  11.636 -0.4392 -0.7024  1.5586
  404MOL0     H54474   8.551   7.012  11.728 -1.8168  3.2682  1.0555
  404MOL0     H54475   8.413   6.810  11.712 -1.3802 -0.5110 -3.4697
  404MOL0     H54476   8.323   6.931  11.805  3.5278  0.6947 -0.0360
  404MOL0     H54477   8.198   6.716  11.628  0.0552  1.6076 -2.9948
  404MOL0     H54478   8.179   6.723  11.799 -3.5955 -1.9405 -2.2031
  404MOL0     H54479   8.102   6.978  11.755 -0.3686  0.5797  0.8449
  404MOL0     H54480   8.070   6.919  11.590  2.0737  0.3568  0.2222
  404MOL0     H54481   7.920   6.741  11.675 -0.8463 -0.5379  0.4533
  404MOL0     H54482   7.952   6.777  11.844 -1.9866 -1.4893  0.1993
  404MOL0     H54483   7.736   6.883  11.755  0.7107  0.3643 -0.1763
  404MOL0     H54484   7.852   7.008  11.816  2.8007  1.0413 -1.2992
  404MOL0     H54485   7.916   7.071  11.608  0.5320 -1.5267 -0.1741
  404MOL0     H54486   7.826   6.951  11.512 -2.3367 -0.4768  0.1002
  404MOL0     H54487   7.683   7.145  11.693  2.0383 -0.0334  1.4200
  404MOL0     H54488   7.713   7.166  11.517 -0.1205  1.8047  1.9278
  404MOL0     H54489   7.617   6.911  11.520 -0.3789 -1.0553  0.1799
  404MOL0     H54490   7.536   7.059  11.460  1.3073  0.0231 -0.0541
  404MOL0     H54491   7.451   6.779  11.679  4.1756  1.8516 -1.0839
  404MOL0     H54492   7.220   6.729  11.790  0.1736  0.2885 -2.8256
  404MOL0     H54493   7.185   6.848  11.916 -2.9137 -0.3649  0.0845
  404MOL0     H54494   7.048   6.822  11.651  0.1997  0.7707 -0.0021
  404MOL0     H54495   7.036   6.961  11.752 -1.2064 -0.7773 -1.1531
  404MOL0     H54496   6.983   6.788  11.956 -0.5006 -3.3653  0.7009
  404MOL0     H54497   6.947   6.673  11.830 -3.9928  0.1824 -0.5981
  404MOL0     H54498   6.783   6.828  11.729  1.4945 -1.3887 -0.0735
  404MOL0     H54499   6.819   6.927  11.879  2.1367 -1.5962  2.5812
  404MOL0     H54500   6.504   6.612  11.864 -2.8912  0.7438  0.4371
  404MOL0     H54501   6.319   6.576  11.739  0.8362 -0.4080  1.0381
  404MOL0     H54502   6.195   6.589  11.870 -0.2302  3.0333  3.0083
  404MOL0     H54503   6.182   6.691  11.725 -1.2160  3.6417  2.8414
  404MOL0     H54504   5.911   6.849  11.640 -2.4520  0.5281 -1.6108
  404MOL0     H54505   5.665   6.918  11.655  2.2072 -1.9195 -1.9370
  404MOL0     H54506   5.535   7.100  12.061  1.4253  0.6597  0.0853
  404MOL0     H54507   5.506   7.211  11.915  0.8744 -0.4806 -0.4340
  404MOL0     H54508   5.305   7.103  11.848 -2.2745  1.2028  0.9732
  404MOL0     H54509   5.335   6.977  11.981  2.4138 -1.1866 -3.8718
  404MOL0     H54510   5.295   7.143  12.146  2.9951  1.0729 -0.9639
  404MOL0     H54511   5.155   7.136  12.027 -1.1954 -0.2694  2.5397
  404MOL0     H54512   5.377   7.354  12.027 -0.7084  3.4730  1.2185
  404MOL0     H54513   5.245   7.345  11.911  0.4386  0.3764  0.5990
  404MOL0     H54514   5.185   7.501  12.073 -2.4907 -0.6696 -0.6904
  404MOL0     H54515   5.262   7.413  12.207  1.2545 -1.0515 -0.7876
  404MOL0     H54516   5.003   7.320  12.074 -1.8025  4.6450  0.7113
  404MOL0     H54517   5.083   7.259  12.221  1.6342 -0.0581  1.1891
  404MOL0     H54518   4.984   7.552  12.183  0.8879  0.4617 -0.2942
  404MOL0     H54519   5.040   7.472  12.324  1.3660  1.5032 -1.2349
  404MOL0     H54520   4.823   7.348  12.331 -1.5946  0.1836  0.5826
  404MOL0     H54521   4.789   7.409  12.180 -2.4110 -1.4341  3.0839
  404MOL0     H54522   5.750   7.086  12.051 -2.0678 -2.2448  1.5922
  404MOL0     H54523   5.971   7.027  12.027  1.5978 -0.3103 -0.6973
  404MOL0     H54524   6.421   7.095  11.864  1.8497  0.9430  0.4578
  404MOL0     H54525   6.630   7.013  11.913 -1.8154  2.2805 -0.7848
  404MOL0     H54526   8.348   7.049  11.342  1.4227 -3.0184 -0.5871
  404MOL0     H54527   8.551   7.164  11.258  1.2680 -0.6100 -0.8327
  404MOL0     H54528   9.011   7.022  11.141  3.3215 -1.0254 -0.4098
  404MOL0     H54529   9.210   7.102  11.036 -0.4449  0.0255 -1.2301
  404MOL0     H54530   9.438   7.234  10.988  0.8257  0.3994 -1.4699
  404MOL0     H54531   9.304   7.253  10.885  1.0267 -2.1179  1.2040
  404MOL0     H54532   9.394   7.492  10.823  1.2171  0.7610  0.1555
  404MOL0     H54533   9.496   7.368  10.765 -0.1616  1.7624 -0.2939
  404MOL0     H54534   9.643   7.522  10.863  1.1046 -0.1192  0.2918
  404MOL0     H54535   9.644   7.386  10.961 -0.8195 -0.3484 -0.7258
  404MOL0     H54536   9.631   7.586  11.104  0.0305  2.5021 -1.1395
  404MOL0     H54537   9.484   7.487  11.124 -0.0520 -0.1872  0.2356
  404MOL0     H54538   9.328   7.851  11.010 -0.1601 -0.7466 -0.8712
  404MOL0     H54539   9.114   7.494  11.215  1.7441  0.6904 -1.4377
  404MOL0     H54540   8.920   7.399  11.315  0.2590 -2.3741  3.5126
  405MOL0     O54541   2.826   1.575   0.731 -0.3407 -0.0331  0.0963
  405MOL0     C54542   2.835   1.452   0.720  0.7283 -0.7481 -0.1425
  405MOL0     O54543   2.726   1.366   0.687 -0.5917  0.8111  0.1211
  405MOL0     C54544   2.605   1.413   0.642  0.7175  0.2344 -1.1584
  405MOL0     C54545   2.578   1.520   0.553 -0.4405  0.5130 -0.6515
  405MOL0     C54546   2.445   1.564   0.530 -0.0259 -0.7726  0.1190
  405MOL0     C54547   2.330   1.484   0.580  0.1810  0.0740 -0.2075
  405MOL0     O54548   2.194   1.502   0.566 -0.1476 -0.0278 -0.0732
  405MOL0     C54549   2.158   1.629   0.499  0.2757 -0.3271  0.3439
  405MOL0     C54550   2.010   1.606   0.442 -0.9393  0.5318  0.0842
  405MOL0     C54551   1.958   1.735   0.383 -1.0217 -0.5004  0.4779
  405MOL0     C54552   1.803   1.734   0.363 -1.2120  0.1178 -0.2388
  405MOL0     C54553   1.739   1.877   0.376  0.2388 -0.1999  0.0839
  405MOL0     C54554   1.594   1.883   0.345 -0.6564  0.9494 -0.1676
  405MOL0     C54555   1.545   2.035   0.357  0.2067 -0.6642 -0.3346
  405MOL0     C54556   1.389   2.058   0.347  0.0283 -0.2130  0.3646
  405MOL0     N54557   1.318   2.030   0.474 -0.0039  0.0062 -0.0178
  405MOL0     C54558   1.302   2.123   0.570 -0.7009  0.4443 -0.0962
  405MOL0     C54559   1.231   2.061   0.664  0.5826  0.2625  0.7808
  405MOL0     C54560   1.197   2.131   0.784  0.1334 -0.0977  0.8767
  405MOL0     C54561   1.081   2.240   0.765 -0.0565 -0.0975 -0.0478
  405MOL0     C54562   0.938   2.179   0.743 -0.4596 -0.5911  0.3139
  405MOL0     C54563   0.889   2.182   0.597  0.1546 -0.4033  0.0054
  405MOL0     O54564   0.863   2.319   0.562 -0.5593  1.1249 -0.2603
  405MOL0     C54565   0.737   2.369   0.549 -0.0411 -0.3068  0.1623
  405MOL0     C54566   0.709   2.494   0.603 -0.5837  0.9403 -0.3430
  405MOL0     C54567   0.582   2.560   0.613  0.9754  0.1118 -0.9552
  405MOL0     C54568   0.569   2.696   0.678 -0.2165  0.6818 -0.5133
  405MOL0     C54569   0.469   2.486   0.565 -0.1203 -0.1139  0.2717
  405MOL0     C54570   0.320   2.528   0.563 -0.0203 -0.4845 -0.9012
  405MOL0     O54571   0.258   2.477   0.449  0.4872  0.5769  0.1639
  405MOL0     C54572   0.133   2.537   0.428  0.3592  0.0223  0.0549
  405MOL0     C54573   0.106   2.670   0.399 -0.4120 -0.1494 -0.6470
  405MOL0     C54574  -0.022   2.721   0.376  0.8226  0.3870  0.7768
  405MOL0     C54575  -0.126   2.625   0.390  0.1635 -0.2770  0.3576
  405MOL0     O54576  -0.258   2.650   0.371  0.6835  0.4610  0.0143
  405MOL0     C54577  -0.297   2.779   0.309  0.0061  0.0960  0.2152
  405MOL0     C54578  -0.451   2.783   0.296  0.4827  0.7036  0.3630
  405MOL0     C54579  -0.501   2.905   0.207 -0.2084 -0.1628  0.7964
  405MOL0     C54580  -0.644   2.925   0.227 -0.6229  0.5892 -0.4251
  405MOL0     C54581  -0.718   3.032   0.153 -0.6803 -0.5532  0.4214
  405MOL0     C54582  -0.749   2.994   0.003  1.2017 -0.2390 -1.0388
  405MOL0     C54583  -0.850   3.091  -0.061 -0.2326 -0.2377 -0.9601
  405MOL0     C54584  -0.974   3.132   0.027  0.1633  0.6024 -0.5102
  405MOL0    Cl54585  -1.078   2.994   0.069 -0.5445 -0.0563  0.0771
  405MOL0     C54586  -0.106   2.489   0.431 -0.5133 -0.3694 -0.3678
  405MOL0     C54587   0.026   2.444   0.453  0.4257  0.5150 -0.3985
  405MOL0     O54588   0.269   2.588   0.660  0.0257 -0.0351 -0.1759
  405MOL0     C54589   0.498   2.358   0.503  0.0454  0.0782 -0.4882
  405MOL0     C54590   0.623   2.294   0.495 -0.4228 -0.3235 -0.1826
  405MOL0     N54591   1.191   1.935   0.630 -0.5361 -0.1407  0.8855
  405MOL0     N54592   1.242   1.922   0.508 -0.3095  0.4011  0.1111
  405MOL0     C54593   2.355   1.371   0.658  0.7339  0.0428  0.6883
  405MOL0     C54594   2.489   1.346   0.689 -1.0145  0.5041 -0.3737
  405MOL0     C54595   2.959   1.390   0.732  0.7911  0.6503 -0.3511
  405MOL0     C54596   2.987   1.266   0.673  1.0142 -0.8457 -0.4242
  405MOL0     C54597   3.116   1.213   0.675 -1.2378  0.9421 -0.2707
  405MOL0     C54598   3.213   1.268   0.761 -0.0758  0.0418 -0.1458
  405MOL0     O54599   3.341   1.220   0.783  0.9599 -0.6974  0.5129
  405MOL0     C54600   3.364   1.083   0.789 -0.1651  0.7625  0.4795
  405MOL0     C54601   3.492   1.061   0.863 -1.1337  1.1242  0.5193
  405MOL0     C54602   3.558   0.929   0.829  0.3838 -0.0573  0.5795
  405MOL0     C54603   3.676   0.881   0.907  0.4445  0.6934 -0.4947
  405MOL0     C54604   3.788   0.976   0.899 -0.1975  0.2695 -0.6106
  405MOL0     C54605   3.883   1.045   0.872 -0.6701 -0.0064 -0.4684
  405MOL0     C54606   3.177   1.378   0.837 -0.0011  0.2253 -0.0659
  405MOL0     C54607   3.055   1.441   0.817 -0.2788  0.7990 -0.5386
  405MOL0     H54608   2.654   1.588   0.517  1.3424 -1.0063  0.0851
  405MOL0     H54609   2.436   1.653   0.468  0.6146 -1.1709 -0.5532
  405MOL0     H54610   2.159   1.714   0.567  2.1807  0.0388 -0.0918
  405MOL0     H54611   2.220   1.645   0.410 -1.2438 -4.0249 -1.6276
  405MOL0     H54612   2.005   1.518   0.377  1.0452 -0.2558  0.9171
  405MOL0     H54613   1.952   1.580   0.531  0.2436 -0.4366  0.5921
  405MOL0     H54614   1.979   1.817   0.453  2.6295  0.2419 -1.2431
  405MOL0     H54615   2.004   1.758   0.287 -4.1148  1.7928 -0.6448
  405MOL0     H54616   1.767   1.690   0.270 -0.5782 -3.2439  0.9926
  405MOL0     H54617   1.767   1.648   0.419 -0.5014 -0.4059 -0.5622
  405MOL0     H54618   1.757   1.915   0.478 -0.3018  2.0193 -0.5872
  405MOL0     H54619   1.791   1.941   0.305  1.1407 -0.3345  0.6018
  405MOL0     H54620   1.580   1.851   0.241  4.9511  1.1790 -1.3111
  405MOL0     H54621   1.538   1.824   0.418 -1.1263  1.0920 -0.4091
  405MOL0     H54622   1.583   2.088   0.445  1.9955 -0.0393 -1.4305
  405MOL0     H54623   1.579   2.091   0.270  1.1427 -4.0886 -2.3326
  405MOL0     H54624   1.337   2.008   0.264  1.8273  2.7910 -2.8107
  405MOL0     H54625   1.366   2.163   0.329 -1.9899 -0.2185  2.4488
  405MOL0     H54626   1.359   2.216   0.566  0.8936 -0.5127 -0.2764
  405MOL0     H54627   1.172   2.062   0.865  0.6482  2.3878  3.2967
  405MOL0     H54628   1.290   2.175   0.822  2.5307 -3.0950 -1.0482
  405MOL0     H54629   1.098   2.310   0.683 -2.1870  2.2881  1.3685
  405MOL0     H54630   1.072   2.300   0.856 -2.5209  1.3708 -1.1478
  405MOL0     H54631   0.874   2.251   0.795 -1.6204 -1.6884  0.4502
  405MOL0     H54632   0.925   2.081   0.790  3.1000 -1.8174 -0.8816
  405MOL0     H54633   0.792   2.131   0.591 -1.0308  1.4453  1.9233
  405MOL0     H54634   0.970   2.134   0.542  0.4147  0.7675 -0.6779
  405MOL0     H54635   0.788   2.545   0.656  1.7146 -4.1275  1.7797
  405MOL0     H54636   0.667   2.744   0.688  0.6596 -1.2353  0.7024
  405MOL0     H54637   0.504   2.764   0.621 -1.2412  2.2819  2.3671
  405MOL0     H54638   0.535   2.674   0.779  2.6459 -1.6323  0.0815
  405MOL0     H54639   0.191   2.735   0.379 -0.9350  0.5793 -0.5192
  405MOL0     H54640  -0.044   2.825   0.359  1.6949  0.2659 -1.4420
  405MOL0     H54641  -0.261   2.866   0.365 -1.6183 -0.2579  1.9038
  405MOL0     H54642  -0.252   2.778   0.209 -0.0774 -0.4614  0.1824
  405MOL0     H54643  -0.474   2.693   0.239  0.9015  1.5362 -1.1761
  405MOL0     H54644  -0.501   2.780   0.394 -0.0178 -1.6398  0.0902
  405MOL0     H54645  -0.489   2.885   0.100 -0.4125  2.2481  0.2615
  405MOL0     H54646  -0.445   2.994   0.237  0.0355 -0.0703  0.0756
  405MOL0     H54647  -0.699   2.832   0.219  0.9408 -0.3193 -1.1093
  405MOL0     H54648  -0.644   2.946   0.335 -2.1130  2.4118 -0.7346
  405MOL0     H54649  -0.654   3.121   0.164 -3.0457  1.9485 -3.4230
  405MOL0     H54650  -0.815   3.038   0.201 -0.6871  0.5514  0.3046
  405MOL0     H54651  -0.650   2.989  -0.044  2.3043  2.2721  0.7906
  405MOL0     H54652  -0.787   2.892   0.018  4.2496 -1.1019  2.1929
  405MOL0     H54653  -0.883   3.036  -0.150 -0.4466  0.7612 -1.5146
  405MOL0     H54654  -0.797   3.180  -0.098 -1.2987 -0.2516 -2.6167
  405MOL0     H54655  -1.035   3.208  -0.022 -1.3172  1.3541  2.2905
  405MOL0     H54656  -0.952   3.184   0.121  0.0702 -2.4850  1.3781
  405MOL0     H54657  -0.197   2.431   0.434 -1.2413  0.7656  1.9396
  405MOL0     H54658   0.049   2.347   0.495  1.4363  0.7644 -0.3310
  405MOL0     H54659   0.421   2.305   0.448  1.5757 -2.8672  0.0138
  405MOL0     H54660   0.641   2.205   0.436  1.2931 -1.6206  2.1399
  405MOL0     H54661   2.280   1.304   0.699 -1.5471  0.0909 -2.9362
  405MOL0     H54662   2.508   1.262   0.756  1.5682 -0.5906 -2.3098
  405MOL0     H54663   2.922   1.216   0.601  2.2630 -0.3964 -1.9228
  405MOL0     H54664   3.128   1.124   0.614 -2.6435  0.2524  0.4009
  405MOL0     H54665   3.283   1.025   0.834  0.5345  0.8767  1.9207
  405MOL0     H54666   3.374   1.055   0.683 -2.0653 -1.0379  0.7189
  405MOL0     H54667   3.472   1.059   0.970 -0.0706 -0.8462  0.7393
  405MOL0     H54668   3.564   1.141   0.844  0.3739 -0.7942 -2.9726
  405MOL0     H54669   3.588   0.933   0.724 -0.5366 -3.8897  0.0117
  405MOL0     H54670   3.476   0.857   0.830  0.5181 -0.2813 -1.4678
  405MOL0     H54671   3.701   0.784   0.863 -0.0154  0.1984  0.3128
  405MOL0     H54672   3.652   0.864   1.012 -1.2247 -0.6505 -1.0686
  405MOL0     H54673   3.960   1.111   0.837  0.8930 -0.9134  1.0857
  405MOL0     H54674   3.255   1.432   0.890  0.2203  0.1377 -0.3015
  405MOL0     H54675   3.045   1.536   0.869  0.4307  0.8274 -0.4423
  406MOL0     O54676   2.091  10.590   9.123 -0.3384  0.5100  0.4096
  406MOL0     C54677   2.136  10.496   9.191  0.4038 -0.2663  0.0776
  406MOL0     O54678   2.059  10.406   9.257  0.3831 -0.2779  0.3342
  406MOL0     C54679   1.921  10.418   9.237 -0.1479  0.1795 -0.0697
  406MOL0     C54680   1.844  10.403   9.359 -0.4634 -0.2905 -0.4055
  406MOL0     C54681   1.705  10.400   9.335  0.1898 -0.1216 -0.6302
  406MOL0     C54682   1.641  10.399   9.209  0.9150  0.3866 -0.0170
  406MOL0     O54683   1.506  10.399   9.198 -0.1143  0.1236 -0.5827
  406MOL0     C54684   1.427  10.352   9.312 -0.0988 -0.0175 -0.1225
  406MOL0     C54685   1.280  10.369   9.293  0.2679  0.0319 -0.1814
  406MOL0     C54686   1.221  10.291   9.162  0.8445 -0.0961 -1.0219
  406MOL0     C54687   1.068  10.325   9.155 -0.8692 -0.2560  1.5471
  406MOL0     C54688   0.973  10.229   9.224  0.6736  0.5463 -0.2291
  406MOL0     C54689   0.823  10.265   9.198 -0.7061  0.2639  0.2669
  406MOL0     C54690   0.734  10.185   9.290 -0.5143  0.0346 -0.3542
  406MOL0     C54691   0.601  10.257   9.297  0.8804  1.0090  0.4288
  406MOL0     N54692   0.513  10.224   9.182  0.1916 -0.2425 -0.2817
  406MOL0     C54693   0.382  10.257   9.167  0.7519 -0.1051  0.0529
  406MOL0     C54694   0.343  10.177   9.062  0.8187 -0.2113 -0.1226
  406MOL0     C54695   0.204  10.168   9.014  0.3843  0.1560 -0.1046
  406MOL0     C54696   0.147  10.025   9.017 -0.7604  0.5130 -0.0376
  406MOL0     C54697  -0.005  10.024   9.008  0.4556  0.1487  0.1374
  406MOL0     C54698  -0.047   9.876   8.978  0.5180  0.4244 -0.2061
  406MOL0     O54699  -0.193   9.870   8.993  0.4475 -0.1071  0.2925
  406MOL0     C54700  -0.257   9.752   8.973  0.2548  0.0638 -0.1545
  406MOL0     C54701  -0.200   9.643   8.910 -0.8250  1.5706  0.1045
  406MOL0     C54702  -0.282   9.530   8.883 -0.1089  0.1222  0.2721
  406MOL0     C54703  -0.218   9.415   8.805  0.9046 -0.8037  0.2982
  406MOL0     C54704  -0.425   9.538   8.920  0.0746  0.5647 -0.0021
  406MOL0     C54705  -0.530   9.433   8.875  0.0208  0.5771  0.0091
  406MOL0     O54706  -0.651   9.460   8.911 -0.1911  0.1251 -0.5412
  406MOL0     C54707  -0.748   9.376   8.857  0.0619  0.2831 -0.1672
  406MOL0     C54708  -0.808   9.423   8.737  0.5100 -0.5963 -0.1446
  406MOL0     C54709  -0.907   9.348   8.669 -0.4969 -0.1117 -0.5481
  406MOL0     C54710  -0.945   9.226   8.727 -0.2955 -0.5653  0.2601
  406MOL0     O54711  -1.048   9.151   8.671 -0.1021 -0.0591  1.1685
  406MOL0     C54712  -1.146   9.107   8.762 -0.5411 -0.6319  0.6815
  406MOL0     C54713  -1.281   9.182   8.735 -0.5714  0.4134 -0.3570
  406MOL0     C54714  -1.333   9.159   8.595 -0.4366 -0.5272 -0.6863
  406MOL0     C54715  -1.403   9.022   8.574 -0.3793  0.7797  0.4561
  406MOL0     C54716  -1.501   9.016   8.450  0.0190 -0.1246 -0.4972
  406MOL0     C54717  -1.611   8.907   8.474  0.0662 -0.5446  0.3573
  406MOL0     C54718  -1.730   8.906   8.363 -0.6580 -0.4795 -0.9286
  406MOL0     C54719  -1.691   8.899   8.219  0.1298  0.1936 -0.3474
  406MOL0    Cl54720  -1.580   8.757   8.190  0.2097 -0.0138  0.2142
  406MOL0     C54721  -0.871   9.178   8.845 -0.0100 -0.6333 -0.1905
  406MOL0     C54722  -0.779   9.258   8.914 -1.2015 -1.2972  1.0627
  406MOL0     O54723  -0.496   9.326   8.822  0.1840  0.4210  0.2363
  406MOL0     C54724  -0.477   9.649   8.973 -0.1054 -0.7358  0.0424
  406MOL0     C54725  -0.389   9.755   8.999  0.4453 -0.4437 -0.2371
  406MOL0     N54726   0.456  10.122   9.006 -0.1019 -0.1373  0.0277
  406MOL0     N54727   0.558  10.162   9.073 -0.0389  0.0784  0.6658
  406MOL0     C54728   1.722  10.404   9.101  0.0817 -0.6191  0.1549
  406MOL0     C54729   1.860  10.412   9.114 -0.5138 -0.1308 -1.2299
  406MOL0     C54730   2.286  10.477   9.207  0.7283  0.8065  0.2009
  406MOL0     C54731   2.341  10.392   9.306  0.1264  0.2483  0.4694
  406MOL0     C54732   2.479  10.365   9.303  0.0589  0.7160  0.6088
  406MOL0     C54733   2.557  10.420   9.199  0.3052  0.2664 -0.6243
  406MOL0     O54734   2.689  10.378   9.182 -0.2555  0.2020  0.1505
  406MOL0     C54735   2.752  10.400   9.054  0.4383 -0.4061  0.5469
  406MOL0     C54736   2.899  10.364   9.057  1.1535  0.8664 -0.0986
  406MOL0     C54737   2.965  10.426   9.191  0.6216  0.1051  0.2958
  406MOL0     C54738   3.109  10.426   9.196 -0.2716  0.2110  0.2217
  406MOL0     C54739   3.173  10.560   9.171 -0.3171  0.7817  0.5277
  406MOL0     C54740   3.242  10.658   9.151  0.1743 -0.8723  0.0729
  406MOL0     C54741   2.499  10.505   9.107  0.2781 -0.3627 -0.1725
  406MOL0     C54742   2.367  10.531   9.111  0.0255 -0.6590 -0.7431
  406MOL0     H54743   1.902  10.400   9.451 -2.3305 -2.0959  0.8195
  406MOL0     H54744   1.648  10.400   9.427  0.6502 -0.2386 -0.3473
  406MOL0     H54745   1.458  10.248   9.328  0.7349 -0.3209 -2.9941
  406MOL0     H54746   1.457  10.412   9.399 -0.1630  1.2193 -0.9209
  406MOL0     H54747   1.236  10.333   9.386  3.0538 -1.6350  0.6079
  406MOL0     H54748   1.263  10.477   9.289  0.0117  0.0087  0.3274
  406MOL0     H54749   1.274  10.324   9.072  3.0376 -0.5320  0.0465
  406MOL0     H54750   1.238  10.185   9.182 -3.9312 -1.1234 -1.2407
  406MOL0     H54751   1.054  10.427   9.194  0.1976  1.4131 -2.0241
  406MOL0     H54752   1.047  10.354   9.051 -2.2045 -0.9405  1.6038
  406MOL0     H54753   0.995  10.133   9.178  1.6039  1.1857 -1.1653
  406MOL0     H54754   0.987  10.232   9.332 -0.5280  2.7436 -0.0737
  406MOL0     H54755   0.820  10.374   9.205  1.5846  0.2634  2.5897
  406MOL0     H54756   0.799  10.236   9.095  0.1385  1.3420 -0.2511
  406MOL0     H54757   0.725  10.081   9.257  1.1086 -0.9787  2.1399
  406MOL0     H54758   0.786  10.179   9.386  2.6211  0.5689 -1.8602
  406MOL0     H54759   0.604  10.366   9.304 -2.2282  1.1573  1.2284
  406MOL0     H54760   0.545  10.214   9.381  0.0313 -1.8127 -1.4156
  406MOL0     H54761   0.317  10.320   9.229 -1.7802 -1.2391 -1.3087
  406MOL0     H54762   0.143  10.240   9.069  1.4154  1.2995 -0.4092
  406MOL0     H54763   0.193  10.196   8.908 -0.0030 -1.8141 -0.6241
  406MOL0     H54764   0.191   9.975   9.104  1.3591 -0.5532 -1.6129
  406MOL0     H54765   0.185   9.979   8.925 -1.6800  0.4020 -0.3701
  406MOL0     H54766  -0.047  10.078   8.923 -2.1207 -1.5676  0.2119
  406MOL0     H54767  -0.041  10.061   9.105 -1.0719 -1.5453  0.2655
  406MOL0     H54768  -0.005   9.802   9.047 -1.6427 -2.3799 -1.6848
  406MOL0     H54769  -0.018   9.863   8.873  2.2825 -0.3462  0.3441
  406MOL0     H54770  -0.094   9.640   8.889 -0.6118 -1.7227  1.1023
  406MOL0     H54771  -0.279   9.406   8.714 -2.1399  0.4773  2.0587
  406MOL0     H54772  -0.114   9.444   8.784  1.1911 -0.6981  1.7735
  406MOL0     H54773  -0.213   9.327   8.869  2.0742 -0.2715  0.9633
  406MOL0     H54774  -0.777   9.521   8.702 -2.3657  0.3309 -0.3551
  406MOL0     H54775  -0.957   9.388   8.581  2.5851 -1.3004 -3.0367
  406MOL0     H54776  -1.163   9.000   8.745  1.6644 -0.7693 -1.1855
  406MOL0     H54777  -1.122   9.114   8.869  0.1650 -0.6724  0.5332
  406MOL0     H54778  -1.362   9.153   8.802 -2.8138  1.9651 -2.2477
  406MOL0     H54779  -1.261   9.288   8.750 -2.2539  0.5630  1.1035
  406MOL0     H54780  -1.257   9.171   8.518  2.3278  1.2408  2.1152
  406MOL0     H54781  -1.401   9.243   8.581  3.7377  2.7111 -3.5138
  406MOL0     H54782  -1.325   8.949   8.550 -0.9578  1.1231 -2.8778
  406MOL0     H54783  -1.458   9.005   8.667  0.6872 -0.3470  0.9056
  406MOL0     H54784  -1.449   8.996   8.356 -1.1692  1.0188 -1.4384
  406MOL0     H54785  -1.539   9.117   8.434  1.3160  0.5530  0.5191
  406MOL0     H54786  -1.560   8.811   8.482  0.7530 -0.1608  0.6776
  406MOL0     H54787  -1.652   8.933   8.572 -2.2587  1.9554 -1.1080
  406MOL0     H54788  -1.785   8.999   8.375 -1.4269 -0.8309 -1.6413
  406MOL0     H54789  -1.787   8.816   8.390  1.4630 -0.9809  2.4083
  406MOL0     H54790  -1.634   8.989   8.195 -1.5074  1.1343 -0.8488
  406MOL0     H54791  -1.786   8.898   8.164  0.0209  2.9222 -0.3137
  406MOL0     H54792  -0.898   9.079   8.880 -0.1686 -0.7051 -0.5075
  406MOL0     H54793  -0.740   9.219   9.008  0.0463  1.2541  1.6965
  406MOL0     H54794  -0.581   9.669   8.999 -0.0003 -0.9438  0.6303
  406MOL0     H54795  -0.426   9.841   9.054  0.9342 -0.5208  0.2201
  406MOL0     H54796   1.668  10.414   9.007  0.2982 -1.0193 -0.0131
  406MOL0     H54797   1.922  10.438   9.029 -2.4995  3.0626 -1.8818
  406MOL0     H54798   2.277  10.345   9.380 -1.0698  0.8293 -0.1588
  406MOL0     H54799   2.530  10.307   9.379  1.9986  0.5158 -0.7700
  406MOL0     H54800   2.697  10.349   8.974  2.2756 -0.8550 -0.4946
  406MOL0     H54801   2.739  10.506   9.030 -1.8006 -1.3203 -2.9440
  406MOL0     H54802   2.952  10.412   8.975 -0.0214  1.8522 -0.3001
  406MOL0     H54803   2.922  10.258   9.048  1.7173  0.9944 -0.2134
  406MOL0     H54804   2.940  10.366   9.279  0.7431 -1.6418 -0.8073
  406MOL0     H54805   2.925  10.527   9.198 -1.1784 -0.2453 -2.7332
  406MOL0     H54806   3.146  10.352   9.125  0.1323 -3.8628  4.2160
  406MOL0     H54807   3.145  10.399   9.295  0.7985  2.0645  0.3863
  406MOL0     H54808   3.304  10.742   9.129  0.9367 -1.3185  0.4891
  406MOL0     H54809   2.550  10.561   9.029  1.7332 -0.1605  0.9001
  406MOL0     H54810   2.321  10.588   9.031 -2.4675  1.8762  2.1893
  407MOL0     O54811   2.343   5.949   9.175 -0.2098  0.1211 -0.0451
  407MOL0     C54812   2.333   6.056   9.237  0.4389 -0.7118 -0.5487
  407MOL0     O54813   2.212   6.119   9.264  0.0490 -0.3162 -0.3298
  407MOL0     C54814   2.102   6.074   9.206  0.3545  0.6525 -0.1908
  407MOL0     C54815   2.082   6.088   9.069  0.0074 -0.8629 -0.3992
  407MOL0     C54816   1.958   6.054   9.004 -0.3345 -0.2247  0.5997
  407MOL0     C54817   1.853   5.999   9.077 -0.5057  0.9226  0.6457
  407MOL0     O54818   1.744   5.968   9.002  0.5589  1.3161  0.0711
  407MOL0     C54819   1.670   5.851   9.045  0.6177  0.0438 -0.1723
  407MOL0     C54820   1.584   5.815   8.925 -0.7103 -0.9718  0.3933
  407MOL0     C54821   1.475   5.918   8.919  0.8214 -0.5385 -0.4243
  407MOL0     C54822   1.364   5.881   9.020  0.4141 -0.7803 -0.3533
  407MOL0     C54823   1.288   5.994   9.089 -0.5258 -0.7109 -0.6034
  407MOL0     C54824   1.159   5.941   9.163 -0.0066  0.3683 -0.0512
  407MOL0     C54825   1.068   6.053   9.201  0.6686  0.5030 -0.0387
  407MOL0     C54826   0.982   6.109   9.100 -0.0312  0.0972 -0.6611
  407MOL0     N54827   0.874   6.016   9.072  0.9013  0.0029 -0.6430
  407MOL0     C54828   0.760   5.994   9.152  0.3145  0.1075  0.4508
  407MOL0     C54829   0.699   5.900   9.090  0.4572 -0.2956  1.2182
  407MOL0     C54830   0.571   5.843   9.128 -0.5581 -0.7582 -0.1535
  407MOL0     C54831   0.466   5.821   9.019 -0.0198  0.0192  0.4222
  407MOL0     C54832   0.397   5.950   8.985  0.2302 -0.3341  0.2996
  407MOL0     C54833   0.272   5.928   8.886 -0.4485 -0.4350  0.6178
  407MOL0     O54834   0.169   5.855   8.946  0.4839 -0.1579 -0.5557
  407MOL0     C54835   0.045   5.866   8.890  0.5309  0.7550 -0.6945
  407MOL0     C54836  -0.065   5.833   8.971 -0.4877 -0.9386 -0.3340
  407MOL0     C54837  -0.188   5.850   8.926  0.7279  0.1620 -0.7843
  407MOL0     C54838  -0.302   5.802   9.016 -0.1675 -0.2306  0.0843
  407MOL0     C54839  -0.217   5.903   8.799  0.3146 -0.2169 -1.4521
  407MOL0     C54840  -0.356   5.926   8.744  1.3622  0.3704 -0.1384
  407MOL0     O54841  -0.359   5.961   8.615  0.0309 -0.1317  0.1219
  407MOL0     C54842  -0.477   5.966   8.537  0.4353  0.3155  1.0117
  407MOL0     C54843  -0.575   5.867   8.553  0.9308 -0.2914 -0.6657
  407MOL0     C54844  -0.691   5.870   8.481 -0.2199 -0.1619 -0.1093
  407MOL0     C54845  -0.724   5.979   8.395 -0.1187 -0.0329 -0.2127
  407MOL0     O54846  -0.848   5.968   8.340 -1.1974 -0.2147 -0.3524
  407MOL0     C54847  -0.895   6.060   8.239  0.2043 -0.8392  0.0088
  407MOL0     C54848  -0.963   5.970   8.134  0.8133  0.2365  0.0415
  407MOL0     C54849  -1.109   5.941   8.173  0.2935 -0.8866  0.6198
  407MOL0     C54850  -1.187   5.845   8.075 -0.0705 -0.1816  0.4475
  407MOL0     C54851  -1.330   5.801   8.129  0.8649  0.6868  0.0683
  407MOL0     C54852  -1.440   5.758   8.033  0.2985 -0.7446 -0.3739
  407MOL0     C54853  -1.576   5.723   8.094 -0.2808  0.4708  0.4852
  407MOL0     C54854  -1.676   5.660   7.985 -0.7815 -0.1163  0.3583
  407MOL0    Cl54855  -1.717   5.777   7.852  0.0546 -0.0384 -0.0890
  407MOL0     C54856  -0.628   6.075   8.367 -0.3558  0.5409 -0.0459
  407MOL0     C54857  -0.511   6.069   8.448 -0.1943 -1.0448 -0.1675
  407MOL0     O54858  -0.455   5.930   8.818 -0.9408  0.1220 -0.0424
  407MOL0     C54859  -0.105   5.920   8.721  0.4328  0.3384 -0.2431
  407MOL0     C54860   0.021   5.904   8.764 -0.2160 -0.3852  0.3670
  407MOL0     N54861   0.772   5.854   8.982  0.7922  0.8229 -0.7065
  407MOL0     N54862   0.875   5.926   8.970  0.0978  0.7061  0.0674
  407MOL0     C54863   1.868   5.978   9.218  0.1847 -0.8276 -0.0997
  407MOL0     C54864   1.994   6.013   9.277 -0.9647 -0.3532 -0.7609
  407MOL0     C54865   2.459   6.120   9.281 -1.0420  0.0683 -0.4243
  407MOL0     C54866   2.583   6.051   9.265 -0.8065  0.2491  0.0716
  407MOL0     C54867   2.700   6.103   9.308 -0.0075  0.5348 -0.1437
  407MOL0     C54868   2.705   6.216   9.379 -0.6569  0.5488 -0.3543
  407MOL0     O54869   2.827   6.250   9.437  0.6584 -0.0076  0.2670
  407MOL0     C54870   2.858   6.384   9.430 -0.8305 -0.6101  0.0065
  407MOL0     C54871   3.011   6.400   9.426  0.3417  0.1437  0.3205
  407MOL0     C54872   3.067   6.366   9.282 -0.3754 -0.9393 -0.5500
  407MOL0     C54873   3.219   6.384   9.279 -0.3170  0.1189  0.2424
  407MOL0     C54874   3.277   6.324   9.161  0.8825 -0.6046 -0.8495
  407MOL0     C54875   3.319   6.268   9.066  0.1245  0.8252  0.1367
  407MOL0     C54876   2.587   6.291   9.399  0.4791  0.3853 -0.4545
  407MOL0     C54877   2.467   6.240   9.360  0.3561 -0.5705  0.5615
  407MOL0     H54878   2.159   6.130   9.006 -1.8309 -3.5667 -4.9128
  407MOL0     H54879   1.958   6.064   8.896  2.6646 -0.2536  0.5175
  407MOL0     H54880   1.740   5.771   9.072 -2.2990 -1.8588  2.4757
  407MOL0     H54881   1.610   5.872   9.134  1.0607 -0.1559  0.1823
  407MOL0     H54882   1.650   5.807   8.839  1.5735  2.9080  1.5368
  407MOL0     H54883   1.537   5.718   8.942  0.6645 -1.6498  0.4354
  407MOL0     H54884   1.505   6.019   8.946 -4.5437  1.3786 -0.4889
  407MOL0     H54885   1.426   5.924   8.821  1.5537  0.1387 -0.7538
  407MOL0     H54886   1.295   5.819   8.961  3.0808 -2.7889 -1.5704
  407MOL0     H54887   1.398   5.819   9.104 -4.9290 -4.5038 -0.3797
  407MOL0     H54888   1.355   6.046   9.158 -2.4776  0.1706  0.6969
  407MOL0     H54889   1.269   6.074   9.017 -0.9050  0.2138  0.4919
  407MOL0     H54890   1.108   5.861   9.109  5.8182 -3.0606 -1.3409
  407MOL0     H54891   1.196   5.888   9.251  0.0465 -2.1914 -1.5131
  407MOL0     H54892   1.001   6.013   9.277  0.2704 -1.1106 -1.1581
  407MOL0     H54893   1.126   6.137   9.238  0.2220  0.5531  0.5540
  407MOL0     H54894   1.048   6.115   9.013  1.1134 -1.7909  0.0215
  407MOL0     H54895   0.948   6.207   9.135  0.4024 -0.2534  0.7958
  407MOL0     H54896   0.726   6.031   9.249 -0.3866  2.4890 -0.6371
  407MOL0     H54897   0.594   5.752   9.185 -1.1393  1.0404  3.2368
  407MOL0     H54898   0.531   5.915   9.200 -1.0236  0.1742 -1.3058
  407MOL0     H54899   0.400   5.740   9.053 -1.7454  1.2581  0.1653
  407MOL0     H54900   0.508   5.788   8.923 -3.4003  1.4757 -1.7514
  407MOL0     H54901   0.465   6.031   8.956 -0.2698  0.4675  1.3055
  407MOL0     H54902   0.356   5.980   9.081  1.4563  3.7005 -0.2265
  407MOL0     H54903   0.293   5.872   8.794 -1.3936 -0.9339  0.6869
  407MOL0     H54904   0.227   6.022   8.854  2.7515  0.6517 -1.1307
  407MOL0     H54905  -0.051   5.816   9.077  1.0583  0.5980 -0.2464
  407MOL0     H54906  -0.369   5.887   9.036  0.5759  0.0050  1.7914
  407MOL0     H54907  -0.351   5.724   8.958  0.7867  0.6260 -1.9424
  407MOL0     H54908  -0.269   5.775   9.117 -1.3145 -0.3629  0.4461
  407MOL0     H54909  -0.559   5.776   8.611  2.8100  0.1408 -0.4305
  407MOL0     H54910  -0.764   5.791   8.498  0.1500  0.0587  2.9974
  407MOL0     H54911  -0.965   6.133   8.281  0.8462 -0.8046  1.0562
  407MOL0     H54912  -0.812   6.102   8.182  1.8048 -2.0094  1.3823
  407MOL0     H54913  -0.955   6.019   8.036 -0.1023  0.9960  0.3381
  407MOL0     H54914  -0.905   5.878   8.121 -1.1568 -1.0526  0.0210
  407MOL0     H54915  -1.165   6.035   8.168 -1.2120 -1.8174 -1.1007
  407MOL0     H54916  -1.128   5.902   8.273 -3.2204 -1.6450 -0.2061
  407MOL0     H54917  -1.209   5.894   7.980 -1.5828  2.0665  1.8652
  407MOL0     H54918  -1.128   5.754   8.058 -3.5167 -3.0110  2.1018
  407MOL0     H54919  -1.376   5.872   8.198 -4.4745 -1.2475 -0.9774
  407MOL0     H54920  -1.302   5.711   8.185  3.2344  2.4312  1.8902
  407MOL0     H54921  -1.454   5.825   7.948  1.0647  0.0439  0.1126
  407MOL0     H54922  -1.404   5.663   7.991  1.5944 -2.7407  4.5672
  407MOL0     H54923  -1.625   5.811   8.136 -2.3880 -0.2699 -0.3149
  407MOL0     H54924  -1.572   5.652   8.178 -1.1226 -1.2937 -0.8964
  407MOL0     H54925  -1.769   5.621   8.027 -0.7716 -1.5880 -0.8996
  407MOL0     H54926  -1.617   5.578   7.944 -1.0338  0.4426 -1.1764
  407MOL0     H54927  -0.643   6.155   8.296 -1.8573  0.1284 -0.2428
  407MOL0     H54928  -0.444   6.151   8.421 -1.5501  0.2711  0.3089
  407MOL0     H54929  -0.112   5.948   8.617 -1.1893  2.1662  0.2863
  407MOL0     H54930   0.102   5.914   8.692 -3.3085  0.4371 -3.3195
  407MOL0     H54931   1.788   5.943   9.284 -2.2725  2.2925 -1.1986
  407MOL0     H54932   2.022   6.004   9.381  1.9675  1.0716 -1.3226
  407MOL0     H54933   2.595   5.957   9.212  3.5654 -0.3874  1.7543
  407MOL0     H54934   2.788   6.040   9.294  1.1141  2.1109 -0.4025
  407MOL0     H54935   2.813   6.439   9.347  3.1331 -2.9758 -4.1365
  407MOL0     H54936   2.824   6.425   9.526  1.4189  0.5056  0.4003
  407MOL0     H54937   3.055   6.344   9.508  3.5475  0.2977 -1.1468
  407MOL0     H54938   3.028   6.507   9.445  1.6886  0.7902 -3.6183
  407MOL0     H54939   3.018   6.428   9.206 -3.8619 -0.4780  1.8178
  407MOL0     H54940   3.044   6.263   9.255 -2.4583 -0.3920 -1.0751
  407MOL0     H54941   3.259   6.333   9.367  2.1440  4.6241  2.0638
  407MOL0     H54942   3.241   6.491   9.279 -0.5866  0.1825  1.2484
  407MOL0     H54943   3.344   6.209   8.980  2.7318  1.5961  0.2759
  407MOL0     H54944   2.581   6.390   9.443  0.6121 -1.3624  3.9933
  407MOL0     H54945   2.378   6.301   9.377  0.6109  0.9069 -2.6343
  408MOL0     O54946   5.731   7.739   5.636  0.0077  0.7414  0.1589
  408MOL0     C54947   5.708   7.803   5.531  0.3128  0.3916 -0.2501
  408MOL0     O54948   5.589   7.870   5.513  0.2505 -0.2380 -0.6492
  408MOL0     C54949   5.493   7.864   5.612  0.6606  0.9399  0.9699
  408MOL0     C54950   5.514   7.855   5.753  0.1260  0.5074  0.7484
  408MOL0     C54951   5.402   7.868   5.846  0.4754 -0.5399 -0.8725
  408MOL0     C54952   5.277   7.881   5.795 -0.4829 -0.2006  0.1661
  408MOL0     O54953   5.172   7.880   5.884 -0.4314  0.8483  0.6377
  408MOL0     C54954   5.055   7.960   5.863 -0.3988 -0.5070  0.0159
  408MOL0     C54955   4.985   7.978   6.000  0.0304  0.7888  0.8590
  408MOL0     C54956   4.834   7.975   5.987 -0.5018  0.3078  0.1589
  408MOL0     C54957   4.773   7.917   6.111 -0.7352 -0.1760  0.3744
  408MOL0     C54958   4.618   7.909   6.113  0.1263 -0.5512  0.1299
  408MOL0     C54959   4.556   8.043   6.141 -0.5565 -0.0459  0.3059
  408MOL0     C54960   4.401   8.040   6.158  0.3359  0.3003 -0.9992
  408MOL0     C54961   4.332   8.053   6.021  0.3213  0.9734 -0.0864
  408MOL0     N54962   4.184   8.067   6.041 -0.1499  0.3631 -0.2629
  408MOL0     C54963   4.117   8.140   6.137  0.2304 -0.6399 -0.1301
  408MOL0     C54964   3.983   8.102   6.137 -0.2035 -0.9659  0.0355
  408MOL0     C54965   3.873   8.149   6.216 -0.8791 -0.4078 -0.5998
  408MOL0     C54966   3.747   8.163   6.132 -0.1621  0.0763 -0.1016
  408MOL0     C54967   3.630   8.169   6.226  0.4316 -0.2716  0.7007
  408MOL0     C54968   3.509   8.235   6.168 -0.9186 -0.7159 -0.3398
  408MOL0     O54969   3.419   8.248   6.286  0.1688 -0.0535 -0.1498
  408MOL0     C54970   3.287   8.255   6.261  0.1594 -0.2974  0.0721
  408MOL0     C54971   3.231   8.284   6.138  0.6367  0.3182  0.9650
  408MOL0     C54972   3.090   8.280   6.110  0.0529  0.3572  1.2057
  408MOL0     C54973   3.037   8.308   5.971 -0.5704  0.7087  0.4468
  408MOL0     C54974   3.007   8.252   6.223  0.1406 -0.1460  0.2992
  408MOL0     C54975   2.860   8.268   6.213 -0.7241  0.0458 -0.1416
  408MOL0     O54976   2.817   8.360   6.129  0.3628  0.0866  0.0478
  408MOL0     C54977   2.681   8.386   6.142  0.7347  0.3936  0.7245
  408MOL0     C54978   2.629   8.472   6.237  0.9159  0.1300 -0.5438
  408MOL0     C54979   2.492   8.478   6.249 -0.2862 -0.1955  0.3462
  408MOL0     C54980   2.399   8.390   6.188  0.4143 -1.3577  0.8561
  408MOL0     O54981   2.262   8.403   6.209 -0.0920  0.0694 -0.8314
  408MOL0     C54982   2.173   8.290   6.184  0.6192 -0.5236 -0.4665
  408MOL0     C54983   2.058   8.316   6.282  0.7868 -0.2520  0.1052
  408MOL0     C54984   1.922   8.255   6.239 -0.9956 -0.3146  0.7216
  408MOL0     C54985   1.816   8.273   6.348 -0.4295  0.5263 -1.1309
  408MOL0     C54986   1.678   8.290   6.291  0.3260  0.7228 -0.8839
  408MOL0     C54987   1.575   8.326   6.414 -0.6461 -0.6328  0.8489
  408MOL0     C54988   1.442   8.255   6.386 -0.0458  0.1778 -0.2356
  408MOL0     C54989   1.339   8.314   6.487 -0.3714 -0.3187 -0.6691
  408MOL0    Cl54990   1.169   8.267   6.452 -0.1720  0.3562 -0.3377
  408MOL0     C54991   2.457   8.303   6.094 -0.3724 -0.2530  0.5383
  408MOL0     C54992   2.594   8.299   6.071  0.7217 -0.1816  0.6515
  408MOL0     O54993   2.793   8.180   6.269  0.0801  0.0034  0.5425
  408MOL0     C54994   3.068   8.221   6.345  0.5712 -0.3776 -0.6577
  408MOL0     C54995   3.206   8.221   6.360 -0.0203 -0.1604  0.1277
  408MOL0     N54996   3.986   7.992   6.053  0.5092 -0.0662 -0.1520
  408MOL0     N54997   4.100   7.970   5.998 -0.6272  0.1000 -0.3761
  408MOL0     C54998   5.255   7.874   5.661  0.0395 -1.1476  0.3716
  408MOL0     C54999   5.360   7.873   5.567 -0.1581  1.0981  1.2116
  408MOL0     C55000   5.792   7.800   5.417 -1.0844 -0.3589  0.2531
  408MOL0     C55001   5.759   7.852   5.296 -0.1933  0.2857  0.9726
  408MOL0     C55002   5.854   7.864   5.197 -0.2887  0.2552  0.9767
  408MOL0     C55003   5.986   7.833   5.206  0.4340  0.2235  0.0882
  408MOL0     O55004   6.056   7.847   5.088  0.0429 -0.7765  0.4847
  408MOL0     C55005   6.181   7.798   5.063 -0.5125 -0.2042 -0.1688
  408MOL0     C55006   6.298   7.895   5.041  0.5730  0.1914 -0.2693
  408MOL0     C55007   6.429   7.819   5.012 -0.8927 -0.4412  0.1523
  408MOL0     C55008   6.542   7.910   4.960 -0.0733 -0.8141  0.8071
  408MOL0     C55009   6.614   7.990   5.064  0.4697  0.0086  0.6435
  408MOL0     C55010   6.678   8.052   5.147  0.0848  0.0337 -0.0812
  408MOL0     C55011   6.030   7.792   5.340  0.1941 -0.2186  0.2160
  408MOL0     C55012   5.931   7.774   5.440  0.5429 -0.7225 -0.5360
  408MOL0     H55013   5.614   7.830   5.787  0.2845  0.7588  0.4696
  408MOL0     H55014   5.420   7.875   5.953 -1.3589 -0.0384 -0.5551
  408MOL0     H55015   5.078   8.061   5.828 -0.2546 -0.1781  1.0263
  408MOL0     H55016   4.996   7.900   5.793 -1.5464  0.6174 -0.0200
  408MOL0     H55017   5.023   7.890   6.053  1.3937  0.5524 -0.4565
  408MOL0     H55018   5.022   8.061   6.061 -0.5713 -0.7590  3.4720
  408MOL0     H55019   4.814   8.081   5.970  1.6156  0.7582  0.1924
  408MOL0     H55020   4.796   7.908   5.909 -0.4637 -1.6666  1.7229
  408MOL0     H55021   4.820   7.822   6.137 -0.5209  0.6234  3.1917
  408MOL0     H55022   4.805   7.980   6.195  2.2393 -1.1693  0.1035
  408MOL0     H55023   4.582   7.882   6.013  1.0899 -1.7500  0.0768
  408MOL0     H55024   4.590   7.834   6.188  1.4472 -0.6724  0.5265
  408MOL0     H55025   4.603   8.087   6.230  0.0397  0.5065 -0.2724
  408MOL0     H55026   4.578   8.115   6.062  0.4233  0.6809  1.1975
  408MOL0     H55027   4.371   7.947   6.207  3.2520 -0.0305  0.4352
  408MOL0     H55028   4.380   8.128   6.220  1.7163  0.4637 -0.7162
  408MOL0     H55029   4.356   7.968   5.957 -0.6656 -0.2001  1.0531
  408MOL0     H55030   4.370   8.147   5.978 -0.6309  0.8388 -1.2669
  408MOL0     H55031   4.161   8.226   6.186  1.1036 -1.1498  0.0103
  408MOL0     H55032   3.864   8.084   6.304 -2.3966 -1.7838 -1.7270
  408MOL0     H55033   3.899   8.245   6.263  0.5892 -0.3018 -1.5583
  408MOL0     H55034   3.725   8.083   6.061 -1.4630 -0.5768  0.9920
  408MOL0     H55035   3.750   8.258   6.077 -1.1776  0.1557 -0.0321
  408MOL0     H55036   3.653   8.217   6.322 -0.1888 -3.5919  2.6965
  408MOL0     H55037   3.599   8.067   6.252  0.8362 -1.0717 -1.6738
  408MOL0     H55038   3.469   8.167   6.093 -1.6847 -1.1962  0.4742
  408MOL0     H55039   3.533   8.335   6.129 -0.2908 -1.2660 -1.3915
  408MOL0     H55040   3.292   8.308   6.052 -0.4546  0.9828  0.3484
  408MOL0     H55041   2.953   8.246   5.936  1.3720 -1.6093 -0.4024
  408MOL0     H55042   2.997   8.408   5.956  0.1024  0.7068 -1.7329
  408MOL0     H55043   3.114   8.290   5.895  0.4996 -0.4109  1.7446
  408MOL0     H55044   2.694   8.522   6.307 -2.7848  3.7933  0.7143
  408MOL0     H55045   2.466   8.552   6.324  0.8527  0.1895  0.3913
  408MOL0     H55046   2.131   8.292   6.083  0.5983 -0.3193 -0.4539
  408MOL0     H55047   2.219   8.194   6.208 -0.3095 -1.0542 -0.7533
  408MOL0     H55048   2.098   8.278   6.377  3.9071 -0.0177 -1.0058
  408MOL0     H55049   2.045   8.423   6.299  1.8278  0.4060 -2.6897
  408MOL0     H55050   1.921   8.150   6.207 -1.8034  0.0708 -0.6270
  408MOL0     H55051   1.887   8.312   6.152 -1.7911 -2.1126 -0.1925
  408MOL0     H55052   1.822   8.176   6.399 -2.8800  0.9913  0.2010
  408MOL0     H55053   1.840   8.357   6.413 -1.6010  2.8280 -3.4985
  408MOL0     H55054   1.658   8.186   6.265  2.0863  0.4672 -1.3561
  408MOL0     H55055   1.665   8.354   6.203  1.9224  1.7187 -0.4422
  408MOL0     H55056   1.622   8.309   6.511 -0.7492  3.0209  1.6869
  408MOL0     H55057   1.568   8.435   6.405  0.5684 -0.3354  2.9622
  408MOL0     H55058   1.448   8.147   6.400 -0.7991  0.0740 -0.6046
  408MOL0     H55059   1.411   8.267   6.281  2.8505 -0.2977 -1.2315
  408MOL0     H55060   1.345   8.422   6.497  1.6345 -0.4371 -0.1132
  408MOL0     H55061   1.351   8.263   6.583 -1.6133 -1.8303 -1.2721
  408MOL0     H55062   2.398   8.225   6.047 -2.2372  1.2234  0.3111
  408MOL0     H55063   2.637   8.224   6.006 -2.1004 -0.5636 -0.9392
  408MOL0     H55064   3.007   8.195   6.431  2.1604  2.6795  1.6082
  408MOL0     H55065   3.252   8.202   6.457 -1.4959  3.1325  1.6421
  408MOL0     H55066   5.151   7.850   5.640 -0.3956 -1.1670  2.3561
  408MOL0     H55067   5.347   7.860   5.460  0.7290  1.0583  1.0989
  408MOL0     H55068   5.655   7.856   5.263 -0.3330 -1.1776  1.1727
  408MOL0     H55069   5.819   7.889   5.097 -0.7120  2.1644  1.5660
  408MOL0     H55070   6.210   7.733   5.147  2.6060  2.7416  1.2456
  408MOL0     H55071   6.174   7.733   4.975  0.7933  1.4676 -1.5764
  408MOL0     H55072   6.313   7.962   5.126 -1.7653  0.3505  0.0856
  408MOL0     H55073   6.261   7.954   4.957 -0.1449  1.5759  0.9680
  408MOL0     H55074   6.414   7.735   4.944  0.9957  0.5794 -1.6209
  408MOL0     H55075   6.465   7.770   5.103 -0.2348 -1.1722 -0.4886
  408MOL0     H55076   6.490   7.976   4.891 -2.0107  0.3105  3.1951
  408MOL0     H55077   6.619   7.849   4.911  2.2348  1.3284  1.5766
  408MOL0     H55078   6.731   8.107   5.221 -0.5136  1.3634 -0.6067
  408MOL0     H55079   6.132   7.764   5.363 -0.0255 -2.0321 -0.8348
  408MOL0     H55080   5.956   7.744   5.541  0.5010 -1.2579 -0.6829
  409MOL0     O55081   8.593   5.838   2.931 -0.2694 -0.0166 -0.5448
  409MOL0     C55082   8.634   5.743   2.869 -0.4208  0.5974  0.3776
  409MOL0     O55083   8.576   5.693   2.753 -0.5547 -0.3273 -0.0641
  409MOL0     C55084   8.452   5.739   2.717  0.0050  0.1730 -0.3549
  409MOL0     C55085   8.358   5.645   2.677 -0.1475  0.0852  0.4260
  409MOL0     C55086   8.230   5.679   2.640 -0.2947 -0.3799  0.1899
  409MOL0     C55087   8.199   5.824   2.631  1.6028 -0.1990 -0.6425
  409MOL0     O55088   8.075   5.875   2.589  0.3148 -0.4722 -0.1352
  409MOL0     C55089   7.968   5.793   2.532  0.9583  0.0206  0.1117
  409MOL0     C55090   7.877   5.894   2.463 -0.4305  0.3897  0.2492
  409MOL0     C55091   7.825   6.006   2.561 -0.4068  0.8209  0.0263
  409MOL0     C55092   7.762   6.122   2.487 -0.1087 -0.5359 -0.4564
  409MOL0     C55093   7.643   6.077   2.405  0.2308 -0.5474  0.5533
  409MOL0     C55094   7.574   6.202   2.342  0.0184 -0.7913  0.7418
  409MOL0     C55095   7.456   6.162   2.249 -0.0153  0.2364 -0.4387
  409MOL0     C55096   7.427   6.271   2.153  0.0615 -0.0984  0.5790
  409MOL0     N55097   7.325   6.349   2.216  0.2690 -0.2660  0.6446
  409MOL0     C55098   7.193   6.327   2.233 -0.2413 -0.8115 -0.4984
  409MOL0     C55099   7.148   6.433   2.309 -0.3028  0.9213 -0.3769
  409MOL0     C55100   7.013   6.468   2.358 -0.2269 -0.3040 -0.1130
  409MOL0     C55101   6.936   6.561   2.249  0.5295 -0.6994  0.1360
  409MOL0     C55102   6.850   6.673   2.329 -0.1772 -0.4253 -0.2888
  409MOL0     C55103   6.769   6.763   2.232 -0.1187  0.0782 -0.9913
  409MOL0     O55104   6.859   6.839   2.146  0.1904 -0.3203 -0.7327
  409MOL0     C55105   6.892   6.966   2.187 -0.2442 -0.3684 -0.0923
  409MOL0     C55106   7.019   6.988   2.242  0.1442  0.5000 -0.3514
  409MOL0     C55107   7.067   7.118   2.271 -0.3480 -0.0909 -0.0471
  409MOL0     C55108   7.200   7.132   2.338  0.0389 -0.4997 -0.1241
  409MOL0     C55109   6.981   7.227   2.254  0.0160 -0.2519 -0.0475
  409MOL0     C55110   7.022   7.365   2.297  0.3157  0.2675 -0.1060
  409MOL0     O55111   6.999   7.458   2.200 -0.0308  0.1280  0.2015
  409MOL0     C55112   7.022   7.595   2.208 -1.7137  0.6723 -0.2708
  409MOL0     C55113   6.933   7.679   2.140  0.2847  0.3451 -0.0820
  409MOL0     C55114   6.933   7.818   2.144 -0.0503  0.0688 -0.7246
  409MOL0     C55115   7.022   7.887   2.225  0.2438  0.3895  0.0717
  409MOL0     O55116   7.020   8.022   2.219  0.3603 -0.4184 -0.1251
  409MOL0     C55117   7.109   8.099   2.308 -0.3668 -0.7664  0.9207
  409MOL0     C55118   7.092   8.253   2.294  0.1025  0.0278  0.1713
  409MOL0     C55119   7.196   8.340   2.376  0.9247 -0.7168 -0.5136
  409MOL0     C55120   7.170   8.496   2.371  0.2242 -0.4297  0.3324
  409MOL0     C55121   7.167   8.552   2.223 -0.2479 -0.1083  0.1933
  409MOL0     C55122   7.279   8.514   2.125 -0.3486  0.1587 -0.7926
  409MOL0     C55123   7.421   8.549   2.181  1.5183  0.0918  0.4907
  409MOL0     C55124   7.439   8.690   2.244 -0.3733  0.6084  0.2349
  409MOL0    Cl55125   7.619   8.672   2.282  0.4642 -0.2514  0.1718
  409MOL0     C55126   7.114   7.806   2.295 -0.0560 -0.0756  0.4133
  409MOL0     C55127   7.123   7.662   2.289 -0.4765 -0.1717 -0.1470
  409MOL0     O55128   7.036   7.389   2.418  0.0012  0.2594  0.4686
  409MOL0     C55129   6.854   7.202   2.207  0.1339 -0.3264 -0.0554
  409MOL0     C55130   6.808   7.076   2.163 -0.1281 -0.4669 -0.4304
  409MOL0     N55131   7.255   6.505   2.330  0.2490 -0.7046  0.8541
  409MOL0     N55132   7.358   6.465   2.273  0.0479  0.1386 -0.0259
  409MOL0     C55133   8.300   5.921   2.652 -0.2864  0.2533  0.8038
  409MOL0     C55134   8.423   5.881   2.700 -0.5748  0.3219 -0.2733
  409MOL0     C55135   8.771   5.694   2.905  0.2259  0.4939  0.5870
  409MOL0     C55136   8.848   5.754   2.998  0.2152  0.0083  0.1760
  409MOL0     C55137   8.972   5.710   3.034  0.4694  0.8699  0.6836
  409MOL0     C55138   9.027   5.597   2.974  0.4722  0.2425 -0.0747
  409MOL0     O55139   9.143   5.543   3.019  0.1677  0.7308 -0.2712
  409MOL0     C55140   9.167   5.544   3.163  0.0876 -0.1290 -0.0546
  409MOL0     C55141   9.268   5.434   3.202 -0.2771  0.4118 -0.5120
  409MOL0     C55142   9.390   5.442   3.111  0.4305  0.0597 -0.0051
  409MOL0     C55143   9.449   5.303   3.079  0.6558 -0.3401 -0.1291
  409MOL0     C55144   9.586   5.324   3.021  0.1654  0.1819  0.4344
  409MOL0     C55145   9.695   5.345   2.977 -0.2354  0.7542 -0.2399
  409MOL0     C55146   8.958   5.545   2.861  0.0540 -1.1580 -0.3410
  409MOL0     C55147   8.829   5.581   2.835  0.0740  1.5855 -0.2273
  409MOL0     H55148   8.376   5.539   2.679  0.2204  0.1212 -0.5811
  409MOL0     H55149   8.171   5.589   2.621  0.8723 -1.8482  2.9126
  409MOL0     H55150   8.013   5.725   2.460 -1.7371 -1.2954 -0.4409
  409MOL0     H55151   7.918   5.722   2.598  1.2207 -2.1286 -1.8695
  409MOL0     H55152   7.936   5.944   2.385  0.1216 -0.2581  0.2441
  409MOL0     H55153   7.790   5.843   2.421 -1.3349  0.7580  1.5864
  409MOL0     H55154   7.750   5.960   2.627  1.0365  0.5842  1.5931
  409MOL0     H55155   7.904   6.045   2.626  0.0806  1.3972 -0.9059
  409MOL0     H55156   7.722   6.196   2.557 -0.4479  3.1051 -4.1224
  409MOL0     H55157   7.835   6.172   2.423 -1.8842  1.0494 -1.3471
  409MOL0     H55158   7.670   6.002   2.330 -0.4555 -0.9599  0.7019
  409MOL0     H55159   7.568   6.037   2.475 -1.4803  1.6806  0.0859
  409MOL0     H55160   7.552   6.275   2.420  0.1220  0.8559 -0.7136
  409MOL0     H55161   7.650   6.247   2.277 -1.0913 -0.0637 -0.0861
  409MOL0     H55162   7.494   6.079   2.189 -1.6028  0.2110 -1.4486
  409MOL0     H55163   7.368   6.131   2.306 -0.5950 -1.5212 -2.1623
  409MOL0     H55164   7.379   6.221   2.069  0.4873  0.3139  0.0849
  409MOL0     H55165   7.520   6.322   2.127  0.7630  0.7981  4.2899
  409MOL0     H55166   7.133   6.246   2.192 -1.5152  0.2359 -0.7888
  409MOL0     H55167   6.954   6.377   2.371 -0.0305 -0.6952 -1.7726
  409MOL0     H55168   7.025   6.528   2.449 -3.4077 -0.1021  0.3048
  409MOL0     H55169   6.874   6.492   2.192 -0.4333 -0.7137  1.1538
  409MOL0     H55170   7.007   6.608   2.181  0.8016 -0.8318  0.3268
  409MOL0     H55171   6.910   6.738   2.392  2.1060 -2.3755 -0.3032
  409MOL0     H55172   6.781   6.623   2.398 -1.4216  1.9290  0.2729
  409MOL0     H55173   6.705   6.833   2.288  0.6241  0.7573 -0.9834
  409MOL0     H55174   6.698   6.708   2.170  1.3303 -0.3277 -2.3190
  409MOL0     H55175   7.080   6.902   2.268 -1.7538 -0.2966  1.7917
  409MOL0     H55176   7.196   7.198   2.425 -3.6519  1.6466 -1.6930
  409MOL0     H55177   7.245   7.034   2.357  0.0861 -0.3592  0.5142
  409MOL0     H55178   7.251   7.190   2.260 -1.7756  2.0328  0.4464
  409MOL0     H55179   6.851   7.626   2.093  2.2646 -2.1295 -0.9767
  409MOL0     H55180   6.866   7.871   2.078 -1.5869  0.0695  0.7723
  409MOL0     H55181   7.094   8.069   2.413  0.8291  1.2767  1.7345
  409MOL0     H55182   7.207   8.070   2.269 -0.2721 -1.2126  1.4710
  409MOL0     H55183   7.104   8.278   2.188  0.2959 -3.6865 -0.8450
  409MOL0     H55184   6.991   8.279   2.326 -0.5940 -2.1553 -0.0437
  409MOL0     H55185   7.296   8.317   2.337  0.7446  2.5828 -3.3748
  409MOL0     H55186   7.187   8.311   2.481 -2.1130  0.9164 -0.2292
  409MOL0     H55187   7.072   8.516   2.415 -0.0155  0.0583 -0.4009
  409MOL0     H55188   7.249   8.537   2.435 -0.0988 -2.6691  2.3181
  409MOL0     H55189   7.163   8.661   2.215 -0.5652 -0.1336 -0.0419
  409MOL0     H55190   7.070   8.523   2.180 -0.5752  2.9445 -1.4578
  409MOL0     H55191   7.274   8.409   2.097 -3.7932 -0.2015  0.6825
  409MOL0     H55192   7.258   8.570   2.033 -0.6145  0.0349 -0.8071
  409MOL0     H55193   7.493   8.534   2.101  1.4399  1.9165  0.0343
  409MOL0     H55194   7.433   8.470   2.256 -3.8601 -2.4427 -0.8545
  409MOL0     H55195   7.386   8.705   2.338 -3.5165 -1.6946 -0.9892
  409MOL0     H55196   7.424   8.765   2.166 -1.4284  0.5033  0.3311
  409MOL0     H55197   7.189   7.860   2.352  1.5126 -0.1107 -1.5142
  409MOL0     H55198   7.194   7.613   2.355  0.4617  2.5577  0.9993
  409MOL0     H55199   6.782   7.283   2.204  1.6473  1.0543 -0.5526
  409MOL0     H55200   6.716   7.055   2.111 -1.7103 -0.0304  2.0082
  409MOL0     H55201   8.270   6.024   2.639  1.7133  0.8029  0.1842
  409MOL0     H55202   8.502   5.952   2.724 -0.5606  0.1970  0.0594
  409MOL0     H55203   8.813   5.843   3.049  0.7351 -0.0444  0.6345
  409MOL0     H55204   9.032   5.757   3.111 -0.9165  0.6834  1.9271
  409MOL0     H55205   9.207   5.640   3.198 -1.3549 -0.3937  2.5885
  409MOL0     H55206   9.074   5.512   3.211  2.1802 -2.7000  2.6851
  409MOL0     H55207   9.226   5.333   3.201 -0.4131  0.4339  0.8030
  409MOL0     H55208   9.300   5.444   3.306 -2.0544 -1.7451  0.3308
  409MOL0     H55209   9.469   5.486   3.172  0.4518 -1.6623  1.2829
  409MOL0     H55210   9.385   5.507   3.023  3.5468 -1.4543 -1.4709
  409MOL0     H55211   9.391   5.255   2.999 -1.5890 -2.6422  2.6472
  409MOL0     H55212   9.443   5.239   3.167  1.5962 -0.2290  0.0231
  409MOL0     H55213   9.792   5.335   2.933  0.0897 -0.8034  0.7499
  409MOL0     H55214   9.009   5.460   2.816  0.8810 -1.3475  0.9056
  409MOL0     H55215   8.776   5.531   2.755 -0.7626  0.4090  1.0086
  410MOL0     O55216   5.968   9.009   5.212 -0.3740 -1.0311  0.7617
  410MOL0     C55217   6.050   8.931   5.167  0.4290 -0.0473 -0.7613
  410MOL0     O55218   6.021   8.800   5.143  0.2345  0.1644  0.0752
  410MOL0     C55219   5.890   8.759   5.166 -0.8561  0.3212  0.6620
  410MOL0     C55220   5.799   8.751   5.069  1.2392 -0.3225  0.3932
  410MOL0     C55221   5.663   8.724   5.093 -0.1898  0.0313 -0.5003
  410MOL0     C55222   5.624   8.689   5.229 -0.0078 -0.2692 -0.0084
  410MOL0     O55223   5.492   8.669   5.239  0.0925 -0.3866 -0.2754
  410MOL0     C55224   5.439   8.715   5.370  0.3405 -0.4929 -0.3103
  410MOL0     C55225   5.293   8.772   5.355 -0.0085 -0.5693  0.1133
  410MOL0     C55226   5.300   8.902   5.260 -0.0895  0.2211  0.1340
  410MOL0     C55227   5.181   9.000   5.257 -0.6411 -0.0138  1.2190
  410MOL0     C55228   5.046   8.933   5.215 -0.0938  0.2126 -0.3125
  410MOL0     C55229   4.948   9.040   5.157  0.5084  0.1507  0.3568
  410MOL0     C55230   4.987   9.081   5.011 -0.8918  0.0017 -0.8673
  410MOL0     C55231   4.874   9.167   4.956  0.1477 -0.0703  0.1111
  410MOL0     N55232   4.763   9.097   4.893 -0.0238  0.3559  0.5968
  410MOL0     C55233   4.760   9.058   4.764 -0.7212  0.3351  0.5555
  410MOL0     C55234   4.648   8.992   4.752 -0.4289 -0.3213 -0.7158
  410MOL0     C55235   4.608   8.927   4.622 -0.5493 -0.0101  0.3049
  410MOL0     C55236   4.582   9.027   4.519 -0.6516 -0.7849  0.3451
  410MOL0     C55237   4.596   8.977   4.367  0.7697 -0.5305 -0.5710
  410MOL0     C55238   4.469   8.889   4.327 -1.1244  0.7393 -0.8277
  410MOL0     O55239   4.488   8.829   4.200  0.1859  0.0481  0.1741
  410MOL0     C55240   4.380   8.767   4.138 -0.3602 -0.0185  0.7441
  410MOL0     C55241   4.430   8.693   4.034  0.1075 -0.1143 -0.1133
  410MOL0     C55242   4.351   8.618   3.951 -0.1371 -0.3035 -0.2743
  410MOL0     C55243   4.416   8.556   3.832 -0.3875  0.2905  0.9658
  410MOL0     C55244   4.215   8.611   3.985 -0.1810  0.5016  1.1690
  410MOL0     C55245   4.110   8.526   3.903  0.4513  0.2790 -0.5451
  410MOL0     O55246   3.985   8.559   3.918  0.0829  0.1846 -0.5270
  410MOL0     C55247   3.874   8.501   3.855  0.2503 -0.7039 -0.1453
  410MOL0     C55248   3.754   8.542   3.900  0.0780  0.1902 -0.1809
  410MOL0     C55249   3.633   8.481   3.853  0.2869  0.2498  0.0803
  410MOL0     C55250   3.629   8.387   3.752 -0.7660  1.1032  0.8799
  410MOL0     O55251   3.518   8.324   3.703  0.1366  0.2716 -0.3974
  410MOL0     C55252   3.394   8.359   3.755  0.3855 -0.0398 -0.0465
  410MOL0     C55253   3.296   8.343   3.639 -0.2206  0.4254  0.5395
  410MOL0     C55254   3.156   8.399   3.683  0.4124  0.6073  0.1342
  410MOL0     C55255   3.059   8.379   3.568  0.4837 -0.0986 -0.7635
  410MOL0     C55256   2.921   8.402   3.620 -1.1103  0.3862  0.1705
  410MOL0     C55257   2.893   8.549   3.643  0.1225 -0.4058 -0.3654
  410MOL0     C55258   2.744   8.560   3.681  0.4338  0.7859  0.2675
  410MOL0     C55259   2.646   8.542   3.562  0.2333 -0.4901 -0.3894
  410MOL0    Cl55260   2.492   8.575   3.631  0.2868 -0.4299 -0.1874
  410MOL0     C55261   3.750   8.358   3.693 -0.8883 -0.6300 -0.2896
  410MOL0     C55262   3.874   8.417   3.739  0.4964 -0.1927 -0.3986
  410MOL0     O55263   4.151   8.434   3.836 -0.4448  0.1217 -0.7982
  410MOL0     C55264   4.159   8.679   4.100 -0.9975 -0.7116  0.3235
  410MOL0     C55265   4.251   8.757   4.172  0.3255 -0.7318  0.1654
  410MOL0     N55266   4.579   8.986   4.872  0.4858 -0.7627 -0.5017
  410MOL0     N55267   4.649   9.060   4.958  0.8061 -0.5455 -0.3608
  410MOL0     C55268   5.717   8.702   5.339 -0.1469  0.9751  0.3511
  410MOL0     C55269   5.848   8.735   5.303 -0.5454 -0.3962 -0.8879
  410MOL0     C55270   6.190   8.962   5.139  0.3270  0.5865  0.3636
  410MOL0     C55271   6.289   8.867   5.102  0.5869 -0.0398 -0.5462
  410MOL0     C55272   6.418   8.903   5.101 -0.8825 -0.1547 -1.1053
  410MOL0     C55273   6.464   9.037   5.121 -0.2544  0.0400 -0.5029
  410MOL0     O55274   6.602   9.053   5.131  0.0472  1.2601 -0.2253
  410MOL0     C55275   6.648   9.188   5.146 -0.6011 -0.4560 -0.1125
  410MOL0     C55276   6.803   9.202   5.166 -1.1250 -0.0371  0.5802
  410MOL0     C55277   6.877   9.142   5.045 -0.0669  0.3944  0.5722
  410MOL0     C55278   6.845   9.210   4.909 -0.3198  0.8125 -0.5640
  410MOL0     C55279   6.888   9.353   4.918 -0.5403 -0.3264 -0.2652
  410MOL0     C55280   6.946   9.464   4.934 -0.2620  0.3133  0.7341
  410MOL0     C55281   6.362   9.135   5.124 -0.5841  0.9676  0.1672
  410MOL0     C55282   6.224   9.096   5.138 -0.3606  0.1940  0.1350
  410MOL0     H55283   5.826   8.793   4.972 -1.7213 -1.3189 -1.0151
  410MOL0     H55284   5.605   8.743   5.003  4.1695 -2.7535 -4.3583
  410MOL0     H55285   5.434   8.630   5.438 -0.7674 -0.2626 -0.0835
  410MOL0     H55286   5.497   8.793   5.419  0.1760 -1.1960  1.0399
  410MOL0     H55287   5.235   8.689   5.314 -2.6728 -0.3603  3.0827
  410MOL0     H55288   5.263   8.813   5.452  0.7018 -1.6622  0.8194
  410MOL0     H55289   5.388   8.962   5.284  0.0680 -0.4362  1.2685
  410MOL0     H55290   5.305   8.855   5.162 -0.9551 -0.1448  0.2555
  410MOL0     H55291   5.172   9.055   5.352  0.9601  1.9032  0.3160
  410MOL0     H55292   5.209   9.071   5.179  0.5831 -1.3355  0.4095
  410MOL0     H55293   5.069   8.862   5.135  0.5081 -0.8444  0.7613
  410MOL0     H55294   5.010   8.876   5.301  1.6491  0.2113  0.4415
  410MOL0     H55295   4.847   8.998   5.159 -0.4664  2.3053 -0.5070
  410MOL0     H55296   4.950   9.133   5.213 -0.2895 -1.0232  2.4424
  410MOL0     H55297   5.079   9.140   5.007 -1.2389  0.6869  0.7185
  410MOL0     H55298   5.010   8.998   4.943 -5.0142 -0.6288 -1.7646
  410MOL0     H55299   4.912   9.240   4.884  0.7437 -0.1347  0.3625
  410MOL0     H55300   4.829   9.224   5.038 -1.9046  0.6454 -1.4173
  410MOL0     H55301   4.833   9.078   4.686 -1.6563 -0.3036 -0.5154
  410MOL0     H55302   4.690   8.861   4.591 -1.6308 -0.4271 -1.8695
  410MOL0     H55303   4.514   8.873   4.636 -1.3703  0.6840 -1.9383
  410MOL0     H55304   4.661   9.102   4.533 -1.7433  0.3715  0.4042
  410MOL0     H55305   4.493   9.087   4.538 -0.2218 -0.5683  1.8106
  410MOL0     H55306   4.690   8.920   4.366  0.5710 -1.1423  2.8997
  410MOL0     H55307   4.612   9.063   4.301  3.7331 -1.8903 -1.8137
  410MOL0     H55308   4.378   8.950   4.324 -3.5002 -2.4618  0.4034
  410MOL0     H55309   4.447   8.813   4.403 -2.1642  1.2678 -0.5839
  410MOL0     H55310   4.537   8.693   4.013  0.2991 -1.0262  0.7970
  410MOL0     H55311   4.352   8.579   3.747  1.7421 -0.3554 -0.9041
  410MOL0     H55312   4.512   8.599   3.802  0.3224 -3.2751 -2.8062
  410MOL0     H55313   4.428   8.448   3.842 -1.0045  0.2605  1.4664
  410MOL0     H55314   3.748   8.615   3.981  0.5756  0.6556 -0.5576
  410MOL0     H55315   3.548   8.510   3.914  0.1949 -0.0632  0.1024
  410MOL0     H55316   3.368   8.308   3.848 -0.9508 -0.8551 -0.8433
  410MOL0     H55317   3.378   8.465   3.773 -4.9380 -0.6170  0.0702
  410MOL0     H55318   3.335   8.389   3.548 -1.7747 -0.8833 -0.8708
  410MOL0     H55319   3.293   8.236   3.615 -3.1307 -0.0242  2.4543
  410MOL0     H55320   3.158   8.508   3.697 -0.5396  0.4172  1.9794
  410MOL0     H55321   3.116   8.344   3.768 -0.7642  0.8317 -0.2527
  410MOL0     H55322   3.075   8.446   3.483  1.1065  0.4398 -0.2365
  410MOL0     H55323   3.076   8.278   3.530  1.3079 -0.6110  0.8653
  410MOL0     H55324   2.905   8.351   3.715  0.6737  0.9862  0.8285
  410MOL0     H55325   2.846   8.366   3.548 -0.1655  0.4591 -0.8756
  410MOL0     H55326   2.966   8.591   3.714  1.3136 -4.1534  0.8761
  410MOL0     H55327   2.916   8.606   3.553 -1.9054 -1.0100 -1.3319
  410MOL0     H55328   2.729   8.658   3.726 -3.3857  0.8840 -0.8363
  410MOL0     H55329   2.720   8.486   3.757 -2.4535  2.3354  1.0033
  410MOL0     H55330   2.642   8.444   3.515  1.5050  0.1975 -2.0522
  410MOL0     H55331   2.674   8.620   3.490  2.3449  0.6372  1.5147
  410MOL0     H55332   3.753   8.293   3.606  0.2170  2.6293 -2.8894
  410MOL0     H55333   3.966   8.378   3.697 -0.2928  0.4207 -2.8978
  410MOL0     H55334   4.056   8.693   4.130 -0.8759 -0.8381  0.8134
  410MOL0     H55335   4.212   8.796   4.266 -0.2126 -1.0571  0.0859
  410MOL0     H55336   5.715   8.679   5.445  0.6844 -1.8911 -0.1701
  410MOL0     H55337   5.923   8.745   5.380  1.0695  0.2619 -2.4959
  410MOL0     H55338   6.261   8.764   5.084 -2.0295  0.2305  1.4207
  410MOL0     H55339   6.498   8.831   5.093  0.8881  1.1643  2.5486
  410MOL0     H55340   6.605   9.248   5.064 -1.9646 -1.9161 -0.5316
  410MOL0     H55341   6.607   9.232   5.237  0.1070 -2.9973  1.5323
  410MOL0     H55342   6.828   9.132   5.247  0.2339  0.2780  0.4614
  410MOL0     H55343   6.829   9.304   5.194  0.3910 -0.5472  1.1656
  410MOL0     H55344   6.865   9.035   5.030  2.1571  0.0136  1.1924
  410MOL0     H55345   6.983   9.154   5.072  0.1473 -2.0551  1.0291
  410MOL0     H55346   6.737   9.200   4.890 -0.4627  0.4746  0.3804
  410MOL0     H55347   6.893   9.154   4.828 -3.1612 -2.1622 -0.4176
  410MOL0     H55348   7.007   9.546   4.963  2.2797 -0.9023 -0.8245
  410MOL0     H55349   6.382   9.239   5.149  1.5661  1.6588 -3.7128
  410MOL0     H55350   6.139   9.160   5.160  1.1309  2.1775  0.4235
  411MOL0     O55351   2.085   1.998   8.375 -0.8020  0.1816  0.0967
  411MOL0     C55352   2.076   1.882   8.337 -0.4154 -0.6628 -0.5512
  411MOL0     O55353   2.188   1.790   8.319 -0.5431 -0.8389  0.5288
  411MOL0     C55354   2.320   1.816   8.342 -0.2993 -0.3280 -0.1103
  411MOL0     C55355   2.392   1.706   8.348  0.5955 -0.2119  0.3247
  411MOL0     C55356   2.525   1.703   8.361 -0.3685  0.8611  0.1863
  411MOL0     C55357   2.595   1.817   8.370 -0.3627  0.6495 -0.0436
  411MOL0     O55358   2.730   1.812   8.363 -0.5049  0.1468  0.0988
  411MOL0     C55359   2.808   1.937   8.363 -0.9420 -0.2456 -0.1648
  411MOL0     C55360   2.950   1.897   8.404 -0.4074 -0.1446  0.7366
  411MOL0     C55361   3.053   2.012   8.390 -0.0537 -0.4035  0.3913
  411MOL0     C55362   3.194   1.971   8.411  0.0901  0.4537  0.1310
  411MOL0     C55363   3.283   2.077   8.355 -0.4948 -0.2534  0.0699
  411MOL0     C55364   3.288   2.199   8.435 -0.0388  0.3132 -0.2158
  411MOL0     C55365   3.393   2.297   8.373  0.2167 -0.1874  0.2607
  411MOL0     C55366   3.411   2.410   8.472 -0.0385  0.3083  0.0397
  411MOL0     N55367   3.306   2.515   8.461  0.2202 -1.2420  0.1753
  411MOL0     C55368   3.194   2.530   8.539  0.1310 -0.6454 -0.5074
  411MOL0     C55369   3.118   2.619   8.478 -0.2535 -0.6772  0.1192
  411MOL0     C55370   2.997   2.678   8.542  0.5766 -0.1676 -1.1230
  411MOL0     C55371   2.868   2.595   8.526 -0.0952 -0.0215 -0.6784
  411MOL0     C55372   2.741   2.673   8.555  0.3872 -0.3128 -1.6468
  411MOL0     C55373   2.621   2.582   8.551  0.1668  0.2043 -0.9860
  411MOL0     O55374   2.611   2.509   8.668 -0.0493  0.5764 -0.5124
  411MOL0     C55375   2.489   2.459   8.703 -0.4111 -0.3498 -0.1126
  411MOL0     C55376   2.471   2.431   8.835  0.6817 -0.6256 -1.3659
  411MOL0     C55377   2.353   2.370   8.877 -0.7237  0.8523  0.2809
  411MOL0     C55378   2.337   2.353   9.025  0.5788  0.5153 -0.9087
  411MOL0     C55379   2.258   2.323   8.782  0.6632 -0.3994 -1.2147
  411MOL0     C55380   2.128   2.258   8.802  0.8152  0.4123 -0.7316
  411MOL0     O55381   2.103   2.160   8.711 -0.2346  0.0571  0.6326
  411MOL0     C55382   1.971   2.112   8.707  0.3756  1.1092 -0.5608
  411MOL0     C55383   1.943   1.972   8.696  0.4430  1.0876 -0.2206
  411MOL0     C55384   1.813   1.925   8.678 -0.2106  0.2541 -0.3176
  411MOL0     C55385   1.703   2.013   8.683 -0.6147  0.3421 -0.0709
  411MOL0     O55386   1.569   1.978   8.666 -0.2196  1.0599 -0.0488
  411MOL0     C55387   1.513   1.956   8.796 -0.3232  0.1223 -0.5700
  411MOL0     C55388   1.405   2.059   8.837  1.1636 -0.2216  0.5489
  411MOL0     C55389   1.285   2.047   8.737  0.5524  0.0591 -1.0581
  411MOL0     C55390   1.182   2.159   8.781 -0.2736 -0.7724  0.1384
  411MOL0     C55391   1.054   2.146   8.701 -0.1392  0.0023  0.1531
  411MOL0     C55392   1.086   2.224   8.566  0.0628  1.0242  0.4013
  411MOL0     C55393   0.975   2.281   8.498  0.3964  0.1501  0.7824
  411MOL0     C55394   0.857   2.195   8.455 -0.5129  1.0373  0.8555
  411MOL0    Cl55395   0.906   2.044   8.378 -0.2166 -0.3255  0.0168
  411MOL0     C55396   1.732   2.150   8.707 -0.2511 -0.2226  0.5494
  411MOL0     C55397   1.866   2.203   8.714  0.4945 -0.4753 -0.0984
  411MOL0     O55398   2.051   2.294   8.899  0.6014  0.3891 -0.0915
  411MOL0     C55399   2.282   2.354   8.648  0.2120 -0.2032 -0.6101
  411MOL0     C55400   2.404   2.405   8.604 -0.1254 -0.3610 -0.1803
  411MOL0     N55401   3.180   2.655   8.359  0.0500  0.3374  0.3137
  411MOL0     N55402   3.297   2.601   8.350 -0.9158 -0.2074 -0.6220
  411MOL0     C55403   2.519   1.938   8.374 -0.4172  0.1249 -0.0775
  411MOL0     C55404   2.382   1.937   8.370  0.3672  0.0177 -0.4576
  411MOL0     C55405   1.938   1.829   8.321  0.0172  0.3032  0.4140
  411MOL0     C55406   1.824   1.910   8.348 -0.4137  0.6902 -0.5120
  411MOL0     C55407   1.696   1.860   8.335 -0.4451  0.0175 -1.2772
  411MOL0     C55408   1.669   1.738   8.273 -0.4123  0.2625  0.3694
  411MOL0     O55409   1.546   1.699   8.230 -0.2249 -0.0366  0.0806
  411MOL0     C55410   1.436   1.772   8.278  0.6029 -0.3379  0.7229
  411MOL0     C55411   1.306   1.703   8.256 -0.5717  0.2609 -0.1737
  411MOL0     C55412   1.189   1.801   8.284 -0.1743  0.0495  0.4907
  411MOL0     C55413   1.165   1.831   8.433 -0.0408  0.4097 -0.4249
  411MOL0     C55414   1.051   1.763   8.500 -0.3642  0.8894 -0.3890
  411MOL0     C55415   0.960   1.693   8.539 -0.3264 -0.1639  0.4735
  411MOL0     C55416   1.780   1.659   8.236 -0.8728  0.3615  0.4160
  411MOL0     C55417   1.909   1.700   8.276  0.3290 -0.2093  0.5837
  411MOL0     H55418   2.337   1.613   8.336 -2.9966  1.7413  0.2727
  411MOL0     H55419   2.588   1.614   8.371 -1.0257  0.4219  0.4905
  411MOL0     H55420   2.826   1.971   8.261  2.2934 -0.7341  0.1329
  411MOL0     H55421   2.763   2.010   8.432 -1.1444 -0.9051  0.4082
  411MOL0     H55422   2.937   1.863   8.507 -0.5660 -1.2215  0.3700
  411MOL0     H55423   2.978   1.811   8.342 -0.5006  0.6035 -0.3674
  411MOL0     H55424   3.038   2.043   8.286  0.3507  2.0552  1.0051
  411MOL0     H55425   3.032   2.089   8.466 -5.4237 -2.3022  1.3002
  411MOL0     H55426   3.220   1.961   8.517  1.3234 -4.4686 -0.3743
  411MOL0     H55427   3.211   1.868   8.378 -3.1968 -0.0481 -0.3979
  411MOL0     H55428   3.382   2.033   8.367  0.2875  1.6977  1.0667
  411MOL0     H55429   3.267   2.089   8.247  0.9461 -0.9526 -0.2407
  411MOL0     H55430   3.193   2.254   8.434 -0.5824 -0.5080 -3.4059
  411MOL0     H55431   3.306   2.170   8.539  0.0329 -0.1025 -0.3440
  411MOL0     H55432   3.492   2.253   8.359  0.8878  1.7627 -1.5704
  411MOL0     H55433   3.364   2.337   8.276 -1.3520 -0.5712  0.5403
  411MOL0     H55434   3.511   2.451   8.454  1.4520 -1.7841  2.7383
  411MOL0     H55435   3.418   2.372   8.575  0.4140  2.6496  0.9403
  411MOL0     H55436   3.162   2.481   8.631 -0.9601  2.9336  1.2141
  411MOL0     H55437   3.012   2.683   8.650  1.7076 -0.1371 -1.2712
  411MOL0     H55438   2.973   2.776   8.500 -1.5786  0.3659  1.1539
  411MOL0     H55439   2.875   2.497   8.573 -2.2236  1.1247  2.4295
  411MOL0     H55440   2.859   2.568   8.421 -1.3158 -1.0381 -0.3260
  411MOL0     H55441   2.731   2.756   8.485 -0.5138 -0.7092 -1.9945
  411MOL0     H55442   2.762   2.714   8.655  0.5524  1.2928 -2.3124
  411MOL0     H55443   2.618   2.515   8.465 -3.1172 -2.1204  0.7026
  411MOL0     H55444   2.539   2.651   8.526  0.1641  1.0073  1.0676
  411MOL0     H55445   2.554   2.444   8.903 -0.8131  2.3544  0.0630
  411MOL0     H55446   2.236   2.362   9.066  1.2350  2.3424  0.4170
  411MOL0     H55447   2.373   2.256   9.061 -1.7058 -0.3093 -0.6371
  411MOL0     H55448   2.393   2.426   9.083 -0.1637  0.3573  0.0394
  411MOL0     H55449   2.032   1.913   8.675  0.5112  1.8510 -2.3699
  411MOL0     H55450   1.799   1.820   8.650 -4.5413  1.0674 -1.9767
  411MOL0     H55451   1.459   1.861   8.790  1.2187 -0.7218 -1.6387
  411MOL0     H55452   1.593   1.942   8.869 -0.7754  1.1151  0.1412
  411MOL0     H55453   1.386   2.042   8.944  4.0045  1.0535  1.3523
  411MOL0     H55454   1.442   2.162   8.835  0.4305  0.0453  0.0756
  411MOL0     H55455   1.238   1.949   8.745  1.9549 -1.0938 -4.8724
  411MOL0     H55456   1.331   2.061   8.639  1.7349  0.8332 -0.4298
  411MOL0     H55457   1.155   2.158   8.887  0.6629  2.2334  0.4924
  411MOL0     H55458   1.232   2.255   8.774  0.9433 -0.9509  4.0341
  411MOL0     H55459   0.973   2.196   8.755 -0.0525  2.5575 -1.8971
  411MOL0     H55460   1.025   2.041   8.691 -3.8367  0.7308  1.6502
  411MOL0     H55461   1.158   2.306   8.572  0.1845  0.8763  1.0043
  411MOL0     H55462   1.131   2.147   8.503 -0.5304  0.2639  0.8855
  411MOL0     H55463   1.015   2.330   8.409 -2.6517 -1.6728 -1.8264
  411MOL0     H55464   0.936   2.359   8.564 -0.3592 -0.0546  0.5929
  411MOL0     H55465   0.794   2.237   8.377 -1.6137 -1.7235  0.1428
  411MOL0     H55466   0.787   2.184   8.538 -2.6368 -1.4417 -1.0819
  411MOL0     H55467   1.653   2.224   8.711  2.2703  2.6962 -0.0498
  411MOL0     H55468   1.865   2.311   8.723 -0.6021 -0.4683 -0.2381
  411MOL0     H55469   2.208   2.327   8.573 -1.8396  1.7824  0.5596
  411MOL0     H55470   2.414   2.414   8.496 -0.1008 -1.3700 -0.2745
  411MOL0     H55471   2.571   2.033   8.374  0.8558 -0.4957 -2.2178
  411MOL0     H55472   2.321   2.026   8.384  0.6799  0.1791 -0.0755
  411MOL0     H55473   1.835   2.012   8.384  2.3476  0.0158  0.7867
  411MOL0     H55474   1.618   1.926   8.371  2.6315  2.0560  2.3542
  411MOL0     H55475   1.445   1.798   8.384  0.1160  1.5633  0.3339
  411MOL0     H55476   1.431   1.860   8.214 -2.2412 -0.1722  1.0268
  411MOL0     H55477   1.300   1.612   8.316  0.4037  0.6087  0.4730
  411MOL0     H55478   1.300   1.682   8.149  0.7664  1.1980 -0.4597
  411MOL0     H55479   1.099   1.755   8.242 -1.5793 -0.2019  3.4911
  411MOL0     H55480   1.207   1.890   8.224 -3.9674 -0.1835 -1.3242
  411MOL0     H55481   1.145   1.939   8.440 -0.8163  0.7609 -5.1692
  411MOL0     H55482   1.260   1.805   8.480  1.1071  1.1184 -2.2477
  411MOL0     H55483   0.875   1.643   8.582 -1.7546  2.1729  0.5262
  411MOL0     H55484   1.755   1.561   8.196  2.6645 -1.1971  1.5430
  411MOL0     H55485   1.996   1.635   8.271  0.1886 -0.8043  3.5386
  412MOL0     O55486   0.376  10.354   7.564  0.1650 -0.5923 -0.1174
  412MOL0     C55487   0.361  10.296   7.454 -0.1718 -1.0697 -0.4387
  412MOL0     O55488   0.236  10.275   7.390  0.6706 -0.0912 -0.4592
  412MOL0     C55489   0.121  10.313   7.449  0.4060 -0.2393  0.1200
  412MOL0     C55490   0.013  10.217   7.469 -0.0440 -0.7755 -0.8885
  412MOL0     C55491  -0.106  10.255   7.529  0.1835 -0.0017 -0.4538
  412MOL0     C55492  -0.129  10.388   7.558  0.6052 -0.6190 -0.2802
  412MOL0     O55493  -0.257  10.433   7.604  0.0957  0.3120 -0.2541
  412MOL0     C55494  -0.346  10.333   7.671 -0.7344  0.5842 -0.0162
  412MOL0     C55495  -0.475  10.398   7.703 -0.4984  0.0778  0.1225
  412MOL0     C55496  -0.574  10.312   7.783  0.1933 -0.3208 -0.4209
  412MOL0     C55497  -0.582  10.169   7.728  0.2342  0.4754 -0.3920
  412MOL0     C55498  -0.716  10.100   7.782  0.1711  0.2539  0.0479
  412MOL0     C55499  -0.724   9.953   7.736  0.1486  0.1741 -0.4724
  412MOL0     C55500  -0.858   9.888   7.764  0.3771  0.2900  0.0016
  412MOL0     C55501  -0.976   9.962   7.697 -0.1902 -0.5849 -0.0308
  412MOL0     N55502  -1.099   9.884   7.686  0.3409 -0.4146  1.1154
  412MOL0     C55503  -1.188   9.881   7.788 -0.4223  0.0892  0.0618
  412MOL0     C55504  -1.291   9.822   7.727 -0.1518 -0.8114 -0.9156
  412MOL0     C55505  -1.426   9.781   7.787 -0.1805  0.3974  0.6636
  412MOL0     C55506  -1.426   9.628   7.794 -0.6165 -0.2960 -0.4746
  412MOL0     C55507  -1.546   9.566   7.866 -1.0109  0.1398  0.9015
  412MOL0     C55508  -1.674   9.616   7.793  0.0766 -0.1668 -0.9108
  412MOL0     O55509  -1.779   9.559   7.861  0.1973 -0.3177 -0.1468
  412MOL0     C55510  -1.893   9.636   7.882 -0.1657 -0.6523  0.1126
  412MOL0     C55511  -1.945   9.734   7.800 -0.2744  1.1834 -0.0783
  412MOL0     C55512  -2.066   9.792   7.817  0.8018  0.4267  0.0002
  412MOL0     C55513  -2.110   9.887   7.706 -0.0917  0.6174  0.1779
  412MOL0     C55514  -2.139   9.758   7.933  0.0384  0.7271 -0.4427
  412MOL0     C55515  -2.273   9.810   7.969 -0.1303 -0.2533 -0.2643
  412MOL0     O55516  -2.365   9.720   8.018  0.4277  0.0140  0.2733
  412MOL0     C55517  -2.478   9.756   8.078  0.1096  0.1171 -0.1529
  412MOL0     C55518  -2.581   9.660   8.088 -0.1090 -0.0777  0.1516
  412MOL0     C55519  -2.693   9.676   8.167 -0.3025  0.2525  0.1335
  412MOL0     C55520  -2.718   9.791   8.242  0.0502  0.9054 -0.1936
  412MOL0     O55521  -2.837   9.808   8.311 -0.1229 -0.0759  1.1424
  412MOL0     C55522  -2.819   9.847   8.446 -0.2220 -0.5059  0.3030
  412MOL0     C55523  -2.955   9.821   8.519 -0.0876 -0.4702  0.4196
  412MOL0     C55524  -2.978   9.670   8.557  0.4240  0.3632 -0.6598
  412MOL0     C55525  -3.093   9.660   8.659  0.1372  0.1543  0.0472
  412MOL0     C55526  -3.132   9.513   8.692 -0.0070  0.1600  0.2459
  412MOL0     C55527  -3.225   9.510   8.812 -0.3996  0.3176 -0.2014
  412MOL0     C55528  -3.359   9.569   8.778  0.1212  0.8935  0.1981
  412MOL0     C55529  -3.441   9.593   8.897  0.0850 -0.4801  0.4123
  412MOL0    Cl55530  -3.592   9.685   8.860  0.2159  0.0879 -0.2933
  412MOL0     C55531  -2.614   9.892   8.231  0.4393 -0.1052 -0.4442
  412MOL0     C55532  -2.505   9.878   8.146  0.2331 -0.6281 -0.4250
  412MOL0     O55533  -2.286   9.933   7.964 -0.2776  0.1132 -0.5610
  412MOL0     C55534  -2.085   9.663   8.023 -1.3158 -0.8622  0.2499
  412MOL0     C55535  -1.967   9.601   7.991 -0.6556 -0.4100 -0.0661
  412MOL0     N55536  -1.254   9.782   7.600  0.5319 -0.0883  0.4807
  412MOL0     N55537  -1.136   9.824   7.574 -0.0346 -0.4186  0.2870
  412MOL0     C55538  -0.024  10.480   7.532 -0.1468  0.2925 -0.1607
  412MOL0     C55539   0.093  10.445   7.476  0.2732 -0.4896 -0.4349
  412MOL0     C55540   0.480  10.269   7.374 -0.3952  0.6039  0.4529
  412MOL0     C55541   0.607  10.269   7.432 -1.3797 -0.2387  0.0693
  412MOL0     C55542   0.714  10.241   7.348 -0.1137  0.8639 -0.1357
  412MOL0     C55543   0.704  10.202   7.214 -0.4190  0.3135  0.3233
  412MOL0     O55544   0.807  10.160   7.135  0.2264 -0.4085 -0.0712
  412MOL0     C55545   0.937  10.131   7.188 -0.3384  0.0032  0.2065
  412MOL0     C55546   1.031  10.072   7.078  0.5055 -0.0440 -0.2667
  412MOL0     C55547   1.177  10.055   7.132  0.6812  0.2527  1.3786
  412MOL0     C55548   1.257   9.969   7.031  0.2518 -0.3129 -0.2331
  412MOL0     C55549   1.370   9.913   7.105  0.1678  0.4127  0.2908
  412MOL0     C55550   1.456   9.883   7.182  0.4401 -0.2252  0.1365
  412MOL0     C55551   0.577  10.207   7.155  0.6318  0.3985  0.2911
  412MOL0     C55552   0.465  10.239   7.237 -0.6497  0.2240 -0.1564
  412MOL0     H55553   0.020  10.112   7.443 -1.4017 -1.7958  2.3882
  412MOL0     H55554  -0.177  10.172   7.531  0.2895 -0.0814  1.1118
  412MOL0     H55555  -0.360  10.249   7.602  2.8942  0.3906 -0.6797
  412MOL0     H55556  -0.294  10.294   7.758  0.1764 -0.2220 -0.9012
  412MOL0     H55557  -0.441  10.483   7.763  3.1115 -0.2421 -1.2222
  412MOL0     H55558  -0.520  10.431   7.608  0.1296  0.4167 -0.0607
  412MOL0     H55559  -0.570  10.321   7.892  1.2848  0.2924 -0.5039
  412MOL0     H55560  -0.673  10.357   7.770  0.4224  0.9273  1.7049
  412MOL0     H55561  -0.581  10.172   7.618 -1.3798  3.1744 -0.4439
  412MOL0     H55562  -0.494  10.113   7.760  0.2178  0.1775 -0.8433
  412MOL0     H55563  -0.724  10.108   7.890 -0.9318  1.4914 -0.0993
  412MOL0     H55564  -0.803  10.153   7.740  0.1593  1.4600  1.5216
  412MOL0     H55565  -0.685   9.942   7.634 -0.6866  1.1021 -0.8993
  412MOL0     H55566  -0.643   9.901   7.789 -0.1836  1.2995  1.2177
  412MOL0     H55567  -0.856   9.788   7.718  0.3147  0.1611  0.2792
  412MOL0     H55568  -0.881   9.870   7.869 -0.5914  2.2314  0.1581
  412MOL0     H55569  -0.938  10.008   7.605  0.6344 -0.1516  0.5107
  412MOL0     H55570  -0.996  10.043   7.768 -1.4850 -0.1162 -0.8767
  412MOL0     H55571  -1.178   9.926   7.886 -0.2220 -0.7661  0.4429
  412MOL0     H55572  -1.428   9.823   7.888 -0.3207  1.5836  0.1856
  412MOL0     H55573  -1.507   9.821   7.727  0.7415 -1.8089 -2.2720
  412MOL0     H55574  -1.337   9.600   7.852 -0.2103  0.8513 -0.5313
  412MOL0     H55575  -1.415   9.587   7.693  0.1213 -1.0083 -0.1257
  412MOL0     H55576  -1.543   9.597   7.971 -1.2814 -0.0643  0.9723
  412MOL0     H55577  -1.529   9.458   7.862  2.4464  0.6249 -0.4313
  412MOL0     H55578  -1.686   9.587   7.689  2.8653 -0.1085 -1.3283
  412MOL0     H55579  -1.668   9.724   7.811 -0.4297  0.4634 -3.9315
  412MOL0     H55580  -1.894   9.737   7.704  0.0458  0.2891  0.0494
  412MOL0     H55581  -2.085   9.845   7.609 -1.7542  0.4297 -0.2094
  412MOL0     H55582  -2.218   9.900   7.690 -0.0217 -0.1414 -0.9803
  412MOL0     H55583  -2.060   9.983   7.723  0.5729  0.0555  1.5546
  412MOL0     H55584  -2.570   9.568   8.031  1.9822 -2.5465  4.0723
  412MOL0     H55585  -2.763   9.593   8.176  1.7205 -1.9384 -2.4937
  412MOL0     H55586  -2.740   9.786   8.491  0.6755 -0.3502 -0.9888
  412MOL0     H55587  -2.800   9.954   8.456 -2.5263 -0.2293  3.1293
  412MOL0     H55588  -2.960   9.885   8.608 -2.4465 -1.2645  0.9252
  412MOL0     H55589  -3.037   9.853   8.455 -0.2208  1.4551  1.4756
  412MOL0     H55590  -2.889   9.621   8.596 -0.9319 -1.4419  0.3572
  412MOL0     H55591  -3.007   9.617   8.466  2.0318  1.6225 -1.9641
  412MOL0     H55592  -3.059   9.707   8.752  1.7708 -0.8243 -0.0106
  412MOL0     H55593  -3.178   9.714   8.616  0.5280 -1.2889 -2.8313
  412MOL0     H55594  -3.043   9.450   8.704 -0.3342 -0.6507 -1.3725
  412MOL0     H55595  -3.176   9.469   8.602  1.6703  0.4591 -0.7453
  412MOL0     H55596  -3.237   9.407   8.847  0.3994 -1.1027 -3.6752
  412MOL0     H55597  -3.177   9.568   8.891  0.0395  0.4131 -0.5290
  412MOL0     H55598  -3.409   9.496   8.714  0.9734  1.1400 -0.7643
  412MOL0     H55599  -3.354   9.664   8.724  1.4889  0.2336 -0.8779
  412MOL0     H55600  -3.400   9.653   8.980 -2.9848  1.3963  0.7544
  412MOL0     H55601  -3.472   9.499   8.943 -1.3770 -0.4475 -0.4780
  412MOL0     H55602  -2.645   9.974   8.294  0.2524 -1.1706  0.8940
  412MOL0     H55603  -2.443   9.967   8.141 -2.1893  1.1184 -1.4831
  412MOL0     H55604  -2.146   9.632   8.107 -1.3743 -2.6834 -0.4113
  412MOL0     H55605  -1.929   9.525   8.059  1.5222  1.6431  1.1536
  412MOL0     H55606  -0.048  10.585   7.547 -0.3815  0.6217 -2.5757
  412MOL0     H55607   0.178  10.511   7.463  0.3443 -0.5657 -0.3568
  412MOL0     H55608   0.608  10.309   7.533  1.5638  0.4053 -0.1181
  412MOL0     H55609   0.813  10.250   7.393 -0.6651 -0.1573  1.3886
  412MOL0     H55610   0.979  10.227   7.223  1.7136  0.0378 -2.0220
  412MOL0     H55611   0.926  10.059   7.269 -2.4227 -1.1971 -1.0636
  412MOL0     H55612   1.035  10.144   6.996 -0.0072  2.7460  1.9978
  412MOL0     H55613   0.995   9.974   7.045  1.1464  0.1583 -1.6366
  412MOL0     H55614   1.182  10.013   7.233 -1.0667 -0.2291  1.2981
  412MOL0     H55615   1.220  10.154   7.117 -1.7939  1.3323  0.9685
  412MOL0     H55616   1.278  10.029   6.942 -4.2354  3.5221  0.8788
  412MOL0     H55617   1.196   9.881   7.012  0.1629 -0.8385  2.1400
  412MOL0     H55618   1.527   9.868   7.261 -1.5304  4.9116  3.4049
  412MOL0     H55619   0.583  10.178   7.050 -0.0171  0.4575  0.2325
  412MOL0     H55620   0.371  10.235   7.183 -0.0264 -1.3496 -1.1730
  413MOL0     O55621   9.483  10.160   0.712  0.7637  0.1006 -0.0975
  413MOL0     C55622   9.498  10.171   0.832 -0.6840  0.7710  0.0501
  413MOL0     O55623   9.404  10.179   0.923 -0.1295  0.1823  0.2923
  413MOL0     C55624   9.280  10.138   0.888  0.1941 -0.5927 -0.3681
  413MOL0     C55625   9.168  10.220   0.909  0.3379  0.1831 -0.4403
  413MOL0     C55626   9.042  10.168   0.886  0.5806 -0.4663 -0.5268
  413MOL0     C55627   9.026  10.043   0.826 -0.8081  1.3067  0.1241
  413MOL0     O55628   8.898  10.000   0.815 -0.2617 -0.3703  0.1437
  413MOL0     C55629   8.865   9.906   0.713  0.4734  0.3216 -0.5554
  413MOL0     C55630   8.721   9.930   0.669  0.0375 -0.2651 -0.0856
  413MOL0     C55631   8.616   9.923   0.781  0.0287 -0.0788  0.7663
  413MOL0     C55632   8.479   9.927   0.696  0.3100 -0.2631 -0.2493
  413MOL0     C55633   8.449   9.780   0.656 -0.0388  0.2447 -0.5680
  413MOL0     C55634   8.312   9.758   0.605  0.1099 -0.7770  0.5078
  413MOL0     C55635   8.288   9.605   0.597 -0.4475 -0.2734  0.0343
  413MOL0     C55636   8.161   9.572   0.518  0.0183  0.8178  0.1992
  413MOL0     N55637   8.041   9.652   0.553 -0.3902  0.0312 -0.0863
  413MOL0     C55638   7.972   9.645   0.674 -0.2570 -0.2872  0.1278
  413MOL0     C55639   7.869   9.725   0.660  0.4673 -0.4888 -0.6343
  413MOL0     C55640   7.754   9.751   0.765  0.5385  0.3815 -0.2031
  413MOL0     C55641   7.632   9.671   0.718  0.8478  0.4581 -0.4862
  413MOL0     C55642   7.501   9.698   0.790  0.1030 -0.2829  0.1442
  413MOL0     C55643   7.393   9.598   0.730  0.4445 -0.5079  0.6069
  413MOL0     O55644   7.420   9.481   0.796  0.5375  0.0916  1.1467
  413MOL0     C55645   7.326   9.389   0.760 -0.8736  0.2236 -0.3493
  413MOL0     C55646   7.324   9.284   0.855 -0.4502 -0.3740 -0.8945
  413MOL0     C55647   7.221   9.187   0.860 -0.5645 -0.1224 -0.0182
  413MOL0     C55648   7.223   9.094   0.970 -0.0321  0.5900 -0.9324
  413MOL0     C55649   7.135   9.179   0.752  0.4455 -0.0593  0.5532
  413MOL0     C55650   7.042   9.063   0.724  0.0087 -0.0565 -0.0805
  413MOL0     O55651   6.982   9.059   0.601  0.0280  0.6517  0.1126
  413MOL0     C55652   6.883   8.971   0.564 -0.1726  0.1935 -0.6793
  413MOL0     C55653   6.904   8.902   0.445  0.7123  0.0608  0.2070
  413MOL0     C55654   6.803   8.822   0.396  0.0246  0.3967  0.2916
  413MOL0     C55655   6.674   8.822   0.453  0.0653 -0.0344 -0.3760
  413MOL0     O55656   6.583   8.739   0.398  0.3523 -0.4967 -0.0906
  413MOL0     C55657   6.571   8.731   0.255 -0.3046  0.3789  0.4829
  413MOL0     C55658   6.430   8.691   0.220  0.7315  0.4222  0.9370
  413MOL0     C55659   6.317   8.797   0.235 -0.1250 -0.2174  0.1367
  413MOL0     C55660   6.175   8.737   0.208 -0.4628 -0.1448  0.2354
  413MOL0     C55661   6.063   8.841   0.246 -0.4430  0.0194  0.3210
  413MOL0     C55662   6.056   8.947   0.136 -0.1618 -0.8037 -1.1395
  413MOL0     C55663   5.944   9.052   0.147 -0.0203 -0.0233  0.8634
  413MOL0     C55664   5.808   9.002   0.110  0.4383  0.6948 -0.6460
  413MOL0    Cl55665   5.681   9.137   0.146 -0.0321  0.1961 -0.1558
  413MOL0     C55666   6.653   8.887   0.578 -0.2889  0.0139  0.0319
  413MOL0     C55667   6.761   8.965   0.624 -0.7380  0.0752 -0.1155
  413MOL0     O55668   7.044   8.968   0.801  0.3807 -0.2953 -0.1762
  413MOL0     C55669   7.145   9.279   0.649 -0.2901 -0.1360  0.3066
  413MOL0     C55670   7.240   9.382   0.646 -0.3411  0.1213  0.2254
  413MOL0     N55671   7.877   9.789   0.536 -0.0083 -0.5864  1.3438
  413MOL0     N55672   7.979   9.750   0.471  0.7016 -0.5062 -0.6677
  413MOL0     C55673   9.135   9.957   0.810 -0.1847 -0.3208 -0.3002
  413MOL0     C55674   9.263  10.005   0.852 -0.0299  0.6906  0.4836
  413MOL0     C55675   9.643  10.176   0.873 -0.5302 -0.7294  0.3841
  413MOL0     C55676   9.683  10.193   1.005  0.1446 -0.0624 -0.5316
  413MOL0     C55677   9.814  10.201   1.039  0.0515  0.2322 -0.2165
  413MOL0     C55678   9.919  10.214   0.949 -0.2611  0.2855 -0.0314
  413MOL0     O55679  10.049  10.240   0.989  0.3699  0.7399  0.0938
  413MOL0     C55680  10.158  10.235   0.901  1.3107 -0.2279 -0.7028
  413MOL0     C55681  10.293  10.225   0.975 -0.2787 -0.7094  0.6163
  413MOL0     C55682  10.419  10.265   0.893  0.4272 -0.0724  0.3652
  413MOL0     C55683  10.543  10.293   0.967 -0.4346 -0.0984  0.6652
  413MOL0     C55684  10.595  10.170   1.023  0.3101  0.4306 -0.1462
  413MOL0     C55685  10.650  10.075   1.073 -1.0113  0.0514  0.6496
  413MOL0     C55686   9.877  10.211   0.818 -0.5038  0.4612 -0.7405
  413MOL0     C55687   9.744  10.190   0.779 -0.7182  0.4896  0.4249
  413MOL0     H55688   9.193  10.322   0.936  0.3157 -0.4711  2.3945
  413MOL0     H55689   8.962  10.230   0.926  1.7890  1.2241 -0.6020
  413MOL0     H55690   8.927   9.923   0.625  1.1890 -2.1485 -0.6090
  413MOL0     H55691   8.886   9.806   0.753  2.0430  1.1302  0.7695
  413MOL0     H55692   8.713  10.030   0.624 -0.2806 -0.7006 -1.0318
  413MOL0     H55693   8.697   9.868   0.582  2.7794 -0.1896 -0.9951
  413MOL0     H55694   8.626   9.832   0.841 -1.5620 -2.0441 -1.7358
  413MOL0     H55695   8.625  10.010   0.846 -1.7135 -0.6150  1.7782
  413MOL0     H55696   8.396   9.957   0.760  0.5197 -1.1065  0.4376
  413MOL0     H55697   8.480   9.993   0.609 -2.9508  0.4783  0.1597
  413MOL0     H55698   8.523   9.746   0.583 -1.4823  1.4143 -2.6709
  413MOL0     H55699   8.450   9.718   0.746  0.4309 -0.7032 -1.2132
  413MOL0     H55700   8.240   9.798   0.676 -0.6234 -0.0907 -0.5856
  413MOL0     H55701   8.304   9.802   0.504 -0.2425 -2.1559 -0.0876
  413MOL0     H55702   8.370   9.564   0.538 -1.4528 -1.1012 -0.8213
  413MOL0     H55703   8.286   9.561   0.697  0.4454  2.8805  1.5792
  413MOL0     H55704   8.127   9.468   0.525  0.0496  0.7245 -0.8565
  413MOL0     H55705   8.183   9.576   0.410 -3.3097 -1.0809 -0.7010
  413MOL0     H55706   7.992   9.582   0.760  2.6459  0.5338  0.1638
  413MOL0     H55707   7.786   9.721   0.866  5.4618 -0.8819 -1.8492
  413MOL0     H55708   7.740   9.860   0.769  2.1125  0.5769  0.7829
  413MOL0     H55709   7.664   9.567   0.733  0.6702  0.4550 -0.1054
  413MOL0     H55710   7.619   9.687   0.611 -0.4260 -0.3443 -0.4751
  413MOL0     H55711   7.476   9.805   0.783  0.6335 -0.1413  0.3679
  413MOL0     H55712   7.512   9.664   0.893  1.9362 -1.0736 -0.2738
  413MOL0     H55713   7.391   9.587   0.621 -2.6420  1.9253  0.2713
  413MOL0     H55714   7.295   9.642   0.751  1.6361  2.5110  0.3086
  413MOL0     H55715   7.404   9.295   0.927  2.4044  0.9047 -3.9873
  413MOL0     H55716   7.314   9.100   1.031 -1.2202  2.2904  0.7823
  413MOL0     H55717   7.131   9.116   1.025 -0.8563 -0.4691 -1.8563
  413MOL0     H55718   7.233   8.990   0.937  0.7024 -0.7224  2.8769
  413MOL0     H55719   7.002   8.893   0.398  1.1332 -4.4234  1.4508
  413MOL0     H55720   6.829   8.748   0.321  0.4400  0.8835 -0.0562
  413MOL0     H55721   6.599   8.822   0.202  1.8166 -0.9166 -0.7507
  413MOL0     H55722   6.644   8.663   0.211 -2.0938 -1.2979 -0.0317
  413MOL0     H55723   6.435   8.662   0.114  1.3864  2.0000  0.4978
  413MOL0     H55724   6.399   8.608   0.284 -0.7449  0.9066  0.8987
  413MOL0     H55725   6.334   8.878   0.163  2.7925  0.4789  1.4935
  413MOL0     H55726   6.326   8.838   0.336  1.6099  0.5411 -0.2852
  413MOL0     H55727   6.160   8.708   0.104 -1.0305 -2.4281  0.8876
  413MOL0     H55728   6.167   8.642   0.262  0.4351 -0.9650 -1.0317
  413MOL0     H55729   6.076   8.906   0.333  0.7376 -0.0419  0.2109
  413MOL0     H55730   5.969   8.785   0.243  0.5512 -1.6972 -2.3440
  413MOL0     H55731   6.149   9.003   0.138  0.5294 -1.9260 -1.1353
  413MOL0     H55732   6.062   8.899   0.038  2.4608 -1.9061 -0.5083
  413MOL0     H55733   5.968   9.138   0.084 -1.7680  1.8963  2.6318
  413MOL0     H55734   5.935   9.095   0.248  1.7965  1.3256  0.4954
  413MOL0     H55735   5.788   8.916   0.173 -0.8704 -0.6498 -2.7725
  413MOL0     H55736   5.799   8.969   0.006 -2.0723  1.0700 -0.6037
  413MOL0     H55737   6.561   8.883   0.635 -0.8616 -1.9561 -0.9210
  413MOL0     H55738   6.754   9.023   0.716 -1.0178 -0.9238  0.5022
  413MOL0     H55739   7.085   9.269   0.560  0.2424  1.2697 -0.2386
  413MOL0     H55740   7.239   9.455   0.565  0.3005 -1.8670 -1.6841
  413MOL0     H55741   9.116   9.860   0.766 -0.1895  0.2737 -1.6694
  413MOL0     H55742   9.346   9.937   0.840 -2.0556 -1.5710 -1.8335
  413MOL0     H55743   9.611  10.203   1.085  1.2683  1.7652  0.3255
  413MOL0     H55744   9.836  10.203   1.145 -1.7478  2.1321  0.1725
  413MOL0     H55745  10.142  10.156   0.827  0.5766 -1.8508  1.1196
  413MOL0     H55746  10.153  10.330   0.846 -1.0818 -0.1003 -0.3317
  413MOL0     H55747  10.311  10.122   1.005  0.3801 -0.6644  0.3742
  413MOL0     H55748  10.287  10.287   1.066 -1.9544  3.4869 -2.0449
  413MOL0     H55749  10.403  10.358   0.837  2.0415 -0.5464 -0.9577
  413MOL0     H55750  10.426  10.191   0.812  0.7589  0.8970 -0.5191
  413MOL0     H55751  10.524  10.364   1.048 -1.2128  0.2115  0.2219
  413MOL0     H55752  10.624  10.328   0.901 -1.1729 -0.4687 -0.4714
  413MOL0     H55753  10.696   9.984   1.106 -2.4949 -0.4658  1.3902
  413MOL0     H55754   9.951  10.210   0.739 -2.3981 -1.2285 -2.6264
  413MOL0     H55755   9.729  10.189   0.672 -1.9124 -1.8230  0.5531
  414MOL0     O55756   7.713   0.195   6.039 -0.3801  0.2003  0.2858
  414MOL0     C55757   7.768   0.184   6.142 -0.3751  0.3505 -0.3753
  414MOL0     O55758   7.697   0.169   6.263 -0.2454  0.0096  0.2411
  414MOL0     C55759   7.555   0.170   6.273 -0.1208 -0.0002 -0.4739
  414MOL0     C55760   7.471   0.126   6.170 -0.8545  0.2151  0.6555
  414MOL0     C55761   7.336   0.124   6.189 -0.0635 -0.4171  0.2773
  414MOL0     C55762   7.280   0.172   6.305  0.1033  0.3880 -0.2142
  414MOL0     O55763   7.142   0.185   6.310 -0.7751 -0.3300  0.6049
  414MOL0     C55764   7.084   0.242   6.427 -0.7659  0.6959 -0.1677
  414MOL0     C55765   7.087   0.394   6.430  0.3012  0.6827 -0.2797
  414MOL0     C55766   6.999   0.456   6.322  0.0831 -0.0130  0.5675
  414MOL0     C55767   7.039   0.601   6.303  0.5904  0.2636  0.3274
  414MOL0     C55768   6.961   0.683   6.198  0.7569 -0.2065  0.0969
  414MOL0     C55769   7.011   0.658   6.056 -0.6516  0.6736 -0.2379
  414MOL0     C55770   6.922   0.720   5.950  0.4007  0.9595  0.3994
  414MOL0     C55771   6.898   0.876   5.965  0.3550  0.3279  0.4445
  414MOL0     N55772   6.769   0.917   6.020 -0.5150 -0.0883  0.0966
  414MOL0     C55773   6.679   1.002   5.962  0.4385 -1.2027  0.1201
  414MOL0     C55774   6.580   1.021   6.051 -0.5648  0.7134 -0.7472
  414MOL0     C55775   6.457   1.118   6.041 -0.4700 -0.0288  0.0377
  414MOL0     C55776   6.337   1.050   6.088 -0.9524 -0.1270  0.5514
  414MOL0     C55777   6.212   1.127   6.064  0.3873  0.5916 -0.6935
  414MOL0     C55778   6.175   1.239   6.160 -0.1710 -0.1104  0.2081
  414MOL0     O55779   6.050   1.280   6.122 -0.1149 -0.1899  0.3387
  414MOL0     C55780   5.997   1.382   6.198  0.5362  0.5836  0.0985
  414MOL0     C55781   5.858   1.416   6.188  0.8384 -0.5789 -0.0695
  414MOL0     C55782   5.791   1.518   6.254 -0.5589 -0.1781  0.1217
  414MOL0     C55783   5.649   1.546   6.211 -1.3752  0.4806 -0.4658
  414MOL0     C55784   5.870   1.596   6.346  0.2056 -0.4446 -0.1330
  414MOL0     C55785   5.818   1.714   6.422 -0.8023 -0.4737 -0.3021
  414MOL0     O55786   5.694   1.706   6.448 -0.3992 -0.0118 -0.9735
  414MOL0     C55787   5.634   1.819   6.495 -0.7110 -0.6685 -0.0345
  414MOL0     C55788   5.606   1.936   6.407  0.4497  0.6225  0.0863
  414MOL0     C55789   5.535   2.038   6.457  1.1013  0.5459  0.5582
  414MOL0     C55790   5.478   2.038   6.580  1.3457 -0.9389 -0.0398
  414MOL0     O55791   5.409   2.149   6.621  0.3824 -0.0976  0.4858
  414MOL0     C55792   5.350   2.151   6.747 -0.0170 -0.0509  0.2576
  414MOL0     C55793   5.228   2.241   6.739 -0.0279 -0.0344 -0.3891
  414MOL0     C55794   5.121   2.190   6.662  0.4406 -0.1769 -0.0310
  414MOL0     C55795   4.999   2.281   6.644 -0.1507 -0.6142 -0.3044
  414MOL0     C55796   4.923   2.318   6.763 -0.6992  0.5097  0.2324
  414MOL0     C55797   4.801   2.411   6.723 -0.9512  0.1486 -0.1223
  414MOL0     C55798   4.697   2.400   6.837 -0.4655 -1.3457  0.7770
  414MOL0     C55799   4.631   2.267   6.822 -0.4228 -0.0635  0.8599
  414MOL0    Cl55800   4.476   2.259   6.904 -0.3586  0.0530 -0.0189
  414MOL0     C55801   5.491   1.921   6.659  0.4833 -0.4517 -0.0542
  414MOL0     C55802   5.571   1.816   6.614  0.8830  0.2418 -0.2077
  414MOL0     O55803   5.899   1.782   6.481  0.2743 -0.4907  0.6357
  414MOL0     C55804   6.011   1.568   6.344  0.0547 -0.4637 -0.5100
  414MOL0     C55805   6.072   1.456   6.282  0.2165 -0.0500  0.0292
  414MOL0     N55806   6.618   0.953   6.173  0.3690 -0.3480  0.0689
  414MOL0     N55807   6.728   0.899   6.149 -0.3741 -0.3129  0.5638
  414MOL0     C55808   7.360   0.216   6.407  0.3124 -0.4203 -0.2002
  414MOL0     C55809   7.500   0.207   6.393 -0.1287 -0.3015 -1.1231
  414MOL0     C55810   7.916   0.206   6.159 -0.4666 -0.1856 -0.4575
  414MOL0     C55811   7.969   0.268   6.281  0.4833 -0.1814 -0.6759
  414MOL0     C55812   8.104   0.306   6.282 -0.5019  0.0393 -0.9181
  414MOL0     C55813   8.183   0.283   6.175 -0.5612 -0.1653 -1.3203
  414MOL0     O55814   8.311   0.306   6.201  0.0121  0.2821 -0.5573
  414MOL0     C55815   8.410   0.230   6.139 -0.1288  0.3785  0.5667
  414MOL0     C55816   8.543   0.259   6.199  0.4489 -0.3297  0.4703
  414MOL0     C55817   8.598   0.402   6.174  0.1524  0.8119 -0.9558
  414MOL0     C55818   8.712   0.440   6.269 -0.5572 -0.1199  0.3887
  414MOL0     C55819   8.776   0.569   6.214  0.1497 -0.4115 -0.0826
  414MOL0     C55820   8.842   0.667   6.183 -0.5863  0.3012  0.8517
  414MOL0     C55821   8.134   0.220   6.058 -0.0673 -0.4961  0.3427
  414MOL0     C55822   8.002   0.178   6.053  0.3169 -0.0148 -0.3128
  414MOL0     H55823   7.515   0.072   6.086  0.6504  4.4582 -1.5965
  414MOL0     H55824   7.267   0.092   6.111  1.5628  2.1613 -2.4562
  414MOL0     H55825   6.981   0.206   6.431  0.0923 -1.9491 -0.2218
  414MOL0     H55826   7.129   0.210   6.521  1.8463  2.7051 -0.6010
  414MOL0     H55827   7.047   0.422   6.528 -1.7832 -2.2197 -0.1709
  414MOL0     H55828   7.187   0.437   6.413 -0.0157  0.8387 -1.9526
  414MOL0     H55829   7.007   0.398   6.230  1.9326  3.0293 -1.3278
  414MOL0     H55830   6.894   0.454   6.352 -0.4523 -0.5498 -1.2288
  414MOL0     H55831   7.018   0.641   6.402 -1.3917 -1.5385  0.7095
  414MOL0     H55832   7.148   0.604   6.289  0.7978 -2.6078  0.7224
  414MOL0     H55833   6.853   0.672   6.210  0.9469 -0.9214  1.2975
  414MOL0     H55834   6.969   0.790   6.220  0.0446 -0.1866  0.2766
  414MOL0     H55835   7.114   0.695   6.050 -1.0799  2.0933  0.6026
  414MOL0     H55836   7.013   0.551   6.033 -1.2834  1.1588 -2.8976
  414MOL0     H55837   6.964   0.712   5.849 -0.1047 -0.0627  0.2607
  414MOL0     H55838   6.827   0.668   5.937  1.4071 -0.6222 -0.9485
  414MOL0     H55839   6.910   0.933   5.873 -1.2218  1.5044  0.9379
  414MOL0     H55840   6.974   0.903   6.040  0.7289 -1.4835  0.7740
  414MOL0     H55841   6.683   1.042   5.861 -0.6980 -0.6595  0.2724
  414MOL0     H55842   6.474   1.205   6.105  2.0094 -0.2110 -0.2621
  414MOL0     H55843   6.448   1.164   5.942  2.6428  0.6811 -0.0098
  414MOL0     H55844   6.344   1.018   6.192  1.4880 -0.0251  0.4783
  414MOL0     H55845   6.339   0.963   6.022  1.2990  2.4909 -3.2802
  414MOL0     H55846   6.137   1.047   6.066  0.2323  0.7438 -0.1397
  414MOL0     H55847   6.213   1.168   5.963  2.9238  2.5097 -0.0014
  414MOL0     H55848   6.248   1.320   6.154 -1.2304  1.1037  2.2976
  414MOL0     H55849   6.163   1.204   6.263 -2.3690 -0.2720 -0.0452
  414MOL0     H55850   5.794   1.371   6.113 -0.0057  0.2703  0.1330
  414MOL0     H55851   5.580   1.510   6.289 -0.5537  2.0186  1.0230
  414MOL0     H55852   5.638   1.655   6.214  1.7269  0.8418  0.7942
  414MOL0     H55853   5.633   1.508   6.109  2.8277 -0.4053 -0.9636
  414MOL0     H55854   5.663   1.937   6.315 -0.2988 -1.0475 -0.4411
  414MOL0     H55855   5.501   2.112   6.386 -2.3568 -0.5609  0.8486
  414MOL0     H55856   5.290   2.060   6.761 -3.5437  1.9456 -0.5006
  414MOL0     H55857   5.408   2.180   6.835 -0.1440  3.0281 -0.5905
  414MOL0     H55858   5.197   2.244   6.844 -0.5642 -3.2795 -0.3456
  414MOL0     H55859   5.265   2.339   6.706 -0.6499  0.6497  0.8623
  414MOL0     H55860   5.083   2.097   6.706 -0.8617  0.2746 -0.1531
  414MOL0     H55861   5.160   2.158   6.565  1.2701  0.9283 -0.0795
  414MOL0     H55862   5.034   2.374   6.599  1.5811  0.2324  2.5868
  414MOL0     H55863   4.924   2.232   6.581 -0.7537 -1.8256  1.2812
  414MOL0     H55864   4.993   2.370   6.829 -0.8500  2.9924 -1.4395
  414MOL0     H55865   4.890   2.231   6.822 -0.1210 -0.9575 -1.5144
  414MOL0     H55866   4.835   2.516   6.720 -1.3109  0.2959  0.7722
  414MOL0     H55867   4.769   2.392   6.620  3.8544 -1.3546 -1.6037
  414MOL0     H55868   4.621   2.477   6.826  2.1814  1.4247  0.5816
  414MOL0     H55869   4.753   2.414   6.930  0.7408  2.8177 -0.3765
  414MOL0     H55870   4.694   2.181   6.845 -0.7321 -0.6039 -0.2172
  414MOL0     H55871   4.614   2.252   6.714  2.0913  0.3836  0.3501
  414MOL0     H55872   5.459   1.915   6.763  0.3816 -1.0473 -0.1169
  414MOL0     H55873   5.589   1.719   6.659  0.0807 -0.2007 -0.8057
  414MOL0     H55874   6.073   1.636   6.403 -2.9891  0.7285  1.5571
  414MOL0     H55875   6.179   1.439   6.292 -0.0417 -1.7393  0.2069
  414MOL0     H55876   7.334   0.251   6.506  2.0084 -0.8826  0.4480
  414MOL0     H55877   7.561   0.231   6.480 -2.9529  0.3401  0.8233
  414MOL0     H55878   7.908   0.277   6.370  1.7312 -1.1206  0.3152
  414MOL0     H55879   8.142   0.350   6.373  1.8113 -2.8801 -0.3215
  414MOL0     H55880   8.405   0.122   6.151  2.1998  0.2468  0.8044
  414MOL0     H55881   8.400   0.258   6.034 -3.2989  3.3869  1.4593
  414MOL0     H55882   8.619   0.183   6.177  0.5108  0.1584 -1.1727
  414MOL0     H55883   8.521   0.255   6.306  3.6608 -1.8999  1.2040
  414MOL0     H55884   8.510   0.467   6.184 -1.9145 -1.9360  0.1381
  414MOL0     H55885   8.640   0.407   6.074  1.4915  0.1563 -0.4404
  414MOL0     H55886   8.789   0.362   6.274  0.2350  0.7442  2.8159
  414MOL0     H55887   8.676   0.460   6.370  1.4107 -1.9704  1.5447
  414MOL0     H55888   8.877   0.762   6.149  0.8037 -0.9125 -1.4046
  414MOL0     H55889   8.199   0.215   5.971 -3.0757 -1.4813 -2.0354
  414MOL0     H55890   7.969   0.136   5.959 -0.9516  1.8652 -0.7638
  415MOL0     O55891   4.987   7.607   8.909  0.1709 -1.0100  0.2584
  415MOL0     C55892   4.971   7.704   8.831  0.1640 -0.2660 -0.7803
  415MOL0     O55893   5.057   7.812   8.821 -0.3364 -0.3735  0.9743
  415MOL0     C55894   5.193   7.806   8.845 -0.1009  1.5611  0.2555
  415MOL0     C55895   5.266   7.691   8.876 -0.7142 -0.2350 -0.4106
  415MOL0     C55896   5.408   7.695   8.910 -0.3598 -0.5246 -0.0872
  415MOL0     C55897   5.474   7.813   8.914  0.8648  0.7690 -0.0639
  415MOL0     O55898   5.605   7.807   8.952 -0.5770  0.1031  0.6377
  415MOL0     C55899   5.673   7.927   9.001  0.9972  0.2732  0.2086
  415MOL0     C55900   5.817   7.895   9.072  0.1800 -0.7152  0.0937
  415MOL0     C55901   5.889   8.026   9.094 -0.0207 -0.2583  0.2735
  415MOL0     C55902   5.943   8.100   8.970 -0.6766 -0.2183  1.0686
  415MOL0     C55903   6.050   8.196   9.016  0.1833 -0.6728  0.2529
  415MOL0     C55904   6.106   8.280   8.898  0.2636  0.6023  0.0723
  415MOL0     C55905   6.180   8.212   8.792 -0.5076 -0.6803 -0.3824
  415MOL0     C55906   6.283   8.303   8.713 -0.3578 -0.0065  0.1886
  415MOL0     N55907   6.226   8.412   8.639 -0.6297 -0.0476  0.3504
  415MOL0     C55908   6.090   8.434   8.612  0.0844  0.4284  0.3244
  415MOL0     C55909   6.083   8.563   8.587 -0.5224 -0.8873 -0.2445
  415MOL0     C55910   5.957   8.635   8.555 -0.1544 -0.9635  0.5355
  415MOL0     C55911   5.935   8.753   8.650  0.5388  0.2845 -0.3008
  415MOL0     C55912   5.812   8.835   8.621  0.1056 -0.1359 -1.1019
  415MOL0     C55913   5.689   8.760   8.668  0.1313 -0.2974  0.2174
  415MOL0     O55914   5.609   8.718   8.558  0.6872  0.4904  0.0565
  415MOL0     C55915   5.503   8.801   8.530 -0.3584 -0.0885 -0.0349
  415MOL0     C55916   5.503   8.944   8.534 -0.3291  0.3038  0.2314
  415MOL0     C55917   5.385   9.018   8.510 -0.1788 -0.3340 -0.8167
  415MOL0     C55918   5.392   9.163   8.531 -0.1232 -0.9029 -0.1226
  415MOL0     C55919   5.265   8.956   8.472  0.2171 -0.8184  0.0758
  415MOL0     C55920   5.136   9.026   8.450  0.0913 -0.2612  0.0414
  415MOL0     O55921   5.085   9.041   8.328 -0.2191 -0.3018  0.2389
  415MOL0     C55922   4.969   9.115   8.301 -0.0379  0.8526  0.4563
  415MOL0     C55923   4.910   9.220   8.377 -0.2927  0.1198 -0.2546
  415MOL0     C55924   4.800   9.287   8.327 -0.6493  0.1750 -0.1036
  415MOL0     C55925   4.750   9.262   8.196  0.0380 -0.0705  0.0099
  415MOL0     O55926   4.639   9.334   8.154  0.4522  0.2235  0.0815
  415MOL0     C55927   4.546   9.268   8.070 -0.1138  0.6698  0.4853
  415MOL0     C55928   4.418   9.343   8.107 -0.6818  0.2831  0.2200
  415MOL0     C55929   4.309   9.282   8.036 -0.1464  0.6966  0.2706
  415MOL0     C55930   4.175   9.362   8.009  0.1680 -0.7046  0.3957
  415MOL0     C55931   4.072   9.260   7.945  0.0206  0.0814  0.6642
  415MOL0     C55932   3.944   9.318   7.909 -0.3482 -0.0162 -0.0261
  415MOL0     C55933   3.843   9.204   7.876  0.1034  0.1674  0.3800
  415MOL0     C55934   3.701   9.248   7.887 -0.9294 -0.0651  0.2717
  415MOL0    Cl55935   3.588   9.123   7.841 -0.3741  0.2145 -0.0897
  415MOL0     C55936   4.816   9.172   8.116 -0.9065 -0.0547 -0.9483
  415MOL0     C55937   4.923   9.093   8.166 -0.0051 -0.8532 -0.4556
  415MOL0     O55938   5.083   9.056   8.552  0.0372  0.1531  0.0302
  415MOL0     C55939   5.261   8.815   8.482  0.1135  0.2593  0.2332
  415MOL0     C55940   5.383   8.742   8.498  0.0740 -0.2343  0.0900
  415MOL0     N55941   6.209   8.623   8.599  0.1340 -0.4559  0.0698
  415MOL0     N55942   6.294   8.530   8.617 -0.4644  0.4257  0.5565
  415MOL0     C55943   5.397   7.930   8.891 -1.0254 -0.4462  0.6305
  415MOL0     C55944   5.265   7.927   8.851 -0.0378  0.9319 -0.4679
  415MOL0     C55945   4.840   7.714   8.760  0.2913  0.4164 -0.5554
  415MOL0     C55946   4.756   7.606   8.745  0.3578  0.0539 -0.3749
  415MOL0     C55947   4.629   7.627   8.699  0.6524  0.6615  0.2637
  415MOL0     C55948   4.591   7.752   8.651  0.0852 -0.5612  1.4456
  415MOL0     O55949   4.457   7.777   8.619 -0.2557  0.2226  0.5208
  415MOL0     C55950   4.361   7.749   8.718 -0.5070 -0.0931  0.1777
  415MOL0     C55951   4.284   7.622   8.684  0.3641  0.7066 -0.3787
  415MOL0     C55952   4.218   7.540   8.796 -0.2202  0.5125 -0.2226
  415MOL0     C55953   4.320   7.449   8.852  0.5789 -0.0042 -0.1153
  415MOL0     C55954   4.429   7.514   8.933 -0.5224 -0.0998  0.1995
  415MOL0     C55955   4.522   7.554   9.000 -0.1197 -0.8863 -0.1917
  415MOL0     C55956   4.677   7.860   8.659  0.5513 -0.2490 -0.2889
  415MOL0     C55957   4.805   7.840   8.710  0.1634 -0.6318  0.2963
  415MOL0     H55958   5.214   7.595   8.871 -2.1758  0.4470  0.8404
  415MOL0     H55959   5.468   7.606   8.926  1.5292 -0.1158 -3.9157
  415MOL0     H55960   5.681   7.992   8.914 -3.2181 -0.7046 -1.1425
  415MOL0     H55961   5.600   7.972   9.069 -1.3962 -3.4146  0.3401
  415MOL0     H55962   5.803   7.857   9.174  1.6741 -1.7362 -0.0633
  415MOL0     H55963   5.868   7.830   9.002  1.8196  0.8972 -0.2910
  415MOL0     H55964   5.826   8.089   9.157  1.9947 -0.1055  2.2793
  415MOL0     H55965   5.985   8.007   9.144 -0.0530 -0.4724  0.2589
  415MOL0     H55966   5.995   8.022   8.914  1.0595  0.4669  1.6520
  415MOL0     H55967   5.869   8.146   8.904 -0.9458 -3.0905 -0.8197
  415MOL0     H55968   6.019   8.263   9.098  1.6876  0.0906  0.2231
  415MOL0     H55969   6.137   8.146   9.057  1.8618  1.6934 -0.2350
  415MOL0     H55970   6.021   8.334   8.856 -1.5458  1.7898  4.6076
  415MOL0     H55971   6.176   8.348   8.948  0.1980 -0.8857  2.3475
  415MOL0     H55972   6.240   8.134   8.840  0.1557 -0.9806 -1.6527
  415MOL0     H55973   6.110   8.163   8.723 -2.1629 -0.9520  1.3902
  415MOL0     H55974   6.331   8.241   8.637 -3.0770  0.4803 -2.0491
  415MOL0     H55975   6.360   8.340   8.781 -1.5637  1.2157  0.9458
  415MOL0     H55976   6.008   8.363   8.601 -0.3875  1.1477 -1.0007
  415MOL0     H55977   5.967   8.677   8.454  2.1105 -0.0589  1.0706
  415MOL0     H55978   5.869   8.571   8.543 -2.0149  1.6840 -1.0341
  415MOL0     H55979   6.024   8.815   8.645  1.7948 -0.8851  3.7368
  415MOL0     H55980   5.926   8.721   8.754 -0.9182  1.0032 -0.1755
  415MOL0     H55981   5.801   8.851   8.513  1.8001  2.9693 -0.9207
  415MOL0     H55982   5.824   8.935   8.661  1.2715 -1.5710  2.5123
  415MOL0     H55983   5.633   8.834   8.726 -0.8312 -1.0613  0.2852
  415MOL0     H55984   5.707   8.672   8.730  0.8504 -0.7929 -0.6829
  415MOL0     H55985   5.596   8.992   8.563  3.9388 -4.8646 -2.9327
  415MOL0     H55986   5.495   9.197   8.512  0.5056 -2.1985  0.8557
  415MOL0     H55987   5.333   9.201   8.447  0.6866 -2.3604 -1.4135
  415MOL0     H55988   5.350   9.202   8.624 -1.7312 -0.0391 -1.1588
  415MOL0     H55989   4.942   9.246   8.477  2.4753  0.6700 -1.1755
  415MOL0     H55990   4.759   9.362   8.393  1.2032 -0.1569  1.5389
  415MOL0     H55991   4.568   9.288   7.965 -0.6132  0.4576  0.3379
  415MOL0     H55992   4.536   9.160   8.081 -1.4463  0.7140 -0.1191
  415MOL0     H55993   4.403   9.323   8.213 -0.3929  1.0782  0.4195
  415MOL0     H55994   4.430   9.450   8.085  2.1328 -0.2772 -1.4935
  415MOL0     H55995   4.287   9.189   8.091 -1.2788  1.8470  1.8542
  415MOL0     H55996   4.355   9.253   7.941  0.2488 -1.3906  1.0288
  415MOL0     H55997   4.128   9.393   8.103  3.1239 -0.4675  1.9048
  415MOL0     H55998   4.197   9.446   7.943  0.6533 -1.8275 -0.9255
  415MOL0     H55999   4.052   9.182   8.019 -1.0866  2.0537  2.5702
  415MOL0     H56000   4.117   9.219   7.854  1.3599  2.2604  0.2714
  415MOL0     H56001   3.904   9.380   7.990  1.0877  1.1528 -0.1493
  415MOL0     H56002   3.957   9.387   7.825 -2.3309 -0.6411 -0.8829
  415MOL0     H56003   3.848   9.119   7.945 -0.7935  2.2820  3.2492
  415MOL0     H56004   3.849   9.176   7.771 -3.6616 -1.7272  0.5359
  415MOL0     H56005   3.685   9.330   7.816  0.1922  0.1251  0.2266
  415MOL0     H56006   3.678   9.284   7.988 -0.2874 -2.3426  1.2988
  415MOL0     H56007   4.776   9.150   8.017  2.5167 -1.4767 -2.1800
  415MOL0     H56008   4.969   9.015   8.105 -0.8331 -0.6204 -1.4041
  415MOL0     H56009   5.169   8.765   8.455 -0.1215  1.5979 -1.7630
  415MOL0     H56010   5.382   8.633   8.494  1.4321 -0.3550  1.8308
  415MOL0     H56011   5.453   8.022   8.897  4.4248 -3.1966 -1.0765
  415MOL0     H56012   5.209   8.019   8.837 -1.0507  1.1506  3.6661
  415MOL0     H56013   4.794   7.510   8.780 -0.1554 -0.1427 -0.3471
  415MOL0     H56014   4.551   7.552   8.699 -1.3529  2.6507 -1.2501
  415MOL0     H56015   4.408   7.746   8.817  0.2452  1.0494 -0.1222
  415MOL0     H56016   4.290   7.832   8.728  0.4673  0.5735  2.0688
  415MOL0     H56017   4.342   7.556   8.618 -1.7791 -0.6040 -1.0732
  415MOL0     H56018   4.203   7.658   8.620  0.6668  0.7510 -0.7370
  415MOL0     H56019   4.138   7.472   8.764 -1.9195  0.7933  3.0021
  415MOL0     H56020   4.176   7.603   8.875  0.3791 -2.9912  3.2352
  415MOL0     H56021   4.369   7.387   8.776 -0.6696  2.0515 -2.7781
  415MOL0     H56022   4.264   7.383   8.919 -0.1559  1.4690  0.7669
  415MOL0     H56023   4.601   7.590   9.063  0.2372 -0.6090 -0.7953
  415MOL0     H56024   4.654   7.961   8.626  1.7657  1.0325  2.3947
  415MOL0     H56025   4.874   7.922   8.724  2.5345 -2.5108  0.2304
  416MOL0     O56026   7.063   0.216   7.571 -0.9182  0.1426  0.5381
  416MOL0     C56027   7.111   0.122   7.641 -0.0609 -0.6077 -0.2600
  416MOL0     O56028   7.059   0.077   7.763  0.0562  0.2354  0.8609
  416MOL0     C56029   6.930   0.087   7.788  0.5090 -0.0703 -0.0941
  416MOL0     C56030   6.889   0.087   7.924 -0.3587  0.1499  0.0391
  416MOL0     C56031   6.754   0.075   7.956 -0.3933 -0.3521 -0.7599
  416MOL0     C56032   6.652   0.088   7.861 -0.1903 -0.1914 -0.4476
  416MOL0     O56033   6.518   0.114   7.899 -0.1663  0.5077  0.3163
  416MOL0     C56034   6.491   0.220   7.989 -0.2665  0.9063 -0.6012
  416MOL0     C56035   6.395   0.315   7.927  1.0778 -0.3520 -0.0580
  416MOL0     C56036   6.258   0.242   7.911  1.4993  0.0215  0.2446
  416MOL0     C56037   6.151   0.319   7.826 -0.6005 -0.2637 -0.2179
  416MOL0     C56038   6.010   0.257   7.825  0.1705 -0.1183  0.7868
  416MOL0     C56039   6.014   0.127   7.747 -0.3422 -0.6152  0.6577
  416MOL0     C56040   5.873   0.079   7.729 -0.5211  0.4453  0.0618
  416MOL0     C56041   5.865  -0.051   7.651  0.6823 -0.4973 -0.0408
  416MOL0     N56042   5.725  -0.067   7.592 -0.1029 -0.1269 -0.5846
  416MOL0     C56043   5.607  -0.056   7.670 -0.3643 -0.7095  0.4766
  416MOL0     C56044   5.505  -0.084   7.582  0.5411  0.2636 -0.0296
  416MOL0     C56045   5.350  -0.097   7.613  0.0703  0.6635  0.0143
  416MOL0     C56046   5.316  -0.223   7.713  0.2145 -1.1074  0.5470
  416MOL0     C56047   5.364  -0.354   7.656 -0.9306  0.4058 -0.2746
  416MOL0     C56048   5.277  -0.399   7.543 -0.4043 -0.3880  0.7802
  416MOL0     O56049   5.150  -0.429   7.595  0.3147  0.7119  0.5684
  416MOL0     C56050   5.051  -0.471   7.505  0.2424 -0.6837  0.0374
  416MOL0     C56051   4.934  -0.500   7.567 -0.2272  0.2751  0.5960
  416MOL0     C56052   4.815  -0.538   7.497 -0.0167  0.2004  0.3748
  416MOL0     C56053   4.684  -0.550   7.576  0.2369  0.0015  0.5945
  416MOL0     C56054   4.828  -0.565   7.357 -0.0066  0.0086  0.2147
  416MOL0     C56055   4.710  -0.621   7.278  0.3617 -0.4715  0.0548
  416MOL0     O56056   4.580  -0.629   7.329  0.0586  0.7951 -0.1546
  416MOL0     C56057   4.485  -0.664   7.238  0.0311  0.1823 -0.7871
  416MOL0     C56058   4.435  -0.787   7.253 -0.4352  0.3951  0.5625
  416MOL0     C56059   4.329  -0.828   7.164 -0.0234  0.0267 -0.4980
  416MOL0     C56060   4.263  -0.738   7.075 -0.2218  1.3350  0.5794
  416MOL0     O56061   4.164  -0.799   7.001  0.2587 -0.0117  0.8118
  416MOL0     C56062   4.081  -0.701   6.932 -0.2453 -0.4534  0.3730
  416MOL0     C56063   3.951  -0.772   6.878  0.6641 -0.4342  0.1115
  416MOL0     C56064   3.849  -0.667   6.811 -1.0397 -0.0859 -0.2857
  416MOL0     C56065   3.751  -0.724   6.706 -0.5829 -0.2873  0.4505
  416MOL0     C56066   3.655  -0.819   6.779 -0.4632 -0.0050 -0.1727
  416MOL0     C56067   3.556  -0.870   6.683 -0.2397  0.0139 -0.6426
  416MOL0     C56068   3.474  -0.976   6.756  0.5376  0.7034  0.3855
  416MOL0     C56069   3.418  -1.089   6.653 -0.4249 -0.9524  1.3343
  416MOL0    Cl56070   3.304  -1.006   6.545  0.1617  0.4064  0.1907
  416MOL0     C56071   4.309  -0.605   7.084  0.6384  0.7496 -0.7511
  416MOL0     C56072   4.430  -0.575   7.145  0.5147 -0.6919  0.7533
  416MOL0     O56073   4.741  -0.657   7.165  0.3634 -0.2022 -0.0145
  416MOL0     C56074   4.952  -0.538   7.287 -0.3545 -0.2530 -0.7055
  416MOL0     C56075   5.063  -0.496   7.363 -0.5509 -0.0189 -0.4599
  416MOL0     N56076   5.562  -0.119   7.464  0.0469  0.3678  0.5892
  416MOL0     N56077   5.694  -0.110   7.471 -0.3146  0.8011  0.5426
  416MOL0     C56078   6.691   0.084   7.726 -0.8967  0.0583  0.0634
  416MOL0     C56079   6.828   0.083   7.688  0.1496  0.0907 -0.4101
  416MOL0     C56080   7.242   0.068   7.612 -0.6327  0.8741 -0.0005
  416MOL0     C56081   7.312   0.125   7.503  0.4436  0.3072 -0.3639
  416MOL0     C56082   7.447   0.087   7.485  0.7515 -1.1565  1.8683
  416MOL0     C56083   7.513  -0.010   7.548  0.4592  0.9471 -0.2750
  416MOL0     O56084   7.632  -0.069   7.509 -0.2210 -0.5930 -0.7214
  416MOL0     C56085   7.714  -0.124   7.616  0.3912 -0.6001 -0.6731
  416MOL0     C56086   7.862  -0.132   7.562 -0.5139 -0.0745 -1.0056
  416MOL0     C56087   7.904   0.010   7.505 -0.2531 -0.7971 -0.1061
  416MOL0     C56088   8.051   0.016   7.464 -0.3544  1.1139 -0.0919
  416MOL0     C56089   8.084   0.136   7.376 -0.4574 -1.0044 -0.4706
  416MOL0     C56090   8.119   0.228   7.303 -0.5859 -0.1212 -0.2754
  416MOL0     C56091   7.440  -0.064   7.661  0.2537  0.6390  0.8410
  416MOL0     C56092   7.308  -0.022   7.692  0.3490  0.5354  0.6332
  416MOL0     H56093   6.961   0.088   8.005  1.1723  3.4952 -1.1969
  416MOL0     H56094   6.733   0.075   8.062 -0.5834  0.3426 -0.7920
  416MOL0     H56095   6.445   0.165   8.072 -0.3981 -0.9596 -1.8537
  416MOL0     H56096   6.577   0.284   8.011 -0.2943  1.2150 -1.3623
  416MOL0     H56097   6.367   0.401   7.989 -2.2987 -1.9798  0.9501
  416MOL0     H56098   6.438   0.347   7.831 -1.1497  1.3917 -0.5555
  416MOL0     H56099   6.265   0.150   7.853  0.4838  1.5425 -2.5116
  416MOL0     H56100   6.214   0.226   8.010 -1.8590 -1.2384 -1.2961
  416MOL0     H56101   6.150   0.415   7.877 -0.8380 -1.1821  1.5633
  416MOL0     H56102   6.183   0.334   7.722  1.0716  0.8575  0.4121
  416MOL0     H56103   5.976   0.236   7.927  2.8160 -1.7285  1.4033
  416MOL0     H56104   5.944   0.323   7.767  1.5522  0.8359  0.2459
  416MOL0     H56105   6.064   0.137   7.650  2.0490  0.1931  1.8917
  416MOL0     H56106   6.072   0.055   7.805  1.0989  0.8489  1.1257
  416MOL0     H56107   5.819   0.080   7.824  0.3424  1.2412  0.5558
  416MOL0     H56108   5.826   0.153   7.664  1.8111  0.1902 -2.0246
  416MOL0     H56109   5.885  -0.124   7.730 -4.6475 -1.6739  0.5643
  416MOL0     H56110   5.954  -0.066   7.588  0.0784  0.5335 -1.1660
  416MOL0     H56111   5.600  -0.032   7.775 -0.4581 -0.7506  0.4797
  416MOL0     H56112   5.311  -0.006   7.660 -1.9095 -0.0785 -0.1175
  416MOL0     H56113   5.285  -0.110   7.526 -1.0517  1.9839  0.6233
  416MOL0     H56114   5.206  -0.220   7.717 -0.2289  0.7351 -4.8389
  416MOL0     H56115   5.352  -0.198   7.813 -1.8863  1.5189  0.7875
  416MOL0     H56116   5.367  -0.431   7.734 -1.2062  1.5742  0.9167
  416MOL0     H56117   5.465  -0.344   7.616 -1.0281 -0.4006 -0.7562
  416MOL0     H56118   5.320  -0.492   7.505  0.1010 -0.1892  0.8587
  416MOL0     H56119   5.272  -0.330   7.458  1.8555 -0.5682  0.4302
  416MOL0     H56120   4.923  -0.482   7.673  1.8254 -0.7452  1.0402
  416MOL0     H56121   4.602  -0.494   7.529 -0.1116 -0.3674  0.7617
  416MOL0     H56122   4.664  -0.657   7.582 -0.9757  0.0971 -1.0149
  416MOL0     H56123   4.701  -0.500   7.672  1.4850  0.8993 -0.0710
  416MOL0     H56124   4.480  -0.852   7.328 -0.8608 -0.3653  0.1729
  416MOL0     H56125   4.293  -0.930   7.169 -1.2360  0.3757 -1.5128
  416MOL0     H56126   4.062  -0.619   7.002  1.1321  0.4793 -0.3180
  416MOL0     H56127   4.136  -0.655   6.850 -0.0441  0.8078  1.1864
  416MOL0     H56128   3.993  -0.836   6.800  0.8573  0.7616 -0.7940
  416MOL0     H56129   3.911  -0.835   6.957  0.4311  0.9074  1.0950
  416MOL0     H56130   3.906  -0.589   6.760 -1.2985  0.8626  0.8404
  416MOL0     H56131   3.788  -0.626   6.892  3.2363 -0.8001  3.7336
  416MOL0     H56132   3.692  -0.644   6.660  0.9947  1.3507  1.1372
  416MOL0     H56133   3.801  -0.778   6.625  0.6447  1.3061  0.0989
  416MOL0     H56134   3.607  -0.765   6.862  0.9770  0.0530  0.6698
  416MOL0     H56135   3.723  -0.898   6.812 -1.1575  0.5546  3.0048
  416MOL0     H56136   3.485  -0.792   6.653  0.9455  1.0946 -0.7205
  416MOL0     H56137   3.603  -0.916   6.595  0.4353 -1.5004  0.4762
  416MOL0     H56138   3.406  -0.931   6.830 -0.8562  1.5648 -1.3516
  416MOL0     H56139   3.543  -1.034   6.819 -1.3495 -0.4597  1.4941
  416MOL0     H56140   3.361  -1.171   6.696 -2.5251 -0.1609  0.2213
  416MOL0     H56141   3.501  -1.122   6.590  0.0897  0.7038  1.0795
  416MOL0     H56142   4.252  -0.528   7.031 -2.6542 -0.7135  0.4153
  416MOL0     H56143   4.457  -0.470   7.151  1.0998 -0.8403  0.6924
  416MOL0     H56144   4.973  -0.558   7.182 -2.7084 -3.5593 -0.6784
  416MOL0     H56145   5.157  -0.472   7.314  0.2058  0.2408  1.0673
  416MOL0     H56146   6.621   0.081   7.643 -2.6475  0.0426  1.4753
  416MOL0     H56147   6.851   0.065   7.583 -0.3456 -2.2341 -0.1732
  416MOL0     H56148   7.266   0.199   7.438  0.1160 -0.1396 -0.6434
  416MOL0     H56149   7.496   0.137   7.402 -0.6555 -1.0350  1.0707
  416MOL0     H56150   7.711  -0.054   7.700  2.1446  0.6168 -1.5477
  416MOL0     H56151   7.677  -0.225   7.638  2.9854 -1.7645 -1.2796
  416MOL0     H56152   7.868  -0.206   7.481 -0.3641 -0.6453 -0.4766
  416MOL0     H56153   7.933  -0.175   7.633 -1.7000 -1.2180 -0.4698
  416MOL0     H56154   7.892   0.091   7.578 -0.1358  1.3551 -2.3261
  416MOL0     H56155   7.845   0.032   7.416  1.5220 -1.0856 -1.4035
  416MOL0     H56156   8.064  -0.077   7.409 -0.8123 -0.6517  2.6258
  416MOL0     H56157   8.114   0.018   7.553  3.8026 -3.0606 -2.4682
  416MOL0     H56158   8.134   0.309   7.234  1.0099 -1.4821 -1.6254
  416MOL0     H56159   7.473  -0.141   7.730  0.1860  0.6231  0.8550
  416MOL0     H56160   7.261  -0.065   7.780  0.2176 -1.0695 -0.1884
  417MOL0     O56161   1.124   1.235   3.103 -0.0231 -0.4532  0.1481
  417MOL0     C56162   1.193   1.325   3.069 -0.5220  0.2399  0.0219
  417MOL0     O56163   1.162   1.413   2.971 -0.0556  0.0685  0.2092
  417MOL0     C56164   1.041   1.446   2.921  0.4683  0.3031 -0.7844
  417MOL0     C56165   1.034   1.445   2.780 -0.6451 -0.6440 -0.6353
  417MOL0     C56166   0.910   1.469   2.717 -0.1288  0.5026  0.3518
  417MOL0     C56167   0.795   1.496   2.792 -0.0021  0.0581 -0.0899
  417MOL0     O56168   0.667   1.525   2.740  0.1085 -0.0493  0.1946
  417MOL0     C56169   0.672   1.621   2.632  0.4500  0.1672 -0.4455
  417MOL0     C56170   0.545   1.705   2.643  0.2744 -0.1077 -0.5343
  417MOL0     C56171   0.423   1.625   2.593 -1.5013 -0.0531  0.7842
  417MOL0     C56172   0.296   1.696   2.608 -0.0817  0.6987  0.1523
  417MOL0     C56173   0.165   1.614   2.569  0.0841  0.3171 -0.5091
  417MOL0     C56174   0.035   1.690   2.574 -0.5471  0.2030 -0.2245
  417MOL0     C56175  -0.019   1.672   2.719  0.9693  0.5226 -0.0602
  417MOL0     C56176  -0.082   1.800   2.742  0.4283 -0.9651  1.2547
  417MOL0     N56177  -0.186   1.843   2.652  0.5706 -0.5797  0.5477
  417MOL0     C56178  -0.305   1.776   2.614 -1.4589 -0.2286  0.3355
  417MOL0     C56179  -0.367   1.855   2.515  0.6574  0.2792 -0.2023
  417MOL0     C56180  -0.506   1.817   2.467  0.3763 -0.5183 -0.7094
  417MOL0     C56181  -0.607   1.915   2.533  0.2274 -0.4604 -0.2524
  417MOL0     C56182  -0.607   1.906   2.687  0.2646 -0.2020 -0.1335
  417MOL0     C56183  -0.731   1.965   2.756  0.6413 -0.0869 -0.6048
  417MOL0     O56184  -0.851   1.920   2.692 -0.3435 -0.5062 -0.3355
  417MOL0     C56185  -0.963   1.993   2.685 -0.0723 -0.4436  0.7583
  417MOL0     C56186  -0.998   2.103   2.763 -0.2581  0.2951  0.5474
  417MOL0     C56187  -1.122   2.168   2.748  0.0998  0.2137  0.4961
  417MOL0     C56188  -1.137   2.286   2.835 -0.3603  0.6987  0.7692
  417MOL0     C56189  -1.222   2.131   2.655  0.0886  0.2644  0.9505
  417MOL0     C56190  -1.347   2.202   2.621  0.0691  0.6669 -1.1161
  417MOL0     O56191  -1.451   2.120   2.618  0.3786 -0.5287  0.7892
  417MOL0     C56192  -1.580   2.161   2.591  0.1127 -0.1023 -0.0547
  417MOL0     C56193  -1.625   2.225   2.474 -0.4306 -0.9441  0.0271
  417MOL0     C56194  -1.760   2.259   2.455 -0.3271 -0.1302  0.1161
  417MOL0     C56195  -1.849   2.226   2.552  0.4246 -0.4415 -0.2164
  417MOL0     O56196  -1.983   2.250   2.539 -0.3079 -1.0127 -0.0338
  417MOL0     C56197  -2.031   2.272   2.405  0.1023 -0.7299  0.3935
  417MOL0     C56198  -2.188   2.256   2.401 -0.8092  0.2803  0.6524
  417MOL0     C56199  -2.247   2.334   2.516 -0.2275  0.0670  0.3372
  417MOL0     C56200  -2.396   2.344   2.515 -0.2541  0.8232 -0.2523
  417MOL0     C56201  -2.460   2.407   2.643 -0.0556 -0.4343  0.1963
  417MOL0     C56202  -2.419   2.338   2.779 -0.0219  0.2647 -0.2386
  417MOL0     C56203  -2.519   2.387   2.889 -0.5930  1.4340 -0.6211
  417MOL0     C56204  -2.531   2.539   2.915 -0.2273 -0.0195  0.8695
  417MOL0    Cl56205  -2.378   2.630   2.929  0.0667  0.1850 -0.0811
  417MOL0     C56206  -1.814   2.159   2.668  0.4500 -0.4738  0.2799
  417MOL0     C56207  -1.681   2.121   2.682 -0.2737  0.5656 -0.8574
  417MOL0     O56208  -1.359   2.327   2.617  0.0970  0.2713  0.4740
  417MOL0     C56209  -1.183   2.021   2.574 -0.3213 -0.2843 -0.0880
  417MOL0     C56210  -1.062   1.959   2.598  0.3264 -0.1699  0.7248
  417MOL0     N56211  -0.291   1.975   2.515  0.0393  0.9229  0.2955
  417MOL0     N56212  -0.186   1.961   2.590  0.5760 -0.2406 -0.3265
  417MOL0     C56213   0.804   1.494   2.933  0.0757  0.4775  0.7614
  417MOL0     C56214   0.922   1.473   2.990 -0.6149 -0.4277  0.2062
  417MOL0     C56215   1.328   1.317   3.129  0.1496 -0.0760  0.5689
  417MOL0     C56216   1.423   1.401   3.076 -0.7971  0.4395  0.1425
  417MOL0     C56217   1.560   1.375   3.107  0.4573  0.7110  0.0925
  417MOL0     C56218   1.599   1.290   3.207  0.1514  0.5772  0.0939
  417MOL0     O56219   1.729   1.259   3.241 -0.2404 -0.5419  0.3086
  417MOL0     C56220   1.829   1.348   3.189  0.2552 -0.2779  0.2435
  417MOL0     C56221   1.965   1.318   3.258  0.5513 -0.1722  0.4649
  417MOL0     C56222   2.044   1.207   3.178  0.1291 -0.0469 -1.0262
  417MOL0     C56223   2.169   1.163   3.247 -0.4148  0.4079 -0.0921
  417MOL0     C56224   2.146   1.116   3.381  0.0696 -0.1109  0.8045
  417MOL0     C56225   2.144   1.090   3.502  0.4401  1.1737  0.6875
  417MOL0     C56226   1.503   1.230   3.283  0.3077  0.4098  0.2251
  417MOL0     C56227   1.367   1.241   3.244  0.2219  0.5071  0.4022
  417MOL0     H56228   1.128   1.431   2.727  0.2261 -1.4024  1.0326
  417MOL0     H56229   0.910   1.464   2.609  0.3275 -0.9663  0.4005
  417MOL0     H56230   0.757   1.690   2.644 -0.7254  1.5146  0.3704
  417MOL0     H56231   0.675   1.566   2.537 -1.5880 -1.2782  0.2712
  417MOL0     H56232   0.523   1.766   2.730  1.3261  2.6861 -2.1032
  417MOL0     H56233   0.563   1.790   2.577  0.5326 -0.6406 -1.1719
  417MOL0     H56234   0.436   1.604   2.486  2.8375  4.4180  0.0561
  417MOL0     H56235   0.425   1.532   2.650  0.6947 -0.8563 -0.4907
  417MOL0     H56236   0.284   1.720   2.714  0.6357 -1.2156  0.7225
  417MOL0     H56237   0.301   1.788   2.549 -0.2651  1.4156  1.2204
  417MOL0     H56238   0.181   1.586   2.464 -2.5764  2.3865 -1.5681
  417MOL0     H56239   0.154   1.518   2.620 -0.8753  1.5497  1.7265
  417MOL0     H56240   0.060   1.791   2.541  1.8614 -0.1495  0.3175
  417MOL0     H56241  -0.033   1.648   2.499 -0.7287 -0.6483  0.3973
  417MOL0     H56242  -0.084   1.584   2.725 -1.1080  1.7373 -2.7718
  417MOL0     H56243   0.058   1.651   2.793  2.0545 -4.0124 -2.1206
  417MOL0     H56244  -0.008   1.880   2.741 -0.6752  0.0744  1.0865
  417MOL0     H56245  -0.125   1.810   2.842 -1.8488  2.0792  0.0959
  417MOL0     H56246  -0.330   1.678   2.654 -0.4740  0.4675  2.8922
  417MOL0     H56247  -0.521   1.815   2.359 -0.3670 -1.6829 -0.6057
  417MOL0     H56248  -0.522   1.714   2.500 -1.7026  0.2228  0.8500
  417MOL0     H56249  -0.707   1.888   2.500 -0.4359  2.1973 -0.6291
  417MOL0     H56250  -0.577   2.013   2.496  0.4801 -1.7404 -3.8553
  417MOL0     H56251  -0.515   1.946   2.730  1.1219 -1.2972 -0.8912
  417MOL0     H56252  -0.616   1.802   2.720 -2.9576 -0.8105 -2.4946
  417MOL0     H56253  -0.738   2.074   2.754  1.6708 -0.0107 -0.4455
  417MOL0     H56254  -0.741   1.947   2.863 -2.4037  1.4716 -0.5063
  417MOL0     H56255  -0.927   2.148   2.832 -0.5525  0.0985  0.9846
  417MOL0     H56256  -1.052   2.303   2.902  1.3654 -0.5070 -0.9836
  417MOL0     H56257  -1.153   2.374   2.774 -1.7562 -0.8947 -1.3097
  417MOL0     H56258  -1.223   2.258   2.898 -0.1354 -0.6861  0.4931
  417MOL0     H56259  -1.553   2.263   2.402 -0.6934  0.1541  0.3234
  417MOL0     H56260  -1.785   2.308   2.361  0.5562 -1.6964 -0.9748
  417MOL0     H56261  -2.000   2.367   2.359 -0.5912 -0.6613  0.0413
  417MOL0     H56262  -1.986   2.197   2.339 -0.0433 -0.0259 -0.5323
  417MOL0     H56263  -2.226   2.277   2.301  1.5525 -1.0439 -0.6254
  417MOL0     H56264  -2.191   2.149   2.421  4.7314 -0.2205  0.5100
  417MOL0     H56265  -2.206   2.435   2.518 -0.1751  0.0556 -0.0470
  417MOL0     H56266  -2.214   2.289   2.610  1.9780  0.4400 -0.1933
  417MOL0     H56267  -2.436   2.390   2.424  3.0774  0.8186 -1.8374
  417MOL0     H56268  -2.435   2.242   2.512  2.3838 -0.2422 -0.1690
  417MOL0     H56269  -2.567   2.394   2.625  0.3891 -4.8710 -0.5717
  417MOL0     H56270  -2.435   2.513   2.643  0.4074 -0.4862 -2.1669
  417MOL0     H56271  -2.412   2.231   2.755 -0.0891  0.1326  0.3218
  417MOL0     H56272  -2.315   2.361   2.804  0.5629 -2.9641  0.8769
  417MOL0     H56273  -2.469   2.344   2.977 -0.1242  3.2763  0.0657
  417MOL0     H56274  -2.613   2.334   2.872  0.4744 -1.5817  1.7742
  417MOL0     H56275  -2.587   2.570   3.004  1.5884  1.9348  1.4135
  417MOL0     H56276  -2.580   2.586   2.829 -0.4062 -1.6175  0.0726
  417MOL0     H56277  -1.887   2.132   2.744 -0.7358 -1.6411 -1.2045
  417MOL0     H56278  -1.642   2.062   2.765 -0.5731  0.0448 -1.0775
  417MOL0     H56279  -1.250   1.973   2.503 -1.5491  0.7446  0.3243
  417MOL0     H56280  -1.048   1.869   2.538  1.4739  0.9120 -0.7050
  417MOL0     H56281   0.714   1.508   2.993  1.4680  2.7387  2.4767
  417MOL0     H56282   0.929   1.481   3.098 -2.3126 -1.0316  0.3869
  417MOL0     H56283   1.401   1.478   3.003  2.2073  3.4767  2.1746
  417MOL0     H56284   1.632   1.435   3.053 -0.5989  2.0513  0.1055
  417MOL0     H56285   1.842   1.344   3.081 -3.5484  0.3575 -0.3778
  417MOL0     H56286   1.798   1.452   3.205  0.8889 -0.3290  2.0895
  417MOL0     H56287   1.937   1.294   3.361  0.9421 -2.9362  0.0233
  417MOL0     H56288   2.031   1.405   3.251  2.0515 -1.1345  1.9511
  417MOL0     H56289   2.078   1.239   3.079  1.0769  1.3366 -0.2863
  417MOL0     H56290   1.970   1.131   3.152 -0.5814  0.0500  0.5730
  417MOL0     H56291   2.241   1.245   3.252  3.2643 -2.6156  2.2261
  417MOL0     H56292   2.214   1.088   3.182 -1.3815  0.7569 -1.2023
  417MOL0     H56293   2.137   1.060   3.605  0.6981 -2.5213 -0.2449
  417MOL0     H56294   1.524   1.166   3.368 -0.4300  1.1947  1.0193
  417MOL0     H56295   1.284   1.184   3.286 -1.5780  2.3350 -0.5070
  418MOL0     O56296   8.958  10.466   9.411  0.0810  0.5591  0.7397
  418MOL0     C56297   8.955  10.347   9.416  0.3942  0.3205  0.1651
  418MOL0     O56298   8.846  10.272   9.445  0.7843 -0.3032 -0.3372
  418MOL0     C56299   8.734  10.313   9.512  0.1299 -0.7692 -0.2033
  418MOL0     C56300   8.613  10.245   9.501  0.2874  1.0080  0.1576
  418MOL0     C56301   8.494  10.290   9.561 -0.0658  0.0300  0.3599
  418MOL0     C56302   8.491  10.402   9.634 -0.2066  0.3009  1.1361
  418MOL0     O56303   8.370  10.438   9.677  0.1099  0.2071 -0.0015
  418MOL0     C56304   8.357  10.572   9.721 -0.2790 -0.3811 -0.7711
  418MOL0     C56305   8.215  10.602   9.740  0.0827  1.0425  0.1676
  418MOL0     C56306   8.119  10.583   9.614 -1.2475  0.6957 -0.4008
  418MOL0     C56307   7.977  10.624   9.645  0.3288  0.7426  0.1094
  418MOL0     C56308   7.908  10.608   9.513 -0.1188 -0.2640 -0.1434
  418MOL0     C56309   7.760  10.672   9.509 -0.2319  0.5509 -0.6053
  418MOL0     C56310   7.717  10.684   9.362  0.2935 -0.4823 -0.4754
  418MOL0     C56311   7.566  10.699   9.344 -0.1833 -0.2389  0.0742
  418MOL0     N56312   7.523  10.834   9.364 -0.6192 -1.0773 -0.1076
  418MOL0     C56313   7.422  10.895   9.295 -0.1901 -0.4124  0.0167
  418MOL0     C56314   7.454  11.031   9.302  0.0331 -0.7689  0.3995
  418MOL0     C56315   7.377  11.147   9.244 -0.0441  0.3163 -0.4397
  418MOL0     C56316   7.341  11.249   9.344  0.9126 -0.1862  0.2136
  418MOL0     C56317   7.239  11.348   9.281 -0.4822  0.2429  0.3355
  418MOL0     C56318   7.202  11.442   9.399 -0.3784 -0.0518  0.5767
  418MOL0     O56319   7.102  11.542   9.376  0.0615  1.0665 -0.2906
  418MOL0     C56320   7.076  11.643   9.464  0.2230 -0.6008 -0.1513
  418MOL0     C56321   7.178  11.720   9.512 -0.4767 -0.2964  0.1076
  418MOL0     C56322   7.160  11.821   9.600 -0.4092  0.1156 -0.2094
  418MOL0     C56323   7.275  11.896   9.655  0.0855 -0.1707 -0.2805
  418MOL0     C56324   7.028  11.863   9.631  0.4528 -0.1703 -0.2498
  418MOL0     C56325   6.988  11.953   9.745 -1.1669 -0.2869 -0.3259
  418MOL0     O56326   7.056  11.930   9.862 -0.7869 -0.2821 -0.7135
  418MOL0     C56327   7.037  12.018   9.978  0.1095  0.2911  0.8313
  418MOL0     C56328   7.140  12.094  10.023  0.5124 -0.8062  0.0284
  418MOL0     C56329   7.125  12.201  10.111 -0.0499  0.2771  0.1431
  418MOL0     C56330   6.995  12.232  10.151  0.1960 -0.2881  0.5335
  418MOL0     O56331   6.993  12.343  10.236 -0.2399 -0.0649  0.2604
  418MOL0     C56332   6.873  12.421  10.222  0.2489 -0.3006  0.2454
  418MOL0     C56333   6.908  12.561  10.276 -0.7141  0.6200 -0.6872
  418MOL0     C56334   6.791  12.651  10.265  0.2464  0.7427 -0.0221
  418MOL0     C56335   6.818  12.801  10.285 -0.6658 -0.1218  0.1249
  418MOL0     C56336   6.728  12.868  10.393 -0.2539  0.7549  0.2015
  418MOL0     C56337   6.720  13.021  10.414 -0.3509  0.4842 -0.2508
  418MOL0     C56338   6.856  13.093  10.435  0.2332  0.6605 -0.8988
  418MOL0     C56339   6.897  13.081  10.587  0.0364 -0.3298  0.3558
  418MOL0    Cl56340   6.783  13.155  10.690  0.1858 -0.1465 -0.3276
  418MOL0     C56341   6.885  12.152  10.110 -0.6640 -0.3499 -0.0614
  418MOL0     C56342   6.914  12.051  10.021  0.1670 -0.3008  0.6557
  418MOL0     O56343   6.908  12.051   9.731  0.3214  0.5947  0.3012
  418MOL0     C56344   6.917  11.795   9.577 -0.3361  0.4906 -0.3091
  418MOL0     C56345   6.950  11.682   9.490 -0.0728  0.5989 -0.2182
  418MOL0     N56346   7.554  11.047   9.394 -0.1759 -0.1069 -0.0431
  418MOL0     N56347   7.601  10.928   9.420  0.1239 -0.1227  0.2477
  418MOL0     C56348   8.609  10.477   9.655 -0.3328  0.1925  1.0030
  418MOL0     C56349   8.730  10.429   9.599 -0.0050 -0.2231 -0.2621
  418MOL0     C56350   9.091  10.282   9.381  0.2452  0.4817 -0.5008
  418MOL0     C56351   9.192  10.346   9.309 -0.3945  0.5878  0.4601
  418MOL0     C56352   9.318  10.287   9.284  0.0331 -1.3160 -0.0176
  418MOL0     C56353   9.333  10.157   9.334 -0.2173 -0.0600  0.7804
  418MOL0     O56354   9.441  10.084   9.311  0.2813  0.2822 -0.7387
  418MOL0     C56355   9.537  10.117   9.214  0.1631  0.4684 -0.4477
  418MOL0     C56356   9.632   9.998   9.185  0.4824 -0.0696 -0.5626
  418MOL0     C56357   9.726  10.030   9.067 -0.7337  0.4746  0.4849
  418MOL0     C56358   9.798   9.901   9.018  0.2812  0.1550  0.5357
  418MOL0     C56359   9.888   9.867   9.122 -0.0162  0.7135  0.5248
  418MOL0     C56360   9.961   9.851   9.218 -0.0819 -0.7190 -0.0583
  418MOL0     C56361   9.239  10.091   9.411 -0.1035 -0.1132 -0.3212
  418MOL0     C56362   9.116  10.159   9.444  0.1691 -0.7734 -0.0598
  418MOL0     H56363   8.626  10.152   9.446  1.5230  1.2848 -0.0460
  418MOL0     H56364   8.409  10.223   9.558  0.5428 -1.0244  3.1218
  418MOL0     H56365   8.395  10.594   9.822 -3.7883  0.7722  0.4267
  418MOL0     H56366   8.398  10.645   9.651  0.5581 -0.2037 -0.1246
  418MOL0     H56367   8.169  10.551   9.825 -0.0838  1.3970  0.2916
  418MOL0     H56368   8.208  10.709   9.762 -1.0972  0.8718  0.7035
  418MOL0     H56369   8.152  10.637   9.525 -0.3272  1.8747  0.6316
  418MOL0     H56370   8.106  10.477   9.589 -2.1685  0.7490 -0.1720
  418MOL0     H56371   7.935  10.561   9.724  2.7263 -0.4228  0.5457
  418MOL0     H56372   7.968  10.725   9.687  1.5405  0.2998  1.5424
  418MOL0     H56373   7.951  10.659   9.427 -0.4914 -0.0511 -0.2067
  418MOL0     H56374   7.894  10.502   9.488 -1.1775 -0.2017  0.1353
  418MOL0     H56375   7.698  10.593   9.554 -1.3676  2.0030  0.4986
  418MOL0     H56376   7.747  10.766   9.563 -0.4143 -0.9341  2.1255
  418MOL0     H56377   7.768  10.770   9.318  1.2168 -0.3394  0.8338
  418MOL0     H56378   7.752  10.597   9.305 -1.1813 -1.9673  0.7939
  418MOL0     H56379   7.515  10.623   9.403  1.6638 -2.0471 -0.5335
  418MOL0     H56380   7.550  10.669   9.240 -0.0250 -0.3704  0.0869
  418MOL0     H56381   7.345  10.847   9.234 -1.9372  2.0893  0.0916
  418MOL0     H56382   7.440  11.191   9.166  2.9066  0.0498  1.6461
  418MOL0     H56383   7.288  11.106   9.196 -0.7745 -1.0001  1.9049
  418MOL0     H56384   7.432  11.302   9.376  0.7394 -1.6770  3.7227
  418MOL0     H56385   7.293  11.198   9.429  1.4155  3.2035  2.7342
  418MOL0     H56386   7.149  11.292   9.256  0.0947 -0.5220 -0.0721
  418MOL0     H56387   7.280  11.390   9.188 -2.0851  0.5621 -0.2565
  418MOL0     H56388   7.292  11.491   9.439 -0.3816 -0.6816  1.3675
  418MOL0     H56389   7.178  11.389   9.491 -3.0956  0.7275  0.4003
  418MOL0     H56390   7.277  11.705   9.470 -0.1545 -0.2896  0.8442
  418MOL0     H56391   7.351  11.826   9.690  1.4319  1.5235  0.3644
  418MOL0     H56392   7.312  11.963   9.577  0.9548  0.0423  0.2963
  418MOL0     H56393   7.260  11.962   9.741  2.6108 -0.3351  0.3550
  418MOL0     H56394   7.231  12.071   9.968  0.1171 -1.5187 -0.3519
  418MOL0     H56395   7.217  12.258  10.126  0.3962 -0.2534 -0.5438
  418MOL0     H56396   6.837  12.427  10.119 -1.1712 -1.7069  0.6087
  418MOL0     H56397   6.791  12.378  10.281 -0.3383  1.2808  0.6113
  418MOL0     H56398   6.937  12.571  10.381  2.7538  0.0381 -1.4532
  418MOL0     H56399   6.996  12.588  10.217  0.8618 -0.0923  1.2380
  418MOL0     H56400   6.713  12.645  10.341 -2.1887  4.3487 -1.8982
  418MOL0     H56401   6.731  12.632  10.175 -1.7535 -0.7679  1.5404
  418MOL0     H56402   6.918  12.813  10.327 -0.0225  0.9006 -1.5844
  418MOL0     H56403   6.829  12.857  10.191  0.0887 -0.4005  0.0372
  418MOL0     H56404   6.762  12.826  10.488  1.1954  2.0568  0.3013
  418MOL0     H56405   6.624  12.843  10.372 -1.6483  4.6603  1.4564
  418MOL0     H56406   6.670  13.064  10.326 -0.2765 -0.0940 -0.5804
  418MOL0     H56407   6.650  13.053  10.492 -0.9677  0.2335 -0.6997
  418MOL0     H56408   6.851  13.202  10.420  1.9494  1.0723  1.0597
  418MOL0     H56409   6.937  13.064  10.368 -0.3267 -1.5706 -0.6777
  418MOL0     H56410   6.996  13.128  10.596 -0.5052  1.8884 -3.3157
  418MOL0     H56411   6.899  12.973  10.603 -2.2503 -0.7048 -1.4195
  418MOL0     H56412   6.782  12.172  10.137 -1.1054 -2.1336 -0.2861
  418MOL0     H56413   6.831  12.006   9.969  0.7444  0.0427 -0.5941
  418MOL0     H56414   6.812  11.813   9.595 -1.0355 -0.6859 -2.8160
  418MOL0     H56415   6.861  11.634   9.450  0.3033  0.3229 -0.7351
  418MOL0     H56416   8.612  10.571   9.708 -2.8310  0.7395  0.2948
  418MOL0     H56417   8.821  10.484   9.620 -1.0686  1.2163  0.7825
  418MOL0     H56418   9.172  10.434   9.249 -0.5179  0.2459 -0.0040
  418MOL0     H56419   9.391  10.344   9.229 -3.3301  4.0268  0.2641
  418MOL0     H56420   9.487  10.145   9.120  0.8569  2.4320 -0.2737
  418MOL0     H56421   9.595  10.198   9.258  3.4225 -3.2430  2.8660
  418MOL0     H56422   9.566   9.916   9.156  0.5530 -1.2740  2.3106
  418MOL0     H56423   9.680   9.975   9.281 -2.1515 -1.5236  0.5056
  418MOL0     H56424   9.799  10.105   9.100  0.3296  0.0316 -0.7706
  418MOL0     H56425   9.662  10.059   8.984 -2.7008  2.5318  2.5554
  418MOL0     H56426   9.851   9.911   8.923 -2.7007  1.7069 -1.0934
  418MOL0     H56427   9.724   9.822   9.005  0.7873 -0.6280  2.0761
  418MOL0     H56428  10.020   9.836   9.306 -0.3561  0.7469  0.3928
  418MOL0     H56429   9.279  10.001   9.456 -1.6247  0.6775  2.8818
  418MOL0     H56430   9.047  10.110   9.512 -1.4832 -0.0514 -1.1530
  419MOL0     O56431   1.613   4.394   3.463 -0.0496  0.0401 -0.4017
  419MOL0     C56432   1.643   4.501   3.412 -0.0203 -1.4101 -0.2803
  419MOL0     O56433   1.568   4.620   3.422 -0.1813 -0.5931  0.1994
  419MOL0     C56434   1.434   4.642   3.453  0.2587 -0.3458  0.5253
  419MOL0     C56435   1.341   4.547   3.443  1.0830 -0.2361 -0.3660
  419MOL0     C56436   1.208   4.578   3.475 -0.1370 -0.3989 -0.3136
  419MOL0     C56437   1.165   4.709   3.497 -0.8525  0.3371 -0.0918
  419MOL0     O56438   1.034   4.733   3.520  0.6023 -0.1735  1.1567
  419MOL0     C56439   1.009   4.819   3.627  0.1740  0.6379  0.0503
  419MOL0     C56440   0.861   4.794   3.664 -0.1674  0.6806  0.0921
  419MOL0     C56441   0.826   4.641   3.690  0.1829 -0.5001 -0.2544
  419MOL0     C56442   0.875   4.589   3.825 -0.4118  0.1227  0.3196
  419MOL0     C56443   0.818   4.446   3.857  0.1534 -0.2134  0.3008
  419MOL0     C56444   0.662   4.420   3.865 -0.1764 -0.1717  0.7025
  419MOL0     C56445   0.606   4.488   3.994  0.8486  0.2806 -0.4328
  419MOL0     C56446   0.455   4.484   3.981  0.3495 -0.4049  0.0059
  419MOL0     N56447   0.389   4.579   3.893 -0.1303 -0.2096 -0.5399
  419MOL0     C56448   0.280   4.554   3.811 -0.5453 -0.5711 -0.1724
  419MOL0     C56449   0.244   4.673   3.756  0.0326 -0.5837  0.2538
  419MOL0     C56450   0.133   4.716   3.662 -0.7974  0.0381 -1.1408
  419MOL0     C56451  -0.002   4.729   3.743 -0.3048  0.1754  1.0333
  419MOL0     C56452  -0.100   4.734   3.618 -0.0049  0.1815 -0.6844
  419MOL0     C56453  -0.244   4.770   3.662 -0.1574 -0.4154  0.3260
  419MOL0     O56454  -0.305   4.678   3.756 -0.1223 -0.3898  0.7250
  419MOL0     C56455  -0.440   4.685   3.789 -0.9387  0.5164  0.2649
  419MOL0     C56456  -0.478   4.653   3.917 -0.2012 -0.5357  0.2239
  419MOL0     C56457  -0.603   4.675   3.966  1.3832 -0.6401 -0.2059
  419MOL0     C56458  -0.620   4.653   4.119 -0.6573 -0.4348 -0.1255
  419MOL0     C56459  -0.698   4.735   3.885  0.7548  0.6823 -0.6912
  419MOL0     C56460  -0.842   4.755   3.930 -0.1680 -0.1758 -0.6726
  419MOL0     O56461  -0.867   4.790   4.061  0.0447 -0.2084  0.0891
  419MOL0     C56462  -0.998   4.826   4.083  0.3411 -0.6433  0.4788
  419MOL0     C56463  -1.058   4.928   4.012  0.0843 -0.5631 -0.2253
  419MOL0     C56464  -1.185   4.971   4.046 -0.1604  0.1185 -0.5512
  419MOL0     C56465  -1.261   4.922   4.152 -0.7353  0.7138 -0.0449
  419MOL0     O56466  -1.391   4.961   4.178 -1.3086 -0.3893 -0.9354
  419MOL0     C56467  -1.434   4.964   4.314  0.2416  0.3288  0.3865
  419MOL0     C56468  -1.568   5.013   4.331 -0.2648 -0.2956 -0.8754
  419MOL0     C56469  -1.678   4.937   4.251 -0.0177 -0.7674  0.6198
  419MOL0     C56470  -1.830   4.994   4.272  0.3526  0.5941 -0.4927
  419MOL0     C56471  -1.937   4.907   4.194  0.3195  0.1093 -0.2543
  419MOL0     C56472  -1.916   4.895   4.038 -0.1501  0.0740 -0.2311
  419MOL0     C56473  -2.036   4.831   3.975 -0.0340  1.0437 -0.7715
  419MOL0     C56474  -2.008   4.814   3.820 -0.5266  0.0082  0.2355
  419MOL0    Cl56475  -2.136   4.734   3.747 -0.0354 -0.3909  0.3939
  419MOL0     C56476  -1.191   4.823   4.228  0.4271 -1.0323  0.2835
  419MOL0     C56477  -1.059   4.781   4.198 -0.0262 -0.5560  0.4921
  419MOL0     O56478  -0.919   4.722   3.843 -0.5347  0.0241 -0.1724
  419MOL0     C56479  -0.669   4.765   3.747  1.0461  0.7373 -0.5085
  419MOL0     C56480  -0.538   4.735   3.707  0.0951 -0.1879  0.3181
  419MOL0     N56481   0.336   4.765   3.808 -0.7920 -0.0477  0.7085
  419MOL0     N56482   0.411   4.710   3.899  0.7255  0.2877  0.5372
  419MOL0     C56483   1.261   4.816   3.482  0.4879 -0.6372  0.3572
  419MOL0     C56484   1.393   4.774   3.473 -0.5147 -0.0958 -0.2353
  419MOL0     C56485   1.765   4.512   3.331  0.1516  0.3781 -0.3617
  419MOL0     C56486   1.888   4.482   3.385 -0.0208  0.3410 -0.5053
  419MOL0     C56487   2.001   4.508   3.316 -0.5179  0.9800 -0.9775
  419MOL0     C56488   2.003   4.558   3.188  0.2344  0.6843  0.9110
  419MOL0     O56489   2.127   4.584   3.124  0.1976 -0.3078  0.6344
  419MOL0     C56490   2.171   4.716   3.145 -0.1351 -0.2295 -0.7033
  419MOL0     C56491   2.271   4.722   3.254  0.1475  0.6936  0.2933
  419MOL0     C56492   2.403   4.655   3.226 -1.1553  0.2685 -0.8235
  419MOL0     C56493   2.535   4.724   3.277  0.3413  0.0669  0.6803
  419MOL0     C56494   2.650   4.661   3.219  1.3671  0.8426  0.2263
  419MOL0     C56495   2.747   4.600   3.180 -0.5382 -0.1345 -0.8177
  419MOL0     C56496   1.877   4.585   3.124 -0.0185  0.0669 -0.0986
  419MOL0     C56497   1.765   4.561   3.202 -0.0425  0.1926 -0.1213
  419MOL0     H56498   1.382   4.450   3.415  0.6539 -0.3489 -0.6090
  419MOL0     H56499   1.128   4.505   3.485  0.2365 -0.6212  1.5572
  419MOL0     H56500   1.077   4.798   3.710 -0.4226  0.1946  0.4321
  419MOL0     H56501   1.021   4.922   3.590  1.3868 -0.4406 -2.9084
  419MOL0     H56502   0.839   4.848   3.756  2.2773  1.1102  0.5129
  419MOL0     H56503   0.799   4.831   3.582  1.0893  4.3497  0.5887
  419MOL0     H56504   0.718   4.634   3.678  0.0663  1.5296 -0.7270
  419MOL0     H56505   0.870   4.583   3.608  1.5757  1.6373 -1.1032
  419MOL0     H56506   0.984   4.591   3.814 -0.5928  0.8592 -1.6480
  419MOL0     H56507   0.850   4.656   3.908  1.4837  0.3676  0.7479
  419MOL0     H56508   0.856   4.377   3.781 -1.4156 -1.1254  0.3146
  419MOL0     H56509   0.868   4.406   3.946  1.1378  0.6561  0.1622
  419MOL0     H56510   0.618   4.478   3.783  2.2030  0.2921 -0.3405
  419MOL0     H56511   0.641   4.313   3.858 -1.6780  0.0462  1.5761
  419MOL0     H56512   0.648   4.425   4.073 -1.5225 -1.2037 -0.2562
  419MOL0     H56513   0.645   4.587   4.021  1.0887 -0.0856  0.6205
  419MOL0     H56514   0.415   4.502   4.081 -0.0644  1.6646 -0.4870
  419MOL0     H56515   0.414   4.388   3.947 -0.4361 -0.8689  2.1388
  419MOL0     H56516   0.246   4.457   3.778  2.1034 -2.3755  1.9698
  419MOL0     H56517   0.148   4.817   3.623 -2.2392  0.9381  0.5306
  419MOL0     H56518   0.127   4.644   3.580 -0.3720 -0.1037 -1.0505
  419MOL0     H56519  -0.000   4.820   3.803  0.2270  0.0649  1.1956
  419MOL0     H56520  -0.021   4.644   3.809 -2.3524  0.4685  0.8730
  419MOL0     H56521  -0.106   4.637   3.567 -2.5923 -1.9518  3.1361
  419MOL0     H56522  -0.075   4.812   3.546  0.0045  2.1677  1.3569
  419MOL0     H56523  -0.300   4.770   3.567  1.7856 -0.2442 -0.8863
  419MOL0     H56524  -0.257   4.868   3.710 -1.0369 -0.4981  0.2669
  419MOL0     H56525  -0.409   4.612   3.990 -2.1267 -1.0752  1.8240
  419MOL0     H56526  -0.534   4.595   4.156  0.4906  1.6635  0.6651
  419MOL0     H56527  -0.618   4.748   4.173 -0.9068 -0.5982  0.1695
  419MOL0     H56528  -0.714   4.608   4.152  0.2873 -1.2435  1.6317
  419MOL0     H56529  -1.009   4.974   3.927  0.1755 -0.7841 -0.2945
  419MOL0     H56530  -1.231   5.045   3.981 -0.4166 -0.5483 -1.1449
  419MOL0     H56531  -1.416   4.867   4.360  0.5550  0.9924  1.7343
  419MOL0     H56532  -1.366   5.027   4.373  1.4592 -0.3971 -0.2175
  419MOL0     H56533  -1.599   5.004   4.436  1.8790  3.1818  0.2381
  419MOL0     H56534  -1.577   5.122   4.319  0.9336  0.4190  3.2154
  419MOL0     H56535  -1.675   4.831   4.275 -0.4044 -1.1894 -1.1171
  419MOL0     H56536  -1.644   4.944   4.147  1.6146 -2.5315  0.9801
  419MOL0     H56537  -1.847   4.992   4.380  0.5348  1.8211 -0.4308
  419MOL0     H56538  -1.853   5.093   4.233 -1.6327  1.5204  2.6508
  419MOL0     H56539  -2.031   4.961   4.209  0.2019 -0.0140 -0.5345
  419MOL0     H56540  -1.937   4.809   4.243  2.1676  1.9588  3.9219
  419MOL0     H56541  -1.915   4.998   4.001 -2.9577  0.2360 -0.1109
  419MOL0     H56542  -1.820   4.851   4.008  0.0896  0.6509 -0.3159
  419MOL0     H56543  -2.129   4.884   3.997 -0.5096 -0.5476  1.4854
  419MOL0     H56544  -2.043   4.731   4.019  0.3765  0.7003 -1.4777
  419MOL0     H56545  -1.917   4.758   3.798 -1.0360  0.1799 -2.7792
  419MOL0     H56546  -2.010   4.915   3.779 -0.0857 -0.4944 -1.0847
  419MOL0     H56547  -1.239   4.779   4.315  0.5205  1.0407  1.4385
  419MOL0     H56548  -1.015   4.710   4.267  0.5073  0.7167  1.5225
  419MOL0     H56549  -0.747   4.798   3.679 -0.7777  0.8176  1.5418
  419MOL0     H56550  -0.512   4.764   3.606 -1.3439  0.7751  0.1906
  419MOL0     H56551   1.237   4.922   3.484  0.3380 -0.6422 -0.6298
  419MOL0     H56552   1.473   4.845   3.459  0.2741 -1.0353 -0.5811
  419MOL0     H56553   1.904   4.448   3.487  0.8943  1.0749 -0.3928
  419MOL0     H56554   2.095   4.485   3.365 -0.5549 -2.0348 -2.1180
  419MOL0     H56555   2.214   4.750   3.050  0.1445  1.2375 -0.0954
  419MOL0     H56556   2.084   4.779   3.165  1.1968  1.6909 -0.6415
  419MOL0     H56557   2.228   4.689   3.349 -2.2783  1.1553 -0.5715
  419MOL0     H56558   2.289   4.830   3.257  1.3798  0.4811  1.4903
  419MOL0     H56559   2.412   4.637   3.118 -1.0201 -1.1263 -0.6017
  419MOL0     H56560   2.400   4.551   3.260  1.8960  0.5867  0.7804
  419MOL0     H56561   2.543   4.727   3.386 -0.4290 -1.0645  0.7906
  419MOL0     H56562   2.533   4.824   3.233  0.0144 -0.2973 -0.1646
  419MOL0     H56563   2.821   4.529   3.148  1.3441  1.2074  0.3575
  419MOL0     H56564   1.883   4.618   3.021 -1.3122  0.2793 -0.1179
  419MOL0     H56565   1.670   4.592   3.159 -0.0668  1.3481  0.6939
  420MOL0     O56566   5.932   9.751   5.667 -0.1245  0.2778  0.8752
  420MOL0     C56567   5.914   9.834   5.576  0.3093  0.6517 -0.2185
  420MOL0     O56568   5.790   9.901   5.562  0.4264 -0.0129 -0.3759
  420MOL0     C56569   5.682   9.880   5.643  0.9855 -0.0261 -0.0740
  420MOL0     C56570   5.560   9.932   5.597  0.3468  0.3193 -0.9178
  420MOL0     C56571   5.444   9.918   5.673  0.0626 -0.8442 -0.2384
  420MOL0     C56572   5.435   9.865   5.802  0.1967 -0.2604 -0.1763
  420MOL0     O56573   5.316   9.852   5.865 -0.0277 -0.1282  0.1449
  420MOL0     C56574   5.305   9.861   6.010 -0.3105 -0.9675  0.2322
  420MOL0     C56575   5.231   9.988   6.051 -0.2464 -0.0484  0.4039
  420MOL0     C56576   5.085   9.995   6.003 -0.0344  0.3104  0.3205
  420MOL0     C56577   4.994   9.919   6.104  0.2720 -1.0799 -0.3682
  420MOL0     C56578   4.852   9.954   6.080  0.0593 -0.4181  0.0216
  420MOL0     C56579   4.812   9.905   5.931 -0.1933  0.3942 -0.6892
  420MOL0     C56580   4.667   9.937   5.881 -0.2310 -0.0807  0.1724
  420MOL0     C56581   4.561   9.909   5.983 -0.4979 -0.5911 -0.3350
  420MOL0     N56582   4.434   9.903   5.904 -0.3566 -0.6186 -0.0510
  420MOL0     C56583   4.385   9.788   5.861  0.9274  0.0062 -0.5357
  420MOL0     C56584   4.267   9.820   5.802 -0.4860 -0.3856  0.2185
  420MOL0     C56585   4.168   9.742   5.717 -0.0397  0.8826 -0.4118
  420MOL0     C56586   4.057   9.681   5.803  0.1659 -0.6804 -0.2184
  420MOL0     C56587   3.948   9.788   5.820  0.5815 -0.8109  0.2611
  420MOL0     C56588   3.822   9.739   5.908 -0.5090  0.5800 -0.8308
  420MOL0     O56589   3.773   9.623   5.836  0.2665 -0.3556  0.0043
  420MOL0     C56590   3.658   9.567   5.887  0.2073 -0.2062 -0.3577
  420MOL0     C56591   3.616   9.588   6.016 -0.2793  0.0857 -0.2409
  420MOL0     C56592   3.491   9.543   6.069 -0.3972  0.4304 -0.2771
  420MOL0     C56593   3.459   9.583   6.213 -0.1098 -1.1824  0.1288
  420MOL0     C56594   3.396   9.486   5.975 -0.9032  0.3502  1.0879
  420MOL0     C56595   3.259   9.449   6.006 -0.9115  0.1445  1.0007
  420MOL0     O56596   3.176   9.411   5.898  0.1757 -0.1941 -0.2634
  420MOL0     C56597   3.042   9.390   5.924  0.2804 -0.1483  0.1382
  420MOL0     C56598   2.980   9.339   6.043 -0.2798 -0.3093  0.9651
  420MOL0     C56599   2.841   9.335   6.044  0.4178  0.3449  0.1716
  420MOL0     C56600   2.756   9.368   5.936 -0.3949  0.3423  0.7943
  420MOL0     O56601   2.623   9.347   5.948  0.8577  0.4360  0.4003
  420MOL0     C56602   2.536   9.358   5.830 -0.2786  0.1429 -0.8410
  420MOL0     C56603   2.386   9.352   5.875  0.2295  0.0422 -0.3501
  420MOL0     C56604   2.356   9.485   5.945 -0.4269 -0.0007 -0.1856
  420MOL0     C56605   2.211   9.478   5.998  0.1092  0.0949 -0.3673
  420MOL0     C56606   2.177   9.606   6.076 -0.2281  0.4183 -0.1557
  420MOL0     C56607   2.033   9.588   6.131 -0.5471 -0.0526  0.0601
  420MOL0     C56608   1.961   9.715   6.159  0.2445 -0.4292  0.0835
  420MOL0     C56609   2.032   9.821   6.243  0.1970  0.1954 -0.5383
  420MOL0    Cl56610   2.092   9.748   6.396  0.0011 -0.0458  0.1125
  420MOL0     C56611   2.826   9.407   5.820  0.3544  0.0463  0.2331
  420MOL0     C56612   2.961   9.432   5.817 -0.6805  0.2123 -0.2108
  420MOL0     O56613   3.232   9.449   6.124 -0.0735  0.5483  0.5277
  420MOL0     C56614   3.443   9.464   5.844 -0.6058  0.2773  0.8800
  420MOL0     C56615   3.575   9.499   5.800  0.3391  0.5883 -0.1720
  420MOL0     N56616   4.250   9.953   5.828  0.4828  0.0722 -0.4727
  420MOL0     N56617   4.359  10.012   5.884  0.1403 -0.3132  0.1287
  420MOL0     C56618   5.560   9.814   5.847  0.4523 -0.9173 -0.1229
  420MOL0     C56619   5.674   9.814   5.767 -0.5105  0.0812 -0.0258
  420MOL0     C56620   6.026   9.855   5.479  0.1324  1.1432 -0.5712
  420MOL0     C56621   6.022   9.935   5.370 -0.7938  0.2657 -0.9692
  420MOL0     C56622   6.137   9.943   5.280 -1.1185  0.6732 -0.0179
  420MOL0     C56623   6.258   9.866   5.299  0.7520 -0.6290 -0.0289
  420MOL0     O56624   6.365   9.871   5.224 -0.1340 -0.3599 -0.1529
  420MOL0     C56625   6.405   9.995   5.174  0.1349  0.3386 -0.3379
  420MOL0     C56626   6.530   9.999   5.091  0.7089  0.7100 -0.6996
  420MOL0     C56627   6.552  10.137   5.033  0.0967 -0.8465 -0.7775
  420MOL0     C56628   6.601  10.247   5.130 -0.8479 -0.2482 -0.5872
  420MOL0     C56629   6.598  10.391   5.085 -1.4392  0.4632  0.2062
  420MOL0     C56630   6.611  10.504   5.049  0.6051  0.7393  0.2028
  420MOL0     C56631   6.258   9.776   5.412  0.4516 -1.1353  0.1624
  420MOL0     C56632   6.144   9.772   5.497  0.4102 -0.6168 -0.5170
  420MOL0     H56633   5.582   9.989   5.508  5.0677  1.6433  0.7935
  420MOL0     H56634   5.356   9.967   5.632  0.4350  0.5926  0.6310
  420MOL0     H56635   5.252   9.770   6.041 -1.3339 -0.8458 -1.1176
  420MOL0     H56636   5.399   9.870   6.066 -0.3691  2.3877 -0.0218
  420MOL0     H56637   5.224  10.000   6.160 -2.2906  2.6624  0.0981
  420MOL0     H56638   5.280  10.079   6.013 -0.6809  0.6111  1.3741
  420MOL0     H56639   5.059  10.101   5.995 -4.0396 -0.5784 -0.3511
  420MOL0     H56640   5.082   9.958   5.900 -0.0898 -1.5411  0.9584
  420MOL0     H56641   5.015   9.812   6.099  3.6887 -0.5121 -0.5274
  420MOL0     H56642   5.011   9.944   6.209 -3.7025 -1.5364  0.5570
  420MOL0     H56643   4.798   9.902   6.160  0.1653  1.7834  1.6133
  420MOL0     H56644   4.840  10.060   6.103  1.2410 -0.7046  2.2926
  420MOL0     H56645   4.878   9.964   5.867 -1.3346 -0.1166 -2.3947
  420MOL0     H56646   4.842   9.800   5.926  2.8058  0.8917  2.6407
  420MOL0     H56647   4.677  10.042   5.852  0.1704 -0.0939  0.2604
  420MOL0     H56648   4.652   9.874   5.793  4.6495 -2.5351  0.7722
  420MOL0     H56649   4.575   9.999   6.043  0.0633 -1.7092  1.2743
  420MOL0     H56650   4.579   9.825   6.050  1.8235 -0.0627 -0.1938
  420MOL0     H56651   4.426   9.688   5.877 -0.0760 -0.5151 -1.1544
  420MOL0     H56652   4.128   9.801   5.634 -0.9274 -1.4848 -1.7561
  420MOL0     H56653   4.223   9.660   5.671 -1.5941 -0.6337  0.3356
  420MOL0     H56654   4.088   9.641   5.900  0.6841 -3.2729 -1.3633
  420MOL0     H56655   4.007   9.597   5.753 -0.2914  0.0515 -1.0045
  420MOL0     H56656   3.912   9.826   5.724  1.4202  3.3634  1.4111
  420MOL0     H56657   3.993   9.880   5.858 -2.1081  1.1492 -0.9778
  420MOL0     H56658   3.742   9.810   5.888 -2.2416 -1.9712 -3.9590
  420MOL0     H56659   3.848   9.726   6.013  1.6454 -1.3902 -1.5139
  420MOL0     H56660   3.680   9.650   6.078  0.8794 -0.2577 -1.0522
  420MOL0     H56661   3.543   9.599   6.282 -1.0251 -3.6429  1.9918
  420MOL0     H56662   3.399   9.673   6.229  0.3095 -1.0740  1.2355
  420MOL0     H56663   3.406   9.504   6.267  0.0270 -1.0151  0.5122
  420MOL0     H56664   3.038   9.283   6.116  0.4288 -1.6244 -0.5407
  420MOL0     H56665   2.798   9.296   6.136 -2.9431  1.8122 -0.5944
  420MOL0     H56666   2.566   9.443   5.767  0.6127 -0.7265 -1.6177
  420MOL0     H56667   2.549   9.265   5.775 -2.4314  0.3878 -1.8872
  420MOL0     H56668   2.321   9.346   5.788 -2.9338  1.6096  1.6972
  420MOL0     H56669   2.359   9.265   5.936  2.2749  0.6602  1.5808
  420MOL0     H56670   2.369   9.561   5.868  2.0829 -1.4985 -1.3634
  420MOL0     H56671   2.429   9.500   6.025 -0.0429  1.0343 -0.7162
  420MOL0     H56672   2.133   9.461   5.922 -1.9351 -0.4711  1.7394
  420MOL0     H56673   2.192   9.389   6.059 -0.9641 -2.1874 -3.7401
  420MOL0     H56674   2.170   9.691   6.007 -1.1480  0.6568  0.2058
  420MOL0     H56675   2.251   9.630   6.154  0.1974  0.3050 -0.5236
  420MOL0     H56676   1.978   9.546   6.046 -0.6822  2.1676 -0.9971
  420MOL0     H56677   2.051   9.518   6.214  1.2079  0.4507  0.1425
  420MOL0     H56678   1.861   9.692   6.198 -0.8027  1.4802 -1.3151
  420MOL0     H56679   1.931   9.758   6.063  0.2295 -2.0085 -0.6492
  420MOL0     H56680   1.975   9.910   6.272 -1.6630 -0.3788 -2.2032
  420MOL0     H56681   2.118   9.858   6.186 -0.7070  1.3359 -1.2208
  420MOL0     H56682   2.786   9.441   5.726  0.4167 -2.1435 -0.6513
  420MOL0     H56683   3.007   9.475   5.728  0.1758 -1.8575 -0.8167
  420MOL0     H56684   3.377   9.425   5.767  1.1138  0.4001 -0.7157
  420MOL0     H56685   3.607   9.493   5.697  2.8271  0.6947  0.5127
  420MOL0     H56686   5.553   9.767   5.945  1.0114  0.4062  0.5719
  420MOL0     H56687   5.770   9.790   5.811  0.0438  0.8151 -0.8226
  420MOL0     H56688   5.936   9.998   5.353  0.4622  1.8971 -1.6245
  420MOL0     H56689   6.128  10.013   5.198  0.8415  2.0158  0.8525
  420MOL0     H56690   6.322  10.029   5.111 -1.1220  0.1886  1.1779
  420MOL0     H56691   6.406  10.071   5.253 -1.8779 -0.5153  0.5967
  420MOL0     H56692   6.529   9.918   5.018 -0.5729  0.3849 -0.3376
  420MOL0     H56693   6.619   9.987   5.155  1.2841 -0.2164 -1.6449
  420MOL0     H56694   6.454  10.157   4.987 -0.0649  0.6981  0.1765
  420MOL0     H56695   6.632  10.126   4.960  0.2146  0.9927 -0.9706
  420MOL0     H56696   6.704  10.228   5.161 -0.2674  2.2559 -0.7668
  420MOL0     H56697   6.540  10.256   5.220  1.4046  1.7440  0.8864
  420MOL0     H56698   6.637  10.602   5.013 -0.3082  0.4502 -1.3478
  420MOL0     H56699   6.340   9.708   5.429  0.1773 -1.6502 -0.5126
  420MOL0     H56700   6.152   9.706   5.582 -1.5915  0.2641  0.4315
  421MOL0     O56701   3.084   8.450   7.812 -0.2268 -0.3338 -0.5500
  421MOL0     C56702   3.025   8.528   7.737 -0.1036  0.4881 -0.0066
  421MOL0     O56703   2.894   8.529   7.708  0.5848  0.5312  0.3398
  421MOL0     C56704   2.816   8.430   7.769  0.3678 -1.0260  0.5026
  421MOL0     C56705   2.806   8.300   7.714  0.2074  0.2151  1.0692
  421MOL0     C56706   2.722   8.201   7.774  0.2502  0.3800 -0.4552
  421MOL0     C56707   2.649   8.234   7.891  0.1849 -0.5291  0.3731
  421MOL0     O56708   2.557   8.157   7.961  0.5490  0.4054 -0.0811
  421MOL0     C56709   2.497   8.051   7.888  0.5850 -0.2132  0.1942
  421MOL0     C56710   2.379   7.998   7.961  0.9194  0.5749  0.2246
  421MOL0     C56711   2.343   7.853   7.912 -0.1812  0.2767 -0.3301
  421MOL0     C56712   2.226   7.806   8.006 -0.6563  0.0520 -0.7495
  421MOL0     C56713   2.088   7.864   7.974 -0.1704 -0.5592 -0.3907
  421MOL0     C56714   1.969   7.808   8.049  0.2272  0.5879 -0.3665
  421MOL0     C56715   1.939   7.659   8.026  0.1468 -0.7215 -0.0845
  421MOL0     C56716   1.797   7.615   8.033  1.2388 -0.2831 -0.2909
  421MOL0     N56717   1.712   7.659   7.923  0.3969  0.3912  0.0521
  421MOL0     C56718   1.577   7.624   7.900  0.1638  0.2266 -0.5724
  421MOL0     C56719   1.544   7.681   7.780 -0.1809  0.5971  0.5920
  421MOL0     C56720   1.412   7.691   7.714 -1.2592  0.1465  1.6297
  421MOL0     C56721   1.301   7.636   7.795  0.1442 -0.0821 -0.5740
  421MOL0     C56722   1.173   7.639   7.705  0.7828  0.1799 -0.1730
  421MOL0     C56723   1.058   7.610   7.799 -0.5619 -0.3230 -0.2418
  421MOL0     O56724   0.932   7.604   7.724  0.2328  0.1847  0.1850
  421MOL0     C56725   0.811   7.608   7.786  0.6728  0.2608  0.3593
  421MOL0     C56726   0.792   7.614   7.920 -0.2743  0.0340 -0.0097
  421MOL0     C56727   0.666   7.623   7.979 -0.0933  0.8120 -0.3836
  421MOL0     C56728   0.651   7.638   8.132  0.3077 -0.0490 -0.1561
  421MOL0     C56729   0.551   7.610   7.895  0.3125  0.5293  0.3697
  421MOL0     C56730   0.403   7.619   7.928  0.2983  0.8832  0.4398
  421MOL0     O56731   0.367   7.600   8.057  1.0354 -0.3740 -0.0514
  421MOL0     C56732   0.233   7.601   8.082  0.5485 -0.1332 -0.7755
  421MOL0     C56733   0.169   7.474   8.087  0.5401 -0.0133  1.0903
  421MOL0     C56734   0.028   7.481   8.117 -0.2954  0.6718  0.2517
  421MOL0     C56735  -0.037   7.597   8.160 -0.3097 -0.6049 -0.6840
  421MOL0     O56736  -0.164   7.603   8.219 -0.2405 -0.3901  0.4000
  421MOL0     C56737  -0.250   7.491   8.202 -0.8066  0.6885 -0.3621
  421MOL0     C56738  -0.394   7.543   8.197 -1.1748 -0.2223  0.2928
  421MOL0     C56739  -0.492   7.425   8.191 -0.2866  1.2847  0.1064
  421MOL0     C56740  -0.635   7.475   8.213 -0.5819 -0.4352  0.1998
  421MOL0     C56741  -0.743   7.368   8.212  0.1939 -0.4851  0.2331
  421MOL0     C56742  -0.737   7.264   8.321  0.0749  0.3668 -0.2234
  421MOL0     C56743  -0.874   7.189   8.328  0.2508  0.1226  1.4688
  421MOL0     C56744  -0.911   7.121   8.193  0.7568 -0.8279 -0.5027
  421MOL0    Cl56745  -1.040   6.998   8.228  0.1772 -0.5927  0.3686
  421MOL0     C56746   0.039   7.711   8.177  0.2234 -0.1887 -0.5201
  421MOL0     C56747   0.168   7.715   8.131  0.1669 -0.5931  0.3007
  421MOL0     O56748   0.333   7.659   7.838 -0.1122  0.3612 -0.1096
  421MOL0     C56749   0.571   7.605   7.755  0.5564  0.0338  0.1324
  421MOL0     C56750   0.699   7.608   7.700 -0.0859 -0.6152 -0.4652
  421MOL0     N56751   1.651   7.759   7.745 -0.0537  1.0612 -0.0744
  421MOL0     N56752   1.747   7.741   7.824 -0.6406  0.2400 -0.4033
  421MOL0     C56753   2.671   8.355   7.955 -0.1212 -0.6856 -0.4112
  421MOL0     C56754   2.745   8.457   7.891 -0.2413 -0.0940  0.7171
  421MOL0     C56755   3.104   8.647   7.685  1.1062  0.7176 -0.5213
  421MOL0     C56756   3.044   8.734   7.590 -0.1910 -0.3143  0.4410
  421MOL0     C56757   3.122   8.838   7.539  0.5443  0.4004 -0.5934
  421MOL0     C56758   3.256   8.857   7.574 -0.1020 -1.0840  0.3223
  421MOL0     O56759   3.333   8.949   7.504 -0.4758  0.6208 -0.5599
  421MOL0     C56760   3.458   8.987   7.568  0.4051 -0.0097 -0.8054
  421MOL0     C56761   3.508   9.116   7.500  0.7119  1.0181 -0.1919
  421MOL0     C56762   3.411   9.236   7.528  0.1858  0.2559  1.0139
  421MOL0     C56763   3.441   9.363   7.455  0.8357 -0.2475  0.4686
  421MOL0     C56764   3.565   9.418   7.502 -0.3901 -1.4331  0.7857
  421MOL0     C56765   3.650   9.485   7.554  0.2746  0.3843 -0.5114
  421MOL0     C56766   3.310   8.766   7.676 -0.2388  0.4744  0.1081
  421MOL0     C56767   3.237   8.671   7.730  0.8813 -0.6227 -0.6408
  421MOL0     H56768   2.846   8.272   7.617 -2.0525  1.1226 -0.2023
  421MOL0     H56769   2.707   8.111   7.717 -0.3452  0.8900 -1.1174
  421MOL0     H56770   2.467   8.067   7.784 -2.3314  2.9109  1.3545
  421MOL0     H56771   2.573   7.973   7.888  0.3676 -0.4582 -1.5620
  421MOL0     H56772   2.401   8.005   8.067 -1.1347  1.0518  0.6610
  421MOL0     H56773   2.288   8.054   7.937  0.8332 -0.5172 -2.3675
  421MOL0     H56774   2.321   7.858   7.805  2.5612 -3.8173 -1.3401
  421MOL0     H56775   2.426   7.783   7.927 -1.2924 -1.1475 -0.5818
  421MOL0     H56776   2.232   7.702   7.973 -0.6456  0.7231 -3.0171
  421MOL0     H56777   2.243   7.812   8.114 -1.1224  0.8991 -0.7195
  421MOL0     H56778   2.080   7.971   7.998 -0.7945 -0.9057  1.0076
  421MOL0     H56779   2.070   7.854   7.866  0.9463  2.9773 -1.0585
  421MOL0     H56780   1.991   7.819   8.155 -2.8336  1.3271  0.2832
  421MOL0     H56781   1.887   7.872   8.015  2.1635  2.6957 -1.3558
  421MOL0     H56782   1.982   7.629   7.930 -1.0473  0.5343 -1.0458
  421MOL0     H56783   1.983   7.601   8.107  1.2458  0.8435  0.4726
  421MOL0     H56784   1.749   7.647   8.126  0.8637  3.7113 -1.6422
  421MOL0     H56785   1.792   7.506   8.026 -2.5290 -0.1632 -2.1902
  421MOL0     H56786   1.513   7.580   7.976 -2.2150 -1.0160 -3.0933
  421MOL0     H56787   1.392   7.797   7.695  3.6379  0.7398 -2.5877
  421MOL0     H56788   1.422   7.652   7.612  3.3894  1.7246  1.2370
  421MOL0     H56789   1.285   7.690   7.888 -0.3209 -0.0276 -0.6829
  421MOL0     H56790   1.329   7.538   7.834  0.1243  0.9592  2.3179
  421MOL0     H56791   1.172   7.553   7.637  1.3000 -0.4706  0.6180
  421MOL0     H56792   1.163   7.738   7.660  1.2064  1.9170  3.2358
  421MOL0     H56793   1.043   7.689   7.872 -0.7935 -0.1120 -0.5135
  421MOL0     H56794   1.085   7.517   7.849  1.7224  0.6810  0.5003
  421MOL0     H56795   0.871   7.616   7.994  1.3624  1.5308 -1.7021
  421MOL0     H56796   0.612   7.738   8.155 -1.3887  0.0622 -3.0683
  421MOL0     H56797   0.587   7.559   8.171  0.0928 -0.4073 -1.2163
  421MOL0     H56798   0.749   7.636   8.180 -0.7278  2.3616  2.4036
  421MOL0     H56799   0.209   7.375   8.066 -1.3183 -0.9652  1.7918
  421MOL0     H56800  -0.021   7.385   8.120  2.0843 -0.6045  2.1344
  421MOL0     H56801  -0.230   7.446   8.104 -0.5198  1.2271 -0.5541
  421MOL0     H56802  -0.223   7.426   8.285  1.1070  0.8386 -0.8282
  421MOL0     H56803  -0.417   7.596   8.289 -2.7626 -2.7586  1.4707
  421MOL0     H56804  -0.407   7.608   8.110  0.4923 -0.2508 -0.0156
  421MOL0     H56805  -0.462   7.366   8.279  0.7720  0.5817 -0.7011
  421MOL0     H56806  -0.477   7.368   8.099 -0.3006  2.9772 -0.9703
  421MOL0     H56807  -0.630   7.516   8.314 -0.8927 -0.0005  0.0397
  421MOL0     H56808  -0.659   7.552   8.139  0.2168 -0.5062 -0.1512
  421MOL0     H56809  -0.729   7.316   8.117 -0.4123  0.2235 -0.2497
  421MOL0     H56810  -0.837   7.419   8.187  2.2697  1.2318 -6.0193
  421MOL0     H56811  -0.661   7.190   8.298 -1.8794 -0.9199 -3.0965
  421MOL0     H56812  -0.719   7.317   8.416  1.1073 -1.7522  0.8190
  421MOL0     H56813  -0.963   7.248   8.352 -1.6276 -1.6918 -0.6025
  421MOL0     H56814  -0.861   7.116   8.409 -0.0176  0.0920  1.4849
  421MOL0     H56815  -0.821   7.067   8.161  2.2975  1.3863 -0.1195
  421MOL0     H56816  -0.937   7.194   8.117  2.3077  1.1399  0.7460
  421MOL0     H56817  -0.003   7.801   8.221 -0.0484  0.1672 -1.4730
  421MOL0     H56818   0.208   7.816   8.129  0.3839 -0.6876 -0.8752
  421MOL0     H56819   0.496   7.611   7.677 -0.9140 -1.4711  1.3557
  421MOL0     H56820   0.703   7.600   7.592 -1.7016 -2.2514 -0.4557
  421MOL0     H56821   2.615   8.375   8.045 -1.1063 -1.7723 -0.7660
  421MOL0     H56822   2.752   8.556   7.934 -2.2142  0.1971  0.4557
  421MOL0     H56823   2.945   8.707   7.554 -0.8180 -1.0282  2.5090
  421MOL0     H56824   3.075   8.904   7.467 -1.6266  1.1811  1.3921
  421MOL0     H56825   3.458   8.998   7.677  0.5541 -1.1653 -0.6724
  421MOL0     H56826   3.528   8.904   7.552  0.1965 -0.1526 -0.9726
  421MOL0     H56827   3.503   9.097   7.393 -2.9845 -0.9882  0.1633
  421MOL0     H56828   3.611   9.134   7.534  0.2980  0.8336  1.2476
  421MOL0     H56829   3.408   9.253   7.636 -1.5237 -1.1064  1.2264
  421MOL0     H56830   3.311   9.212   7.490  0.5761 -0.7586  0.5985
  421MOL0     H56831   3.363   9.439   7.463  1.6433  0.6782 -0.2833
  421MOL0     H56832   3.435   9.341   7.348 -0.9096 -2.0149  0.8643
  421MOL0     H56833   3.720   9.546   7.608 -0.1014  1.3231 -1.0630
  421MOL0     H56834   3.411   8.778   7.714 -1.0542  2.3674  1.8981
  421MOL0     H56835   3.275   8.614   7.814 -0.8747 -0.3839  0.3502
  422MOL0     O56836   1.436   8.376   1.316 -0.2876 -0.0141 -0.3944
  422MOL0     C56837   1.494   8.453   1.237 -0.0039 -0.0896 -0.5936
  422MOL0     O56838   1.447   8.579   1.211  0.0603  1.3074 -0.7077
  422MOL0     C56839   1.318   8.610   1.227  0.5271 -0.0108  0.4270
  422MOL0     C56840   1.230   8.599   1.113 -0.5006  0.0297  0.2761
  422MOL0     C56841   1.090   8.629   1.124 -0.3386 -0.4052 -0.1936
  422MOL0     C56842   1.037   8.665   1.250  0.1475  0.2515  0.3397
  422MOL0     O56843   0.905   8.685   1.271  0.6385 -0.1997 -0.0277
  422MOL0     C56844   0.816   8.720   1.166  0.1611  0.3362 -0.5351
  422MOL0     C56845   0.683   8.778   1.242 -0.5017 -0.6414 -0.4567
  422MOL0     C56846   0.579   8.809   1.140  0.9471  0.5311 -0.1708
  422MOL0     C56847   0.452   8.851   1.218  0.7924 -0.1750 -0.3344
  422MOL0     C56848   0.354   8.934   1.135  0.3998 -0.1105  0.5393
  422MOL0     C56849   0.301   8.856   1.010 -0.7224 -0.2673 -0.6661
  422MOL0     C56850   0.201   8.938   0.925 -0.4149  0.0911 -0.0270
  422MOL0     C56851   0.134   8.836   0.825 -1.0649  0.2660  0.8044
  422MOL0     N56852   0.110   8.903   0.696  0.6239  0.5020  0.2540
  422MOL0     C56853   0.007   9.003   0.698  0.2286  0.0313  0.2580
  422MOL0     C56854   0.004   9.056   0.574  0.4410 -0.9021  0.8123
  422MOL0     C56855  -0.083   9.174   0.540  0.5359 -0.4536  0.7978
  422MOL0     C56856  -0.233   9.141   0.558  0.0188  0.0929 -0.8796
  422MOL0     C56857  -0.296   9.064   0.441 -0.9073  0.6202  0.0176
  422MOL0     C56858  -0.445   9.061   0.431  0.4147 -0.1307  0.8189
  422MOL0     O56859  -0.498   9.171   0.352 -0.2775  0.7068 -0.5008
  422MOL0     C56860  -0.628   9.213   0.375 -0.7602 -0.4498 -0.1734
  422MOL0     C56861  -0.636   9.351   0.395  0.5579  0.1025  0.1524
  422MOL0     C56862  -0.754   9.407   0.432  0.2096 -0.0573 -0.1842
  422MOL0     C56863  -0.728   9.543   0.483  0.4648  0.1498 -0.5708
  422MOL0     C56864  -0.874   9.331   0.435 -0.4657  0.5704 -0.9117
  422MOL0     C56865  -1.006   9.391   0.473  0.0100 -0.4222 -0.4146
  422MOL0     O56866  -1.098   9.298   0.517 -0.0755 -0.6605  0.1449
  422MOL0     C56867  -1.214   9.346   0.576  0.4689  0.6394 -0.5541
  422MOL0     C56868  -1.330   9.306   0.510  0.1103  0.0555  0.7780
  422MOL0     C56869  -1.462   9.328   0.570  0.2926 -0.4310 -0.2428
  422MOL0     C56870  -1.472   9.410   0.685  0.1664  0.0693  0.8995
  422MOL0     O56871  -1.596   9.441   0.744  0.0906 -0.3519 -0.6893
  422MOL0     C56872  -1.683   9.327   0.776 -0.3886 -0.4597  0.8425
  422MOL0     C56873  -1.808   9.356   0.691  0.3918 -0.1941  0.7733
  422MOL0     C56874  -1.908   9.461   0.754  0.2959  0.7391 -0.5661
  422MOL0     C56875  -2.028   9.496   0.660 -0.1332 -0.0501 -0.1579
  422MOL0     C56876  -2.142   9.595   0.697  0.5414  0.2410 -0.0773
  422MOL0     C56877  -2.273   9.581   0.624 -0.7498  0.2482 -0.7424
  422MOL0     C56878  -2.268   9.591   0.469  0.4519 -0.2454 -0.8759
  422MOL0     C56879  -2.411   9.591   0.407  0.4929 -0.2892  0.3185
  422MOL0    Cl56880  -2.398   9.571   0.234 -0.0942  0.2658  0.3344
  422MOL0     C56881  -1.354   9.447   0.750 -0.2155  0.1453  0.4804
  422MOL0     C56882  -1.227   9.407   0.703 -0.2283 -0.0421 -0.5841
  422MOL0     O56883  -1.015   9.515   0.480 -0.8408 -0.0526  0.3243
  422MOL0     C56884  -0.867   9.187   0.406 -0.4309 -0.3497 -0.1920
  422MOL0     C56885  -0.742   9.128   0.372 -0.6274  0.3772 -0.3901
  422MOL0     N56886   0.091   8.980   0.490  0.2848  0.5829  0.0878
  422MOL0     N56887   0.151   8.890   0.573 -0.4764  0.0003  0.9037
  422MOL0     C56888   1.125   8.686   1.359 -0.3650 -0.7112  0.1802
  422MOL0     C56889   1.264   8.651   1.353  0.5539  0.4689 -0.1112
  422MOL0     C56890   1.626   8.416   1.186 -0.3516 -0.0915 -0.3036
  422MOL0     C56891   1.688   8.505   1.101 -0.5528  0.5339  0.7082
  422MOL0     C56892   1.817   8.472   1.062  0.4243 -0.0746 -0.0458
  422MOL0     C56893   1.881   8.354   1.098  0.8916 -0.5802  0.4372
  422MOL0     O56894   1.992   8.323   1.027  0.5137 -0.0324 -0.4408
  422MOL0     C56895   2.051   8.187   1.015 -0.6388  0.3139 -0.4547
  422MOL0     C56896   1.994   8.126   0.885 -0.6019 -0.8797  0.1599
  422MOL0     C56897   2.050   8.203   0.766  0.0865 -0.0553 -0.3025
  422MOL0     C56898   2.015   8.148   0.631 -0.9986  0.0038  0.2555
  422MOL0     C56899   1.874   8.159   0.595 -0.4644  0.0601 -0.1727
  422MOL0     C56900   1.762   8.175   0.554  0.2409 -0.4402  0.1459
  422MOL0     C56901   1.815   8.265   1.185 -0.2053  0.0078  0.4191
  422MOL0     C56902   1.686   8.300   1.226  0.1878 -0.0750 -0.2552
  422MOL0     H56903   1.273   8.574   1.017  0.6637  2.0695  0.2226
  422MOL0     H56904   1.029   8.613   1.035 -1.1822 -0.9736  0.4708
  422MOL0     H56905   0.854   8.791   1.093 -1.8039  0.1679 -1.7817
  422MOL0     H56906   0.786   8.631   1.108  2.2064 -1.7289  1.3631
  422MOL0     H56907   0.640   8.711   1.317  1.1061 -0.7232  0.4443
  422MOL0     H56908   0.710   8.870   1.295 -0.7099  1.1083 -3.1899
  422MOL0     H56909   0.620   8.884   1.073  1.5860 -1.9289 -2.7228
  422MOL0     H56910   0.555   8.718   1.084  2.6261  1.2797 -2.2072
  422MOL0     H56911   0.403   8.764   1.263  0.5352 -0.6248 -1.4662
  422MOL0     H56912   0.474   8.921   1.300 -2.8316  0.8100 -0.0013
  422MOL0     H56913   0.265   8.959   1.193 -1.1838  1.3580 -2.2982
  422MOL0     H56914   0.400   9.030   1.110  5.2883 -1.5485  2.7986
  422MOL0     H56915   0.386   8.825   0.948 -1.2450 -0.0444 -1.5179
  422MOL0     H56916   0.238   8.777   1.052 -0.7114 -0.0457 -0.2338
  422MOL0     H56917   0.128   8.987   0.990 -3.0907 -0.8014 -2.1318
  422MOL0     H56918   0.244   9.018   0.864  1.8885  1.4142  3.0667
  422MOL0     H56919   0.039   8.793   0.859 -1.4339 -1.1591 -1.8264
  422MOL0     H56920   0.194   8.748   0.805 -0.2721  1.5274 -3.4232
  422MOL0     H56921  -0.027   9.045   0.792  1.9510  0.5984  0.6617
  422MOL0     H56922  -0.045   9.253   0.606 -2.4008 -0.4713  2.7131
  422MOL0     H56923  -0.059   9.200   0.437  2.7774 -1.8190  0.9090
  422MOL0     H56924  -0.288   9.234   0.576 -0.8237 -0.7863  1.4030
  422MOL0     H56925  -0.239   9.083   0.650  3.0540  1.8379  0.5498
  422MOL0     H56926  -0.263   8.960   0.454 -1.5553  0.5748  1.6727
  422MOL0     H56927  -0.257   9.100   0.345 -0.4845  0.8211  0.2596
  422MOL0     H56928  -0.492   9.066   0.529 -2.9790 -0.5224 -0.6527
  422MOL0     H56929  -0.478   8.974   0.374 -3.9116  1.6391  0.2446
  422MOL0     H56930  -0.551   9.414   0.369  0.1777  1.1792  1.4094
  422MOL0     H56931  -0.746   9.611   0.399  0.3679 -3.0082 -3.3402
  422MOL0     H56932  -0.792   9.568   0.568 -1.6151 -1.5757 -1.5278
  422MOL0     H56933  -0.624   9.565   0.509 -0.2931  2.6571  0.6742
  422MOL0     H56934  -1.319   9.245   0.421  1.0295  1.7173 -0.3075
  422MOL0     H56935  -1.547   9.284   0.519  0.3282 -1.3493  0.4519
  422MOL0     H56936  -1.635   9.236   0.741  0.3308 -0.8753  2.8177
  422MOL0     H56937  -1.715   9.327   0.881 -0.8370  2.1850  0.7973
  422MOL0     H56938  -1.775   9.394   0.594  0.6681 -0.3258  0.8136
  422MOL0     H56939  -1.868   9.264   0.681  1.4553 -0.8524  0.2179
  422MOL0     H56940  -1.849   9.551   0.775 -0.9073  1.2893  0.6229
  422MOL0     H56941  -1.946   9.418   0.847  1.3390 -1.5956 -1.1560
  422MOL0     H56942  -1.999   9.544   0.566 -1.5241  1.7294  0.2538
  422MOL0     H56943  -2.081   9.401   0.649 -0.7618  0.2179  0.4132
  422MOL0     H56944  -2.104   9.696   0.681  0.8299  0.4279  1.6548
  422MOL0     H56945  -2.169   9.585   0.803 -1.9340  0.1763 -0.6590
  422MOL0     H56946  -2.306   9.480   0.650 -3.6795  1.5274  1.1281
  422MOL0     H56947  -2.343   9.651   0.672  1.8743  0.4530  3.3094
  422MOL0     H56948  -2.212   9.506   0.430  0.4592  1.4086 -4.9681
  422MOL0     H56949  -2.227   9.679   0.419  1.3315 -2.4094 -4.2664
  422MOL0     H56950  -2.471   9.679   0.432  1.0214 -0.6423  3.2015
  422MOL0     H56951  -2.470   9.506   0.442  1.9755 -1.4983 -0.0490
  422MOL0     H56952  -1.370   9.512   0.835 -0.4083 -1.8490  2.0493
  422MOL0     H56953  -1.142   9.431   0.765 -0.6807  2.6472 -0.9124
  422MOL0     H56954  -0.960   9.131   0.408 -0.5979 -0.1136 -0.9540
  422MOL0     H56955  -0.723   9.024   0.349  2.6614  0.5109  1.2249
  422MOL0     H56956   1.079   8.720   1.451 -1.8471 -3.2313  0.4613
  422MOL0     H56957   1.331   8.652   1.438  0.1090 -2.5529  0.4162
  422MOL0     H56958   1.634   8.589   1.059 -3.2918 -1.7201 -0.5807
  422MOL0     H56959   1.869   8.531   0.987  1.7989 -0.6517  0.4264
  422MOL0     H56960   2.160   8.195   1.008 -0.8222  3.3039 -1.3125
  422MOL0     H56961   2.034   8.122   1.101  1.4343 -0.7490 -0.7706
  422MOL0     H56962   1.885   8.122   0.896 -0.7640 -0.0813 -0.9779
  422MOL0     H56963   2.030   8.022   0.885  0.4275 -0.5353  0.1299
  422MOL0     H56964   2.159   8.192   0.773  0.3635  2.1050 -0.4253
  422MOL0     H56965   2.025   8.310   0.760  2.2377  0.7836  2.8740
  422MOL0     H56966   2.040   8.041   0.629 -0.9188  0.0251  0.1319
  422MOL0     H56967   2.085   8.197   0.563  1.7458  0.9615  3.5102
  422MOL0     H56968   1.663   8.188   0.514  1.6807  3.3060 -2.7944
  422MOL0     H56969   1.846   8.167   1.220 -1.9626  0.3254  3.1694
  422MOL0     H56970   1.642   8.237   1.302  2.8366 -1.3244  0.3611
  423MOL0     O56971   6.906   9.681   3.027 -0.1091 -0.2265  0.6119
  423MOL0     C56972   6.959   9.574   2.992  0.8742  0.2006 -0.1374
  423MOL0     O56973   6.898   9.470   2.928  0.4068  0.7553  0.4295
  423MOL0     C56974   6.762   9.472   2.917  0.0037  0.2684  0.0540
  423MOL0     C56975   6.711   9.575   2.845  0.7524  0.1550 -0.2477
  423MOL0     C56976   6.576   9.569   2.813  0.6668 -0.3181  0.4592
  423MOL0     C56977   6.496   9.464   2.855 -0.1365 -0.3648  0.0566
  423MOL0     O56978   6.363   9.461   2.823 -0.0553 -0.6802  0.1011
  423MOL0     C56979   6.279   9.371   2.891  0.3860  0.5422 -0.5268
  423MOL0     C56980   6.143   9.376   2.826 -1.0322  0.7029 -0.6008
  423MOL0     C56981   6.035   9.336   2.928  0.0403 -0.5568  0.3914
  423MOL0     C56982   5.898   9.312   2.866 -0.5580  0.0878 -0.6287
  423MOL0     C56983   5.804   9.249   2.974 -0.0223  0.3997 -0.9410
  423MOL0     C56984   5.677   9.210   2.894 -0.0869  1.2187 -0.3674
  423MOL0     C56985   5.588   9.323   2.850  0.1691 -0.1152  0.0849
  423MOL0     C56986   5.478   9.272   2.755 -0.8598 -0.2131 -0.3734
  423MOL0     N56987   5.363   9.357   2.760 -0.1748 -0.5389 -0.3842
  423MOL0     C56988   5.296   9.391   2.874 -0.6000  0.2655 -0.1715
  423MOL0     C56989   5.189   9.460   2.838  0.2163  0.4901 -0.3727
  423MOL0     C56990   5.090   9.513   2.934 -0.1946  0.4100 -0.5703
  423MOL0     C56991   4.951   9.524   2.878  0.3840  0.0482  0.7487
  423MOL0     C56992   4.849   9.586   2.977 -0.7400  0.1634 -0.0088
  423MOL0     C56993   4.727   9.614   2.894  0.3892 -0.1818 -0.0999
  423MOL0     O56994   4.626   9.665   2.974  0.6811 -0.2158  0.5672
  423MOL0     C56995   4.499   9.682   2.933 -0.2604  0.7966 -0.1484
  423MOL0     C56996   4.409   9.731   3.019 -0.4433 -0.5494  0.3235
  423MOL0     C56997   4.268   9.734   3.002 -0.8259 -0.6078  0.5994
  423MOL0     C56998   4.183   9.797   3.111 -0.0397 -0.1567  0.2101
  423MOL0     C56999   4.220   9.696   2.873 -0.2364 -0.9883  0.0155
  423MOL0     C57000   4.072   9.687   2.834  0.7818 -0.3875 -0.0157
  423MOL0     O57001   3.986   9.635   2.928 -0.3375 -0.2272  0.2834
  423MOL0     C57002   3.851   9.643   2.912 -0.4431  0.8470 -0.1928
  423MOL0     C57003   3.774   9.529   2.913 -0.9237 -0.4908 -0.3773
  423MOL0     C57004   3.637   9.527   2.927 -0.0454 -0.0662 -0.0074
  423MOL0     C57005   3.573   9.655   2.937  0.7236  0.3644  0.5141
  423MOL0     O57006   3.439   9.671   2.966  0.5628  0.5987  0.1291
  423MOL0     C57007   3.353   9.561   2.988  0.2409  0.9565  0.6244
  423MOL0     C57008   3.206   9.610   3.010 -0.1731 -0.0653  0.1793
  423MOL0     C57009   3.103   9.500   3.034 -0.5638  0.0009  0.0218
  423MOL0     C57010   3.140   9.402   3.150  0.2532  0.2411 -0.5367
  423MOL0     C57011   3.033   9.297   3.191  0.1163 -0.8317  0.3109
  423MOL0     C57012   2.991   9.202   3.077  0.3923  0.4885 -0.7480
  423MOL0     C57013   2.931   9.073   3.132  0.6085  0.6922 -0.3011
  423MOL0     C57014   2.830   9.092   3.235 -0.5207 -0.4739  0.7337
  423MOL0    Cl57015   2.695   9.211   3.186 -0.1160  0.9815  0.1255
  423MOL0     C57016   3.648   9.773   2.941 -1.1504 -0.1506  0.1633
  423MOL0     C57017   3.789   9.765   2.922  0.3237  0.2939  0.2297
  423MOL0     O57018   4.041   9.728   2.725 -0.1193  0.2525  0.6315
  423MOL0     C57019   4.315   9.662   2.770  0.5969  0.6503  0.2031
  423MOL0     C57020   4.452   9.636   2.810  0.3390 -0.4560  0.5752
  423MOL0     N57021   5.197   9.482   2.699  0.1772 -0.0949  0.2581
  423MOL0     N57022   5.305   9.410   2.653 -0.2554  0.0902  0.9940
  423MOL0     C57023   6.560   9.358   2.920 -0.1298  0.5859  0.1065
  423MOL0     C57024   6.691   9.364   2.955 -0.0565  0.7358 -1.1733
  423MOL0     C57025   7.088   9.540   3.034 -0.3321  0.5895  0.6789
  423MOL0     C57026   7.172   9.634   3.097 -0.6656 -0.4539  0.5338
  423MOL0     C57027   7.304   9.597   3.144  0.0314 -0.3750  0.4742
  423MOL0     C57028   7.347   9.462   3.133  0.3222 -0.9879 -1.5333
  423MOL0     O57029   7.457   9.410   3.205  0.1599 -0.1368 -0.3762
  423MOL0     C57030   7.534   9.489   3.294  0.7455  0.2243  0.2704
  423MOL0     C57031   7.647   9.398   3.333 -0.0462  0.4656 -0.7693
  423MOL0     C57032   7.699   9.435   3.473  0.4490 -0.0181  0.0981
  423MOL0     C57033   7.809   9.340   3.529  0.2845 -0.2393 -0.1525
  423MOL0     C57034   7.855   9.408   3.653 -0.5616 -0.2992  0.0911
  423MOL0     C57035   7.890   9.464   3.757  0.7168  0.8107 -0.3236
  423MOL0     C57036   7.271   9.376   3.066 -0.1909  0.1455  0.5282
  423MOL0     C57037   7.137   9.406   3.021 -0.9694  0.3863  0.2229
  423MOL0     H57038   6.785   9.643   2.803  2.5528 -1.1764  0.6324
  423MOL0     H57039   6.528   9.635   2.742 -0.4747 -3.3427 -1.8038
  423MOL0     H57040   6.312   9.267   2.893 -0.2732  0.1482 -3.9321
  423MOL0     H57041   6.269   9.421   2.988 -1.4747  1.8324 -1.3292
  423MOL0     H57042   6.127   9.477   2.786  0.5031  1.6738  1.1001
  423MOL0     H57043   6.146   9.303   2.745 -2.6299 -0.4137  0.3061
  423MOL0     H57044   6.053   9.235   2.967 -0.3883 -0.7880 -0.0018
  423MOL0     H57045   6.038   9.401   3.016  4.5494  1.1718 -0.7397
  423MOL0     H57046   5.859   9.406   2.826 -0.4902 -0.3667 -1.7914
  423MOL0     H57047   5.900   9.234   2.789 -1.5173 -3.0613  2.2643
  423MOL0     H57048   5.852   9.161   3.019 -1.8181  0.7066  1.8270
  423MOL0     H57049   5.780   9.313   3.059  0.5273 -2.8923  1.9416
  423MOL0     H57050   5.698   9.147   2.807 -0.2689  1.0695 -0.3046
  423MOL0     H57051   5.617   9.154   2.967  0.2845  2.2796  0.7928
  423MOL0     H57052   5.543   9.375   2.935  2.0986  2.1494 -0.1903
  423MOL0     H57053   5.637   9.403   2.795  0.6417  0.5726  1.4775
  423MOL0     H57054   5.442   9.170   2.776 -0.0873 -0.6749 -1.2033
  423MOL0     H57055   5.529   9.260   2.659  1.4224  1.5044  0.5406
  423MOL0     H57056   5.326   9.364   2.975  0.4872 -0.9293 -0.7772
  423MOL0     H57057   5.096   9.446   3.020  1.1864  1.4330  0.1771
  423MOL0     H57058   5.116   9.607   2.984  1.6037 -1.7403  2.9221
  423MOL0     H57059   4.931   9.419   2.855  0.2490 -0.1354  1.6707
  423MOL0     H57060   4.956   9.579   2.784  3.5242 -0.3711  0.5590
  423MOL0     H57061   4.884   9.678   3.025  2.1704 -0.2280 -1.2334
  423MOL0     H57062   4.813   9.517   3.055  0.2787 -1.7709 -1.1835
  423MOL0     H57063   4.696   9.518   2.850  1.1980 -1.5060  2.0431
  423MOL0     H57064   4.753   9.694   2.825  1.1289  0.0486  0.4426
  423MOL0     H57065   4.457   9.777   3.105 -1.2594  2.3290 -0.6487
  423MOL0     H57066   4.202   9.903   3.128 -0.0939 -0.5838  3.5373
  423MOL0     H57067   4.077   9.779   3.090  0.2247 -0.6503 -0.7642
  423MOL0     H57068   4.209   9.749   3.206  0.6507 -2.9705 -1.2807
  423MOL0     H57069   3.841   9.444   2.904  2.9461  2.3745 -1.5705
  423MOL0     H57070   3.581   9.434   2.929 -1.8301  0.9399 -0.7859
  423MOL0     H57071   3.360   9.511   2.891 -0.8840  2.1316 -0.0995
  423MOL0     H57072   3.388   9.499   3.071 -1.0421 -1.3133 -0.4405
  423MOL0     H57073   3.205   9.673   3.100  0.0264 -2.0613  1.6476
  423MOL0     H57074   3.182   9.677   2.927  1.5689 -0.0895 -0.3898
  423MOL0     H57075   3.094   9.433   2.949 -2.4654 -0.9605  0.9152
  423MOL0     H57076   3.005   9.538   3.066  0.3531  0.4782  2.5339
  423MOL0     H57077   3.231   9.344   3.131 -0.9472 -1.3473 -1.8208
  423MOL0     H57078   3.147   9.452   3.246  1.0848 -1.4241  0.3135
  423MOL0     H57079   2.955   9.366   3.226  1.6032  1.3773 -0.4986
  423MOL0     H57080   3.068   9.224   3.264  4.1049  0.3838 -0.1283
  423MOL0     H57081   2.922   9.248   3.006  0.2868 -0.0849 -1.0199
  423MOL0     H57082   3.083   9.171   3.026  1.4906 -0.5937  1.7215
  423MOL0     H57083   3.008   9.007   3.175 -0.4402  0.4754  1.3116
  423MOL0     H57084   2.883   9.019   3.050 -1.5700  2.9923 -0.6535
  423MOL0     H57085   2.879   9.124   3.328  2.6266  1.7552 -1.4968
  423MOL0     H57086   2.788   8.993   3.256  1.9118 -1.1567  2.9279
  423MOL0     H57087   3.596   9.866   2.964  1.7752  0.9899  2.8494
  423MOL0     H57088   3.852   9.854   2.925  3.5115 -1.6907 -1.6951
  423MOL0     H57089   4.288   9.646   2.666 -3.3169 -1.3716  1.2994
  423MOL0     H57090   4.507   9.600   2.723 -3.1529  0.7167 -2.3414
  423MOL0     H57091   6.520   9.268   2.965 -0.2819  0.6286  0.0552
  423MOL0     H57092   6.733   9.277   3.005  0.2870  1.4002 -0.2885
  423MOL0     H57093   7.135   9.731   3.128  2.3357  0.3291  2.0540
  423MOL0     H57094   7.367   9.668   3.197  0.0637 -0.9491  1.2103
  423MOL0     H57095   7.562   9.583   3.246 -0.0452  0.2722 -0.1287
  423MOL0     H57096   7.472   9.508   3.383 -2.3023  0.2406 -1.6956
  423MOL0     H57097   7.724   9.390   3.256 -0.6994 -2.8150 -1.2269
  423MOL0     H57098   7.601   9.299   3.338  0.6832  0.1370 -0.4374
  423MOL0     H57099   7.612   9.426   3.538  0.5577  1.8566  0.5440
  423MOL0     H57100   7.735   9.538   3.482 -1.4790  1.0770 -3.0208
  423MOL0     H57101   7.884   9.329   3.451  0.6683  0.4611  0.1051
  423MOL0     H57102   7.773   9.239   3.549 -0.5033  0.2772  1.2292
  423MOL0     H57103   7.927   9.518   3.842  2.1703  0.2581 -0.5925
  423MOL0     H57104   7.314   9.277   3.065  2.2957  1.1616 -0.2291
  423MOL0     H57105   7.075   9.327   2.980 -0.2702  0.7142 -1.5707
  424MOL0     O57106   9.487  10.633   6.454 -0.6520 -0.3910 -0.3133
  424MOL0     C57107   9.560  10.602   6.552 -1.0631 -1.2820  0.1076
  424MOL0     O57108   9.569  10.671   6.671 -0.3664  0.3212 -0.8602
  424MOL0     C57109   9.467  10.749   6.723  0.7674 -0.4973 -0.0798
  424MOL0     C57110   9.497  10.860   6.802 -0.0198  0.2143  1.0868
  424MOL0     C57111   9.395  10.924   6.874 -0.3936  0.8547  1.1663
  424MOL0     C57112   9.264  10.876   6.875 -0.2938  0.5587 -0.2514
  424MOL0     O57113   9.173  10.940   6.954 -0.1315 -0.5548 -0.3645
  424MOL0     C57114   9.072  10.851   7.004  0.5290  0.3925  0.4712
  424MOL0     C57115   9.013  10.923   7.128  0.5829  0.3407  0.7561
  424MOL0     C57116   8.880  10.858   7.172  0.3819 -0.8495  0.2124
  424MOL0     C57117   8.761  10.886   7.073  0.0510 -0.8038 -0.8226
  424MOL0     C57118   8.632  10.834   7.136  0.3150  0.3171  0.1660
  424MOL0     C57119   8.595  10.702   7.071 -0.1812 -0.1711  0.3849
  424MOL0     C57120   8.441  10.670   7.088 -0.1949 -0.0180  0.1208
  424MOL0     C57121   8.390  10.656   7.227 -0.3420 -0.1298 -0.4579
  424MOL0     N57122   8.262  10.583   7.240  0.1349 -0.4629 -0.4024
  424MOL0     C57123   8.140  10.615   7.286 -0.1054  1.0363  0.1850
  424MOL0     C57124   8.072  10.499   7.298  0.3752 -0.3832  0.4899
  424MOL0     C57125   7.931  10.478   7.348  0.4785 -0.7806  0.6931
  424MOL0     C57126   7.914  10.332   7.394 -0.6725 -0.9939  0.0027
  424MOL0     C57127   7.785  10.316   7.468  0.4373  0.2084  1.1140
  424MOL0     C57128   7.746  10.164   7.484 -0.3140 -0.2991  0.0983
  424MOL0     O57129   7.601  10.137   7.480 -0.9108 -0.2969 -0.1312
  424MOL0     C57130   7.503  10.197   7.564 -0.3084  0.4155  0.3531
  424MOL0     C57131   7.527  10.255   7.688 -0.2365  0.3932  0.0978
  424MOL0     C57132   7.424  10.312   7.762  1.0638 -0.1391 -0.0859
  424MOL0     C57133   7.467  10.380   7.883  0.3856  0.1575 -0.4361
  424MOL0     C57134   7.289  10.310   7.715 -0.3628 -0.3850  0.0275
  424MOL0     C57135   7.170  10.388   7.767 -0.9104  0.1268 -0.1047
  424MOL0     O57136   7.054  10.365   7.708 -0.3247 -0.1038 -0.7516
  424MOL0     C57137   6.940  10.403   7.779  0.2280  0.3399 -0.1965
  424MOL0     C57138   6.905  10.541   7.771 -0.3644 -0.3365  0.4338
  424MOL0     C57139   6.801  10.588   7.853 -0.0261  0.0748  0.1838
  424MOL0     C57140   6.729  10.507   7.927  0.6094  0.3363 -0.5904
  424MOL0     O57141   6.634  10.571   8.003  0.6976 -0.1827  0.1424
  424MOL0     C57142   6.528  10.498   8.063 -1.4744 -0.1263 -0.4414
  424MOL0     C57143   6.430  10.598   8.140 -0.6946  0.1008 -0.2249
  424MOL0     C57144   6.307  10.530   8.206  0.4879 -0.3047 -0.0179
  424MOL0     C57145   6.213  10.632   8.267 -0.2454 -0.0150  0.7017
  424MOL0     C57146   6.083  10.568   8.317  0.1590 -0.6659  1.1780
  424MOL0     C57147   5.993  10.664   8.396  0.2374 -0.4066 -0.0547
  424MOL0     C57148   5.858  10.589   8.428 -0.9862  0.0606 -0.1406
  424MOL0     C57149   5.751  10.674   8.495 -0.2763  1.4210 -0.4459
  424MOL0    Cl57150   5.742  10.669   8.678 -0.3803 -0.3024  0.0185
  424MOL0     C57151   6.743  10.365   7.919 -0.2483  0.5474  0.7723
  424MOL0     C57152   6.858  10.312   7.852  0.4779 -0.2973 -0.4639
  424MOL0     O57153   7.192  10.476   7.845  0.1926  0.4142  0.0286
  424MOL0     C57154   7.267  10.246   7.589  0.1895  0.1161 -0.6867
  424MOL0     C57155   7.371  10.183   7.522 -0.0028  0.0627 -0.9177
  424MOL0     N57156   8.149  10.402   7.241 -0.3663  0.2908 -0.6777
  424MOL0     N57157   8.263  10.447   7.221 -0.5119 -0.7878  0.2096
  424MOL0     C57158   9.233  10.767   6.788 -0.3713  1.1416 -0.1472
  424MOL0     C57159   9.344  10.700   6.723  1.0672  0.6379 -0.3880
  424MOL0     C57160   9.669  10.503   6.516  0.5438 -0.6174  0.2918
  424MOL0     C57161   9.794  10.513   6.581  0.8755 -0.2586 -0.4827
  424MOL0     C57162   9.897  10.419   6.553 -0.9672  0.3118  0.3846
  424MOL0     C57163   9.883  10.314   6.459  0.1698 -0.2679 -0.4819
  424MOL0     O57164   9.974  10.218   6.422  0.0395 -0.5315 -0.8684
  424MOL0     C57165  10.109  10.248   6.459 -0.5234 -0.5221 -0.7069
  424MOL0     C57166  10.178  10.363   6.388 -0.2128 -0.8219  0.3092
  424MOL0     C57167  10.238  10.328   6.249  0.7008 -0.5069 -0.1398
  424MOL0     C57168  10.135  10.269   6.150 -0.1068  0.0824  0.4404
  424MOL0     C57169  10.023  10.359   6.122  0.2584  0.1171  0.3592
  424MOL0     C57170   9.947  10.443   6.094  0.1818 -0.4989  0.3992
  424MOL0     C57171   9.751  10.307   6.404 -0.3170 -0.0039  1.4438
  424MOL0     C57172   9.651  10.400   6.418  0.2225  0.3716 -0.2864
  424MOL0     H57173   9.599  10.896   6.806  0.8881 -1.7148 -1.9747
  424MOL0     H57174   9.423  11.012   6.931  1.3616  0.7797  0.4867
  424MOL0     H57175   9.001  10.824   6.925 -1.0286  0.6260  1.7576
  424MOL0     H57176   9.113  10.755   7.037  2.7290  0.4438 -1.8406
  424MOL0     H57177   9.079  10.905   7.213  1.3332  0.7323  0.2718
  424MOL0     H57178   9.001  11.029   7.106  0.5187 -0.0281 -1.2117
  424MOL0     H57179   8.888  10.750   7.188  1.2087 -0.7959  0.2257
  424MOL0     H57180   8.857  10.903   7.269 -0.5370  0.5692 -0.6273
  424MOL0     H57181   8.762  10.994   7.050  2.5794 -0.1470  1.8862
  424MOL0     H57182   8.791  10.837   6.980  0.6070 -1.7134 -0.1755
  424MOL0     H57183   8.643  10.827   7.244  0.6740  0.3775  0.1340
  424MOL0     H57184   8.554  10.911   7.126  0.3625  0.1723 -1.8340
  424MOL0     H57185   8.616  10.709   6.964  1.6591 -0.8268  0.6677
  424MOL0     H57186   8.666  10.629   7.111  0.2479 -0.2907 -0.5715
  424MOL0     H57187   8.373  10.739   7.038  1.4907  2.0534  0.5272
  424MOL0     H57188   8.416  10.574   7.042  0.6194 -0.5777  0.8047
  424MOL0     H57189   8.387  10.754   7.276 -0.0889  0.2176 -1.1298
  424MOL0     H57190   8.470  10.601   7.277  1.0864  1.1736 -1.2204
  424MOL0     H57191   8.118  10.715   7.323 -1.6277  0.4934  0.8547
  424MOL0     H57192   7.907  10.553   7.423 -0.9069  1.7524 -2.0616
  424MOL0     H57193   7.864  10.499   7.264  1.1524  0.1308  0.3672
  424MOL0     H57194   8.005  10.302   7.448 -0.6247  0.7906  0.9756
  424MOL0     H57195   7.916  10.260   7.312 -0.1432 -0.4122 -0.5043
  424MOL0     H57196   7.711  10.376   7.414  2.1921  0.6923 -0.9045
  424MOL0     H57197   7.787  10.357   7.569 -3.3303 -0.3526  1.5506
  424MOL0     H57198   7.776  10.127   7.583 -3.3472 -2.9201  0.1824
  424MOL0     H57199   7.778  10.106   7.397 -0.1907  0.4144 -0.3403
  424MOL0     H57200   7.627  10.243   7.728  0.7805 -0.6660 -2.5523
  424MOL0     H57201   7.555  10.332   7.927  0.2319 -0.3348 -0.6560
  424MOL0     H57202   7.485  10.483   7.852  1.2507  0.0026 -0.4782
  424MOL0     H57203   7.394  10.385   7.964 -1.5345  2.0892 -2.1399
  424MOL0     H57204   6.974  10.606   7.717  0.8478  1.6746  4.0358
  424MOL0     H57205   6.764  10.689   7.841  0.2630  0.2404  0.6491
  424MOL0     H57206   6.476  10.446   7.982 -0.4580  0.2598 -1.3723
  424MOL0     H57207   6.576  10.428   8.133 -2.1133  0.0125  0.1446
  424MOL0     H57208   6.491  10.641   8.219  2.4943 -4.0082 -0.1148
  424MOL0     H57209   6.407  10.676   8.067 -2.7449  0.4851  0.7571
  424MOL0     H57210   6.341  10.458   8.281 -2.6586 -0.2944  1.5907
  424MOL0     H57211   6.260  10.471   8.127  1.8042 -1.2910 -0.1024
  424MOL0     H57212   6.260  10.687   8.348  1.8637 -0.1941 -0.3314
  424MOL0     H57213   6.187  10.703   8.187  0.6244 -0.3391  0.1138
  424MOL0     H57214   6.101  10.480   8.379 -1.5133 -0.5992  1.8176
  424MOL0     H57215   6.022  10.529   8.235  3.9592 -0.5629 -1.9904
  424MOL0     H57216   6.057  10.699   8.478  0.0897  2.4628 -1.0581
  424MOL0     H57217   5.968  10.755   8.342 -1.4645  0.7133  2.4723
  424MOL0     H57218   5.883  10.503   8.491  2.0222 -0.3857 -1.7492
  424MOL0     H57219   5.817  10.549   8.335 -1.7485  2.3758 -0.8681
  424MOL0     H57220   5.654  10.640   8.457 -0.4822  0.1186  1.1246
  424MOL0     H57221   5.768  10.779   8.471  0.7705  1.5907  0.9044
  424MOL0     H57222   6.668  10.295   7.955 -0.2476  0.0329 -0.2130
  424MOL0     H57223   6.889  10.208   7.850 -0.2447 -0.5786  1.2077
  424MOL0     H57224   7.165  10.237   7.553 -0.2337  0.1164  0.4560
  424MOL0     H57225   7.347  10.137   7.426 -1.5977  1.8525 -1.4248
  424MOL0     H57226   9.133  10.729   6.773 -0.5396  1.9708 -1.2944
  424MOL0     H57227   9.321  10.607   6.671  1.6162  1.8644 -2.9885
  424MOL0     H57228   9.811  10.597   6.648  2.2000 -0.4272 -0.5870
  424MOL0     H57229   9.986  10.438   6.612 -0.2423 -0.5295 -0.4054
  424MOL0     H57230  10.119  10.280   6.563  0.4007  1.1928 -1.2893
  424MOL0     H57231  10.182  10.167   6.445  2.2505  1.4028  1.4631
  424MOL0     H57232  10.270  10.395   6.437  1.2391  0.0736 -2.7447
  424MOL0     H57233  10.104  10.443   6.383  0.7301  0.0900  0.8062
  424MOL0     H57234  10.333  10.273   6.253  2.0070  1.5909 -0.4601
  424MOL0     H57235  10.270  10.418   6.196 -0.2825 -0.3998 -0.5709
  424MOL0     H57236  10.091  10.175   6.186  1.0639 -0.3623  0.7385
  424MOL0     H57237  10.185  10.240   6.058 -0.9903  0.5580 -0.2039
  424MOL0     H57238   9.888  10.526   6.060 -0.6626 -0.9808  0.6778
  424MOL0     H57239   9.723  10.228   6.335 -1.6337  2.2621 -0.7493
  424MOL0     H57240   9.559  10.387   6.362  0.0049 -0.0681  0.1610
  425MOL0     O57241   7.853  10.294   7.810  0.1912 -0.3307  0.2088
  425MOL0     C57242   7.946  10.216   7.826 -0.2562  1.1072 -0.6740
  425MOL0     O57243   7.939  10.087   7.877 -0.4176  0.2743 -0.4519
  425MOL0     C57244   7.824  10.027   7.916 -0.2247 -0.1302 -0.0876
  425MOL0     C57245   7.721  10.089   7.990 -0.6243 -0.4716  1.1669
  425MOL0     C57246   7.615  10.008   8.027 -0.2300  0.5605  0.1451
  425MOL0     C57247   7.591   9.875   7.999  1.0001  0.7279  0.7696
  425MOL0     O57248   7.483   9.807   8.049  0.3493 -0.9522 -0.7982
  425MOL0     C57249   7.415   9.716   7.960  0.6215  0.8102  0.5895
  425MOL0     C57250   7.377   9.592   8.028 -0.6439 -0.1822 -0.3469
  425MOL0     C57251   7.502   9.510   8.057 -0.8370 -0.1461  0.3742
  425MOL0     C57252   7.464   9.366   8.070  0.2718  0.7102  0.3142
  425MOL0     C57253   7.581   9.267   8.105 -0.6851  0.5068  0.2929
  425MOL0     C57254   7.670   9.239   7.981 -0.1415  0.4327 -0.1463
  425MOL0     C57255   7.786   9.168   8.032  0.1102  0.5030 -0.4325
  425MOL0     C57256   7.755   9.033   8.089 -0.5216  0.0870  0.0492
  425MOL0     N57257   7.667   8.944   8.020  0.0155  0.1354  0.2909
  425MOL0     C57258   7.535   8.930   8.050  0.1724  0.7506  0.2788
  425MOL0     C57259   7.486   8.828   7.976  0.0989 -0.0148 -0.4107
  425MOL0     C57260   7.343   8.787   7.969 -0.0703  0.8562  0.1676
  425MOL0     C57261   7.290   8.819   7.825 -0.0202 -0.4026  0.6975
  425MOL0     C57262   7.142   8.774   7.810 -0.2374 -0.5889  0.5159
  425MOL0     C57263   7.108   8.734   7.670 -0.4764 -0.5057 -0.5154
  425MOL0     O57264   7.157   8.825   7.565  0.1714 -0.3751  0.0512
  425MOL0     C57265   7.097   8.948   7.543 -0.2581 -0.2285 -0.2433
  425MOL0     C57266   6.969   8.989   7.578 -0.0482  0.4193  0.5151
  425MOL0     C57267   6.922   9.118   7.536 -0.0819 -0.6019  0.5049
  425MOL0     C57268   6.782   9.150   7.574 -0.3284 -0.5219 -0.0173
  425MOL0     C57269   7.002   9.202   7.460 -0.0151  0.2440 -0.0659
  425MOL0     C57270   6.965   9.342   7.424 -0.6023  0.4591 -0.5285
  425MOL0     O57271   6.927   9.377   7.299  0.0863  0.2948 -0.7536
  425MOL0     C57272   6.845   9.482   7.276 -0.3415  1.1415  0.3729
  425MOL0     C57273   6.841   9.535   7.152  0.2073  0.1104 -0.7107
  425MOL0     C57274   6.754   9.639   7.129 -0.0996  0.3276  0.3146
  425MOL0     C57275   6.679   9.704   7.230 -0.4954 -0.0515 -0.6963
  425MOL0     O57276   6.606   9.820   7.219 -0.3114 -0.7541 -0.1964
  425MOL0     C57277   6.589   9.875   7.090 -0.2678 -0.3190 -0.1657
  425MOL0     C57278   6.508  10.002   7.087  0.4786  0.1991  0.1970
  425MOL0     C57279   6.367   9.983   7.152  0.7106  0.1632 -0.1050
  425MOL0     C57280   6.315  10.126   7.178 -0.3336 -0.3495 -0.5416
  425MOL0     C57281   6.176  10.110   7.256  0.5205 -0.2902 -0.2298
  425MOL0     C57282   6.096  10.241   7.266  0.8052 -0.7731  0.3689
  425MOL0     C57283   5.957  10.207   7.312  0.1203  0.5746  0.1098
  425MOL0     C57284   5.880  10.342   7.319  0.5487  0.3698 -0.3666
  425MOL0    Cl57285   5.968  10.464   7.402  0.5330  0.2474  0.1546
  425MOL0     C57286   6.691   9.646   7.358  0.5503 -0.6944 -0.0704
  425MOL0     C57287   6.763   9.535   7.387 -0.7726 -0.2875  0.4258
  425MOL0     O57288   6.991   9.421   7.516  0.5466  0.2311  0.1966
  425MOL0     C57289   7.124   9.152   7.416 -0.5421  0.2022 -0.5862
  425MOL0     C57290   7.169   9.028   7.461  0.1173  0.2727  0.9164
  425MOL0     N57291   7.587   8.781   7.896 -0.8076  0.4087  0.1797
  425MOL0     N57292   7.696   8.841   7.931 -0.2133 -0.7150 -0.2311
  425MOL0     C57293   7.697   9.813   7.921 -0.5844  0.1982 -0.4389
  425MOL0     C57294   7.812   9.894   7.889 -0.0250  0.6849  0.0926
  425MOL0     C57295   8.082  10.267   7.778  0.3714 -0.3038 -0.9438
  425MOL0     C57296   8.206  10.220   7.825  0.3754  0.2514  0.0825
  425MOL0     C57297   8.330  10.261   7.783  0.9929  0.2254 -0.4702
  425MOL0     C57298   8.342  10.362   7.684  0.4687 -0.2414  0.0315
  425MOL0     O57299   8.458  10.411   7.632 -0.2681  0.0953  1.1363
  425MOL0     C57300   8.579  10.349   7.672 -0.1435  0.0521  0.1914
  425MOL0     C57301   8.695  10.429   7.618  0.1982 -0.2058 -0.4600
  425MOL0     C57302   8.838  10.377   7.648 -0.8373 -0.4919  0.7061
  425MOL0     C57303   8.953  10.480   7.628 -0.3157 -0.3308 -0.4018
  425MOL0     C57304   9.083  10.414   7.631 -0.1232 -0.0372 -0.8405
  425MOL0     C57305   9.182  10.344   7.638 -0.3930 -0.6504  0.0604
  425MOL0     C57306   8.219  10.416   7.631  0.2721 -0.5372 -0.5231
  425MOL0     C57307   8.093  10.365   7.678 -0.3248  0.4717 -0.6694
  425MOL0     H57308   7.725  10.191   8.026  0.2700 -0.1692  0.2691
  425MOL0     H57309   7.530  10.057   8.073  0.9514  0.0244  3.0699
  425MOL0     H57310   7.320   9.750   7.918 -0.2982 -0.6737  1.3918
  425MOL0     H57311   7.474   9.699   7.870 -0.8054  2.2297 -0.6784
  425MOL0     H57312   7.331   9.619   8.124 -0.0518  0.9191 -0.3592
  425MOL0     H57313   7.310   9.538   7.961  0.3988 -2.0743  0.0836
  425MOL0     H57314   7.569   9.509   7.971 -1.7841  0.2340 -0.3846
  425MOL0     H57315   7.557   9.547   8.144  0.9773 -0.1845 -0.7005
  425MOL0     H57316   7.388   9.355   8.149 -0.7548  0.9590 -0.6109
  425MOL0     H57317   7.412   9.346   7.976 -2.5866  2.5757  1.3717
  425MOL0     H57318   7.647   9.296   8.187  3.2099 -1.7074 -1.7527
  425MOL0     H57319   7.531   9.181   8.152 -1.2510  1.1350  0.8765
  425MOL0     H57320   7.621   9.172   7.909 -1.7214 -0.6680  1.8605
  425MOL0     H57321   7.696   9.326   7.920  0.6209  0.5528  0.3387
  425MOL0     H57322   7.859   9.168   7.950 -1.0824  1.1201 -1.5175
  425MOL0     H57323   7.826   9.224   8.117 -1.7974 -1.5188  1.9526
  425MOL0     H57324   7.718   9.033   8.192 -0.6817 -0.2481 -0.0063
  425MOL0     H57325   7.852   8.983   8.100  0.6937  1.4559 -3.2475
  425MOL0     H57326   7.489   9.002   8.117 -0.5453 -0.3129  0.9692
  425MOL0     H57327   7.357   8.680   7.984  2.1587  1.4671  3.3127
  425MOL0     H57328   7.282   8.833   8.047 -0.5922  0.8234 -0.2146
  425MOL0     H57329   7.358   8.785   7.747  0.8098 -0.4732  1.4401
  425MOL0     H57330   7.293   8.928   7.814  3.2870 -0.3012  1.5149
  425MOL0     H57331   7.075   8.853   7.844  0.2266  0.3830 -0.7540
  425MOL0     H57332   7.134   8.688   7.876  1.7713 -1.5358 -0.3793
  425MOL0     H57333   6.999   8.721   7.661 -0.5307 -0.6169  0.2906
  425MOL0     H57334   7.160   8.641   7.645  0.8771 -0.1634  0.8709
  425MOL0     H57335   6.909   8.907   7.616  0.9851 -1.2265 -1.2100
  425MOL0     H57336   6.759   9.096   7.666  1.9175  0.0960  0.9863
  425MOL0     H57337   6.765   9.254   7.603  3.9769 -0.3644  2.8628
  425MOL0     H57338   6.717   9.108   7.496 -0.9124  0.8808 -0.3192
  425MOL0     H57339   6.897   9.499   7.067  1.2979  0.0126  0.0353
  425MOL0     H57340   6.737   9.655   7.023 -1.0080 -2.6473 -0.0789
  425MOL0     H57341   6.688   9.899   7.050  1.7689 -3.6837  2.3142
  425MOL0     H57342   6.541   9.795   7.032  0.2300 -1.6455  1.1682
  425MOL0     H57343   6.556  10.083   7.143  0.6697 -0.3257  0.8000
  425MOL0     H57344   6.502  10.039   6.984 -0.1366 -1.5272 -0.4222
  425MOL0     H57345   6.374   9.934   7.250  1.4469  0.9054  0.2287
  425MOL0     H57346   6.292   9.928   7.095  1.9314 -2.3105  0.5443
  425MOL0     H57347   6.389  10.173   7.244 -2.0411 -0.1075  1.3346
  425MOL0     H57348   6.303  10.186   7.088 -2.5166  1.2999  0.7184
  425MOL0     H57349   6.206  10.074   7.355  4.0064  1.7403 -0.4025
  425MOL0     H57350   6.113  10.032   7.212 -1.6327 -0.2237  2.4716
  425MOL0     H57351   6.147  10.313   7.331 -2.8138  1.7743  0.6409
  425MOL0     H57352   6.093  10.279   7.163 -2.4333 -0.2375  0.5715
  425MOL0     H57353   5.951  10.174   7.416  1.1991 -1.3948 -0.3946
  425MOL0     H57354   5.910  10.130   7.250  0.0086 -0.3409  1.2987
  425MOL0     H57355   5.789  10.331   7.380  1.3953  1.3456  1.1400
  425MOL0     H57356   5.858  10.386   7.222 -2.1119  2.0139  0.8669
  425MOL0     H57357   6.626   9.683   7.438 -1.6243 -2.6638 -0.8037
  425MOL0     H57358   6.764   9.484   7.483  0.1431 -0.4307  0.3554
  425MOL0     H57359   7.182   9.219   7.353 -1.1335 -0.6010 -2.0100
  425MOL0     H57360   7.255   8.982   7.414  1.0296  0.9268  1.8922
  425MOL0     H57361   7.689   9.707   7.897  1.5101  0.3373 -2.0192
  425MOL0     H57362   7.903   9.845   7.856 -0.4562 -0.2868  0.3105
  425MOL0     H57363   8.198  10.136   7.893  1.9802 -0.3341 -0.4136
  425MOL0     H57364   8.416  10.206   7.822  1.2383 -0.1967 -1.5410
  425MOL0     H57365   8.572  10.349   7.781 -2.1428  0.7857  0.1072
  425MOL0     H57366   8.580  10.246   7.635  0.1551 -0.1749  0.8233
  425MOL0     H57367   8.686  10.527   7.666  0.7103 -1.9888  3.6263
  425MOL0     H57368   8.691  10.450   7.510 -0.8019  0.1889 -0.3519
  425MOL0     H57369   8.870  10.289   7.592 -3.5403 -0.9679 -0.2526
  425MOL0     H57370   8.838  10.355   7.756 -2.2115 -2.5715  0.3363
  425MOL0     H57371   8.953  10.558   7.704 -2.3936  0.6581 -1.3193
  425MOL0     H57372   8.937  10.529   7.531  1.9586  0.4094 -0.4683
  425MOL0     H57373   9.265  10.277   7.639 -0.0097 -0.1824 -0.0068
  425MOL0     H57374   8.231  10.492   7.555  0.1246  0.5106  0.4851
  425MOL0     H57375   8.003  10.403   7.631  1.2580  1.7694 -2.8363
  426MOL0     O57376   7.702   5.167  10.949 -0.5877  0.0010  0.1739
  426MOL0     C57377   7.768   5.105  10.862  0.0597 -0.0120  0.2122
  426MOL0     O57378   7.900   5.120  10.843  0.0024  0.2570  0.2159
  426MOL0     C57379   7.984   5.187  10.936 -0.3708  0.4674 -0.1021
  426MOL0     C57380   8.100   5.226  10.878 -0.2004 -0.7762 -0.0515
  426MOL0     C57381   8.208   5.288  10.947 -0.3360 -0.5870  0.3846
  426MOL0     C57382   8.189   5.312  11.083  0.0204  0.9481 -0.4010
  426MOL0     O57383   8.268   5.383  11.174 -0.6326  0.6642 -0.2223
  426MOL0     C57384   8.414   5.389  11.162  0.2089  0.8843  0.5966
  426MOL0     C57385   8.487   5.269  11.222 -0.1440  0.0880 -0.0073
  426MOL0     C57386   8.641   5.284  11.197  0.5652  1.3201 -1.3615
  426MOL0     C57387   8.693   5.170  11.285 -0.5398  0.2607 -0.3819
  426MOL0     C57388   8.838   5.143  11.277  0.3704  0.1132 -0.5263
  426MOL0     C57389   8.885   5.058  11.160  0.1815 -0.1436 -0.4069
  426MOL0     C57390   9.040   5.043  11.157 -0.4181  0.3962 -0.2357
  426MOL0     C57391   9.087   4.918  11.241  0.4827  0.3320  1.5110
  426MOL0     N57392   9.234   4.906  11.244  0.6437 -0.5108  0.4602
  426MOL0     C57393   9.322   4.872  11.147  0.2014 -0.2666  0.2583
  426MOL0     C57394   9.442   4.840  11.205  0.0395  1.1241  0.4575
  426MOL0     C57395   9.555   4.764  11.133  0.0921  0.5477 -0.7219
  426MOL0     C57396   9.633   4.861  11.044  0.3057 -0.2152 -0.5351
  426MOL0     C57397   9.670   4.797  10.909  0.8630 -1.1002  0.2680
  426MOL0     C57398   9.546   4.754  10.818 -0.2956 -0.9885 -0.0771
  426MOL0     O57399   9.456   4.866  10.809 -0.4081 -0.2338 -0.5299
  426MOL0     C57400   9.336   4.851  10.733 -0.0767  0.0359 -0.2883
  426MOL0     C57401   9.270   4.970  10.702  1.0521  0.3506 -1.2059
  426MOL0     C57402   9.161   4.967  10.608  1.3769  0.8900 -0.0693
  426MOL0     C57403   9.112   5.097  10.567  0.2823  0.3328 -0.3380
  426MOL0     C57404   9.109   4.843  10.557 -0.1019  0.6839  0.5008
  426MOL0     C57405   8.983   4.833  10.469  1.1691  0.5833 -1.2050
  426MOL0     O57406   8.856   4.871  10.527  0.8110  0.6825  0.0110
  426MOL0     C57407   8.742   4.831  10.472  1.1434  0.9243 -0.4030
  426MOL0     C57408   8.683   4.895  10.361 -0.0210 -0.5188  0.2770
  426MOL0     C57409   8.565   4.859  10.305 -0.1969 -0.3940 -0.4141
  426MOL0     C57410   8.488   4.766  10.366  0.3771 -0.1279 -0.4185
  426MOL0     O57411   8.365   4.745  10.302 -0.1831 -0.0025  0.1139
  426MOL0     C57412   8.280   4.636  10.332  0.3128  0.4429  0.0024
  426MOL0     C57413   8.163   4.634  10.241  0.3693 -0.7787  1.0927
  426MOL0     C57414   8.092   4.770  10.198 -0.7158  1.1147 -0.8358
  426MOL0     C57415   8.049   4.854  10.314  0.5235 -0.4084  0.5900
  426MOL0     C57416   7.983   4.986  10.259 -0.1435  0.6619 -0.0618
  426MOL0     C57417   7.831   4.963  10.231 -0.0083 -0.7799  0.1242
  426MOL0     C57418   7.779   5.089  10.173 -0.2614 -0.1257 -0.2396
  426MOL0     C57419   7.632   5.081  10.141  0.1283 -0.2536  0.0090
  426MOL0    Cl57420   7.550   5.065  10.308 -0.0469  0.4790 -0.2230
  426MOL0     C57421   8.527   4.702  10.485 -0.7121  0.4113  0.1641
  426MOL0     C57422   8.659   4.729  10.537  0.3451  0.3913  0.4449
  426MOL0     O57423   9.001   4.768  10.368 -0.2617 -0.1158  0.6079
  426MOL0     C57424   9.171   4.723  10.595  0.0051 -1.1441  0.9653
  426MOL0     C57425   9.287   4.732  10.673 -0.6439 -0.0046  0.0272
  426MOL0     N57426   9.427   4.872  11.343  0.8678 -0.0526  0.0967
  426MOL0     N57427   9.304   4.911  11.364 -0.9188 -0.2404  0.2068
  426MOL0     C57428   8.070   5.269  11.141  0.1832  0.3413  0.2947
  426MOL0     C57429   7.971   5.199  11.069  0.3070 -0.1168  0.2210
  426MOL0     C57430   7.702   5.009  10.775 -0.2770 -0.5496 -0.0853
  426MOL0     C57431   7.779   4.920  10.689  0.1244 -0.7211 -0.1892
  426MOL0     C57432   7.713   4.816  10.623  0.1348 -0.5882  0.0146
  426MOL0     C57433   7.581   4.793  10.640  0.0553 -0.5877  0.3534
  426MOL0     O57434   7.530   4.694  10.564 -1.2604  0.6138 -0.2900
  426MOL0     C57435   7.388   4.662  10.567 -1.1950  0.4294  0.3629
  426MOL0     C57436   7.346   4.540  10.481 -0.7048  0.6122  0.8946
  426MOL0     C57437   7.377   4.557  10.332  0.7916  0.2291  0.5180
  426MOL0     C57438   7.320   4.456  10.240 -0.5788  0.8293  0.5022
  426MOL0     C57439   7.184   4.478  10.204 -0.1486  0.5839 -0.2432
  426MOL0     C57440   7.068   4.504  10.176  0.2674  0.9929 -0.1977
  426MOL0     C57441   7.503   4.881  10.718  0.2432  0.2384  0.4987
  426MOL0     C57442   7.562   4.993  10.778 -1.0651 -0.1025  0.1729
  426MOL0     H57443   8.102   5.195  10.774 -0.3811  0.7773 -0.5430
  426MOL0     H57444   8.293   5.324  10.890 -1.1709  0.3811 -0.2889
  426MOL0     H57445   8.441   5.403  11.057  0.7005 -1.2749  0.3749
  426MOL0     H57446   8.448   5.475  11.219  0.9899 -1.0003  3.1959
  426MOL0     H57447   8.454   5.253  11.325 -0.7881 -0.2449 -0.2564
  426MOL0     H57448   8.449   5.182  11.168 -3.3216  1.4850 -0.2474
  426MOL0     H57449   8.665   5.278  11.091  1.9638  0.7397 -1.0341
  426MOL0     H57450   8.684   5.374  11.241  1.7135 -0.3867  1.2669
  426MOL0     H57451   8.663   5.195  11.387 -1.6616 -0.2898 -0.5556
  426MOL0     H57452   8.649   5.075  11.255 -2.2367 -0.0081  2.5141
  426MOL0     H57453   8.892   5.238  11.274  0.5216  0.0742  0.5250
  426MOL0     H57454   8.870   5.085  11.364  1.0514 -1.0192 -1.4925
  426MOL0     H57455   8.830   4.964  11.154 -0.4955  0.3464 -3.8128
  426MOL0     H57456   8.847   5.122  11.079 -3.5004 -0.2005  1.0981
  426MOL0     H57457   9.074   5.035  11.053 -0.8025 -0.5493 -0.2970
  426MOL0     H57458   9.085   5.137  11.191  2.5979 -1.3115  0.9530
  426MOL0     H57459   9.048   4.824  11.200  0.6439  1.4186 -1.4150
  426MOL0     H57460   9.047   4.936  11.341 -2.2036  3.1037  0.1520
  426MOL0     H57461   9.299   4.856  11.042  0.9187 -1.5395  0.2768
  426MOL0     H57462   9.626   4.711  11.198 -2.0253 -1.4797  0.0939
  426MOL0     H57463   9.510   4.683  11.075 -0.9560  1.3538 -1.0549
  426MOL0     H57464   9.724   4.886  11.099 -0.0490  0.7511 -0.3598
  426MOL0     H57465   9.582   4.957  11.030 -0.8581 -0.9780 -1.6294
  426MOL0     H57466   9.730   4.708  10.929  1.7233 -0.3509  1.0978
  426MOL0     H57467   9.733   4.862  10.847 -0.6722 -0.1750 -0.3847
  426MOL0     H57468   9.510   4.661  10.864  2.0130  0.1413  4.6031
  426MOL0     H57469   9.585   4.748  10.716  0.2438  2.3390 -0.1880
  426MOL0     H57470   9.316   5.062  10.736  1.1400 -0.1035 -0.0391
  426MOL0     H57471   9.183   5.180  10.560 -1.6239  2.2012  1.2135
  426MOL0     H57472   9.067   5.097  10.468  1.0943  0.0176 -0.7240
  426MOL0     H57473   9.035   5.119  10.641  0.7354 -0.5932  0.4284
  426MOL0     H57474   8.749   4.969  10.319  0.0207 -1.0098 -0.5466
  426MOL0     H57475   8.535   4.910  10.215  0.7791 -1.6285 -1.4938
  426MOL0     H57476   8.349   4.554  10.315  1.2807  1.1571  0.4256
  426MOL0     H57477   8.243   4.634  10.435 -1.0181 -3.7052 -0.3719
  426MOL0     H57478   8.196   4.586  10.148 -1.8473  2.1230 -1.3989
  426MOL0     H57479   8.096   4.565  10.294 -0.0869 -0.6403  0.7072
  426MOL0     H57480   8.006   4.744  10.136 -1.2600  1.6428 -0.3107
  426MOL0     H57481   8.163   4.816  10.128 -1.5560  1.4280 -1.5030
  426MOL0     H57482   7.990   4.799  10.388 -0.9477  0.6140  0.2129
  426MOL0     H57483   8.132   4.882  10.379  0.8467  1.6420 -0.6318
  426MOL0     H57484   8.031   5.025  10.168  0.5138 -0.4620 -0.2200
  426MOL0     H57485   7.988   5.071  10.327  1.0474  1.3947 -1.0291
  426MOL0     H57486   7.819   4.879  10.162  4.0185 -1.1607 -0.3432
  426MOL0     H57487   7.778   4.941  10.324  0.1960 -1.5702  0.0613
  426MOL0     H57488   7.835   5.118  10.084 -1.1181 -0.3338 -0.8650
  426MOL0     H57489   7.802   5.170  10.244  0.7337 -0.7644  0.1915
  426MOL0     H57490   7.620   5.004  10.064  0.8468  1.8281 -2.2981
  426MOL0     H57491   7.588   5.169  10.094 -0.4922  0.0061  1.0594
  426MOL0     H57492   8.460   4.628  10.529 -0.3550 -1.0478 -1.6436
  426MOL0     H57493   8.704   4.683  10.624  1.4667  2.5053  1.0390
  426MOL0     H57494   9.136   4.628  10.556 -0.2688  0.5913 -3.5503
  426MOL0     H57495   9.355   4.647  10.666  0.2010  0.7929 -2.4252
  426MOL0     H57496   8.051   5.266  11.247 -1.9812 -0.2127 -0.0652
  426MOL0     H57497   7.895   5.138  11.118 -0.0552 -0.6964 -1.0248
  426MOL0     H57498   7.886   4.935  10.676  0.1569 -0.1682  0.6480
  426MOL0     H57499   7.772   4.762  10.550  0.2023  1.8228 -1.8670
  426MOL0     H57500   7.363   4.640  10.672  0.9077  1.1350  1.0549
  426MOL0     H57501   7.333   4.748  10.529  0.9652  1.4836 -0.5543
  426MOL0     H57502   7.239   4.523  10.497 -0.4302 -1.6597  0.6042
  426MOL0     H57503   7.392   4.446  10.512 -0.8103  0.3101  0.1742
  426MOL0     H57504   7.486   4.549  10.323  0.9313  1.7726  0.5655
  426MOL0     H57505   7.360   4.660  10.298  2.6689  0.3328 -0.2229
  426MOL0     H57506   7.331   4.363  10.297 -2.4495  0.8791  0.9837
  426MOL0     H57507   7.384   4.448  10.152  0.5363 -1.9103  1.4469
  426MOL0     H57508   6.970   4.529  10.141  0.1364  0.0814 -0.5049
  426MOL0     H57509   7.398   4.858  10.734  0.0277  1.1867  0.5081
  426MOL0     H57510   7.504   5.061  10.840 -1.6776  1.0523 -1.5871
  427MOL0     O57511   3.749   9.774   7.634  0.4719 -0.0147 -0.5353
  427MOL0     C57512   3.782   9.800   7.515 -0.1664  0.0949  0.1659
  427MOL0     O57513   3.694   9.831   7.414 -0.5790 -0.3502 -0.5300
  427MOL0     C57514   3.566   9.878   7.449 -0.4055  0.2961 -0.1202
  427MOL0     C57515   3.541  10.009   7.489  0.8356 -0.1528 -0.5619
  427MOL0     C57516   3.407  10.043   7.514  0.6389 -0.7104  0.8845
  427MOL0     C57517   3.298   9.962   7.487 -0.2305  0.0401  0.1342
  427MOL0     O57518   3.165   9.988   7.516 -0.3455  0.1016 -0.7632
  427MOL0     C57519   3.135  10.119   7.574  0.1694 -0.7368  0.1409
  427MOL0     C57520   3.174  10.122   7.727  0.5157  0.4527 -0.2848
  427MOL0     C57521   3.094  10.024   7.816 -0.0706  0.1979  0.7766
  427MOL0     C57522   3.111  10.060   7.966 -0.7893  0.8748 -1.0875
  427MOL0     C57523   3.064   9.961   8.076 -0.0791  0.1178 -0.5525
  427MOL0     C57524   2.920   9.950   8.086  0.0609  0.3562 -0.0505
  427MOL0     C57525   2.865   9.836   8.179  0.2368 -1.4326 -0.0766
  427MOL0     C57526   2.868   9.697   8.119 -0.8198  0.1977 -0.0695
  427MOL0     N57527   2.744   9.659   8.046 -0.1958  0.3376 -0.1513
  427MOL0     C57528   2.648   9.747   8.012  0.0226 -0.1150 -0.5865
  427MOL0     C57529   2.560   9.685   7.936 -0.1744 -0.1017  0.7524
  427MOL0     C57530   2.434   9.717   7.854  0.7203 -0.0025 -0.6260
  427MOL0     C57531   2.393   9.863   7.853  0.7482  0.0064  0.4571
  427MOL0     C57532   2.502   9.966   7.814  0.4680  0.0202  0.0997
  427MOL0     C57533   2.443  10.078   7.728 -0.0996  0.0414 -0.0688
  427MOL0     O57534   2.350  10.156   7.803 -0.0243 -0.0777  0.0165
  427MOL0     C57535   2.290  10.268   7.740 -0.0648  0.2988 -0.9005
  427MOL0     C57536   2.195  10.342   7.807  0.5159  0.2071 -0.5269
  427MOL0     C57537   2.128  10.449   7.756 -0.1647 -0.5620 -0.6871
  427MOL0     C57538   2.026  10.535   7.836  0.3439  0.6194 -0.1957
  427MOL0     C57539   2.172  10.499   7.630 -0.2333  0.0930  1.3511
  427MOL0     C57540   2.102  10.604   7.553 -0.2254 -0.2395 -0.1193
  427MOL0     O57541   2.160  10.632   7.432  0.4422 -0.1907 -0.3067
  427MOL0     C57542   2.083  10.680   7.331  0.8075 -0.3372  0.0561
  427MOL0     C57543   2.031  10.586   7.243  0.2799 -0.2852 -1.0316
  427MOL0     C57544   1.933  10.625   7.147 -0.4558 -1.4301  0.7868
  427MOL0     C57545   1.898  10.761   7.141  0.6821 -0.0834  0.3188
  427MOL0     O57546   1.811  10.809   7.044  0.1651 -0.6727  0.1442
  427MOL0     C57547   1.782  10.729   6.932  0.2595  0.3365  1.2843
  427MOL0     C57548   1.646  10.774   6.901 -0.0145 -0.6803  0.3555
  427MOL0     C57549   1.588  10.674   6.792  0.5512 -0.1652  0.1808
  427MOL0     C57550   1.475  10.758   6.735  0.6733  0.5531  1.2329
  427MOL0     C57551   1.362  10.675   6.656 -0.0604 -0.1183 -0.3863
  427MOL0     C57552   1.255  10.753   6.595  0.4744 -0.8429 -0.5351
  427MOL0     C57553   1.174  10.818   6.717  0.4966 -1.3448  0.8697
  427MOL0     C57554   1.024  10.829   6.671 -0.4198  0.7365  0.2943
  427MOL0    Cl57555   1.014  10.924   6.524  0.2993 -0.5020  0.0912
  427MOL0     C57556   1.943  10.847   7.242 -0.4618  0.7177 -1.0306
  427MOL0     C57557   2.033  10.809   7.337 -0.8335  0.4219  0.2396
  427MOL0     O57558   1.986  10.641   7.587  0.1109  0.0562 -0.6731
  427MOL0     C57559   2.277  10.431   7.562 -0.6876 -0.3105 -0.4787
  427MOL0     C57560   2.343  10.323   7.620 -0.0483 -0.0833  0.4011
  427MOL0     N57561   2.609   9.552   7.935 -0.3842 -0.5893  1.0284
  427MOL0     N57562   2.702   9.532   8.016 -0.2562 -0.7486  0.9805
  427MOL0     C57563   3.328   9.829   7.447 -0.3162 -0.3773  0.1407
  427MOL0     C57564   3.466   9.791   7.429  0.2494  0.2936 -0.5138
  427MOL0     C57565   3.929   9.775   7.477 -0.1217 -0.3735  0.0417
  427MOL0     C57566   3.968   9.799   7.345 -1.3895 -0.2395  0.4739
  427MOL0     C57567   4.099   9.775   7.297  0.1973  0.4204  0.7742
  427MOL0     C57568   4.195   9.731   7.384  0.3063 -1.2886 -0.1413
  427MOL0     O57569   4.328   9.713   7.356 -1.0863 -0.2795  0.4113
  427MOL0     C57570   4.386   9.723   7.224  0.6992  0.1178  0.2104
  427MOL0     C57571   4.539   9.697   7.231 -0.0305  0.0841  0.3626
  427MOL0     C57572   4.589   9.575   7.303 -0.0418  0.4115  0.2469
  427MOL0     C57573   4.729   9.593   7.362 -0.5762  0.2792 -0.6087
  427MOL0     C57574   4.837   9.616   7.272  0.2438 -0.3521 -0.9088
  427MOL0     C57575   4.921   9.624   7.185 -0.0903 -0.1476  0.0238
  427MOL0     C57576   4.157   9.712   7.516 -0.6659  0.3433 -0.0331
  427MOL0     C57577   4.031   9.738   7.567 -0.6518 -0.4993  0.0785
  427MOL0     H57578   3.614  10.088   7.506 -2.0385  2.5003  0.3022
  427MOL0     H57579   3.396  10.143   7.555 -2.5259 -0.0828 -1.0897
  427MOL0     H57580   3.185  10.200   7.521 -2.0907  0.2109 -0.6692
  427MOL0     H57581   3.028  10.131   7.554 -0.1820 -1.5213  1.4487
  427MOL0     H57582   3.282  10.105   7.731  0.5562  0.3924 -1.3510
  427MOL0     H57583   3.152  10.225   7.757  1.9420  0.8997 -0.6615
  427MOL0     H57584   2.990  10.020   7.781  0.8318 -0.8428 -2.1056
  427MOL0     H57585   3.138   9.926   7.794  1.1081  0.8074  0.3382
  427MOL0     H57586   3.220  10.071   7.973 -0.5305  0.4230 -3.5624
  427MOL0     H57587   3.080  10.161   7.991  0.8929  1.9907 -3.1792
  427MOL0     H57588   3.099   9.860   8.053  0.3920 -0.4172  2.1580
  427MOL0     H57589   3.107   9.983   8.174 -0.5239 -0.8288 -0.1394
  427MOL0     H57590   2.882  10.045   8.125  0.3965  0.6542 -0.4286
  427MOL0     H57591   2.873   9.951   7.987  1.6448 -0.2742 -0.8515
  427MOL0     H57592   2.929   9.832   8.267  0.6779 -1.5158 -0.3963
  427MOL0     H57593   2.768   9.859   8.224 -0.2234 -0.8686 -1.2926
  427MOL0     H57594   2.875   9.617   8.193  0.9470  1.2890  0.9998
  427MOL0     H57595   2.953   9.689   8.052 -1.6511  3.8808 -1.7848
  427MOL0     H57596   2.641   9.848   8.051  1.5394 -0.5762  1.0225
  427MOL0     H57597   2.454   9.676   7.754 -4.7638 -1.1250 -1.5772
  427MOL0     H57598   2.343   9.666   7.884 -0.5213  1.5404 -1.6101
  427MOL0     H57599   2.370   9.887   7.957 -1.2087 -0.7481  0.2397
  427MOL0     H57600   2.300   9.880   7.799  1.0100  1.2136  0.3552
  427MOL0     H57601   2.582   9.910   7.764  1.0523 -1.1266  2.1816
  427MOL0     H57602   2.552  10.014   7.898  0.3254  0.3827 -0.0210
  427MOL0     H57603   2.412  10.032   7.633 -1.0415  0.6975 -0.0864
  427MOL0     H57604   2.523  10.145   7.695 -2.0167  3.4016  1.6070
  427MOL0     H57605   2.176  10.311   7.909  0.6197  0.4966 -0.4210
  427MOL0     H57606   1.920  10.521   7.814  0.1742 -0.8963  1.3831
  427MOL0     H57607   2.051  10.510   7.939  0.3647  2.7667  0.3648
  427MOL0     H57608   2.046  10.642   7.828 -2.9816  1.2781 -0.8574
  427MOL0     H57609   2.061  10.483   7.259 -0.9750 -0.1574  3.5777
  427MOL0     H57610   1.885  10.546   7.090 -1.9546 -0.1037  0.1222
  427MOL0     H57611   1.844  10.750   6.845  0.4056 -4.8510 -0.2323
  427MOL0     H57612   1.774  10.621   6.952 -2.3687  0.0422 -0.8674
  427MOL0     H57613   1.585  10.764   6.992  0.9882 -0.9696  1.0138
  427MOL0     H57614   1.650  10.875   6.861  1.2833 -1.1217 -0.6946
  427MOL0     H57615   1.549  10.584   6.842 -2.5863 -0.5768 -2.6963
  427MOL0     H57616   1.656  10.632   6.717 -1.1604 -0.5205 -1.2179
  427MOL0     H57617   1.418  10.812   6.811 -3.6409  3.1582 -3.2112
  427MOL0     H57618   1.513  10.834   6.666 -0.8976  2.0550  1.9531
  427MOL0     H57619   1.323  10.599   6.724  1.9403  0.1274  1.1602
  427MOL0     H57620   1.403  10.622   6.570  1.7720 -0.7143  0.7945
  427MOL0     H57621   1.294  10.833   6.531  1.0273  0.9433  1.8785
  427MOL0     H57622   1.184  10.698   6.533 -0.0915  0.1442 -0.7903
  427MOL0     H57623   1.215  10.917   6.739  1.0392 -1.0855 -1.1396
  427MOL0     H57624   1.176  10.756   6.808  1.6524 -3.5702 -0.5766
  427MOL0     H57625   0.964  10.865   6.755 -0.1479  2.7138 -0.3020
  427MOL0     H57626   0.986  10.729   6.651  1.1465  0.4173 -1.3530
  427MOL0     H57627   1.910  10.949   7.255  0.5811  0.8872  0.6916
  427MOL0     H57628   2.065  10.879   7.414  1.2238  0.5869 -0.6923
  427MOL0     H57629   2.332  10.469   7.476  3.1362  2.5438  2.8042
  427MOL0     H57630   2.417  10.276   7.556 -2.9181  0.2753 -3.6183
  427MOL0     H57631   3.254   9.757   7.413  0.8080 -1.0181 -1.0321
  427MOL0     H57632   3.483   9.689   7.395 -1.6207 -0.1653 -0.1543
  427MOL0     H57633   3.900   9.839   7.271 -0.3617  2.1021  0.7055
  427MOL0     H57634   4.118   9.788   7.191 -0.7782 -0.3745  0.4891
  427MOL0     H57635   4.355   9.643   7.156  0.0112  1.6744 -1.3773
  427MOL0     H57636   4.360   9.817   7.175 -0.1455 -0.6301 -0.8211
  427MOL0     H57637   4.576   9.784   7.287 -2.9655  3.0326 -1.8714
  427MOL0     H57638   4.585   9.698   7.131  2.5449 -1.5696  1.4262
  427MOL0     H57639   4.580   9.482   7.247 -1.5071  0.5831  0.1674
  427MOL0     H57640   4.514   9.555   7.381 -1.6245 -2.5936 -1.8643
  427MOL0     H57641   4.758   9.512   7.429  0.1353  2.3855  1.8272
  427MOL0     H57642   4.720   9.684   7.423 -2.2829  2.5201 -3.9024
  427MOL0     H57643   4.994   9.622   7.107  0.3025  0.5141  0.3620
  427MOL0     H57644   4.237   9.693   7.587  1.1646 -1.9019 -2.5077
  427MOL0     H57645   4.008   9.718   7.672  1.2522 -0.9883  0.4400
  428MOL0     O57646   3.958  10.342   6.130  0.0619 -0.3278  0.4634
  428MOL0     C57647   4.038  10.250   6.120 -0.2157  0.0067 -0.1304
  428MOL0     O57648   4.014  10.126   6.068 -0.2548 -0.1329  0.0372
  428MOL0     C57649   3.889  10.103   6.039 -0.2491 -1.1273 -0.3705
  428MOL0     C57650   3.839  10.137   5.913 -0.0316 -0.1241 -0.5232
  428MOL0     C57651   3.698  10.125   5.886 -0.3394  1.0741  0.4386
  428MOL0     C57652   3.620  10.055   5.978  0.9511 -0.6496  0.2497
  428MOL0     O57653   3.488  10.036   5.936  0.0022 -0.2851 -0.0417
  428MOL0     C57654   3.454   9.914   5.882 -0.0608  0.0410  0.4478
  428MOL0     C57655   3.317   9.914   5.819  0.0644  0.0601  0.7492
  428MOL0     C57656   3.309  10.011   5.699 -0.3319  0.6611 -0.2784
  428MOL0     C57657   3.189  10.018   5.620 -0.3143 -0.2601 -0.4556
  428MOL0     C57658   3.163   9.883   5.554 -0.0325 -0.5282 -0.5603
  428MOL0     C57659   3.069   9.912   5.438 -0.2476 -0.6549 -0.0693
  428MOL0     C57660   3.062   9.795   5.338  1.1848 -0.5053  0.3541
  428MOL0     C57661   3.018   9.666   5.401 -1.2575 -0.0915  0.6124
  428MOL0     N57662   2.884   9.674   5.449  0.4960 -0.0126 -0.2519
  428MOL0     C57663   2.778   9.711   5.368 -0.2554  0.1006  0.3628
  428MOL0     C57664   2.674   9.722   5.450 -0.2485 -0.5915 -0.1416
  428MOL0     C57665   2.530   9.762   5.413 -0.6197  0.1818  0.3331
  428MOL0     C57666   2.450   9.643   5.359 -0.1732  0.5958 -0.2582
  428MOL0     C57667   2.356   9.589   5.469 -0.0232  1.2254  0.5265
  428MOL0     C57668   2.242   9.507   5.407  0.4251 -0.3274  0.7556
  428MOL0     O57669   2.151   9.471   5.514  0.4821  0.3194  0.3238
  428MOL0     C57670   2.040   9.395   5.476 -0.4442 -0.5014  0.3286
  428MOL0     C57671   1.941   9.383   5.576 -0.3563 -0.2443  0.3378
  428MOL0     C57672   1.824   9.319   5.564 -0.2381  0.7062 -0.5269
  428MOL0     C57673   1.748   9.302   5.691 -0.5029  0.2873  0.3625
  428MOL0     C57674   1.795   9.257   5.438 -0.8750  1.1086 -0.5796
  428MOL0     C57675   1.665   9.183   5.415  0.3125 -0.2003  0.0499
  428MOL0     O57676   1.675   9.087   5.318 -0.0134  0.0520 -0.2868
  428MOL0     C57677   1.559   9.017   5.285 -0.9217 -0.0145  0.7060
  428MOL0     C57678   1.521   9.012   5.147  1.0460 -0.2247 -0.0795
  428MOL0     C57679   1.412   8.938   5.107  1.1768 -0.2447  0.1508
  428MOL0     C57680   1.345   8.852   5.182  1.0018 -0.3187 -0.6371
  428MOL0     O57681   1.224   8.796   5.133  0.0681 -0.2407  0.1012
  428MOL0     C57682   1.143   8.746   5.237 -0.3326  0.0211  0.7973
  428MOL0     C57683   1.008   8.713   5.178 -0.6251  0.2052  0.1220
  428MOL0     C57684   0.913   8.637   5.274 -0.8085  0.2813  0.5534
  428MOL0     C57685   0.771   8.652   5.219 -0.0443  0.0813 -0.5608
  428MOL0     C57686   0.664   8.592   5.317  0.3390 -0.5152 -0.9505
  428MOL0     C57687   0.521   8.587   5.257  0.5242 -0.4284  0.3959
  428MOL0     C57688   0.403   8.551   5.357 -0.3514 -0.2554  1.2824
  428MOL0     C57689   0.416   8.414   5.419  0.0567 -0.7659 -1.1717
  428MOL0    Cl57690   0.389   8.299   5.281  0.2258  0.4694 -0.2640
  428MOL0     C57691   1.385   8.849   5.317 -1.4993 -0.7401 -0.2428
  428MOL0     C57692   1.490   8.927   5.372  0.2373 -0.2871 -0.3200
  428MOL0     O57693   1.559   9.213   5.468  0.3734  0.2450  0.0379
  428MOL0     C57694   1.878   9.273   5.328  0.0332  0.3191 -0.1032
  428MOL0     C57695   2.003   9.347   5.349  0.6665  0.1672 -0.1348
  428MOL0     N57696   2.714   9.696   5.583  0.5990  0.0379  0.3987
  428MOL0     N57697   2.843   9.665   5.578  1.1955  0.9583 -0.0666
  428MOL0     C57698   3.681  10.004   6.099 -0.1477 -0.3927  0.2535
  428MOL0     C57699   3.811  10.034   6.126 -0.1857 -0.1630  0.0792
  428MOL0     C57700   4.162  10.283   6.180 -0.6597  0.0577 -0.6106
  428MOL0     C57701   4.277  10.196   6.182  0.1263  0.0746  0.3300
  428MOL0     C57702   4.403  10.233   6.226 -0.2741 -0.7448  0.2263
  428MOL0     C57703   4.426  10.359   6.273  0.0566 -0.3938 -0.8802
  428MOL0     O57704   4.554  10.395   6.308  0.8814  0.3454  0.3539
  428MOL0     C57705   4.568  10.540   6.343  0.1329  0.6755  0.1703
  428MOL0     C57706   4.707  10.582   6.335 -0.2999  0.7875  0.4406
  428MOL0     C57707   4.799  10.522   6.451  0.2549  0.1890 -0.0682
  428MOL0     C57708   4.949  10.565   6.432  0.6247  0.5294  0.6819
  428MOL0     C57709   4.996  10.482   6.323  0.1908  0.0031  0.3525
  428MOL0     C57710   5.043  10.411   6.234  0.8853  0.0981  0.9012
  428MOL0     C57711   4.316  10.445   6.284 -0.0130 -0.4588 -0.5788
  428MOL0     C57712   4.192  10.415   6.224 -0.2456 -0.8114  0.0992
  428MOL0     H57713   3.902  10.190   5.842 -1.9294  0.6777 -1.6701
  428MOL0     H57714   3.654  10.158   5.793  3.0203  2.8519 -0.6536
  428MOL0     H57715   3.524   9.892   5.801 -1.5876  1.1148 -1.2470
  428MOL0     H57716   3.466   9.844   5.965 -2.2440  1.7961  2.3761
  428MOL0     H57717   3.306   9.811   5.783  2.2602  0.1673 -0.4205
  428MOL0     H57718   3.237   9.933   5.891 -0.1981  0.5815  0.3307
  428MOL0     H57719   3.317  10.112   5.740 -2.3028  1.2238 -1.1272
  428MOL0     H57720   3.401   9.995   5.642  0.7472  0.9808  1.3069
  428MOL0     H57721   3.103  10.042   5.683  2.9703  0.9024  4.1327
  428MOL0     H57722   3.203  10.101   5.550  1.5173  1.8419  2.1985
  428MOL0     H57723   3.258   9.841   5.521 -0.5658 -0.4759 -2.2527
  428MOL0     H57724   3.127   9.814   5.632  1.5208 -1.4471 -0.6181
  428MOL0     H57725   2.974   9.950   5.476  1.7016  2.4917  2.2972
  428MOL0     H57726   3.121   9.993   5.385 -0.5185 -0.5756 -0.2125
  428MOL0     H57727   2.992   9.817   5.257  0.1011 -1.2357  1.0681
  428MOL0     H57728   3.161   9.781   5.293  1.2184 -2.0643  0.8643
  428MOL0     H57729   3.093   9.640   5.477  0.4097 -0.7723 -1.2004
  428MOL0     H57730   3.009   9.598   5.317  1.3525  0.5471 -0.2942
  428MOL0     H57731   2.770   9.724   5.260 -1.7425 -1.0412  0.3032
  428MOL0     H57732   2.481   9.807   5.500  0.6046  0.0109  1.1496
  428MOL0     H57733   2.532   9.836   5.333  0.8074 -0.3093 -0.1123
  428MOL0     H57734   2.518   9.561   5.333 -2.1462 -0.9979 -0.6776
  428MOL0     H57735   2.392   9.671   5.271  0.8090 -1.5731 -1.6983
  428MOL0     H57736   2.304   9.674   5.514 -1.4212  0.8173 -0.2564
  428MOL0     H57737   2.415   9.528   5.538  0.4430  0.4487 -0.5368
  428MOL0     H57738   2.277   9.414   5.362 -0.1501 -1.7047  3.0047
  428MOL0     H57739   2.194   9.577   5.338  1.5914  0.9698  1.2171
  428MOL0     H57740   1.962   9.442   5.665  0.9534 -0.6922  0.3415
  428MOL0     H57741   1.770   9.198   5.715  2.5374  1.1844  2.0326
  428MOL0     H57742   1.788   9.371   5.766 -1.1592  1.4874 -0.3499
  428MOL0     H57743   1.642   9.325   5.680 -0.7304 -0.8136  0.2277
  428MOL0     H57744   1.571   9.084   5.083  0.4895  0.1313 -0.1147
  428MOL0     H57745   1.363   8.948   5.011 -0.8202  1.4544  1.2559
  428MOL0     H57746   1.200   8.659   5.273 -3.0509 -1.5658  1.5493
  428MOL0     H57747   1.126   8.819   5.316 -1.3786  0.3988  0.2427
  428MOL0     H57748   0.964   8.811   5.155  0.0508  0.4333 -0.2067
  428MOL0     H57749   1.009   8.658   5.084 -1.7863  3.5877 -2.0460
  428MOL0     H57750   0.912   8.693   5.368 -1.5536 -1.1904  1.4595
  428MOL0     H57751   0.951   8.536   5.289  4.2517  1.6191 -1.2790
  428MOL0     H57752   0.753   8.760   5.210  2.7289  0.5756 -1.2097
  428MOL0     H57753   0.759   8.603   5.122 -3.5387  1.8496 -1.1838
  428MOL0     H57754   0.674   8.660   5.402  2.3759 -1.9422  0.0451
  428MOL0     H57755   0.689   8.487   5.338  0.0534 -0.4407 -0.2077
  428MOL0     H57756   0.502   8.691   5.231  1.4550 -0.7468 -1.8562
  428MOL0     H57757   0.526   8.529   5.164  0.4223 -1.0229  0.7508
  428MOL0     H57758   0.308   8.570   5.308  1.3748  3.1983 -1.1785
  428MOL0     H57759   0.415   8.617   5.444  1.9458 -1.4328  1.9577
  428MOL0     H57760   0.345   8.411   5.502 -0.4247  4.5287 -1.0524
  428MOL0     H57761   0.518   8.395   5.454 -1.5639 -4.5607  2.4025
  428MOL0     H57762   1.353   8.784   5.399  0.5595 -0.6368  0.6907
  428MOL0     H57763   1.522   8.931   5.475  0.6965  0.8251 -0.4971
  428MOL0     H57764   1.847   9.241   5.229  1.5227  0.0502 -0.5080
  428MOL0     H57765   2.060   9.369   5.259  2.1866  1.2322  1.0354
  428MOL0     H57766   3.615   9.949   6.165 -3.1494  2.5810 -0.0170
  428MOL0     H57767   3.868   9.988   6.207  1.5393 -2.5339 -2.3160
  428MOL0     H57768   4.269  10.097   6.140 -0.5413  0.2102  0.1206
  428MOL0     H57769   4.482  10.160   6.216 -0.3022 -0.6515 -0.7331
  428MOL0     H57770   4.515  10.601   6.269 -2.0205 -1.5514 -0.2910
  428MOL0     H57771   4.523  10.550   6.442  0.5845 -2.5716  0.8297
  428MOL0     H57772   4.718  10.690   6.323 -1.7457  0.8902 -0.0615
  428MOL0     H57773   4.742  10.543   6.239 -2.5757  0.3629 -0.2613
  428MOL0     H57774   4.787  10.413   6.452 -1.0541  0.3227  0.4300
  428MOL0     H57775   4.767  10.560   6.549  3.4764 -0.3535  1.3443
  428MOL0     H57776   5.007  10.551   6.524 -1.1583 -1.1494  1.6390
  428MOL0     H57777   4.949  10.671   6.408  3.0868  0.1426 -1.4816
  428MOL0     H57778   5.088  10.363   6.149  1.6323  2.0329  0.1493
  428MOL0     H57779   4.326  10.549   6.314  2.1338 -0.1172 -2.2978
  428MOL0     H57780   4.119  10.493   6.207  1.8856  1.2974  0.0255
  429MOL0     O57781   2.503   6.799   6.047 -0.0884  0.2368 -0.5087
  429MOL0     C57782   2.594   6.724   6.075  0.1747 -0.5849 -0.2073
  429MOL0     O57783   2.598   6.594   6.067  0.4635  0.9646 -0.1967
  429MOL0     C57784   2.479   6.524   6.053 -0.6022 -0.3996  0.6519
  429MOL0     C57785   2.479   6.414   5.967 -0.0716  0.0920  0.5602
  429MOL0     C57786   2.368   6.336   5.935  0.0767  0.9335  0.7710
  429MOL0     C57787   2.254   6.358   6.014 -0.4247 -1.4005 -1.9491
  429MOL0     O57788   2.144   6.284   6.014  0.2517  0.8613 -0.2673
  429MOL0     C57789   2.127   6.182   5.917  0.0070  0.5059  0.1493
  429MOL0     C57790   1.993   6.119   5.933  1.1554 -0.1802 -0.3275
  429MOL0     C57791   1.973   6.017   5.824  0.8144  0.1798  0.2875
  429MOL0     C57792   1.893   5.895   5.865 -0.6633  0.5844 -0.4965
  429MOL0     C57793   1.879   5.786   5.757  0.0531 -0.5775 -0.1621
  429MOL0     C57794   1.814   5.827   5.626  0.0697 -0.1775 -0.0863
  429MOL0     C57795   1.797   5.713   5.527  0.9345  0.2764 -0.4541
  429MOL0     C57796   1.705   5.758   5.410  0.1410 -0.0684  0.7254
  429MOL0     N57797   1.562   5.765   5.456  0.9211 -0.6996  0.1593
  429MOL0     C57798   1.489   5.668   5.524  0.4931  0.6619 -0.9371
  429MOL0     C57799   1.358   5.708   5.506  0.5256 -0.1448  0.3041
  429MOL0     C57800   1.244   5.634   5.556  0.6835  0.3876 -0.3318
  429MOL0     C57801   1.176   5.723   5.659  0.2449  1.0139  0.8541
  429MOL0     C57802   1.040   5.763   5.595  0.7368  0.3954  0.1368
  429MOL0     C57803   0.948   5.850   5.690  0.4445 -0.1425  0.5411
  429MOL0     O57804   0.845   5.922   5.614  0.4555  0.3017  0.4282
  429MOL0     C57805   0.722   5.865   5.627  0.3107 -0.2499  0.7496
  429MOL0     C57806   0.695   5.726   5.620 -0.2215 -0.0831 -0.8322
  429MOL0     C57807   0.560   5.681   5.636 -0.0605 -0.2940 -0.7488
  429MOL0     C57808   0.548   5.530   5.619  0.8037 -0.2938 -1.1207
  429MOL0     C57809   0.451   5.767   5.663 -0.6456 -0.5362 -0.5598
  429MOL0     C57810   0.312   5.713   5.681  0.6556  0.5206  0.2685
  429MOL0     O57811   0.217   5.815   5.698 -0.3560  0.1431 -0.1155
  429MOL0     C57812   0.085   5.789   5.712  0.1723 -0.3096 -0.6582
  429MOL0     C57813   0.004   5.735   5.612 -0.6541  0.9795 -0.8436
  429MOL0     C57814  -0.129   5.714   5.645 -1.2139 -0.6398  0.4715
  429MOL0     C57815  -0.184   5.747   5.774 -0.4645 -1.0311 -0.8342
  429MOL0     O57816  -0.322   5.738   5.779  0.4243  0.2644  0.4357
  429MOL0     C57817  -0.394   5.798   5.888  0.6672 -0.0801  0.0118
  429MOL0     C57818  -0.543   5.750   5.884 -0.0589  0.0884 -0.5530
  429MOL0     C57819  -0.624   5.830   5.983 -0.0329 -0.1808 -0.8626
  429MOL0     C57820  -0.758   5.778   6.024 -0.1941 -0.4039 -0.5503
  429MOL0     C57821  -0.839   5.887   6.104  0.2043  0.2669  1.0140
  429MOL0     C57822  -0.987   5.844   6.124 -0.5895 -0.6136  0.3902
  429MOL0     C57823  -1.068   5.947   6.216 -0.5192  0.5277 -0.1345
  429MOL0     C57824  -1.139   6.052   6.138  0.1373 -0.4606  0.9164
  429MOL0    Cl57825  -1.226   6.158   6.262 -0.0597  0.2037  0.1238
  429MOL0     C57826  -0.100   5.807   5.872 -0.0890 -0.6713 -0.6961
  429MOL0     C57827   0.031   5.823   5.843 -0.2715  0.1772 -0.3052
  429MOL0     O57828   0.281   5.593   5.687  0.3010  0.5606  0.6107
  429MOL0     C57829   0.484   5.905   5.682 -0.4421 -0.3446 -0.6663
  429MOL0     C57830   0.615   5.948   5.661 -0.2404 -0.0846  0.0227
  429MOL0     N57831   1.358   5.822   5.422 -0.3787  0.0418 -1.0242
  429MOL0     N57832   1.478   5.850   5.394 -0.2271  0.6744 -0.6750
  429MOL0     C57833   2.246   6.473   6.103 -0.0617  0.0799 -0.3825
  429MOL0     C57834   2.361   6.557   6.123  0.3576 -0.4227 -0.4828
  429MOL0     C57835   2.720   6.790   6.114  0.3301  0.2680  0.4634
  429MOL0     C57836   2.743   6.922   6.085  0.2003  0.0527 -0.4317
  429MOL0     C57837   2.868   6.981   6.109  0.4137  0.7914 -0.5742
  429MOL0     C57838   2.972   6.910   6.174  0.6786 -0.6246 -0.4578
  429MOL0     O57839   3.092   6.978   6.187  0.3262  0.8958 -0.4282
  429MOL0     C57840   3.206   6.903   6.228 -0.0109  0.5057  0.7510
  429MOL0     C57841   3.328   6.987   6.226 -0.5884 -0.5479  0.1653
  429MOL0     C57842   3.386   7.025   6.086 -0.3567 -0.0406  0.0841
  429MOL0     C57843   3.515   7.097   6.096  0.6931 -0.0240  0.3951
  429MOL0     C57844   3.617   7.018   6.165 -0.7012 -0.1826 -0.3351
  429MOL0     C57845   3.712   6.977   6.234 -0.0050  0.4572 -0.6624
  429MOL0     C57846   2.958   6.779   6.190  0.3298  0.5195  1.1229
  429MOL0     C57847   2.833   6.719   6.157 -0.0591 -0.0942 -0.5594
  429MOL0     H57848   2.568   6.374   5.919 -0.2722 -0.3255  0.5345
  429MOL0     H57849   2.384   6.255   5.865  0.2547 -0.9935  2.9261
  429MOL0     H57850   2.141   6.216   5.814  3.3365 -1.3549 -0.1724
  429MOL0     H57851   2.208   6.108   5.919  1.4148  1.9602 -0.7933
  429MOL0     H57852   1.988   6.076   6.034  0.2445  0.4351 -0.0972
  429MOL0     H57853   1.914   6.194   5.926  0.5062 -0.7284  0.7397
  429MOL0     H57854   1.921   6.067   5.742  1.8105  0.7043 -0.0407
  429MOL0     H57855   2.058   5.979   5.768 -2.2538 -1.1202 -3.9762
  429MOL0     H57856   1.938   5.844   5.950 -2.0854 -3.1071 -1.7462
  429MOL0     H57857   1.795   5.925   5.902 -0.6652  0.4665 -0.4036
  429MOL0     H57858   1.978   5.744   5.736 -0.0513 -0.5220 -0.7806
  429MOL0     H57859   1.816   5.704   5.793 -0.5059 -0.2579 -0.4062
  429MOL0     H57860   1.717   5.871   5.649  0.0125 -0.8667  1.0360
  429MOL0     H57861   1.863   5.908   5.571 -1.7625  1.1152  0.0910
  429MOL0     H57862   1.901   5.691   5.502  0.7587 -0.1810 -0.7979
  429MOL0     H57863   1.758   5.621   5.570 -0.8251  0.9490 -0.5366
  429MOL0     H57864   1.703   5.686   5.327 -0.2951  0.8352 -0.0657
  429MOL0     H57865   1.747   5.848   5.366 -4.3308  0.4769 -3.2601
  429MOL0     H57866   1.519   5.583   5.585 -0.9417  0.6066 -0.2738
  429MOL0     H57867   1.167   5.600   5.486 -1.0826  0.0462  1.6728
  429MOL0     H57868   1.280   5.550   5.616 -1.9286 -1.1743 -0.8097
  429MOL0     H57869   1.229   5.812   5.692 -0.0855  1.0913  1.1820
  429MOL0     H57870   1.160   5.658   5.746  0.8196 -1.1716 -0.5768
  429MOL0     H57871   0.988   5.670   5.572 -2.8039  1.2897  3.5142
  429MOL0     H57872   1.064   5.821   5.505 -1.6110 -1.6864 -1.9744
  429MOL0     H57873   1.011   5.921   5.744 -0.7656  0.0525  1.7622
  429MOL0     H57874   0.897   5.786   5.762  2.6125 -0.2244  2.1026
  429MOL0     H57875   0.774   5.652   5.620 -0.8284 -0.9585  3.1028
  429MOL0     H57876   0.475   5.514   5.539  1.0017 -1.5265 -1.0753
  429MOL0     H57877   0.639   5.478   5.589 -0.3147 -1.4728 -2.6052
  429MOL0     H57878   0.511   5.480   5.709 -1.8434  2.9435 -0.1988
  429MOL0     H57879   0.053   5.704   5.521 -1.9248 -1.8440 -0.6630
  429MOL0     H57880  -0.191   5.658   5.575  0.4514 -0.3188 -1.3550
  429MOL0     H57881  -0.353   5.775   5.987  0.2640  0.3100  0.2719
  429MOL0     H57882  -0.399   5.906   5.870  1.7047 -0.1502 -0.7791
  429MOL0     H57883  -0.577   5.769   5.782  1.0464  0.2073 -0.9111
  429MOL0     H57884  -0.547   5.644   5.913 -0.3123  0.5581  1.2859
  429MOL0     H57885  -0.646   5.925   5.934  0.1193  0.7956  0.8752
  429MOL0     H57886  -0.572   5.841   6.078 -0.9834  0.5277 -0.4072
  429MOL0     H57887  -0.809   5.740   5.935 -0.6604 -1.9880  0.3411
  429MOL0     H57888  -0.732   5.691   6.086  0.0145  0.4652  0.6019
  429MOL0     H57889  -0.835   5.973   6.037  1.2190 -0.4467  0.1280
  429MOL0     H57890  -0.789   5.897   6.201  2.4103 -1.6893  0.1610
  429MOL0     H57891  -1.043   5.831   6.031 -2.0172 -0.1509  1.1458
  429MOL0     H57892  -0.986   5.753   6.185 -2.1674 -0.9101  0.0089
  429MOL0     H57893  -0.997   6.005   6.276  4.0142  0.2488 -4.5805
  429MOL0     H57894  -1.135   5.890   6.280 -1.6341  2.0159  0.0909
  429MOL0     H57895  -1.201   6.001   6.063  2.3028 -1.6741 -0.1362
  429MOL0     H57896  -1.063   6.105   6.079 -2.3732 -0.9920 -3.2474
  429MOL0     H57897  -0.151   5.830   5.965 -1.9702 -1.5180 -1.4523
  429MOL0     H57898   0.109   5.856   5.911  0.3221 -0.7751 -0.4995
  429MOL0     H57899   0.409   5.972   5.720  1.4999  2.6336 -1.7246
  429MOL0     H57900   0.644   6.050   5.686  0.5400 -0.6374  1.4646
  429MOL0     H57901   2.158   6.505   6.159 -0.6889 -2.5081  0.2684
  429MOL0     H57902   2.355   6.637   6.196  0.7393 -2.3259  1.7819
  429MOL0     H57903   2.669   6.985   6.037 -0.6420 -0.3029  0.3643
  429MOL0     H57904   2.871   7.089   6.094 -2.5186  1.0295  0.0109
  429MOL0     H57905   3.176   6.885   6.332 -2.5019  1.6462  0.3070
  429MOL0     H57906   3.215   6.811   6.170 -0.3194  1.0340 -0.1554
  429MOL0     H57907   3.399   6.936   6.291 -3.7242 -3.3278  1.6681
  429MOL0     H57908   3.304   7.081   6.276  1.4514  1.2874 -1.9979
  429MOL0     H57909   3.311   7.085   6.035  0.3666 -0.7571 -1.8942
  429MOL0     H57910   3.396   6.932   6.029 -0.6291 -0.8039  1.2409
  429MOL0     H57911   3.494   7.185   6.157 -1.4343 -0.4234  0.2873
  429MOL0     H57912   3.555   7.113   5.995  1.6556  0.6868  0.8696
  429MOL0     H57913   3.791   6.937   6.294 -2.2318 -0.7446  1.6512
  429MOL0     H57914   3.037   6.721   6.235  1.7743  0.9079 -0.7537
  429MOL0     H57915   2.822   6.612   6.177 -2.5108  0.3981  1.1883
  430MOL0     O57916   5.533   0.461   1.247  0.5918 -0.5655  0.1801
  430MOL0     C57917   5.515   0.377   1.162 -0.9624  0.8230  0.0902
  430MOL0     O57918   5.402   0.311   1.124 -0.0530  0.1237  0.2266
  430MOL0     C57919   5.285   0.355   1.181 -0.0608 -0.7959 -0.4161
  430MOL0     C57920   5.237   0.484   1.176 -0.4001 -0.3741 -0.5645
  430MOL0     C57921   5.116   0.519   1.242 -0.5580 -0.0807  0.1581
  430MOL0     C57922   5.051   0.424   1.319 -0.2661 -0.6338 -0.0225
  430MOL0     O57923   4.927   0.435   1.373  0.6957  0.1788 -0.3412
  430MOL0     C57924   4.893   0.564   1.421 -0.4814 -0.6482  0.7051
  430MOL0     C57925   4.779   0.567   1.523  0.1988  0.7135  0.5679
  430MOL0     C57926   4.644   0.587   1.454 -0.6910 -0.3579 -0.4779
  430MOL0     C57927   4.599   0.475   1.364 -0.2740 -0.7018 -0.3851
  430MOL0     C57928   4.446   0.487   1.333 -0.2856 -0.0352 -1.3669
  430MOL0     C57929   4.375   0.369   1.262  0.1685  0.6443 -0.4898
  430MOL0     C57930   4.219   0.390   1.276  0.2197  0.4379  0.0548
  430MOL0     C57931   4.144   0.298   1.180  0.5207  0.0858 -0.1624
  430MOL0     N57932   3.998   0.308   1.205  0.1457 -0.7035 -0.1960
  430MOL0     C57933   3.927   0.420   1.189 -0.1601  0.0004 -0.1916
  430MOL0     C57934   3.802   0.387   1.232 -0.1576 -1.0146  0.9899
  430MOL0     C57935   3.690   0.489   1.195 -0.2884  0.3444  0.0873
  430MOL0     C57936   3.557   0.445   1.257  0.3554  0.3357 -1.6326
  430MOL0     C57937   3.474   0.361   1.170 -0.1927 -0.3230  0.2480
  430MOL0     C57938   3.350   0.313   1.243 -0.1869  0.2198 -1.0756
  430MOL0     O57939   3.257   0.420   1.260  0.6157 -0.7961  0.1174
  430MOL0     C57940   3.136   0.389   1.303 -0.2753  0.0510 -0.1656
  430MOL0     C57941   3.081   0.262   1.320 -0.5464  0.0680  0.1501
  430MOL0     C57942   2.953   0.245   1.370  0.0162  0.4593  0.7579
  430MOL0     C57943   2.914   0.099   1.390  0.3682  0.1356  0.2131
  430MOL0     C57944   2.863   0.352   1.384  0.3599 -0.6230  0.8911
  430MOL0     C57945   2.726   0.339   1.433  0.0600 -0.3267  0.8216
  430MOL0     O57946   2.642   0.446   1.402  0.3977  0.9367  0.0456
  430MOL0     C57947   2.513   0.407   1.416 -0.4112 -0.7174 -0.3278
  430MOL0     C57948   2.459   0.310   1.346 -0.5078 -0.1803  0.5136
  430MOL0     C57949   2.325   0.276   1.355 -1.0890 -0.1754 -0.9897
  430MOL0     C57950   2.235   0.351   1.441 -0.4128  0.4078 -0.2935
  430MOL0     O57951   2.108   0.315   1.472  0.0444 -0.0250  0.1466
  430MOL0     C57952   2.010   0.301   1.357 -0.5314  0.4929 -0.1794
  430MOL0     C57953   1.876   0.245   1.417 -0.3184 -0.8490  0.5293
  430MOL0     C57954   1.775   0.226   1.307 -0.1728  0.6951 -0.3328
  430MOL0     C57955   1.636   0.195   1.366  0.0688 -0.0802  0.0739
  430MOL0     C57956   1.525   0.213   1.260  0.3223  0.7123  0.8803
  430MOL0     C57957   1.380   0.199   1.302  0.1352  0.3135 -0.4253
  430MOL0     C57958   1.347   0.295   1.421 -0.4511 -0.1600  0.1762
  430MOL0     C57959   1.203   0.337   1.404 -0.3560 -0.4238 -0.6686
  430MOL0    Cl57960   1.173   0.432   1.252  0.1853 -0.0315  0.4935
  430MOL0     C57961   2.300   0.453   1.511  0.3589  0.5587  0.1667
  430MOL0     C57962   2.431   0.476   1.505 -1.1527 -0.6581  1.1460
  430MOL0     O57963   2.700   0.240   1.510  0.2885 -0.3620 -0.1585
  430MOL0     C57964   2.913   0.481   1.361 -0.3464  0.3372 -0.4666
  430MOL0     C57965   3.043   0.496   1.323 -0.2915  0.1817 -0.8560
  430MOL0     N57966   3.801   0.254   1.273  0.4589  0.2802  0.0354
  430MOL0     N57967   3.918   0.209   1.248  0.3118 -0.0198 -0.2489
  430MOL0     C57968   5.102   0.298   1.330 -0.3709 -0.3131 -0.1717
  430MOL0     C57969   5.218   0.262   1.260 -0.1034 -0.9375  0.4837
  430MOL0     C57970   5.642   0.336   1.091 -0.3583  0.0113 -0.6835
  430MOL0     C57971   5.666   0.207   1.050 -0.2125  0.6576 -0.4826
  430MOL0     C57972   5.790   0.164   1.013 -0.7371  0.1379 -0.0516
  430MOL0     C57973   5.900   0.251   1.015  0.2486  0.1036  0.8355
  430MOL0     O57974   6.035   0.218   1.000  0.5838 -0.3659 -0.5589
  430MOL0     C57975   6.069   0.072   1.005  0.4283 -0.0550 -0.4600
  430MOL0     C57976   6.220   0.056   0.981  0.7452 -0.2926  0.3841
  430MOL0     C57977   6.262   0.098   0.835 -0.1027 -0.5532 -0.3415
  430MOL0     C57978   6.414   0.115   0.846  0.5929  0.0063 -0.3443
  430MOL0     C57979   6.463   0.147   0.712 -0.3614  0.3755 -0.1890
  430MOL0     C57980   6.509   0.177   0.601  0.7573  0.4869  0.5300
  430MOL0     C57981   5.878   0.384   1.044  0.1334 -0.5396  0.4634
  430MOL0     C57982   5.750   0.425   1.089 -0.4916 -0.5013 -0.0003
  430MOL0     H57983   5.292   0.557   1.119 -0.7908  2.0088  1.8912
  430MOL0     H57984   5.074   0.619   1.239 -2.7072 -0.9458 -0.6839
  430MOL0     H57985   4.978   0.606   1.476 -1.1122  0.9733  0.5130
  430MOL0     H57986   4.869   0.629   1.336 -0.7872  2.0191  2.7054
  430MOL0     H57987   4.791   0.477   1.583 -0.4886 -0.3203 -0.7922
  430MOL0     H57988   4.792   0.650   1.593 -2.2467  0.6332  1.2213
  430MOL0     H57989   4.571   0.607   1.533  1.0266  1.8925  0.6354
  430MOL0     H57990   4.652   0.668   1.381  1.6905 -1.4582 -1.5474
  430MOL0     H57991   4.659   0.478   1.273  2.1710  1.2035  1.1608
  430MOL0     H57992   4.612   0.380   1.416  1.4972  0.2964  1.1367
  430MOL0     H57993   4.408   0.494   1.435  4.5561  1.0686  0.5856
  430MOL0     H57994   4.428   0.583   1.283  1.8827  0.6989 -0.8459
  430MOL0     H57995   4.417   0.374   1.162 -1.0555  0.5857 -1.0288
  430MOL0     H57996   4.398   0.268   1.295 -0.6206 -0.3619 -2.8211
  430MOL0     H57997   4.197   0.355   1.378 -1.4160 -0.6187 -0.6258
  430MOL0     H57998   4.192   0.494   1.255  2.0833  0.5754 -2.0082
  430MOL0     H57999   4.182   0.196   1.185  2.6476  0.7876 -0.7287
  430MOL0     H58000   4.166   0.336   1.080 -0.5365 -2.0972 -1.2926
  430MOL0     H58001   3.958   0.517   1.150 -0.2215 -0.1226 -0.5500
  430MOL0     H58002   3.712   0.588   1.236 -0.8122  1.4820 -2.2033
  430MOL0     H58003   3.682   0.498   1.086 -0.4241  3.0303  0.2670
  430MOL0     H58004   3.498   0.534   1.283 -0.5437 -0.1712 -1.9128
  430MOL0     H58005   3.577   0.391   1.350 -0.0093  0.1741 -1.6490
  430MOL0     H58006   3.529   0.274   1.132 -2.7547 -3.7350  3.5072
  430MOL0     H58007   3.452   0.418   1.080 -2.2887  0.8539  1.4342
  430MOL0     H58008   3.377   0.274   1.342  2.2250  1.5874 -1.1293
  430MOL0     H58009   3.306   0.237   1.177 -0.1624  0.6015 -1.5299
  430MOL0     H58010   3.148   0.178   1.302  2.0053  1.7361  1.2545
  430MOL0     H58011   2.869   0.067   1.484 -1.8616  1.5980 -0.2804
  430MOL0     H58012   2.842   0.083   1.309  0.4797  0.5376  0.0297
  430MOL0     H58013   3.000   0.034   1.372 -0.4743 -1.0834  0.4617
  430MOL0     H58014   2.516   0.250   1.276 -1.2215 -0.7995  0.4439
  430MOL0     H58015   2.277   0.202   1.292 -2.0445  0.2499 -0.7793
  430MOL0     H58016   1.988   0.393   1.302 -0.9866 -1.2661 -3.0977
  430MOL0     H58017   2.049   0.229   1.285 -1.3600 -2.2737  1.9475
  430MOL0     H58018   1.899   0.152   1.469 -0.1026 -0.0948  1.8269
  430MOL0     H58019   1.844   0.322   1.488  0.5939 -0.7738  0.8696
  430MOL0     H58020   1.814   0.143   1.246  0.5740  0.8314 -0.0499
  430MOL0     H58021   1.766   0.313   1.241  0.2230  0.6249 -0.4847
  430MOL0     H58022   1.635   0.088   1.389  0.3835  0.2772  1.9873
  430MOL0     H58023   1.625   0.257   1.456 -2.5811 -2.6356  1.7289
  430MOL0     H58024   1.561   0.138   1.190  2.2909  1.3833  1.1166
  430MOL0     H58025   1.529   0.301   1.196 -2.1716  0.4465  0.2306
  430MOL0     H58026   1.323   0.220   1.211  2.4617  1.3828 -1.7360
  430MOL0     H58027   1.361   0.093   1.322  0.1566  0.6558  1.5645
  430MOL0     H58028   1.411   0.383   1.431  1.6394 -1.8172  2.8184
  430MOL0     H58029   1.361   0.248   1.519 -3.8613 -0.5948  0.5708
  430MOL0     H58030   1.167   0.399   1.487  2.1268  0.6417 -0.2817
  430MOL0     H58031   1.148   0.243   1.399  1.6655 -1.9438  2.5577
  430MOL0     H58032   2.243   0.496   1.593  0.2325  0.0759  0.3348
  430MOL0     H58033   2.475   0.550   1.570  0.8462  0.9429 -1.7747
  430MOL0     H58034   2.837   0.557   1.371 -1.7772 -1.0896 -0.1136
  430MOL0     H58035   3.068   0.598   1.300 -1.7403  0.7188 -0.1952
  430MOL0     H58036   5.057   0.221   1.392  2.1963  0.1936  2.5727
  430MOL0     H58037   5.265   0.165   1.256  0.0321 -0.9017  1.1025
  430MOL0     H58038   5.591   0.130   1.039  2.5695 -2.3116  0.0541
  430MOL0     H58039   5.806   0.057   1.003 -0.1285  0.0973  1.1643
  430MOL0     H58040   6.032   0.023   1.096  1.3528  1.1863  0.6217
  430MOL0     H58041   6.026   0.009   0.927  1.4414  1.6500 -2.4686
  430MOL0     H58042   6.249  -0.048   1.001 -2.8263 -2.7670 -4.7634
  430MOL0     H58043   6.268   0.120   1.055 -1.7908 -0.3805  2.2124
  430MOL0     H58044   6.216   0.187   0.792  0.0387 -1.5867 -2.7810
  430MOL0     H58045   6.230   0.018   0.768 -1.3449 -2.0229  1.8918
  430MOL0     H58046   6.461   0.025   0.887 -0.1521  0.6434  2.1029
  430MOL0     H58047   6.433   0.192   0.921  1.6302 -0.1216 -0.4534
  430MOL0     H58048   6.532   0.216   0.504 -0.1908  0.6611  0.3718
  430MOL0     H58049   5.969   0.442   1.049  0.3795 -0.9435  0.7393
  430MOL0     H58050   5.746   0.527   1.126  1.3973  0.7674 -2.9645
  431MOL0     O58051   1.030  11.078   0.030  0.0896 -0.3019  0.2793
  431MOL0     C58052   1.079  11.087  -0.084  0.4792  0.5135  0.1132
  431MOL0     O58053   1.010  11.096  -0.202 -0.8946 -0.0460 -0.2873
  431MOL0     C58054   0.890  11.042  -0.201 -0.4800  0.2212  0.9484
  431MOL0     C58055   0.781  11.123  -0.246 -0.3288 -0.6585 -0.4120
  431MOL0     C58056   0.653  11.064  -0.244 -0.1110 -0.0948 -0.5190
  431MOL0     C58057   0.636  10.933  -0.210  0.1292 -0.1801 -0.5981
  431MOL0     O58058   0.514  10.867  -0.201 -0.0719 -0.2342  0.2414
  431MOL0     C58059   0.398  10.950  -0.161 -1.3047 -0.3404  0.6130
  431MOL0     C58060   0.307  10.841  -0.105  0.1475  0.6869 -1.0337
  431MOL0     C58061   0.244  10.780  -0.234  0.1653  0.3435 -0.2446
  431MOL0     C58062   0.124  10.860  -0.296 -0.8871 -0.1573  0.0940
  431MOL0     C58063   0.037  10.773  -0.384 -0.2803 -0.2143 -0.4243
  431MOL0     C58064  -0.078  10.859  -0.435  0.5705 -0.2708 -0.5624
  431MOL0     C58065  -0.177  10.769  -0.518  0.2030  0.9455 -0.8870
  431MOL0     C58066  -0.308  10.842  -0.540 -0.0786 -0.3795 -0.4596
  431MOL0     N58067  -0.399  10.760  -0.613  1.1057  0.1877  0.1360
  431MOL0     C58068  -0.475  10.658  -0.564 -0.5441  0.1990 -0.7239
  431MOL0     C58069  -0.543  10.614  -0.677  0.4632  0.4510 -0.8780
  431MOL0     C58070  -0.634  10.486  -0.695  0.0875 -0.1415  0.1395
  431MOL0     C58071  -0.776  10.521  -0.704  0.6198 -0.3213  0.2006
  431MOL0     C58072  -0.867  10.408  -0.760  0.9209  0.4856  0.5186
  431MOL0     C58073  -1.014  10.417  -0.721  0.4103  0.2406 -1.0175
  431MOL0     O58074  -1.074  10.297  -0.769 -0.6780 -0.2727  0.3353
  431MOL0     C58075  -1.206  10.273  -0.748  0.0967  0.3656 -1.1376
  431MOL0     C58076  -1.262  10.147  -0.786 -0.2535 -0.1291 -0.5711
  431MOL0     C58077  -1.397  10.120  -0.756 -0.8446  0.6309 -0.4977
  431MOL0     C58078  -1.438   9.972  -0.781 -0.6090  0.0662  0.7446
  431MOL0     C58079  -1.482  10.205  -0.686  0.3550 -0.0674  0.5148
  431MOL0     C58080  -1.627  10.174  -0.644  0.2956 -0.1073 -0.0449
  431MOL0     O58081  -1.683  10.042  -0.658  0.0761 -1.0645  0.2462
  431MOL0     C58082  -1.808  10.024  -0.598 -0.9102 -0.2551 -0.4218
  431MOL0     C58083  -1.902   9.949  -0.662  0.4086 -0.1810  0.5002
  431MOL0     C58084  -2.027   9.921  -0.602  0.0552  1.0675 -1.2462
  431MOL0     C58085  -2.055   9.971  -0.470  0.2247 -0.2193 -0.0845
  431MOL0     O58086  -2.177   9.951  -0.401  0.0756 -0.4515 -0.0890
  431MOL0     C58087  -2.215   9.819  -0.415  0.2531 -0.5347 -0.6458
  431MOL0     C58088  -2.300   9.776  -0.298 -0.4203 -0.4030  1.7547
  431MOL0     C58089  -2.390   9.659  -0.339  0.2666 -0.3077 -0.5029
  431MOL0     C58090  -2.462   9.599  -0.218 -0.6966 -0.4056 -0.7937
  431MOL0     C58091  -2.565   9.687  -0.147  0.0034 -0.9900 -0.4017
  431MOL0     C58092  -2.647   9.612  -0.052 -0.9945  0.0092  0.2657
  431MOL0     C58093  -2.739   9.699   0.039  0.7823 -0.0345  0.3330
  431MOL0     C58094  -2.839   9.614   0.105  1.4125 -0.2688 -0.5583
  431MOL0    Cl58095  -2.967   9.545   0.007 -0.1424  0.1823  0.7256
  431MOL0     C58096  -1.964  10.047  -0.407 -0.1581  0.0938  0.2910
  431MOL0     C58097  -1.840  10.070  -0.474 -0.6309  0.0846  0.0221
  431MOL0     O58098  -1.691  10.275  -0.599  0.7903  0.2250  0.3279
  431MOL0     C58099  -1.428  10.330  -0.649 -0.0012 -0.2109 -0.3459
  431MOL0     C58100  -1.296  10.367  -0.682 -0.4386  0.6685 -0.3684
  431MOL0     N58101  -0.509  10.688  -0.787  0.6175 -0.3545  0.3010
  431MOL0     N58102  -0.426  10.779  -0.748 -0.0328  0.1923 -0.0597
  431MOL0     C58103   0.744  10.851  -0.182  0.2803  0.2435  0.0123
  431MOL0     C58104   0.870  10.904  -0.181 -0.2121  0.4436  0.5117
  431MOL0     C58105   1.223  11.105  -0.093 -0.5895  1.2790 -0.9223
  431MOL0     C58106   1.291  11.046  -0.201  0.1285  0.3863 -0.2922
  431MOL0     C58107   1.427  11.057  -0.211  0.3569 -0.2031  0.4975
  431MOL0     C58108   1.504  11.116  -0.105  0.1065 -0.8030 -0.6401
  431MOL0     O58109   1.636  11.103  -0.112  0.3611  0.8445 -0.2852
  431MOL0     C58110   1.723  11.136   0.001  0.5364 -0.1305 -0.4515
  431MOL0     C58111   1.874  11.119  -0.037  0.0754 -0.4665 -0.3398
  431MOL0     C58112   1.950  11.262  -0.025 -0.5599 -0.1590  0.6198
  431MOL0     C58113   2.102  11.231  -0.043  0.2031  0.6511 -0.1447
  431MOL0     C58114   2.141  11.159   0.080  0.2787 -0.3057 -1.0650
  431MOL0     C58115   2.209  11.103   0.170  0.5153 -0.3773 -0.2070
  431MOL0     C58116   1.435  11.165   0.008  0.0190 -0.1746 -0.0633
  431MOL0     C58117   1.293  11.163   0.011  0.0807 -0.3259 -0.9579
  431MOL0     H58118   0.788  11.230  -0.266 -2.6121 -0.2652  0.5593
  431MOL0     H58119   0.560  11.115  -0.267 -0.5214  0.4549  2.1016
  431MOL0     H58120   0.415  11.021  -0.080 -1.0603 -1.7906  1.8764
  431MOL0     H58121   0.354  11.005  -0.245 -0.7446  1.5972  1.5331
  431MOL0     H58122   0.370  10.770  -0.051 -1.2463 -1.5960 -2.2746
  431MOL0     H58123   0.234  10.879  -0.033  0.3416 -1.2336  0.2367
  431MOL0     H58124   0.322  10.772  -0.310  0.9415  0.7576  0.4849
  431MOL0     H58125   0.205  10.679  -0.217  0.0260 -0.0544 -2.6187
  431MOL0     H58126   0.070  10.903  -0.211  2.5077 -0.3235  2.5160
  431MOL0     H58127   0.159  10.947  -0.353 -0.5331  0.5155  1.3051
  431MOL0     H58128   0.093  10.736  -0.471 -3.2420 -0.1443 -2.5469
  431MOL0     H58129   0.003  10.694  -0.318 -1.4175  1.1378  0.6832
  431MOL0     H58130  -0.126  10.901  -0.346  1.2097 -0.7683  0.0420
  431MOL0     H58131  -0.047  10.945  -0.494 -0.8385 -0.2231 -1.2689
  431MOL0     H58132  -0.134  10.737  -0.614 -2.6560 -0.1122 -1.9197
  431MOL0     H58133  -0.192  10.677  -0.462  2.4365  1.0283 -0.0429
  431MOL0     H58134  -0.291  10.943  -0.579 -4.9676  0.2599 -1.6179
  431MOL0     H58135  -0.368  10.862  -0.451  0.1637  4.4365 -1.1227
  431MOL0     H58136  -0.466  10.626  -0.460 -0.2486  0.2124 -0.7424
  431MOL0     H58137  -0.604  10.431  -0.785 -3.9314 -0.5334 -1.1716
  431MOL0     H58138  -0.606  10.429  -0.607  3.9015  0.5444 -0.4590
  431MOL0     H58139  -0.788  10.614  -0.762  1.0490  0.9183  1.9945
  431MOL0     H58140  -0.814  10.542  -0.603 -1.6518  2.3280 -1.0683
  431MOL0     H58141  -0.834  10.311  -0.721  0.2454  0.6926  1.6604
  431MOL0     H58142  -0.865  10.421  -0.869  1.1346  1.9453  0.6683
  431MOL0     H58143  -1.067  10.504  -0.762 -3.0079 -1.7425 -1.1834
  431MOL0     H58144  -1.020  10.421  -0.612 -0.0955  1.0574 -1.0671
  431MOL0     H58145  -1.185  10.081  -0.825 -0.9538  0.0482 -2.3575
  431MOL0     H58146  -1.465   9.920  -0.689 -1.4451 -0.2823  0.3131
  431MOL0     H58147  -1.532   9.974  -0.836 -0.5335  1.6996  0.6253
  431MOL0     H58148  -1.360   9.919  -0.837 -1.1339  0.6905 -0.6272
  431MOL0     H58149  -1.880   9.902  -0.757  1.9609 -2.2762  1.8012
  431MOL0     H58150  -2.091   9.853  -0.657  1.4792 -2.3824  0.9677
  431MOL0     H58151  -2.278   9.812  -0.504 -3.2359 -3.5914  1.7526
  431MOL0     H58152  -2.133   9.746  -0.410  0.9666  0.3507  1.2719
  431MOL0     H58153  -2.235   9.744  -0.216 -0.9705 -2.6397  1.3687
  431MOL0     H58154  -2.368   9.858  -0.271 -0.9975 -0.6422  1.0510
  431MOL0     H58155  -2.326   9.586  -0.390  1.1357  1.0344 -1.4156
  431MOL0     H58156  -2.469   9.691  -0.407 -0.9265 -2.0138  0.0100
  431MOL0     H58157  -2.513   9.507  -0.246  0.2668 -0.8247 -1.2138
  431MOL0     H58158  -2.382   9.565  -0.151 -0.7673  0.4721 -0.2353
  431MOL0     H58159  -2.636   9.732  -0.217 -1.2690  0.6336  1.8269
  431MOL0     H58160  -2.517   9.773  -0.099  1.1817 -2.0930  0.4427
  431MOL0     H58161  -2.712   9.548  -0.112 -1.2181  2.0871 -1.8494
  431MOL0     H58162  -2.587   9.551   0.017 -0.4377 -1.6860 -1.6147
  431MOL0     H58163  -2.793   9.781  -0.009 -0.4131 -1.0404 -0.0708
  431MOL0     H58164  -2.676   9.747   0.115  2.7255 -4.3776  1.7622
  431MOL0     H58165  -2.882   9.682   0.180 -0.5849 -0.3497 -1.5710
  431MOL0     H58166  -2.795   9.526   0.153  1.2830 -0.4078 -0.6945
  431MOL0     H58167  -1.990  10.097  -0.314 -1.3493 -0.5526  0.3247
  431MOL0     H58168  -1.768  10.120  -0.411  0.3192  0.3510 -1.2242
  431MOL0     H58169  -1.497  10.394  -0.593  0.9706  2.0789 -1.6112
  431MOL0     H58170  -1.258  10.460  -0.639 -0.9429 -0.5163  2.8833
  431MOL0     H58171   0.737  10.743  -0.175  0.5598  0.2797  1.0098
  431MOL0     H58172   0.957  10.845  -0.156  0.5432  1.3816  0.1658
  431MOL0     H58173   1.227  10.995  -0.272 -0.4762  0.4946  0.1671
  431MOL0     H58174   1.470  11.016  -0.302 -1.4342 -0.6622 -0.1858
  431MOL0     H58175   1.696  11.233   0.045 -1.8033 -1.1112  0.4285
  431MOL0     H58176   1.701  11.071   0.086  4.7278 -1.0890  0.1495
  431MOL0     H58177   1.879  11.083  -0.140 -1.0393 -2.6530  0.3203
  431MOL0     H58178   1.903  11.038   0.030 -1.1203  1.1222  2.2697
  431MOL0     H58179   1.924  11.314   0.068  2.6083  2.3907  0.2600
  431MOL0     H58180   1.902  11.313  -0.109  0.0982 -1.5490 -0.6580
  431MOL0     H58181   2.161  11.320  -0.067  0.3673 -0.0924 -2.8409
  431MOL0     H58182   2.106  11.166  -0.131 -3.2895 -1.5211  1.1183
  431MOL0     H58183   2.284  11.074   0.241 -1.0574  0.0559  1.7387
  431MOL0     H58184   1.484  11.194   0.101 -1.4285  0.8796  0.4057
  431MOL0     H58185   1.252  11.216   0.096  2.1463 -0.7388  0.3839
  432MOL0     O58186   1.439  10.031   0.658  0.4636  0.3451 -0.4505
  432MOL0     C58187   1.501   9.965   0.581 -0.1792 -0.0865  0.0945
  432MOL0     O58188   1.447   9.894   0.476 -0.1259  0.0829 -0.1351
  432MOL0     C58189   1.319   9.926   0.431 -0.1916 -0.3230 -0.1073
  432MOL0     C58190   1.277  10.057   0.403 -0.2372  0.7200 -0.7411
  432MOL0     C58191   1.148  10.087   0.365  0.1461  0.6364 -0.9977
  432MOL0     C58192   1.052   9.984   0.357  0.5872 -0.3697  0.6078
  432MOL0     O58193   0.925  10.027   0.327  0.4519 -0.1038 -0.1147
  432MOL0     C58194   0.815   9.939   0.336  0.2280  0.4520 -0.0641
  432MOL0     C58195   0.696  10.026   0.293 -0.1205  0.4069  0.0473
  432MOL0     C58196   0.560   9.955   0.284 -0.2137 -0.7915 -0.4380
  432MOL0     C58197   0.501   9.933   0.425 -0.3770 -0.3052 -0.0991
  432MOL0     C58198   0.358   9.875   0.390 -0.6858 -0.4890 -0.3221
  432MOL0     C58199   0.297   9.801   0.506 -0.4870  0.0196  0.0343
  432MOL0     C58200   0.147   9.767   0.480 -0.5163 -0.0535  0.2098
  432MOL0     C58201   0.088   9.695   0.598 -0.0386  0.4610 -0.0601
  432MOL0     N58202   0.137   9.563   0.632  0.2512  0.4684 -0.0992
  432MOL0     C58203   0.246   9.553   0.715 -1.0741 -0.0168  0.5631
  432MOL0     C58204   0.280   9.417   0.699 -0.7147 -0.4654 -0.5049
  432MOL0     C58205   0.400   9.347   0.767  0.3523  0.1840 -0.4225
  432MOL0     C58206   0.416   9.214   0.710  0.3077 -0.0734  0.7533
  432MOL0     C58207   0.538   9.152   0.771 -0.7239  1.2031 -0.3500
  432MOL0     C58208   0.545   9.005   0.725 -0.3836 -0.0344  0.8673
  432MOL0     O58209   0.677   8.977   0.764 -0.6392  0.2681 -0.7037
  432MOL0     C58210   0.748   8.873   0.714  0.8237 -0.0275 -0.0736
  432MOL0     C58211   0.873   8.842   0.759  0.7669  0.6200 -1.0738
  432MOL0     C58212   0.954   8.735   0.702  0.2886 -0.5399 -0.3425
  432MOL0     C58213   1.082   8.709   0.770  0.2795 -0.6200 -0.1193
  432MOL0     C58214   0.906   8.663   0.590 -0.0108  0.0908  0.0613
  432MOL0     C58215   0.988   8.554   0.522  0.8796 -0.3568  0.6974
  432MOL0     O58216   1.118   8.549   0.539 -0.5689 -0.3940 -0.1120
  432MOL0     C58217   1.199   8.457   0.476 -0.1111  0.1006  0.3247
  432MOL0     C58218   1.330   8.459   0.520  0.7290 -0.2178  0.1973
  432MOL0     C58219   1.440   8.393   0.460 -0.4108 -0.6193  0.0800
  432MOL0     C58220   1.422   8.307   0.352 -0.0717 -0.3764 -0.7809
  432MOL0     O58221   1.533   8.250   0.302  0.8038  0.3215  0.3484
  432MOL0     C58222   1.547   8.215   0.163  0.8106  0.5972 -0.0500
  432MOL0     C58223   1.679   8.279   0.117  0.0943 -0.4981  0.4908
  432MOL0     C58224   1.800   8.217   0.187  0.2612 -0.5758 -0.6363
  432MOL0     C58225   1.933   8.267   0.127 -0.5053  0.3816 -1.1209
  432MOL0     C58226   2.063   8.211   0.194 -0.3078  0.1291  0.4055
  432MOL0     C58227   2.190   8.258   0.126  0.7804  0.1583 -0.1000
  432MOL0     C58228   2.302   8.166   0.185 -1.3638  0.4445 -0.0462
  432MOL0     C58229   2.324   8.170   0.339 -0.1537  0.3539  0.1831
  432MOL0    Cl58230   2.314   8.336   0.394 -0.1816 -0.6712 -0.5219
  432MOL0     C58231   1.286   8.295   0.309  0.1977 -0.0252 -0.1515
  432MOL0     C58232   1.178   8.370   0.364 -0.1075 -0.9446 -0.3570
  432MOL0     O58233   0.921   8.473   0.451 -0.2889  0.3451  0.1505
  432MOL0     C58234   0.776   8.697   0.550  0.3914 -0.0104  0.2517
  432MOL0     C58235   0.700   8.796   0.604  0.5878 -0.4109  0.5902
  432MOL0     N58236   0.193   9.361   0.607 -0.0237 -0.6740  0.1507
  432MOL0     N58237   0.116   9.451   0.564  0.2455 -0.0824 -0.8068
  432MOL0     C58238   1.089   9.856   0.386  0.1039  0.2347  0.3368
  432MOL0     C58239   1.223   9.822   0.415  0.3630 -0.0577 -0.8408
  432MOL0     C58240   1.649   9.974   0.606  0.7439  0.2011  0.0955
  432MOL0     C58241   1.736   9.892   0.527  0.7624  0.5725 -0.0215
  432MOL0     C58242   1.872   9.902   0.551  0.3284  0.5085 -0.5748
  432MOL0     C58243   1.932   9.980   0.654  0.5332 -0.3344  0.7269
  432MOL0     O58244   2.069   9.985   0.658  0.8247 -0.1096  0.6315
  432MOL0     C58245   2.133  10.041   0.772  0.1554  0.2464 -0.0517
  432MOL0     C58246   2.281   9.992   0.782 -0.6289  0.4239  0.0101
  432MOL0     C58247   2.339  10.061   0.916 -0.0860 -0.0692 -0.2014
  432MOL0     C58248   2.490  10.053   0.917  0.8051 -0.7319  0.3793
  432MOL0     C58249   2.555  10.098   1.037  1.1756 -0.3495  0.4483
  432MOL0     C58250   2.613  10.136   1.132 -1.3926  0.1778 -0.0109
  432MOL0     C58251   1.840  10.057   0.726 -0.7697  0.4627 -0.2958
  432MOL0     C58252   1.702  10.059   0.704  0.2700 -0.1961 -0.5005
  432MOL0     H58253   1.337  10.146   0.416 -1.4256  1.4713 -0.1587
  432MOL0     H58254   1.116  10.188   0.341 -1.4180  0.4273  0.0302
  432MOL0     H58255   0.828   9.852   0.270 -0.4034  0.1876  0.1527
  432MOL0     H58256   0.799   9.914   0.441  2.0480  1.2227  0.4380
  432MOL0     H58257   0.690  10.116   0.354  0.4292 -1.2284  2.6786
  432MOL0     H58258   0.709  10.060   0.190 -0.5735 -1.6365 -0.7372
  432MOL0     H58259   0.486  10.014   0.229  1.1175  0.6563 -0.7517
  432MOL0     H58260   0.569   9.859   0.231  0.3629 -0.1374 -1.5865
  432MOL0     H58261   0.557   9.854   0.474  1.5754  0.9941 -0.1060
  432MOL0     H58262   0.488  10.027   0.479 -2.0626  0.3006 -1.4427
  432MOL0     H58263   0.297   9.959   0.356  0.2007 -0.3538 -1.6522
  432MOL0     H58264   0.355   9.808   0.304 -0.6773 -1.1024  0.1496
  432MOL0     H58265   0.366   9.721   0.535  1.6605  1.3417 -1.1287
  432MOL0     H58266   0.300   9.868   0.593 -1.4556 -0.4023  0.4065
  432MOL0     H58267   0.091   9.859   0.462 -1.2269 -0.1676  1.6484
  432MOL0     H58268   0.145   9.696   0.397 -0.1247  0.0209  0.1360
  432MOL0     H58269  -0.020   9.706   0.592 -0.4565  1.5098  4.8675
  432MOL0     H58270   0.115   9.756   0.685 -1.6573  0.9007  0.1519
  432MOL0     H58271   0.296   9.634   0.768  0.7475  0.5354 -1.7571
  432MOL0     H58272   0.493   9.402   0.750  1.2149 -1.4201 -1.1231
  432MOL0     H58273   0.381   9.338   0.874 -1.8127 -1.5007 -0.8903
  432MOL0     H58274   0.422   9.222   0.602 -0.1835  0.6963  0.7770
  432MOL0     H58275   0.327   9.154   0.728  0.2091  0.7032  3.2549
  432MOL0     H58276   0.534   9.154   0.880 -2.8334  0.2429 -0.3503
  432MOL0     H58277   0.632   9.201   0.746 -0.2185  0.4891  0.0962
  432MOL0     H58278   0.526   8.978   0.621  2.3592 -1.3967  0.6004
  432MOL0     H58279   0.471   8.946   0.780 -3.6802  1.5037 -1.5903
  432MOL0     H58280   0.909   8.913   0.832  0.6892  1.4476 -1.8304
  432MOL0     H58281   1.167   8.731   0.705  1.2679  1.0266  1.6316
  432MOL0     H58282   1.099   8.783   0.848  0.7330  1.5227 -2.1461
  432MOL0     H58283   1.088   8.613   0.823 -2.2583  0.1576  1.7847
  432MOL0     H58284   1.353   8.525   0.603  1.7524  2.3281 -1.9847
  432MOL0     H58285   1.539   8.410   0.500 -0.8336 -0.2345  1.0085
  432MOL0     H58286   1.555   8.106   0.167 -0.9195  0.3652  5.6709
  432MOL0     H58287   1.467   8.239   0.092  1.3308 -0.3936 -1.0102
  432MOL0     H58288   1.680   8.259   0.010  0.6576 -1.7121  0.7115
  432MOL0     H58289   1.676   8.388   0.126  0.9115 -0.2606 -1.5895
  432MOL0     H58290   1.795   8.111   0.164  1.0699 -1.2626  2.0549
  432MOL0     H58291   1.792   8.221   0.296 -2.0248 -0.7196 -0.7493
  432MOL0     H58292   1.936   8.243   0.020  1.6102  1.1623 -1.2643
  432MOL0     H58293   1.931   8.376   0.122 -0.5223  0.6141  1.9504
  432MOL0     H58294   2.057   8.102   0.197  1.9074 -0.0751 -0.5047
  432MOL0     H58295   2.056   8.232   0.301  0.3995 -1.6924  0.8330
  432MOL0     H58296   2.182   8.242   0.018 -4.2061  1.6628 -0.2118
  432MOL0     H58297   2.206   8.366   0.138 -4.1243  1.0226  0.5468
  432MOL0     H58298   2.396   8.188   0.133 -1.5809 -0.0078 -0.6378
  432MOL0     H58299   2.284   8.062   0.154 -2.2799  0.7727 -0.6419
  432MOL0     H58300   2.429   8.140   0.349 -0.3757 -0.2260  0.8838
  432MOL0     H58301   2.258   8.099   0.389 -0.1140  0.0141 -0.2345
  432MOL0     H58302   1.257   8.236   0.223  0.4895  0.0005 -0.2718
  432MOL0     H58303   1.090   8.381   0.301 -1.3907 -1.3067  1.3135
  432MOL0     H58304   0.733   8.633   0.473  1.8261  2.8719 -3.2203
  432MOL0     H58305   0.600   8.812   0.563  0.9763  3.2605  0.6909
  432MOL0     H58306   1.016   9.776   0.393  1.2394 -1.1386 -2.2646
  432MOL0     H58307   1.265   9.726   0.443 -0.9443 -0.2546  0.6503
  432MOL0     H58308   1.700   9.818   0.457  2.8422 -0.2040 -0.3502
  432MOL0     H58309   1.932   9.841   0.485 -0.2992  0.5973 -1.2408
  432MOL0     H58310   2.130  10.150   0.759 -1.4011  0.2823  0.4286
  432MOL0     H58311   2.074  10.001   0.855 -0.9375 -1.9942 -1.7922
  432MOL0     H58312   2.334  10.028   0.693 -2.2462 -0.0875 -1.2143
  432MOL0     H58313   2.306   9.886   0.784  1.4577  0.8413 -1.1037
  432MOL0     H58314   2.302  10.029   1.014  0.0016 -1.1588 -0.5074
  432MOL0     H58315   2.315  10.167   0.912  1.5421  0.3394 -0.0325
  432MOL0     H58316   2.514  10.115   0.830 -1.5681  1.8452  1.4205
  432MOL0     H58317   2.500   9.945   0.904 -2.5614 -1.0569 -0.2721
  432MOL0     H58318   2.676  10.171   1.212  0.8338  2.7745 -2.6962
  432MOL0     H58319   1.877  10.113   0.812  0.8230 -3.2931  1.7029
  432MOL0     H58320   1.628  10.119   0.756 -0.3545  0.8632 -2.4873
  433MOL0     O58321   9.173   8.441   1.970 -0.3679 -0.6262 -0.0889
  433MOL0     C58322   9.169   8.553   1.921 -0.0151 -0.7523  0.7598
  433MOL0     O58323   9.061   8.611   1.876  0.6842 -0.0468 -1.2610
  433MOL0     C58324   8.941   8.548   1.905  0.4478  0.0945  0.1246
  433MOL0     C58325   8.859   8.524   1.792 -0.0646  0.2724 -0.0436
  433MOL0     C58326   8.729   8.482   1.815 -0.6111 -0.0095 -0.7513
  433MOL0     C58327   8.686   8.460   1.951  0.3220 -0.7441 -0.2157
  433MOL0     O58328   8.550   8.425   1.969  0.2322  0.9089 -0.2771
  433MOL0     C58329   8.491   8.444   2.102 -0.1516  0.0690  0.1248
  433MOL0     C58330   8.355   8.520   2.096 -0.8115 -0.2080  0.3446
  433MOL0     C58331   8.233   8.458   2.021  0.1235 -0.7569 -0.8207
  433MOL0     C58332   8.185   8.333   2.097 -0.0303 -0.6886 -0.4749
  433MOL0     C58333   8.053   8.270   2.053  0.8671  0.6320 -1.0238
  433MOL0     C58334   7.941   8.368   2.072  0.0311 -0.5324 -0.4536
  433MOL0     C58335   7.800   8.315   2.031 -0.4397 -0.3763  0.9966
  433MOL0     C58336   7.731   8.218   2.128 -0.4788  0.5741  0.7989
  433MOL0     N58337   7.591   8.176   2.089  0.3377  0.5663  0.4575
  433MOL0     C58338   7.547   8.138   1.964  0.6421 -0.4074 -0.4376
  433MOL0     C58339   7.407   8.116   1.984  0.0123  0.1890  0.8678
  433MOL0     C58340   7.313   8.054   1.880 -0.2838 -0.0847 -0.0088
  433MOL0     C58341   7.227   8.158   1.810 -0.0754  1.3630 -0.4934
  433MOL0     C58342   7.156   8.111   1.693 -1.0320  0.6852 -0.7428
  433MOL0     C58343   7.064   7.991   1.710 -0.7194  0.2941 -0.5558
  433MOL0     O58344   6.958   8.011   1.799  0.3106 -0.4290 -0.5815
  433MOL0     C58345   6.835   7.965   1.769  0.7853  0.5512  0.1949
  433MOL0     C58346   6.815   7.826   1.775 -0.8869 -0.8095  0.3617
  433MOL0     C58347   6.691   7.763   1.802 -0.1011 -0.7202 -0.5372
  433MOL0     C58348   6.679   7.617   1.824  0.3888  0.4271 -0.0303
  433MOL0     C58349   6.574   7.845   1.810 -0.1089 -1.1192  0.4568
  433MOL0     C58350   6.435   7.795   1.836 -0.4653 -0.1945  0.1303
  433MOL0     O58351   6.335   7.853   1.765 -1.0071  0.7514 -0.4244
  433MOL0     C58352   6.204   7.813   1.788  0.1898 -0.5721 -0.5152
  433MOL0     C58353   6.132   7.831   1.913  0.0480 -0.5298 -0.2216
  433MOL0     C58354   5.995   7.816   1.917  0.3630 -0.2796  0.8258
  433MOL0     C58355   5.922   7.781   1.804  1.0014  0.2941 -0.3173
  433MOL0     O58356   5.787   7.766   1.823  0.1106 -0.0287  0.7643
  433MOL0     C58357   5.713   7.687   1.736 -0.3013 -0.0224  0.2651
  433MOL0     C58358   5.578   7.640   1.799  0.4374 -0.1351 -0.1897
  433MOL0     C58359   5.494   7.763   1.858 -0.4660  0.0695  0.1696
  433MOL0     C58360   5.344   7.730   1.874 -0.2183 -0.4956  0.0791
  433MOL0     C58361   5.253   7.848   1.919  0.2168 -0.2462 -0.5277
  433MOL0     C58362   5.105   7.819   1.870 -0.2199 -0.4398 -0.3682
  433MOL0     C58363   5.012   7.914   1.944  0.0391  0.4168  0.2508
  433MOL0     C58364   4.902   7.970   1.855 -0.1680 -0.6082  0.5543
  433MOL0    Cl58365   4.783   8.035   1.968 -0.3310  0.3453  0.0548
  433MOL0     C58366   5.985   7.763   1.675 -0.8952  0.0932  0.1153
  433MOL0     C58367   6.132   7.783   1.670 -0.2538  0.1660 -0.3710
  433MOL0     O58368   6.424   7.724   1.938 -0.1173  0.1898  0.5005
  433MOL0     C58369   6.593   7.983   1.775  0.9361 -0.1830 -0.7406
  433MOL0     C58370   6.719   8.041   1.769  0.3518 -0.2837 -0.8139
  433MOL0     N58371   7.375   8.152   2.113 -0.2828 -0.0859 -0.7388
  433MOL0     N58372   7.485   8.176   2.172 -0.0950  0.0756  0.5358
  433MOL0     C58373   8.774   8.477   2.054 -0.4064 -0.3960  0.0833
  433MOL0     C58374   8.904   8.525   2.034  0.3955  0.3154  0.0444
  433MOL0     C58375   9.300   8.630   1.900  0.5253 -0.1641 -0.3765
  433MOL0     C58376   9.421   8.581   1.959  0.3279 -0.5627 -0.4294
  433MOL0     C58377   9.534   8.660   1.956  0.6787 -0.0711 -0.3468
  433MOL0     C58378   9.541   8.775   1.886 -0.1839 -0.5530 -0.1723
  433MOL0     O58379   9.662   8.839   1.875 -0.6932 -0.0087  0.8547
  433MOL0     C58380   9.660   8.981   1.847  0.0186 -0.2436 -0.5097
  433MOL0     C58381   9.776   9.052   1.916 -0.7409  0.4219  0.4215
  433MOL0     C58382   9.910   8.995   1.864 -0.3116  0.2284 -0.3434
  433MOL0     C58383  10.044   9.040   1.935  0.3506  0.4673 -0.1430
  433MOL0     C58384  10.162   8.970   1.884 -0.3426 -0.8240 -0.6570
  433MOL0     C58385  10.250   8.906   1.839  0.4073 -0.1131  0.7819
  433MOL0     C58386   9.425   8.824   1.823  0.4966  0.0750  0.1927
  433MOL0     C58387   9.308   8.749   1.826  0.2151  0.3924 -0.6495
  433MOL0     H58388   8.910   8.534   1.696  1.8422  1.3278  1.0043
  433MOL0     H58389   8.664   8.459   1.731 -0.2180 -2.0179 -0.5521
  433MOL0     H58390   8.480   8.349   2.154  0.8378 -0.2293 -0.1930
  433MOL0     H58391   8.553   8.499   2.174 -0.6044 -0.3293  0.8329
  433MOL0     H58392   8.320   8.550   2.195 -1.6109 -2.2100  0.7320
  433MOL0     H58393   8.369   8.610   2.035  0.4944 -1.6976 -1.6968
  433MOL0     H58394   8.155   8.534   2.018 -0.9403 -1.8201 -3.3087
  433MOL0     H58395   8.257   8.448   1.914  3.5403  2.6674 -0.5889
  433MOL0     H58396   8.263   8.257   2.087 -0.2811 -0.7851 -1.9148
  433MOL0     H58397   8.180   8.357   2.203  1.7927 -2.6185  0.1256
  433MOL0     H58398   8.066   8.256   1.945 -0.6128 -2.2335 -0.9365
  433MOL0     H58399   8.034   8.171   2.096  0.0390  0.8050 -0.9709
  433MOL0     H58400   7.935   8.398   2.177 -3.7370 -1.0131 -0.4241
  433MOL0     H58401   7.960   8.461   2.017 -1.8266  0.6652  0.8448
  433MOL0     H58402   7.732   8.398   2.007 -1.0713 -1.2258 -0.2370
  433MOL0     H58403   7.816   8.266   1.935  0.9801  1.6390  0.1159
  433MOL0     H58404   7.738   8.253   2.231 -0.0652  3.8351 -0.2416
  433MOL0     H58405   7.791   8.128   2.142 -0.3887  0.2625 -1.3049
  433MOL0     H58406   7.601   8.129   1.870  2.1537  0.6346  0.2816
  433MOL0     H58407   7.367   7.994   1.806 -1.1203 -2.2827  1.0848
  433MOL0     H58408   7.255   7.985   1.942  0.6792 -2.6696 -1.8430
  433MOL0     H58409   7.278   8.250   1.780 -1.2016  1.5479 -1.9640
  433MOL0     H58410   7.152   8.186   1.885 -0.0561 -0.1733  0.1310
  433MOL0     H58411   7.223   8.090   1.608 -0.9104  1.1943 -0.7723
  433MOL0     H58412   7.096   8.192   1.653 -2.2555 -0.6872 -1.7914
  433MOL0     H58413   7.119   7.903   1.743 -0.7620  0.5402  0.1906
  433MOL0     H58414   7.022   7.968   1.611 -0.1514  1.4015 -1.0766
  433MOL0     H58415   6.903   7.762   1.767  0.9473  1.7391 -2.1160
  433MOL0     H58416   6.662   7.596   1.930  0.2108 -1.3096 -0.3891
  433MOL0     H58417   6.603   7.566   1.766  0.0461 -1.9782  2.3775
  433MOL0     H58418   6.770   7.572   1.783  1.0690  2.2348 -0.6554
  433MOL0     H58419   6.186   7.853   2.005 -1.4007 -0.6334  0.6942
  433MOL0     H58420   5.935   7.820   2.007  0.0853 -0.5542  0.6559
  433MOL0     H58421   5.681   7.740   1.646 -4.4887 -2.3534  0.1087
  433MOL0     H58422   5.765   7.601   1.695 -0.7385 -0.7663  1.2233
  433MOL0     H58423   5.512   7.590   1.728 -1.0160  0.2343  0.8549
  433MOL0     H58424   5.599   7.570   1.881  0.6889 -2.0541 -1.8154
  433MOL0     H58425   5.510   7.851   1.796  3.0821  0.0374  0.7784
  433MOL0     H58426   5.545   7.791   1.951  1.1702 -1.8298 -0.0795
  433MOL0     H58427   5.300   7.685   1.785 -1.8347 -1.5766  1.3663
  433MOL0     H58428   5.333   7.649   1.947 -1.4418 -0.3891  0.0300
  433MOL0     H58429   5.290   7.940   1.871 -0.5450  0.5246  0.3272
  433MOL0     H58430   5.259   7.859   2.027  1.7586 -0.1390 -0.6068
  433MOL0     H58431   5.094   7.841   1.764 -3.1619 -1.5445 -0.3687
  433MOL0     H58432   5.075   7.716   1.890  1.4575 -1.0501 -0.8435
  433MOL0     H58433   5.061   7.999   1.992 -1.4828  2.0229 -0.9166
  433MOL0     H58434   4.967   7.859   2.026  0.3750  2.1631  1.6730
  433MOL0     H58435   4.860   7.895   1.787  2.0054 -2.4296  1.1053
  433MOL0     H58436   4.941   8.038   1.779 -2.0728 -3.2344 -3.0937
  433MOL0     H58437   5.944   7.740   1.577 -1.3476 -0.4965  0.4326
  433MOL0     H58438   6.188   7.773   1.578  2.5570  0.5996  1.1933
  433MOL0     H58439   6.510   8.053   1.784  2.8250  2.0351  0.8969
  433MOL0     H58440   6.737   8.147   1.757 -0.1592 -0.3263 -2.0470
  433MOL0     H58441   8.754   8.455   2.159  2.0368 -0.0745  0.6591
  433MOL0     H58442   8.967   8.544   2.121  1.3456 -2.6560  0.1219
  433MOL0     H58443   9.437   8.486   2.008  1.9605 -2.9956 -5.0427
  433MOL0     H58444   9.617   8.632   2.020 -0.6028  1.0513  1.9836
  433MOL0     H58445   9.660   9.003   1.740 -1.6315 -0.5348 -0.6038
  433MOL0     H58446   9.570   9.031   1.885 -0.1262  0.4797 -1.7446
  433MOL0     H58447   9.779   9.040   2.025  2.2055  0.5709  0.4606
  433MOL0     H58448   9.765   9.159   1.898 -1.4140  0.6713  2.0982
  433MOL0     H58449   9.921   9.016   1.757 -3.1777 -3.9357 -1.6896
  433MOL0     H58450   9.902   8.887   1.875  0.2035  0.3275  1.3099
  433MOL0     H58451  10.033   9.023   2.043  2.9845  3.7483  0.7862
  433MOL0     H58452  10.039   9.147   1.912 -1.4873  1.1033  2.7033
  433MOL0     H58453  10.329   8.843   1.801  0.5526 -1.4501  3.0990
  433MOL0     H58454   9.415   8.918   1.768 -1.4412 -0.1273  0.1479
  433MOL0     H58455   9.219   8.794   1.785  0.3615 -0.5199 -2.0155
  434MOL0     O58456   1.232   9.882   4.234  0.0844  1.1756  0.6621
  434MOL0     C58457   1.232   9.853   4.110 -0.9257 -0.5215 -0.5238
  434MOL0     O58458   1.350   9.858   4.026 -0.1305  0.1928 -0.3426
  434MOL0     C58459   1.460   9.938   4.071  0.9562 -0.7986  0.4950
  434MOL0     C58460   1.439  10.064   4.115  0.8080 -0.3563  0.1759
  434MOL0     C58461   1.549  10.141   4.156  0.5499 -0.3504 -0.7373
  434MOL0     C58462   1.680  10.093   4.143  0.4488  0.4901 -0.1923
  434MOL0     O58463   1.774  10.178   4.188  0.6486  0.0111  0.8067
  434MOL0     C58464   1.901  10.122   4.173 -0.1133 -1.1090 -0.2207
  434MOL0     C58465   2.004  10.209   4.242  0.8438 -0.0686 -0.7718
  434MOL0     C58466   2.147  10.143   4.236  0.1529 -0.3373 -0.6609
  434MOL0     C58467   2.232  10.242   4.312 -0.4312 -0.4490 -1.0942
  434MOL0     C58468   2.383  10.204   4.284 -0.0636 -0.5882 -0.5501
  434MOL0     C58469   2.428  10.208   4.133 -0.2269 -0.0603 -0.1056
  434MOL0     C58470   2.576  10.231   4.107 -0.4808  0.6400  1.1191
  434MOL0     C58471   2.625  10.371   4.128 -0.0997 -1.0433  0.1403
  434MOL0     N58472   2.759  10.379   4.077  0.3362 -0.6645 -0.1802
  434MOL0     C58473   2.796  10.398   3.947  0.1321  0.5371 -0.4942
  434MOL0     C58474   2.925  10.423   3.949  0.7235 -0.4602  0.0952
  434MOL0     C58475   3.024  10.434   3.837  0.4838 -0.8226 -0.5072
  434MOL0     C58476   2.970  10.492   3.709  1.4288 -0.8668 -0.9169
  434MOL0     C58477   2.991  10.647   3.704  0.6644  0.2880  0.9763
  434MOL0     C58478   2.903  10.724   3.797 -0.2937 -0.8102  0.4136
  434MOL0     O58479   2.773  10.682   3.768  0.1978 -0.6577  0.4884
  434MOL0     C58480   2.665  10.709   3.847 -0.2199  0.9332 -0.5234
  434MOL0     C58481   2.670  10.701   3.987 -0.9414 -0.1962  0.4967
  434MOL0     C58482   2.555  10.720   4.067  0.4688  0.2158  0.0576
  434MOL0     C58483   2.578  10.697   4.211  0.8489 -0.2180 -0.1375
  434MOL0     C58484   2.433  10.751   4.004 -0.1433  0.2404  0.5534
  434MOL0     C58485   2.298  10.762   4.069  0.4164 -0.2693  0.2260
  434MOL0     O58486   2.183  10.792   3.991 -0.1891  0.1560 -0.0726
  434MOL0     C58487   2.060  10.770   4.042  0.1164 -0.0751  0.0094
  434MOL0     C58488   2.024  10.660   4.133 -0.2322  0.4145  0.0526
  434MOL0     C58489   1.888  10.644   4.159 -0.1803  0.2800  0.3261
  434MOL0     C58490   1.787  10.716   4.088 -0.3243  0.2524 -0.3004
  434MOL0     O58491   1.654  10.676   4.108 -0.3302 -0.7713 -0.4851
  434MOL0     C58492   1.558  10.765   4.053  0.0306  0.0161 -0.1017
  434MOL0     C58493   1.418  10.718   4.072 -0.1752  0.7048  0.4655
  434MOL0     C58494   1.326  10.782   3.970  0.3218 -0.1656  0.1657
  434MOL0     C58495   1.356  10.923   3.948  0.3071  0.0842 -0.6406
  434MOL0     C58496   1.240  11.017   3.904  0.3472 -0.2557  0.5944
  434MOL0     C58497   1.177  10.979   3.768  0.3317  0.0309  0.4242
  434MOL0     C58498   1.061  11.073   3.741 -0.3104  0.0933  0.2913
  434MOL0     C58499   1.016  11.041   3.600  0.0616  0.6885 -0.1687
  434MOL0    Cl58500   0.841  11.053   3.616 -0.1892  0.2187  0.0582
  434MOL0     C58501   1.833  10.809   3.991 -0.2018 -0.2865 -0.7024
  434MOL0     C58502   1.965  10.832   3.967  0.1751 -0.0619  0.4401
  434MOL0     O58503   2.294  10.743   4.193  0.7396 -0.2704  0.0332
  434MOL0     C58504   2.435  10.765   3.863  1.0670 -0.9611 -0.1229
  434MOL0     C58505   2.551  10.742   3.789 -0.3808 -0.6230  0.1250
  434MOL0     N58506   2.972  10.440   4.073 -0.0144  0.0488 -0.5817
  434MOL0     N58507   2.871  10.412   4.155  0.3481  0.1213  0.2488
  434MOL0     C58508   1.701   9.963   4.086  0.2644  0.4398 -0.2687
  434MOL0     C58509   1.588   9.889   4.042 -0.1027  0.0912 -0.0379
  434MOL0     C58510   1.111   9.800   4.055  0.5205  0.3599 -1.0152
  434MOL0     C58511   1.118   9.711   3.943 -0.1757  0.0680 -0.3347
  434MOL0     C58512   1.005   9.656   3.893  1.2306  0.2084 -0.7318
  434MOL0     C58513   0.882   9.674   3.953  0.2052 -0.2182 -0.6033
  434MOL0     O58514   0.782   9.605   3.897 -0.1250 -0.8859  0.4956
  434MOL0     C58515   0.657   9.684   3.884  0.0163  0.3364 -0.5857
  434MOL0     C58516   0.676   9.781   3.769 -0.2959  0.2766 -0.1777
  434MOL0     C58517   0.659   9.728   3.627 -0.4159 -0.2506  0.5000
  434MOL0     C58518   0.513   9.709   3.596 -0.0327  0.3201 -0.1551
  434MOL0     C58519   0.501   9.687   3.453 -0.3630 -0.3830  0.1177
  434MOL0     C58520   0.507   9.665   3.330  0.2613 -0.5606  0.2644
  434MOL0     C58521   0.875   9.750   4.068  0.5304 -1.0543 -0.4003
  434MOL0     C58522   0.987   9.808   4.119 -0.4608 -0.7611  0.0116
  434MOL0     H58523   1.342  10.108   4.131  0.5620 -0.7667 -0.1391
  434MOL0     H58524   1.529  10.237   4.201 -2.1627 -0.7715 -0.8394
  434MOL0     H58525   1.911  10.024   4.221 -0.2135 -1.1631 -0.3117
  434MOL0     H58526   1.945  10.114   4.073  1.1814  0.8866  0.1390
  434MOL0     H58527   2.010  10.308   4.195  0.8101  0.7585  0.8831
  434MOL0     H58528   1.973  10.225   4.346  1.3648  0.4146 -0.6873
  434MOL0     H58529   2.162  10.051   4.292  3.2264 -0.7127 -1.9310
  434MOL0     H58530   2.181  10.142   4.132 -0.6856  3.0367 -1.0858
  434MOL0     H58531   2.209  10.344   4.279  1.8680  0.0987 -1.1771
  434MOL0     H58532   2.200  10.248   4.417 -0.7851 -1.3063 -1.1445
  434MOL0     H58533   2.459  10.261   4.337 -0.1114 -1.7201  0.7797
  434MOL0     H58534   2.397  10.102   4.320  0.2156 -0.6767 -0.9058
  434MOL0     H58535   2.406  10.113   4.083 -0.7832 -0.8974  1.6422
  434MOL0     H58536   2.372  10.280   4.074  0.4479  0.2011 -0.4364
  434MOL0     H58537   2.639  10.166   4.170 -0.2943  0.0263  0.3196
  434MOL0     H58538   2.593  10.215   4.000  0.5977  1.5387  1.1300
  434MOL0     H58539   2.609  10.400   4.232 -2.4548  0.6030 -0.5874
  434MOL0     H58540   2.552  10.437   4.079 -0.8805 -1.1501  1.1261
  434MOL0     H58541   2.725  10.403   3.865  1.2080  0.0940 -1.4699
  434MOL0     H58542   3.108  10.496   3.867  1.9771 -3.3601  0.9367
  434MOL0     H58543   3.058  10.331   3.821  0.7318 -0.9470  0.7440
  434MOL0     H58544   2.865  10.467   3.691  1.2850  0.7003 -2.4180
  434MOL0     H58545   3.018  10.447   3.622  3.3982  0.3091 -0.4859
  434MOL0     H58546   2.967  10.693   3.608  1.0630  1.8667  1.6074
  434MOL0     H58547   3.092  10.669   3.740  0.2408  0.9793  1.7724
  434MOL0     H58548   2.910  10.830   3.770  0.8916 -1.3532 -1.5851
  434MOL0     H58549   2.939  10.706   3.898 -1.2407 -0.6129  0.7998
  434MOL0     H58550   2.768  10.665   4.018  0.5107  1.8986 -1.3630
  434MOL0     H58551   2.537  10.779   4.271  1.6724  1.7465 -2.0988
  434MOL0     H58552   2.515  10.613   4.242 -1.2517  1.9177  1.7655
  434MOL0     H58553   2.680  10.668   4.238  0.4839 -1.1155  0.3332
  434MOL0     H58554   2.105  10.603   4.177 -0.5760  1.0315  1.5566
  434MOL0     H58555   1.846  10.562   4.218 -3.1813 -0.2482 -2.2382
  434MOL0     H58556   1.568  10.858   4.109  2.7362 -0.3909  0.1993
  434MOL0     H58557   1.590  10.771   3.948 -1.6518 -2.0820 -0.8061
  434MOL0     H58558   1.416  10.610   4.054  2.3207  0.8160 -0.9357
  434MOL0     H58559   1.387  10.737   4.175  1.1905 -2.2149  1.5304
  434MOL0     H58560   1.220  10.766   3.995  0.4628 -0.1038  0.8315
  434MOL0     H58561   1.340  10.737   3.871  1.0717  1.7473 -0.6412
  434MOL0     H58562   1.376  10.971   4.045 -0.0852  1.8529 -1.3955
  434MOL0     H58563   1.442  10.938   3.882  2.3076 -2.5466  1.1491
  434MOL0     H58564   1.271  11.121   3.913 -2.5547  0.7418  0.3799
  434MOL0     H58565   1.164  10.996   3.980 -1.3937 -1.7563 -1.4075
  434MOL0     H58566   1.247  11.006   3.688 -4.0073  2.0359 -3.1050
  434MOL0     H58567   1.153  10.872   3.763  2.1971 -0.3992 -0.1247
  434MOL0     H58568   1.092  11.177   3.753 -0.5911  0.2700 -0.4283
  434MOL0     H58569   0.977  11.039   3.802 -0.3973 -3.0620 -1.3525
  434MOL0     H58570   1.043  10.938   3.575 -0.6020  0.2853  0.7587
  434MOL0     H58571   1.061  11.102   3.520  0.7602  1.7782  1.0210
  434MOL0     H58572   1.758  10.869   3.939  0.0546  0.1596 -0.5659
  434MOL0     H58573   1.990  10.907   3.893 -2.0717  0.9667  0.6423
  434MOL0     H58574   2.338  10.775   3.815 -0.1918  0.0790  2.4468
  434MOL0     H58575   2.539  10.750   3.681  1.7610  1.0812 -0.0443
  434MOL0     H58576   1.797   9.913   4.076  0.3826  0.2069  1.6112
  434MOL0     H58577   1.607   9.792   3.999  3.7907 -1.9039  5.1197
  434MOL0     H58578   1.214   9.688   3.898  0.5340  3.5980 -0.9109
  434MOL0     H58579   1.009   9.600   3.800  0.4227 -0.8104 -0.1779
  434MOL0     H58580   0.580   9.608   3.865 -0.0564  0.4377 -0.6970
  434MOL0     H58581   0.625   9.753   3.962 -1.5842 -0.3196 -0.6090
  434MOL0     H58582   0.776   9.826   3.773 -1.8261  4.1913 -1.1368
  434MOL0     H58583   0.607   9.865   3.780 -0.9163 -0.4304  1.6408
  434MOL0     H58584   0.718   9.638   3.608  1.8986  1.6024 -2.0207
  434MOL0     H58585   0.699   9.811   3.567 -2.7287  2.0903  1.9906
  434MOL0     H58586   0.454   9.793   3.632  0.5871  0.7574 -0.1534
  434MOL0     H58587   0.475   9.627   3.658 -0.3208  1.5593  1.3870
  434MOL0     H58588   0.497   9.644   3.226 -1.2937 -0.5201  0.3804
  434MOL0     H58589   0.779   9.741   4.116 -1.6887  2.7921 -3.4864
  434MOL0     H58590   0.981   9.866   4.210  0.2800  2.0956 -1.6090
  435MOL0     O58591   1.576   7.555   4.879  0.1619 -0.4137 -0.2648
  435MOL0     C58592   1.659   7.576   4.965 -0.6398  0.1494 -0.4775
  435MOL0     O58593   1.646   7.523   5.090  0.4978 -1.0323  0.0227
  435MOL0     C58594   1.523   7.500   5.141 -0.1231 -0.6888  0.4688
  435MOL0     C58595   1.483   7.364   5.160  0.5599  0.6932  0.0475
  435MOL0     C58596   1.360   7.326   5.222  0.3212 -0.2193 -0.3707
  435MOL0     C58597   1.268   7.430   5.250 -0.2261  0.1017 -0.6774
  435MOL0     O58598   1.154   7.376   5.295 -0.5047  0.3847 -0.1932
  435MOL0     C58599   1.037   7.460   5.301 -0.2370 -0.7564  0.9130
  435MOL0     C58600   0.926   7.368   5.358  0.2872 -0.6957  0.5993
  435MOL0     C58601   0.790   7.432   5.315 -0.2184  0.5328  0.3694
  435MOL0     C58602   0.670   7.381   5.393 -0.7766 -0.0483 -0.7227
  435MOL0     C58603   0.535   7.413   5.331 -0.6837  0.5508 -1.5795
  435MOL0     C58604   0.413   7.365   5.405  0.1615  0.1401 -0.7577
  435MOL0     C58605   0.291   7.369   5.313  0.3286 -0.1428 -0.0753
  435MOL0     C58606   0.252   7.502   5.262 -0.0977  1.0120 -0.3314
  435MOL0     N58607   0.115   7.506   5.208  0.3266  0.2044 -0.1864
  435MOL0     C58608   0.001   7.535   5.281  0.2404 -0.2485  0.6354
  435MOL0     C58609  -0.098   7.565   5.198 -0.0472  0.9831 -0.8544
  435MOL0     C58610  -0.237   7.586   5.243  0.3560  0.3549  0.1983
  435MOL0     C58611  -0.326   7.464   5.250 -0.4903  0.1452 -0.4566
  435MOL0     C58612  -0.333   7.379   5.122  0.1106  0.1290  0.4480
  435MOL0     C58613  -0.409   7.248   5.138 -0.3187 -0.8890  0.2640
  435MOL0     O58614  -0.544   7.258   5.159  0.3340  0.4163 -0.1894
  435MOL0     C58615  -0.627   7.236   5.054 -0.5067  0.4302 -0.2373
  435MOL0     C58616  -0.627   7.108   5.004 -0.3938  0.7109 -0.2054
  435MOL0     C58617  -0.711   7.067   4.897 -0.7734 -0.2893 -0.5718
  435MOL0     C58618  -0.704   6.922   4.857  1.0737  0.9029  0.2093
  435MOL0     C58619  -0.792   7.168   4.841 -0.5468 -0.2439  0.2161
  435MOL0     C58620  -0.888   7.137   4.732  0.3838 -0.1000  0.1169
  435MOL0     O58621  -0.895   7.225   4.627 -0.7397 -0.0492  0.0897
  435MOL0     C58622  -0.994   7.219   4.531  0.0969  0.7205 -0.7207
  435MOL0     C58623  -1.124   7.171   4.558  0.8389 -0.4797 -0.8302
  435MOL0     C58624  -1.219   7.164   4.456 -0.5344 -0.3649  0.0825
  435MOL0     C58625  -1.194   7.222   4.333  0.2950 -0.0769 -0.2024
  435MOL0     O58626  -1.289   7.218   4.238 -0.5624 -0.2281  0.4705
  435MOL0     C58627  -1.261   7.241   4.098  0.6709  0.2919  0.4458
  435MOL0     C58628  -1.287   7.376   4.048 -0.3015 -0.2836 -0.4354
  435MOL0     C58629  -1.433   7.440   4.075 -0.0055  0.0145  0.0006
  435MOL0     C58630  -1.551   7.354   4.016 -0.5714  0.2706  0.5333
  435MOL0     C58631  -1.688   7.426   4.021  0.5220 -0.3814 -0.7137
  435MOL0     C58632  -1.799   7.353   3.941 -0.5844 -0.2457  0.5349
  435MOL0     C58633  -1.930   7.431   3.941 -0.5710  0.2493 -0.0929
  435MOL0     C58634  -2.031   7.401   3.831 -0.4500 -0.4112  0.2950
  435MOL0    Cl58635  -2.111   7.249   3.877 -0.3191  0.5592  0.1896
  435MOL0     C58636  -1.074   7.289   4.315 -1.1750 -0.4262 -0.6093
  435MOL0     C58637  -0.973   7.275   4.407  0.4993 -0.7217 -0.7979
  435MOL0     O58638  -0.938   7.023   4.733  0.6254 -0.2691 -0.0108
  435MOL0     C58639  -0.791   7.293   4.890 -1.3496 -0.9680  0.4613
  435MOL0     C58640  -0.713   7.336   4.999 -0.4787 -0.4124 -0.1257
  435MOL0     N58641  -0.041   7.571   5.075  0.6107 -0.4098 -0.7465
  435MOL0     N58642   0.083   7.544   5.080 -0.3769  0.3990  0.3377
  435MOL0     C58643   1.300   7.566   5.230 -0.0018 -0.6229  0.3542
  435MOL0     C58644   1.433   7.598   5.184 -0.8608  0.2426 -0.1188
  435MOL0     C58645   1.794   7.623   4.929  0.5869  0.7697  0.8359
  435MOL0     C58646   1.891   7.631   5.029 -0.1628  0.4218  0.3224
  435MOL0     C58647   2.020   7.679   4.997  0.0562 -0.0356 -1.3043
  435MOL0     C58648   2.044   7.729   4.871  0.0828 -0.0746  0.4878
  435MOL0     O58649   2.158   7.790   4.826 -0.2711  0.3481 -0.4869
  435MOL0     C58650   2.274   7.738   4.901  0.2671 -0.0163  0.2140
  435MOL0     C58651   2.394   7.714   4.806  0.6106 -0.3680  0.1694
  435MOL0     C58652   2.406   7.820   4.699 -0.2475 -0.0940  0.0368
  435MOL0     C58653   2.418   7.953   4.769 -0.8840 -0.5415  0.0263
  435MOL0     C58654   2.543   7.975   4.845  0.2793 -0.2975  0.3023
  435MOL0     C58655   2.651   7.994   4.882 -0.8264  0.6106  0.4237
  435MOL0     C58656   1.943   7.721   4.776  0.7727  0.4431  0.3642
  435MOL0     C58657   1.820   7.670   4.801  0.4377  0.0538 -0.1101
  435MOL0     H58658   1.561   7.293   5.136  0.7544  1.5743 -2.2018
  435MOL0     H58659   1.345   7.219   5.237 -1.6440 -0.0163 -0.5560
  435MOL0     H58660   1.047   7.542   5.372 -3.9328 -1.1663  2.1119
  435MOL0     H58661   1.004   7.493   5.202  1.6682  0.3151  0.5837
  435MOL0     H58662   0.927   7.267   5.317  4.1098 -1.0911  1.3531
  435MOL0     H58663   0.942   7.382   5.465  3.9583 -2.4324  0.4167
  435MOL0     H58664   0.800   7.540   5.325  0.0125  0.9866 -3.2916
  435MOL0     H58665   0.779   7.406   5.209  1.6782  0.0550  0.2628
  435MOL0     H58666   0.681   7.272   5.398 -0.2126  0.0501  1.4090
  435MOL0     H58667   0.678   7.408   5.499  0.4783 -4.8683  0.6413
  435MOL0     H58668   0.532   7.521   5.314  0.7095  0.8953  0.0665
  435MOL0     H58669   0.541   7.369   5.231  0.2570 -1.3146 -0.7572
  435MOL0     H58670   0.440   7.262   5.429 -0.5982  0.1461  0.2147
  435MOL0     H58671   0.391   7.411   5.502 -1.6033 -0.3617 -0.8834
  435MOL0     H58672   0.305   7.304   5.227  1.1789 -3.7347  2.5312
  435MOL0     H58673   0.208   7.329   5.371  0.5426 -1.1116 -0.4331
  435MOL0     H58674   0.317   7.522   5.177  1.3602 -2.6434 -0.2679
  435MOL0     H58675   0.269   7.586   5.330  0.1915  0.8981 -0.2604
  435MOL0     H58676  -0.014   7.524   5.388  2.5192  0.2725  1.0584
  435MOL0     H58677  -0.237   7.634   5.341 -1.2424 -0.1686  0.4734
  435MOL0     H58678  -0.280   7.665   5.180  3.1267  2.6145  0.9413
  435MOL0     H58679  -0.432   7.488   5.262 -0.5565  0.7589 -1.9826
  435MOL0     H58680  -0.306   7.398   5.335 -1.8257  0.5014  0.1544
  435MOL0     H58681  -0.227   7.360   5.101  0.4512  3.4925 -1.6637
  435MOL0     H58682  -0.368   7.446   5.043 -3.0076 -0.4065  1.2401
  435MOL0     H58683  -0.369   7.197   5.226 -0.6498 -0.8611  0.4334
  435MOL0     H58684  -0.388   7.188   5.049  0.2201 -0.7294  0.2780
  435MOL0     H58685  -0.562   7.037   5.055 -0.2284  0.9108 -0.1381
  435MOL0     H58686  -0.628   6.864   4.910 -2.0531 -2.3871  1.5073
  435MOL0     H58687  -0.800   6.869   4.864  1.2038  0.8819  2.3114
  435MOL0     H58688  -0.674   6.930   4.752  1.1659  2.9277  0.3430
  435MOL0     H58689  -1.148   7.133   4.657 -2.2822  0.0055 -1.2907
  435MOL0     H58690  -1.319   7.129   4.477 -0.5891  1.9581  4.8046
  435MOL0     H58691  -1.159   7.207   4.079  1.3631  1.2869  2.1392
  435MOL0     H58692  -1.320   7.174   4.035  1.2260 -1.0357  1.2897
  435MOL0     H58693  -1.209   7.440   4.091  0.1724 -2.1936  1.8038
  435MOL0     H58694  -1.286   7.367   3.939 -3.6656 -0.6799 -0.5325
  435MOL0     H58695  -1.426   7.536   4.023 -1.2107 -0.9599 -2.1205
  435MOL0     H58696  -1.447   7.463   4.181  0.3435 -0.0014  0.0504
  435MOL0     H58697  -1.531   7.335   3.910  0.8431  0.8360  0.6693
  435MOL0     H58698  -1.561   7.253   4.056 -2.3358  0.4089  0.5092
  435MOL0     H58699  -1.681   7.528   3.982  0.6284  1.2703  3.1135
  435MOL0     H58700  -1.712   7.429   4.128  1.5607  0.5035 -0.4843
  435MOL0     H58701  -1.775   7.333   3.836 -4.1382 -1.2494 -0.2107
  435MOL0     H58702  -1.821   7.256   3.985 -1.5539 -1.1350 -1.7311
  435MOL0     H58703  -1.915   7.539   3.925 -0.6905  0.2897  0.0556
  435MOL0     H58704  -1.976   7.419   4.040  2.0492  0.7714  1.2863
  435MOL0     H58705  -1.989   7.405   3.731  2.2694  1.6232  1.4080
  435MOL0     H58706  -2.103   7.484   3.830 -1.5234 -1.3081  0.4181
  435MOL0     H58707  -1.049   7.354   4.232  4.8590  0.4682  1.4259
  435MOL0     H58708  -0.882   7.333   4.398  0.1637  0.0722  0.6854
  435MOL0     H58709  -0.855   7.358   4.832 -1.0772 -2.3667 -1.5190
  435MOL0     H58710  -0.705   7.437   5.039 -2.7381 -0.8414  1.6080
  435MOL0     H58711   1.236   7.653   5.243  1.8695  1.1881 -1.6592
  435MOL0     H58712   1.464   7.702   5.178  2.5912 -0.6911 -0.9569
  435MOL0     H58713   1.869   7.609   5.133  2.7509  1.6503  1.3200
  435MOL0     H58714   2.091   7.681   5.080  1.0710  2.7083 -2.1122
  435MOL0     H58715   2.292   7.799   4.990 -0.9436  3.7443 -1.9340
  435MOL0     H58716   2.253   7.636   4.937  0.2362  0.2565  0.9989
  435MOL0     H58717   2.380   7.623   4.747 -2.7792 -1.0783  1.7924
  435MOL0     H58718   2.489   7.704   4.858  0.4050  1.8497  1.0684
  435MOL0     H58719   2.318   7.825   4.634 -1.3021 -1.7885  1.2620
  435MOL0     H58720   2.499   7.806   4.644 -0.3565 -0.9703  0.0695
  435MOL0     H58721   2.329   7.973   4.829 -0.4284 -0.2848  0.6230
  435MOL0     H58722   2.408   8.026   4.689  0.4302 -1.6085 -1.1822
  435MOL0     H58723   2.747   8.009   4.928 -0.8307 -1.2876  1.1387
  435MOL0     H58724   1.954   7.749   4.672  0.8540 -0.2655  0.1835
  435MOL0     H58725   1.745   7.663   4.722 -0.6123 -1.2525  0.9467
  436MOL0     O58726   9.883   9.020   4.185 -0.0869  0.4551  0.1394
  436MOL0     C58727   9.948   9.121   4.147  0.0372  0.4317  0.6325
  436MOL0     O58728   9.901   9.245   4.137  1.0509  0.4056 -0.2671
  436MOL0     C58729   9.763   9.261   4.145  0.3889  0.0033 -0.8914
  436MOL0     C58730   9.683   9.220   4.044  0.8163 -1.2690 -0.7657
  436MOL0     C58731   9.548   9.253   4.037  0.5034  0.7951 -0.7647
  436MOL0     C58732   9.489   9.304   4.151 -0.3087 -0.3491  0.0161
  436MOL0     O58733   9.352   9.330   4.170 -0.6944 -0.2539  0.4396
  436MOL0     C58734   9.274   9.316   4.049 -0.4141  0.5456  0.7418
  436MOL0     C58735   9.129   9.348   4.068 -0.3604 -0.4123  0.3022
  436MOL0     C58736   9.070   9.407   3.933  0.5365  0.4737  0.4841
  436MOL0     C58737   8.926   9.448   3.940  0.4652  0.8170 -0.2467
  436MOL0     C58738   8.879   9.459   3.801  0.3416 -0.1934  0.4154
  436MOL0     C58739   8.726   9.490   3.796  0.4258  0.6149 -0.8075
  436MOL0     C58740   8.655   9.468   3.659 -0.0640  0.4335  0.2079
  436MOL0     C58741   8.513   9.411   3.671 -0.0206  0.5068 -0.1191
  436MOL0     N58742   8.420   9.499   3.739  0.3668  0.2444 -1.0172
  436MOL0     C58743   8.369   9.617   3.685 -0.8487  0.7705  0.3560
  436MOL0     C58744   8.284   9.663   3.785  0.5335  0.0072 -0.8464
  436MOL0     C58745   8.196   9.789   3.791  0.1029 -0.8945  0.1922
  436MOL0     C58746   8.062   9.766   3.717  1.0835 -0.5545  0.3849
  436MOL0     C58747   8.014   9.884   3.643 -0.5110  0.1423 -1.0043
  436MOL0     C58748   7.877   9.873   3.580  0.9280  0.3317  0.0129
  436MOL0     O58749   7.796   9.806   3.676 -0.2317  0.2031 -1.0354
  436MOL0     C58750   7.661   9.774   3.644 -0.9236 -0.4342 -0.2072
  436MOL0     C58751   7.590   9.688   3.729  0.3986 -0.9997  0.3845
  436MOL0     C58752   7.458   9.656   3.692  0.4314  0.1705  0.6378
  436MOL0     C58753   7.395   9.547   3.782 -0.0686  0.2855 -0.5578
  436MOL0     C58754   7.393   9.707   3.573  0.2337  0.2826 -0.2813
  436MOL0     C58755   7.262   9.675   3.517 -0.2044  0.3193  0.6033
  436MOL0     O58756   7.189   9.577   3.580  0.2342 -0.0897  0.3587
  436MOL0     C58757   7.073   9.531   3.523  0.0660 -0.0206  0.9301
  436MOL0     C58758   6.948   9.574   3.562 -0.1248  0.3559 -0.4300
  436MOL0     C58759   6.840   9.512   3.509 -0.1224 -0.2675  0.1124
  436MOL0     C58760   6.848   9.413   3.405 -0.2689 -0.6799  0.0999
  436MOL0     O58761   6.737   9.373   3.334 -0.1505  0.5621 -0.5431
  436MOL0     C58762   6.626   9.465   3.305  0.2276  0.4879  0.2265
  436MOL0     C58763   6.489   9.399   3.269 -0.5273 -0.2027 -0.2687
  436MOL0     C58764   6.415   9.375   3.403  0.2081 -0.0859 -0.9328
  436MOL0     C58765   6.274   9.327   3.379  0.3732 -0.0096 -0.2330
  436MOL0     C58766   6.227   9.220   3.479  0.0232 -0.2079  0.2846
  436MOL0     C58767   6.238   9.260   3.631 -0.2242  0.8878 -0.6945
  436MOL0     C58768   6.195   9.136   3.702  0.1940  0.2210  0.0527
  436MOL0     C58769   6.187   9.154   3.854  0.3008  0.1959 -0.2113
  436MOL0    Cl58770   6.344   9.159   3.935 -0.2434  0.3240  0.2222
  436MOL0     C58771   6.974   9.380   3.355  0.1349 -0.8986  0.3365
  436MOL0     C58772   7.088   9.433   3.420  0.5629  0.6195  0.0676
  436MOL0     O58773   7.231   9.728   3.418  0.2249  0.2126  0.0361
  436MOL0     C58774   7.467   9.800   3.499 -0.0012 -1.1113 -0.9988
  436MOL0     C58775   7.593   9.836   3.533  0.1871 -0.0060  0.4542
  436MOL0     N58776   8.273   9.567   3.880  0.4043  0.0771 -0.2667
  436MOL0     N58777   8.345   9.466   3.854 -0.2105 -0.8903  0.2273
  436MOL0     C58778   9.570   9.333   4.265 -0.5952  0.2539 -0.2985
  436MOL0     C58779   9.703   9.312   4.257  0.8341 -0.6950 -0.8953
  436MOL0     C58780  10.083   9.098   4.098 -0.8177  0.2102 -0.7594
  436MOL0     C58781  10.125   8.972   4.059  0.4274 -0.1409  0.3165
  436MOL0     C58782  10.259   8.950   4.015  0.0655  0.5812 -0.1512
  436MOL0     C58783  10.347   9.055   4.015  0.2298 -0.6047  0.4146
  436MOL0     O58784  10.474   9.043   3.967  0.1628 -0.2680  0.4461
  436MOL0     C58785  10.494   8.959   3.853  0.1369  0.1191 -0.6371
  436MOL0     C58786  10.616   9.006   3.766  0.6225 -0.2618  0.1785
  436MOL0     C58787  10.735   9.049   3.844 -0.5916  0.7154  0.4158
  436MOL0     C58788  10.815   8.922   3.889  0.1038 -0.3248  0.0373
  436MOL0     C58789  10.939   8.951   3.959  0.3401 -0.6786  0.5410
  436MOL0     C58790  11.036   8.957   4.025 -1.7388 -0.6663  0.4061
  436MOL0     C58791  10.311   9.179   4.068 -0.2221  0.1621 -0.4983
  436MOL0     C58792  10.174   9.201   4.087 -0.4316 -0.8537 -0.0611
  436MOL0     H58793   9.740   9.169   3.967  0.4428 -2.2807 -0.3928
  436MOL0     H58794   9.494   9.223   3.948 -0.7627 -0.7088  0.4469
  436MOL0     H58795   9.318   9.377   3.970  0.8994 -3.0402 -1.5102
  436MOL0     H58796   9.280   9.214   4.011 -1.7700  0.3725  0.9219
  436MOL0     H58797   9.072   9.257   4.090 -4.0680  1.4655 -0.7177
  436MOL0     H58798   9.107   9.420   4.147  0.4243 -0.6983  0.7893
  436MOL0     H58799   9.128   9.493   3.899  0.7595 -0.6793 -2.3588
  436MOL0     H58800   9.093   9.328   3.860  1.9664  0.0777  1.3253
  436MOL0     H58801   8.861   9.367   3.975 -0.6181  1.8508  0.1790
  436MOL0     H58802   8.910   9.539   3.999  0.5130  0.1018  0.9011
  436MOL0     H58803   8.926   9.545   3.752  0.7913  0.2249  1.5354
  436MOL0     H58804   8.901   9.370   3.742 -1.2067  0.5299 -1.3228
  436MOL0     H58805   8.672   9.434   3.872 -1.8594  0.5666 -2.3496
  436MOL0     H58806   8.711   9.592   3.832 -1.5001  0.1627 -0.1946
  436MOL0     H58807   8.647   9.568   3.616  1.2488  1.3213  1.9179
  436MOL0     H58808   8.714   9.409   3.589  1.1320  1.8318 -0.0071
  436MOL0     H58809   8.508   9.315   3.724 -0.6675  0.2340 -0.6530
  436MOL0     H58810   8.477   9.381   3.572  0.2596  1.1373 -0.4141
  436MOL0     H58811   8.392   9.684   3.603  1.0731 -0.9950 -0.6431
  436MOL0     H58812   8.164   9.799   3.896 -0.0699 -2.4258  0.3057
  436MOL0     H58813   8.250   9.879   3.760  0.5445 -0.4851  1.9999
  436MOL0     H58814   7.989   9.730   3.790  1.0557 -0.3530  0.4583
  436MOL0     H58815   8.087   9.679   3.656  2.7230 -0.3132  0.6695
  436MOL0     H58816   8.090   9.922   3.575 -1.7647 -1.1569 -3.2709
  436MOL0     H58817   7.999   9.968   3.711 -0.3137  0.3069 -1.1671
  436MOL0     H58818   7.882   9.827   3.481 -0.3660 -1.8343  0.8846
  436MOL0     H58819   7.835   9.969   3.550 -2.2129 -0.9944 -0.2375
  436MOL0     H58820   7.638   9.647   3.817 -1.9874  3.1240  4.0106
  436MOL0     H58821   7.309   9.594   3.831  1.3774  1.5198  0.8903
  436MOL0     H58822   7.375   9.456   3.724  2.3235 -0.4643 -0.3073
  436MOL0     H58823   7.469   9.527   3.859  2.4228  1.0794 -2.6257
  436MOL0     H58824   6.935   9.661   3.625  0.1509 -0.7348  1.2079
  436MOL0     H58825   6.747   9.545   3.552  1.1783  2.0704  1.3474
  436MOL0     H58826   6.621   9.523   3.397  0.0976 -1.2217  1.3561
  436MOL0     H58827   6.654   9.530   3.222  2.0848 -0.1548  0.2983
  436MOL0     H58828   6.439   9.473   3.207  0.8855 -0.1920 -1.4555
  436MOL0     H58829   6.498   9.309   3.207 -0.3236 -0.5938  0.3212
  436MOL0     H58830   6.422   9.470   3.456  0.1660 -0.0591 -0.9745
  436MOL0     H58831   6.474   9.300   3.457  1.8634  1.7058 -0.1418
  436MOL0     H58832   6.213   9.418   3.383 -1.8193 -1.3920 -0.9362
  436MOL0     H58833   6.270   9.276   3.282 -0.2299 -1.7937  0.6984
  436MOL0     H58834   6.280   9.125   3.466 -0.6877 -1.2226  3.6431
  436MOL0     H58835   6.124   9.194   3.453  0.2387 -0.2186 -0.5882
  436MOL0     H58836   6.339   9.292   3.659  0.2536 -2.2586  1.7022
  436MOL0     H58837   6.171   9.343   3.654 -0.7542  0.7510 -1.6858
  436MOL0     H58838   6.274   9.065   3.676 -0.9764 -0.5164 -1.6976
  436MOL0     H58839   6.101   9.109   3.653  1.1684  0.7422 -2.1904
  436MOL0     H58840   6.121   9.078   3.897  0.3449 -0.0590 -0.5885
  436MOL0     H58841   6.128   9.244   3.876  1.5608  1.2569 -1.0026
  436MOL0     H58842   6.991   9.315   3.270  0.8442  2.0375 -1.9722
  436MOL0     H58843   7.186   9.408   3.381 -0.7996 -2.5959 -1.7322
  436MOL0     H58844   7.428   9.847   3.409 -1.7878 -0.3912  0.0975
  436MOL0     H58845   7.645   9.910   3.473 -2.1939  0.9261 -0.5660
  436MOL0     H58846   9.518   9.349   4.359  0.3227 -1.1411  0.4862
  436MOL0     H58847   9.766   9.335   4.343  2.6489  2.6593 -2.9328
  436MOL0     H58848  10.060   8.887   4.044  1.5114 -0.8544 -0.5530
  436MOL0     H58849  10.281   8.850   3.979  2.2948 -0.2714  3.1064
  436MOL0     H58850  10.508   8.862   3.902  0.1968 -0.1498 -1.1788
  436MOL0     H58851  10.406   8.948   3.789  0.6419 -2.1189 -1.0299
  436MOL0     H58852  10.579   9.098   3.720 -1.7494 -0.3513  1.7236
  436MOL0     H58853  10.638   8.924   3.698  0.6710 -1.5429  1.6631
  436MOL0     H58854  10.707   9.099   3.936 -1.1880 -0.1754  0.7317
  436MOL0     H58855  10.805   9.106   3.782 -1.0504  0.1401 -0.6776
  436MOL0     H58856  10.843   8.869   3.798 -0.4055  1.6966 -1.3604
  436MOL0     H58857  10.756   8.846   3.939 -1.4948 -0.5680 -2.0925
  436MOL0     H58858  11.107   8.961   4.105 -2.2683 -2.5783  1.0245
  436MOL0     H58859  10.384   9.259   4.069 -1.3244  1.2395  2.3398
  436MOL0     H58860  10.148   9.302   4.116 -1.3800 -0.5238 -1.9528
  437MOL0     O58861   3.901   4.103  11.279 -0.0758  0.5177  0.0442
  437MOL0     C58862   3.974   4.152  11.367  0.8716 -0.2516  0.2267
  437MOL0     O58863   3.946   4.267  11.442 -0.7610  1.0269 -0.3230
  437MOL0     C58864   3.843   4.352  11.417 -0.0734 -0.1844 -0.5945
  437MOL0     C58865   3.871   4.491  11.415  0.5671 -0.2547  0.3325
  437MOL0     C58866   3.763   4.581  11.387  1.2222  0.9313 -0.0374
  437MOL0     C58867   3.637   4.537  11.347  0.5166 -0.6942  0.0833
  437MOL0     O58868   3.530   4.618  11.326 -0.2047 -0.0623 -0.3150
  437MOL0     C58869   3.542   4.756  11.313  0.1918 -0.0124 -0.1691
  437MOL0     C58870   3.400   4.813  11.314 -0.4827 -0.7106  0.2805
  437MOL0     C58871   3.321   4.790  11.183 -0.1193 -0.3589  0.1882
  437MOL0     C58872   3.227   4.664  11.199  0.6506  0.0687 -0.8429
  437MOL0     C58873   3.119   4.630  11.095 -0.5309  0.1487  0.7704
  437MOL0     C58874   3.033   4.513  11.124  0.2602  0.6812  0.3133
  437MOL0     C58875   2.920   4.495  11.025  0.5774  0.6695  0.0621
  437MOL0     C58876   2.829   4.369  11.064  0.0354  0.0049  0.3768
  437MOL0     N58877   2.688   4.382  11.007  0.0109  0.4291 -0.5514
  437MOL0     C58878   2.653   4.306  10.895  0.1291 -0.2069 -0.3088
  437MOL0     C58879   2.518   4.333  10.883 -0.1360  0.1887  0.0866
  437MOL0     C58880   2.424   4.260  10.791  0.3424 -0.6832 -0.5104
  437MOL0     C58881   2.427   4.110  10.798  0.6739 -0.2685  0.1060
  437MOL0     C58882   2.372   4.062  10.933 -0.1015 -0.0754 -0.2332
  437MOL0     C58883   2.216   4.079  10.940  0.1451 -0.3223  0.1389
  437MOL0     O58884   2.145   3.997  10.848  0.5367 -0.1975  0.0983
  437MOL0     C58885   2.044   3.936  10.914  0.0064  0.0073 -0.1702
  437MOL0     C58886   2.075   3.828  10.999 -0.6939 -0.2047 -0.9823
  437MOL0     C58887   1.973   3.745  11.057  0.2659 -0.0075  0.8370
  437MOL0     C58888   2.023   3.634  11.143  0.7732  0.1636 -0.1665
  437MOL0     C58889   1.840   3.769  11.018 -0.3431 -0.0481  0.5255
  437MOL0     C58890   1.727   3.679  11.042  0.0912  0.6953 -0.6437
  437MOL0     O58891   1.618   3.698  10.966  0.4547 -0.0999  0.1022
  437MOL0     C58892   1.503   3.625  10.989 -0.3204  0.2088 -0.1745
  437MOL0     C58893   1.490   3.485  10.972  0.3934 -0.3001  0.0812
  437MOL0     C58894   1.367   3.418  10.977 -0.0374 -0.8940  0.2393
  437MOL0     C58895   1.246   3.488  11.009 -0.6614 -0.2360  0.5428
  437MOL0     O58896   1.122   3.441  11.018  0.1943  0.4409 -0.3818
  437MOL0     C58897   1.102   3.311  10.965 -1.3577  0.0041  0.5820
  437MOL0     C58898   0.956   3.261  10.978 -0.2094 -0.5489 -0.2142
  437MOL0     C58899   0.859   3.358  10.917 -0.1569  0.2637  0.5909
  437MOL0     C58900   0.712   3.324  10.942  0.3177  0.0846 -0.2743
  437MOL0     C58901   0.636   3.434  10.856  0.6497 -0.4692  0.6380
  437MOL0     C58902   0.495   3.375  10.833 -0.8374 -1.3266 -0.3227
  437MOL0     C58903   0.399   3.468  10.759  0.7287  0.7182  0.6350
  437MOL0     C58904   0.449   3.502  10.622  0.4194 -1.0192  0.2582
  437MOL0    Cl58905   0.307   3.544  10.507 -0.6064  0.0251  0.6477
  437MOL0     C58906   1.262   3.624  11.039 -0.0031 -0.0525 -1.2853
  437MOL0     C58907   1.380   3.693  11.017  0.3520 -0.1159 -0.3157
  437MOL0     O58908   1.744   3.570  11.107  0.0258 -0.3798  0.4696
  437MOL0     C58909   1.810   3.879  10.936 -0.7149 -0.5811  0.4510
  437MOL0     C58910   1.909   3.966  10.893 -0.3180  0.2598  0.1026
  437MOL0     N58911   2.484   4.436  10.964  0.6340  0.1731  0.1306
  437MOL0     N58912   2.586   4.464  11.044  0.1338  0.0667 -0.1529
  437MOL0     C58913   3.615   4.404  11.339  0.2925 -1.0025 -0.3145
  437MOL0     C58914   3.716   4.307  11.372  0.1406  0.0998 -0.8610
  437MOL0     C58915   4.110   4.083  11.381 -0.1281 -0.0561 -1.3234
  437MOL0     C58916   4.161   3.990  11.287  0.0526  0.9805  0.0871
  437MOL0     C58917   4.294   3.947  11.288 -0.2128  0.5390  0.6712
  437MOL0     C58918   4.383   3.989  11.392  0.3585  0.0309 -0.5153
  437MOL0     O58919   4.512   3.965  11.411 -0.3925 -0.1067  0.1260
  437MOL0     C58920   4.573   3.858  11.335 -0.2654  0.3864 -0.1122
  437MOL0     C58921   4.715   3.825  11.381  0.6938 -0.2689  0.4407
  437MOL0     C58922   4.771   3.695  11.329 -1.4689  0.6311  0.6243
  437MOL0     C58923   4.788   3.688  11.175 -0.1401  0.5863 -0.0678
  437MOL0     C58924   4.854   3.811  11.126 -0.1174  0.3013 -0.2988
  437MOL0     C58925   4.920   3.899  11.077 -0.5140 -0.0060 -0.1483
  437MOL0     C58926   4.325   4.067  11.495  0.2351  0.1317 -0.4841
  437MOL0     C58927   4.194   4.117  11.485  0.2073  0.1863  1.3073
  437MOL0     H58928   3.969   4.533  11.432  0.3224  0.2583  0.5003
  437MOL0     H58929   3.773   4.689  11.398 -2.6152  1.5399 -1.0834
  437MOL0     H58930   3.596   4.799  11.398 -0.0056  0.2570 -0.1802
  437MOL0     H58931   3.587   4.772  11.214 -0.7589 -2.4015 -1.0719
  437MOL0     H58932   3.346   4.769  11.398 -2.1159 -0.1356 -0.4308
  437MOL0     H58933   3.421   4.920  11.323 -0.0256 -0.7302 -0.4444
  437MOL0     H58934   3.275   4.888  11.167 -0.6055 -0.3751  1.3495
  437MOL0     H58935   3.379   4.767  11.094 -0.6947 -0.4168 -0.1822
  437MOL0     H58936   3.307   4.591  11.212  1.9679  1.9652  3.7102
  437MOL0     H58937   3.177   4.668  11.296  0.4903 -0.0189 -0.9206
  437MOL0     H58938   3.058   4.720  11.080 -0.7757 -0.3206 -1.3091
  437MOL0     H58939   3.172   4.626  11.000 -0.7701  0.0003  0.6432
  437MOL0     H58940   3.084   4.416  11.129 -1.7740 -0.5321 -1.0653
  437MOL0     H58941   2.998   4.523  11.228 -1.9989 -0.4626 -0.2694
  437MOL0     H58942   2.853   4.582  11.024  0.1423  0.3443  0.4151
  437MOL0     H58943   2.958   4.477  10.924  0.0576 -1.6458  0.2169
  437MOL0     H58944   2.817   4.356  11.172  0.1844  1.7443  0.6306
  437MOL0     H58945   2.885   4.279  11.034  0.7076  0.0450  1.4594
  437MOL0     H58946   2.709   4.227  10.846 -1.8615 -1.0824 -1.2821
  437MOL0     H58947   2.323   4.299  10.807  0.3202 -0.7305 -0.5344
  437MOL0     H58948   2.456   4.290  10.690  1.2109 -0.5473 -0.2009
  437MOL0     H58949   2.531   4.076  10.806  0.8563  0.0172 -0.9916
  437MOL0     H58950   2.390   4.068  10.705  0.7108  2.7781 -1.4052
  437MOL0     H58951   2.416   4.117  11.016 -0.3868 -1.0280  0.5627
  437MOL0     H58952   2.398   3.957  10.949  2.0026  0.4700  0.1868
  437MOL0     H58953   2.182   4.178  10.911 -2.4649 -1.3956 -0.7838
  437MOL0     H58954   2.182   4.060  11.043 -0.2525  1.2625  0.3247
  437MOL0     H58955   2.179   3.801  11.013  0.1450  3.0913  0.0690
  437MOL0     H58956   2.012   3.537  11.094  0.1207 -0.4007  1.0576
  437MOL0     H58957   2.127   3.650  11.169  0.1525 -0.5764  3.2717
  437MOL0     H58958   1.972   3.626  11.240  0.4158 -3.8521 -0.5013
  437MOL0     H58959   1.571   3.414  10.952  0.1550 -0.9078  1.1821
  437MOL0     H58960   1.369   3.312  10.955  0.5852 -0.7554 -0.4192
  437MOL0     H58961   1.131   3.314  10.859  0.1109  2.0026  0.9790
  437MOL0     H58962   1.166   3.247  11.026 -0.6366 -0.4717 -0.6480
  437MOL0     H58963   0.944   3.162  10.935 -2.7041  0.1672 -1.3260
  437MOL0     H58964   0.948   3.249  11.087  0.4130 -0.8223 -0.1965
  437MOL0     H58965   0.879   3.372  10.810 -2.1378  6.5296  0.6024
  437MOL0     H58966   0.885   3.460  10.949  0.0275  1.5264 -3.1396
  437MOL0     H58967   0.684   3.222  10.912  0.3840 -0.1745  0.5129
  437MOL0     H58968   0.690   3.326  11.049  0.8380 -3.6404  0.0543
  437MOL0     H58969   0.680   3.446  10.757 -1.3156  0.8922 -0.1383
  437MOL0     H58970   0.627   3.523  10.920 -4.4702 -1.6286  1.9544
  437MOL0     H58971   0.509   3.278  10.785  0.9881  0.3256 -3.4648
  437MOL0     H58972   0.461   3.365  10.937  3.1071  2.7779  1.7379
  437MOL0     H58973   0.388   3.556  10.823  1.0370  2.0650 -1.0919
  437MOL0     H58974   0.303   3.416  10.746  0.2793  1.7444 -0.2352
  437MOL0     H58975   0.499   3.419  10.572 -0.1576  0.0419 -2.2998
  437MOL0     H58976   0.522   3.583  10.630  0.7846 -1.3353  0.1443
  437MOL0     H58977   1.170   3.677  11.060  0.3319  0.1239 -0.1666
  437MOL0     H58978   1.378   3.800  11.032 -0.5572 -0.3952  2.0361
  437MOL0     H58979   1.710   3.896  10.897 -0.3309 -1.6550 -1.0376
  437MOL0     H58980   1.879   4.043  10.823 -1.7326 -2.6726 -2.7431
  437MOL0     H58981   3.515   4.374  11.310  0.3478  0.1299 -1.7848
  437MOL0     H58982   3.688   4.204  11.354  1.5843 -0.5864  0.5934
  437MOL0     H58983   4.090   3.951  11.215  0.5441  0.7919 -0.3033
  437MOL0     H58984   4.352   3.898  11.211  1.1166  0.4305  1.7103
  437MOL0     H58985   4.516   3.766  11.354  2.3607 -1.1333  0.9313
  437MOL0     H58986   4.570   3.883  11.229 -1.5872 -0.5107 -0.3203
  437MOL0     H58987   4.730   3.810  11.488  2.7094  0.2027  0.2736
  437MOL0     H58988   4.767   3.916  11.349 -1.4294 -0.0354 -2.7766
  437MOL0     H58989   4.706   3.608  11.342 -1.2011  0.4918  1.0509
  437MOL0     H58990   4.867   3.673  11.375 -1.5998  0.7491  0.9586
  437MOL0     H58991   4.687   3.685  11.133 -1.1641 -0.5644  2.2870
  437MOL0     H58992   4.838   3.596  11.143  3.0090  3.0519 -2.9989
  437MOL0     H58993   4.998   3.959  11.036 -0.8850 -0.8931 -2.2613
  437MOL0     H58994   4.378   4.096  11.585 -0.7610 -0.2354  0.2346
  437MOL0     H58995   4.152   4.190  11.554 -5.5878  2.3555 -3.6132
  438MOL0     O58996   2.319  10.921   7.499 -0.0474  0.1163  0.1598
  438MOL0     C58997   2.432  10.967   7.488 -0.5608 -0.4588 -0.0552
  438MOL0     O58998   2.473  11.100   7.506  0.1676  0.1605  0.7272
  438MOL0     C58999   2.377  11.202   7.530 -0.4861  1.3934  0.3368
  438MOL0     C59000   2.260  11.190   7.605 -0.1826  0.4462 -0.1988
  438MOL0     C59001   2.176  11.300   7.636  0.4234 -0.2755  0.2752
  438MOL0     C59002   2.184  11.420   7.559 -0.3175  0.1858 -0.3340
  438MOL0     O59003   2.093  11.520   7.586  0.3449 -0.7099  0.2528
  438MOL0     C59004   2.053  11.601   7.473  0.8586  0.8722  0.0459
  438MOL0     C59005   1.940  11.693   7.517  0.0123  0.1369 -0.5058
  438MOL0     C59006   1.801  11.626   7.506 -1.0385  0.7509  0.0149
  438MOL0     C59007   1.690  11.714   7.556  0.0889  0.2855  0.1270
  438MOL0     C59008   1.551  11.667   7.502  1.0781  1.0275 -0.0713
  438MOL0     C59009   1.443  11.736   7.593 -0.8650  0.0675  0.1294
  438MOL0     C59010   1.299  11.714   7.540 -0.0190 -0.1165  0.8831
  438MOL0     C59011   1.262  11.573   7.501 -0.2776 -0.8202 -0.2217
  438MOL0     N59012   1.113  11.557   7.495  0.1235  0.1184 -0.2596
  438MOL0     C59013   1.044  11.455   7.553  0.2697 -0.4861 -0.4489
  438MOL0     C59014   0.921  11.476   7.510 -0.1246 -0.3425 -0.6441
  438MOL0     C59015   0.816  11.367   7.535  0.2388  0.4210  0.5899
  438MOL0     C59016   0.839  11.260   7.424 -0.2020 -0.1876 -1.0775
  438MOL0     C59017   0.781  11.123   7.452  0.4615 -0.1972 -0.8386
  438MOL0     C59018   0.638  11.088   7.449  0.5693  0.4974 -0.8095
  438MOL0     O59019   0.553  11.142   7.557  0.0619  0.0734  0.5734
  438MOL0     C59020   0.417  11.156   7.541 -0.6520  0.4825 -0.0261
  438MOL0     C59021   0.343  11.110   7.433 -0.1538  0.4586 -0.7761
  438MOL0     C59022   0.205  11.140   7.425  0.9726 -0.0394  0.5003
  438MOL0     C59023   0.139  11.096   7.297 -0.5857 -0.2030  0.0298
  438MOL0     C59024   0.136  11.217   7.523  0.2494 -0.5979 -0.2550
  438MOL0     C59025  -0.008  11.265   7.508 -0.1837  0.1493  0.0932
  438MOL0     O59026  -0.077  11.266   7.388 -0.6078  0.4345 -0.6226
  438MOL0     C59027  -0.213  11.282   7.382 -0.1384 -0.0558 -0.6540
  438MOL0     C59028  -0.289  11.209   7.285 -0.9514 -0.3372 -0.1288
  438MOL0     C59029  -0.425  11.234   7.270 -0.1852 -0.6490 -0.3101
  438MOL0     C59030  -0.486  11.330   7.357  0.4257  0.4432 -0.1405
  438MOL0     O59031  -0.621  11.337   7.343 -0.5442  0.3943  0.5861
  438MOL0     C59032  -0.664  11.463   7.289  0.1833  0.2219  0.0478
  438MOL0     C59033  -0.814  11.451   7.288 -0.3237 -0.1411 -0.0337
  438MOL0     C59034  -0.886  11.551   7.197  0.0127  0.1312 -0.1799
  438MOL0     C59035  -1.032  11.568   7.261  0.5485  0.5941  0.8054
  438MOL0     C59036  -1.102  11.678   7.172  0.5150  0.7673  0.3402
  438MOL0     C59037  -1.243  11.704   7.240 -0.1960 -0.6142  0.7745
  438MOL0     C59038  -1.318  11.813   7.168  0.3373 -0.6238  0.4595
  438MOL0     C59039  -1.433  11.875   7.244 -0.0208 -0.4208 -0.3976
  438MOL0    Cl59040  -1.566  11.764   7.274  0.0671  0.6030  0.5118
  438MOL0     C59041  -0.417  11.396   7.460  1.2873  0.0194  0.4654
  438MOL0     C59042  -0.283  11.370   7.466 -0.7862 -1.0468  0.7060
  438MOL0     O59043  -0.061  11.275   7.617 -0.8163 -0.7926 -0.2589
  438MOL0     C59044   0.212  11.261   7.635  0.0271  0.5965  0.3769
  438MOL0     C59045   0.345  11.223   7.639 -1.0131 -0.6223 -0.1383
  438MOL0     N59046   0.915  11.584   7.420 -0.5439  0.1948 -0.1305
  438MOL0     N59047   1.032  11.638   7.418 -0.3116 -0.2111 -0.0690
  438MOL0     C59048   2.300  11.430   7.482 -0.4094  0.4326  0.1560
  438MOL0     C59049   2.396  11.323   7.471  0.8096  0.2330  0.3588
  438MOL0     C59050   2.538  10.869   7.457  0.5177  0.3548  0.3078
  438MOL0     C59051   2.501  10.738   7.423  0.1438  0.5828  0.2013
  438MOL0     C59052   2.594  10.634   7.418 -0.3272  0.8741 -0.7504
  438MOL0     C59053   2.727  10.662   7.434 -0.1347  0.2772  0.3101
  438MOL0     O59054   2.822  10.561   7.416  0.3745 -0.2972  0.2694
  438MOL0     C59055   2.955  10.576   7.474 -0.0699 -0.1239 -0.0865
  438MOL0     C59056   2.942  10.591   7.631  0.2319  0.5230 -0.0678
  438MOL0     C59057   2.885  10.461   7.685 -0.4270 -0.0747 -1.0502
  438MOL0     C59058   2.892  10.455   7.840  0.3712  0.4866  0.2778
  438MOL0     C59059   2.822  10.334   7.888 -0.2390  0.1226 -0.0161
  438MOL0     C59060   2.775  10.227   7.915  1.2774 -0.3297 -0.2436
  438MOL0     C59061   2.763  10.792   7.470 -0.4341 -0.0444  0.0644
  438MOL0     C59062   2.673  10.893   7.478  0.1541 -0.1545  0.3505
  438MOL0     H59063   2.231  11.093   7.643  0.0455  0.2654 -0.4787
  438MOL0     H59064   2.094  11.280   7.703 -0.8855  0.5971 -0.9920
  438MOL0     H59065   2.137  11.648   7.422 -0.3769 -0.7115 -3.8906
  438MOL0     H59066   2.005  11.535   7.400  0.9494 -0.1836  0.8999
  438MOL0     H59067   1.946  11.722   7.622  0.5375 -2.2123  0.1825
  438MOL0     H59068   1.945  11.788   7.464  2.6239  0.2843 -0.1227
  438MOL0     H59069   1.786  11.590   7.404  0.0118 -3.0646  1.0686
  438MOL0     H59070   1.817  11.543   7.575  2.5249  0.5169 -0.9141
  438MOL0     H59071   1.701  11.718   7.664  2.1376  1.5031 -0.0835
  438MOL0     H59072   1.710  11.814   7.515  3.0087  0.0620  0.8362
  438MOL0     H59073   1.542  11.701   7.398  2.1148  0.5176 -0.3407
  438MOL0     H59074   1.534  11.560   7.506 -3.1540  1.5605  0.2456
  438MOL0     H59075   1.454  11.713   7.699 -2.8276  2.5994  0.9633
  438MOL0     H59076   1.459  11.843   7.582  0.2870 -0.2018 -1.1128
  438MOL0     H59077   1.225  11.739   7.616 -0.5284  0.6588  0.1563
  438MOL0     H59078   1.273  11.781   7.457 -0.9179 -0.2180  1.0730
  438MOL0     H59079   1.305  11.511   7.581 -0.0157 -2.9670 -1.9253
  438MOL0     H59080   1.314  11.547   7.409  0.1185 -0.9520  0.0373
  438MOL0     H59081   1.097  11.381   7.613 -0.4771 -0.2894  0.4779
  438MOL0     H59082   0.826  11.323   7.635 -2.5884 -1.1788  0.2570
  438MOL0     H59083   0.717  11.413   7.522  0.1960 -0.0843 -1.0923
  438MOL0     H59084   0.946  11.240   7.421 -0.6474 -2.9252 -0.8176
  438MOL0     H59085   0.802  11.295   7.327 -4.6163  2.6025  1.2412
  438MOL0     H59086   0.821  11.095   7.549 -0.3376  1.6411  0.0694
  438MOL0     H59087   0.826  11.066   7.370 -0.6791 -1.5894 -0.5429
  438MOL0     H59088   0.641  10.979   7.455  1.5361  0.5854  0.9979
  438MOL0     H59089   0.594  11.107   7.351 -0.4325 -0.6748 -0.6078
  438MOL0     H59090   0.388  11.052   7.353 -1.2164 -0.7310 -0.5447
  438MOL0     H59091   0.139  11.178   7.225  3.4097  0.2514  0.3388
  438MOL0     H59092   0.202  11.023   7.245  2.5985  2.8812 -0.7672
  438MOL0     H59093   0.037  11.062   7.317 -0.4085  0.8076  3.2015
  438MOL0     H59094  -0.239  11.134   7.225  1.2092 -2.0484  3.4481
  438MOL0     H59095  -0.482  11.191   7.187 -2.2400 -0.1040  0.7407
  438MOL0     H59096  -0.642  11.547   7.357  1.5365 -0.6544  0.7319
  438MOL0     H59097  -0.618  11.475   7.191 -0.6622 -2.5881 -0.7813
  438MOL0     H59098  -0.847  11.352   7.256  2.7573 -0.2247 -3.6809
  438MOL0     H59099  -0.844  11.471   7.392  1.1758  0.9617  0.2330
  438MOL0     H59100  -0.885  11.524   7.091  2.4795  1.2015 -0.4805
  438MOL0     H59101  -0.832  11.646   7.201  2.9403 -1.3819 -1.0733
  438MOL0     H59102  -1.089  11.474   7.257 -1.2425  1.6472  0.4636
  438MOL0     H59103  -1.028  11.596   7.367  1.1588 -3.7103  2.1230
  438MOL0     H59104  -1.120  11.646   7.069 -0.1904  1.5728  0.2003
  438MOL0     H59105  -1.051  11.774   7.166 -0.6958  1.3535 -1.6919
  438MOL0     H59106  -1.290  11.605   7.237  3.1475 -2.4082  1.5732
  438MOL0     H59107  -1.216  11.726   7.344  3.7141 -1.2614  0.0615
  438MOL0     H59108  -1.356  11.768   7.076 -1.1641  0.2625  0.6053
  438MOL0     H59109  -1.252  11.898   7.146 -3.7823  3.5583  2.4207
  438MOL0     H59110  -1.471  11.948   7.171  1.5128  0.5941 -0.2257
  438MOL0     H59111  -1.408  11.922   7.339 -3.2067  2.0490 -0.6371
  438MOL0     H59112  -0.457  11.472   7.526  0.3521  0.2762 -0.3757
  438MOL0     H59113  -0.222  11.431   7.533 -4.1717  1.7341  1.5457
  438MOL0     H59114   0.179  11.334   7.709 -0.8380 -0.7058  1.3088
  438MOL0     H59115   0.389  11.260   7.731 -3.0513 -1.4464  1.2379
  438MOL0     H59116   2.326  11.520   7.428 -0.1861  0.5414  0.4394
  438MOL0     H59117   2.475  11.342   7.399 -1.6456  1.2381 -2.2372
  438MOL0     H59118   2.400  10.702   7.409  1.3729 -2.1298 -3.2370
  438MOL0     H59119   2.569  10.531   7.395  0.4689  0.0703  1.6167
  438MOL0     H59120   3.010  10.483   7.454  0.8113  0.5727 -0.9743
  438MOL0     H59121   3.013  10.658   7.432 -1.6179  0.1666 -1.7290
  438MOL0     H59122   2.880  10.676   7.663 -1.0450 -0.4708  0.1892
  438MOL0     H59123   3.041  10.599   7.677 -0.0711  0.4819  0.6106
  438MOL0     H59124   2.953  10.384   7.650 -1.0723 -0.7491 -0.8557
  438MOL0     H59125   2.791  10.428   7.639  0.3275  1.3254 -3.7671
  438MOL0     H59126   2.840  10.542   7.880  1.4917  0.6294  1.5005
  438MOL0     H59127   2.991  10.469   7.885 -0.1825  1.5157  1.2391
  438MOL0     H59128   2.738  10.130   7.942 -0.2380 -0.2715 -1.9693
  438MOL0     H59129   2.864  10.826   7.489 -0.0779 -0.0890 -1.6215
  438MOL0     H59130   2.699  10.991   7.517  2.7447 -0.7507  0.2989
  439MOL0     O59131   6.126   6.250   3.599 -0.2844 -0.2077  0.0456
  439MOL0     C59132   6.121   6.130   3.583  0.0298  0.0791  0.3468
  439MOL0     O59133   6.012   6.059   3.526 -1.0692 -0.4333  0.2961
  439MOL0     C59134   5.901   6.116   3.473  0.2276  0.2700 -0.3858
  439MOL0     C59135   5.904   6.220   3.383 -0.1750 -0.8689  0.1165
  439MOL0     C59136   5.787   6.248   3.308 -0.1399  0.1743 -0.2333
  439MOL0     C59137   5.664   6.192   3.335 -0.3527  0.4356 -0.7760
  439MOL0     O59138   5.562   6.261   3.272  0.3884  0.1631  0.5119
  439MOL0     C59139   5.430   6.233   3.317 -0.6531 -0.0993  0.3711
  439MOL0     C59140   5.336   6.326   3.254 -0.3653  0.0221 -0.3300
  439MOL0     C59141   5.195   6.282   3.270  0.2291 -0.7618  0.6412
  439MOL0     C59142   5.106   6.384   3.199  0.7824 -0.2607  0.4178
  439MOL0     C59143   4.969   6.366   3.271  0.4728 -0.0729  0.7965
  439MOL0     C59144   4.861   6.472   3.238  1.1201 -0.5459  0.3756
  439MOL0     C59145   4.719   6.440   3.315 -0.3467 -0.6858  0.5430
  439MOL0     C59146   4.650   6.330   3.238  0.8359 -0.0609 -0.1954
  439MOL0     N59147   4.515   6.299   3.299 -0.6775 -0.4676 -0.0312
  439MOL0     C59148   4.490   6.253   3.421 -0.0178 -0.6205  0.2133
  439MOL0     C59149   4.363   6.213   3.408 -0.0060  0.2197  0.0892
  439MOL0     C59150   4.267   6.149   3.503 -0.1830  0.2169 -0.5945
  439MOL0     C59151   4.308   6.170   3.645  0.1636  0.1071 -0.3117
  439MOL0     C59152   4.237   6.296   3.700 -0.0448 -0.0670 -0.5037
  439MOL0     C59153   4.311   6.331   3.840  0.4774 -0.1023  0.3008
  439MOL0     O59154   4.293   6.219   3.931  0.4056 -0.3244  0.5070
  439MOL0     C59155   4.174   6.182   3.990 -0.3748 -0.4801  0.0801
  439MOL0     C59156   4.178   6.067   4.066  0.0447 -0.7073  0.0664
  439MOL0     C59157   4.073   6.028   4.144  0.1943  0.8838  0.8487
  439MOL0     C59158   4.087   5.903   4.227  0.4114 -0.6380  0.6869
  439MOL0     C59159   3.958   6.110   4.147  0.4741  0.0857 -0.4486
  439MOL0     C59160   3.838   6.075   4.222  0.3477  0.6178 -0.8318
  439MOL0     O59161   3.728   6.071   4.156 -0.4494  0.2876 -0.6534
  439MOL0     C59162   3.605   6.030   4.199 -0.5726 -0.1801  0.0298
  439MOL0     C59163   3.575   5.923   4.291 -0.2476  0.7332 -0.1001
  439MOL0     C59164   3.435   5.905   4.323 -0.2953  0.0490 -0.3464
  439MOL0     C59165   3.334   5.983   4.263 -0.0553 -0.5401  0.6094
  439MOL0     O59166   3.213   5.972   4.316 -0.0170 -0.0423 -0.2422
  439MOL0     C59167   3.103   6.056   4.275 -0.0672 -0.4066  0.3240
  439MOL0     C59168   2.969   6.018   4.350  0.1101 -0.4719  1.4454
  439MOL0     C59169   2.939   5.870   4.317  0.3218 -1.1094 -0.3380
  439MOL0     C59170   2.809   5.809   4.379 -0.6994 -0.5701  0.6437
  439MOL0     C59171   2.812   5.649   4.378  1.4843  0.4821  0.0908
  439MOL0     C59172   2.689   5.594   4.443 -0.2027  1.3700 -1.0373
  439MOL0     C59173   2.686   5.437   4.428 -0.7258 -0.2423 -0.6917
  439MOL0     C59174   2.547   5.407   4.466  0.5827  0.5724 -0.2795
  439MOL0    Cl59175   2.570   5.239   4.516  0.2403  0.0338 -0.3708
  439MOL0     C59176   3.375   6.072   4.162  0.0558 -0.0238  0.6684
  439MOL0     C59177   3.507   6.093   4.132  0.3321 -0.7570 -0.3218
  439MOL0     O59178   3.855   6.055   4.345 -0.4581  0.3803  0.2933
  439MOL0     C59179   3.959   6.230   4.067 -0.2033  0.5454 -0.5550
  439MOL0     C59180   4.061   6.265   3.989 -0.0799  0.3530  0.0846
  439MOL0     N59181   4.310   6.236   3.286 -0.1164 -0.5713  0.7107
  439MOL0     N59182   4.406   6.294   3.219  1.0867 -0.0027 -0.3628
  439MOL0     C59183   5.658   6.096   3.433  0.5160  0.0754  0.4970
  439MOL0     C59184   5.776   6.046   3.490 -0.6594 -0.2314 -0.4520
  439MOL0     C59185   6.229   6.047   3.639  0.3531 -1.5462 -0.0591
  439MOL0     C59186   6.339   6.109   3.702 -0.7649  0.1823  0.4113
  439MOL0     C59187   6.446   6.039   3.761  0.3350  0.0888  0.2343
  439MOL0     C59188   6.446   5.896   3.758  0.2077 -0.1418 -0.4897
  439MOL0     O59189   6.551   5.823   3.821  0.6803  0.6690  0.2041
  439MOL0     C59190   6.679   5.884   3.855 -0.3047 -0.0935  0.0915
  439MOL0     C59191   6.743   5.922   3.719  0.7431 -0.4430  0.8677
  439MOL0     C59192   6.741   5.819   3.613  0.2480  0.2267  0.4893
  439MOL0     C59193   6.833   5.699   3.642  0.3585 -1.1131  0.1795
  439MOL0     C59194   6.974   5.724   3.635  0.0334 -0.0897  0.4012
  439MOL0     C59195   7.090   5.747   3.631 -0.4784  0.2553  0.3181
  439MOL0     C59196   6.328   5.835   3.710 -0.6735  0.5322 -0.6959
  439MOL0     C59197   6.229   5.905   3.643  0.6080 -0.2914  0.6879
  439MOL0     H59198   6.001   6.264   3.361  0.3630 -2.8329 -1.7862
  439MOL0     H59199   5.806   6.318   3.227  1.3081  0.9707  0.7620
  439MOL0     H59200   5.390   6.133   3.300  0.5509 -0.3446 -1.3664
  439MOL0     H59201   5.438   6.256   3.423  0.8059  2.1736 -0.1472
  439MOL0     H59202   5.342   6.426   3.296 -4.7979  1.1698 -1.8513
  439MOL0     H59203   5.356   6.331   3.146  0.9492 -0.3560 -0.1171
  439MOL0     H59204   5.184   6.176   3.246  1.5134 -0.7104 -0.2741
  439MOL0     H59205   5.180   6.296   3.378 -0.0262  0.5074  0.4601
  439MOL0     H59206   5.137   6.485   3.228  3.2114 -0.8091 -0.0549
  439MOL0     H59207   5.096   6.375   3.090 -4.8713 -0.9575  0.6935
  439MOL0     H59208   4.934   6.265   3.250 -0.5975  0.1786  1.2861
  439MOL0     H59209   4.989   6.387   3.376 -0.6763  0.9969  0.8382
  439MOL0     H59210   4.899   6.570   3.268  0.2965 -0.0348 -0.2039
  439MOL0     H59211   4.835   6.477   3.132 -1.0534 -0.2112  0.8892
  439MOL0     H59212   4.736   6.400   3.415  0.2275 -2.3152 -0.1666
  439MOL0     H59213   4.661   6.532   3.318  0.0950 -0.4008  0.4723
  439MOL0     H59214   4.717   6.244   3.242  0.5449 -0.3860 -1.6726
  439MOL0     H59215   4.631   6.360   3.134 -0.0160 -0.2775 -0.1063
  439MOL0     H59216   4.552   6.240   3.508  0.4120 -1.3028 -0.1803
  439MOL0     H59217   4.159   6.163   3.492 -1.2241 -0.4296  5.5287
  439MOL0     H59218   4.275   6.043   3.476  1.6230  0.4697 -1.1432
  439MOL0     H59219   4.416   6.177   3.662 -0.3194  1.4351  3.2783
  439MOL0     H59220   4.279   6.091   3.715  0.5293  0.7854  0.6241
  439MOL0     H59221   4.130   6.275   3.708 -0.0739  0.5623  1.1853
  439MOL0     H59222   4.252   6.378   3.628  0.2749 -1.4982 -2.1228
  439MOL0     H59223   4.289   6.428   3.884 -3.5268 -1.0555  0.8021
  439MOL0     H59224   4.418   6.332   3.821  0.8295 -4.4433  0.9937
  439MOL0     H59225   4.264   6.001   4.071 -0.4335 -1.7385 -3.0868
  439MOL0     H59226   3.997   5.847   4.256  1.2664 -3.1399 -1.1739
  439MOL0     H59227   4.152   5.827   4.182 -1.2246  0.5048 -4.0844
  439MOL0     H59228   4.120   5.951   4.320 -1.1403  0.8455  0.5102
  439MOL0     H59229   3.661   5.873   4.332 -0.1414  3.1648  3.0217
  439MOL0     H59230   3.415   5.837   4.405 -1.1686 -1.3932 -1.6911
  439MOL0     H59231   3.121   6.162   4.292 -1.7835 -0.2314  1.2844
  439MOL0     H59232   3.077   6.045   4.169 -0.5444  1.1275  0.2572
  439MOL0     H59233   2.974   6.023   4.459 -2.5798  0.6086  1.5933
  439MOL0     H59234   2.887   6.083   4.318 -0.1490 -0.5978  1.8347
  439MOL0     H59235   3.018   5.804   4.353 -0.3416 -1.5141  0.4138
  439MOL0     H59236   2.929   5.865   4.208  1.1711  0.5784 -0.5290
  439MOL0     H59237   2.797   5.841   4.483  0.4929  1.7800  0.1449
  439MOL0     H59238   2.729   5.850   4.316 -0.3087 -2.5736 -1.2682
  439MOL0     H59239   2.901   5.616   4.434 -0.1619  0.7365  3.1116
  439MOL0     H59240   2.814   5.612   4.275  0.8628 -2.4011  1.0111
  439MOL0     H59241   2.686   5.622   4.549 -0.1478  2.3044 -1.2761
  439MOL0     H59242   2.601   5.624   4.386 -0.6818  1.2114 -0.3906
  439MOL0     H59243   2.763   5.397   4.494 -1.0562  2.2567  1.3586
  439MOL0     H59244   2.707   5.402   4.327 -1.0359  0.5689 -1.0481
  439MOL0     H59245   2.491   5.425   4.374  1.3040  4.4503 -0.1136
  439MOL0     H59246   2.511   5.467   4.550  0.8128  1.8053 -1.0393
  439MOL0     H59247   3.308   6.130   4.100 -1.8534 -3.0645 -0.3257
  439MOL0     H59248   3.524   6.182   4.073 -0.1858  1.3674  2.4945
  439MOL0     H59249   3.876   6.297   4.086 -1.0947 -0.2799 -1.4080
  439MOL0     H59250   4.066   6.355   3.927 -0.2391  0.5128  0.3036
  439MOL0     H59251   5.561   6.061   3.467  0.0725  1.3705  0.6160
  439MOL0     H59252   5.781   5.964   3.562  0.2152  0.3492  0.1731
  439MOL0     H59253   6.337   6.217   3.696 -2.3432  0.2545  1.6817
  439MOL0     H59254   6.536   6.091   3.791  0.3839  2.2463 -3.1080
  439MOL0     H59255   6.668   5.966   3.926  1.1794  3.9414 -3.9019
  439MOL0     H59256   6.753   5.818   3.903  2.8050  3.1492  0.1602
  439MOL0     H59257   6.846   5.946   3.747 -0.2515  1.1443  3.5942
  439MOL0     H59258   6.706   6.017   3.680  2.3287  0.4086  1.3470
  439MOL0     H59259   6.777   5.867   3.521 -0.4891 -1.4288 -0.7021
  439MOL0     H59260   6.640   5.780   3.599 -0.2498  0.3502  3.1921
  439MOL0     H59261   6.823   5.616   3.571  1.1506 -1.3562  0.3444
  439MOL0     H59262   6.813   5.657   3.741  1.0892  2.5347  2.0554
  439MOL0     H59263   7.196   5.755   3.618 -0.3605 -0.7157  0.6095
  439MOL0     H59264   6.323   5.727   3.701  1.4132  0.2788  0.6246
  439MOL0     H59265   6.140   5.852   3.614  1.4102 -2.0343  1.3147
  440MOL0     O59266   5.757   8.217   7.575  0.5097 -0.4849  0.0714
  440MOL0     C59267   5.830   8.297   7.634  0.1211 -0.4077  1.3439
  440MOL0     O59268   5.809   8.438   7.631  0.4059 -0.1742 -1.0329
  440MOL0     C59269   5.710   8.495   7.554 -0.6117  0.4626 -0.6550
  440MOL0     C59270   5.739   8.588   7.457 -0.0685 -0.4151  0.2844
  440MOL0     C59271   5.646   8.647   7.374 -0.3246  0.6810 -0.0507
  440MOL0     C59272   5.510   8.623   7.396  0.1697 -0.1002 -0.7140
  440MOL0     O59273   5.403   8.694   7.333 -0.9597  0.0889 -1.0233
  440MOL0     C59274   5.395   8.672   7.196 -0.0233  0.0293  0.2203
  440MOL0     C59275   5.254   8.712   7.144  0.0397  0.5565  0.0544
  440MOL0     C59276   5.139   8.612   7.165 -0.2484 -0.5012 -1.0929
  440MOL0     C59277   5.005   8.670   7.139  0.7168  0.0174  0.0656
  440MOL0     C59278   4.902   8.575   7.184  0.7453  0.3527  0.1968
  440MOL0     C59279   4.759   8.602   7.119 -0.9269 -0.2643 -0.8375
  440MOL0     C59280   4.657   8.503   7.173  0.4776 -0.3366 -0.4401
  440MOL0     C59281   4.518   8.503   7.096 -0.4476 -0.0378  1.0217
  440MOL0     N59282   4.517   8.474   6.944  0.7805 -0.1997 -0.0194
  440MOL0     C59283   4.445   8.539   6.840  0.8408 -0.0405  0.5826
  440MOL0     C59284   4.474   8.464   6.730  0.5912  0.6635  0.1398
  440MOL0     C59285   4.423   8.473   6.591  0.2993  0.1243  0.5024
  440MOL0     C59286   4.271   8.475   6.586  0.2653 -0.1844 -0.3040
  440MOL0     C59287   4.224   8.338   6.628  0.7061  0.1996  0.3897
  440MOL0     C59288   4.067   8.325   6.610  0.0719 -0.5420 -0.4149
  440MOL0     O59289   4.034   8.184   6.611 -0.5470 -0.5405 -0.1075
  440MOL0     C59290   3.899   8.151   6.634 -0.1855 -0.2005 -0.5837
  440MOL0     C59291   3.803   8.245   6.627  0.9560 -0.2445  0.1044
  440MOL0     C59292   3.664   8.222   6.645  0.2111  0.7811 -0.4532
  440MOL0     C59293   3.565   8.335   6.623 -0.6543  0.3320 -0.3525
  440MOL0     C59294   3.634   8.087   6.670  0.6285  0.6976  0.2605
  440MOL0     C59295   3.489   8.042   6.688 -0.2200  0.4389 -0.6237
  440MOL0     O59296   3.470   7.936   6.778  0.4046 -0.1548 -0.5360
  440MOL0     C59297   3.343   7.890   6.809 -0.4959 -0.5592 -0.2906
  440MOL0     C59298   3.228   7.968   6.810 -0.8349 -0.7191  0.2158
  440MOL0     C59299   3.098   7.916   6.828  0.0587  0.7963  0.9302
  440MOL0     C59300   3.086   7.770   6.855  0.3885  0.3506  0.3518
  440MOL0     O59301   2.962   7.718   6.886  0.7050 -0.3497  0.5782
  440MOL0     C59302   2.914   7.634   6.783  1.1549  0.2393 -0.4790
  440MOL0     C59303   2.788   7.562   6.841 -0.2315  0.0658 -0.8060
  440MOL0     C59304   2.675   7.666   6.874 -0.1215 -0.7113 -0.6960
  440MOL0     C59305   2.537   7.600   6.871 -0.1109 -0.5630 -0.7843
  440MOL0     C59306   2.436   7.699   6.917  0.1170 -0.6200 -0.2963
  440MOL0     C59307   2.313   7.621   6.953  0.7089  0.7367 -0.1184
  440MOL0     C59308   2.197   7.705   7.007  0.5844  0.2298  0.4084
  440MOL0     C59309   2.090   7.604   7.045  0.6471  0.4555 -0.2091
  440MOL0    Cl59310   1.993   7.554   6.899  0.2535 -0.0351 -0.3016
  440MOL0     C59311   3.205   7.695   6.845 -0.2151 -0.7442 -0.3070
  440MOL0     C59312   3.332   7.755   6.830  0.5805 -0.2552  0.7122
  440MOL0     O59313   3.398   8.106   6.633 -0.3053 -0.5247  0.2890
  440MOL0     C59314   3.735   7.985   6.672  0.0043 -0.0048 -0.3186
  440MOL0     C59315   3.867   8.020   6.652  0.9515 -0.2955 -0.9840
  440MOL0     N59316   4.559   8.363   6.767 -0.1340  0.0118  0.2319
  440MOL0     N59317   4.588   8.375   6.889 -0.2569  0.4762 -0.5593
  440MOL0     C59318   5.473   8.527   7.500 -0.3278 -0.1088  0.0079
  440MOL0     C59319   5.576   8.464   7.579 -0.6490 -0.0756 -0.6330
  440MOL0     C59320   5.949   8.242   7.682  0.6529  0.4867  0.1048
  440MOL0     C59321   6.046   8.316   7.754  0.0284 -0.5782  0.8121
  440MOL0     C59322   6.178   8.271   7.784  0.2122 -0.3412  0.3100
  440MOL0     C59323   6.209   8.144   7.741  0.6180 -0.0455  0.8099
  440MOL0     O59324   6.327   8.080   7.774  0.0900 -0.0240 -0.0472
  440MOL0     C59325   6.423   8.127   7.866  0.1090 -0.0831  0.5521
  440MOL0     C59326   6.553   8.063   7.838 -0.7661  0.9409 -0.1615
  440MOL0     C59327   6.644   8.090   7.963  0.9247  0.3952 -0.3389
  440MOL0     C59328   6.783   8.062   7.928 -0.6342  0.2122 -0.4249
  440MOL0     C59329   6.869   8.070   8.056  0.6217  0.3988  0.9312
  440MOL0     C59330   6.935   8.074   8.152  0.3043  0.0263  0.0544
  440MOL0     C59331   6.124   8.063   7.660  0.5646  0.0385  0.1054
  440MOL0     C59332   5.991   8.111   7.625  0.2082  0.1838  0.7127
  440MOL0     H59333   5.838   8.627   7.438 -0.6461  0.9308 -0.1015
  440MOL0     H59334   5.684   8.714   7.298 -0.1781  1.2631  0.5239
  440MOL0     H59335   5.476   8.728   7.148 -0.4669 -0.9998 -1.8400
  440MOL0     H59336   5.412   8.567   7.171  0.9724  0.4245 -0.8874
  440MOL0     H59337   5.230   8.809   7.188 -0.6477  0.4935 -0.1602
  440MOL0     H59338   5.268   8.721   7.036  0.3228 -0.9269 -0.0525
  440MOL0     H59339   5.152   8.517   7.113 -1.0296 -1.4904  0.4502
  440MOL0     H59340   5.139   8.595   7.273 -1.9615  1.8893 -0.6344
  440MOL0     H59341   4.991   8.767   7.188  0.5525 -1.2346  2.6898
  440MOL0     H59342   5.002   8.685   7.031  1.1474  1.2635  0.2094
  440MOL0     H59343   4.938   8.474   7.161 -1.4057 -0.0607 -1.6754
  440MOL0     H59344   4.894   8.581   7.293 -2.7098 -2.2314  0.2569
  440MOL0     H59345   4.728   8.706   7.129  1.5430  0.7430 -2.6396
  440MOL0     H59346   4.768   8.583   7.011 -1.6546  1.0455 -1.1396
  440MOL0     H59347   4.701   8.404   7.162 -0.8846 -0.6578 -4.7541
  440MOL0     H59348   4.638   8.525   7.279  4.9368  0.8294  0.3405
  440MOL0     H59349   4.482   8.605   7.113 -0.7413 -0.0305  0.3573
  440MOL0     H59350   4.454   8.429   7.145 -0.6459  0.4796  1.5569
  440MOL0     H59351   4.395   8.635   6.836  3.1208  1.2158  0.1147
  440MOL0     H59352   4.462   8.557   6.532  1.9821 -1.7272 -1.1468
  440MOL0     H59353   4.457   8.386   6.535 -0.4346 -1.9780  3.0940
  440MOL0     H59354   4.250   8.497   6.481  1.7315  2.0005 -0.1994
  440MOL0     H59355   4.214   8.547   6.645 -1.6513 -0.9131 -1.1932
  440MOL0     H59356   4.255   8.308   6.728  0.8215 -1.3210 -0.0710
  440MOL0     H59357   4.273   8.261   6.567 -0.5539  0.1804 -0.6553
  440MOL0     H59358   4.034   8.374   6.517 -0.5233  3.3297  1.6172
  440MOL0     H59359   4.019   8.375   6.694 -0.2893 -3.5343  1.2873
  440MOL0     H59360   3.822   8.351   6.611 -0.1274  0.2832  1.9461
  440MOL0     H59361   3.482   8.330   6.694  0.9512 -2.6119  1.5017
  440MOL0     H59362   3.618   8.431   6.619  0.9499 -0.4934  0.0908
  440MOL0     H59363   3.517   8.329   6.525  1.6490  0.8558 -1.5881
  440MOL0     H59364   3.236   8.075   6.794  0.0970 -0.6606  1.0410
  440MOL0     H59365   3.015   7.986   6.828  0.4991  1.3214  0.2231
  440MOL0     H59366   2.886   7.692   6.695  1.2503  2.3850  0.8551
  440MOL0     H59367   2.988   7.558   6.754  1.2916  0.2869 -0.2588
  440MOL0     H59368   2.758   7.486   6.769 -1.0488  2.0393 -2.6873
  440MOL0     H59369   2.824   7.515   6.933 -1.9686 -0.8090 -0.5372
  440MOL0     H59370   2.674   7.754   6.808  1.8243  2.6340  3.2795
  440MOL0     H59371   2.691   7.709   6.973  1.3148 -0.5223 -0.9840
  440MOL0     H59372   2.500   7.561   6.776 -2.2058  0.4939 -0.4672
  440MOL0     H59373   2.537   7.519   6.944 -1.1641  0.3404  0.2760
  440MOL0     H59374   2.427   7.785   6.850  1.2014 -0.1228  0.1675
  440MOL0     H59375   2.471   7.749   7.008 -0.5140  1.8654 -1.3372
  440MOL0     H59376   2.277   7.578   6.860  2.9006  0.9193 -1.1178
  440MOL0     H59377   2.336   7.550   7.033  1.3561 -0.7912 -1.6057
  440MOL0     H59378   2.162   7.784   6.939  1.1066 -0.3003 -0.4868
  440MOL0     H59379   2.224   7.758   7.099 -1.4757 -0.6288  1.5627
  440MOL0     H59380   2.012   7.642   7.111 -2.0130 -0.1025 -2.8185
  440MOL0     H59381   2.128   7.513   7.091 -1.6124 -0.6702 -0.4655
  440MOL0     H59382   3.201   7.586   6.849  2.3684 -0.9179  3.5213
  440MOL0     H59383   3.425   7.698   6.828  0.5503 -0.4110  2.1462
  440MOL0     H59384   3.724   7.880   6.695 -1.7975  0.5679  1.7973
  440MOL0     H59385   3.937   7.937   6.643 -0.6622 -1.6749 -1.2395
  440MOL0     H59386   5.367   8.507   7.516  0.0865 -0.6714  2.3843
  440MOL0     H59387   5.558   8.388   7.654  2.6242  2.1035  2.7286
  440MOL0     H59388   6.019   8.413   7.793  1.4444  0.3308 -0.3667
  440MOL0     H59389   6.237   8.339   7.845 -1.6056 -0.3076  2.1480
  440MOL0     H59390   6.452   8.232   7.852  1.1943 -0.4153  0.2004
  440MOL0     H59391   6.376   8.113   7.963 -2.6688 -0.5300 -0.7620
  440MOL0     H59392   6.602   8.098   7.747 -1.4440  1.2337 -0.4246
  440MOL0     H59393   6.526   7.957   7.831 -0.1353  0.8684 -1.9367
  440MOL0     H59394   6.605   8.027   8.043 -0.2137  0.1885 -1.0444
  440MOL0     H59395   6.643   8.196   7.991  1.4678  0.4843 -0.6243
  440MOL0     H59396   6.825   8.123   7.848  0.2110  0.8089  0.4509
  440MOL0     H59397   6.789   7.961   7.887 -0.9870 -0.7469  1.7337
  440MOL0     H59398   6.997   8.073   8.239 -0.2728  0.7258  0.4906
  440MOL0     H59399   6.158   7.967   7.623 -1.6123 -1.3235  1.4076
  440MOL0     H59400   5.937   8.050   7.554 -2.7311 -1.4677  4.0028
  441MOL0     O59401   5.750   6.739   7.459 -0.0170  0.1923  0.9018
  441MOL0     C59402   5.675   6.640   7.439  0.1051 -0.3823  0.1326
  441MOL0     O59403   5.709   6.533   7.367 -0.5745 -0.2320  0.0982
  441MOL0     C59404   5.846   6.518   7.346 -0.0744  0.3256 -0.1635
  441MOL0     C59405   5.911   6.409   7.402  0.0000  0.5311  0.1389
  441MOL0     C59406   6.048   6.377   7.366  0.3698  0.3233  0.0349
  441MOL0     C59407   6.112   6.451   7.259  0.0712 -0.0855  0.8741
  441MOL0     O59408   6.235   6.428   7.215  0.5961 -0.0546 -0.2039
  441MOL0     C59409   6.336   6.529   7.226  0.4618 -0.5109 -1.1259
  441MOL0     C59410   6.469   6.456   7.237  0.5042 -0.2133 -0.2733
  441MOL0     C59411   6.534   6.439   7.106 -0.3703 -0.4422 -0.2700
  441MOL0     C59412   6.635   6.321   7.094  1.4310 -0.0060 -0.5335
  441MOL0     C59413   6.632   6.264   6.950  0.0764 -0.2239 -0.3641
  441MOL0     C59414   6.743   6.163   6.934 -0.3616  0.1401  0.4134
  441MOL0     C59415   6.718   6.049   7.025 -0.0939  0.2150 -0.3734
  441MOL0     C59416   6.821   5.939   6.999 -1.4363  0.0829 -0.6794
  441MOL0     N59417   6.800   5.831   7.097 -0.2346 -0.0038  0.1839
  441MOL0     C59418   6.750   5.705   7.068  0.3340  0.2347 -0.3963
  441MOL0     C59419   6.769   5.627   7.182  0.5523 -0.0299 -0.0012
  441MOL0     C59420   6.735   5.473   7.205  0.1695 -0.3584 -0.7111
  441MOL0     C59421   6.589   5.456   7.260 -0.0866  0.1046 -0.1926
  441MOL0     C59422   6.558   5.307   7.252  0.2482 -0.3892  0.3423
  441MOL0     C59423   6.403   5.268   7.283 -0.9954  0.4871  0.1769
  441MOL0     O59424   6.329   5.316   7.165 -0.0010  0.2913  0.2763
  441MOL0     C59425   6.207   5.259   7.131 -0.3319  0.3799 -0.4056
  441MOL0     C59426   6.141   5.165   7.208 -0.3287 -0.5747  0.1692
  441MOL0     C59427   6.008   5.119   7.193 -0.4752  0.3947  0.3010
  441MOL0     C59428   5.950   5.035   7.305 -0.4588 -0.0356  0.1374
  441MOL0     C59429   5.937   5.156   7.081  0.2895 -0.2485 -0.7007
  441MOL0     C59430   5.800   5.109   7.042  0.2114 -0.8909  0.5473
  441MOL0     O59431   5.755   5.168   6.923 -0.6993 -0.0089 -0.0364
  441MOL0     C59432   5.630   5.134   6.875 -0.7843 -0.6402  0.1877
  441MOL0     C59433   5.615   5.016   6.796 -0.1329 -0.1529 -0.3883
  441MOL0     C59434   5.490   4.979   6.740 -0.4269  0.3992  0.0820
  441MOL0     C59435   5.377   5.049   6.782  0.6493 -0.3756 -1.1182
  441MOL0     O59436   5.244   4.995   6.765 -0.8158 -0.3502  0.5225
  441MOL0     C59437   5.153   5.008   6.875 -0.2875  0.0182 -0.9750
  441MOL0     C59438   5.183   4.891   6.968 -0.2129 -0.6339 -0.1645
  441MOL0     C59439   5.316   4.907   7.046 -0.3765  0.9952 -0.7150
  441MOL0     C59440   5.312   4.817   7.179 -0.2607  0.5121  0.5688
  441MOL0     C59441   5.426   4.843   7.271  0.7552  0.0411 -0.3833
  441MOL0     C59442   5.453   4.721   7.356 -0.6292  0.5775 -0.0360
  441MOL0     C59443   5.540   4.747   7.483 -0.1709 -0.4329  0.4528
  441MOL0     C59444   5.670   4.825   7.458 -0.9022 -0.4393  0.1381
  441MOL0    Cl59445   5.788   4.806   7.598  0.0538 -0.1992  0.5151
  441MOL0     C59446   5.388   5.167   6.854 -1.1463 -0.7928  0.0104
  441MOL0     C59447   5.516   5.210   6.899  0.3300  0.4608  0.1942
  441MOL0     O59448   5.737   5.032   7.110  0.6445  0.3123  0.0780
  441MOL0     C59449   5.997   5.255   6.997 -0.2176 -0.1950 -0.3089
  441MOL0     C59450   6.127   5.301   7.023  0.5112  0.4534  0.0681
  441MOL0     N59451   6.834   5.706   7.270 -0.3363 -0.4389 -0.1104
  441MOL0     N59452   6.861   5.826   7.228  0.5378 -0.0189 -0.0925
  441MOL0     C59453   6.051   6.563   7.207  0.8319 -0.8001  0.0909
  441MOL0     C59454   5.915   6.593   7.246  0.6346  0.1251 -0.2047
  441MOL0     C59455   5.544   6.634   7.498  0.7271  0.3020 -0.8310
  441MOL0     C59456   5.492   6.747   7.561 -0.2477 -0.0446 -0.1611
  441MOL0     C59457   5.367   6.741   7.631  0.2714  0.2170 -0.1092
  441MOL0     C59458   5.293   6.622   7.639  0.1902 -0.7573 -0.1874
  441MOL0     O59459   5.172   6.621   7.710 -0.6337  0.1943 -0.6899
  441MOL0     C59460   5.120   6.493   7.747  0.1428  0.1676  0.5962
  441MOL0     C59461   4.993   6.513   7.818  0.4539 -0.4816 -0.4848
  441MOL0     C59462   4.872   6.556   7.724 -0.3318  0.4598  0.0335
  441MOL0     C59463   4.752   6.585   7.805 -0.8948 -0.1397  0.2779
  441MOL0     C59464   4.627   6.580   7.733  1.0715  0.1914  1.4836
  441MOL0     C59465   4.520   6.604   7.675 -0.1910  0.2199 -0.0728
  441MOL0     C59466   5.344   6.512   7.568  0.1209  0.0908 -0.1753
  441MOL0     C59467   5.472   6.516   7.505 -0.1113 -0.4270 -0.3487
  441MOL0     H59468   5.867   6.343   7.476 -1.9568  0.9256 -0.6214
  441MOL0     H59469   6.103   6.296   7.412  1.9218  1.4970  0.3266
  441MOL0     H59470   6.350   6.593   7.139 -0.7031  0.0701 -0.9030
  441MOL0     H59471   6.308   6.592   7.312 -1.1758 -2.1732 -0.3773
  441MOL0     H59472   6.544   6.510   7.296  1.2613 -3.2292  1.7666
  441MOL0     H59473   6.447   6.358   7.280  0.5135 -0.3912 -0.6754
  441MOL0     H59474   6.459   6.438   7.026 -1.9318  2.8120  0.9523
  441MOL0     H59475   6.585   6.535   7.093  1.6117 -1.4388 -0.1280
  441MOL0     H59476   6.739   6.348   7.117  1.3185 -0.9468  1.2567
  441MOL0     H59477   6.592   6.239   7.151  0.0966 -0.6917 -2.4458
  441MOL0     H59478   6.534   6.217   6.938 -0.1353  0.0739  0.2023
  441MOL0     H59479   6.635   6.339   6.870 -1.0053 -1.9718 -2.1342
  441MOL0     H59480   6.738   6.127   6.831  0.7398  3.2442 -0.8378
  441MOL0     H59481   6.841   6.208   6.950 -1.0561  1.6544  0.5602
  441MOL0     H59482   6.721   6.085   7.128  0.4308 -1.4665  0.2287
  441MOL0     H59483   6.615   6.016   7.011  0.4449 -2.2506  0.9932
  441MOL0     H59484   6.923   5.973   7.023 -1.9010  0.5870  0.7249
  441MOL0     H59485   6.823   5.901   6.897  4.3485 -0.1063 -0.8416
  441MOL0     H59486   6.707   5.672   6.973  2.5682  0.8232 -1.6821
  441MOL0     H59487   6.753   5.416   7.114  0.3137  0.2044 -1.0370
  441MOL0     H59488   6.794   5.425   7.284 -1.5832 -2.4396 -0.5713
  441MOL0     H59489   6.522   5.519   7.201  0.9833  0.1674 -1.3842
  441MOL0     H59490   6.589   5.484   7.366 -1.3394 -0.1749 -0.1042
  441MOL0     H59491   6.626   5.251   7.317  1.6353  2.1963  1.2981
  441MOL0     H59492   6.581   5.286   7.148 -0.8219  1.3892 -0.3195
  441MOL0     H59493   6.368   5.299   7.381 -0.7697  2.2454 -0.2769
  441MOL0     H59494   6.402   5.158   7.287  2.4364  0.3551  0.8187
  441MOL0     H59495   6.185   5.138   7.304 -0.7610 -0.1493  0.4953
  441MOL0     H59496   5.909   4.942   7.266 -1.3231 -0.6429  2.3531
  441MOL0     H59497   6.032   5.008   7.372 -1.0536  0.6749  1.1808
  441MOL0     H59498   5.880   5.095   7.364  1.2502  2.4024 -0.1236
  441MOL0     H59499   5.706   4.958   6.788 -0.2681 -0.0815 -4.5419
  441MOL0     H59500   5.492   4.884   6.687 -1.6969 -1.0000  2.3754
  441MOL0     H59501   5.143   5.109   6.917 -2.8856 -0.2597 -0.7077
  441MOL0     H59502   5.053   4.990   6.834 -0.8188 -0.4038  0.4209
  441MOL0     H59503   5.102   4.890   7.042 -0.0422  3.0500  0.2997
  441MOL0     H59504   5.172   4.796   6.917 -3.2680 -0.1321 -0.6634
  441MOL0     H59505   5.325   5.012   7.074 -1.4690  0.7075  0.8400
  441MOL0     H59506   5.399   4.867   6.986 -1.0288  0.1670 -1.0721
  441MOL0     H59507   5.219   4.833   7.234 -1.1879  0.6488 -0.9839
  441MOL0     H59508   5.304   4.714   7.144 -0.7889  0.8444 -0.3282
  441MOL0     H59509   5.399   4.935   7.323  1.0931  0.4087 -0.8452
  441MOL0     H59510   5.517   4.861   7.212  0.3708  0.2725 -0.9171
  441MOL0     H59511   5.356   4.693   7.399  0.1578 -0.9587  0.8634
  441MOL0     H59512   5.493   4.645   7.288 -1.7215  1.8723 -2.1990
  441MOL0     H59513   5.564   4.652   7.532  0.0003 -1.3167 -1.2405
  441MOL0     H59514   5.486   4.799   7.562 -0.6595 -0.1593 -0.0485
  441MOL0     H59515   5.653   4.930   7.436  1.4316 -0.3719 -1.6606
  441MOL0     H59516   5.716   4.780   7.370 -2.6700  1.3677 -1.7991
  441MOL0     H59517   5.297   5.223   6.873 -0.8857 -0.5569  0.5757
  441MOL0     H59518   5.516   5.306   6.949 -0.0529  0.1139  0.8712
  441MOL0     H59519   5.943   5.291   6.910  2.0584 -1.6747 -2.4874
  441MOL0     H59520   6.161   5.377   6.953 -1.0675  0.3506 -0.8612
  441MOL0     H59521   6.099   6.620   7.128  2.9771 -1.7357  0.6487
  441MOL0     H59522   5.857   6.672   7.199  0.2943 -1.0653 -1.8734
  441MOL0     H59523   5.552   6.837   7.564 -0.0058 -0.0965 -1.9255
  441MOL0     H59524   5.322   6.825   7.684 -0.4642 -0.2666  0.0420
  441MOL0     H59525   5.110   6.424   7.663  0.4867 -2.9261  2.9270
  441MOL0     H59526   5.195   6.447   7.812 -1.0412 -0.8972  1.2648
  441MOL0     H59527   5.014   6.588   7.894 -1.4555 -2.6164  2.3800
  441MOL0     H59528   4.963   6.426   7.877 -2.2972  1.7150  1.6066
  441MOL0     H59529   4.853   6.472   7.657  1.5725 -2.2583  2.6495
  441MOL0     H59530   4.900   6.644   7.665  0.3325 -0.0786 -0.4741
  441MOL0     H59531   4.748   6.687   7.844 -0.6863 -0.3450  0.8421
  441MOL0     H59532   4.741   6.511   7.886 -0.0617 -0.4236  0.1430
  441MOL0     H59533   4.433   6.617   7.614  0.1677 -2.9235 -1.4457
  441MOL0     H59534   5.297   6.414   7.564  1.5817 -0.6107 -1.2291
  441MOL0     H59535   5.504   6.430   7.447  1.6267 -0.0736  0.0451
  442MOL0     O59536   0.419   6.226   7.127  0.1745 -0.7878  0.2366
  442MOL0     C59537   0.466   6.136   7.066  0.4584 -0.1332 -0.4029
  442MOL0     O59538   0.396   6.038   6.995 -0.4988 -0.1818  0.3840
  442MOL0     C59539   0.262   6.039   6.985  0.1941 -0.2816  0.3343
  442MOL0     C59540   0.186   5.926   6.971 -0.2788  0.5278  0.0574
  442MOL0     C59541   0.057   5.923   6.932 -0.0601  0.5637  0.1619
  442MOL0     C59542  -0.018   6.036   6.907 -0.4785  0.6765 -0.5865
  442MOL0     O59543  -0.147   6.017   6.860  0.1205 -0.5877  0.4861
  442MOL0     C59544  -0.232   6.139   6.833 -0.1224 -0.4209  0.1691
  442MOL0     C59545  -0.270   6.229   6.953  0.0063  0.6523 -0.8026
  442MOL0     C59546  -0.347   6.140   7.060  0.0919  0.1197 -0.3063
  442MOL0     C59547  -0.492   6.097   7.025 -0.2971  0.9000  0.0011
  442MOL0     C59548  -0.590   6.212   7.062 -0.0425 -0.6863  0.4481
  442MOL0     C59549  -0.734   6.187   7.002  0.6903 -0.4078 -0.2372
  442MOL0     C59550  -0.831   6.297   6.982  0.7072  0.1185 -0.0693
  442MOL0     C59551  -0.886   6.372   7.106 -0.1743  0.2515  0.5344
  442MOL0     N59552  -0.955   6.496   7.077  0.9483 -0.1376  0.3047
  442MOL0     C59553  -1.085   6.512   7.034  0.2026 -0.3078  0.1851
  442MOL0     C59554  -1.096   6.648   7.031  0.3677  0.6829  0.3170
  442MOL0     C59555  -1.207   6.742   6.990  0.3244  0.1308  0.1163
  442MOL0     C59556  -1.284   6.687   6.865  0.0441 -0.1399 -0.5969
  442MOL0     C59557  -1.389   6.587   6.897  0.2946  0.0605 -0.1781
  442MOL0     C59558  -1.523   6.657   6.923  1.0141 -0.2351 -0.0641
  442MOL0     O59559  -1.622   6.556   6.899  0.5345 -0.4373 -0.5172
  442MOL0     C59560  -1.754   6.578   6.940 -0.2479 -0.2608  1.3188
  442MOL0     C59561  -1.865   6.496   6.908 -0.4588 -0.1308  0.3380
  442MOL0     C59562  -1.997   6.536   6.924 -0.2168 -0.3047  0.3445
  442MOL0     C59563  -2.105   6.433   6.891  0.4032  0.0750 -0.0416
  442MOL0     C59564  -2.034   6.668   6.963  0.3051  0.3087  0.1581
  442MOL0     C59565  -2.183   6.720   6.987  0.4412 -0.3718 -0.0544
  442MOL0     O59566  -2.207   6.850   6.962  0.7146 -0.7786  0.3440
  442MOL0     C59567  -2.333   6.895   6.984 -0.2289  0.0148  0.0560
  442MOL0     C59568  -2.410   6.907   6.866 -0.3786 -0.1402 -0.6304
  442MOL0     C59569  -2.539   6.964   6.862  0.0473 -0.0156 -0.1871
  442MOL0     C59570  -2.593   7.023   6.980  0.1279  0.1591  0.3009
  442MOL0     O59571  -2.713   7.082   6.991  0.1561  0.4364  0.2219
  442MOL0     C59572  -2.801   7.058   6.881  0.2364 -0.1867 -0.1231
  442MOL0     C59573  -2.943   7.074   6.932 -0.1848  0.3632 -0.8113
  442MOL0     C59574  -3.035   7.083   6.808 -0.8489  0.5619  0.1402
  442MOL0     C59575  -3.182   7.095   6.843  0.7752  0.7918 -0.2472
  442MOL0     C59576  -3.284   7.072   6.722  0.6716  0.6135 -0.7161
  442MOL0     C59577  -3.427   7.073   6.773 -0.7330  0.4943  0.0041
  442MOL0     C59578  -3.459   7.200   6.847 -0.1621 -0.1610  0.0956
  442MOL0     C59579  -3.616   7.202   6.857 -0.5738 -0.6591  0.1450
  442MOL0    Cl59580  -3.686   7.209   6.692 -1.0175 -0.4953  0.0901
  442MOL0     C59581  -2.511   7.002   7.096 -0.5608 -0.3865  0.3012
  442MOL0     C59582  -2.388   6.942   7.103  0.8375 -0.2098 -0.1546
  442MOL0     O59583  -2.261   6.638   7.044 -0.1880 -0.9743  0.4458
  442MOL0     C59584  -1.927   6.753   6.987 -0.2228 -0.1619 -0.0010
  442MOL0     C59585  -1.795   6.704   6.983 -0.5873 -0.1890  0.3290
  442MOL0     N59586  -0.981   6.711   7.067 -0.6639  0.1525  0.0730
  442MOL0     N59587  -0.901   6.621   7.093  0.0844 -0.3590 -0.6270
  442MOL0     C59588   0.058   6.157   6.916  1.2423 -0.6048 -0.3032
  442MOL0     C59589   0.190   6.159   6.960 -0.2816 -0.0136  0.4741
  442MOL0     C59590   0.612   6.122   7.061  0.2006  0.0819  0.0883
  442MOL0     C59591   0.675   6.014   6.989 -0.3860 -0.5147 -0.3874
  442MOL0     C59592   0.812   5.995   6.988  0.8312 -0.7919 -0.6962
  442MOL0     C59593   0.890   6.080   7.070 -0.5553 -0.2047  0.0581
  442MOL0     O59594   1.023   6.052   7.068 -0.3740 -0.8132  0.7504
  442MOL0     C59595   1.081   6.027   7.197  0.8461  0.4783  0.5450
  442MOL0     C59596   1.043   5.885   7.246 -0.5073 -0.1007  0.5051
  442MOL0     C59597   1.105   5.778   7.165 -0.3380  0.3132 -0.1419
  442MOL0     C59598   1.254   5.768   7.146  0.0964 -0.3223 -0.4466
  442MOL0     C59599   1.315   5.771   7.282  0.4463  0.2353 -0.0609
  442MOL0     C59600   1.350   5.769   7.400 -0.5037  0.1242 -0.0662
  442MOL0     C59601   0.834   6.186   7.138 -0.1592 -0.4313  0.5303
  442MOL0     C59602   0.692   6.205   7.137 -0.3356 -0.2323  0.1911
  442MOL0     H59603   0.238   5.830   6.971 -1.8589 -0.3767 -0.3690
  442MOL0     H59604   0.005   5.830   6.912  0.0310  0.6612 -0.5650
  442MOL0     H59605  -0.170   6.202   6.768 -0.7457 -0.3686 -0.3836
  442MOL0     H59606  -0.323   6.110   6.780 -1.4490  2.2218  0.8166
  442MOL0     H59607  -0.172   6.263   6.989  0.5165  0.3921 -1.8958
  442MOL0     H59608  -0.330   6.317   6.928  2.2871  2.4852 -0.2708
  442MOL0     H59609  -0.289   6.048   7.076 -0.5266 -0.6896 -2.3662
  442MOL0     H59610  -0.351   6.185   7.159 -1.2871 -1.0952  0.2235
  442MOL0     H59611  -0.495   6.080   6.917  1.8975  0.5515 -0.0405
  442MOL0     H59612  -0.519   6.004   7.075 -2.0262 -0.3742 -2.9826
  442MOL0     H59613  -0.602   6.235   7.168 -1.2384  3.2568 -0.3782
  442MOL0     H59614  -0.557   6.310   7.026  0.9828  0.0049  3.0479
  442MOL0     H59615  -0.718   6.152   6.899  2.8969 -0.1988 -0.0176
  442MOL0     H59616  -0.784   6.105   7.053  0.4869 -0.9385 -1.2478
  442MOL0     H59617  -0.780   6.369   6.917  0.2274 -1.0460 -1.7871
  442MOL0     H59618  -0.915   6.261   6.923  0.0840 -1.7304  1.8496
  442MOL0     H59619  -0.807   6.402   7.176 -1.1551  0.8544  1.4097
  442MOL0     H59620  -0.945   6.295   7.157 -1.6900  1.5232  0.7622
  442MOL0     H59621  -1.160   6.442   6.999  0.4651 -0.8192  0.6192
  442MOL0     H59622  -1.284   6.747   7.067 -0.5412 -1.6638 -0.5876
  442MOL0     H59623  -1.165   6.841   6.969 -0.0858  0.4168  0.6427
  442MOL0     H59624  -1.205   6.643   6.803  0.3200  0.1158 -0.4312
  442MOL0     H59625  -1.329   6.770   6.811 -1.6733 -1.4216 -1.1937
  442MOL0     H59626  -1.372   6.526   6.986 -1.8088 -2.6646 -1.4772
  442MOL0     H59627  -1.392   6.520   6.810  3.1189  1.1078 -1.2041
  442MOL0     H59628  -1.538   6.734   6.847  0.0115 -2.4892 -2.3114
  442MOL0     H59629  -1.542   6.707   7.018 -0.6392 -1.6380  0.3991
  442MOL0     H59630  -1.846   6.396   6.873 -2.1876 -0.2006 -0.5298
  442MOL0     H59631  -2.205   6.468   6.862  1.3685  0.8406 -2.7878
  442MOL0     H59632  -2.073   6.372   6.806  1.0684  1.4051 -0.7807
  442MOL0     H59633  -2.112   6.367   6.977 -1.4049 -0.7047 -0.7465
  442MOL0     H59634  -2.367   6.868   6.775 -0.7558 -1.2368 -0.3470
  442MOL0     H59635  -2.578   6.958   6.761 -4.0709  3.3233  0.9249
  442MOL0     H59636  -2.779   7.128   6.800 -2.8213 -0.7824 -1.6189
  442MOL0     H59637  -2.799   6.956   6.841 -1.0776  0.0669 -0.8986
  442MOL0     H59638  -2.976   6.990   6.994  0.5120  1.9365  1.8447
  442MOL0     H59639  -2.949   7.161   6.998  2.0281  1.3565 -1.8199
  442MOL0     H59640  -3.016   6.985   6.763  3.6589  0.2603  2.2029
  442MOL0     H59641  -3.005   7.169   6.748 -0.9898  0.1757 -0.4921
  442MOL0     H59642  -3.200   7.028   6.928  0.1453  1.0310 -0.1915
  442MOL0     H59643  -3.202   7.197   6.874 -0.0779  0.5773 -0.0808
  442MOL0     H59644  -3.262   6.968   6.695 -0.4226  0.7295 -2.1608
  442MOL0     H59645  -3.276   7.136   6.633 -0.9800 -0.8691 -1.9918
  442MOL0     H59646  -3.495   7.057   6.689 -1.3167  1.6109  0.2469
  442MOL0     H59647  -3.431   6.985   6.839  2.9378 -0.1162 -0.3773
  442MOL0     H59648  -3.437   7.289   6.788 -1.9548  0.1021 -0.2256
  442MOL0     H59649  -3.416   7.218   6.946  1.2379  0.2826 -0.5527
  442MOL0     H59650  -3.656   7.293   6.903  2.6990  0.1621  1.6542
  442MOL0     H59651  -3.648   7.118   6.919 -0.0575 -0.6099  0.4863
  442MOL0     H59652  -2.555   7.055   7.180 -2.4379 -0.8507 -0.3286
  442MOL0     H59653  -2.330   6.959   7.193 -1.7366  3.0530  1.1124
  442MOL0     H59654  -1.944   6.857   7.015  2.6647  0.2478  0.6049
  442MOL0     H59655  -1.725   6.784   7.005  2.9046 -2.7445 -0.4543
  442MOL0     H59656   0.017   6.254   6.891  2.1722 -0.1908 -0.2786
  442MOL0     H59657   0.232   6.259   6.960  1.4682 -0.6799 -1.3655
  442MOL0     H59658   0.614   5.947   6.930  0.8843 -1.0202 -1.1671
  442MOL0     H59659   0.855   5.912   6.933 -0.5166 -0.6632 -1.9889
  442MOL0     H59660   1.189   6.045   7.197  0.5941  2.2415  0.9105
  442MOL0     H59661   1.039   6.090   7.276  1.0100  2.8048 -1.0781
  442MOL0     H59662   0.934   5.880   7.241 -0.3996 -0.7785 -2.3707
  442MOL0     H59663   1.071   5.866   7.351  0.0348 -2.8606 -0.0710
  442MOL0     H59664   1.066   5.793   7.063 -0.5091  0.3869 -0.0658
  442MOL0     H59665   1.060   5.687   7.205 -2.0053  0.6791 -1.0777
  442MOL0     H59666   1.287   5.857   7.091  0.7527  0.6365  1.4064
  442MOL0     H59667   1.279   5.673   7.098  0.8783 -0.1531 -0.3736
  442MOL0     H59668   1.381   5.782   7.501 -0.1124 -1.6283  0.0659
  442MOL0     H59669   0.899   6.258   7.187 -0.1616 -0.8782  1.2063
  442MOL0     H59670   0.646   6.280   7.200 -2.3592 -0.7710 -0.5526
  443MOL0     O59671   2.924  11.106   2.284 -0.4257  0.1129 -0.3554
  443MOL0     C59672   2.981  11.037   2.364 -0.5149 -0.8838 -1.3878
  443MOL0     O59673   2.939  10.918   2.408  0.8487 -0.0436  0.0628
  443MOL0     C59674   2.826  10.858   2.349  0.0560  0.1385 -0.3982
  443MOL0     C59675   2.700  10.919   2.309  0.7057 -0.3333  0.3137
  443MOL0     C59676   2.586  10.846   2.272 -0.1148  0.4339 -0.0531
  443MOL0     C59677   2.584  10.712   2.277  0.1110 -0.6813 -0.0436
  443MOL0     O59678   2.462  10.645   2.262 -0.5623 -0.0125  0.4214
  443MOL0     C59679   2.466  10.505   2.246  0.6370  0.4257 -0.2242
  443MOL0     C59680   2.335  10.446   2.181 -0.4325  0.5656 -0.6750
  443MOL0     C59681   2.193  10.492   2.239  0.1613 -0.4429 -0.3388
  443MOL0     C59682   2.083  10.391   2.189 -0.5146 -0.6034 -0.0603
  443MOL0     C59683   1.941  10.425   2.239  0.1632 -0.0878 -0.1994
  443MOL0     C59684   1.832  10.309   2.205 -0.2673 -0.7412 -0.6167
  443MOL0     C59685   1.717  10.302   2.301 -0.6938  0.8810 -0.2463
  443MOL0     C59686   1.595  10.225   2.248  0.4108  0.0334 -0.0648
  443MOL0     N59687   1.517  10.304   2.153  0.1851  0.1559  0.0168
  443MOL0     C59688   1.550  10.343   2.025  0.3778 -0.9146  1.1226
  443MOL0     C59689   1.448  10.422   1.985  0.0679 -0.8671 -0.4545
  443MOL0     C59690   1.446  10.502   1.859 -0.1894 -0.3780 -0.3484
  443MOL0     C59691   1.301  10.542   1.823  0.1226 -1.0520  0.1677
  443MOL0     C59692   1.208  10.417   1.786 -1.0775 -0.0553  0.2841
  443MOL0     C59693   1.106  10.457   1.685 -0.0020  0.0547 -0.3176
  443MOL0     O59694   1.002  10.540   1.734 -0.0390  0.3990 -0.3663
  443MOL0     C59695   0.895  10.572   1.656  0.8576 -0.6112  0.2468
  443MOL0     C59696   0.882  10.532   1.520  0.1070 -0.6336  0.9070
  443MOL0     C59697   0.777  10.547   1.436 -0.5514  0.3612  0.2205
  443MOL0     C59698   0.790  10.506   1.293  0.0471 -0.4929 -0.4990
  443MOL0     C59699   0.668  10.610   1.496 -0.1843  0.6101 -0.3107
  443MOL0     C59700   0.550  10.642   1.420 -0.3545 -0.2663  0.9883
  443MOL0     O59701   0.495  10.770   1.451 -1.0044  0.1142  1.2767
  443MOL0     C59702   0.378  10.802   1.386 -0.4972  0.0470 -0.4146
  443MOL0     C59703   0.360  10.817   1.247  0.2824  0.0133  0.3553
  443MOL0     C59704   0.233  10.858   1.189 -0.0295  0.7749 -0.3234
  443MOL0     C59705   0.121  10.869   1.267 -0.4338 -0.1961 -0.0182
  443MOL0     O59706  -0.005  10.862   1.217 -0.1092  0.5457 -0.1392
  443MOL0     C59707  -0.040  10.899   1.083 -0.2095  0.1821  0.8179
  443MOL0     C59708  -0.173  10.968   1.085 -0.1210 -0.4746 -0.1351
  443MOL0     C59709  -0.220  10.990   0.940  0.4942 -0.3002  0.6622
  443MOL0     C59710  -0.361  11.058   0.942  0.3161 -0.5118  0.1950
  443MOL0     C59711  -0.439  11.048   0.808 -0.0369 -0.5959 -0.6257
  443MOL0     C59712  -0.556  11.147   0.809  0.8779 -0.3615  0.0985
  443MOL0     C59713  -0.603  11.156   0.668  0.2123 -0.0202 -0.1841
  443MOL0     C59714  -0.724  11.250   0.645  0.6554  0.4484 -0.6755
  443MOL0    Cl59715  -0.741  11.304   0.469 -0.3418 -0.6106  0.1165
  443MOL0     C59716   0.140  10.855   1.403 -0.0657  0.3858 -0.2994
  443MOL0     C59717   0.265  10.817   1.458 -0.0218  1.0140 -1.0050
  443MOL0     O59718   0.481  10.552   1.361 -0.3700  1.0119 -0.2893
  443MOL0     C59719   0.665  10.647   1.632 -0.4770 -0.5438 -0.8658
  443MOL0     C59720   0.777  10.624   1.714  0.2221  0.1525 -0.2365
  443MOL0     N59721   1.356  10.413   2.083  0.2868 -0.1248 -0.4384
  443MOL0     N59722   1.389  10.346   2.184 -0.2145  0.7135  0.3912
  443MOL0     C59723   2.702  10.648   2.316 -0.1790  0.7617 -0.5279
  443MOL0     C59724   2.813  10.719   2.354 -0.5542  0.1195  0.1949
  443MOL0     C59725   3.095  11.101   2.444  0.3969 -0.7482 -0.7092
  443MOL0     C59726   3.125  11.052   2.572 -0.4283  0.1113 -0.3829
  443MOL0     C59727   3.203  11.124   2.661  0.4679  0.4297  0.3284
  443MOL0     C59728   3.271  11.231   2.621 -0.6635  0.8129  0.7001
  443MOL0     O59729   3.345  11.298   2.711 -0.6496 -0.8914 -0.4225
  443MOL0     C59730   3.375  11.437   2.694 -0.1612 -0.6758 -0.3118
  443MOL0     C59731   3.512  11.474   2.643  0.1422 -0.0082 -0.9139
  443MOL0     C59732   3.633  11.390   2.706  0.0518 -0.4547  0.2811
  443MOL0     C59733   3.769  11.450   2.661 -0.8169  0.3234  0.1922
  443MOL0     C59734   3.889  11.372   2.715  0.2622 -1.1387  0.9959
  443MOL0     C59735   3.974  11.316   2.777 -0.2923 -0.0571  0.0050
  443MOL0     C59736   3.249  11.285   2.487 -0.3777  0.2259  0.4435
  443MOL0     C59737   3.164  11.219   2.399 -0.3988  1.1224 -0.7067
  443MOL0     H59738   2.689  11.027   2.306 -0.6703 -0.4797 -0.7317
  443MOL0     H59739   2.492  10.895   2.249 -1.2913 -2.3637 -1.6451
  443MOL0     H59740   2.547  10.467   2.183 -1.0508 -3.9775 -0.0513
  443MOL0     H59741   2.477  10.463   2.346 -2.4507 -4.7925 -1.6757
  443MOL0     H59742   2.337  10.447   2.071 -0.3853 -2.0136 -0.7492
  443MOL0     H59743   2.327  10.340   2.207  0.7592  0.5246 -0.3919
  443MOL0     H59744   2.190  10.507   2.347 -2.0882  0.5370 -0.4791
  443MOL0     H59745   2.178  10.594   2.200  1.1990 -0.3041 -0.4092
  443MOL0     H59746   2.078  10.383   2.080  1.6529 -0.8908 -0.1775
  443MOL0     H59747   2.104  10.293   2.231 -1.2702 -0.9379 -0.4309
  443MOL0     H59748   1.946  10.446   2.346 -3.1018  0.3425 -0.0174
  443MOL0     H59749   1.909  10.520   2.194 -1.9398 -0.5571  0.1687
  443MOL0     H59750   1.802  10.346   2.106 -0.0403  0.5950 -0.2020
  443MOL0     H59751   1.881  10.212   2.193  0.9466 -0.6155  2.5650
  443MOL0     H59752   1.751  10.250   2.391  0.8410  2.9673  0.4539
  443MOL0     H59753   1.689  10.403   2.332 -1.8517 -0.1847  2.5191
  443MOL0     H59754   1.543  10.187   2.337  0.0364 -1.1503 -0.7598
  443MOL0     H59755   1.640  10.136   2.202  0.9087  0.6328 -0.7545
  443MOL0     H59756   1.641  10.338   1.966 -0.5305  0.0853 -0.4378
  443MOL0     H59757   1.510  10.589   1.877 -1.4886  0.7376 -0.9979
  443MOL0     H59758   1.497  10.443   1.782  3.2459 -1.2760  2.3430
  443MOL0     H59759   1.307  10.614   1.740 -1.5518 -1.6261 -0.5057
  443MOL0     H59760   1.250  10.591   1.907 -3.8397 -1.5595 -1.6823
  443MOL0     H59761   1.169  10.373   1.878  1.3190 -3.3875 -0.0735
  443MOL0     H59762   1.268  10.336   1.742 -0.5577  0.7935 -0.5936
  443MOL0     H59763   1.065  10.361   1.651  1.4325 -0.8733  0.4543
  443MOL0     H59764   1.159  10.497   1.598  1.5223  0.4342  0.7344
  443MOL0     H59765   0.979  10.516   1.473 -0.9401 -2.1675 -0.9131
  443MOL0     H59766   0.890  10.516   1.251 -0.6508  1.0449 -1.8991
  443MOL0     H59767   0.746  10.407   1.281 -1.7731 -0.0474  1.7247
  443MOL0     H59768   0.723  10.573   1.238 -0.4836 -0.2478  0.4224
  443MOL0     H59769   0.442  10.784   1.184  0.9700  0.0117  1.2224
  443MOL0     H59770   0.220  10.852   1.081  1.1339  2.0673 -0.5616
  443MOL0     H59771   0.038  10.960   1.036  0.3024 -1.9682 -1.3220
  443MOL0     H59772  -0.042  10.803   1.031 -1.9823  0.5961  0.0719
  443MOL0     H59773  -0.241  10.903   1.141 -0.2148 -0.8064 -0.6275
  443MOL0     H59774  -0.147  11.064   1.130  0.8192  0.4898 -2.5374
  443MOL0     H59775  -0.232  10.894   0.889 -0.8789  0.4235 -0.4442
  443MOL0     H59776  -0.162  11.061   0.881 -1.5971 -0.2722 -1.5588
  443MOL0     H59777  -0.422  11.032   1.030  0.5495  3.8818  1.9022
  443MOL0     H59778  -0.350  11.164   0.965 -1.6109 -0.4879  1.2527
  443MOL0     H59779  -0.462  10.943   0.791 -0.1734 -0.5879 -0.4826
  443MOL0     H59780  -0.369  11.081   0.729  0.4258 -0.6818 -0.2546
  443MOL0     H59781  -0.636  11.096   0.865 -0.7319 -1.8259 -3.2770
  443MOL0     H59782  -0.534  11.239   0.865 -3.3038  0.3773  0.8414
  443MOL0     H59783  -0.627  11.066   0.610 -1.8366 -0.1334  0.7259
  443MOL0     H59784  -0.522  11.199   0.610 -2.0874  2.6370 -1.6799
  443MOL0     H59785  -0.721  11.337   0.711 -0.7658 -2.1151  3.0769
  443MOL0     H59786  -0.821  11.207   0.670 -0.0790  2.6488  0.5409
  443MOL0     H59787   0.049  10.870   1.461 -0.7403 -0.3126 -1.1481
  443MOL0     H59788   0.285  10.815   1.564  1.1847 -3.6979 -1.0993
  443MOL0     H59789   0.578  10.698   1.671  0.6234  2.3879 -2.0085
  443MOL0     H59790   0.761  10.642   1.820 -0.0133 -1.1391 -0.0360
  443MOL0     H59791   2.710  10.540   2.327  0.3198  0.4148 -3.4770
  443MOL0     H59792   2.901  10.670   2.395 -1.2907 -0.3476  1.2690
  443MOL0     H59793   3.069  10.969   2.616  0.6592  0.3808  1.6263
  443MOL0     H59794   3.205  11.095   2.765  1.7087 -1.2960 -0.1261
  443MOL0     H59795   3.300  11.478   2.626 -0.7747 -3.1667 -1.2431
  443MOL0     H59796   3.359  11.480   2.793 -0.3126 -1.6928  0.1214
  443MOL0     H59797   3.537  11.578   2.667  0.7884 -0.7617  2.0080
  443MOL0     H59798   3.512  11.454   2.535 -0.8111  0.5519 -1.0304
  443MOL0     H59799   3.625  11.286   2.672 -3.2139 -0.0209 -0.5656
  443MOL0     H59800   3.615  11.394   2.814 -3.5825  0.2732 -0.2131
  443MOL0     H59801   3.785  11.553   2.691  2.8535 -0.5691  1.8163
  443MOL0     H59802   3.768  11.453   2.551 -1.5700  1.7891  0.2178
  443MOL0     H59803   4.044  11.268   2.842  0.4412  0.1840 -0.5943
  443MOL0     H59804   3.298  11.371   2.443 -1.2682  0.4702 -0.1079
  443MOL0     H59805   3.154  11.244   2.294  1.5178  1.6661 -0.8049
  444MOL0     O59806  11.087   5.135   1.993  0.4113 -0.5681 -0.6579
  444MOL0     C59807  11.092   5.130   1.869  0.5625 -0.0029  0.7487
  444MOL0     O59808  10.999   5.189   1.784  0.4099 -0.1371  0.6500
  444MOL0     C59809  10.873   5.236   1.821 -0.1974  0.0733  0.5389
  444MOL0     C59810  10.803   5.311   1.729 -0.3534  0.2803  0.3515
  444MOL0     C59811  10.682   5.367   1.752 -0.0504  0.4324  0.7433
  444MOL0     C59812  10.609   5.339   1.870 -0.1460  0.2810  0.0646
  444MOL0     O59813  10.483   5.396   1.892  0.6116  0.5071  0.4979
  444MOL0     C59814  10.385   5.335   1.976 -0.2777 -0.8765 -0.6816
  444MOL0     C59815  10.244   5.387   1.942  0.4444 -0.2405 -0.1504
  444MOL0     C59816  10.130   5.318   2.032 -0.5809 -0.2053 -0.3131
  444MOL0     C59817  10.018   5.424   2.047 -0.1730 -0.6836  0.0169
  444MOL0     C59818   9.888   5.366   2.098 -0.7182 -1.1187 -0.2183
  444MOL0     C59819   9.785   5.475   2.118  0.4004 -0.0412  0.4053
  444MOL0     C59820   9.663   5.429   2.200  0.8187  0.4565  0.6812
  444MOL0     C59821   9.571   5.320   2.144  0.4293  1.0772 -0.1586
  444MOL0     N59822   9.484   5.371   2.039  0.3630 -0.2178  0.1654
  444MOL0     C59823   9.524   5.386   1.908  0.5840  0.6255  0.0557
  444MOL0     C59824   9.417   5.445   1.848  0.2356 -0.4218 -0.3198
  444MOL0     C59825   9.414   5.493   1.707 -0.5522 -0.7272 -0.7857
  444MOL0     C59826   9.438   5.645   1.708 -0.9048  0.4270  0.3031
  444MOL0     C59827   9.318   5.730   1.744 -0.1874  0.1914  0.3641
  444MOL0     C59828   9.185   5.692   1.692 -0.7352  0.8231  0.2416
  444MOL0     O59829   9.161   5.718   1.552 -0.5217  0.4301  0.6285
  444MOL0     C59830   9.033   5.710   1.493  0.4753 -0.2653  0.1014
  444MOL0     C59831   9.023   5.702   1.358  0.4734  0.5407  0.3133
  444MOL0     C59832   8.894   5.683   1.295 -0.1446 -0.1630 -0.2028
  444MOL0     C59833   8.886   5.692   1.141  0.4976 -0.2473 -0.3788
  444MOL0     C59834   8.776   5.683   1.374  0.6800 -0.0045  0.2983
  444MOL0     C59835   8.634   5.678   1.323 -0.5428 -0.8793  0.5936
  444MOL0     O59836   8.545   5.622   1.411  0.7416 -0.3179 -0.8833
  444MOL0     C59837   8.412   5.647   1.401  0.1607 -0.2725 -0.7244
  444MOL0     C59838   8.342   5.689   1.518 -0.4431  0.0933 -0.4705
  444MOL0     C59839   8.202   5.690   1.513 -0.2092 -0.0284 -0.2057
  444MOL0     C59840   8.123   5.644   1.401 -0.9217  0.0125 -0.4264
  444MOL0     O59841   7.986   5.647   1.399  0.6078 -0.0623  0.7743
  444MOL0     C59842   7.913   5.719   1.294 -0.4906 -0.4632 -0.9049
  444MOL0     C59843   7.782   5.650   1.265  0.0559  0.0638 -0.2788
  444MOL0     C59844   7.687   5.681   1.381 -0.5119  0.1729  0.2345
  444MOL0     C59845   7.560   5.600   1.367  0.2162  0.2888 -0.2002
  444MOL0     C59846   7.446   5.648   1.468 -0.2721 -0.1945  0.2394
  444MOL0     C59847   7.318   5.574   1.446 -0.4562 -0.7245  0.5083
  444MOL0     C59848   7.242   5.595   1.313  0.2102 -0.0511  0.0082
  444MOL0     C59849   7.128   5.498   1.308 -0.0670 -0.2007  0.0694
  444MOL0    Cl59850   7.006   5.547   1.427 -0.1020 -0.3427 -0.1125
  444MOL0     C59851   8.194   5.598   1.286 -0.6722  0.1312 -0.0910
  444MOL0     C59852   8.337   5.605   1.285  0.2844 -0.2262 -0.2499
  444MOL0     O59853   8.606   5.738   1.218  0.6963 -0.0653  0.1221
  444MOL0     C59854   8.793   5.683   1.519 -0.0663 -0.5155  0.1860
  444MOL0     C59855   8.923   5.696   1.571 -0.2560 -0.0667 -0.6355
  444MOL0     N59856   9.312   5.460   1.938 -0.3098  0.9791 -0.0310
  444MOL0     N59857   9.365   5.426   2.059  0.5592  0.0140  0.2129
  444MOL0     C59858  10.667   5.249   1.963 -0.4961  0.5482  0.7424
  444MOL0     C59859  10.798   5.208   1.933 -0.6055  0.2011 -0.0588
  444MOL0     C59860  11.222   5.083   1.802  0.5693 -0.1864 -0.8758
  444MOL0     C59861  11.213   5.040   1.671  0.2659  0.5449  0.9819
  444MOL0     C59862  11.328   4.983   1.610  0.5353  0.6136  0.6543
  444MOL0     C59863  11.450   4.975   1.682  0.3025  0.1444 -0.0433
  444MOL0     O59864  11.554   4.915   1.616  0.3295  0.1605 -0.3839
  444MOL0     C59865  11.674   4.883   1.687  0.1469 -0.2380  0.8789
  444MOL0     C59866  11.780   4.995   1.686 -0.0602  0.6896 -0.3317
  444MOL0     C59867  11.809   5.053   1.539 -0.8448 -0.4442  0.5727
  444MOL0     C59868  11.929   5.138   1.547  0.2554  0.3517  0.5786
  444MOL0     C59869  12.050   5.059   1.508  1.0929  0.3428 -0.2356
  444MOL0     C59870  12.134   4.984   1.469 -0.6337  1.2413 -0.4388
  444MOL0     C59871  11.457   5.029   1.807 -0.2634  1.0095 -0.2331
  444MOL0     C59872  11.342   5.074   1.876  0.5060  0.7904  0.3714
  444MOL0     H59873  10.854   5.357   1.645  0.3741  0.3287  0.8067
  444MOL0     H59874  10.634   5.449   1.699 -0.3823  1.5766  2.7243
  444MOL0     H59875  10.392   5.226   1.971 -0.4233 -0.8833 -5.8182
  444MOL0     H59876  10.408   5.373   2.076  0.8227  0.5550 -1.4352
  444MOL0     H59877  10.242   5.493   1.969  4.2300  0.0553 -0.5212
  444MOL0     H59878  10.217   5.381   1.836 -1.6941  1.2596  0.2443
  444MOL0     H59879  10.097   5.230   1.976 -1.9220  1.9544 -3.1500
  444MOL0     H59880  10.173   5.278   2.124 -1.6772 -0.9149 -0.0907
  444MOL0     H59881  10.044   5.518   2.096 -1.1621  1.1388 -2.7615
  444MOL0     H59882   9.992   5.464   1.949 -0.0900 -0.5547  0.0470
  444MOL0     H59883   9.852   5.295   2.023  0.7274 -0.0396 -2.0039
  444MOL0     H59884   9.913   5.310   2.189  0.7218 -1.5464 -0.8349
  444MOL0     H59885   9.835   5.558   2.167 -0.3194  0.8625 -0.3469
  444MOL0     H59886   9.754   5.515   2.021  0.9881 -1.5903 -0.4681
  444MOL0     H59887   9.689   5.392   2.299 -0.7456 -0.8699  0.6319
  444MOL0     H59888   9.597   5.513   2.222 -2.4575 -1.4064 -1.2488
  444MOL0     H59889   9.516   5.284   2.232 -0.8965 -0.0617 -1.4104
  444MOL0     H59890   9.630   5.239   2.102 -1.5936 -1.2203  1.1520
  444MOL0     H59891   9.614   5.354   1.858 -0.1029 -1.0571 -0.1661
  444MOL0     H59892   9.496   5.437   1.659  0.0535  0.8271 -1.6250
  444MOL0     H59893   9.320   5.464   1.659 -1.6168 -1.5611  1.6610
  444MOL0     H59894   9.474   5.668   1.607 -0.9552 -0.5739  0.0407
  444MOL0     H59895   9.515   5.680   1.776 -0.8391  1.9514 -0.5211
  444MOL0     H59896   9.339   5.833   1.713 -0.6322 -0.2588 -1.6122
  444MOL0     H59897   9.332   5.734   1.852  2.4048  1.0392  0.0739
  444MOL0     H59898   9.118   5.759   1.747  1.0526  1.5585  1.6576
  444MOL0     H59899   9.177   5.587   1.722  3.1085  0.7466  1.6655
  444MOL0     H59900   9.119   5.705   1.308  1.9519  4.3082  2.9361
  444MOL0     H59901   8.834   5.783   1.108  0.6401 -0.6977 -1.9588
  444MOL0     H59902   8.976   5.692   1.079  0.7349 -2.5187 -0.1483
  444MOL0     H59903   8.825   5.612   1.097 -1.3509  2.6173 -3.5302
  444MOL0     H59904   8.397   5.733   1.601 -1.3319  3.0515 -1.3230
  444MOL0     H59905   8.158   5.737   1.601 -1.0308 -2.1817  0.5771
  444MOL0     H59906   7.885   5.818   1.331 -2.6080 -0.8878 -1.2556
  444MOL0     H59907   7.969   5.724   1.200 -1.2030 -3.8482 -1.6292
  444MOL0     H59908   7.747   5.699   1.174  0.1417 -1.4726 -1.1743
  444MOL0     H59909   7.793   5.544   1.241  1.2631 -0.1440  1.0155
  444MOL0     H59910   7.662   5.787   1.391  1.0311  0.3889  3.1467
  444MOL0     H59911   7.741   5.661   1.474  2.0846 -1.2453 -1.4351
  444MOL0     H59912   7.520   5.611   1.265 -1.8562  1.0235  0.6340
  444MOL0     H59913   7.577   5.493   1.381  0.9941  0.5569  0.9848
  444MOL0     H59914   7.424   5.754   1.454 -2.0603 -0.8131 -2.1331
  444MOL0     H59915   7.475   5.636   1.573 -1.8780  0.0833  0.7423
  444MOL0     H59916   7.344   5.468   1.447 -1.8204 -1.0717  1.4349
  444MOL0     H59917   7.243   5.605   1.519  0.6007  1.6253  0.6767
  444MOL0     H59918   7.315   5.577   1.233 -1.3009 -0.6440 -1.2804
  444MOL0     H59919   7.213   5.699   1.301  1.8433  0.1362 -3.9694
  444MOL0     H59920   7.160   5.397   1.336 -1.4980 -0.3173  1.3590
  444MOL0     H59921   7.090   5.496   1.206  0.7192 -0.3227 -0.2342
  444MOL0     H59922   8.142   5.562   1.197  1.3810 -2.9602 -0.2178
  444MOL0     H59923   8.394   5.577   1.197 -0.7877 -1.8431 -0.4620
  444MOL0     H59924   8.705   5.688   1.582  1.4737  1.5920  2.3029
  444MOL0     H59925   8.931   5.698   1.679  0.4546  0.3740 -0.6883
  444MOL0     H59926  10.630   5.207   2.056  4.5037  1.4289  3.5284
  444MOL0     H59927  10.841   5.135   2.001 -0.5186 -0.6666 -1.0247
  444MOL0     H59928  11.113   5.034   1.629 -0.2347  0.9770  2.0724
  444MOL0     H59929  11.316   4.940   1.511 -1.7566  1.2873  0.5880
  444MOL0     H59930  11.654   4.862   1.793 -0.2993 -1.8012  0.5033
  444MOL0     H59931  11.716   4.788   1.653 -2.0970 -0.8991 -0.1676
  444MOL0     H59932  11.864   4.941   1.732 -0.3876  2.4658  2.5662
  444MOL0     H59933  11.753   5.081   1.747  3.0435  2.0754 -0.7254
  444MOL0     H59934  11.719   5.102   1.501 -1.5323 -1.2181  1.1618
  444MOL0     H59935  11.818   4.973   1.466 -3.9111  0.9445 -1.5179
  444MOL0     H59936  11.947   5.185   1.644 -1.8063  0.7471  0.8082
  444MOL0     H59937  11.911   5.218   1.474  1.7833 -0.8608 -1.2128
  444MOL0     H59938  12.207   4.908   1.452  1.2341  2.4842  1.5813
  444MOL0     H59939  11.547   5.025   1.868  0.1315  0.5454 -0.8375
  444MOL0     H59940  11.361   5.136   1.963  0.1676  1.9281 -0.3501
  445MOL0     O59941   6.829   2.818   6.001 -0.1475 -0.1675 -0.9017
  445MOL0     C59942   6.812   2.854   5.884 -0.2318 -0.1682 -0.6065
  445MOL0     O59943   6.746   2.961   5.846  0.9002  0.5559 -0.5108
  445MOL0     C59944   6.714   3.052   5.943 -0.1488 -0.0719 -0.3843
  445MOL0     C59945   6.811   3.130   6.009 -0.1536  0.1689  1.4507
  445MOL0     C59946   6.776   3.216   6.113 -0.1256  0.1435  0.2191
  445MOL0     C59947   6.648   3.235   6.152  0.5181  1.1912 -0.0544
  445MOL0     O59948   6.621   3.309   6.270 -0.1447  0.4422  0.4577
  445MOL0     C59949   6.490   3.302   6.328  0.0296  0.4630  0.2459
  445MOL0     C59950   6.484   3.388   6.452 -0.3889  0.4748 -0.7964
  445MOL0     C59951   6.487   3.541   6.417  0.0175  0.0380 -0.2535
  445MOL0     C59952   6.380   3.617   6.344 -0.4644  0.2660  0.2093
  445MOL0     C59953   6.424   3.762   6.308  0.2824 -0.8097  1.1655
  445MOL0     C59954   6.303   3.863   6.300 -0.3130  0.0897 -0.4310
  445MOL0     C59955   6.254   3.885   6.447  0.8259  0.7489  0.8732
  445MOL0     C59956   6.152   3.995   6.445  0.6003 -0.0564 -0.4273
  445MOL0     N59957   6.007   3.954   6.422  0.4629 -0.2355  1.0122
  445MOL0     C59958   5.930   3.932   6.302 -0.0768  0.4598 -0.4465
  445MOL0     C59959   5.811   3.886   6.347 -0.6794 -0.1992  0.0319
  445MOL0     C59960   5.687   3.866   6.272  0.0398  0.3930  0.2538
  445MOL0     C59961   5.663   3.962   6.160  0.1306 -0.1001  0.4143
  445MOL0     C59962   5.529   3.925   6.080 -0.1345  0.3737 -0.3375
  445MOL0     C59963   5.404   3.885   6.170 -0.1764  0.4913  0.5091
  445MOL0     O59964   5.347   4.003   6.233  0.6582  0.4713 -0.0477
  445MOL0     C59965   5.256   3.958   6.322 -1.2961 -0.1647 -0.3157
  445MOL0     C59966   5.118   3.922   6.294 -0.7562  0.7131 -0.1877
  445MOL0     C59967   5.034   3.884   6.407 -0.3764 -0.3933  0.2592
  445MOL0     C59968   4.901   3.837   6.365 -0.2362 -0.0275  0.2454
  445MOL0     C59969   5.080   3.884   6.535 -0.5505 -0.5013 -0.4668
  445MOL0     C59970   4.995   3.844   6.654 -1.3114 -0.7750 -0.4734
  445MOL0     O59971   5.064   3.832   6.773  0.6296 -0.0874  0.8021
  445MOL0     C59972   4.991   3.834   6.884 -0.1011  0.7975 -0.8662
  445MOL0     C59973   4.940   3.940   6.947 -0.6423 -0.8914  1.3142
  445MOL0     C59974   4.869   3.934   7.074 -0.2621  0.8428 -0.1935
  445MOL0     C59975   4.847   3.813   7.143  0.1295 -0.1905 -0.4959
  445MOL0     O59976   4.778   3.790   7.263 -0.3065 -0.3933  0.0872
  445MOL0     C59977   4.709   3.899   7.324 -0.2118  0.2852  1.2898
  445MOL0     C59978   4.652   3.863   7.463 -0.1473 -0.6898 -0.3713
  445MOL0     C59979   4.557   3.751   7.454  0.3188 -0.0593 -0.4146
  445MOL0     C59980   4.490   3.712   7.583  0.7480 -0.7859  0.2840
  445MOL0     C59981   4.340   3.719   7.581 -0.4352  0.4453 -0.2543
  445MOL0     C59982   4.277   3.648   7.703  0.3964  0.8565  0.2800
  445MOL0     C59983   4.125   3.615   7.692  0.9192 -1.1301 -0.3929
  445MOL0     C59984   4.052   3.757   7.689 -0.5702  0.8015  0.8178
  445MOL0    Cl59985   4.077   3.871   7.824 -0.2456 -0.2924  0.1187
  445MOL0     C59986   4.899   3.702   7.075 -0.4650 -0.0202 -0.0183
  445MOL0     C59987   4.972   3.714   6.953  0.0584  0.5478  0.6332
  445MOL0     O59988   4.878   3.851   6.644 -0.2727 -0.2147  0.3000
  445MOL0     C59989   5.212   3.924   6.559 -0.1206 -0.0388  0.2468
  445MOL0     C59990   5.300   3.960   6.458 -0.0572 -0.0088  0.5509
  445MOL0     N59991   5.815   3.884   6.482  0.3265 -0.2913 -0.7137
  445MOL0     N59992   5.925   3.926   6.526 -0.0818  0.5657 -0.5875
  445MOL0     C59993   6.550   3.154   6.087  0.3598 -0.4214  0.2667
  445MOL0     C59994   6.582   3.063   5.984 -0.9931 -0.8829  0.5414
  445MOL0     C59995   6.872   2.775   5.775  0.1581  0.7192 -0.1443
  445MOL0     C59996   6.834   2.798   5.644 -0.1970 -0.0303  0.2648
  445MOL0     C59997   6.904   2.744   5.530 -0.2826  0.2867 -0.1147
  445MOL0     C59998   7.021   2.664   5.558  0.0535  0.6193 -0.3440
  445MOL0     O59999   7.114   2.617   5.464  0.9012 -0.2373  0.3677
  445MOL0     C60000   7.093   2.680   5.336 -0.1924 -0.2351 -0.6512
  445MOL0     C60001   7.216   2.671   5.250  0.1522 -1.0403 -0.2865
  445MOL0     C60002   7.316   2.780   5.268  0.0808  0.4680 -0.5448
  445MOL0     C60003   7.403   2.760   5.396 -0.6483 -0.0001  0.0207
  445MOL0     C60004   7.510   2.864   5.411 -0.2018  0.6929 -0.7166
  445MOL0     C60005   7.594   2.949   5.416  0.9218  0.1337  1.0984
  445MOL0     C60006   7.043   2.626   5.692 -0.1648  0.3033  0.8874
  445MOL0     C60007   6.977   2.677   5.798 -0.0222 -0.3505  0.3543
  445MOL0     H60008   6.916   3.110   5.991 -0.8110 -2.1333 -0.3051
  445MOL0     H60009   6.845   3.273   6.174 -2.7945  1.0426  2.6207
  445MOL0     H60010   6.409   3.336   6.262 -0.1130 -0.5573 -0.1250
  445MOL0     H60011   6.469   3.197   6.354  3.0447 -0.7506 -1.6760
  445MOL0     H60012   6.394   3.361   6.508 -0.5042 -1.0984 -1.6816
  445MOL0     H60013   6.567   3.365   6.519 -1.2056  1.2259  0.5370
  445MOL0     H60014   6.505   3.596   6.510  1.0915 -1.3885  0.4096
  445MOL0     H60015   6.579   3.541   6.358  1.2870 -2.2991  1.5713
  445MOL0     H60016   6.349   3.552   6.262  2.1862 -0.9445  0.0742
  445MOL0     H60017   6.293   3.622   6.411 -0.3506  1.1600  0.3014
  445MOL0     H60018   6.487   3.786   6.393 -0.7969 -1.4621  2.1800
  445MOL0     H60019   6.482   3.766   6.215 -1.5636  3.0813 -0.0518
  445MOL0     H60020   6.354   3.951   6.260  4.4989 -2.7939 -1.5895
  445MOL0     H60021   6.219   3.830   6.239  0.4424 -1.2851 -0.7796
  445MOL0     H60022   6.214   3.799   6.501 -0.5576 -0.0377 -1.3085
  445MOL0     H60023   6.338   3.909   6.513  0.9342 -0.6126  1.2493
  445MOL0     H60024   6.180   4.078   6.378  0.0379 -1.3037 -2.2839
  445MOL0     H60025   6.164   4.042   6.543  1.5737 -0.9519 -0.0929
  445MOL0     H60026   5.956   3.937   6.196 -2.1084  0.4254 -0.9877
  445MOL0     H60027   5.678   3.769   6.221 -1.6587  1.5178 -1.7352
  445MOL0     H60028   5.610   3.866   6.349 -0.2963 -0.6116 -0.0605
  445MOL0     H60029   5.754   3.953   6.101  1.4805  1.1449  2.1832
  445MOL0     H60030   5.657   4.066   6.194  0.9612 -0.2931  1.1928
  445MOL0     H60031   5.562   3.839   6.022  0.3527  1.1605 -1.2658
  445MOL0     H60032   5.503   4.002   6.006  1.2095  0.3510 -0.8627
  445MOL0     H60033   5.427   3.807   6.242 -0.9926 -0.3891 -0.1536
  445MOL0     H60034   5.335   3.835   6.102  0.0529 -0.4901  0.9858
  445MOL0     H60035   5.089   3.914   6.190  1.6578 -5.3433 -0.7717
  445MOL0     H60036   4.819   3.905   6.391  0.4126  1.0370 -0.4027
  445MOL0     H60037   4.893   3.827   6.256  1.2417  3.3245 -0.3154
  445MOL0     H60038   4.877   3.744   6.416 -2.5690  0.9210  1.0102
  445MOL0     H60039   4.944   4.041   6.908 -0.3649 -0.8673  1.4086
  445MOL0     H60040   4.845   4.028   7.122 -3.8005  1.0660 -2.1157
  445MOL0     H60041   4.766   3.991   7.345  0.1618  0.3563  0.0410
  445MOL0     H60042   4.627   3.930   7.259  1.6077  1.7950 -0.4203
  445MOL0     H60043   4.736   3.838   7.529 -0.8635  1.9389  1.6888
  445MOL0     H60044   4.614   3.953   7.511  1.8223  0.9775 -1.7661
  445MOL0     H60045   4.620   3.665   7.430 -0.8870 -0.4992 -2.2226
  445MOL0     H60046   4.485   3.765   7.372 -0.0694 -0.5827 -0.1636
  445MOL0     H60047   4.523   3.612   7.610 -0.2649 -1.9585 -2.5074
  445MOL0     H60048   4.527   3.775   7.665 -0.6161 -1.2277  1.2831
  445MOL0     H60049   4.294   3.675   7.492  2.3826 -0.5642 -1.3230
  445MOL0     H60050   4.318   3.825   7.597 -0.8932  0.3646 -0.3298
  445MOL0     H60051   4.319   3.547   7.704 -0.8479  0.2945 -0.9760
  445MOL0     H60052   4.311   3.693   7.797  4.1206  0.7471 -0.8593
  445MOL0     H60053   4.079   3.565   7.778 -1.9689  2.7069  0.5808
  445MOL0     H60054   4.094   3.554   7.608 -0.7768  2.3759 -2.5473
  445MOL0     H60055   3.943   3.746   7.678 -0.9020  0.0537  3.9212
  445MOL0     H60056   4.077   3.814   7.599 -5.0053  1.2082 -0.4271
  445MOL0     H60057   4.882   3.605   7.120 -1.6056  0.5238  0.7847
  445MOL0     H60058   5.009   3.622   6.908 -1.5118 -0.1873  0.7727
  445MOL0     H60059   5.250   3.927   6.660 -1.9000 -1.6250  1.0408
  445MOL0     H60060   5.395   3.997   6.496  0.2624  0.7399 -0.8791
  445MOL0     H60061   6.451   3.156   6.130 -0.2769  1.1226 -1.1516
  445MOL0     H60062   6.504   2.998   5.945  1.0995 -3.6414  0.6731
  445MOL0     H60063   6.771   2.884   5.621  0.8798  0.1475 -2.3834
  445MOL0     H60064   6.883   2.769   5.426 -1.9764  5.8491  1.1891
  445MOL0     H60065   7.003   2.640   5.287 -0.7312  0.2901 -0.1214
  445MOL0     H60066   7.072   2.786   5.353 -2.5972 -0.8477  0.8056
  445MOL0     H60067   7.190   2.671   5.144  2.2884 -1.7913 -0.8559
  445MOL0     H60068   7.262   2.572   5.255  1.0155 -0.6729 -0.8050
  445MOL0     H60069   7.273   2.880   5.270  0.3732  0.5941  0.5517
  445MOL0     H60070   7.385   2.773   5.184  0.1627 -0.1937 -0.4337
  445MOL0     H60071   7.438   2.657   5.383  0.7355  0.2312  1.5482
  445MOL0     H60072   7.334   2.784   5.477 -0.8287 -0.4941  0.0161
  445MOL0     H60073   7.667   3.026   5.430  2.0281 -0.6436 -0.1275
  445MOL0     H60074   7.106   2.546   5.729 -1.4647 -2.0259 -1.5077
  445MOL0     H60075   7.005   2.661   5.902 -0.3078 -0.6131  0.3930
  446MOL0     O60076   8.755   0.535   9.959 -0.2470  0.1251 -0.2863
  446MOL0     C60077   8.820   0.635   9.919 -0.6619 -0.3053  0.3626
  446MOL0     O60078   8.787   0.766   9.928 -0.7019  0.6309 -0.3330
  446MOL0     C60079   8.695   0.782  10.029  0.2772  0.6063  0.1280
  446MOL0     C60080   8.719   0.749  10.155 -0.4324  0.0665 -1.4089
  446MOL0     C60081   8.624   0.758  10.258 -0.3853 -0.1795 -0.7419
  446MOL0     C60082   8.491   0.788  10.228  0.6249 -0.7556 -0.7367
  446MOL0     O60083   8.397   0.785  10.330  0.8086 -0.0296 -0.2548
  446MOL0     C60084   8.273   0.852  10.308  0.1846 -0.0133  0.3834
  446MOL0     C60085   8.195   0.848  10.438  0.3312  0.4541  0.3282
  446MOL0     C60086   8.233   0.958  10.547  0.8630  0.3830  0.5459
  446MOL0     C60087   8.119   0.955  10.645  0.0277 -0.0016 -0.3822
  446MOL0     C60088   8.130   1.053  10.764 -0.3615  0.0858  0.2891
  446MOL0     C60089   8.047   1.025  10.891  0.2287 -0.3650 -0.2793
  446MOL0     C60090   8.048   1.148  10.980  0.4006 -0.9651 -0.5137
  446MOL0     C60091   7.924   1.229  10.949  0.1333 -0.1385  0.7776
  446MOL0     N60092   7.807   1.171  11.020  0.2511 -0.2619  0.5634
  446MOL0     C60093   7.763   1.200  11.151 -0.1982  0.7654  0.4375
  446MOL0     C60094   7.670   1.109  11.177 -0.2900 -0.0232  0.0924
  446MOL0     C60095   7.599   1.077  11.304 -0.3748  0.4544 -0.2111
  446MOL0     C60096   7.466   1.152  11.327  0.2514  0.4583 -0.0171
  446MOL0     C60097   7.362   1.075  11.239  0.1986 -0.0322  0.3382
  446MOL0     C60098   7.229   1.148  11.263 -0.6296 -0.2178  0.7859
  446MOL0     O60099   7.185   1.104  11.391  0.3786  0.4247 -1.1703
  446MOL0     C60100   7.070   1.032  11.392 -0.3622 -0.2254  0.6518
  446MOL0     C60101   6.952   1.096  11.364 -0.5646  0.2502  0.0911
  446MOL0     C60102   6.833   1.034  11.394 -0.1196 -0.9774  0.3892
  446MOL0     C60103   6.711   1.111  11.349  1.2176 -0.1800 -0.1177
  446MOL0     C60104   6.831   0.902  11.444 -0.2236  0.5322 -0.9271
  446MOL0     C60105   6.703   0.836  11.482 -0.0203  0.2496  0.1019
  446MOL0     O60106   6.615   0.910  11.548 -0.1551  0.0323 -0.4444
  446MOL0     C60107   6.490   0.869  11.561 -0.3266 -0.6293  0.3745
  446MOL0     C60108   6.387   0.901  11.468  0.8642  0.7955 -1.1006
  446MOL0     C60109   6.255   0.854  11.486 -1.1140  0.8702  0.1690
  446MOL0     C60110   6.219   0.781  11.605  0.0986  0.3063 -0.4667
  446MOL0     O60111   6.096   0.729  11.641 -0.2888 -0.3523  0.3064
  446MOL0     C60112   5.987   0.791  11.575 -0.6971  0.4231  1.2863
  446MOL0     C60113   5.857   0.754  11.658  0.5894 -0.5642  0.2509
  446MOL0     C60114   5.748   0.861  11.631  0.1549  0.3288  0.6135
  446MOL0     C60115   5.636   0.828  11.724 -0.1950 -0.3759 -0.3433
  446MOL0     C60116   5.536   0.950  11.712 -0.5751  0.9065  1.9193
  446MOL0     C60117   5.410   0.931  11.802  0.1937  0.1406  0.2451
  446MOL0     C60118   5.291   1.024  11.763 -1.0020  0.0016  0.1571
  446MOL0     C60119   5.194   1.035  11.886  0.1501 -0.0955 -0.2075
  446MOL0    Cl60120   5.274   1.148  11.998  0.0286 -0.2470  0.4038
  446MOL0     C60121   6.324   0.747  11.691 -0.4649  0.1564 -0.3124
  446MOL0     C60122   6.459   0.790  11.671 -0.4828  0.3628 -0.8105
  446MOL0     O60123   6.680   0.719  11.441 -0.5043 -0.0219 -0.1305
  446MOL0     C60124   6.950   0.835  11.470  0.0022 -0.5346  0.7656
  446MOL0     C60125   7.074   0.900  11.432  0.1490 -0.8389 -0.0828
  446MOL0     N60126   7.648   1.029  11.070 -0.7474  0.1887  0.2395
  446MOL0     N60127   7.726   1.073  10.973 -0.0851 -0.7546 -0.1795
  446MOL0     C60128   8.464   0.829  10.094 -0.3733  0.9058 -0.1046
  446MOL0     C60129   8.567   0.824  10.000  0.6152 -0.2857  0.0197
  446MOL0     C60130   8.940   0.607   9.840  0.2767  0.3698  0.5912
  446MOL0     C60131   8.995   0.478   9.833 -0.0418 -0.8467 -0.7300
  446MOL0     C60132   9.121   0.448   9.773 -0.0385 -0.1231  0.6789
  446MOL0     C60133   9.190   0.545   9.707 -0.0408  0.2899 -0.0454
  446MOL0     O60134   9.313   0.515   9.654  0.5618  0.0376  0.0732
  446MOL0     C60135   9.356   0.610   9.562 -0.2856 -0.8769  0.6708
  446MOL0     C60136   9.478   0.556   9.487 -0.1553  0.3749  0.5267
  446MOL0     C60137   9.599   0.545   9.577  0.6531 -0.1941 -0.4058
  446MOL0     C60138   9.696   0.441   9.530  0.1658  0.0142 -1.2982
  446MOL0     C60139   9.808   0.417   9.624  0.3685  0.2528 -0.4100
  446MOL0     C60140   9.899   0.396   9.700  0.0407  1.0034  0.4153
  446MOL0     C60141   9.131   0.675   9.700 -0.6297  0.0411  0.0528
  446MOL0     C60142   9.010   0.701   9.768 -0.3912  0.7324  0.1146
  446MOL0     H60143   8.825   0.727  10.167 -0.7511 -1.6079 -1.4025
  446MOL0     H60144   8.639   0.725  10.360 -1.6207  0.9208 -0.1702
  446MOL0     H60145   8.289   0.951  10.266 -1.8530  0.2650  0.1691
  446MOL0     H60146   8.206   0.790  10.247 -0.0556 -0.3815  1.0090
  446MOL0     H60147   8.089   0.852  10.412  0.3849 -0.2899 -0.0176
  446MOL0     H60148   8.210   0.750  10.484 -1.5927  0.0987  0.2563
  446MOL0     H60149   8.330   0.933  10.590  2.4684 -2.6485 -4.0811
  446MOL0     H60150   8.240   1.057  10.500  0.7298 -0.1207 -0.5747
  446MOL0     H60151   8.024   0.978  10.597 -1.1198  1.4448  2.3595
  446MOL0     H60152   8.097   0.852  10.676 -0.9177  0.6067  1.0666
  446MOL0     H60153   8.234   1.045  10.798  0.4950 -0.4218 -2.2698
  446MOL0     H60154   8.109   1.158  10.741  3.1115  0.6946 -0.6884
  446MOL0     H60155   7.948   0.997  10.852  0.6026 -1.9708 -0.1442
  446MOL0     H60156   8.093   0.942  10.945  3.1446  1.5830  0.4013
  446MOL0     H60157   8.038   1.114  11.084 -1.2650  2.4148  0.5743
  446MOL0     H60158   8.139   1.208  10.972 -0.1809 -0.2835 -2.5519
  446MOL0     H60159   7.907   1.219  10.841  1.7610 -1.8116  0.6304
  446MOL0     H60160   7.943   1.331  10.981  0.3133  0.0360  0.1387
  446MOL0     H60161   7.815   1.262  11.223  0.5603 -2.5002  2.9541
  446MOL0     H60162   7.587   0.968  11.300 -0.1854  0.4668 -1.6296
  446MOL0     H60163   7.664   1.105  11.387 -1.2533 -0.4901  0.8282
  446MOL0     H60164   7.490   1.254  11.297  3.4790 -0.8225 -2.4085
  446MOL0     H60165   7.446   1.132  11.433  1.9194 -2.1682 -0.1003
  446MOL0     H60166   7.353   0.969  11.263  0.7694 -0.1897 -0.1044
  446MOL0     H60167   7.389   1.089  11.134  0.1851  0.7308  0.4314
  446MOL0     H60168   7.170   1.127  11.173  1.7247  2.9315 -1.7183
  446MOL0     H60169   7.235   1.257  11.268  0.4693  0.0298 -3.1087
  446MOL0     H60170   6.955   1.200  11.332  3.2157  0.6287  1.1835
  446MOL0     H60171   6.729   1.174  11.261  0.7569 -0.3834 -0.3565
  446MOL0     H60172   6.624   1.048  11.330  1.8470 -1.2485  0.4432
  446MOL0     H60173   6.680   1.192  11.415  2.6887  0.4040 -0.0979
  446MOL0     H60174   6.395   0.973  11.387 -1.8487  0.4909 -1.7416
  446MOL0     H60175   6.184   0.882  11.409 -0.3868  0.4207 -0.6943
  446MOL0     H60176   6.009   0.898  11.582  0.8153  0.1517  1.1609
  446MOL0     H60177   5.979   0.769  11.468 -2.1220  3.6045  0.6069
  446MOL0     H60178   5.823   0.654  11.630 -2.0186  0.5601 -0.9252
  446MOL0     H60179   5.885   0.746  11.764 -1.2732 -0.4130  0.7843
  446MOL0     H60180   5.722   0.858  11.525  0.6885  0.5197  0.4714
  446MOL0     H60181   5.793   0.960  11.646 -0.2617  1.0897 -2.3804
  446MOL0     H60182   5.583   0.734  11.708 -0.9320 -0.1783  0.7973
  446MOL0     H60183   5.692   0.828  11.819  4.1580 -1.1102 -2.6389
  446MOL0     H60184   5.495   0.959  11.611  0.2879 -3.7042  0.9787
  446MOL0     H60185   5.583   1.047  11.732 -1.1611  1.0118  2.8923
  446MOL0     H60186   5.374   0.828  11.798  2.2696 -0.5907 -2.4119
  446MOL0     H60187   5.443   0.942  11.906  2.1577  1.4985 -0.4694
  446MOL0     H60188   5.240   0.979  11.677  0.0689 -2.8159  0.8805
  446MOL0     H60189   5.327   1.125  11.738 -2.5216  0.5597  0.1063
  446MOL0     H60190   5.174   0.942  11.940  0.1779  0.6938  1.2379
  446MOL0     H60191   5.101   1.085  11.857 -1.3860 -1.7092  1.6898
  446MOL0     H60192   6.301   0.682  11.775 -1.6768  0.2796 -0.5309
  446MOL0     H60193   6.526   0.763  11.752 -1.6169 -0.0975 -0.0034
  446MOL0     H60194   6.955   0.737  11.517  0.1888 -0.5554  0.7041
  446MOL0     H60195   7.172   0.865  11.463 -0.1293 -1.1725  0.4313
  446MOL0     H60196   8.367   0.870  10.068 -1.0129 -0.4242  0.0757
  446MOL0     H60197   8.529   0.846   9.901 -2.3024  0.4600  1.2106
  446MOL0     H60198   8.951   0.398   9.892  1.0660 -2.3503 -1.8718
  446MOL0     H60199   9.164   0.349   9.781 -3.6853 -1.8172  1.2679
  446MOL0     H60200   9.274   0.619   9.490  1.7276  1.5496 -1.5400
  446MOL0     H60201   9.388   0.704   9.608 -3.3889  2.3146 -2.9387
  446MOL0     H60202   9.514   0.616   9.403  0.2954  0.0450  0.4798
  446MOL0     H60203   9.454   0.457   9.445 -0.7048  0.7561 -0.0769
  446MOL0     H60204   9.575   0.534   9.683  3.0789 -0.8698  0.1305
  446MOL0     H60205   9.661   0.636   9.570  1.3994 -0.6977 -0.5316
  446MOL0     H60206   9.732   0.457   9.428 -1.2880 -2.5609 -2.3247
  446MOL0     H60207   9.642   0.346   9.526  1.0838 -0.8269  2.4114
  446MOL0     H60208   9.984   0.385   9.765 -1.8274 -1.0240  2.6964
  446MOL0     H60209   9.175   0.758   9.647 -0.0044  1.0991  2.1317
  446MOL0     H60210   8.967   0.800   9.759 -0.3650  0.7471  0.1470
  447MOL0     O60211   4.066   9.152   8.716  0.1325  0.2150  0.3222
  447MOL0     C60212   4.147   9.147   8.624 -0.4761 -0.2806 -0.5856
  447MOL0     O60213   4.118   9.116   8.489  0.2195 -0.3078 -0.2872
  447MOL0     C60214   3.989   9.099   8.439 -0.0879  0.4161 -0.8029
  447MOL0     C60215   3.967   9.134   8.300  0.1694 -0.1764 -0.2842
  447MOL0     C60216   3.833   9.130   8.240 -0.0086  0.2155 -1.1111
  447MOL0     C60217   3.729   9.087   8.323 -0.0245 -0.5150 -0.0124
  447MOL0     O60218   3.608   9.082   8.261  0.5866  0.1031 -0.4546
  447MOL0     C60219   3.509   8.993   8.312 -0.3079 -0.3467  0.3633
  447MOL0     C60220   3.367   9.056   8.304  0.3882 -0.4011  0.3701
  447MOL0     C60221   3.270   8.962   8.384 -0.2593  0.2709 -1.0438
  447MOL0     C60222   3.133   9.019   8.412  0.4559 -0.1795  0.1456
  447MOL0     C60223   3.056   8.892   8.450 -0.7103 -0.3461  0.4432
  447MOL0     C60224   2.927   8.930   8.530 -0.0974 -0.7905 -0.0042
  447MOL0     C60225   2.856   8.812   8.589  0.2197  0.7527  0.3615
  447MOL0     C60226   2.732   8.862   8.675 -0.0481 -0.2499  0.3719
  447MOL0     N60227   2.710   8.765   8.791 -0.0783 -1.1629  0.1474
  447MOL0     C60228   2.809   8.720   8.885  0.9920  0.2256  0.4379
  447MOL0     C60229   2.748   8.629   8.969 -0.9233  0.4614  0.3447
  447MOL0     C60230   2.824   8.579   9.084 -0.4812  0.1255  0.5221
  447MOL0     C60231   2.941   8.482   9.037 -0.0093 -0.6349 -0.3095
  447MOL0     C60232   2.900   8.359   8.954  0.5424 -0.6415 -0.2238
  447MOL0     C60233   2.785   8.265   9.013 -0.1573  0.0066  0.3478
  447MOL0     O60234   2.832   8.211   9.139  0.6220  1.0867  0.6387
  447MOL0     C60235   2.762   8.102   9.203 -0.4745 -0.5498 -0.2008
  447MOL0     C60236   2.826   8.017   9.280  0.1122 -0.2208  0.4873
  447MOL0     C60237   2.754   7.922   9.360 -0.2392 -0.4504 -0.4616
  447MOL0     C60238   2.838   7.833   9.454  0.3994 -0.2590 -0.0694
  447MOL0     C60239   2.614   7.900   9.328 -0.2885 -0.4949  0.4831
  447MOL0     C60240   2.537   7.793   9.400  0.1641  0.1919  0.5250
  447MOL0     O60241   2.416   7.766   9.336 -0.3689  0.2407  0.5077
  447MOL0     C60242   2.320   7.691   9.405  0.6258 -0.8794  0.0597
  447MOL0     C60243   2.274   7.738   9.533  0.7140  0.1143 -0.6357
  447MOL0     C60244   2.182   7.665   9.611 -0.3509 -0.6788  1.3485
  447MOL0     C60245   2.137   7.542   9.553  0.4283 -0.0387 -0.4560
  447MOL0     O60246   2.053   7.474   9.631  0.2904 -0.0719 -0.6419
  447MOL0     C60247   1.975   7.359   9.580  0.1011 -0.4539  0.0482
  447MOL0     C60248   1.940   7.283   9.707 -0.0728 -0.1629  0.3990
  447MOL0     C60249   2.071   7.240   9.773 -0.6366 -0.7627 -0.3105
  447MOL0     C60250   2.046   7.136   9.880  0.3478  0.3019  0.8287
  447MOL0     C60251   2.166   7.110   9.984  0.7011  0.8046 -0.5216
  447MOL0     C60252   2.298   7.082   9.921  0.2876 -0.7725  0.2656
  447MOL0     C60253   2.408   7.066  10.034 -0.2543 -0.0195  0.3037
  447MOL0     C60254   2.546   7.035   9.985 -0.3623  0.0886 -0.4357
  447MOL0    Cl60255   2.538   6.886   9.892 -0.3164  0.1376 -0.3358
  447MOL0     C60256   2.175   7.499   9.415  0.6345 -0.8378 -0.4123
  447MOL0     C60257   2.269   7.574   9.348  0.1211  0.1290 -0.4295
  447MOL0     O60258   2.569   7.744   9.504  0.1571  0.0166  0.0183
  447MOL0     C60259   2.550   7.991   9.250  0.4107  0.3901 -0.1287
  447MOL0     C60260   2.625   8.090   9.184 -0.2157  0.5240  0.1545
  447MOL0     N60261   2.615   8.625   8.934  0.2267  0.0690  0.1894
  447MOL0     N60262   2.594   8.703   8.835  0.4173 -0.0420  0.4247
  447MOL0     C60263   3.753   9.047   8.458 -0.0080 -0.5228  0.1814
  447MOL0     C60264   3.884   9.050   8.514 -0.2301  0.0098 -0.0684
  447MOL0     C60265   4.287   9.198   8.655  0.2029  0.0051 -0.6450
  447MOL0     C60266   4.322   9.276   8.770 -0.3408  0.3187 -0.2929
  447MOL0     C60267   4.452   9.312   8.809 -0.4131  0.6354  0.0929
  447MOL0     C60268   4.560   9.271   8.728  0.2091 -0.6693  0.3246
  447MOL0     O60269   4.695   9.307   8.735 -0.0210  0.6437 -0.0027
  447MOL0     C60270   4.734   9.371   8.853  0.6978 -0.0035  0.0207
  447MOL0     C60271   4.881   9.415   8.857 -0.2067 -0.1915 -0.2300
  447MOL0     C60272   4.973   9.284   8.846 -0.0397 -0.7832  0.3263
  447MOL0     C60273   5.116   9.309   8.810  0.1107 -0.1823  0.0255
  447MOL0     C60274   5.127   9.375   8.676 -0.4361  0.9595 -0.6796
  447MOL0     C60275   5.137   9.439   8.577  0.6444  0.4519 -0.3926
  447MOL0     C60276   4.530   9.193   8.620 -0.1950  0.3439  0.2986
  447MOL0     C60277   4.399   9.157   8.579  0.8216 -0.4707  0.5433
  447MOL0     H60278   4.051   9.161   8.236  0.6755 -1.6240 -0.2819
  447MOL0     H60279   3.808   9.167   8.141 -1.3968  2.1883 -0.1142
  447MOL0     H60280   3.504   8.898   8.256  0.3684 -0.6091  0.7386
  447MOL0     H60281   3.532   8.962   8.414  3.9204  0.5635 -0.1229
  447MOL0     H60282   3.368   9.153   8.355 -1.9957 -1.4987  2.7486
  447MOL0     H60283   3.338   9.062   8.199  0.1077  2.1591  0.5229
  447MOL0     H60284   3.262   8.871   8.323 -1.2750 -0.5135  0.2166
  447MOL0     H60285   3.320   8.933   8.477 -0.7557  0.2393 -0.7822
  447MOL0     H60286   3.145   9.087   8.497  0.6523 -1.4890  1.2026
  447MOL0     H60287   3.086   9.075   8.331  1.0394  1.5244  0.9233
  447MOL0     H60288   3.033   8.836   8.359  2.0107  0.5796 -0.9436
  447MOL0     H60289   3.113   8.829   8.520  0.0463  0.8528  0.9409
  447MOL0     H60290   2.963   8.994   8.611  3.0718 -2.0388 -0.2706
  447MOL0     H60291   2.853   8.985   8.472  0.1106  0.1701  0.6125
  447MOL0     H60292   2.822   8.740   8.514  1.4488  1.7878 -1.2350
  447MOL0     H60293   2.928   8.760   8.654 -2.0832 -0.8192  1.8248
  447MOL0     H60294   2.647   8.882   8.609 -1.6980 -1.7812  1.8823
  447MOL0     H60295   2.755   8.960   8.719 -0.3682 -0.7533  1.7132
  447MOL0     H60296   2.913   8.749   8.870  1.1098 -1.3941 -2.8171
  447MOL0     H60297   2.864   8.661   9.145 -2.5064 -1.1612  3.8778
  447MOL0     H60298   2.753   8.517   9.139 -0.2207 -0.4734  0.1971
  447MOL0     H60299   2.992   8.443   9.126 -1.0926  1.7370  1.4698
  447MOL0     H60300   3.027   8.528   8.989 -0.0879 -0.7620 -0.5734
  447MOL0     H60301   2.988   8.295   8.944 -0.0768 -1.3625 -1.2211
  447MOL0     H60302   2.859   8.389   8.857 -2.1141 -2.6745  0.1771
  447MOL0     H60303   2.772   8.183   8.941  5.0193 -1.4411  0.6598
  447MOL0     H60304   2.692   8.321   9.026 -0.2037 -0.1885  0.8707
  447MOL0     H60305   2.934   8.024   9.287  0.7544 -1.4609 -4.3087
  447MOL0     H60306   2.796   7.828   9.554  0.1553  0.6330 -0.1199
  447MOL0     H60307   2.843   7.733   9.410  0.4902  0.0779 -0.8603
  447MOL0     H60308   2.939   7.872   9.467 -0.1489  0.5442  2.2611
  447MOL0     H60309   2.327   7.823   9.574  0.8084 -1.0509  1.9066
  447MOL0     H60310   2.156   7.693   9.713  0.3745  2.4956  0.7585
  447MOL0     H60311   1.886   7.373   9.517 -0.1128 -1.7320  0.0477
  447MOL0     H60312   2.035   7.291   9.519  1.9534 -0.7205  2.0321
  447MOL0     H60313   1.879   7.339   9.778  1.4459  0.5019  1.2452
  447MOL0     H60314   1.880   7.197   9.675 -0.3164 -0.5938  1.9137
  447MOL0     H60315   2.124   7.324   9.820  0.3210 -1.3833 -0.2350
  447MOL0     H60316   2.149   7.215   9.701  0.9700  1.3632  0.5678
  447MOL0     H60317   1.957   7.167   9.936  0.8158  1.8998  0.7225
  447MOL0     H60318   2.026   7.044   9.825  0.5494  0.5354  0.3602
  447MOL0     H60319   2.155   7.027  10.053 -2.9852 -0.0078 -1.8263
  447MOL0     H60320   2.179   7.198  10.048  0.6965 -1.2523  2.4717
  447MOL0     H60321   2.298   6.988   9.866 -0.6844 -2.7923  3.5003
  447MOL0     H60322   2.330   7.165   9.857  4.4333 -1.0802  1.6384
  447MOL0     H60323   2.371   6.987  10.101  0.0009 -0.4832 -0.0943
  447MOL0     H60324   2.414   7.160  10.089  0.6500  0.3182 -0.3508
  447MOL0     H60325   2.621   7.023  10.064 -0.5361 -1.3773 -0.4541
  447MOL0     H60326   2.582   7.115   9.920  0.6178  1.0767  1.2511
  447MOL0     H60327   2.140   7.405   9.373 -2.5673 -1.1635  2.5375
  447MOL0     H60328   2.314   7.543   9.255  1.2082  2.2323 -0.6559
  447MOL0     H60329   2.444   7.986   9.228  0.3516 -0.8284  0.3696
  447MOL0     H60330   2.562   8.164   9.138  0.2076  0.9860  0.3075
  447MOL0     H60331   3.678   9.024   8.532 -1.3252  2.1724 -0.1821
  447MOL0     H60332   3.902   9.013   8.614 -0.0106 -2.4093 -0.9346
  447MOL0     H60333   4.243   9.304   8.840  0.0645 -0.2344  0.4011
  447MOL0     H60334   4.470   9.367   8.901  2.8727 -0.1906  0.0588
  447MOL0     H60335   4.680   9.465   8.866  1.4471  0.4516 -0.1542
  447MOL0     H60336   4.717   9.303   8.937  0.3030 -0.2498 -0.2549
  447MOL0     H60337   4.897   9.459   8.956 -1.7752  2.1647 -0.9453
  447MOL0     H60338   4.907   9.479   8.773  1.2917 -2.4714 -1.6131
  447MOL0     H60339   4.930   9.230   8.761 -1.1225  0.4210  0.0619
  447MOL0     H60340   4.962   9.228   8.939 -0.1919 -0.8971  0.2421
  447MOL0     H60341   5.172   9.215   8.805  0.8364  0.2988 -1.9066
  447MOL0     H60342   5.160   9.372   8.887 -0.6474  0.7246 -0.2733
  447MOL0     H60343   5.171   9.488   8.487  1.2885  0.6926 -0.0270
  447MOL0     H60344   4.612   9.186   8.549 -1.3079 -0.4830 -0.9608
  447MOL0     H60345   4.385   9.106   8.484 -1.0445 -0.1262  0.6080
  448MOL0     O60346   9.171   3.968   2.024 -0.3410 -0.2044  0.1637
  448MOL0     C60347   9.231   3.894   2.099 -0.1733  0.1025  0.0377
  448MOL0     O60348   9.180   3.797   2.173  1.6612 -0.5955 -0.3152
  448MOL0     C60349   9.042   3.773   2.195 -0.2044 -0.8802  0.5485
  448MOL0     C60350   8.934   3.864   2.186 -0.4708 -0.3899 -0.4887
  448MOL0     C60351   8.801   3.821   2.203 -0.6995  0.4416  0.2942
  448MOL0     C60352   8.774   3.686   2.229 -0.2675 -0.1611 -1.0481
  448MOL0     O60353   8.644   3.655   2.259 -0.7044  0.6205  0.5324
  448MOL0     C60354   8.595   3.536   2.198 -0.7398 -1.1455 -0.2996
  448MOL0     C60355   8.438   3.546   2.206 -0.2061 -0.4000 -0.7844
  448MOL0     C60356   8.368   3.424   2.143 -0.4979 -0.0240  0.1598
  448MOL0     C60357   8.364   3.435   1.988 -0.1151 -0.4024  0.8548
  448MOL0     C60358   8.286   3.321   1.931 -0.2338 -0.2638 -0.7946
  448MOL0     C60359   8.142   3.301   1.995  0.4651 -0.4145  0.2818
  448MOL0     C60360   8.050   3.225   1.904 -0.3296  0.7697  0.1381
  448MOL0     C60361   8.034   3.284   1.767 -0.8177 -0.6321  0.1129
  448MOL0     N60362   7.980   3.420   1.751  0.7533 -0.3257 -0.5025
  448MOL0     C60363   7.851   3.448   1.714  0.4079  0.8615  0.0313
  448MOL0     C60364   7.833   3.575   1.736 -0.2429 -0.4414 -1.2116
  448MOL0     C60365   7.711   3.664   1.750  0.0073  0.6919  0.4581
  448MOL0     C60366   7.620   3.647   1.619 -0.0445  0.0711 -0.2004
  448MOL0     C60367   7.679   3.745   1.511 -0.4354  0.1173 -0.3520
  448MOL0     C60368   7.583   3.755   1.392  0.2246 -0.2615  0.2348
  448MOL0     O60369   7.586   3.641   1.304  0.3280  0.6215  0.0290
  448MOL0     C60370   7.681   3.634   1.201  0.1777 -0.4456 -0.5719
  448MOL0     C60371   7.807   3.688   1.197 -0.0766  0.0773  0.3549
  448MOL0     C60372   7.891   3.678   1.080  1.1726 -0.7499  0.6130
  448MOL0     C60373   8.033   3.719   1.097 -0.0672 -0.1087 -0.3103
  448MOL0     C60374   7.843   3.612   0.968  1.0039 -0.1259  1.2037
  448MOL0     C60375   7.920   3.561   0.847  1.6340  0.0966  1.0272
  448MOL0     O60376   8.045   3.504   0.864 -0.2391  0.0850  0.0994
  448MOL0     C60377   8.120   3.491   0.752  0.4852  0.6140  0.8866
  448MOL0     C60378   8.223   3.581   0.721 -0.2884  0.3127  0.2995
  448MOL0     C60379   8.321   3.562   0.623 -0.5457  0.3657  1.0091
  448MOL0     C60380   8.305   3.448   0.541  1.1707 -0.2639  0.1358
  448MOL0     O60381   8.404   3.427   0.444 -0.5867 -0.2922  0.8822
  448MOL0     C60382   8.412   3.299   0.389 -0.8931  0.1853  0.1955
  448MOL0     C60383   8.530   3.293   0.301 -0.4920  0.1015 -0.1820
  448MOL0     C60384   8.662   3.316   0.391  0.4022  0.6558 -0.1955
  448MOL0     C60385   8.779   3.245   0.332  1.2769  0.0990 -0.7054
  448MOL0     C60386   8.871   3.318   0.235 -0.2606 -0.4167 -0.0155
  448MOL0     C60387   8.813   3.343   0.083 -0.5084 -0.5026 -0.3815
  448MOL0     C60388   8.889   3.442   0.002  0.3565  0.4956  0.9069
  448MOL0     C60389   8.836   3.442  -0.141  0.3899 -0.6005 -0.4011
  448MOL0    Cl60390   8.662   3.509  -0.130 -0.6840 -0.2729 -0.3288
  448MOL0     C60391   8.197   3.362   0.564  0.4729 -0.9957  0.1832
  448MOL0     C60392   8.107   3.379   0.672 -0.4123 -0.0196  0.4048
  448MOL0     O60393   7.865   3.584   0.737 -0.0594 -0.2822  0.4287
  448MOL0     C60394   7.714   3.548   0.974  0.8511  0.4547 -0.4175
  448MOL0     C60395   7.634   3.567   1.086  0.7989 -0.8795  0.1119
  448MOL0     N60396   7.954   3.634   1.767  0.2188  0.8759 -0.4039
  448MOL0     N60397   8.042   3.540   1.775 -0.1038  0.2392 -1.0930
  448MOL0     C60398   8.879   3.598   2.243 -0.3395 -0.4210  0.3333
  448MOL0     C60399   9.009   3.643   2.222  0.5362  0.1849  0.4419
  448MOL0     C60400   9.376   3.916   2.109 -0.4942 -0.5026 -0.0689
  448MOL0     C60401   9.422   4.050   2.078  0.4284  0.7494 -0.6184
  448MOL0     C60402   9.558   4.076   2.083 -0.4363  0.2603 -1.6402
  448MOL0     C60403   9.649   3.986   2.122 -0.1555  0.0892 -0.2961
  448MOL0     O60404   9.778   4.000   2.116 -0.3149  0.0078 -0.2000
  448MOL0     C60405   9.847   4.125   2.084 -0.7377  0.3113 -0.0170
  448MOL0     C60406   9.993   4.091   2.073  0.4866 -0.4480  0.5172
  448MOL0     C60407  10.029   3.988   1.967  0.1301 -1.9316 -0.8072
  448MOL0     C60408  10.168   4.000   1.909  0.4846 -0.1168  0.1657
  448MOL0     C60409  10.166   4.116   1.819 -0.1678  0.1796  0.0941
  448MOL0     C60410  10.173   4.218   1.751 -0.1626  0.4767 -0.2891
  448MOL0     C60411   9.610   3.850   2.155 -0.8522 -0.0083  0.4125
  448MOL0     C60412   9.472   3.821   2.150  0.4701  1.2274 -0.2864
  448MOL0     H60413   8.958   3.967   2.164 -0.8309 -0.1463  0.2282
  448MOL0     H60414   8.714   3.884   2.193  0.3737  1.6519 -2.2370
  448MOL0     H60415   8.622   3.539   2.092 -2.0209  1.4243 -0.6313
  448MOL0     H60416   8.635   3.443   2.239  0.8498 -0.1817  0.4052
  448MOL0     H60417   8.398   3.557   2.307  0.8783  3.2406 -0.6143
  448MOL0     H60418   8.415   3.636   2.147  1.4272 -0.0181 -0.8737
  448MOL0     H60419   8.420   3.335   2.178  2.0044  0.3903 -2.2031
  448MOL0     H60420   8.266   3.421   2.184 -0.1932 -1.1571  0.8833
  448MOL0     H60421   8.320   3.531   1.959 -0.9262 -0.7611  0.8605
  448MOL0     H60422   8.466   3.423   1.951 -0.3914 -0.7528  0.1683
  448MOL0     H60423   8.274   3.335   1.823  0.1307  0.2553 -0.7693
  448MOL0     H60424   8.328   3.222   1.953 -0.5237  0.1786  2.2440
  448MOL0     H60425   8.162   3.248   2.087  2.8168 -0.5110 -0.2312
  448MOL0     H60426   8.103   3.402   2.012 -0.4428 -0.4652 -1.2934
  448MOL0     H60427   8.083   3.122   1.885 -1.8484  0.2493  0.1642
  448MOL0     H60428   7.959   3.224   1.965 -1.1777  0.2758 -1.0798
  448MOL0     H60429   7.958   3.225   1.715 -0.7608 -1.6032  1.0939
  448MOL0     H60430   8.128   3.279   1.713 -0.8727  2.9066 -0.5370
  448MOL0     H60431   7.779   3.374   1.682  1.0739 -0.6507  1.8829
  448MOL0     H60432   7.653   3.632   1.837  0.2005  1.3087  0.8182
  448MOL0     H60433   7.746   3.767   1.758 -1.1186  1.0237  1.4601
  448MOL0     H60434   7.521   3.692   1.636  0.9361  1.4713  2.3714
  448MOL0     H60435   7.605   3.548   1.575  1.9640  0.2343 -1.3830
  448MOL0     H60436   7.782   3.715   1.489  0.5364 -0.3625  3.8903
  448MOL0     H60437   7.698   3.842   1.557  1.3570  0.0943 -0.9772
  448MOL0     H60438   7.620   3.843   1.340  1.6932 -0.8395  0.2505
  448MOL0     H60439   7.479   3.771   1.422 -0.7669 -1.0594 -2.5347
  448MOL0     H60440   7.857   3.731   1.283  1.5478  0.5278 -0.7773
  448MOL0     H60441   8.094   3.639   1.140  0.0643 -0.4897 -1.1777
  448MOL0     H60442   8.081   3.733   1.000 -0.1043  0.8337 -0.1983
  448MOL0     H60443   8.040   3.813   1.152  1.7854  0.7268 -1.8808
  448MOL0     H60444   8.242   3.661   0.793 -1.9504  0.7255  0.3230
  448MOL0     H60445   8.399   3.632   0.595 -2.3443  2.0222 -0.1840
  448MOL0     H60446   8.416   3.230   0.473 -0.2298  2.2013  1.9134
  448MOL0     H60447   8.323   3.273   0.330 -1.1894 -2.1865  1.5644
  448MOL0     H60448   8.549   3.198   0.250 -0.0192  0.1395 -0.0768
  448MOL0     H60449   8.520   3.370   0.224 -2.8984 -1.6623 -1.7990
  448MOL0     H60450   8.642   3.272   0.489 -0.5617 -0.4829 -0.8833
  448MOL0     H60451   8.687   3.420   0.414  0.7975 -0.1263  3.7066
  448MOL0     H60452   8.825   3.210   0.425 -1.2500  3.0684  1.8931
  448MOL0     H60453   8.742   3.152   0.289 -0.2183  0.5042 -0.3585
  448MOL0     H60454   8.967   3.268   0.225 -0.6967 -0.6973 -5.0689
  448MOL0     H60455   8.885   3.412   0.289 -0.7038 -0.8782  0.9309
  448MOL0     H60456   8.822   3.248   0.030  3.2398  0.1513 -1.2144
  448MOL0     H60457   8.707   3.370   0.084 -0.2866  0.7003 -2.6797
  448MOL0     H60458   8.998   3.435   0.014  0.1987 -0.1086  2.1883
  448MOL0     H60459   8.863   3.535   0.053 -0.2006  0.9716 -0.2075
  448MOL0     H60460   8.821   3.347  -0.193  1.2599 -1.7688  1.3783
  448MOL0     H60461   8.898   3.509  -0.203  2.7527 -0.9186  1.4669
  448MOL0     H60462   8.195   3.271   0.506 -2.2935 -0.2595 -1.0877
  448MOL0     H60463   8.027   3.311   0.701 -1.5927  1.6988  1.3365
  448MOL0     H60464   7.666   3.495   0.892 -1.2854 -0.9895  1.6632
  448MOL0     H60465   7.532   3.529   1.083  0.2860  0.2721  1.5498
  448MOL0     H60466   8.853   3.496   2.267  0.2136 -1.0025 -1.3832
  448MOL0     H60467   9.087   3.568   2.222 -0.8401 -1.3586 -2.0848
  448MOL0     H60468   9.351   4.129   2.056  2.3381  2.6413 -0.2559
  448MOL0     H60469   9.593   4.177   2.064  0.1699 -0.1758 -2.9625
  448MOL0     H60470   9.809   4.168   1.990  0.1861  3.2117  0.8223
  448MOL0     H60471   9.832   4.197   2.165 -1.1029 -0.8430  0.9774
  448MOL0     H60472  10.039   4.060   2.168  3.0629 -1.0401 -0.8167
  448MOL0     H60473  10.044   4.184   2.045  1.2930 -1.1210 -0.3248
  448MOL0     H60474   9.959   3.990   1.883 -0.4899  1.0034 -0.3511
  448MOL0     H60475  10.014   3.889   2.012 -1.2549 -1.3189  0.1601
  448MOL0     H60476  10.191   3.912   1.849  0.8875 -0.9295  1.4665
  448MOL0     H60477  10.251   4.000   1.979  0.2054  2.7628  0.6298
  448MOL0     H60478  10.173   4.303   1.685  1.5850 -0.9557 -2.2519
  448MOL0     H60479   9.696   3.790   2.184 -2.4261 -1.1628  3.0732
  448MOL0     H60480   9.434   3.725   2.183 -1.2003  1.1868 -2.1967
  449MOL0     O60481   2.768   9.892   2.531 -0.3607 -0.1439  0.9623
  449MOL0     C60482   2.848   9.810   2.570 -0.8588  0.9635 -0.0641
  449MOL0     O60483   2.818   9.680   2.613  0.3184 -0.1792 -0.1459
  449MOL0     C60484   2.686   9.631   2.643 -0.1671  0.2921  1.0436
  449MOL0     C60485   2.564   9.681   2.597  0.4394  0.1686  0.2313
  449MOL0     C60486   2.444   9.619   2.637  0.7135 -0.4256 -0.7351
  449MOL0     C60487   2.449   9.508   2.714 -0.1685 -0.3686  0.0998
  449MOL0     O60488   2.323   9.455   2.736 -0.3154  0.4812  0.1437
  449MOL0     C60489   2.306   9.319   2.786  0.2073 -0.4477  0.5467
  449MOL0     C60490   2.161   9.313   2.839  0.0668 -0.2016  1.0310
  449MOL0     C60491   2.059   9.308   2.722  0.6783  0.5810  0.0679
  449MOL0     C60492   1.925   9.262   2.779  0.4771  0.1776  0.1235
  449MOL0     C60493   1.817   9.251   2.666 -0.3991 -0.4103 -0.4322
  449MOL0     C60494   1.698   9.154   2.694 -0.0260 -0.3375 -0.1019
  449MOL0     C60495   1.591   9.166   2.580  0.7991 -0.6136  0.1062
  449MOL0     C60496   1.477   9.054   2.589 -0.0359 -0.5250 -0.0222
  449MOL0     N60497   1.364   9.107   2.524 -0.4796  0.0861 -0.1802
  449MOL0     C60498   1.346   9.109   2.388 -0.2584  0.0785 -0.8842
  449MOL0     C60499   1.215   9.143   2.372 -0.4112  0.2985 -0.1529
  449MOL0     C60500   1.132   9.160   2.249 -0.6708 -0.1173  0.1392
  449MOL0     C60501   1.134   9.311   2.201  0.3592 -0.5392  0.0595
  449MOL0     C60502   1.037   9.356   2.094 -0.6510  0.3873 -0.3050
  449MOL0     C60503   0.890   9.314   2.118 -1.0364  0.5121 -1.4007
  449MOL0     O60504   0.814   9.386   2.022  0.7619  0.0355 -0.6669
  449MOL0     C60505   0.679   9.367   2.011  0.2243  0.6250 -0.4155
  449MOL0     C60506   0.607   9.291   2.104  0.3295  0.9265  0.7728
  449MOL0     C60507   0.473   9.258   2.078  0.3003 -0.8082  0.3592
  449MOL0     C60508   0.407   9.160   2.171  0.5418  0.6961 -0.6185
  449MOL0     C60509   0.401   9.324   1.970  0.3451  0.6213  0.1561
  449MOL0     C60510   0.258   9.316   1.947 -0.1338 -0.0149  0.7210
  449MOL0     O60511   0.215   9.419   1.873 -0.5688  0.2389  0.3827
  449MOL0     C60512   0.079   9.437   1.849  0.9971 -0.1012 -0.7696
  449MOL0     C60513  -0.016   9.448   1.955 -0.7072  0.2184 -0.3289
  449MOL0     C60514  -0.145   9.465   1.926 -0.1976  0.2262  0.6558
  449MOL0     C60515  -0.192   9.487   1.796 -0.0493 -0.4945  1.1856
  449MOL0     O60516  -0.316   9.504   1.751 -0.2236 -0.1525 -0.3690
  449MOL0     C60517  -0.414   9.542   1.848 -0.1225 -0.0708  0.5819
  449MOL0     C60518  -0.553   9.554   1.779 -0.4779  0.1733 -0.2427
  449MOL0     C60519  -0.649   9.622   1.871 -0.2544 -0.1246 -0.2303
  449MOL0     C60520  -0.793   9.619   1.818  0.0892  1.0033 -1.1010
  449MOL0     C60521  -0.892   9.686   1.921 -0.6964 -0.0098 -0.4331
  449MOL0     C60522  -1.029   9.715   1.858  0.1733  0.1165  0.2577
  449MOL0     C60523  -1.119   9.813   1.938 -0.4350 -0.0282 -0.2957
  449MOL0     C60524  -1.212   9.739   2.035  0.6576 -0.3124 -1.2271
  449MOL0    Cl60525  -1.346   9.850   2.091 -0.7065  0.0767  0.1258
  449MOL0     C60526  -0.099   9.466   1.692 -0.2841 -0.7915  0.6520
  449MOL0     C60527   0.037   9.448   1.721 -0.5328  0.1039 -0.5443
  449MOL0     O60528   0.193   9.239   2.009 -0.3569  0.4474 -0.2247
  449MOL0     C60529   0.479   9.409   1.890  0.5327 -0.2090 -0.2906
  449MOL0     C60530   0.616   9.429   1.908  0.3729  0.5115 -0.1189
  449MOL0     N60531   1.163   9.137   2.501 -0.0468 -0.9670  0.0997
  449MOL0     N60532   1.251   9.127   2.593  0.2741 -0.0851 -0.2801
  449MOL0     C60533   2.567   9.449   2.759  0.1908  0.4287  0.5146
  449MOL0     C60534   2.684   9.515   2.722 -1.0365  0.2554  0.8355
  449MOL0     C60535   2.990   9.856   2.565 -0.1276  1.1633 -0.3268
  449MOL0     C60536   3.083   9.770   2.621 -0.1573 -0.3818  0.1152
  449MOL0     C60537   3.213   9.823   2.649 -0.0724 -0.3299 -0.1973
  449MOL0     C60538   3.246   9.954   2.621  0.0719  0.0640  0.3638
  449MOL0     O60539   3.370   9.993   2.670 -0.6877  0.0003  0.0451
  449MOL0     C60540   3.411  10.135   2.650  1.1306 -0.0126 -0.3203
  449MOL0     C60541   3.564  10.141   2.655  0.4726  0.0087 -0.4061
  449MOL0     C60542   3.623  10.096   2.519  0.8491 -0.4526 -0.1303
  449MOL0     C60543   3.773  10.132   2.527  0.1581 -0.1764  0.3111
  449MOL0     C60544   3.818  10.209   2.418 -0.4532  0.3124  0.2693
  449MOL0     C60545   3.848  10.259   2.316 -0.1276  0.5239  0.4508
  449MOL0     C60546   3.150  10.038   2.563 -0.0510  0.1148 -0.6535
  449MOL0     C60547   3.024   9.986   2.538 -0.6265 -0.1146  0.0686
  449MOL0     H60548   2.568   9.766   2.530 -0.1097 -0.1972 -0.2755
  449MOL0     H60549   2.345   9.658   2.615 -0.4064 -0.5968  3.2514
  449MOL0     H60550   2.330   9.242   2.712 -0.4425  1.6280 -1.9405
  449MOL0     H60551   2.376   9.294   2.867 -1.2711 -1.1420  1.6481
  449MOL0     H60552   2.159   9.222   2.899  0.7721 -1.9686 -1.4660
  449MOL0     H60553   2.130   9.395   2.905 -1.7690 -0.1937  0.2173
  449MOL0     H60554   2.054   9.405   2.672 -0.8420 -0.6009 -2.2595
  449MOL0     H60555   2.084   9.233   2.647 -2.7492 -1.3706  0.6804
  449MOL0     H60556   1.946   9.162   2.819 -0.6440 -0.7197 -1.4051
  449MOL0     H60557   1.882   9.321   2.859 -2.6123 -0.5902 -0.8323
  449MOL0     H60558   1.783   9.353   2.646 -0.3709 -0.2734  0.2030
  449MOL0     H60559   1.869   9.223   2.574  2.5943 -1.0762  1.3404
  449MOL0     H60560   1.747   9.056   2.692  0.5124 -0.0629 -1.9270
  449MOL0     H60561   1.649   9.176   2.789 -0.1628 -1.4977  0.1116
  449MOL0     H60562   1.555   9.269   2.590  1.0857 -0.4542 -0.4187
  449MOL0     H60563   1.643   9.155   2.484  0.3098 -2.7510  0.0278
  449MOL0     H60564   1.459   9.030   2.694 -1.8473 -1.3607 -0.4834
  449MOL0     H60565   1.504   8.968   2.527 -0.0610  0.1076 -0.9236
  449MOL0     H60566   1.424   9.093   2.315  0.8081 -0.4884  0.3435
  449MOL0     H60567   1.167   9.097   2.166  0.4134 -0.2334  0.6636
  449MOL0     H60568   1.032   9.125   2.275  0.0676 -1.4729  1.2978
  449MOL0     H60569   1.231   9.332   2.154 -0.1688  0.6025 -0.5518
  449MOL0     H60570   1.121   9.370   2.293 -0.0061 -1.3225  0.5195
  449MOL0     H60571   1.064   9.303   2.002  1.7778 -1.6944  1.4472
  449MOL0     H60572   1.037   9.463   2.073  0.2118  1.1452  2.9021
  449MOL0     H60573   0.871   9.341   2.222 -2.5311 -0.2497 -1.4605
  449MOL0     H60574   0.874   9.207   2.107 -1.4431  0.3452  0.5437
  449MOL0     H60575   0.650   9.240   2.190 -0.1160  1.1635  1.1434
  449MOL0     H60576   0.486   9.088   2.197  1.2125  1.1594 -1.3100
  449MOL0     H60577   0.379   9.206   2.266  0.3500  0.9566 -0.8002
  449MOL0     H60578   0.321   9.107   2.130  1.0173  2.0261 -3.6350
  449MOL0     H60579   0.028   9.442   2.054  0.0186  0.3382 -0.6309
  449MOL0     H60580  -0.219   9.471   2.006 -0.4154  1.7575  0.3837
  449MOL0     H60581  -0.421   9.463   1.923  0.4172  0.0612  0.7739
  449MOL0     H60582  -0.376   9.635   1.889  0.0471  0.6833 -1.1807
  449MOL0     H60583  -0.555   9.604   1.682  0.4813 -0.7183 -0.7415
  449MOL0     H60584  -0.589   9.452   1.769  2.3208 -1.0459  0.9891
  449MOL0     H60585  -0.620   9.727   1.875  1.9947 -0.7031  0.5685
  449MOL0     H60586  -0.641   9.590   1.976  1.7432 -1.0461 -0.6171
  449MOL0     H60587  -0.779   9.671   1.722  0.3476  0.5045 -1.3328
  449MOL0     H60588  -0.824   9.516   1.803  1.6183 -0.1010  2.3665
  449MOL0     H60589  -0.861   9.785   1.953 -1.9419  0.6472 -1.1845
  449MOL0     H60590  -0.895   9.627   2.013  3.2713  1.2617  0.6887
  449MOL0     H60591  -1.020   9.739   1.752 -3.6532 -3.1148 -1.0436
  449MOL0     H60592  -1.083   9.620   1.852 -2.4383  1.5167 -0.1907
  449MOL0     H60593  -1.169   9.881   1.869  0.0010  1.6014  0.9311
  449MOL0     H60594  -1.053   9.877   1.997  0.2048 -1.8035  1.0306
  449MOL0     H60595  -1.151   9.708   2.121  1.2487  0.7170 -1.2608
  449MOL0     H60596  -1.251   9.656   1.975  2.8267 -0.3314 -2.7320
  449MOL0     H60597  -0.129   9.485   1.590  0.9722  2.9025  0.7950
  449MOL0     H60598   0.114   9.443   1.645 -0.1485  1.1957 -0.2425
  449MOL0     H60599   0.435   9.466   1.808  0.5360  0.1458 -0.0514
  449MOL0     H60600   0.681   9.487   1.843  3.0721 -4.8003 -2.7940
  449MOL0     H60601   2.578   9.355   2.814  0.1052 -0.1910 -0.5085
  449MOL0     H60602   2.776   9.478   2.765  0.0157 -0.1019 -1.5461
  449MOL0     H60603   3.060   9.666   2.641 -0.9221  0.0811  1.8875
  449MOL0     H60604   3.282   9.760   2.703 -1.8165 -2.9059 -0.7977
  449MOL0     H60605   3.376  10.180   2.556  3.1335 -0.7367 -1.4741
  449MOL0     H60606   3.361  10.189   2.731  3.6987  1.7479  0.1959
  449MOL0     H60607   3.594  10.080   2.741 -0.2536 -0.8408 -0.7363
  449MOL0     H60608   3.598  10.243   2.675  2.6338 -0.6662 -0.3198
  449MOL0     H60609   3.583  10.152   2.434 -0.7979 -2.5727 -0.8503
  449MOL0     H60610   3.604   9.988   2.517 -0.4640 -0.2366 -0.3831
  449MOL0     H60611   3.834  10.042   2.523  0.5128  0.0791 -0.0586
  449MOL0     H60612   3.794  10.183   2.621 -0.2006  1.2395 -0.3397
  449MOL0     H60613   3.860  10.303   2.219 -0.8696 -1.5265 -0.6323
  449MOL0     H60614   3.158  10.145   2.549  1.0931  0.0640 -0.5041
  449MOL0     H60615   2.948  10.055   2.505 -0.1169  0.6069  0.3824
  450MOL0     O60616   8.895   6.123   6.120  0.7121 -0.5046  0.7515
  450MOL0     C60617   8.901   6.008   6.148  0.4919 -0.2399  0.1233
  450MOL0     O60618   8.792   5.931   6.165 -0.7855  0.4565 -0.0924
  450MOL0     C60619   8.682   5.958   6.088  0.8839 -0.0528 -0.0693
  450MOL0     C60620   8.614   5.856   6.020  0.3139 -0.4034  0.4141
  450MOL0     C60621   8.490   5.871   5.955 -0.1207  0.7725 -0.5403
  450MOL0     C60622   8.434   5.996   5.941 -0.6998  0.3430 -0.0740
  450MOL0     O60623   8.317   6.012   5.872  0.1971 -0.3198  0.1961
  450MOL0     C60624   8.296   6.143   5.823  0.1741  0.8189  0.6313
  450MOL0     C60625   8.178   6.134   5.720 -0.5213 -0.5696 -0.8310
  450MOL0     C60626   8.217   6.070   5.584 -0.3381  0.5746  0.4880
  450MOL0     C60627   8.102   6.085   5.484 -0.2738  0.3124 -0.2668
  450MOL0     C60628   8.114   5.995   5.362 -0.4834  0.6540  0.5935
  450MOL0     C60629   8.244   6.019   5.273  0.7900  0.3670  0.5294
  450MOL0     C60630   8.241   6.150   5.191  1.2955  1.1692  0.0514
  450MOL0     C60631   8.364   6.147   5.108 -0.2766  0.1149 -0.5100
  450MOL0     N60632   8.371   6.270   5.028 -0.2027  0.5072 -0.0735
  450MOL0     C60633   8.342   6.269   4.896  0.3505 -0.1976  0.2091
  450MOL0     C60634   8.342   6.397   4.860 -0.1969  0.0838 -0.0768
  450MOL0     C60635   8.322   6.443   4.722  0.1142 -0.3820 -0.3110
  450MOL0     C60636   8.166   6.446   4.683  0.3154 -0.0565  0.5731
  450MOL0     C60637   8.100   6.308   4.677  0.7521  0.3350  0.5562
  450MOL0     C60638   7.947   6.323   4.637 -0.3726  0.4990  0.4618
  450MOL0     O60639   7.872   6.406   4.727  0.1011  0.8005  0.7131
  450MOL0     C60640   7.748   6.451   4.681 -0.5965  0.0804  0.0082
  450MOL0     C60641   7.693   6.414   4.554 -0.4863 -0.2011 -0.3304
  450MOL0     C60642   7.564   6.458   4.517  1.0220  0.2774 -0.8643
  450MOL0     C60643   7.509   6.438   4.379  0.7175 -0.0754 -0.5235
  450MOL0     C60644   7.490   6.532   4.621 -0.0576 -0.0011 -0.1871
  450MOL0     C60645   7.342   6.556   4.614 -0.5047  1.0699 -0.8346
  450MOL0     O60646   7.287   6.645   4.701 -0.0896  0.7014  0.2573
  450MOL0     C60647   7.150   6.657   4.709 -0.0839  0.2248  0.6692
  450MOL0     C60648   7.110   6.788   4.737 -0.3474 -0.0484 -0.3578
  450MOL0     C60649   6.981   6.816   4.768 -0.7983 -0.0753  0.5657
  450MOL0     C60650   6.875   6.726   4.744  0.0586  1.0917  0.3641
  450MOL0     O60651   6.746   6.759   4.759 -0.2285 -0.1472  0.7545
  450MOL0     C60652   6.698   6.755   4.899  0.3606 -0.0881 -0.3393
  450MOL0     C60653   6.612   6.627   4.915  0.3498 -0.5205 -0.6318
  450MOL0     C60654   6.482   6.615   4.841  1.2580  0.5450  0.9317
  450MOL0     C60655   6.389   6.740   4.840 -0.5517  0.1673  0.9810
  450MOL0     C60656   6.272   6.717   4.744 -0.8909 -0.5176  0.0968
  450MOL0     C60657   6.162   6.654   4.832  0.9650 -0.6202  0.2946
  450MOL0     C60658   6.048   6.599   4.751 -0.2075  0.7114 -0.3812
  450MOL0     C60659   5.935   6.704   4.712  0.0850 -0.6710 -0.3990
  450MOL0    Cl60660   5.869   6.779   4.867  0.0063 -0.4237  0.0768
  450MOL0     C60661   6.920   6.588   4.710  0.4786 -0.0290 -0.5204
  450MOL0     C60662   7.059   6.555   4.695 -0.3606 -0.7261  0.2986
  450MOL0     O60663   7.285   6.472   4.550 -0.3899 -0.1144 -0.5184
  450MOL0     C60664   7.561   6.585   4.734 -0.3542 -0.2385 -0.5422
  450MOL0     C60665   7.689   6.545   4.766 -0.2448 -0.6317  0.5699
  450MOL0     N60666   8.354   6.473   4.972 -0.6361 -0.5666 -0.0660
  450MOL0     N60667   8.368   6.397   5.083  0.0708  0.2974  0.5700
  450MOL0     C60668   8.500   6.102   6.011  0.5150  0.8429 -0.2453
  450MOL0     C60669   8.612   6.081   6.087 -0.4286  0.6003 -0.5506
  450MOL0     C60670   9.027   5.945   6.168  0.0274 -0.1103 -0.6855
  450MOL0     C60671   9.039   5.814   6.210  0.7262  0.7353  0.1948
  450MOL0     C60672   9.167   5.757   6.238 -0.9126  0.5630 -0.1407
  450MOL0     C60673   9.280   5.820   6.211 -0.1798  0.6499  0.3893
  450MOL0     O60674   9.400   5.758   6.238 -0.8193  0.0444  0.9877
  450MOL0     C60675   9.502   5.838   6.290 -0.9600 -0.4206  0.5838
  450MOL0     C60676   9.626   5.878   6.204 -0.4561  0.7514  0.0436
  450MOL0     C60677   9.685   5.752   6.132  0.3660  0.0980  0.3294
  450MOL0     C60678   9.829   5.783   6.069  0.5789  0.3792  0.4254
  450MOL0     C60679   9.905   5.658   6.035  0.3290 -0.6298 -0.2110
  450MOL0     C60680   9.969   5.567   5.983  0.5683 -0.0042 -0.0613
  450MOL0     C60681   9.271   5.947   6.154 -0.2130 -0.5236  0.5097
  450MOL0     C60682   9.144   6.014   6.144 -0.4843  0.5961 -0.3366
  450MOL0     H60683   8.662   5.760   6.038  2.2551  0.6856  1.4096
  450MOL0     H60684   8.449   5.783   5.907  1.9170 -0.0268 -0.9409
  450MOL0     H60685   8.259   6.211   5.901 -3.6713 -0.1267 -0.1529
  450MOL0     H60686   8.381   6.193   5.775  0.6483  0.3755  0.9979
  450MOL0     H60687   8.094   6.087   5.772  0.3453 -1.5407 -0.2859
  450MOL0     H60688   8.135   6.233   5.701 -0.3504 -0.7667 -2.3480
  450MOL0     H60689   8.304   6.109   5.531 -1.3572  0.0353 -1.6849
  450MOL0     H60690   8.244   5.966   5.604  1.3768  0.4907 -1.8694
  450MOL0     H60691   8.010   6.054   5.535 -0.3593  0.3792 -0.3819
  450MOL0     H60692   8.095   6.189   5.449 -2.0590 -0.5981 -2.8987
  450MOL0     H60693   8.108   5.894   5.403  0.8140  0.4005  0.2021
  450MOL0     H60694   8.035   6.007   5.287  1.0825  0.1125 -1.2549
  450MOL0     H60695   8.333   6.014   5.337  1.4846 -2.9163 -0.5306
  450MOL0     H60696   8.248   5.934   5.205 -1.7318  1.9489 -1.8054
  450MOL0     H60697   8.152   6.144   5.127 -0.6046 -0.0631  2.6557
  450MOL0     H60698   8.222   6.231   5.261 -4.2271  1.7793 -1.6805
  450MOL0     H60699   8.370   6.062   5.039 -2.2435 -0.0581 -0.5219
  450MOL0     H60700   8.448   6.144   5.177 -0.6504  1.2870  0.0035
  450MOL0     H60701   8.324   6.178   4.839  1.9924 -1.8210  2.1232
  450MOL0     H60702   8.371   6.540   4.710 -1.8728  0.9375  1.4823
  450MOL0     H60703   8.384   6.384   4.654  0.3755  1.9792 -2.2349
  450MOL0     H60704   8.166   6.493   4.585  0.9877 -1.4831 -0.1444
  450MOL0     H60705   8.115   6.508   4.758  0.8586 -0.4319  1.2752
  450MOL0     H60706   8.098   6.255   4.772 -1.3359  0.2074  0.4877
  450MOL0     H60707   8.146   6.244   4.601 -1.2667  2.1822 -2.4581
  450MOL0     H60708   7.913   6.220   4.646  0.9198  0.1841  2.4318
  450MOL0     H60709   7.939   6.368   4.538  2.8101  1.7459  0.6658
  450MOL0     H60710   7.733   6.347   4.478 -0.9701  1.3835 -2.0587
  450MOL0     H60711   7.474   6.534   4.339 -0.3476 -0.6473 -1.0130
  450MOL0     H60712   7.592   6.406   4.315  1.8085  0.0282  0.8096
  450MOL0     H60713   7.432   6.360   4.383  0.0487  0.6145  0.5309
  450MOL0     H60714   7.190   6.855   4.766 -0.5356  0.0052  0.0460
  450MOL0     H60715   6.954   6.909   4.818 -3.1325 -1.0101  1.1994
  450MOL0     H60716   6.781   6.760   4.970  2.1204  0.2603 -2.3200
  450MOL0     H60717   6.636   6.843   4.921 -0.2071 -0.6236  0.2116
  450MOL0     H60718   6.673   6.536   4.903 -0.6640 -1.5893  1.7404
  450MOL0     H60719   6.576   6.623   5.018 -1.4320  0.4852 -1.1729
  450MOL0     H60720   6.435   6.524   4.881  1.8545  0.4126  1.3316
  450MOL0     H60721   6.507   6.585   4.739  4.0485 -1.6437  2.1323
  450MOL0     H60722   6.353   6.770   4.938  1.1138  0.7035  1.4611
  450MOL0     H60723   6.443   6.823   4.793 -3.1193  1.1027 -0.5546
  450MOL0     H60724   6.302   6.644   4.669  2.0908 -0.8723  1.4610
  450MOL0     H60725   6.237   6.808   4.695  0.7575 -0.7709 -1.6496
  450MOL0     H60726   6.203   6.569   4.888 -1.3630 -0.2226  2.8267
  450MOL0     H60727   6.116   6.717   4.909  2.5897  2.0182 -0.7463
  450MOL0     H60728   5.997   6.522   4.809 -0.7235  0.3069 -1.3511
  450MOL0     H60729   6.073   6.537   4.665 -2.3507  1.3145 -1.5231
  450MOL0     H60730   5.859   6.644   4.662 -1.3691 -1.2178  2.2481
  450MOL0     H60731   5.969   6.784   4.646 -2.3424 -0.4491 -1.4602
  450MOL0     H60732   6.844   6.510   4.707 -0.1596  0.5323 -4.3304
  450MOL0     H60733   7.087   6.450   4.690  0.5298 -0.4414 -1.0924
  450MOL0     H60734   7.511   6.645   4.809 -1.1806 -2.4202  0.7643
  450MOL0     H60735   7.734   6.574   4.861 -2.8327 -0.0578  1.7253
  450MOL0     H60736   8.448   6.197   6.011 -3.1235 -0.9515  0.8677
  450MOL0     H60737   8.648   6.172   6.134  0.0793  0.4210 -0.5880
  450MOL0     H60738   8.955   5.753   6.243  2.5371 -1.9889  0.1219
  450MOL0     H60739   9.171   5.668   6.299 -0.3681  0.1895 -0.7194
  450MOL0     H60740   9.460   5.932   6.326  0.6220  0.6638 -0.2666
  450MOL0     H60741   9.543   5.801   6.384 -3.0985  0.9459  2.1441
  450MOL0     H60742   9.701   5.926   6.268 -1.5231 -1.6384  3.3494
  450MOL0     H60743   9.589   5.950   6.130 -0.9724  2.3958  1.8104
  450MOL0     H60744   9.611   5.735   6.053 -0.9661 -0.2533  1.5960
  450MOL0     H60745   9.678   5.665   6.198 -2.0874 -1.3988 -1.6987
  450MOL0     H60746   9.885   5.842   6.142  0.5682  1.1031 -0.1325
  450MOL0     H60747   9.815   5.841   5.977 -0.1145 -1.8064 -0.9234
  450MOL0     H60748  10.027   5.502   5.920 -2.2829 -1.6810 -1.1515
  450MOL0     H60749   9.355   6.008   6.123 -1.8909  1.2986 -0.6985
  450MOL0     H60750   9.138   6.118   6.114 -0.6555  0.0350 -2.3851
  451MOL0     O60751   9.520  10.915   4.508  0.7977 -0.4781 -1.0041
  451MOL0     C60752   9.597  10.975   4.579 -0.4577  0.2800 -0.7811
  451MOL0     O60753   9.565  11.037   4.701  0.6182 -0.1473 -0.4898
  451MOL0     C60754   9.431  11.051   4.740 -0.2262  0.0468  0.4338
  451MOL0     C60755   9.323  11.086   4.660 -1.4885  0.1214  0.6565
  451MOL0     C60756   9.199  11.114   4.711 -0.4537 -0.1893 -0.9712
  451MOL0     C60757   9.170  11.106   4.850 -1.1734 -0.1931  0.9772
  451MOL0     O60758   9.043  11.141   4.894  0.1963 -0.1008 -0.2922
  451MOL0     C60759   9.015  11.146   5.038 -0.1578  0.0410 -0.1258
  451MOL0     C60760   8.875  11.199   5.062  0.9624 -0.1128 -0.5141
  451MOL0     C60761   8.848  11.218   5.210 -0.3800 -0.3162  0.2865
  451MOL0     C60762   8.813  11.082   5.270 -0.5738 -0.5515  1.0538
  451MOL0     C60763   8.746  11.095   5.412 -0.2355  0.7905 -0.1311
  451MOL0     C60764   8.738  10.958   5.486  0.7796  0.0212  0.0456
  451MOL0     C60765   8.649  10.971   5.606  0.1997  0.7658 -1.1452
  451MOL0     C60766   8.618  10.834   5.659  0.0103 -0.7098  0.3927
  451MOL0     N60767   8.542  10.846   5.792 -0.3850  0.2292 -0.2356
  451MOL0     C60768   8.587  10.809   5.916 -0.3546  0.2314 -0.9064
  451MOL0     C60769   8.486  10.833   6.006 -0.0636  0.3416  0.3525
  451MOL0     C60770   8.480  10.810   6.158  0.0123 -0.5040  0.8151
  451MOL0     C60771   8.396  10.685   6.183 -0.7398 -0.1701  0.6362
  451MOL0     C60772   8.354  10.666   6.338  0.1826 -0.0667 -0.0749
  451MOL0     C60773   8.343  10.518   6.371  0.1729 -0.0010  0.6854
  451MOL0     O60774   8.289  10.498   6.499 -0.3073  0.5915 -0.3767
  451MOL0     C60775   8.165  10.545   6.537  0.1544 -0.0747 -0.4809
  451MOL0     C60776   8.159  10.561   6.673  0.1004 -0.2229  0.3182
  451MOL0     C60777   8.035  10.594   6.737  0.0851  0.4938  0.6055
  451MOL0     C60778   8.034  10.582   6.890 -0.4588 -0.0687  0.3301
  451MOL0     C60779   7.921  10.613   6.653 -0.4181  0.0441 -0.6921
  451MOL0     C60780   7.785  10.634   6.701 -0.2886 -0.1720  0.0578
  451MOL0     O60781   7.682  10.608   6.622 -0.2531 -0.1910  0.7439
  451MOL0     C60782   7.562  10.607   6.687  0.5201 -0.4459  0.1014
  451MOL0     C60783   7.510  10.492   6.742 -0.0043  0.2983  0.2205
  451MOL0     C60784   7.393  10.488   6.811 -0.6976  0.1163  0.2514
  451MOL0     C60785   7.315  10.607   6.829 -0.8378  0.1738  0.0455
  451MOL0     O60786   7.196  10.597   6.904 -0.2664  0.1265 -0.5122
  451MOL0     C60787   7.101  10.511   6.855  0.4707  0.3216 -0.3599
  451MOL0     C60788   6.954  10.536   6.904 -1.6565 -0.4709 -0.2967
  451MOL0     C60789   6.904  10.682   6.898  0.1440 -0.7370 -0.4009
  451MOL0     C60790   6.755  10.675   6.877 -0.3129 -0.5504  0.4510
  451MOL0     C60791   6.681  10.808   6.896  0.1891  0.0465  0.8766
  451MOL0     C60792   6.533  10.787   6.852 -0.7570 -0.3699  0.2033
  451MOL0     C60793   6.458  10.919   6.861 -0.1619  0.4671  0.1647
  451MOL0     C60794   6.325  10.923   6.771 -0.7141 -0.0800 -1.2953
  451MOL0    Cl60795   6.362  10.923   6.604 -0.3056  0.1431 -0.5172
  451MOL0     C60796   7.366  10.727   6.782 -0.7749  0.2488 -0.3864
  451MOL0     C60797   7.488  10.727   6.707  0.0471  0.8308 -0.2965
  451MOL0     O60798   7.776  10.675   6.816  0.1759  0.4704 -0.7920
  451MOL0     C60799   7.932  10.596   6.518  0.7410  0.1751 -0.4489
  451MOL0     C60800   8.055  10.559   6.457  0.8525 -1.3372  0.5277
  451MOL0     N60801   8.380  10.891   5.937 -1.1100 -0.1885  0.4898
  451MOL0     N60802   8.412  10.896   5.816  0.5046  0.7198  0.6090
  451MOL0     C60803   9.273  11.047   4.932  0.2509 -0.0506  0.5767
  451MOL0     C60804   9.404  11.036   4.876  0.8923 -0.0945 -0.4118
  451MOL0     C60805   9.739  10.987   4.539  1.5275 -0.0945  0.0740
  451MOL0     C60806   9.774  10.914   4.425  0.1715  0.1200  0.0767
  451MOL0     C60807   9.907  10.920   4.384 -0.3278 -0.6642  0.5461
  451MOL0     C60808  10.004  10.995   4.453 -0.2526  1.2174 -0.4897
  451MOL0     O60809  10.135  10.996   4.417 -0.2423 -0.6035  0.4162
  451MOL0     C60810  10.171  10.968   4.284  0.6934  0.3482  0.2136
  451MOL0     C60811  10.303  11.033   4.258 -0.0069  0.4443  0.3575
  451MOL0     C60812  10.417  10.983   4.338 -0.6837  0.6586 -0.3290
  451MOL0     C60813  10.542  11.072   4.326 -0.0476 -0.3863  0.4200
  451MOL0     C60814  10.649  11.017   4.401  0.4358 -0.5269 -0.4015
  451MOL0     C60815  10.750  10.977   4.462 -0.0302  0.8172 -1.5526
  451MOL0     C60816   9.970  11.055   4.577 -0.1990  0.3156  0.8508
  451MOL0     C60817   9.835  11.060   4.618  0.5432  0.7014 -0.2229
  451MOL0     H60818   9.327  11.109   4.554 -1.2671 -0.7715  0.4658
  451MOL0     H60819   9.117  11.139   4.645 -0.0244  1.0949 -1.0372
  451MOL0     H60820   9.015  11.044   5.077 -2.6014 -0.6565 -1.7303
  451MOL0     H60821   9.088  11.214   5.084 -0.5574  0.6237 -0.3383
  451MOL0     H60822   8.859  11.296   5.013 -0.6160  0.2002  0.5589
  451MOL0     H60823   8.809  11.125   5.016  0.4245  0.3689 -0.5353
  451MOL0     H60824   8.934  11.268   5.254 -0.2656 -1.1199  1.0097
  451MOL0     H60825   8.764  11.286   5.225 -0.4004 -0.4303  0.6977
  451MOL0     H60826   8.745  11.032   5.201 -1.7813  2.7156 -0.3109
  451MOL0     H60827   8.902  11.022   5.290 -2.1471 -3.3512  0.1781
  451MOL0     H60828   8.797  11.167   5.476 -1.9426  3.2531 -1.3928
  451MOL0     H60829   8.643  11.129   5.402  0.0781  1.9429  0.4054
  451MOL0     H60830   8.708  10.870   5.430  2.2540 -0.8591  0.5762
  451MOL0     H60831   8.839  10.926   5.515  1.5949  0.1873 -2.4290
  451MOL0     H60832   8.694  11.030   5.686  1.3988  0.6706 -1.7321
  451MOL0     H60833   8.558  11.025   5.579  1.0857  1.1925 -3.5072
  451MOL0     H60834   8.713  10.779   5.664 -0.6643 -1.8259  1.5918
  451MOL0     H60835   8.549  10.797   5.583  0.2659 -1.6505  0.6115
  451MOL0     H60836   8.674  10.751   5.945 -1.2372 -2.0122 -2.5124
  451MOL0     H60837   8.578  10.802   6.205  0.8375  1.0484 -0.5589
  451MOL0     H60838   8.427  10.891   6.209 -0.1193  1.2147 -1.8596
  451MOL0     H60839   8.452  10.592   6.169 -1.6904 -1.0758  2.4943
  451MOL0     H60840   8.305  10.684   6.123  0.2438 -3.5519 -1.0111
  451MOL0     H60841   8.255  10.710   6.355  1.0251  0.7469  3.7442
  451MOL0     H60842   8.419  10.722   6.407 -2.1340  1.4809  0.9773
  451MOL0     H60843   8.447  10.488   6.356  1.3668  3.6999  0.4814
  451MOL0     H60844   8.290  10.468   6.289  2.0808 -0.4177 -0.3386
  451MOL0     H60845   8.249  10.552   6.733  1.1760  1.5084 -0.9778
  451MOL0     H60846   7.960  10.508   6.921 -0.8687  0.3519  0.3739
  451MOL0     H60847   8.130  10.542   6.921 -0.8368 -0.1727  1.3855
  451MOL0     H60848   8.027  10.678   6.941 -1.1983  0.2441 -0.3272
  451MOL0     H60849   7.563  10.399   6.726 -1.3878 -1.1587  3.1218
  451MOL0     H60850   7.356  10.400   6.862  0.0923  0.4652  1.4514
  451MOL0     H60851   7.108  10.508   6.746 -1.3043  1.2482 -0.5335
  451MOL0     H60852   7.117  10.412   6.897  1.6350  0.3033 -0.8166
  451MOL0     H60853   6.887  10.470   6.848  0.6283 -1.1240 -2.4693
  451MOL0     H60854   6.963  10.500   7.007 -0.0199 -2.9413 -1.2198
  451MOL0     H60855   6.944  10.733   6.810  0.0821  0.6795  0.3625
  451MOL0     H60856   6.933  10.735   6.990 -0.5097  1.0183 -1.1665
  451MOL0     H60857   6.736  10.636   6.777  0.0724  0.8067 -0.1686
  451MOL0     H60858   6.713  10.598   6.943 -0.0649 -0.2386  0.9739
  451MOL0     H60859   6.725  10.886   6.833 -0.5023  0.6773  1.1551
  451MOL0     H60860   6.692  10.840   7.000  2.1491  2.8340 -0.0694
  451MOL0     H60861   6.524  10.741   6.754 -0.6238 -3.7487  1.6442
  451MOL0     H60862   6.477  10.716   6.913 -0.3453 -1.6205 -0.8315
  451MOL0     H60863   6.512  11.007   6.822 -1.6593  0.5975 -1.8241
  451MOL0     H60864   6.428  10.946   6.962 -0.3229 -1.5005  0.6755
  451MOL0     H60865   6.274  11.017   6.795 -1.0269 -0.7703  1.0039
  451MOL0     H60866   6.250  10.845   6.789  0.4823 -0.8865  0.5752
  451MOL0     H60867   7.310  10.815   6.811 -1.6022 -1.1067  2.5814
  451MOL0     H60868   7.523  10.823   6.672 -2.3693  1.8496 -0.1125
  451MOL0     H60869   7.846  10.604   6.452 -0.4168  2.3016  1.1899
  451MOL0     H60870   8.056  10.530   6.352 -0.2683 -3.2902  1.0169
  451MOL0     H60871   9.265  11.020   5.037  0.2574 -2.5060  0.0114
  451MOL0     H60872   9.485  11.014   4.945 -0.3052  0.5856  1.2788
  451MOL0     H60873   9.709  10.852   4.364  3.0481 -0.2221 -2.9225
  451MOL0     H60874   9.940  10.873   4.293 -1.9949  0.9765 -0.9853
  451MOL0     H60875  10.162  10.859   4.276 -1.0188  0.6445 -3.4344
  451MOL0     H60876  10.093  11.010   4.221  0.3264  3.1762  2.3451
  451MOL0     H60877  10.287  11.139   4.278 -0.8112  0.5036 -0.5320
  451MOL0     H60878  10.323  11.015   4.152 -2.1472 -0.1292  0.0155
  451MOL0     H60879  10.426  10.881   4.301 -0.0085  1.0009 -1.1708
  451MOL0     H60880  10.387  10.975   4.442  0.5560 -0.2652 -0.0185
  451MOL0     H60881  10.519  11.174   4.358  0.3639 -0.1072 -0.1522
  451MOL0     H60882  10.577  11.085   4.223  0.1784 -0.9882  0.4159
  451MOL0     H60883  10.841  10.952   4.513 -0.8982 -1.8951 -1.1852
  451MOL0     H60884  10.045  11.115   4.626 -0.5270  0.1462  1.5693
  451MOL0     H60885   9.806  11.115   4.707 -0.9764 -0.9113  0.3299
  452MOL0     O60886   4.401   6.242   5.729 -0.1379  0.2643 -0.3202
  452MOL0     C60887   4.483   6.156   5.716 -0.2826 -0.0258 -0.2629
  452MOL0     O60888   4.459   6.029   5.655 -0.2372 -0.9584 -0.4958
  452MOL0     C60889   4.330   6.009   5.616 -0.8873  1.0422  0.0733
  452MOL0     C60890   4.288   6.017   5.481  0.1526 -0.6696  0.3201
  452MOL0     C60891   4.157   5.979   5.447  0.2997 -0.4395  1.3050
  452MOL0     C60892   4.065   5.944   5.542  0.0984 -0.2248  0.1763
  452MOL0     O60893   3.943   5.903   5.484 -0.2961  0.1573 -0.9143
  452MOL0     C60894   3.845   5.839   5.566 -0.0721 -0.4472  0.4617
  452MOL0     C60895   3.727   5.789   5.486  0.6607  0.2774  0.6841
  452MOL0     C60896   3.648   5.704   5.579 -0.2847  0.4216  0.2587
  452MOL0     C60897   3.512   5.655   5.517 -0.3430  0.5951  0.1050
  452MOL0     C60898   3.421   5.607   5.625  0.0203  0.6010  0.2557
  452MOL0     C60899   3.287   5.559   5.574  0.5832  0.2143  0.3867
  452MOL0     C60900   3.187   5.536   5.680 -0.2728 -0.1137  0.3409
  452MOL0     C60901   3.065   5.467   5.619  0.6866 -0.1642 -0.4695
  452MOL0     N60902   2.973   5.578   5.551 -0.2094  0.2068  0.2569
  452MOL0     C60903   2.968   5.599   5.413 -0.2833 -0.7001 -0.6060
  452MOL0     C60904   2.865   5.692   5.405 -0.8101  0.0755  1.5538
  452MOL0     C60905   2.823   5.757   5.267 -0.5019  0.4288 -0.1395
  452MOL0     C60906   2.675   5.777   5.251  0.3376  0.0693  0.3266
  452MOL0     C60907   2.623   5.639   5.192  0.0854  0.8939  0.2618
  452MOL0     C60908   2.476   5.670   5.155 -0.0479 -0.0384  0.2702
  452MOL0     O60909   2.415   5.567   5.074 -0.1071  0.2510 -0.1521
  452MOL0     C60910   2.279   5.572   5.043 -0.2761  0.1785  0.1153
  452MOL0     C60911   2.228   5.469   4.961  0.0137  0.6839  0.5069
  452MOL0     C60912   2.094   5.464   4.934 -0.2368 -0.1467  0.0877
  452MOL0     C60913   2.054   5.338   4.857  0.7055 -0.0731 -0.0674
  452MOL0     C60914   2.003   5.560   4.994  0.1690  0.2504 -0.7512
  452MOL0     C60915   1.855   5.548   4.989 -0.2646 -0.3110  1.0766
  452MOL0     O60916   1.778   5.568   5.092  0.2574  0.1163 -1.3238
  452MOL0     C60917   1.640   5.561   5.084  0.3338  0.8789 -0.8886
  452MOL0     C60918   1.566   5.446   5.055 -0.0892  0.2009 -0.2663
  452MOL0     C60919   1.427   5.441   5.056  0.5136  0.3901 -0.2112
  452MOL0     C60920   1.361   5.555   5.094  0.9290 -0.2401 -0.5876
  452MOL0     O60921   1.217   5.545   5.106 -0.0781 -0.5287  0.1427
  452MOL0     C60922   1.134   5.668   5.107 -0.4112 -0.5574 -0.3744
  452MOL0     C60923   0.993   5.619   5.133  0.4510 -0.2640  0.4411
  452MOL0     C60924   0.899   5.731   5.163 -0.3386  0.1405  0.3420
  452MOL0     C60925   0.762   5.655   5.175  0.0961 -0.0604 -0.7908
  452MOL0     C60926   0.657   5.768   5.186 -0.6119  0.2291  0.3646
  452MOL0     C60927   0.517   5.703   5.239  0.4163 -0.1780  0.2905
  452MOL0     C60928   0.410   5.815   5.259  0.9278  0.8724 -0.1428
  452MOL0     C60929   0.271   5.765   5.286  0.0695 -0.3278 -0.4000
  452MOL0    Cl60930   0.152   5.898   5.322 -0.0612 -0.1502 -0.0843
  452MOL0     C60931   1.429   5.670   5.123 -0.1041  0.4124 -0.5218
  452MOL0     C60932   1.570   5.675   5.125  0.4627 -0.1831 -0.4634
  452MOL0     O60933   1.821   5.526   4.873  0.2915 -0.3471  0.2762
  452MOL0     C60934   2.056   5.666   5.069  0.3886 -0.0973 -0.0489
  452MOL0     C60935   2.191   5.673   5.094 -0.2221  0.0913 -0.3386
  452MOL0     N60936   2.818   5.716   5.536  0.5553 -0.6106  0.5810
  452MOL0     N60937   2.881   5.651   5.623 -0.0865 -0.0256 -0.2215
  452MOL0     C60938   4.098   5.953   5.680  0.3209 -0.0269  0.4225
  452MOL0     C60939   4.234   5.981   5.713  0.0057 -0.3002 -0.0652
  452MOL0     C60940   4.616   6.188   5.758 -0.1391  0.0311 -0.1027
  452MOL0     C60941   4.648   6.303   5.835  0.5176  0.3273  0.1480
  452MOL0     C60942   4.782   6.328   5.870 -1.0149  0.6603  0.1712
  452MOL0     C60943   4.882   6.237   5.825 -0.5298  0.1086 -0.3796
  452MOL0     O60944   5.017   6.238   5.849  0.5030 -0.0805  0.1803
  452MOL0     C60945   5.094   6.359   5.866  0.2281  0.6801  0.3118
  452MOL0     C60946   5.236   6.331   5.803  1.1341 -0.3414 -0.5822
  452MOL0     C60947   5.335   6.236   5.879  1.1094 -0.2069 -0.8776
  452MOL0     C60948   5.462   6.220   5.816 -1.1524  0.4415  0.4728
  452MOL0     C60949   5.537   6.349   5.814 -0.2848  0.3321  0.2717
  452MOL0     C60950   5.612   6.441   5.824 -0.3511 -0.3306  0.0145
  452MOL0     C60951   4.852   6.124   5.753  0.4817  0.3128 -0.7093
  452MOL0     C60952   4.719   6.102   5.716 -0.2571 -0.3996  0.1297
  452MOL0     H60953   4.358   6.054   5.406  1.7985 -2.5336  0.8561
  452MOL0     H60954   4.116   6.002   5.349  1.9300  0.3808  0.7727
  452MOL0     H60955   3.891   5.760   5.627 -0.9340 -0.2218  1.4335
  452MOL0     H60956   3.805   5.909   5.641  1.0842 -0.4453  1.1056
  452MOL0     H60957   3.675   5.879   5.451 -1.4892 -1.6172 -1.3296
  452MOL0     H60958   3.760   5.730   5.400 -1.6673 -0.2708  0.0919
  452MOL0     H60959   3.708   5.623   5.621 -0.9112  0.2783  0.9028
  452MOL0     H60960   3.621   5.761   5.669 -1.7414  0.3784 -0.1235
  452MOL0     H60961   3.468   5.727   5.448 -0.2680 -0.4495 -1.0618
  452MOL0     H60962   3.536   5.560   5.467 -0.9051  0.4008  0.1997
  452MOL0     H60963   3.483   5.528   5.667  1.1439  1.2618 -0.1098
  452MOL0     H60964   3.408   5.682   5.704  0.2827 -1.0028  1.8901
  452MOL0     H60965   3.249   5.626   5.496  1.4815 -0.0577 -0.2985
  452MOL0     H60966   3.314   5.474   5.511 -0.8437 -1.1773  1.5567
  452MOL0     H60967   3.232   5.488   5.767  1.1905  1.2839  0.4033
  452MOL0     H60968   3.163   5.634   5.722  0.2108  0.0445  0.2548
  452MOL0     H60969   3.006   5.418   5.697 -0.5477  0.6831 -0.8256
  452MOL0     H60970   3.087   5.387   5.547  0.5605 -2.4648  1.8842
  452MOL0     H60971   3.033   5.560   5.334 -1.2143 -2.8495 -0.3831
  452MOL0     H60972   2.891   5.842   5.266  1.3309 -0.9036  1.7156
  452MOL0     H60973   2.855   5.697   5.181  1.7594  0.3923  0.6663
  452MOL0     H60974   2.660   5.859   5.181 -2.7849 -2.7777 -2.6900
  452MOL0     H60975   2.617   5.787   5.343 -0.6855 -0.6375 -0.2189
  452MOL0     H60976   2.637   5.565   5.271 -0.4715 -0.3596 -0.7792
  452MOL0     H60977   2.672   5.610   5.099 -1.7692 -2.0028  0.0502
  452MOL0     H60978   2.463   5.764   5.100  0.9897 -0.9414 -1.6087
  452MOL0     H60979   2.429   5.672   5.254  1.6244 -0.5391  1.1107
  452MOL0     H60980   2.296   5.389   4.933  2.8933  3.0594  0.2009
  452MOL0     H60981   2.041   5.352   4.749  0.2124 -2.2118 -0.3367
  452MOL0     H60982   2.111   5.245   4.865 -4.3198 -3.7695 -1.6356
  452MOL0     H60983   1.958   5.300   4.894  1.6651 -2.0212  0.5801
  452MOL0     H60984   1.616   5.356   5.021  1.9567  1.4873 -0.9051
  452MOL0     H60985   1.375   5.350   5.030  1.3350 -0.3417  0.6448
  452MOL0     H60986   1.159   5.739   5.187 -0.4242 -0.2620 -0.6325
  452MOL0     H60987   1.136   5.720   5.011 -1.1173  1.0296  0.4248
  452MOL0     H60988   0.973   5.571   5.037  1.4651  2.2199 -1.1414
  452MOL0     H60989   0.996   5.548   5.215  1.8732  0.6717  1.2581
  452MOL0     H60990   0.898   5.807   5.085  3.0429  1.1258  1.0999
  452MOL0     H60991   0.917   5.782   5.258 -2.4460  0.2574  0.7269
  452MOL0     H60992   0.749   5.589   5.088  1.3459 -0.0272 -1.0137
  452MOL0     H60993   0.766   5.588   5.262 -4.7998  0.7470  0.3778
  452MOL0     H60994   0.637   5.816   5.090 -1.7149 -3.0625 -1.2146
  452MOL0     H60995   0.690   5.840   5.261  1.5792 -1.8750  1.5719
  452MOL0     H60996   0.482   5.633   5.163 -0.8529 -1.1236  1.6905
  452MOL0     H60997   0.526   5.651   5.334 -0.4553 -0.2502  0.3426
  452MOL0     H60998   0.396   5.886   5.177 -2.7622  2.1208  1.3705
  452MOL0     H60999   0.450   5.867   5.346  1.2065 -3.0280  2.2859
  452MOL0     H61000   0.277   5.692   5.368  0.7184 -2.6825 -2.4224
  452MOL0     H61001   0.244   5.717   5.191 -1.8037 -0.1608 -0.0002
  452MOL0     H61002   1.371   5.758   5.150  0.7141  0.8689 -0.2191
  452MOL0     H61003   1.618   5.769   5.150 -2.5249  1.4846 -0.4216
  452MOL0     H61004   1.993   5.744   5.112  0.8267  0.3983 -0.3064
  452MOL0     H61005   2.227   5.757   5.152  2.5429 -1.2877  0.1309
  452MOL0     H61006   4.024   5.936   5.757 -0.8830  2.3501 -0.1253
  452MOL0     H61007   4.270   5.998   5.814  2.9200  1.4216 -1.2683
  452MOL0     H61008   4.579   6.379   5.872  2.4709  1.5221  1.5606
  452MOL0     H61009   4.809   6.419   5.924  3.6825 -0.3714  0.0172
  452MOL0     H61010   5.052   6.443   5.810  2.8597  1.4630 -0.6567
  452MOL0     H61011   5.113   6.395   5.967  0.0557  2.4526 -0.2580
  452MOL0     H61012   5.282   6.430   5.791  1.2075 -0.2394  0.4605
  452MOL0     H61013   5.211   6.297   5.702 -0.9600 -2.1149  0.4597
  452MOL0     H61014   5.294   6.137   5.901  0.4301  0.5534  1.6610
  452MOL0     H61015   5.362   6.276   5.978  1.5035 -3.2355  0.3480
  452MOL0     H61016   5.442   6.187   5.713  1.0700  1.0166 -0.2145
  452MOL0     H61017   5.525   6.147   5.867 -0.8833  1.1961  1.2443
  452MOL0     H61018   5.673   6.525   5.852 -0.6151 -0.5176  1.1998
  452MOL0     H61019   4.932   6.053   5.735  1.6867  0.7041  2.4495
  452MOL0     H61020   4.702   6.007   5.665 -0.7953  0.4266 -1.2879
  453MOL0     O61021   5.296   7.798   3.144 -0.1236 -0.1374  0.2434
  453MOL0     C61022   5.211   7.720   3.099  0.2403  0.5469 -0.2635
  453MOL0     O61023   5.116   7.647   3.176 -0.0571  0.0517 -0.1087
  453MOL0     C61024   5.107   7.671   3.312 -0.6321 -0.1559 -0.2883
  453MOL0     C61025   5.215   7.695   3.398 -0.3075  0.5569 -0.1079
  453MOL0     C61026   5.208   7.689   3.536  0.2330 -0.4693  0.4823
  453MOL0     C61027   5.081   7.663   3.595 -0.1471 -0.1015  0.0586
  453MOL0     O61028   5.077   7.630   3.731  0.3640 -0.1153 -1.3881
  453MOL0     C61029   5.167   7.521   3.762  0.6335 -1.0281  0.3509
  453MOL0     C61030   5.087   7.434   3.851  0.4084 -0.0165 -0.8721
  453MOL0     C61031   5.174   7.337   3.942 -0.0115  0.6685  0.5679
  453MOL0     C61032   5.274   7.250   3.862 -0.1396 -0.3403 -0.8433
  453MOL0     C61033   5.337   7.137   3.947 -0.1658 -1.1348  0.3145
  453MOL0     C61034   5.422   7.056   3.856 -0.3442  0.5615 -0.6166
  453MOL0     C61035   5.498   6.940   3.924  0.4697  0.6853 -0.2606
  453MOL0     C61036   5.607   6.882   3.827 -0.7074  0.3250  0.8264
  453MOL0     N61037   5.552   6.796   3.725 -0.4604  0.2915 -0.9263
  453MOL0     C61038   5.488   6.842   3.606 -0.4365 -0.1329 -0.5774
  453MOL0     C61039   5.441   6.725   3.554 -0.0868  0.1768 -0.6985
  453MOL0     C61040   5.359   6.728   3.430 -0.3824  0.3938 -0.9376
  453MOL0     C61041   5.244   6.637   3.457  0.1422 -0.0119 -0.1275
  453MOL0     C61042   5.152   6.660   3.581 -0.2703 -0.2824 -0.6449
  453MOL0     C61043   5.083   6.800   3.586  0.2380 -0.0513 -0.3932
  453MOL0     O61044   4.973   6.816   3.499  0.3746  0.0006 -0.0119
  453MOL0     C61045   4.849   6.770   3.530  0.9957  0.1412  0.4678
  453MOL0     C61046   4.751   6.799   3.439 -0.5826 -0.0072  0.9502
  453MOL0     C61047   4.623   6.754   3.441 -0.3467  0.4584 -0.4597
  453MOL0     C61048   4.520   6.819   3.353 -0.0879  0.8305 -0.9736
  453MOL0     C61049   4.580   6.663   3.552 -0.1209  0.0393 -0.3018
  453MOL0     C61050   4.444   6.599   3.567 -0.4394  0.5634 -0.3361
  453MOL0     O61051   4.355   6.598   3.463  0.8978  0.1104  0.2509
  453MOL0     C61052   4.219   6.597   3.486 -0.7849 -0.0460 -0.4679
  453MOL0     C61053   4.149   6.671   3.590  0.6553 -0.3770  0.3683
  453MOL0     C61054   4.009   6.648   3.591  0.2804  0.3277 -0.3254
  453MOL0     C61055   3.937   6.569   3.498  0.3257 -0.1090 -0.2592
  453MOL0     O61056   3.806   6.522   3.502  0.5029 -0.3008 -0.4383
  453MOL0     C61057   3.719   6.564   3.615 -0.2707  1.0328  0.7087
  453MOL0     C61058   3.603   6.460   3.637  0.2289 -0.0705  0.3766
  453MOL0     C61059   3.634   6.346   3.724 -0.5433 -0.0891  0.0570
  453MOL0     C61060   3.756   6.273   3.683 -0.2188  0.7462  0.0587
  453MOL0     C61061   3.766   6.136   3.747  0.7241  0.2959  0.3162
  453MOL0     C61062   3.888   6.055   3.707 -0.3287 -0.7793 -0.5614
  453MOL0     C61063   3.895   5.923   3.779 -0.1936 -0.0125 -0.4339
  453MOL0     C61064   4.038   5.868   3.766  0.6625 -1.0996 -0.0144
  453MOL0    Cl61065   4.076   5.735   3.865  0.0453 -0.0193  0.2532
  453MOL0     C61066   4.011   6.518   3.391  0.0923  1.0315  0.1119
  453MOL0     C61067   4.148   6.519   3.391  0.0504 -0.8837  0.7910
  453MOL0     O61068   4.419   6.560   3.678  0.0690  0.8996 -0.7131
  453MOL0     C61069   4.681   6.649   3.655  0.2111 -0.0706 -0.4532
  453MOL0     C61070   4.811   6.701   3.645  0.7470 -0.1629 -0.2478
  453MOL0     N61071   5.472   6.614   3.640  0.3468 -0.1736 -0.0599
  453MOL0     N61072   5.532   6.660   3.746  0.1003 -0.4653  0.1121
  453MOL0     C61073   4.969   7.647   3.507 -0.2784 -0.5985 -0.6312
  453MOL0     C61074   4.986   7.649   3.370 -0.1755 -0.0775  0.6468
  453MOL0     C61075   5.203   7.706   2.949 -0.0810  0.2175  0.4789
  453MOL0     C61076   5.298   7.757   2.863 -0.2851 -0.0470  0.8331
  453MOL0     C61077   5.294   7.744   2.723 -0.9823  0.0343  0.5598
  453MOL0     C61078   5.179   7.684   2.662 -0.3513 -0.1889 -0.4815
  453MOL0     O61079   5.170   7.646   2.536  0.0854 -0.1367  0.0197
  453MOL0     C61080   5.160   7.758   2.447 -0.2622  0.1932  0.6910
  453MOL0     C61081   5.156   7.693   2.304 -0.0375 -0.2472 -0.1390
  453MOL0     C61082   5.270   7.591   2.266  0.4838 -0.3315  0.3753
  453MOL0     C61083   5.401   7.667   2.271  0.1408  0.8275  0.3565
  453MOL0     C61084   5.524   7.593   2.247 -0.7309  0.3866  0.5635
  453MOL0     C61085   5.622   7.524   2.225 -0.3872  0.2675 -0.6621
  453MOL0     C61086   5.083   7.633   2.744 -0.1444  0.2769  0.0375
  453MOL0     C61087   5.094   7.641   2.882 -0.1160  0.4016  0.4646
  453MOL0     H61088   5.320   7.711   3.373 -1.0514  2.1960 -2.5944
  453MOL0     H61089   5.300   7.699   3.591  0.0701  1.6982  0.4583
  453MOL0     H61090   5.207   7.464   3.678  1.1845 -0.7947  0.4508
  453MOL0     H61091   5.259   7.558   3.810  0.8931 -0.5240 -0.5169
  453MOL0     H61092   5.022   7.501   3.908 -1.2642 -0.7519 -1.8674
  453MOL0     H61093   5.011   7.375   3.799 -1.1458  0.0627  1.1759
  453MOL0     H61094   5.216   7.397   4.024 -0.6961  1.8370  0.0810
  453MOL0     H61095   5.104   7.264   3.982  1.9048 -0.8929  1.2421
  453MOL0     H61096   5.229   7.196   3.779  0.3609 -0.0094 -1.3379
  453MOL0     H61097   5.352   7.312   3.817 -0.1525 -1.4773 -2.5097
  453MOL0     H61098   5.395   7.172   4.033 -0.7587 -0.6483  0.5306
  453MOL0     H61099   5.257   7.085   4.001 -0.9077 -0.4419 -0.0855
  453MOL0     H61100   5.357   7.030   3.772 -2.3102  0.2228  0.9311
  453MOL0     H61101   5.501   7.119   3.812  0.9815  0.7763  1.8486
  453MOL0     H61102   5.544   6.971   4.018 -0.5583  2.8024 -0.3850
  453MOL0     H61103   5.422   6.868   3.956 -1.3260  2.9742  0.9920
  453MOL0     H61104   5.686   6.823   3.875 -0.1940 -0.1620 -0.5557
  453MOL0     H61105   5.663   6.967   3.787 -0.3062 -0.1235  0.4158
  453MOL0     H61106   5.485   6.944   3.570  2.3155  0.4865  0.6604
  453MOL0     H61107   5.334   6.828   3.393  2.0344  1.7163  0.7271
  453MOL0     H61108   5.406   6.676   3.346 -1.8845 -0.1175 -1.5077
  453MOL0     H61109   5.271   6.531   3.465  0.1163 -0.5473 -4.4464
  453MOL0     H61110   5.180   6.639   3.368  1.7840  0.7202 -1.3502
  453MOL0     H61111   5.215   6.637   3.668 -0.3630  1.5791 -0.0510
  453MOL0     H61112   5.081   6.577   3.574 -0.0068 -0.7303  1.3593
  453MOL0     H61113   5.164   6.871   3.567  1.2579 -0.9323  0.4664
  453MOL0     H61114   5.049   6.815   3.689  4.9528  0.7579  1.3317
  453MOL0     H61115   4.785   6.860   3.355  0.5052 -0.6716  0.8885
  453MOL0     H61116   4.534   6.927   3.345 -1.7671  1.1728  0.2076
  453MOL0     H61117   4.535   6.786   3.249 -1.0792  0.4588 -1.0183
  453MOL0     H61118   4.419   6.818   3.395  0.7207  4.2818  1.4305
  453MOL0     H61119   4.197   6.737   3.662 -0.1486 -0.5154  1.0463
  453MOL0     H61120   3.949   6.677   3.677  0.6695 -4.8542  2.0375
  453MOL0     H61121   3.773   6.565   3.710  1.4622  0.5604 -0.2352
  453MOL0     H61122   3.671   6.658   3.585  0.6265  1.2083 -0.2235
  453MOL0     H61123   3.515   6.515   3.673 -0.6602 -0.0300 -1.7300
  453MOL0     H61124   3.566   6.426   3.540 -0.6256  0.1965  0.5997
  453MOL0     H61125   3.550   6.276   3.728 -1.2092  0.3382 -3.4038
  453MOL0     H61126   3.655   6.392   3.821  0.6567  3.2693 -1.6498
  453MOL0     H61127   3.762   6.274   3.574 -3.9154  1.5196 -0.2329
  453MOL0     H61128   3.847   6.328   3.708 -0.6507  0.0400  3.6674
  453MOL0     H61129   3.688   6.079   3.695  2.0389 -0.8658 -0.4393
  453MOL0     H61130   3.760   6.140   3.856  0.2882 -0.6143  0.3369
  453MOL0     H61131   3.882   6.032   3.600  0.3449 -2.1851 -0.3262
  453MOL0     H61132   3.980   6.109   3.729  0.2928 -0.7007 -3.0415
  453MOL0     H61133   3.834   5.851   3.725  1.2938 -0.2597 -1.8425
  453MOL0     H61134   3.863   5.939   3.883  1.2545  0.1807  0.0025
  453MOL0     H61135   4.109   5.950   3.786 -1.5323  0.5578  1.4439
  453MOL0     H61136   4.064   5.835   3.665  3.3187  0.3452  0.0957
  453MOL0     H61137   3.968   6.446   3.322 -1.2619  0.9615  0.9771
  453MOL0     H61138   4.201   6.476   3.307 -2.5090 -0.9422 -0.8875
  453MOL0     H61139   4.656   6.597   3.747 -0.5013 -0.4505 -0.8520
  453MOL0     H61140   4.888   6.684   3.719  0.4970  2.2329  0.6577
  453MOL0     H61141   4.867   7.632   3.541  0.0830 -4.2239 -0.8232
  453MOL0     H61142   4.907   7.621   3.301  1.3958  0.1757 -1.3630
  453MOL0     H61143   5.386   7.798   2.910  0.4862  0.0133 -0.6139
  453MOL0     H61144   5.380   7.769   2.663  0.2636  0.4093  2.4159
  453MOL0     H61145   5.067   7.812   2.465 -0.6931  0.3818 -1.7472
  453MOL0     H61146   5.235   7.836   2.465 -0.4704  0.6751 -0.4088
  453MOL0     H61147   5.155   7.778   2.235  1.3021  1.6349  1.9928
  453MOL0     H61148   5.060   7.641   2.303 -1.0748  1.4119  2.7355
  453MOL0     H61149   5.239   7.552   2.168 -0.3020 -2.7777  1.5010
  453MOL0     H61150   5.272   7.505   2.333 -1.0416 -1.0331 -0.4058
  453MOL0     H61151   5.415   7.692   2.376  1.6208  0.1036  0.3611
  453MOL0     H61152   5.409   7.748   2.197 -2.2303  2.7002  2.0001
  453MOL0     H61153   5.702   7.454   2.219  0.2266  0.8173  0.7003
  453MOL0     H61154   4.991   7.590   2.706 -1.0155  1.3290  0.8844
  453MOL0     H61155   5.017   7.585   2.935 -0.6698 -0.6434 -1.3501
  454MOL0     O61156  10.342   6.564   3.915 -0.3923 -1.0555 -0.0677
  454MOL0     C61157  10.401   6.672   3.942  0.3737 -0.0515  0.4574
  454MOL0     O61158  10.342   6.794   3.970 -0.0050  0.2786 -0.4919
  454MOL0     C61159  10.208   6.801   3.965  0.5525 -0.6089  0.2215
  454MOL0     C61160  10.143   6.882   4.060  0.1305 -0.1785 -1.6614
  454MOL0     C61161  10.007   6.914   4.055  0.7469  0.1855  0.0008
  454MOL0     C61162   9.924   6.865   3.940  0.1998  0.4702 -0.3507
  454MOL0     O61163   9.783   6.890   3.926 -0.3229  0.0380 -0.2579
  454MOL0     C61164   9.723   6.943   4.054 -0.1634  0.1903 -0.5363
  454MOL0     C61165   9.578   6.934   4.048  1.2536 -0.1970  0.2848
  454MOL0     C61166   9.519   7.019   4.159 -0.0789 -1.2913 -0.0725
  454MOL0     C61167   9.370   7.012   4.150  0.0588 -0.2718  0.0308
  454MOL0     C61168   9.310   7.091   4.258  0.4905 -0.0448 -0.6081
  454MOL0     C61169   9.159   7.118   4.237  0.1862  0.1435 -0.5501
  454MOL0     C61170   9.095   7.200   4.350 -0.3817 -1.0404 -0.2005
  454MOL0     C61171   8.954   7.248   4.307  0.2028  0.5524  0.3860
  454MOL0     N61172   8.952   7.303   4.172 -0.4603 -0.3515  0.4843
  454MOL0     C61173   8.894   7.243   4.063  0.9543 -0.5687 -0.2991
  454MOL0     C61174   8.900   7.329   3.965 -0.1857  0.0901 -1.0259
  454MOL0     C61175   8.838   7.311   3.827 -0.5168 -0.8379 -0.4354
  454MOL0     C61176   8.683   7.295   3.847  0.3380  0.0777 -0.1191
  454MOL0     C61177   8.596   7.302   3.714 -0.7916  0.3691 -0.3961
  454MOL0     C61178   8.465   7.231   3.746 -0.7524 -0.7957  0.0631
  454MOL0     O61179   8.392   7.317   3.829  0.4491  0.4830 -1.1533
  454MOL0     C61180   8.254   7.310   3.826  0.1352 -0.7121 -0.9659
  454MOL0     C61181   8.176   7.228   3.751 -0.5111 -0.1592 -0.0124
  454MOL0     C61182   8.045   7.266   3.722  0.9488  0.3625 -0.5882
  454MOL0     C61183   7.955   7.169   3.639 -0.0044 -0.7119  0.2665
  454MOL0     C61184   7.991   7.381   3.779  1.2199  0.4513 -0.2947
  454MOL0     C61185   7.852   7.439   3.761 -0.8042 -0.1174 -0.5290
  454MOL0     O61186   7.748   7.367   3.720  0.2983  0.1791 -0.9350
  454MOL0     C61187   7.624   7.413   3.693 -1.4392 -0.7710  0.3253
  454MOL0     C61188   7.592   7.545   3.654 -0.1892  0.2386 -0.7903
  454MOL0     C61189   7.458   7.574   3.625 -0.5917  0.8838 -0.4678
  454MOL0     C61190   7.361   7.478   3.611  0.3014 -0.0793  0.5266
  454MOL0     O61191   7.232   7.510   3.575 -0.3858  0.5160  0.1709
  454MOL0     C61192   7.216   7.616   3.482  0.3981 -1.0382  0.2573
  454MOL0     C61193   7.114   7.579   3.374  0.4351  0.5396  0.2035
  454MOL0     C61194   7.112   7.669   3.259  0.0068 -0.2867 -0.0566
  454MOL0     C61195   7.036   7.602   3.143  0.1052  0.3563  0.1531
  454MOL0     C61196   7.022   7.692   3.026 -0.5586 -0.9853 -0.6093
  454MOL0     C61197   6.925   7.630   2.927 -0.2008  0.2778 -0.1713
  454MOL0     C61198   6.921   7.709   2.800  0.0446 -0.9571  0.3419
  454MOL0     C61199   6.845   7.624   2.695  0.0252  0.8594  0.2301
  454MOL0    Cl61200   6.852   7.713   2.534 -0.0849  0.1724 -0.4266
  454MOL0     C61201   7.394   7.347   3.638 -0.0084 -1.6192 -0.0211
  454MOL0     C61202   7.529   7.310   3.673  0.2155 -0.6122 -0.6110
  454MOL0     O61203   7.845   7.563   3.774 -0.5806 -0.5072 -0.3962
  454MOL0     C61204   8.074   7.464   3.857 -0.0768  0.8954 -0.4088
  454MOL0     C61205   8.208   7.431   3.881  0.2144 -0.0590  0.4032
  454MOL0     N61206   8.958   7.441   4.007 -0.8615 -0.5466  0.2943
  454MOL0     N61207   8.994   7.428   4.132 -0.6164  0.0675  0.2111
  454MOL0     C61208   9.992   6.787   3.852 -0.0667 -0.9617 -0.1329
  454MOL0     C61209  10.128   6.759   3.860 -0.2860 -0.3563 -0.8416
  454MOL0     C61210  10.550   6.662   3.949 -0.8531  0.8517  0.0188
  454MOL0     C61211  10.624   6.777   3.967 -0.3959  0.1842 -0.3426
  454MOL0     C61212  10.766   6.766   3.977 -0.2411  0.1386  0.4502
  454MOL0     C61213  10.840   6.641   3.973  0.2048  0.8066 -0.5752
  454MOL0     O61214  10.978   6.652   3.973  0.1916 -0.2747 -0.0848
  454MOL0     C61215  11.058   6.539   3.968 -1.0974  0.0527  0.4032
  454MOL0     C61216  11.069   6.471   3.828  0.6636 -0.4466  0.6555
  454MOL0     C61217  11.182   6.375   3.826 -0.2494 -0.4068  0.3432
  454MOL0     C61218  11.181   6.272   3.711 -0.0835 -0.2222 -0.3016
  454MOL0     C61219  11.294   6.181   3.730 -0.8704  0.0239 -0.2812
  454MOL0     C61220  11.389   6.113   3.751 -0.0906 -1.2547 -0.3153
  454MOL0     C61221  10.761   6.526   3.957 -0.1716 -0.1418  0.4330
  454MOL0     C61222  10.620   6.535   3.935  0.2721  0.5769 -0.0661
  454MOL0     H61223  10.194   6.933   4.140 -2.5532  0.8625 -0.4956
  454MOL0     H61224   9.968   6.980   4.133  0.3544 -2.1840  1.9242
  454MOL0     H61225   9.767   6.886   4.136  3.6842  1.2506 -1.6598
  454MOL0     H61226   9.754   7.047   4.061 -0.0728  0.3191 -2.2931
  454MOL0     H61227   9.545   6.967   3.949  0.8597 -1.1507  0.0885
  454MOL0     H61228   9.533   6.835   4.059 -1.3903  0.9548  0.4942
  454MOL0     H61229   9.555   6.983   4.256  0.9798 -1.0000 -0.3442
  454MOL0     H61230   9.553   7.122   4.142  0.2326 -1.6114 -1.4926
  454MOL0     H61231   9.324   7.042   4.055 -2.8892  1.9193  1.9721
  454MOL0     H61232   9.345   6.906   4.155  1.7859 -0.6835  0.7692
  454MOL0     H61233   9.325   7.055   4.361 -0.5335  1.2510  0.0171
  454MOL0     H61234   9.371   7.181   4.267  3.8907 -2.3057  5.5678
  454MOL0     H61235   9.151   7.173   4.143 -0.8500 -0.3048 -0.7334
  454MOL0     H61236   9.113   7.020   4.221  0.7369 -0.3452  0.7370
  454MOL0     H61237   9.097   7.140   4.442  1.7920  2.6933  2.4600
  454MOL0     H61238   9.158   7.284   4.381 -1.3220 -0.5771  0.4752
  454MOL0     H61239   8.899   7.306   4.381 -0.5885 -0.3897  0.5503
  454MOL0     H61240   8.893   7.158   4.314 -0.0182  0.5818 -0.8674
  454MOL0     H61241   8.845   7.146   4.061  0.1337 -0.1888  0.4761
  454MOL0     H61242   8.849   7.402   3.767  0.2101  1.3419  2.7250
  454MOL0     H61243   8.887   7.230   3.773  0.7715  1.1566 -2.4707
  454MOL0     H61244   8.637   7.369   3.913  1.4087  2.2663 -1.7038
  454MOL0     H61245   8.664   7.195   3.886 -1.8951  0.0309 -1.2055
  454MOL0     H61246   8.648   7.264   3.625 -0.5765 -3.6616  1.2445
  454MOL0     H61247   8.576   7.407   3.691  1.9451  0.6295 -2.1028
  454MOL0     H61248   8.476   7.131   3.790 -1.4845  0.3420  2.9913
  454MOL0     H61249   8.419   7.210   3.649  0.8186  0.0344 -0.9037
  454MOL0     H61250   8.201   7.130   3.712 -1.4127 -0.5601  0.3740
  454MOL0     H61251   7.897   7.220   3.562  0.5197 -3.9719 -2.5160
  454MOL0     H61252   8.017   7.104   3.576  0.0278 -0.8009  0.3888
  454MOL0     H61253   7.891   7.106   3.702  0.3164 -0.9270  0.3795
  454MOL0     H61254   7.669   7.622   3.652  0.1577 -0.0998 -0.4771
  454MOL0     H61255   7.449   7.680   3.601 -0.3183  0.9059 -0.4802
  454MOL0     H61256   7.182   7.707   3.532 -0.0133 -0.6233 -0.7326
  454MOL0     H61257   7.303   7.647   3.423 -0.5873 -0.9719 -1.2238
  454MOL0     H61258   7.141   7.474   3.354  1.6890  1.1822 -1.7731
  454MOL0     H61259   7.017   7.580   3.425  1.7103 -2.0530  2.9953
  454MOL0     H61260   7.214   7.692   3.225 -0.8522 -0.0745 -2.7474
  454MOL0     H61261   7.056   7.758   3.289  1.7620  1.2727 -1.1231
  454MOL0     H61262   7.085   7.515   3.099 -0.0206 -0.0914  0.8818
  454MOL0     H61263   6.936   7.576   3.180  0.4866 -0.4390  0.6448
  454MOL0     H61264   7.120   7.710   2.981 -0.2216 -2.0790 -0.3333
  454MOL0     H61265   6.981   7.784   3.068 -0.2691 -0.8798 -0.5580
  454MOL0     H61266   6.966   7.531   2.905 -1.2777 -0.2127 -0.0384
  454MOL0     H61267   6.828   7.609   2.973 -0.8898  0.6096 -1.4039
  454MOL0     H61268   7.016   7.738   2.754 -0.5467 -1.2238 -1.0850
  454MOL0     H61269   6.880   7.809   2.817 -0.2667 -1.0268  0.0021
  454MOL0     H61270   6.742   7.623   2.732 -0.5108  1.5002 -1.1818
  454MOL0     H61271   6.886   7.524   2.681 -0.4049  0.2516  2.8620
  454MOL0     H61272   7.317   7.274   3.617  0.2949 -1.7561 -0.6580
  454MOL0     H61273   7.553   7.207   3.697 -0.5720  0.3757  6.0748
  454MOL0     H61274   8.043   7.559   3.898  0.5289  0.7498  0.4252
  454MOL0     H61275   8.278   7.494   3.935  0.2525  0.9378 -0.7499
  454MOL0     H61276   9.932   6.761   3.766 -0.0601 -0.7418 -0.2048
  454MOL0     H61277  10.169   6.695   3.782  1.5406 -1.9728  1.3008
  454MOL0     H61278  10.577   6.874   3.972  0.5871  0.6090  1.5609
  454MOL0     H61279  10.818   6.860   3.989 -0.5386  0.1987  1.4145
  454MOL0     H61280  11.156   6.572   4.003 -1.8632  0.1588  2.6509
  454MOL0     H61281  11.023   6.467   4.043 -1.3852  1.2837  1.5188
  454MOL0     H61282  11.100   6.547   3.756  0.0128  0.4807  1.3333
  454MOL0     H61283  10.981   6.422   3.786  3.0951 -2.7823 -2.1974
  454MOL0     H61284  11.169   6.319   3.919  2.4450 -0.8123  0.5472
  454MOL0     H61285  11.282   6.419   3.836  0.2773 -1.2921 -0.8340
  454MOL0     H61286  11.174   6.311   3.609 -0.3378  1.4683  0.3285
  454MOL0     H61287  11.097   6.205   3.729  0.7103 -0.9818  0.6475
  454MOL0     H61288  11.488   6.072   3.750  0.9332  1.0531 -1.6114
  454MOL0     H61289  10.815   6.432   3.951  2.3381  1.0756  2.1601
  454MOL0     H61290  10.570   6.439   3.925  0.2089  0.5460  0.5316
  455MOL0     O61291   7.164   4.599   3.101  0.1344 -0.5750  0.2951
  455MOL0     C61292   7.174   4.685   3.009  0.1923  0.5205  0.8589
  455MOL0     O61293   7.071   4.756   2.957  0.3374 -0.0350  0.3407
  455MOL0     C61294   6.952   4.743   3.021  0.4122  0.7254  0.0436
  455MOL0     C61295   6.922   4.840   3.117 -0.3027  0.3490 -0.0290
  455MOL0     C61296   6.798   4.825   3.183  0.3794 -0.5657 -0.2330
  455MOL0     C61297   6.707   4.720   3.153 -0.9182  0.3247 -0.0815
  455MOL0     O61298   6.598   4.702   3.232 -0.5493  0.9895 -0.0478
  455MOL0     C61299   6.471   4.690   3.164 -0.0812  1.1130 -1.2374
  455MOL0     C61300   6.421   4.825   3.115  0.2812 -0.0302  0.8771
  455MOL0     C61301   6.274   4.803   3.071  0.1069  0.5898 -0.5134
  455MOL0     C61302   6.206   4.940   3.069 -0.4206  0.0005 -0.6975
  455MOL0     C61303   6.059   4.924   3.039 -0.0753  0.2121  0.1399
  455MOL0     C61304   5.981   5.053   3.049 -0.2603 -0.1399 -0.0875
  455MOL0     C61305   5.827   5.017   3.023  0.3145  0.2184  1.0898
  455MOL0     C61306   5.732   5.139   3.026  0.6097 -1.0021  0.4674
  455MOL0     N61307   5.589   5.110   3.009 -0.2783 -0.1215  0.7258
  455MOL0     C61308   5.520   5.118   2.891 -0.6457  0.4736 -0.0629
  455MOL0     C61309   5.399   5.067   2.906 -0.4141  0.1489 -0.5229
  455MOL0     C61310   5.293   5.081   2.810  0.8480  0.2765 -0.6325
  455MOL0     C61311   5.170   4.991   2.845 -1.1579 -0.0041  0.4626
  455MOL0     C61312   5.041   5.003   2.752  0.2256  0.1299  0.3956
  455MOL0     C61313   4.997   5.146   2.711 -0.4350 -1.1173 -0.4532
  455MOL0     O61314   4.869   5.153   2.644  0.0442  0.1425 -0.3023
  455MOL0     C61315   4.765   5.099   2.712 -0.0883  0.1620 -0.2827
  455MOL0     C61316   4.744   5.103   2.846  0.2130 -0.5236  0.4215
  455MOL0     C61317   4.638   5.045   2.912  0.2369  0.1177  0.4582
  455MOL0     C61318   4.627   5.045   3.063 -0.3485 -0.5588  0.2585
  455MOL0     C61319   4.533   4.978   2.835  1.1637 -0.5257  0.2444
  455MOL0     C61320   4.418   4.903   2.903  0.4211 -0.1100  0.1823
  455MOL0     O61321   4.325   4.864   2.818 -0.9569 -0.6106  0.5990
  455MOL0     C61322   4.198   4.812   2.840 -0.4278 -0.9479 -0.1799
  455MOL0     C61323   4.129   4.835   2.954 -0.5941 -0.4875  0.0433
  455MOL0     C61324   3.999   4.776   2.972  0.2053 -0.0080  0.1545
  455MOL0     C61325   3.945   4.678   2.882  0.2016  0.2577  0.2070
  455MOL0     O61326   3.817   4.627   2.897 -0.0854 -0.6736 -0.9433
  455MOL0     C61327   3.741   4.678   3.006 -0.4242 -0.0780  0.1215
  455MOL0     C61328   3.609   4.615   3.017  0.7110 -0.4330 -0.4190
  455MOL0     C61329   3.527   4.682   3.130 -0.4686  0.7817  0.2072
  455MOL0     C61330   3.586   4.645   3.262 -0.6261  0.5861  0.3070
  455MOL0     C61331   3.493   4.690   3.377 -0.2003  0.0250  0.0057
  455MOL0     C61332   3.546   4.656   3.513 -0.0781  0.3052 -0.4832
  455MOL0     C61333   3.473   4.745   3.618 -0.0921 -0.1598 -0.5569
  455MOL0     C61334   3.436   4.681   3.749 -0.3326 -0.7488  0.1440
  455MOL0    Cl61335   3.280   4.575   3.734 -0.2194  0.3742 -0.0014
  455MOL0     C61336   4.013   4.659   2.762 -0.1072 -1.0774  0.1428
  455MOL0     C61337   4.137   4.726   2.744  0.7769  0.2019  0.8835
  455MOL0     O61338   4.419   4.869   3.018  0.0456 -0.8602  0.0011
  455MOL0     C61339   4.545   4.979   2.695 -0.3344 -0.3898 -0.1768
  455MOL0     C61340   4.665   5.037   2.640  0.5434  0.0871 -0.8848
  455MOL0     N61341   5.401   5.011   3.033  0.5504 -0.6183 -0.7354
  455MOL0     N61342   5.513   5.035   3.093 -0.5103  0.7717  0.2403
  455MOL0     C61343   6.737   4.628   3.047 -0.2130  1.2940 -0.0696
  455MOL0     C61344   6.865   4.641   2.981 -0.6248 -0.0163  0.3164
  455MOL0     C61345   7.297   4.703   2.935  0.3324 -0.1103 -0.7271
  455MOL0     C61346   7.414   4.634   2.972 -2.1431 -0.4900 -0.3734
  455MOL0     C61347   7.539   4.665   2.920  0.6419 -0.1901 -1.1146
  455MOL0     C61348   7.558   4.757   2.818  0.6305 -0.8992 -0.2492
  455MOL0     O61349   7.676   4.788   2.753  0.3332  0.8044 -0.2190
  455MOL0     C61350   7.778   4.688   2.771  1.0172 -0.8278  0.7176
  455MOL0     C61351   7.888   4.710   2.669  0.3095  0.3927 -0.4361
  455MOL0     C61352   7.970   4.587   2.645 -0.2757  0.0270  0.2240
  455MOL0     C61353   8.086   4.553   2.750 -0.0917  0.4547  0.4098
  455MOL0     C61354   8.055   4.538   2.894  0.5857 -0.2726  0.8070
  455MOL0     C61355   8.036   4.524   3.015  0.3509  0.4831  0.1411
  455MOL0     C61356   7.441   4.831   2.779 -0.1936  0.5085  0.0237
  455MOL0     C61357   7.318   4.808   2.835 -0.5293  0.0796 -0.2098
  455MOL0     H61358   6.995   4.916   3.144  0.5602  0.1522 -1.6756
  455MOL0     H61359   6.776   4.902   3.257 -2.9553  0.1447 -1.7697
  455MOL0     H61360   6.483   4.622   3.080  5.9915  0.5217 -0.3051
  455MOL0     H61361   6.393   4.649   3.229  1.5310  0.5545  0.4420
  455MOL0     H61362   6.428   4.903   3.192  1.3347 -0.2546  1.0216
  455MOL0     H61363   6.479   4.864   3.031  1.3156 -2.4177  0.4056
  455MOL0     H61364   6.285   4.753   2.975 -0.2372  0.8328 -0.6831
  455MOL0     H61365   6.225   4.734   3.141 -1.5291 -0.8135 -2.9205
  455MOL0     H61366   6.216   4.987   3.167  0.2113  0.6279 -1.0573
  455MOL0     H61367   6.252   5.007   2.996 -3.2848 -1.9235 -4.6471
  455MOL0     H61368   6.058   4.892   2.934  3.1486 -2.0914  0.6600
  455MOL0     H61369   6.021   4.838   3.096 -0.2463 -2.0309 -3.0973
  455MOL0     H61370   5.995   5.098   3.147  0.5042  1.7111 -0.9854
  455MOL0     H61371   6.016   5.123   2.973  0.7307 -1.1059 -0.5603
  455MOL0     H61372   5.823   4.957   2.932  3.1739 -0.2689  1.1932
  455MOL0     H61373   5.798   4.952   3.106 -0.4206 -1.7529 -0.6381
  455MOL0     H61374   5.754   5.221   2.956  0.9927 -2.0446 -0.6696
  455MOL0     H61375   5.734   5.191   3.122  0.1111  1.8998 -0.9606
  455MOL0     H61376   5.562   5.164   2.802  0.4037 -2.1057 -1.0117
  455MOL0     H61377   5.254   5.183   2.803 -0.8026 -0.0481  2.2552
  455MOL0     H61378   5.340   5.042   2.720  2.0673 -2.4273  1.0429
  455MOL0     H61379   5.141   5.013   2.948  2.1846  1.5856  1.2254
  455MOL0     H61380   5.203   4.888   2.856 -0.7038  0.1967  1.0364
  455MOL0     H61381   4.956   4.941   2.781 -0.0405  0.1665 -0.2854
  455MOL0     H61382   5.067   4.967   2.652 -0.5419  0.4322  0.0856
  455MOL0     H61383   5.072   5.185   2.642  0.1748 -0.0485  0.7689
  455MOL0     H61384   4.994   5.216   2.796 -0.8649 -0.8771 -0.6599
  455MOL0     H61385   4.812   5.153   2.915  2.5872 -0.5448 -1.7608
  455MOL0     H61386   4.534   5.089   3.101 -0.9182  0.1171 -1.7800
  455MOL0     H61387   4.636   4.942   3.099  2.7478  0.1252  1.8303
  455MOL0     H61388   4.717   5.093   3.103 -0.9394  0.4298  0.4386
  455MOL0     H61389   4.162   4.903   3.032  0.6611 -0.3699 -0.5785
  455MOL0     H61390   3.948   4.798   3.064  1.4726  2.5876  0.3442
  455MOL0     H61391   3.798   4.667   3.099  0.9587  1.6821 -0.4659
  455MOL0     H61392   3.722   4.784   2.988  2.4137  1.0665  2.8382
  455MOL0     H61393   3.559   4.633   2.921 -1.8285 -0.2878  0.8323
  455MOL0     H61394   3.613   4.508   3.038 -0.4117 -0.1439  1.4134
  455MOL0     H61395   3.422   4.653   3.128  0.2535 -2.1151 -1.6334
  455MOL0     H61396   3.528   4.792   3.123 -3.4043  0.9168  0.6413
  455MOL0     H61397   3.581   4.535   3.262 -0.7049  0.5882 -0.0552
  455MOL0     H61398   3.689   4.680   3.270 -1.3903  3.2097 -0.3254
  455MOL0     H61399   3.385   4.670   3.372 -0.6752  2.4217 -0.7788
  455MOL0     H61400   3.502   4.798   3.367 -1.0040  0.1031  0.0218
  455MOL0     H61401   3.526   4.552   3.539 -0.3419  0.9837  2.3140
  455MOL0     H61402   3.652   4.680   3.513 -0.3830  1.9299  1.4139
  455MOL0     H61403   3.383   4.796   3.583 -0.6923  0.0592  1.2460
  455MOL0     H61404   3.541   4.827   3.642 -2.8143  2.4413 -1.2672
  455MOL0     H61405   3.427   4.760   3.824 -1.3854 -0.0554 -0.6848
  455MOL0     H61406   3.526   4.625   3.775  0.9273  1.5556  1.0886
  455MOL0     H61407   3.976   4.600   2.679  0.8535 -0.3733 -0.8111
  455MOL0     H61408   4.201   4.721   2.657 -0.3081  1.9748 -0.0887
  455MOL0     H61409   4.480   4.920   2.632  0.6176  0.6638 -2.2381
  455MOL0     H61410   4.688   5.034   2.534  2.5468  2.2630 -0.6036
  455MOL0     H61411   6.681   4.537   3.032 -0.3519  1.6629 -2.0991
  455MOL0     H61412   6.888   4.564   2.908 -1.2300  0.9240 -0.9199
  455MOL0     H61413   7.404   4.545   3.034  0.5353  0.3445  1.4375
  455MOL0     H61414   7.626   4.612   2.956  0.7620  1.5028  1.4015
  455MOL0     H61415   7.819   4.702   2.871 -1.4795  2.0833  1.4910
  455MOL0     H61416   7.733   4.590   2.748 -0.9380  0.1737  0.0507
  455MOL0     H61417   7.950   4.792   2.706 -1.0559  1.1610  0.2466
  455MOL0     H61418   7.844   4.730   2.571  4.0556 -1.8397 -2.8041
  455MOL0     H61419   8.014   4.599   2.546 -1.6284 -1.0003 -0.5250
  455MOL0     H61420   7.902   4.502   2.642  1.0403 -1.1819  2.2417
  455MOL0     H61421   8.172   4.619   2.736 -0.5884  1.0675  0.2588
  455MOL0     H61422   8.132   4.457   2.724 -1.0246  0.3700 -1.0824
  455MOL0     H61423   8.022   4.498   3.118 -3.2805  1.9964  0.1752
  455MOL0     H61424   7.463   4.902   2.700 -0.3162  1.1140  0.5214
  455MOL0     H61425   7.242   4.881   2.811  1.6956  4.4452  4.0570
  456MOL0     O61426   0.027   5.104   4.054 -0.7822 -0.3369 -0.2680
  456MOL0     C61427   0.071   5.100   4.169  0.3615 -0.4401  0.6347
  456MOL0     O61428   0.001   5.159   4.278 -0.9537  0.0955  0.4380
  456MOL0     C61429  -0.096   5.255   4.256  1.0049 -0.5983 -0.4996
  456MOL0     C61430  -0.205   5.278   4.348 -0.6099  0.2358 -0.0585
  456MOL0     C61431  -0.301   5.374   4.327 -0.0022  0.3308  0.1035
  456MOL0     C61432  -0.295   5.469   4.226 -0.2447  0.1172 -0.4068
  456MOL0     O61433  -0.388   5.564   4.198 -0.1421 -0.5064 -0.4742
  456MOL0     C61434  -0.491   5.590   4.295 -0.6927  0.6402 -0.7149
  456MOL0     C61435  -0.558   5.716   4.252 -0.7078  0.5939  0.1625
  456MOL0     C61436  -0.693   5.733   4.320 -0.3546 -0.8391  0.0723
  456MOL0     C61437  -0.678   5.818   4.445  0.2897 -0.3812  0.0606
  456MOL0     C61438  -0.807   5.832   4.529 -0.5780 -0.0204  0.2261
  456MOL0     C61439  -0.917   5.912   4.461  0.4137  0.3514 -0.1647
  456MOL0     C61440  -1.020   5.978   4.547 -0.2277  0.2779  0.5939
  456MOL0     C61441  -1.086   5.893   4.653 -0.2137 -0.3810  0.1560
  456MOL0     N61442  -1.220   5.941   4.701  0.3139  0.2336  0.0708
  456MOL0     C61443  -1.262   6.081   4.692 -0.0025 -0.6933  0.0618
  456MOL0     C61444  -1.396   6.076   4.712 -0.2542  0.2510  0.4438
  456MOL0     C61445  -1.498   6.183   4.691  0.5648 -0.2196  0.0662
  456MOL0     C61446  -1.511   6.273   4.820 -0.3343 -0.0721 -0.2978
  456MOL0     C61447  -1.644   6.360   4.808  0.3279  0.0494 -0.0055
  456MOL0     C61448  -1.674   6.434   4.931  0.3980  0.0006 -0.2355
  456MOL0     O61449  -1.704   6.571   4.917  0.4955 -0.4500  0.2313
  456MOL0     C61450  -1.831   6.608   4.874  0.2689  0.0820  0.8324
  456MOL0     C61451  -1.853   6.743   4.860  1.0622  0.5527  0.1825
  456MOL0     C61452  -1.981   6.800   4.837 -0.1926  0.5653  0.1194
  456MOL0     C61453  -1.979   6.949   4.809  0.3864 -1.1085 -0.3893
  456MOL0     C61454  -2.087   6.716   4.805  0.0675 -0.2083  0.1184
  456MOL0     C61455  -2.220   6.774   4.753  0.3802  0.4192 -0.5727
  456MOL0     O61456  -2.271   6.674   4.667  0.1752 -0.0495 -0.4546
  456MOL0     C61457  -2.394   6.702   4.613  0.7549  0.2178  0.9249
  456MOL0     C61458  -2.388   6.737   4.471  0.0094 -0.5037 -0.7630
  456MOL0     C61459  -2.512   6.748   4.404 -0.2124  0.0511  0.5523
  456MOL0     C61460  -2.636   6.752   4.469 -0.0084 -0.2673  0.8443
  456MOL0     O61461  -2.744   6.766   4.385  0.0796 -0.3229  0.3668
  456MOL0     C61462  -2.875   6.762   4.438 -0.0196  0.0600 -1.0887
  456MOL0     C61463  -2.985   6.761   4.331  1.0810 -0.0847 -0.3932
  456MOL0     C61464  -3.124   6.762   4.398  0.0633  0.2889  0.1024
  456MOL0     C61465  -3.236   6.774   4.301  1.5179  0.3472  0.5950
  456MOL0     C61466  -3.375   6.766   4.375 -0.0077 -0.6440 -0.0858
  456MOL0     C61467  -3.480   6.758   4.269 -0.7535 -0.1743 -0.9192
  456MOL0     C61468  -3.616   6.748   4.321  0.7938 -0.5377  0.3039
  456MOL0     C61469  -3.683   6.885   4.345 -0.0362  0.5379  0.0095
  456MOL0    Cl61470  -3.852   6.862   4.396 -0.2251  0.6134 -0.2862
  456MOL0     C61471  -2.641   6.727   4.609  0.0172 -0.2493  0.3752
  456MOL0     C61472  -2.518   6.701   4.680  0.0059  0.6621 -0.0292
  456MOL0     O61473  -2.272   6.884   4.786 -0.4602  0.1356 -0.5366
  456MOL0     C61474  -2.066   6.575   4.812 -0.4533 -0.4302  0.0062
  456MOL0     C61475  -1.942   6.523   4.852  0.0119 -0.1246  0.1958
  456MOL0     N61476  -1.431   5.942   4.724  0.3543 -1.1011 -0.0185
  456MOL0     N61477  -1.327   5.868   4.725 -0.2299 -0.0609  0.0935
  456MOL0     C61478  -0.197   5.444   4.130 -0.4286 -0.1961 -0.1481
  456MOL0     C61479  -0.101   5.343   4.146 -0.7772  0.6877  0.3459
  456MOL0     C61480   0.203   5.038   4.205  0.1921 -1.1837 -0.0061
  456MOL0     C61481   0.280   4.999   4.088  0.7249  0.0439 -0.1149
  456MOL0     C61482   0.409   4.959   4.104  0.0090  0.7279  0.6058
  456MOL0     C61483   0.472   4.951   4.229  0.7828  1.0940 -0.4106
  456MOL0     O61484   0.604   4.921   4.242  0.5766  0.0402 -0.4485
  456MOL0     C61485   0.672   5.020   4.324 -0.5471  0.6341  0.1029
  456MOL0     C61486   0.820   5.015   4.286 -0.2769  0.8297 -0.0254
  456MOL0     C61487   0.895   5.137   4.340 -0.8013 -0.2725  0.0716
  456MOL0     C61488   1.022   5.174   4.273  0.0485 -0.4314 -0.3511
  456MOL0     C61489   1.118   5.242   4.358 -0.8908  0.0564 -0.4536
  456MOL0     C61490   1.209   5.284   4.425 -0.3277 -0.1430 -0.3246
  456MOL0     C61491   0.390   4.977   4.340  0.0429 -0.5322 -0.4723
  456MOL0     C61492   0.259   5.021   4.338  0.5420  0.2803 -0.0340
  456MOL0     H61493  -0.201   5.218   4.439 -3.0109  0.7627  0.4573
  456MOL0     H61494  -0.386   5.361   4.393 -0.9213 -2.6786 -1.4758
  456MOL0     H61495  -0.562   5.507   4.291  0.4690 -0.3873 -0.7257
  456MOL0     H61496  -0.449   5.595   4.396 -1.5064  1.3610 -0.4003
  456MOL0     H61497  -0.493   5.803   4.269 -0.6156  0.4636  0.4884
  456MOL0     H61498  -0.593   5.706   4.149 -1.5182 -0.1210  0.4920
  456MOL0     H61499  -0.756   5.779   4.243  1.2630  1.0303 -0.2127
  456MOL0     H61500  -0.740   5.637   4.344 -0.0031 -2.1232 -3.7436
  456MOL0     H61501  -0.602   5.776   4.512 -0.7540 -0.0934  1.4726
  456MOL0     H61502  -0.650   5.918   4.409 -3.7112  0.6730 -0.5559
  456MOL0     H61503  -0.839   5.727   4.539  1.5570 -0.5103  3.4883
  456MOL0     H61504  -0.781   5.873   4.626 -1.0834 -2.7702  1.6339
  456MOL0     H61505  -0.876   5.982   4.388  1.4569  1.5027  1.4692
  456MOL0     H61506  -0.975   5.836   4.407  2.7096 -0.6800 -1.3277
  456MOL0     H61507  -0.968   6.063   4.592  2.2703 -0.9514  0.2150
  456MOL0     H61508  -1.099   6.008   4.478 -1.4032 -1.6843  0.9979
  456MOL0     H61509  -1.026   5.877   4.743 -0.4689  2.2080  0.8503
  456MOL0     H61510  -1.094   5.791   4.613  3.7668 -0.8244  0.0582
  456MOL0     H61511  -1.195   6.167   4.682  0.5724 -1.2055 -0.6032
  456MOL0     H61512  -1.469   6.252   4.611  0.2812  1.3122  1.2299
  456MOL0     H61513  -1.590   6.128   4.669 -0.3883  1.0436  0.7693
  456MOL0     H61514  -1.424   6.338   4.827  0.4729 -1.1773  0.3217
  456MOL0     H61515  -1.514   6.215   4.913 -0.8590  0.4148  0.0001
  456MOL0     H61516  -1.721   6.283   4.802 -0.3118  0.5227  1.7756
  456MOL0     H61517  -1.652   6.418   4.716 -2.9842  1.7455  1.1957
  456MOL0     H61518  -1.580   6.437   4.987  0.4025  2.3688 -0.2964
  456MOL0     H61519  -1.753   6.388   4.991  1.6396  0.2010  1.6446
  456MOL0     H61520  -1.767   6.808   4.872  2.0324 -0.9877  2.0449
  456MOL0     H61521  -1.984   6.972   4.702  0.8048 -2.1083 -0.6359
  456MOL0     H61522  -2.055   7.005   4.864  2.8775  1.8920  0.2370
  456MOL0     H61523  -1.884   6.992   4.842 -0.4255  0.1706  0.3495
  456MOL0     H61524  -2.297   6.735   4.412 -0.8313 -0.9119 -2.0887
  456MOL0     H61525  -2.511   6.768   4.297  1.4079  2.5588  0.9590
  456MOL0     H61526  -2.882   6.668   4.494  1.7110 -2.0858 -4.1691
  456MOL0     H61527  -2.888   6.850   4.502  1.4339 -0.3679 -0.1488
  456MOL0     H61528  -2.971   6.845   4.262  1.4659 -0.6640 -1.0432
  456MOL0     H61529  -2.964   6.667   4.278  0.2421 -0.3868 -0.2022
  456MOL0     H61530  -3.117   6.838   4.476  2.4515 -2.0213  2.3050
  456MOL0     H61531  -3.131   6.670   4.457  5.4552  0.1473  0.9715
  456MOL0     H61532  -3.223   6.867   4.244 -0.6000  0.2881 -0.0556
  456MOL0     H61533  -3.222   6.696   4.225  1.5833 -0.0132  0.9762
  456MOL0     H61534  -3.389   6.857   4.434 -2.5970 -1.7852  1.2085
  456MOL0     H61535  -3.393   6.683   4.444  1.6333 -0.0406  1.1244
  456MOL0     H61536  -3.468   6.840   4.197  0.3538  0.9376  0.4731
  456MOL0     H61537  -3.465   6.670   4.206  1.9941  0.7305 -1.7075
  456MOL0     H61538  -3.624   6.682   4.408  3.7226 -0.5858  0.6103
  456MOL0     H61539  -3.680   6.699   4.247 -0.4438  0.1084  0.8984
  456MOL0     H61540  -3.684   6.940   4.251 -0.3133 -1.6284 -1.3118
  456MOL0     H61541  -3.618   6.936   4.418  0.6105 -2.1589  1.4438
  456MOL0     H61542  -2.730   6.721   4.670  1.1895 -2.7669  1.9904
  456MOL0     H61543  -2.519   6.668   4.783 -2.8139  0.4618 -0.0507
  456MOL0     H61544  -2.137   6.500   4.780  0.1225 -1.0188  0.0711
  456MOL0     H61545  -1.933   6.415   4.844  1.1410 -0.2146  2.1847
  456MOL0     H61546  -0.191   5.513   4.046 -2.6162  0.9875  0.5779
  456MOL0     H61547  -0.029   5.323   4.067 -1.6289 -0.2549 -0.2276
  456MOL0     H61548   0.250   5.003   3.984  0.4600 -0.9200 -0.0872
  456MOL0     H61549   0.462   4.931   4.013 -0.6939 -0.9176  0.6826
  456MOL0     H61550   0.630   5.121   4.313  1.1956  1.4392  0.5029
  456MOL0     H61551   0.662   5.005   4.432 -0.6893  2.4787  0.3895
  456MOL0     H61552   0.831   5.022   4.178 -2.9035 -0.8562 -0.5161
  456MOL0     H61553   0.855   4.919   4.325  0.0035 -0.2215 -2.6996
  456MOL0     H61554   0.906   5.121   4.448  0.4140  1.6709  0.2838
  456MOL0     H61555   0.839   5.231   4.334  0.7160  0.5513 -1.7780
  456MOL0     H61556   1.000   5.235   4.185 -0.2047  0.1887  0.1393
  456MOL0     H61557   1.067   5.083   4.232  1.6292 -0.2740  0.9268
  456MOL0     H61558   1.297   5.326   4.470 -0.1401 -2.4306  1.6084
  456MOL0     H61559   0.440   4.962   4.436 -1.4013 -0.2406  0.3634
  456MOL0     H61560   0.211   5.054   4.429  1.1341 -0.0004  0.3829
  457MOL0     O61561   8.416   3.095  11.288  0.2121  0.6010 -0.8566
  457MOL0     C61562   8.453   3.179  11.206 -0.6846 -0.0680  0.5056
  457MOL0     O61563   8.404   3.305  11.198 -0.0353 -0.3314 -0.3684
  457MOL0     C61564   8.302   3.335  11.291  0.3905 -0.4034 -0.8525
  457MOL0     C61565   8.182   3.268  11.297 -0.3719 -0.4435  0.1587
  457MOL0     C61566   8.080   3.302  11.382 -0.2139  0.2184 -0.0756
  457MOL0     C61567   8.100   3.405  11.476 -0.2227 -0.2755 -0.6946
  457MOL0     O61568   7.985   3.430  11.543  0.2368 -0.0793  0.0751
  457MOL0     C61569   7.980   3.539  11.628 -0.0738 -0.4247 -0.7205
  457MOL0     C61570   7.848   3.542  11.703 -0.2463 -0.4549 -0.4762
  457MOL0     C61571   7.728   3.558  11.604  0.1788 -0.6865 -0.1225
  457MOL0     C61572   7.609   3.612  11.680  0.3069 -0.3554 -0.7509
  457MOL0     C61573   7.489   3.667  11.601 -0.5896  0.2054 -0.3150
  457MOL0     C61574   7.381   3.722  11.684  0.9510 -0.4071 -0.2564
  457MOL0     C61575   7.246   3.733  11.607 -0.6192 -0.8597  0.1932
  457MOL0     C61576   7.163   3.608  11.656 -0.4727  0.0390 -0.1200
  457MOL0     N61577   7.022   3.620  11.609  0.8615  0.4082  0.5978
  457MOL0     C61578   6.963   3.552  11.505  0.3146 -1.2276  0.0766
  457MOL0     C61579   6.833   3.605  11.500  0.1917 -0.0875 -0.0141
  457MOL0     C61580   6.730   3.571  11.393 -0.6359 -0.3100 -1.1594
  457MOL0     C61581   6.669   3.432  11.409 -0.2223 -0.3748 -0.3857
  457MOL0     C61582   6.569   3.419  11.528 -0.5578 -0.4627  0.3046
  457MOL0     C61583   6.472   3.529  11.542  0.3269  0.6822 -0.6335
  457MOL0     O61584   6.352   3.488  11.606 -0.1696  0.0109 -0.0217
  457MOL0     C61585   6.247   3.573  11.623 -0.0439  0.6589 -0.1348
  457MOL0     C61586   6.131   3.535  11.688  1.5198 -1.0434 -0.3343
  457MOL0     C61587   6.023   3.615  11.715 -0.4777 -0.1327 -0.9465
  457MOL0     C61588   5.918   3.549  11.791  0.2103  0.2874 -1.1240
  457MOL0     C61589   6.030   3.759  11.674  0.2372  0.5760 -0.8451
  457MOL0     C61590   5.919   3.850  11.694 -0.0410 -1.1254  1.1629
  457MOL0     O61591   5.821   3.813  11.782  0.3656  0.2391 -0.2495
  457MOL0     C61592   5.727   3.905  11.836  0.2357 -0.1187  0.1242
  457MOL0     C61593   5.696   4.040  11.808 -1.3168 -0.7119  0.1377
  457MOL0     C61594   5.584   4.103  11.860  0.2506  0.2940 -0.1536
  457MOL0     C61595   5.499   4.052  11.955 -1.1920 -0.3445  0.3251
  457MOL0     O61596   5.398   4.132  12.005  0.7417  0.6775 -0.1573
  457MOL0     C61597   5.286   4.060  12.058  0.0731  0.3992 -0.7857
  457MOL0     C61598   5.311   4.060  12.210 -0.0617  0.2792 -0.0776
  457MOL0     C61599   5.186   4.042  12.303  0.5925 -0.1638  0.3258
  457MOL0     C61600   5.226   3.951  12.426  1.1188 -0.8928 -0.6588
  457MOL0     C61601   5.117   3.952  12.532 -0.0406  0.5310 -0.3837
  457MOL0     C61602   5.017   3.838  12.504  0.9571 -0.5277  0.0800
  457MOL0     C61603   4.879   3.874  12.571  0.3375  0.3496  0.6240
  457MOL0     C61604   4.849   3.811  12.712 -0.2538 -0.1054  0.2416
  457MOL0    Cl61605   4.811   3.631  12.701 -0.3848  0.3941 -0.1358
  457MOL0     C61606   5.525   3.917  11.986  0.5773  0.1817  0.3674
  457MOL0     C61607   5.635   3.844  11.927  0.0546 -0.4943  0.2038
  457MOL0     O61608   5.927   3.957  11.629 -0.1815  0.2961  0.3373
  457MOL0     C61609   6.151   3.803  11.604  0.6450  0.1480  0.1171
  457MOL0     C61610   6.257   3.707  11.587  0.0448  0.7468 -0.4538
  457MOL0     N61611   6.813   3.703  11.596  0.0950 -0.3091 -0.5376
  457MOL0     N61612   6.924   3.705  11.666  0.1554 -0.0556 -0.4401
  457MOL0     C61613   8.220   3.478  11.475 -0.2075  0.4849  1.0388
  457MOL0     C61614   8.321   3.439  11.386 -0.2871 -0.2569  0.0718
  457MOL0     C61615   8.574   3.154  11.125  1.0452  0.2094  0.1583
  457MOL0     C61616   8.672   3.069  11.179  0.2728 -0.4074 -0.1248
  457MOL0     C61617   8.792   3.032  11.115  0.1084  0.1839  0.0724
  457MOL0     C61618   8.801   3.059  10.976  0.0352 -0.6785 -0.3621
  457MOL0     O61619   8.894   3.024  10.886  0.1699  0.5941  0.3715
  457MOL0     C61620   9.015   2.966  10.948 -0.9036 -0.0527  0.4332
  457MOL0     C61621   9.125   2.956  10.841  0.0249  0.1561  0.3782
  457MOL0     C61622   9.252   2.902  10.902  0.2238  0.7013  0.6607
  457MOL0     C61623   9.359   2.898  10.791  0.4805  0.1707 -0.4525
  457MOL0     C61624   9.484   2.862  10.842 -0.6983 -0.3105  0.0093
  457MOL0     C61625   9.597   2.841  10.881 -0.5135  1.1462 -0.3553
  457MOL0     C61626   8.701   3.141  10.924 -0.0083  0.0127  0.5336
  457MOL0     C61627   8.589   3.186  10.992 -0.3143 -0.2898 -0.5948
  457MOL0     H61628   8.180   3.193  11.218 -3.2637 -0.3136 -0.0317
  457MOL0     H61629   7.983   3.253  11.383  0.1859 -1.0365  4.9472
  457MOL0     H61630   8.053   3.552  11.709 -1.9668  1.5033  0.7725
  457MOL0     H61631   7.981   3.635  11.575 -3.0477  0.3582  0.4480
  457MOL0     H61632   7.844   3.446  11.756  2.4661 -0.1549  0.4611
  457MOL0     H61633   7.848   3.617  11.782  0.3362 -0.6936 -0.2369
  457MOL0     H61634   7.745   3.634  11.528 -1.5175  1.1741  1.2637
  457MOL0     H61635   7.704   3.457  11.569  1.1706 -1.2410  0.7388
  457MOL0     H61636   7.570   3.529  11.740  1.5260  0.2187  0.8962
  457MOL0     H61637   7.651   3.681  11.753  2.4707 -1.2554 -1.0884
  457MOL0     H61638   7.522   3.741  11.528 -1.6264  2.4463  1.3811
  457MOL0     H61639   7.453   3.582  11.542  1.1570 -0.7432 -0.0930
  457MOL0     H61640   7.376   3.651  11.767  0.8412 -2.8200 -2.2084
  457MOL0     H61641   7.418   3.821  11.711  1.7297 -0.1884 -1.9787
  457MOL0     H61642   7.195   3.828  11.625 -1.4938 -0.0557 -4.9702
  457MOL0     H61643   7.279   3.731  11.503  1.7336  0.7342  0.8360
  457MOL0     H61644   7.155   3.611  11.765  3.7108 -2.6477  0.4526
  457MOL0     H61645   7.216   3.517  11.629 -0.5619  0.3854 -1.5645
  457MOL0     H61646   7.006   3.480  11.436 -0.4358 -1.7511  0.1433
  457MOL0     H61647   6.653   3.648  11.385 -3.7086 -2.9080  1.1541
  457MOL0     H61648   6.783   3.573  11.297  1.9970 -4.2249 -0.0531
  457MOL0     H61649   6.746   3.354  11.414 -0.6152 -0.7197  0.6754
  457MOL0     H61650   6.608   3.416  11.320 -0.3303  0.9143 -0.5651
  457MOL0     H61651   6.627   3.410  11.621  2.1996  1.5680 -1.0651
  457MOL0     H61652   6.520   3.323  11.508 -0.0399 -0.7154  0.2263
  457MOL0     H61653   6.441   3.564  11.443 -3.1856  1.0232  0.4409
  457MOL0     H61654   6.515   3.600  11.613 -0.3928 -0.2138  0.7301
  457MOL0     H61655   6.126   3.432  11.723  1.1101 -1.4880 -1.6390
  457MOL0     H61656   5.821   3.552  11.740  0.8680 -3.1411 -2.8660
  457MOL0     H61657   5.919   3.440  11.800 -1.4429  0.4195  2.6122
  457MOL0     H61658   5.913   3.597  11.889 -1.6103 -1.8614 -0.0817
  457MOL0     H61659   5.755   4.089  11.731 -0.5558  1.6536  2.0955
  457MOL0     H61660   5.570   4.210  11.850  0.1733  0.6498  2.9502
  457MOL0     H61661   5.197   4.118  12.033 -1.7779 -0.8938  2.2306
  457MOL0     H61662   5.270   3.962  12.014 -4.0848 -0.3928  1.9408
  457MOL0     H61663   5.383   3.980  12.231 -0.0965  0.2488 -0.0728
  457MOL0     H61664   5.352   4.159  12.232 -0.1766  0.3311 -0.0983
  457MOL0     H61665   5.104   4.003  12.242 -1.5550  1.0062  2.2945
  457MOL0     H61666   5.144   4.134  12.347  0.3056 -1.0450  1.9796
  457MOL0     H61667   5.260   3.850  12.400  2.6260 -0.3830 -0.7414
  457MOL0     H61668   5.312   3.992  12.480 -0.2051 -0.6249  1.3496
  457MOL0     H61669   5.070   4.051  12.539 -1.6847 -0.3336  1.5884
  457MOL0     H61670   5.175   3.915  12.617  0.0159 -1.8160 -1.3620
  457MOL0     H61671   4.998   3.852  12.397 -0.6701  0.8906  0.4960
  457MOL0     H61672   5.055   3.740  12.535  1.7393  0.0212  0.9049
  457MOL0     H61673   4.794   3.855  12.505 -0.3392  1.7924  1.0365
  457MOL0     H61674   4.881   3.981  12.593  3.1676  0.6033 -0.4688
  457MOL0     H61675   4.748   3.843  12.740 -0.9230 -1.5399 -0.4405
  457MOL0     H61676   4.919   3.839  12.792  3.5019 -2.3408 -1.9483
  457MOL0     H61677   5.457   3.870  12.056 -2.5957 -0.4535 -2.8241
  457MOL0     H61678   5.638   3.738  11.951 -2.4599 -0.5734  0.4892
  457MOL0     H61679   6.165   3.903  11.565  1.9626 -0.3829 -0.8700
  457MOL0     H61680   6.352   3.753  11.561  1.0086 -0.5733  0.6104
  457MOL0     H61681   8.233   3.562  11.542  2.1690 -1.0497  2.6225
  457MOL0     H61682   8.416   3.491  11.384  0.7502 -1.9519  1.6171
  457MOL0     H61683   8.658   3.031  11.280 -1.3861 -1.0297 -0.5660
  457MOL0     H61684   8.854   2.962  11.169 -1.7318 -3.5550 -2.2840
  457MOL0     H61685   9.051   3.017  11.038  1.9826  0.1976 -0.7549
  457MOL0     H61686   8.991   2.866  10.985  2.1937 -0.1115  2.6620
  457MOL0     H61687   9.145   3.050  10.788  2.2287  0.6497  1.9360
  457MOL0     H61688   9.078   2.891  10.767 -0.5844 -0.1530  1.0300
  457MOL0     H61689   9.230   2.802  10.940 -2.0419 -0.6901 -3.5802
  457MOL0     H61690   9.278   2.962  10.989  2.5785  0.6893  0.0523
  457MOL0     H61691   9.368   2.994  10.739 -1.2098  1.1634  0.9801
  457MOL0     H61692   9.330   2.824  10.715  0.4253 -0.1698 -0.1015
  457MOL0     H61693   9.695   2.832  10.925 -1.2197 -4.0971  0.8112
  457MOL0     H61694   8.694   3.156  10.816  0.5149 -0.9572  0.3599
  457MOL0     H61695   8.521   3.259  10.948 -0.4909  1.9433  2.9558
  458MOL0     O61696   6.334   1.216   8.179 -0.0511 -0.3329 -0.7566
  458MOL0     C61697   6.417   1.294   8.142  0.2191  0.5011  0.4882
  458MOL0     O61698   6.383   1.430   8.104  0.2207  0.7699  0.4502
  458MOL0     C61699   6.253   1.478   8.097  0.0257 -1.0707 -0.4300
  458MOL0     C61700   6.208   1.548   7.984  0.8735 -0.3892  0.4600
  458MOL0     C61701   6.076   1.599   7.987 -0.2818  0.0319 -0.3436
  458MOL0     C61702   5.992   1.582   8.098 -0.1002  0.0578 -0.0618
  458MOL0     O61703   5.866   1.625   8.109 -0.6800 -0.1952  0.7199
  458MOL0     C61704   5.851   1.754   8.185  0.3125  0.0378  0.4959
  458MOL0     C61705   5.710   1.819   8.176  0.0398  0.8818 -0.2866
  458MOL0     C61706   5.645   1.820   8.040  0.1966 -0.1839 -0.0362
  458MOL0     C61707   5.512   1.901   8.039 -0.2697  0.6252 -0.2435
  458MOL0     C61708   5.416   1.845   8.140  0.9875  0.5068 -0.1727
  458MOL0     C61709   5.290   1.927   8.121  0.5357  0.1337  0.0420
  458MOL0     C61710   5.170   1.853   8.190  0.2923  0.6677 -0.3138
  458MOL0     C61711   5.042   1.942   8.200  0.1660 -0.2553 -0.1893
  458MOL0     N61712   4.912   1.876   8.245 -0.0707 -0.2612 -0.0771
  458MOL0     C61713   4.869   1.882   8.377  0.0069  0.4320 -0.1449
  458MOL0     C61714   4.753   1.819   8.380 -0.6783  0.1892  0.6731
  458MOL0     C61715   4.667   1.795   8.500  0.2240 -0.1767 -0.1989
  458MOL0     C61716   4.719   1.681   8.590 -0.6801 -0.4967 -0.0941
  458MOL0     C61717   4.641   1.682   8.724  0.0321 -0.3543 -0.2228
  458MOL0     C61718   4.690   1.594   8.830 -0.0585  0.0016 -0.3068
  458MOL0     O61719   4.721   1.668   8.951  0.2557 -0.1602  0.2556
  458MOL0     C61720   4.750   1.594   9.061 -0.0191  0.4734  0.0051
  458MOL0     C61721   4.866   1.512   9.082  0.0871 -0.6859 -0.0624
  458MOL0     C61722   4.877   1.431   9.200 -0.3926 -0.2261 -0.1897
  458MOL0     C61723   4.998   1.343   9.229  0.5657  0.1719 -0.1996
  458MOL0     C61724   4.779   1.436   9.297  0.3376  0.2735 -0.0544
  458MOL0     C61725   4.775   1.361   9.415 -0.0796  0.1424 -0.9698
  458MOL0     O61726   4.733   1.422   9.521  0.2499 -0.5206 -0.9322
  458MOL0     C61727   4.645   1.356   9.604  0.3777  0.2471 -0.0971
  458MOL0     C61728   4.515   1.403   9.595 -0.9953 -0.3532 -0.6299
  458MOL0     C61729   4.421   1.347   9.687  0.6052  1.0445 -0.6692
  458MOL0     C61730   4.456   1.252   9.788 -0.9102 -0.3300  0.0226
  458MOL0     O61731   4.360   1.192   9.863  0.2592  0.9723 -0.4323
  458MOL0     C61732   4.232   1.253   9.869 -0.4191  0.6378  0.0722
  458MOL0     C61733   4.147   1.198   9.982  0.1175 -0.5930 -0.2781
  458MOL0     C61734   4.021   1.282  10.003 -0.1419 -0.4803  0.0458
  458MOL0     C61735   3.900   1.243   9.916 -0.5534  0.2806 -0.4195
  458MOL0     C61736   3.769   1.283   9.984  0.7102  0.2905 -0.3108
  458MOL0     C61737   3.642   1.276   9.900 -0.3467  0.1406 -0.5949
  458MOL0     C61738   3.509   1.291   9.978 -0.0614 -0.5682  0.5935
  458MOL0     C61739   3.384   1.275   9.876 -0.3256  0.5771 -0.7235
  458MOL0    Cl61740   3.355   1.426   9.790 -0.0773  0.1180 -0.4300
  458MOL0     C61741   4.592   1.228   9.794  1.1655  0.4554  0.3383
  458MOL0     C61742   4.686   1.270   9.704  1.3162  0.9045 -0.3930
  458MOL0     O61743   4.792   1.240   9.409  0.4642 -0.4930  0.2186
  458MOL0     C61744   4.670   1.512   9.266  0.9652  0.4403 -0.3095
  458MOL0     C61745   4.658   1.594   9.166 -0.4475  0.3427 -0.2392
  458MOL0     N61746   4.730   1.768   8.253 -0.0929  0.2460 -0.1857
  458MOL0     N61747   4.819   1.805   8.172  0.0398 -0.1726 -1.0239
  458MOL0     C61748   6.040   1.509   8.209  0.1487 -0.5461 -0.3391
  458MOL0     C61749   6.166   1.465   8.215 -0.5039  0.6590  0.2805
  458MOL0     C61750   6.555   1.246   8.151 -0.2292 -0.1523  0.4742
  458MOL0     C61751   6.664   1.318   8.080 -0.4044  1.2894  0.2815
  458MOL0     C61752   6.798   1.265   8.098  0.6117 -0.4266  0.9199
  458MOL0     C61753   6.816   1.143   8.166 -0.1544  0.4095  0.1615
  458MOL0     O61754   6.943   1.096   8.169  0.9927 -0.4345  0.3708
  458MOL0     C61755   6.970   0.963   8.115 -0.0374 -0.3415 -0.1218
  458MOL0     C61756   7.118   0.952   8.093 -0.7418 -0.6442 -0.5122
  458MOL0     C61757   7.194   1.040   7.996 -0.0741 -0.1442  0.2179
  458MOL0     C61758   7.224   0.983   7.862 -0.2956  0.3359 -0.1347
  458MOL0     C61759   7.103   0.933   7.796  0.2326 -0.4089 -0.8711
  458MOL0     C61760   7.001   0.892   7.741 -0.3072  0.6724 -0.7356
  458MOL0     C61761   6.714   1.075   8.223  0.3871  0.1952 -0.0750
  458MOL0     C61762   6.580   1.123   8.221 -0.9143  0.2123 -0.8451
  458MOL0     H61763   6.278   1.553   7.901 -0.8322 -1.1992 -1.0839
  458MOL0     H61764   6.041   1.661   7.905 -0.9865  1.0075  0.6638
  458MOL0     H61765   5.870   1.736   8.292  2.6141  0.8644  0.2672
  458MOL0     H61766   5.911   1.829   8.134 -1.3739  0.0197 -1.6691
  458MOL0     H61767   5.648   1.761   8.245 -0.0759 -2.6227 -3.0718
  458MOL0     H61768   5.717   1.921   8.215  2.3021  0.5118  0.3994
  458MOL0     H61769   5.718   1.861   7.970  0.2199 -0.0249  0.0811
  458MOL0     H61770   5.621   1.715   8.022  0.1941 -0.1698 -0.1189
  458MOL0     H61771   5.534   2.005   8.063 -1.3447  0.6640  0.6548
  458MOL0     H61772   5.464   1.903   7.941 -1.0538  1.5183  0.1435
  458MOL0     H61773   5.406   1.736   8.131  1.6668  0.2829  1.3378
  458MOL0     H61774   5.456   1.866   8.240  0.8633 -0.7398  0.1511
  458MOL0     H61775   5.310   2.022   8.171 -1.7583  0.1856  1.0157
  458MOL0     H61776   5.271   1.939   8.014  0.1662  2.1934  0.2901
  458MOL0     H61777   5.144   1.768   8.125 -1.4951  2.2907 -1.8764
  458MOL0     H61778   5.194   1.808   8.286 -1.2444  1.4639  0.4864
  458MOL0     H61779   5.033   1.994   8.104  0.1857  1.3219  0.6355
  458MOL0     H61780   5.070   2.026   8.264  1.0188 -0.7894  0.1568
  458MOL0     H61781   4.928   1.932   8.453  1.0274  2.6384 -2.2294
  458MOL0     H61782   4.667   1.888   8.557  1.2239  0.2110 -0.8122
  458MOL0     H61783   4.563   1.776   8.470 -0.1122 -1.4348  1.5623
  458MOL0     H61784   4.825   1.705   8.604 -0.8626  0.2154  0.1040
  458MOL0     H61785   4.702   1.584   8.543 -1.0428 -1.1786  1.3834
  458MOL0     H61786   4.532   1.679   8.720 -0.0644 -0.4300  1.5823
  458MOL0     H61787   4.662   1.784   8.755  3.5385  0.2474 -3.7685
  458MOL0     H61788   4.788   1.556   8.800 -0.8716 -1.9103 -0.7164
  458MOL0     H61789   4.621   1.511   8.851 -0.3745 -0.1182 -1.7408
  458MOL0     H61790   4.940   1.511   9.003 -1.0136  0.7286 -1.1709
  458MOL0     H61791   5.072   1.351   9.150  1.6304  1.1677  0.8494
  458MOL0     H61792   5.046   1.362   9.326  0.3041 -1.5945  0.3079
  458MOL0     H61793   4.963   1.240   9.229 -0.4422  0.4844  0.6659
  458MOL0     H61794   4.486   1.474   9.518 -1.9580  0.0145  0.0385
  458MOL0     H61795   4.318   1.375   9.666  0.5013  1.0929 -0.0960
  458MOL0     H61796   4.246   1.362   9.866  0.5954  0.5747 -4.2000
  458MOL0     H61797   4.185   1.224   9.775 -0.9589 -0.2276  0.6003
  458MOL0     H61798   4.117   1.094   9.966 -1.6840 -0.0153 -0.9154
  458MOL0     H61799   4.211   1.202  10.071 -0.0794 -1.4121 -0.0949
  458MOL0     H61800   4.039   1.389   9.984  1.3286 -0.4388  1.4827
  458MOL0     H61801   3.993   1.277  10.108  1.0024 -0.8646  0.3433
  458MOL0     H61802   3.915   1.296   9.821  0.0406  1.3406  0.2422
  458MOL0     H61803   3.908   1.136   9.894  3.6775  0.8038 -2.5417
  458MOL0     H61804   3.785   1.381  10.030 -3.0029  1.3220 -0.8633
  458MOL0     H61805   3.750   1.215  10.068 -1.8898  1.2379 -0.0506
  458MOL0     H61806   3.652   1.359   9.830  0.1051  1.2608  0.7653
  458MOL0     H61807   3.647   1.178   9.851 -0.7889  1.0444 -2.5626
  458MOL0     H61808   3.493   1.393  10.015 -2.6380 -0.9166  0.5793
  458MOL0     H61809   3.491   1.220  10.058  2.2077  1.0624  2.7169
  458MOL0     H61810   3.293   1.241   9.925  0.2193 -1.1146 -0.8341
  458MOL0     H61811   3.407   1.194   9.806 -0.8450  0.5477 -0.8652
  458MOL0     H61812   4.611   1.161   9.878 -4.3156 -0.6200  1.0757
  458MOL0     H61813   4.791   1.251   9.723  1.4692  1.0461 -1.0949
  458MOL0     H61814   4.581   1.496   9.325  0.1945  1.2103 -1.2397
  458MOL0     H61815   4.568   1.655   9.162 -1.2570 -0.4844  2.6256
  458MOL0     H61816   5.989   1.504   8.304  2.1949  0.1670  0.8782
  458MOL0     H61817   6.211   1.427   8.306 -0.2108 -1.9265 -0.8745
  458MOL0     H61818   6.650   1.408   8.021 -0.2562  0.8804 -0.3834
  458MOL0     H61819   6.882   1.317   8.054 -0.8003  2.0427  0.9333
  458MOL0     H61820   6.938   0.891   8.191 -1.9582  0.8430  0.2613
  458MOL0     H61821   6.922   0.956   8.017  2.0070  1.5158 -1.3380
  458MOL0     H61822   7.148   0.847   8.080 -0.5694 -1.1373  2.9431
  458MOL0     H61823   7.164   0.973   8.189  0.4499 -1.2876 -0.9072
  458MOL0     H61824   7.288   1.077   8.038  0.9817  1.0194 -2.8988
  458MOL0     H61825   7.134   1.128   7.969  1.3863 -0.0650 -3.4026
  458MOL0     H61826   7.303   0.909   7.876  0.2050  0.0364 -3.6270
  458MOL0     H61827   7.262   1.063   7.798 -0.1986  0.0934 -0.3804
  458MOL0     H61828   6.904   0.866   7.703 -0.2301 -0.7294 -0.0229
  458MOL0     H61829   6.742   0.991   8.285 -0.0644 -0.6287 -0.9522
  458MOL0     H61830   6.498   1.068   8.267  1.8411 -1.5125  2.4761
  459MOL0     O61831  10.831   5.805   3.165 -0.1184  0.2698  0.2311
  459MOL0     C61832  10.838   5.700   3.229 -0.2610  0.5160  0.0134
  459MOL0     O61833  10.739   5.636   3.291 -0.1890 -0.3333 -0.1930
  459MOL0     C61834  10.622   5.700   3.308  0.4923 -0.0824  0.6176
  459MOL0     C61835  10.613   5.822   3.386  0.6089 -0.6279 -0.5948
  459MOL0     C61836  10.488   5.884   3.420  0.2958  0.4920  0.9845
  459MOL0     C61837  10.364   5.834   3.376  0.1118  0.2265  0.9189
  459MOL0     O61838  10.251   5.883   3.430  0.2634 -0.4818 -0.5075
  459MOL0     C61839  10.127   5.826   3.407 -0.4151 -0.7899  0.3113
  459MOL0     C61840  10.061   5.863   3.272  0.0956  0.1430  0.6236
  459MOL0     C61841   9.944   5.770   3.240 -0.7590 -0.2554  0.4098
  459MOL0     C61842   9.842   5.828   3.141 -0.7125  0.1938  0.9749
  459MOL0     C61843   9.743   5.720   3.095  0.1749 -0.0382 -0.1440
  459MOL0     C61844   9.634   5.761   3.004  0.2555  0.1703 -0.3925
  459MOL0     C61845   9.528   5.847   3.081 -0.2651  0.3189 -0.5861
  459MOL0     C61846   9.388   5.849   3.028 -0.1104  0.2415 -0.0816
  459MOL0     N61847   9.297   5.959   3.075 -0.8752 -0.2959 -0.0789
  459MOL0     C61848   9.177   5.987   3.018  0.2919  0.4156  0.3978
  459MOL0     C61849   9.120   6.073   3.106  0.8248 -0.1407 -0.9187
  459MOL0     C61850   9.008   6.171   3.076 -0.0402  0.3992  0.3697
  459MOL0     C61851   9.049   6.314   3.096 -0.2942  0.7746 -0.0073
  459MOL0     C61852   8.931   6.400   3.058 -0.3389  0.2704  0.1716
  459MOL0     C61853   8.925   6.540   3.104  0.0187  0.0208 -0.5965
  459MOL0     O61854   8.834   6.614   3.023  0.3498  0.4816  0.0626
  459MOL0     C61855   8.737   6.685   3.075 -0.3162 -0.1803 -0.6587
  459MOL0     C61856   8.676   6.656   3.202  0.5888  0.1757  0.0801
  459MOL0     C61857   8.570   6.724   3.251 -0.0748 -0.1797 -0.4248
  459MOL0     C61858   8.500   6.673   3.379 -0.3190 -0.2996 -0.4001
  459MOL0     C61859   8.515   6.836   3.182 -0.0565  0.8801  0.0398
  459MOL0     C61860   8.393   6.909   3.205  0.4731 -0.1628 -0.0127
  459MOL0     O61861   8.332   6.973   3.104 -0.3156  0.2767  0.4949
  459MOL0     C61862   8.209   7.026   3.136 -0.2747  0.1620 -0.5523
  459MOL0     C61863   8.190   7.167   3.131  0.4144 -0.0325 -0.4014
  459MOL0     C61864   8.068   7.215   3.148 -0.3659 -0.3201 -0.5622
  459MOL0     C61865   7.960   7.134   3.183  0.1566  0.2428 -0.1819
  459MOL0     O61866   7.848   7.207   3.225  0.6758  0.3116  0.3104
  459MOL0     C61867   7.733   7.132   3.278 -0.7947  0.4817 -0.6681
  459MOL0     C61868   7.626   7.214   3.346 -1.0066 -0.0242  0.6242
  459MOL0     C61869   7.531   7.285   3.261  0.3830  0.5412  0.0249
  459MOL0     C61870   7.431   7.178   3.203  0.7003 -0.4519 -0.1763
  459MOL0     C61871   7.349   7.259   3.111 -0.1944 -0.0799  0.6117
  459MOL0     C61872   7.231   7.164   3.069 -0.0801  0.1564  0.3355
  459MOL0     C61873   7.124   7.227   2.975  0.9062 -0.4329  0.6194
  459MOL0     C61874   6.990   7.142   2.966  1.2652  0.2725  0.2910
  459MOL0    Cl61875   6.866   7.249   2.897 -0.2103 -0.2809 -0.5407
  459MOL0     C61876   7.975   6.993   3.199 -0.5450  0.0766  0.3662
  459MOL0     C61877   8.101   6.936   3.160 -0.6904  0.6441  0.0104
  459MOL0     O61878   8.361   6.923   3.327 -0.3592  0.2297 -0.0230
  459MOL0     C61879   8.581   6.869   3.056  0.6142 -0.7916  0.1139
  459MOL0     C61880   8.693   6.789   3.009  0.4246  0.2265 -0.0719
  459MOL0     N61881   9.197   6.087   3.226 -0.6425  0.6126 -0.2891
  459MOL0     N61882   9.298   6.004   3.207  0.0267 -0.1965  0.3551
  459MOL0     C61883  10.379   5.719   3.294  0.3605 -0.1333 -0.5244
  459MOL0     C61884  10.496   5.649   3.265  0.5174 -0.0830 -0.2971
  459MOL0     C61885  10.969   5.631   3.228 -0.3985  0.8567  0.1757
  459MOL0     C61886  11.070   5.665   3.130 -0.7327 -0.7765 -1.0019
  459MOL0     C61887  11.185   5.589   3.126 -0.1236  0.7962 -0.4577
  459MOL0     C61888  11.202   5.486   3.218  0.7335  0.4093  0.3238
  459MOL0     O61889  11.308   5.408   3.185  0.3416  0.6763  0.5124
  459MOL0     C61890  11.363   5.318   3.267 -0.3575  1.2269 -0.1440
  459MOL0     C61891  11.511   5.300   3.232 -0.1923 -0.1351  0.2951
  459MOL0     C61892  11.592   5.425   3.250 -0.6739 -0.1135  0.7557
  459MOL0     C61893  11.739   5.416   3.225  0.3252  0.1099 -0.0246
  459MOL0     C61894  11.806   5.548   3.237 -0.3101  0.8653  0.2202
  459MOL0     C61895  11.867   5.651   3.248 -0.0146 -0.8430 -0.0978
  459MOL0     C61896  11.104   5.449   3.310 -0.3232 -0.0368 -1.0974
  459MOL0     C61897  10.988   5.528   3.317  0.7919 -0.2700 -0.4803
  459MOL0     H61898  10.693   5.852   3.453  0.0694 -2.1223  0.8053
  459MOL0     H61899  10.484   5.968   3.488  0.0373  2.8058 -1.6982
  459MOL0     H61900  10.122   5.717   3.415  1.3047 -0.8003  2.5069
  459MOL0     H61901  10.066   5.869   3.487  0.8950  2.3925 -0.2715
  459MOL0     H61902  10.027   5.967   3.275 -0.8226  0.0597 -2.8365
  459MOL0     H61903  10.139   5.865   3.196 -0.0648  3.4173  0.4060
  459MOL0     H61904   9.983   5.682   3.187 -3.7227 -0.9973 -0.7629
  459MOL0     H61905   9.887   5.742   3.329 -3.2362  0.9115 -0.7161
  459MOL0     H61906   9.786   5.913   3.182 -0.8921 -0.0612  1.2633
  459MOL0     H61907   9.889   5.860   3.048 -2.4691  1.5493  0.4988
  459MOL0     H61908   9.787   5.632   3.046  0.7269 -0.0820  0.4120
  459MOL0     H61909   9.702   5.682   3.189 -1.0487  1.8605  0.1352
  459MOL0     H61910   9.661   5.819   2.915 -4.7219  2.2254 -0.8754
  459MOL0     H61911   9.583   5.675   2.960  0.7816  0.6684 -2.0601
  459MOL0     H61912   9.511   5.795   3.175 -1.0186  0.5940 -0.5653
  459MOL0     H61913   9.563   5.949   3.098  1.0487  0.1079 -1.7798
  459MOL0     H61914   9.329   5.758   3.043  0.6071 -0.2919 -0.4326
  459MOL0     H61915   9.399   5.865   2.920  0.0240 -4.3981 -0.9711
  459MOL0     H61916   9.143   5.968   2.916  1.7911  2.7306 -0.6052
  459MOL0     H61917   8.971   6.163   2.973  0.7923  3.1707 -0.2181
  459MOL0     H61918   8.929   6.155   3.150 -1.0993  1.8871 -0.3903
  459MOL0     H61919   9.136   6.352   3.041  2.0686 -0.7863  2.4415
  459MOL0     H61920   9.081   6.320   3.200  1.3950 -0.7118 -0.4010
  459MOL0     H61921   8.836   6.348   3.075  0.4320 -1.1819  0.1754
  459MOL0     H61922   8.942   6.405   2.949  1.1034  0.3198  0.2957
  459MOL0     H61923   9.026   6.575   3.080 -0.2541  2.6895  1.6790
  459MOL0     H61924   8.908   6.539   3.212 -0.5164 -3.7908 -0.5713
  459MOL0     H61925   8.702   6.567   3.259 -2.4778 -0.7825  0.1356
  459MOL0     H61926   8.393   6.662   3.358 -0.6619 -3.0521  2.1057
  459MOL0     H61927   8.520   6.576   3.425 -3.2592 -0.6113  0.4150
  459MOL0     H61928   8.512   6.736   3.467  1.4629 -1.0166 -0.0778
  459MOL0     H61929   8.270   7.231   3.094  0.6130 -0.4817 -0.7561
  459MOL0     H61930   8.057   7.323   3.148  0.8985 -0.0484  3.1977
  459MOL0     H61931   7.692   7.083   3.189  1.7437 -0.2163 -1.5401
  459MOL0     H61932   7.770   7.051   3.342  2.5202  0.7605 -2.0449
  459MOL0     H61933   7.575   7.141   3.411 -0.5594 -0.3002  0.6741
  459MOL0     H61934   7.682   7.283   3.409  2.2302 -1.5251 -0.3996
  459MOL0     H61935   7.575   7.338   3.176 -2.2521 -1.7570 -3.0372
  459MOL0     H61936   7.476   7.351   3.329  1.7776  1.2939  0.4501
  459MOL0     H61937   7.477   7.097   3.145  1.2114  0.1687 -0.6521
  459MOL0     H61938   7.380   7.136   3.290  2.1465  0.3276  1.1123
  459MOL0     H61939   7.414   7.279   3.025  0.2371 -0.5397  0.8231
  459MOL0     H61940   7.305   7.353   3.145 -2.3592 -1.5072  1.9922
  459MOL0     H61941   7.278   7.083   3.012  3.7471  1.4343  1.3964
  459MOL0     H61942   7.183   7.121   3.158  1.8639 -1.3594  0.7373
  459MOL0     H61943   7.174   7.228   2.878  1.3392 -1.1463  0.8320
  459MOL0     H61944   7.105   7.332   2.999  0.3418 -0.6985  1.4056
  459MOL0     H61945   6.958   7.103   3.063 -1.0926  0.6456 -0.2748
  459MOL0     H61946   6.991   7.053   2.901  1.1967  1.5835 -1.5972
  459MOL0     H61947   7.894   6.923   3.219  1.6405 -3.8621 -3.0062
  459MOL0     H61948   8.118   6.831   3.140  1.4455  1.0664 -0.6103
  459MOL0     H61949   8.558   6.963   3.008  1.7734 -0.5126  0.0772
  459MOL0     H61950   8.736   6.812   2.912  0.2244 -2.0498 -0.7688
  459MOL0     H61951  10.291   5.667   3.258 -0.5217  2.4092 -2.4018
  459MOL0     H61952  10.489   5.556   3.210 -0.5472 -0.8853  1.1369
  459MOL0     H61953  11.065   5.745   3.058 -1.1258 -1.0816 -1.3209
  459MOL0     H61954  11.256   5.609   3.047  1.8888 -0.2791  0.9770
  459MOL0     H61955  11.359   5.363   3.367 -0.1482  3.0853 -0.9481
  459MOL0     H61956  11.321   5.217   3.260 -0.9711  1.5713 -2.0458
  459MOL0     H61957  11.511   5.261   3.129  3.8266  0.1887  0.0140
  459MOL0     H61958  11.558   5.226   3.297  1.1844  1.7731  1.5670
  459MOL0     H61959  11.577   5.470   3.349  3.2753  4.4683 -0.3198
  459MOL0     H61960  11.555   5.499   3.178  3.5376  1.9997  0.4746
  459MOL0     H61961  11.746   5.396   3.117 -0.6420 -2.8703  0.3696
  459MOL0     H61962  11.780   5.332   3.280 -1.7309 -0.5237  0.6487
  459MOL0     H61963  11.910   5.749   3.248 -1.7273  0.0442 -3.3405
  459MOL0     H61964  11.106   5.368   3.381  0.3886  1.5914  0.8222
  459MOL0     H61965  10.901   5.506   3.377  0.0257  1.9501 -0.7034
  460MOL0     O61966   8.382   6.979  11.049  1.0013  0.2434 -0.3073
  460MOL0     C61967   8.368   7.040  10.952 -0.6258 -0.0034  1.2918
  460MOL0     O61968   8.258   7.041  10.874 -0.3716 -0.0076  0.1571
  460MOL0     C61969   8.136   6.986  10.912  0.5054 -0.5027  0.1844
  460MOL0     C61970   8.103   6.916  11.029 -0.4762  0.3870  0.9610
  460MOL0     C61971   7.964   6.887  11.054  0.6103  0.2947  0.1808
  460MOL0     C61972   7.867   6.922  10.961  0.4485  0.1723 -0.0968
  460MOL0     O61973   7.730   6.920  10.979  0.3762  0.6652 -0.4560
  460MOL0     C61974   7.679   6.914  11.107  0.0414 -0.2120  0.4186
  460MOL0     C61975   7.523   6.897  11.095 -0.7114  0.6598 -1.2252
  460MOL0     C61976   7.452   7.036  11.072  1.3126  0.4764 -0.4950
  460MOL0     C61977   7.306   7.010  11.030 -0.1233 -0.1210  0.1311
  460MOL0     C61978   7.227   7.129  10.996  1.3286 -0.1840  0.3748
  460MOL0     C61979   7.113   7.082  10.908  0.0792  0.2515  0.3849
  460MOL0     C61980   7.014   7.201  10.895 -0.0204  0.4266 -0.2097
  460MOL0     C61981   6.918   7.192  10.778 -0.8728  0.2608 -0.0434
  460MOL0     N61982   6.823   7.306  10.765  0.0803 -0.5021 -0.0586
  460MOL0     C61983   6.807   7.413  10.848  0.3258 -0.7513  0.5213
  460MOL0     C61984   6.722   7.503  10.787  0.4133  0.5205  0.3598
  460MOL0     C61985   6.664   7.631  10.852  0.6407 -0.4306  0.5517
  460MOL0     C61986   6.568   7.705  10.752  0.0315 -0.4811 -1.1141
  460MOL0     C61987   6.502   7.839  10.816 -0.1772  0.1495 -0.7987
  460MOL0     C61988   6.602   7.948  10.830  0.7108  0.0724 -0.4089
  460MOL0     O61989   6.539   8.063  10.892 -0.0651  0.1927 -0.8522
  460MOL0     C61990   6.427   8.109  10.843  0.6838  0.2645 -0.5499
  460MOL0     C61991   6.417   8.189  10.730  0.6465 -0.4553 -0.6495
  460MOL0     C61992   6.293   8.236  10.680  0.5800  0.4739  0.7711
  460MOL0     C61993   6.295   8.298  10.542 -0.9568  0.0951 -0.6184
  460MOL0     C61994   6.175   8.212  10.752  0.3197 -0.7141  0.1848
  460MOL0     C61995   6.042   8.265  10.717 -0.4393 -0.2583 -1.3994
  460MOL0     O61996   6.037   8.398  10.671  0.1494  0.6373  0.0495
  460MOL0     C61997   5.921   8.478  10.668 -0.7272 -0.4706 -0.6188
  460MOL0     C61998   5.799   8.439  10.728 -0.4894  0.0900  0.0060
  460MOL0     C61999   5.690   8.527  10.712  0.2152  0.3501 -0.6955
  460MOL0     C62000   5.703   8.649  10.652  0.4625  0.7977 -0.0010
  460MOL0     O62001   5.598   8.737  10.656  0.7134 -0.5404 -0.1429
  460MOL0     C62002   5.601   8.849  10.569 -0.1866 -0.6597 -0.1935
  460MOL0     C62003   5.467   8.929  10.565  0.5916 -0.1834 -0.5126
  460MOL0     C62004   5.419   8.966  10.712 -0.3603  0.4784  0.2967
  460MOL0     C62005   5.267   8.961  10.727 -0.0680  0.5509  0.8093
  460MOL0     C62006   5.222   8.951  10.869  0.2947 -0.2134  0.1288
  460MOL0     C62007   5.071   8.982  10.882  0.1561 -0.1744 -0.7754
  460MOL0     C62008   5.041   9.131  10.874  0.3920  0.2260  0.6231
  460MOL0     C62009   4.906   9.163  10.811 -0.4773  0.3167 -0.2059
  460MOL0    Cl62010   4.781   9.113  10.925  0.4332 -0.2217  0.0768
  460MOL0     C62011   5.827   8.686  10.594 -0.0189  0.5190 -0.5107
  460MOL0     C62012   5.937   8.600  10.598  0.2019  0.1859 -0.4991
  460MOL0     O62013   5.943   8.197  10.737  0.4461  0.3652  0.8503
  460MOL0     C62014   6.185   8.140  10.869 -0.9591 -0.5856 -0.1563
  460MOL0     C62015   6.306   8.083  10.909  0.4138 -0.3197 -0.1389
  460MOL0     N62016   6.695   7.444  10.662 -0.3100 -0.1568  0.3742
  460MOL0     N62017   6.756   7.333  10.647 -0.2441  0.9416 -0.4378
  460MOL0     C62018   7.907   6.968  10.840  0.4165 -0.3963  0.2000
  460MOL0     C62019   8.039   7.003  10.815 -0.1293 -0.2809 -0.5166
  460MOL0     C62020   8.484   7.130  10.916  0.3694 -0.8778  0.6362
  460MOL0     C62021   8.466   7.237  10.825 -0.1176 -0.1439  0.9629
  460MOL0     C62022   8.565   7.334  10.802 -0.4397 -0.3297 -0.5099
  460MOL0     C62023   8.689   7.325  10.868 -0.6733  0.2728  0.3215
  460MOL0     O62024   8.786   7.416  10.817 -0.6548  0.3130 -0.0803
  460MOL0     C62025   8.928   7.394  10.860 -0.5163 -0.0262  0.0550
  460MOL0     C62026   9.026   7.471  10.770  0.4194 -0.7775 -0.4317
  460MOL0     C62027   9.019   7.623  10.782 -0.2777 -0.6566 -0.1987
  460MOL0     C62028   9.124   7.681  10.687  0.5915 -0.1635  0.1211
  460MOL0     C62029   9.157   7.822  10.709 -0.8104  0.4539  0.1710
  460MOL0     C62030   9.183   7.939  10.739 -0.3259 -0.2099  0.2483
  460MOL0     C62031   8.707   7.218  10.963  0.4327  0.1573 -0.0844
  460MOL0     C62032   8.607   7.125  10.983  0.5044  0.7372 -0.1711
  460MOL0     H62033   8.173   6.885  11.106  0.4671  1.3875  0.5325
  460MOL0     H62034   7.942   6.819  11.136  2.4855 -0.5590  0.0305
  460MOL0     H62035   7.716   6.822  11.155 -0.2420 -0.5533 -0.0145
  460MOL0     H62036   7.696   7.009  11.158 -1.7918  0.5561 -0.3270
  460MOL0     H62037   7.507   6.826  11.013 -0.5691 -0.3255 -0.4118
  460MOL0     H62038   7.488   6.850  11.187 -0.8816 -1.0619 -2.1365
  460MOL0     H62039   7.466   7.103  11.157  0.5071 -1.1395  0.9773
  460MOL0     H62040   7.491   7.085  10.983 -0.2066 -1.0508 -2.0890
  460MOL0     H62041   7.315   6.944  10.943  1.5431  1.5608 -1.0594
  460MOL0     H62042   7.242   6.962  11.104 -4.0660  2.5265 -1.2488
  460MOL0     H62043   7.189   7.185  11.082  0.7409 -0.1451  0.0968
  460MOL0     H62044   7.295   7.200  10.948  0.9211  0.1032  0.2075
  460MOL0     H62045   7.143   7.053  10.807  2.3235  0.2140  1.0026
  460MOL0     H62046   7.058   6.998  10.951 -0.3294 -0.3418 -1.2282
  460MOL0     H62047   6.953   7.205  10.986 -0.1914 -1.2447 -0.2187
  460MOL0     H62048   7.074   7.292  10.886 -1.0635  1.2285  0.6757
  460MOL0     H62049   6.853   7.108  10.803 -2.0377  1.6502  1.8825
  460MOL0     H62050   6.974   7.176  10.686 -2.8791 -0.3757 -1.2130
  460MOL0     H62051   6.848   7.415  10.948 -2.3746 -0.3101  1.7308
  460MOL0     H62052   6.608   7.597  10.939  0.5776  1.8791  1.4938
  460MOL0     H62053   6.744   7.694  10.891 -0.5305  0.9497  0.8124
  460MOL0     H62054   6.493   7.630  10.726  0.0911 -0.8451 -0.2855
  460MOL0     H62055   6.620   7.723  10.658  1.9965 -1.2430 -0.2342
  460MOL0     H62056   6.471   7.797  10.912 -0.7499 -0.0422 -1.0640
  460MOL0     H62057   6.416   7.870  10.756 -0.0243 -0.4441 -1.3418
  460MOL0     H62058   6.652   7.969  10.735  3.2603  1.1073  1.0384
  460MOL0     H62059   6.671   7.914  10.908 -1.2171 -1.6911  0.6242
  460MOL0     H62060   6.512   8.210  10.682  0.3571 -1.4559 -1.6771
  460MOL0     H62061   6.203   8.278  10.486 -1.4718 -3.0215  1.0785
  460MOL0     H62062   6.327   8.402  10.552  0.4449 -0.4547  1.0102
  460MOL0     H62063   6.379   8.250  10.492  2.3253 -1.4575  5.4418
  460MOL0     H62064   5.779   8.348  10.783 -0.3699 -0.0404 -0.1673
  460MOL0     H62065   5.595   8.494  10.753  1.0965 -0.0872  1.1559
  460MOL0     H62066   5.674   8.927  10.594  1.0609 -2.2855  1.4184
  460MOL0     H62067   5.609   8.810  10.467 -1.2400  1.5959 -1.2204
  460MOL0     H62068   5.469   9.020  10.505 -2.1291  0.7109  0.5771
  460MOL0     H62069   5.381   8.876  10.522 -0.7551 -0.8965  2.7642
  460MOL0     H62070   5.476   9.054  10.744  3.3081 -0.5733 -2.6736
  460MOL0     H62071   5.453   8.885  10.777 -0.4554 -1.0810 -1.5223
  460MOL0     H62072   5.221   9.043  10.670 -1.6166 -0.7213  0.1632
  460MOL0     H62073   5.230   8.866  10.689  1.2108 -1.3314  3.8379
  460MOL0     H62074   5.281   9.026  10.922 -0.4654 -1.3470  2.7417
  460MOL0     H62075   5.234   8.852  10.913 -2.2380 -0.2427  0.8997
  460MOL0     H62076   5.010   8.929  10.808  0.4216  0.5561 -1.5291
  460MOL0     H62077   5.040   8.959  10.985  0.0805  2.0119 -0.2695
  460MOL0     H62078   5.107   9.189  10.810 -0.2500  1.5952  1.1429
  460MOL0     H62079   5.039   9.180  10.973  3.2575  0.7114  0.5134
  460MOL0     H62080   4.889   9.122  10.712  0.4742  4.3679 -2.2826
  460MOL0     H62081   4.910   9.272  10.800 -1.3472  0.3622 -0.1072
  460MOL0     H62082   5.833   8.770  10.525  0.2052  1.9398  1.1432
  460MOL0     H62083   6.031   8.622  10.549  1.2598  0.2688  1.4779
  460MOL0     H62084   6.103   8.118  10.937  2.5426 -1.8839  4.0763
  460MOL0     H62085   6.307   8.020  10.997 -0.3449  0.4863  0.4676
  460MOL0     H62086   7.831   6.979  10.763  0.8040 -3.1200 -0.6701
  460MOL0     H62087   8.054   7.037  10.713  1.3395 -0.3102 -0.3337
  460MOL0     H62088   8.372   7.245  10.770 -0.5481  1.0451  1.8370
  460MOL0     H62089   8.542   7.422  10.742  0.5075  2.3861  2.8006
  460MOL0     H62090   8.949   7.434  10.960  2.6735  0.1243 -0.5898
  460MOL0     H62091   8.948   7.287  10.855 -1.7894 -0.2639 -0.3912
  460MOL0     H62092   9.029   7.445  10.664  2.3895  2.0491 -1.1968
  460MOL0     H62093   9.123   7.443  10.813 -0.0018 -1.6518 -0.0390
  460MOL0     H62094   9.060   7.648  10.880 -3.9367 -0.2686  1.3804
  460MOL0     H62095   8.920   7.669  10.772 -0.3566 -0.7423  0.1939
  460MOL0     H62096   9.087   7.661  10.586 -0.2819 -1.1144  0.6086
  460MOL0     H62097   9.213   7.620  10.706 -0.8929 -1.6147  3.1465
  460MOL0     H62098   9.210   8.041  10.758  0.4914  0.0045 -1.7738
  460MOL0     H62099   8.798   7.208  11.022 -1.3356 -1.1109  2.6223
  460MOL0     H62100   8.627   7.046  11.055 -0.2433  0.6892 -0.0070
  461MOL0     O62101   5.117   9.397   3.844 -0.0693 -0.4435 -0.3659
  461MOL0     C62102   5.087   9.281   3.857  0.3734  0.5547 -0.4203
  461MOL0     O62103   4.954   9.232   3.856 -0.2267 -0.4098 -0.4274
  461MOL0     C62104   4.845   9.310   3.828  0.0568 -0.6512  0.9391
  461MOL0     C62105   4.839   9.444   3.786 -1.0839  0.2124 -0.1563
  461MOL0     C62106   4.712   9.497   3.751  0.0235  0.6148 -0.4640
  461MOL0     C62107   4.588   9.430   3.763  0.2387 -0.3003  0.3917
  461MOL0     O62108   4.470   9.489   3.738  0.0005 -0.4131  0.5788
  461MOL0     C62109   4.344   9.418   3.746  0.1726  0.3165 -0.6920
  461MOL0     C62110   4.317   9.323   3.632 -0.1064 -0.0450  0.4750
  461MOL0     C62111   4.170   9.295   3.623 -0.8934 -0.1268  1.0521
  461MOL0     C62112   4.140   9.184   3.517 -0.1299 -0.9513 -0.1303
  461MOL0     C62113   3.988   9.202   3.471 -0.3390  0.7260 -0.6091
  461MOL0     C62114   3.939   9.101   3.368  0.3324 -0.0698  0.4295
  461MOL0     C62115   3.796   9.133   3.312 -0.1058 -0.0784 -0.0215
  461MOL0     C62116   3.749   9.030   3.213 -0.3002  1.4087 -0.0631
  461MOL0     N62117   3.628   9.078   3.156  0.5349  0.3642 -0.2296
  461MOL0     C62118   3.627   9.133   3.033  0.8729 -1.1505 -0.3179
  461MOL0     C62119   3.506   9.123   2.972 -0.6344  0.0627 -0.0283
  461MOL0     C62120   3.471   9.163   2.831 -0.0133  0.0271  0.2870
  461MOL0     C62121   3.326   9.200   2.807 -0.1191 -0.6194  0.8385
  461MOL0     C62122   3.284   9.185   2.663 -0.1463  0.8543  0.4393
  461MOL0     C62123   3.139   9.218   2.626  0.3915 -0.7006  0.3384
  461MOL0     O62124   3.041   9.189   2.731  0.2268  0.2626  0.1143
  461MOL0     C62125   2.912   9.144   2.689 -0.5966 -0.7550  1.7759
  461MOL0     C62126   2.855   9.207   2.580  0.0765 -0.3499 -0.8215
  461MOL0     C62127   2.720   9.176   2.543 -0.1726 -0.3022 -0.2628
  461MOL0     C62128   2.662   9.255   2.430  0.1497 -0.4084 -0.0322
  461MOL0     C62129   2.644   9.081   2.612 -0.5250 -0.2857  0.2727
  461MOL0     C62130   2.504   9.039   2.577  0.1091  0.1981  1.0616
  461MOL0     O62131   2.434   8.995   2.689 -0.1567 -0.8089 -0.3295
  461MOL0     C62132   2.316   8.935   2.683  0.2968 -0.0030  0.7943
  461MOL0     C62133   2.211   8.997   2.607 -0.0543 -0.4329 -0.2057
  461MOL0     C62134   2.079   8.943   2.601 -0.0814 -0.2752 -0.5613
  461MOL0     C62135   2.045   8.836   2.690  0.5137  0.3224 -0.2211
  461MOL0     O62136   1.912   8.792   2.708 -0.4467  0.0108 -0.0595
  461MOL0     C62137   1.897   8.679   2.612  0.2776 -0.1336  0.8408
  461MOL0     C62138   1.790   8.587   2.669 -0.0541  0.6654  0.7021
  461MOL0     C62139   1.656   8.667   2.684 -0.2840  0.1775 -0.0620
  461MOL0     C62140   1.544   8.570   2.724 -0.1064  0.8794  0.4642
  461MOL0     C62141   1.427   8.641   2.772  0.9168 -1.3703 -0.2012
  461MOL0     C62142   1.297   8.551   2.761 -0.2061 -0.1429  0.2688
  461MOL0     C62143   1.171   8.625   2.803 -0.4382 -0.5608  0.5679
  461MOL0     C62144   1.113   8.724   2.700  0.5433  0.0225  0.3965
  461MOL0    Cl62145   0.983   8.837   2.741 -0.0848  0.5884 -0.3551
  461MOL0     C62146   2.142   8.783   2.779 -0.6666  0.2717  0.8109
  461MOL0     C62147   2.273   8.828   2.768 -0.3094  0.2780  0.4386
  461MOL0     O62148   2.454   9.061   2.467  0.0667 -0.3704  0.2158
  461MOL0     C62149   2.700   9.016   2.716 -0.3616 -0.6385  1.1078
  461MOL0     C62150   2.833   9.047   2.753  0.3227  0.0178 -0.1311
  461MOL0     N62151   3.433   9.041   3.061 -0.3815 -0.1647 -0.0619
  461MOL0     N62152   3.507   9.008   3.163 -0.7327 -0.0263 -0.0696
  461MOL0     C62153   4.597   9.300   3.813 -0.3086 -0.3749 -0.2289
  461MOL0     C62154   4.724   9.242   3.842  0.6526 -0.0472  0.0375
  461MOL0     C62155   5.197   9.194   3.895  0.5297 -0.3053 -0.0084
  461MOL0     C62156   5.190   9.057   3.855  0.0850 -0.6172 -0.1023
  461MOL0     C62157   5.295   8.970   3.895 -0.0686 -0.3939 -0.6023
  461MOL0     C62158   5.388   9.009   3.987 -0.1902 -0.0658  0.6946
  461MOL0     O62159   5.482   8.924   4.045 -0.4353  0.1690  0.2618
  461MOL0     C62160   5.431   8.837   4.143  0.1344 -0.4754  0.9500
  461MOL0     C62161   5.421   8.906   4.283  0.2229  0.1009  0.2284
  461MOL0     C62162   5.281   8.967   4.310  0.2675  0.2758  0.2967
  461MOL0     C62163   5.266   9.054   4.434 -1.1470 -0.7023 -0.6967
  461MOL0     C62164   5.348   9.176   4.441  0.0170  1.1562 -0.8309
  461MOL0     C62165   5.426   9.256   4.444 -0.0228 -0.7456 -0.3153
  461MOL0     C62166   5.385   9.133   4.032  0.8443 -0.3592 -0.7626
  461MOL0     C62167   5.296   9.236   3.985 -0.8653  0.3814 -0.2270
  461MOL0     H62168   4.928   9.498   3.755 -0.9853 -0.3876 -0.9482
  461MOL0     H62169   4.709   9.595   3.704  1.1727  0.6742 -0.4570
  461MOL0     H62170   4.333   9.354   3.835  0.7573 -1.6183 -1.9628
  461MOL0     H62171   4.274   9.502   3.750  1.2827  1.2786 -0.9410
  461MOL0     H62172   4.355   9.378   3.545  0.2990 -0.5899  0.3055
  461MOL0     H62173   4.379   9.233   3.635 -1.3141 -0.9628 -1.0717
  461MOL0     H62174   4.129   9.274   3.723 -2.0620 -0.5737  0.5003
  461MOL0     H62175   4.112   9.380   3.586 -1.7915 -2.1496 -2.6607
  461MOL0     H62176   4.198   9.197   3.425  1.6578 -2.4202  0.7160
  461MOL0     H62177   4.162   9.082   3.550  0.5245 -0.9153 -0.4323
  461MOL0     H62178   3.916   9.195   3.553 -1.4859  0.3445 -1.6299
  461MOL0     H62179   3.973   9.299   3.423 -1.1024 -0.8605 -3.8705
  461MOL0     H62180   4.006   9.094   3.283  0.2886 -1.9318  0.5055
  461MOL0     H62181   3.935   9.005   3.420  3.7775 -0.0328  0.9936
  461MOL0     H62182   3.718   9.127   3.389 -0.8599 -2.0724 -0.8546
  461MOL0     H62183   3.793   9.231   3.265 -2.0297 -1.1464 -2.3242
  461MOL0     H62184   3.735   8.933   3.261  0.3707  1.1718 -0.3355
  461MOL0     H62185   3.817   9.013   3.128  0.9050  0.0812  1.1171
  461MOL0     H62186   3.711   9.177   2.980 -1.5051  2.4021 -1.4940
  461MOL0     H62187   3.530   9.251   2.803  1.0538 -1.0415 -0.9177
  461MOL0     H62188   3.501   9.083   2.763  1.5072 -0.1374  1.1136
  461MOL0     H62189   3.316   9.303   2.843 -1.5062 -1.5057  3.1679
  461MOL0     H62190   3.263   9.142   2.875 -1.6748  1.5870  1.3695
  461MOL0     H62191   3.281   9.079   2.637 -4.3617  0.8042  0.4019
  461MOL0     H62192   3.346   9.247   2.599 -2.1265 -0.5394 -3.1264
  461MOL0     H62193   3.105   9.161   2.539  0.2990  0.3886 -0.3514
  461MOL0     H62194   3.138   9.325   2.605  1.9720 -0.5399  0.8722
  461MOL0     H62195   2.912   9.277   2.519  1.5367 -0.2344  0.5820
  461MOL0     H62196   2.582   9.317   2.469  0.4878 -0.1640  0.2873
  461MOL0     H62197   2.731   9.322   2.378 -2.6965  2.3142 -0.5448
  461MOL0     H62198   2.629   9.185   2.353 -1.7005  3.1690 -2.7821
  461MOL0     H62199   2.236   9.088   2.553  0.5330 -0.0095  0.7526
  461MOL0     H62200   2.005   8.977   2.529  1.8806 -1.3878 -3.2879
  461MOL0     H62201   1.872   8.703   2.508  1.0940 -4.6379 -0.6305
  461MOL0     H62202   1.981   8.609   2.597  1.0908  1.1449 -0.9403
  461MOL0     H62203   1.772   8.499   2.606 -0.0230  0.5535  0.8510
  461MOL0     H62204   1.812   8.562   2.773  2.2666  1.2542  0.3849
  461MOL0     H62205   1.625   8.705   2.586 -2.2602 -2.8538 -0.7294
  461MOL0     H62206   1.668   8.742   2.763 -0.2112 -0.3986  0.4752
  461MOL0     H62207   1.523   8.501   2.641  1.7093  0.3775  0.3821
  461MOL0     H62208   1.579   8.516   2.812  0.0341  3.3294  2.0105
  461MOL0     H62209   1.413   8.735   2.717  2.9781 -0.9260 -0.0494
  461MOL0     H62210   1.435   8.664   2.878 -0.2965  2.2354 -0.7467
  461MOL0     H62211   1.292   8.513   2.658 -0.0651 -0.4059  0.3569
  461MOL0     H62212   1.307   8.462   2.824 -2.2699 -0.3185  0.4060
  461MOL0     H62213   1.184   8.690   2.890 -3.2693  0.9618 -0.0203
  461MOL0     H62214   1.096   8.552   2.834 -0.0326 -1.2259  0.0234
  461MOL0     H62215   1.074   8.665   2.616 -1.7344  2.1364 -0.1511
  461MOL0     H62216   1.198   8.785   2.666  0.8677 -0.9706 -0.6546
  461MOL0     H62217   2.116   8.703   2.847  0.9510 -0.2087  0.9001
  461MOL0     H62218   2.349   8.776   2.825  0.0203 -0.2840 -0.4917
  461MOL0     H62219   2.651   8.933   2.766  0.6282 -1.5245  0.6379
  461MOL0     H62220   2.870   8.998   2.842  0.4689 -0.9042 -0.6804
  461MOL0     H62221   4.509   9.247   3.848  0.2320 -0.2098  1.5206
  461MOL0     H62222   4.720   9.139   3.875 -0.3231  0.1954  0.7188
  461MOL0     H62223   5.113   9.023   3.786  0.2119 -0.9363 -0.0895
  461MOL0     H62224   5.307   8.871   3.853 -1.3004 -1.4247  1.3641
  461MOL0     H62225   5.329   8.805   4.120  0.3724 -0.8943  0.4559
  461MOL0     H62226   5.500   8.753   4.158  1.3168  0.6653  2.2461
  461MOL0     H62227   5.501   8.979   4.303 -0.2609  0.5790  0.4462
  461MOL0     H62228   5.424   8.832   4.363 -0.5894  0.0712  0.2381
  461MOL0     H62229   5.207   8.888   4.328  0.3628 -0.7299 -3.0854
  461MOL0     H62230   5.244   9.017   4.220 -1.8546 -0.4689  0.6738
  461MOL0     H62231   5.278   8.996   4.526 -2.2011  1.3707  0.8183
  461MOL0     H62232   5.159   9.073   4.436 -1.4907 -2.2937  2.4505
  461MOL0     H62233   5.494   9.339   4.434 -1.3519  0.5531  0.8982
  461MOL0     H62234   5.464   9.168   4.098 -0.3470  1.9984 -0.4820
  461MOL0     H62235   5.299   9.339   4.017  0.9304  0.6321 -1.1257
  462MOL0     O62236   9.220   8.579  10.845  0.3130  0.1231  0.5383
  462MOL0     C62237   9.250   8.696  10.837 -0.5068  0.3900 -0.9044
  462MOL0     O62238   9.161   8.799  10.808 -0.2852 -0.2883  0.2189
  462MOL0     C62239   9.029   8.771  10.793 -0.2487 -0.8189 -0.2627
  462MOL0     C62240   8.961   8.859  10.705  0.2545 -0.4423  0.0339
  462MOL0     C62241   8.822   8.850  10.693 -0.1879 -0.1791  0.3951
  462MOL0     C62242   8.743   8.768  10.768  0.3962  0.3143  0.6796
  462MOL0     O62243   8.610   8.755  10.763 -0.4725  0.1051 -0.6770
  462MOL0     C62244   8.540   8.847  10.679 -0.8267 -0.0658 -0.3590
  462MOL0     C62245   8.385   8.829  10.689  0.3988  0.5908 -0.6178
  462MOL0     C62246   8.345   8.697  10.615  0.8899  0.4175 -0.2713
  462MOL0     C62247   8.199   8.661  10.587 -0.0792 -0.0871 -0.2149
  462MOL0     C62248   8.178   8.550  10.484  0.5039 -0.0739 -0.0213
  462MOL0     C62249   8.033   8.515  10.451 -0.7407 -0.8110  0.4084
  462MOL0     C62250   7.963   8.443  10.569  0.2830  0.0925  0.1985
  462MOL0     C62251   7.837   8.383  10.521 -0.6617 -0.1092 -0.2052
  462MOL0     N62252   7.750   8.472  10.450  0.3906 -0.3029  0.4287
  462MOL0     C62253   7.711   8.583  10.508  0.4724 -0.6874  0.6124
  462MOL0     C62254   7.617   8.634  10.420  1.0051 -0.6410  0.8739
  462MOL0     C62255   7.558   8.774  10.424 -0.2785 -0.7271 -0.5291
  462MOL0     C62256   7.403   8.776  10.401 -0.0447 -0.0419 -0.3353
  462MOL0     C62257   7.336   8.699  10.507  0.6261  0.9043 -0.7469
  462MOL0     C62258   7.221   8.633  10.447 -0.1328 -0.7028  0.0845
  462MOL0     O62259   7.130   8.737  10.401 -0.1899 -0.7434  0.3490
  462MOL0     C62260   6.993   8.721  10.417  1.1463 -0.2053  0.5643
  462MOL0     C62261   6.926   8.615  10.480  0.7801 -0.1927  1.0370
  462MOL0     C62262   6.785   8.601  10.486 -0.0456  0.1572 -0.1720
  462MOL0     C62263   6.722   8.485  10.560  1.4485 -0.9890 -0.1706
  462MOL0     C62264   6.703   8.705  10.434  0.0681 -0.0564  0.5163
  462MOL0     C62265   6.557   8.705  10.424 -0.7921 -0.9416  0.2025
  462MOL0     O62266   6.495   8.797  10.336 -0.3139 -0.3638 -0.5106
  462MOL0     C62267   6.360   8.788  10.319 -0.4672  0.0103  0.0783
  462MOL0     C62268   6.280   8.908  10.318  0.0256 -0.3706  0.1469
  462MOL0     C62269   6.142   8.911  10.291 -0.2649  0.7580 -0.6469
  462MOL0     C62270   6.079   8.785  10.273 -0.0016  0.1125  0.2704
  462MOL0     O62271   5.943   8.769  10.249 -0.0510 -0.2724 -0.1915
  462MOL0     C62272   5.860   8.882  10.205  0.0689 -0.9272  0.2986
  462MOL0     C62273   5.723   8.819  10.190 -0.2706  0.9352  0.2766
  462MOL0     C62274   5.616   8.930  10.179 -0.9847 -0.9465 -0.2706
  462MOL0     C62275   5.477   8.872  10.154  0.1516 -0.0439  0.6346
  462MOL0     C62276   5.382   8.989  10.128  0.5920  0.1223  0.1201
  462MOL0     C62277   5.245   8.940  10.068  0.4568 -0.8531  1.0974
  462MOL0     C62278   5.150   9.042  10.003  0.1349 -0.7931 -0.0285
  462MOL0     C62279   5.007   8.988  10.023 -0.8722  0.0028  0.1388
  462MOL0    Cl62280   4.992   8.822   9.963 -0.2151  0.0549 -0.1339
  462MOL0     C62281   6.151   8.668  10.279  0.3102 -0.3817  0.7262
  462MOL0     C62282   6.291   8.671  10.301  0.5247  1.0088  0.9572
  462MOL0     O62283   6.499   8.629  10.491  0.2110 -0.1775 -0.3089
  462MOL0     C62284   6.771   8.810  10.363  0.0780  0.5866  0.4420
  462MOL0     C62285   6.914   8.814  10.359  0.0326 -0.2371  0.7732
  462MOL0     N62286   7.607   8.547  10.316 -0.3533  0.0663 -0.7251
  462MOL0     N62287   7.677   8.443  10.341 -0.2205 -0.3678  0.5957
  462MOL0     C62288   8.815   8.695  10.865  0.0257 -0.0325  0.7270
  462MOL0     C62289   8.948   8.687  10.870  0.2939 -0.7652 -0.5330
  462MOL0     C62290   9.392   8.724  10.867  0.5516  0.6259 -0.0732
  462MOL0     C62291   9.432   8.855  10.848 -0.1835 -0.4820  0.3951
  462MOL0     C62292   9.561   8.894  10.869 -1.3801 -0.1063  0.5105
  462MOL0     C62293   9.656   8.803  10.908 -0.5725  0.4009  0.0100
  462MOL0     O62294   9.778   8.848  10.952  0.3699  1.1019 -0.3095
  462MOL0     C62295   9.872   8.759  10.998  0.5046  0.3648 -0.2143
  462MOL0     C62296   9.984   8.853  11.044 -0.4743 -0.0555 -0.5787
  462MOL0     C62297  10.022   8.960  10.936 -0.1645  0.2646 -0.2723
  462MOL0     C62298  10.155   9.028  10.968  0.0111  1.0638 -0.4083
  462MOL0     C62299  10.179   9.130  10.865 -0.0373  0.7243 -0.3217
  462MOL0     C62300  10.200   9.209  10.773  0.0564 -0.6237  0.5418
  462MOL0     C62301   9.614   8.670  10.933  0.6310  0.6794 -0.0020
  462MOL0     C62302   9.486   8.628  10.916  1.1942  0.1940  0.3113
  462MOL0     H62303   9.013   8.940  10.655 -1.4846  1.1660  0.6920
  462MOL0     H62304   8.782   8.926  10.627  0.0491 -1.6513 -1.5398
  462MOL0     H62305   8.567   8.947  10.715  0.6443 -0.5709 -0.0015
  462MOL0     H62306   8.577   8.837  10.577  2.1343  1.4371  0.4495
  462MOL0     H62307   8.360   8.820  10.795  0.2154  1.9362 -0.5341
  462MOL0     H62308   8.320   8.911  10.657 -0.0625  1.4033  2.1788
  462MOL0     H62309   8.399   8.707  10.520  4.6340  1.0723  1.7508
  462MOL0     H62310   8.386   8.609  10.666 -0.9573 -0.4688 -0.2133
  462MOL0     H62311   8.149   8.623  10.676  2.5804 -4.1788 -0.1823
  462MOL0     H62312   8.153   8.753  10.551 -0.0981 -0.4011 -1.0341
  462MOL0     H62313   8.215   8.588  10.388  0.1851 -1.7387 -0.8329
  462MOL0     H62314   8.242   8.465  10.509  0.7238  0.8050  2.7835
  462MOL0     H62315   7.987   8.614  10.440 -1.1363 -0.7760  2.1119
  462MOL0     H62316   8.031   8.451  10.362  2.6707 -1.9292  1.0105
  462MOL0     H62317   8.023   8.360  10.609 -0.2059 -0.1676  0.3984
  462MOL0     H62318   7.949   8.510  10.654  0.2771  2.0595 -1.2859
  462MOL0     H62319   7.787   8.348  10.612 -1.1113  1.1847  0.0622
  462MOL0     H62320   7.864   8.305  10.449  1.3466  0.7769 -0.4958
  462MOL0     H62321   7.766   8.639  10.584  1.4757 -0.4398 -0.2628
  462MOL0     H62322   7.573   8.827  10.519  0.5830 -1.1482 -0.4229
  462MOL0     H62323   7.612   8.839  10.354 -1.9839  3.4924  1.6754
  462MOL0     H62324   7.382   8.744  10.298 -2.5476  0.8711 -0.1597
  462MOL0     H62325   7.381   8.882  10.416 -1.8248 -0.6040  1.3565
  462MOL0     H62326   7.309   8.775  10.581 -3.1062 -0.5811 -0.3825
  462MOL0     H62327   7.395   8.614  10.544  0.6336  0.4011 -1.8670
  462MOL0     H62328   7.173   8.579  10.529  1.1825 -0.7705  0.8410
  462MOL0     H62329   7.256   8.564  10.370 -0.2701 -0.0638 -0.5610
  462MOL0     H62330   6.974   8.534  10.534  1.9627 -1.8904 -2.2704
  462MOL0     H62331   6.663   8.420  10.495  0.0777 -0.1203  0.1662
  462MOL0     H62332   6.797   8.420  10.607  1.8494 -1.2064 -1.0870
  462MOL0     H62333   6.650   8.518  10.636 -0.8864 -1.9959 -1.8102
  462MOL0     H62334   6.332   9.003  10.330  0.8709 -1.0670  2.3710
  462MOL0     H62335   6.087   9.005  10.280 -0.0590  0.8332 -1.0724
  462MOL0     H62336   5.858   8.962  10.280 -2.2218  0.1542 -0.8452
  462MOL0     H62337   5.896   8.913  10.107  0.7286  0.0113  0.8149
  462MOL0     H62338   5.721   8.750  10.105 -2.0754  2.2345 -0.8032
  462MOL0     H62339   5.712   8.762  10.283 -0.9202 -2.6876 -1.8034
  462MOL0     H62340   5.656   8.993  10.099 -0.5380  3.9323  3.3484
  462MOL0     H62341   5.605   8.993  10.268  0.8437 -2.3869  1.0446
  462MOL0     H62342   5.489   8.801  10.071  1.4658  0.1630  0.6149
  462MOL0     H62343   5.437   8.817  10.240 -0.1732 -1.4377 -0.3694
  462MOL0     H62344   5.429   9.050  10.050  4.4749  1.6549  3.2319
  462MOL0     H62345   5.363   9.052  10.216 -0.5846 -2.0315  1.4909
  462MOL0     H62346   5.270   8.864   9.993  0.1382 -3.4844  3.5116
  462MOL0     H62347   5.190   8.884  10.144 -1.4092 -0.2301  0.2837
  462MOL0     H62348   5.177   9.058   9.898 -0.1101 -3.3009 -0.5409
  462MOL0     H62349   5.167   9.133  10.061 -0.6142  0.0807 -1.1353
  462MOL0     H62350   4.934   9.055   9.977 -0.1002 -0.0812 -1.2769
  462MOL0     H62351   4.983   8.984  10.130 -0.3564 -1.3219  0.2259
  462MOL0     H62352   6.104   8.571  10.267 -0.1777 -0.1435  0.7056
  462MOL0     H62353   6.336   8.573  10.292 -0.2491  0.6694  0.6310
  462MOL0     H62354   6.712   8.887  10.315  0.1962  1.2548  1.3300
  462MOL0     H62355   6.979   8.885  10.309  3.7968 -3.3222  0.7954
  462MOL0     H62356   8.765   8.634  10.940 -1.3540 -1.1559 -1.0071
  462MOL0     H62357   8.984   8.620  10.948  0.1837 -0.5281 -0.2767
  462MOL0     H62358   9.362   8.927  10.805 -0.6421 -1.1577 -0.0047
  462MOL0     H62359   9.589   8.999  10.872  2.2220 -0.9504  2.4398
  462MOL0     H62360   9.824   8.700  11.077  2.4484  0.5379  1.1834
  462MOL0     H62361   9.907   8.693  10.918  0.7638 -0.6616  0.7190
  462MOL0     H62362  10.076   8.800  11.073 -0.2056  1.0842  0.7548
  462MOL0     H62363   9.949   8.903  11.134  0.7952 -0.1425 -0.0119
  462MOL0     H62364   9.938   9.030  10.935  0.9143  1.6255  0.2813
  462MOL0     H62365  10.027   8.902  10.843  0.4692 -0.7482  0.3758
  462MOL0     H62366  10.234   8.953  10.969 -2.0525 -1.2389 -0.1742
  462MOL0     H62367  10.150   9.075  11.066 -0.1205  2.1177 -0.9014
  462MOL0     H62368  10.222   9.279  10.695 -1.0341  1.3120  1.8823
  462MOL0     H62369   9.678   8.590  10.968 -0.1687 -0.3885 -0.9086
  462MOL0     H62370   9.458   8.525  10.931  1.4706 -0.1937 -1.5863
  463MOL0     O62371  10.009   5.471   2.412  0.4595  0.7508  0.2139
  463MOL0     C62372  10.051   5.585   2.420  0.0205  0.2518 -0.0250
  463MOL0     O62373   9.979   5.697   2.455  0.0721 -0.1639  0.1931
  463MOL0     C62374   9.852   5.673   2.508 -0.5085 -0.9707 -0.4228
  463MOL0     C62375   9.836   5.633   2.637  0.0333 -0.4003 -0.6583
  463MOL0     C62376   9.707   5.586   2.686 -0.4747 -0.2884 -0.1297
  463MOL0     C62377   9.596   5.602   2.602  0.6407 -0.4756  0.5572
  463MOL0     O62378   9.475   5.558   2.642 -0.9294 -0.1461 -0.3633
  463MOL0     C62379   9.378   5.657   2.669 -0.6424 -0.3605  0.4494
  463MOL0     C62380   9.232   5.615   2.657  1.1215  0.0890  0.7340
  463MOL0     C62381   9.209   5.607   2.508 -0.8555 -0.5161 -0.5286
  463MOL0     C62382   9.082   5.535   2.473 -0.9181  0.0563  0.3264
  463MOL0     C62383   9.051   5.543   2.323 -1.0166  0.0122 -0.4047
  463MOL0     C62384   8.942   5.447   2.283  0.8755  0.0573  0.8346
  463MOL0     C62385   8.819   5.442   2.377 -0.0439 -1.0757 -0.4009
  463MOL0     C62386   8.756   5.306   2.366 -0.3666  0.3756  0.1505
  463MOL0     N62387   8.615   5.313   2.404  0.2771  0.2317  0.1835
  463MOL0     C62388   8.509   5.237   2.348  0.5269  0.4110  0.0446
  463MOL0     C62389   8.401   5.255   2.433 -0.9700  0.3984  0.5539
  463MOL0     C62390   8.268   5.191   2.404 -0.1063 -0.8677 -0.1709
  463MOL0     C62391   8.168   5.303   2.381 -0.4111  0.2643  1.1230
  463MOL0     C62392   8.166   5.352   2.237 -0.6472  0.3514  0.6680
  463MOL0     C62393   8.077   5.471   2.221  0.0011 -0.2168 -0.2353
  463MOL0     O62394   7.946   5.406   2.198 -0.0332  0.0725  0.2987
  463MOL0     C62395   7.842   5.469   2.245  0.2223 -0.5343 -0.4125
  463MOL0     C62396   7.823   5.470   2.385  0.6926  0.5454  0.0578
  463MOL0     C62397   7.720   5.543   2.444 -0.2495  1.0538  1.2574
  463MOL0     C62398   7.716   5.548   2.592 -0.1382  0.0936 -0.2851
  463MOL0     C62399   7.630   5.617   2.362 -0.2996  0.9568 -0.4848
  463MOL0     C62400   7.505   5.684   2.411  0.2497 -0.0838 -0.4742
  463MOL0     O62401   7.477   5.800   2.351  0.3831  0.1921 -0.3253
  463MOL0     C62402   7.349   5.841   2.355  0.2451 -0.2655 -0.1998
  463MOL0     C62403   7.275   5.837   2.233 -0.4963  0.1219  0.7030
  463MOL0     C62404   7.143   5.871   2.210  0.1098  0.4908 -0.1542
  463MOL0     C62405   7.080   5.927   2.320  1.2356 -0.9046 -0.4040
  463MOL0     O62406   6.953   5.996   2.309 -0.0239 -0.4024 -0.1241
  463MOL0     C62407   6.886   5.997   2.187  0.4625  0.5747 -0.1834
  463MOL0     C62408   6.745   6.049   2.191 -0.3931  0.1739  0.5424
  463MOL0     C62409   6.754   6.190   2.223 -0.2778  0.5762  0.4619
  463MOL0     C62410   6.605   6.246   2.229 -0.0732 -0.3322  0.2060
  463MOL0     C62411   6.595   6.386   2.296  0.7716  0.0349 -0.1434
  463MOL0     C62412   6.447   6.427   2.309 -0.2499 -0.1708 -0.2392
  463MOL0     C62413   6.438   6.579   2.332  0.9173  0.5503 -0.0052
  463MOL0     C62414   6.300   6.627   2.387  0.7334 -0.3452 -0.2338
  463MOL0    Cl62415   6.305   6.793   2.441  0.1432 -0.4444 -0.0351
  463MOL0     C62416   7.139   5.923   2.447  0.5883  0.1235  0.5509
  463MOL0     C62417   7.271   5.880   2.465 -0.0821 -0.2975 -0.2436
  463MOL0     O62418   7.438   5.627   2.498  0.8916 -0.2369  0.3907
  463MOL0     C62419   7.654   5.609   2.221 -0.0484  0.6298 -0.3443
  463MOL0     C62420   7.751   5.533   2.163 -0.5020  0.3379 -1.0245
  463MOL0     N62421   8.435   5.324   2.542 -0.9651 -0.3278  0.7259
  463MOL0     N62422   8.561   5.355   2.521  0.5290  0.0826 -0.8279
  463MOL0     C62423   9.619   5.649   2.471  0.9819  0.4499  0.1793
  463MOL0     C62424   9.748   5.668   2.428  1.1493 -0.5471 -0.0524
  463MOL0     C62425  10.198   5.602   2.389  0.3994 -0.5540  0.5799
  463MOL0     C62426  10.260   5.725   2.355  0.4865  0.1083 -0.7016
  463MOL0     C62427  10.386   5.732   2.307  0.3666  0.2242 -0.1545
  463MOL0     C62428  10.460   5.613   2.295  0.7539 -0.1091 -0.2115
  463MOL0     O62429  10.587   5.630   2.237  0.2826 -0.4117 -0.4213
  463MOL0     C62430  10.671   5.514   2.245 -0.6370  0.1289 -0.0630
  463MOL0     C62431  10.814   5.533   2.198 -0.4233 -0.3738 -0.5466
  463MOL0     C62432  10.895   5.653   2.263 -0.2469 -0.1818 -0.0448
  463MOL0     C62433  11.012   5.690   2.170 -0.3047 -0.0689 -0.1561
  463MOL0     C62434  11.077   5.577   2.094 -0.4256  0.3294 -0.6675
  463MOL0     C62435  11.123   5.489   2.028 -0.4613  0.1354  0.5013
  463MOL0     C62436  10.409   5.490   2.346  0.6900 -1.0347  0.4785
  463MOL0     C62437  10.283   5.487   2.391 -0.0397  0.4046  0.0268
  463MOL0     H62438   9.914   5.627   2.712 -2.1200 -1.3665  1.6433
  463MOL0     H62439   9.711   5.550   2.788  1.2124  2.1935  0.7804
  463MOL0     H62440   9.397   5.692   2.771 -2.9449  0.1907  0.7276
  463MOL0     H62441   9.407   5.743   2.606  0.5030 -1.9502 -1.2957
  463MOL0     H62442   9.224   5.513   2.694  1.4706 -0.7399 -1.3649
  463MOL0     H62443   9.163   5.691   2.697  2.2032  2.7141 -1.9702
  463MOL0     H62444   9.218   5.708   2.466 -0.0898 -0.9243 -1.3641
  463MOL0     H62445   9.293   5.562   2.454  0.3179  0.9447  0.0092
  463MOL0     H62446   9.089   5.430   2.503 -1.3247  0.5176  2.2080
  463MOL0     H62447   8.995   5.581   2.522 -0.9459 -1.5081  1.8477
  463MOL0     H62448   9.037   5.649   2.300 -0.3819  0.0341 -0.7204
  463MOL0     H62449   9.142   5.530   2.263 -1.1843  0.0626 -0.6754
  463MOL0     H62450   8.915   5.467   2.179  2.9708  1.9052  0.5817
  463MOL0     H62451   8.991   5.349   2.276  2.2017  0.6014  2.1618
  463MOL0     H62452   8.837   5.462   2.483  0.1435 -0.8267 -0.4795
  463MOL0     H62453   8.748   5.515   2.336  0.8777  1.5077  2.2614
  463MOL0     H62454   8.815   5.262   2.447  0.5133  2.3926  0.6765
  463MOL0     H62455   8.777   5.268   2.265  2.7109 -0.5059  1.0066
  463MOL0     H62456   8.505   5.169   2.263  5.2640 -0.4734  0.2547
  463MOL0     H62457   8.263   5.130   2.314  1.4172 -3.1997  1.2026
  463MOL0     H62458   8.243   5.136   2.495  0.9761 -0.0943  0.6317
  463MOL0     H62459   8.184   5.394   2.439 -3.4185  3.0530 -1.9583
  463MOL0     H62460   8.065   5.278   2.408 -1.2841  2.1924 -0.2269
  463MOL0     H62461   8.137   5.274   2.166 -1.5774 -0.7457  2.1983
  463MOL0     H62462   8.266   5.390   2.213 -1.2393  1.2438 -0.4765
  463MOL0     H62463   8.104   5.542   2.143  2.0410 -1.7814 -1.0540
  463MOL0     H62464   8.063   5.529   2.313 -0.1392  0.4483 -0.6650
  463MOL0     H62465   7.883   5.402   2.444 -1.7320 -0.0606  2.0042
  463MOL0     H62466   7.805   5.500   2.634  0.4556  0.1597 -1.4497
  463MOL0     H62467   7.705   5.652   2.624 -1.3406  0.9118 -3.1156
  463MOL0     H62468   7.628   5.495   2.629 -1.6232  1.6047 -1.5431
  463MOL0     H62469   7.331   5.786   2.155  1.8052  0.5042  1.9994
  463MOL0     H62470   7.116   5.869   2.105 -0.8752 -1.6865  0.0916
  463MOL0     H62471   6.936   6.065   2.118  0.6215  0.2069 -0.4345
  463MOL0     H62472   6.875   5.898   2.141 -0.4709  0.0788  1.0648
  463MOL0     H62473   6.701   6.033   2.092  1.1179 -0.0070 -0.1309
  463MOL0     H62474   6.689   5.999   2.271 -1.7767 -3.1611 -2.2527
  463MOL0     H62475   6.825   6.246   2.161 -0.7853 -0.5511 -1.1952
  463MOL0     H62476   6.791   6.203   2.325 -3.0386 -0.1208  1.6472
  463MOL0     H62477   6.581   6.252   2.122  4.3141 -1.6646 -1.0757
  463MOL0     H62478   6.548   6.170   2.283 -1.2583 -0.7710 -1.5678
  463MOL0     H62479   6.645   6.456   2.228  2.5756 -0.3730  0.7034
  463MOL0     H62480   6.651   6.387   2.390  0.6967 -2.0204 -0.0251
  463MOL0     H62481   6.403   6.394   2.214  0.7283 -2.9003  0.1594
  463MOL0     H62482   6.404   6.371   2.393 -0.1852 -1.4016 -1.0012
  463MOL0     H62483   6.455   6.641   2.243 -0.4890  1.1992  0.1461
  463MOL0     H62484   6.516   6.603   2.405  1.2853 -4.7687  1.7458
  463MOL0     H62485   6.271   6.564   2.472  0.5401 -2.3439 -1.7145
  463MOL0     H62486   6.219   6.617   2.314  0.0449  4.8860 -0.5383
  463MOL0     H62487   7.071   5.949   2.527 -2.1090 -2.7403 -0.6422
  463MOL0     H62488   7.315   5.888   2.564  1.4493  2.2193 -1.0424
  463MOL0     H62489   7.589   5.677   2.167  0.2956  1.4540  0.2615
  463MOL0     H62490   7.762   5.525   2.055 -3.5375 -2.4113 -1.2735
  463MOL0     H62491   9.526   5.646   2.415 -0.3137 -0.3777  2.2271
  463MOL0     H62492   9.753   5.701   2.325 -2.1579  0.3434 -0.0299
  463MOL0     H62493  10.205   5.818   2.367 -0.9764 -0.9033  0.8436
  463MOL0     H62494  10.430   5.825   2.273 -0.4845  1.2997  1.5341
  463MOL0     H62495  10.665   5.473   2.346 -0.9371 -0.8744 -0.4716
  463MOL0     H62496  10.642   5.436   2.174  0.8777  0.2543 -0.8483
  463MOL0     H62497  10.799   5.566   2.095  3.1412  0.8314 -0.7857
  463MOL0     H62498  10.865   5.436   2.192  1.9453  0.8130 -0.5307
  463MOL0     H62499  10.937   5.612   2.355 -3.5700 -2.2767  0.7070
  463MOL0     H62500  10.834   5.739   2.290 -0.5025  0.6017 -2.7527
  463MOL0     H62501  11.084   5.755   2.222  0.7420  0.9654 -2.7317
  463MOL0     H62502  10.974   5.758   2.093  1.5706  0.1512 -0.9358
  463MOL0     H62503  11.170   5.418   1.963  0.6052  1.6641 -0.4724
  463MOL0     H62504  10.460   5.394   2.353  1.0903 -0.9167 -0.6242
  463MOL0     H62505  10.241   5.394   2.429  0.5765  0.0996 -0.0318
  464MOL0     O62506  10.721   4.454   2.665  0.0147  0.2867 -0.4007
  464MOL0     C62507  10.716   4.410   2.547  0.0426  0.3173  0.1423
  464MOL0     O62508  10.607   4.404   2.477 -0.0837  0.0429  0.1582
  464MOL0     C62509  10.484   4.448   2.520 -0.7096 -0.0097 -0.3222
  464MOL0     C62510  10.372   4.374   2.486 -0.1159 -0.5326 -0.8474
  464MOL0     C62511  10.242   4.423   2.497 -0.5415 -0.2530 -0.1448
  464MOL0     C62512  10.220   4.552   2.560  0.6581 -0.3666  0.0587
  464MOL0     O62513  10.100   4.613   2.577 -0.5366  0.5879  0.0520
  464MOL0     C62514   9.999   4.576   2.486 -0.8285 -0.2658  0.1671
  464MOL0     C62515   9.872   4.661   2.495 -0.2481  1.0260 -0.1711
  464MOL0     C62516   9.891   4.806   2.495  0.2632 -0.2045  0.1745
  464MOL0     C62517   9.760   4.884   2.478 -0.3252 -0.6494 -0.7040
  464MOL0     C62518   9.798   5.030   2.503  0.5373 -0.1947 -0.3220
  464MOL0     C62519   9.689   5.135   2.470  0.4242  0.6436  0.9701
  464MOL0     C62520   9.561   5.102   2.549  0.2861  0.2747 -0.5734
  464MOL0     C62521   9.477   5.226   2.547  0.0279  0.6319 -0.1995
  464MOL0     N62522   9.337   5.192   2.591 -1.0896  0.0679  0.2548
  464MOL0     C62523   9.296   5.153   2.714  0.0573 -0.3101  0.1694
  464MOL0     C62524   9.167   5.108   2.695  0.7894  0.4764  0.2982
  464MOL0     C62525   9.070   5.065   2.799  0.7099 -0.3655  0.0017
  464MOL0     C62526   8.931   5.127   2.765 -1.6081  0.3848  0.9649
  464MOL0     C62527   8.831   5.100   2.874  0.0255 -0.4851 -0.0132
  464MOL0     C62528   8.714   5.187   2.860  0.3526 -0.3904 -0.5833
  464MOL0     O62529   8.638   5.160   2.983  0.0228  0.0891  0.2586
  464MOL0     C62530   8.493   5.163   2.979  0.3841  0.1797  0.3653
  464MOL0     C62531   8.440   5.140   3.101 -0.0839  0.5121 -0.0036
  464MOL0     C62532   8.297   5.118   3.119 -0.7588  0.7783 -0.0987
  464MOL0     C62533   8.253   5.072   3.262 -0.4796  0.0733  0.3673
  464MOL0     C62534   8.210   5.150   3.002  0.7487  0.1114 -0.8570
  464MOL0     C62535   8.054   5.166   3.013 -0.6411 -0.2495  0.1738
  464MOL0     O62536   7.991   5.159   2.892 -0.2445 -0.2317 -0.0419
  464MOL0     C62537   7.857   5.160   2.915  0.3454 -0.4689  0.0601
  464MOL0     C62538   7.782   5.058   2.967 -0.2694  0.0894  0.6731
  464MOL0     C62539   7.643   5.063   2.979 -0.7199 -0.3922  0.2859
  464MOL0     C62540   7.574   5.175   2.928  0.8909 -0.2907  0.0540
  464MOL0     O62541   7.437   5.181   2.926 -0.4144 -0.1704 -0.4173
  464MOL0     C62542   7.360   5.112   3.031 -0.5656  0.4922 -0.1619
  464MOL0     C62543   7.215   5.109   2.989 -0.8016 -0.3582  0.7048
  464MOL0     C62544   7.136   5.233   3.016  0.1600 -0.2951  0.3794
  464MOL0     C62545   7.013   5.248   2.932  0.1374  0.1064  0.3687
  464MOL0     C62546   6.921   5.126   2.925  0.0014 -0.2607 -0.3819
  464MOL0     C62547   6.798   5.157   2.840  1.7651  0.1468 -0.8431
  464MOL0     C62548   6.846   5.142   2.699 -0.2223  0.1424  0.8360
  464MOL0     C62549   6.727   5.154   2.589 -0.3138  0.7012 -0.5166
  464MOL0    Cl62550   6.803   5.136   2.430 -0.1509  0.1728  0.0392
  464MOL0     C62551   7.650   5.275   2.880 -0.6628 -0.6653 -0.3154
  464MOL0     C62552   7.788   5.269   2.870 -0.2179 -0.3257 -0.3037
  464MOL0     O62553   8.004   5.184   3.124  0.5164 -0.0636  0.5288
  464MOL0     C62554   8.270   5.175   2.878  0.2516 -0.1425 -0.1023
  464MOL0     C62555   8.407   5.184   2.873 -0.5502 -0.6680  0.6062
  464MOL0     N62556   9.130   5.134   2.562  0.0526 -0.1227  0.1378
  464MOL0     N62557   9.231   5.179   2.501  0.7339 -0.8067 -0.2405
  464MOL0     C62558  10.336   4.620   2.605 -0.0785 -0.4673 -0.9156
  464MOL0     C62559  10.469   4.576   2.583 -0.2502 -0.0218 -0.4145
  464MOL0     C62560  10.846   4.367   2.490  0.0598 -0.3543  0.0168
  464MOL0     C62561  10.950   4.331   2.574 -0.7102  1.2070 -0.5234
  464MOL0     C62562  11.077   4.299   2.522 -0.1228  0.0126  0.7170
  464MOL0     C62563  11.101   4.293   2.383  0.4552 -0.4324 -0.3348
  464MOL0     O62564  11.231   4.268   2.339 -0.2315 -0.1855  0.0815
  464MOL0     C62565  11.254   4.292   2.201  0.1006 -0.2159 -0.3463
  464MOL0     C62566  11.401   4.326   2.178  0.4788 -0.1973 -0.6847
  464MOL0     C62567  11.476   4.201   2.168 -0.3792 -0.6618 -0.2803
  464MOL0     C62568  11.603   4.217   2.087 -0.1764 -0.5117  0.9010
  464MOL0     C62569  11.680   4.093   2.086  0.0116  0.3000  0.0954
  464MOL0     C62570  11.737   3.988   2.063 -0.1356  0.8058  0.0531
  464MOL0     C62571  10.992   4.320   2.300  0.6644  0.6649  0.2531
  464MOL0     C62572  10.859   4.357   2.348  0.0163  0.4999 -0.2926
  464MOL0     H62573  10.383   4.280   2.432 -1.4225 -0.4630 -1.2713
  464MOL0     H62574  10.155   4.376   2.453 -0.3649  1.2500 -2.2536
  464MOL0     H62575  10.044   4.590   2.388 -1.2203 -0.6157 -0.0668
  464MOL0     H62576   9.973   4.469   2.489 -3.7294  0.2962 -1.2681
  464MOL0     H62577   9.800   4.639   2.415  0.0854  2.2757 -0.8433
  464MOL0     H62578   9.826   4.630   2.589  2.6783 -0.6293  0.8395
  464MOL0     H62579   9.938   4.839   2.588 -0.4514  0.1318  0.4296
  464MOL0     H62580   9.958   4.833   2.413  1.7635 -1.1099  1.0714
  464MOL0     H62581   9.729   4.864   2.375 -3.3535 -1.3753  0.2346
  464MOL0     H62582   9.687   4.842   2.548  2.0296 -3.1065  0.4606
  464MOL0     H62583   9.812   5.051   2.610  0.3938 -0.1698 -0.3079
  464MOL0     H62584   9.890   5.056   2.452  0.9568  0.4279  0.7081
  464MOL0     H62585   9.724   5.237   2.490 -0.2527  0.6640  2.1703
  464MOL0     H62586   9.653   5.120   2.368 -3.4355  1.5726  2.0453
  464MOL0     H62587   9.511   5.015   2.506  0.7046  0.7034 -1.9710
  464MOL0     H62588   9.589   5.076   2.652 -1.6665 -2.4208 -0.6137
  464MOL0     H62589   9.484   5.266   2.445  1.0221  1.6584  0.2615
  464MOL0     H62590   9.520   5.304   2.609 -0.7086  0.0592  1.0696
  464MOL0     H62591   9.359   5.158   2.803 -0.8252  1.8371  0.7332
  464MOL0     H62592   9.060   4.956   2.805 -1.0725 -0.4076 -2.4586
  464MOL0     H62593   9.108   5.090   2.899  1.5015 -1.1772 -0.0849
  464MOL0     H62594   8.906   5.082   2.669  2.6651 -4.0203  1.5145
  464MOL0     H62595   8.949   5.231   2.735  3.7474 -0.8213 -1.1998
  464MOL0     H62596   8.882   5.103   2.971 -2.6895 -0.7325  1.5292
  464MOL0     H62597   8.798   4.996   2.862  1.2264 -0.6576 -2.7161
  464MOL0     H62598   8.659   5.156   2.771  0.6540 -1.6773 -0.3385
  464MOL0     H62599   8.740   5.293   2.851 -1.2071  0.2250  1.4219
  464MOL0     H62600   8.509   5.130   3.184 -1.9105  0.7273  1.5873
  464MOL0     H62601   8.333   5.019   3.315 -0.7159 -1.5665 -0.8321
  464MOL0     H62602   8.215   5.158   3.319  0.6792  0.6003  0.3567
  464MOL0     H62603   8.165   5.007   3.253 -1.2776  0.9881  1.2129
  464MOL0     H62604   7.844   4.970   2.982  1.0140  0.7163 -0.7061
  464MOL0     H62605   7.587   4.981   3.023 -0.0684  0.0518  2.0302
  464MOL0     H62606   7.380   5.006   3.048  0.9462  1.3417  5.3002
  464MOL0     H62607   7.369   5.158   3.130  0.3270  1.8241 -0.8372
  464MOL0     H62608   7.222   5.084   2.883 -0.0931 -2.1810  1.1564
  464MOL0     H62609   7.155   5.030   3.034 -0.9776 -0.3737  0.4424
  464MOL0     H62610   7.205   5.313   2.987 -1.3225  0.5308 -1.0858
  464MOL0     H62611   7.108   5.240   3.121 -2.9867 -0.1402 -0.3615
  464MOL0     H62612   6.960   5.338   2.965 -0.4312 -0.1043  0.0390
  464MOL0     H62613   7.061   5.262   2.834  1.7764 -2.1683  0.7725
  464MOL0     H62614   6.903   5.090   3.027 -0.4594  1.7794  0.3155
  464MOL0     H62615   6.973   5.043   2.879 -1.2403 -0.6358 -1.1721
  464MOL0     H62616   6.719   5.081   2.847 -0.8124  2.3884 -3.3270
  464MOL0     H62617   6.757   5.254   2.870 -0.8088 -1.1559  0.2171
  464MOL0     H62618   6.898   5.048   2.675 -1.1527 -0.5601  1.4885
  464MOL0     H62619   6.917   5.219   2.669 -1.1897  0.6541 -0.2402
  464MOL0     H62620   6.667   5.245   2.598 -1.2480 -0.0259  1.1839
  464MOL0     H62621   6.664   5.064   2.599  0.7124 -0.4120 -3.2183
  464MOL0     H62622   7.597   5.359   2.838 -3.1321 -2.7598 -1.6392
  464MOL0     H62623   7.829   5.356   2.819  0.4054 -1.0062 -0.9994
  464MOL0     H62624   8.220   5.190   2.783 -0.3406  0.2576  0.2607
  464MOL0     H62625   8.457   5.198   2.778 -0.9908  1.4470  0.6301
  464MOL0     H62626  10.322   4.713   2.659 -1.8349 -1.4806  0.4654
  464MOL0     H62627  10.550   4.637   2.622 -1.9995  1.0549  1.7964
  464MOL0     H62628  10.941   4.342   2.682  1.5087 -0.7951 -0.0363
  464MOL0     H62629  11.158   4.270   2.589  0.2111 -0.1033  0.2686
  464MOL0     H62630  11.225   4.208   2.137 -0.5643 -0.8817  0.7974
  464MOL0     H62631  11.203   4.378   2.158  0.7396  1.5848  2.2466
  464MOL0     H62632  11.434   4.395   2.256 -0.7340 -0.3958  0.0290
  464MOL0     H62633  11.409   4.381   2.084  0.2680 -0.5499 -0.9124
  464MOL0     H62634  11.410   4.118   2.140 -1.4061 -0.3368  1.0772
  464MOL0     H62635  11.515   4.165   2.264  1.4479 -0.6717 -0.9899
  464MOL0     H62636  11.676   4.294   2.114  1.4687 -1.6976  0.0129
  464MOL0     H62637  11.574   4.239   1.983 -0.7123  0.5595  1.2636
  464MOL0     H62638  11.781   3.891   2.055 -1.3739  0.2247 -0.0654
  464MOL0     H62639  10.995   4.297   2.194 -1.5258 -2.7167  0.7404
  464MOL0     H62640  10.774   4.362   2.280  0.4825 -1.2247 -1.0771
  465MOL0     O62641   4.385   1.287   7.377  0.2997 -0.3175 -0.2455
  465MOL0     C62642   4.414   1.182   7.441  0.1849 -0.0840 -0.3701
  465MOL0     O62643   4.312   1.091   7.482 -0.2497 -0.1488 -0.0643
  465MOL0     C62644   4.187   1.089   7.430 -0.4677  0.4390 -0.5271
  465MOL0     C62645   4.153   1.110   7.294  0.0729 -0.7189  0.3263
  465MOL0     C62646   4.018   1.100   7.252 -0.3040  1.3000 -1.2194
  465MOL0     C62647   3.919   1.062   7.345 -0.2078 -0.3623 -0.1694
  465MOL0     O62648   3.789   1.061   7.317 -0.5715  0.9235  0.5105
  465MOL0     C62649   3.771   0.996   7.191  0.9060  0.3698  0.3395
  465MOL0     C62650   3.623   0.961   7.179  0.1555 -0.1074 -0.2785
  465MOL0     C62651   3.593   0.844   7.080 -0.3694 -0.4054 -0.8608
  465MOL0     C62652   3.452   0.855   7.030  0.6906 -0.2104 -0.8175
  465MOL0     C62653   3.391   0.733   6.952 -0.3459 -1.3513 -0.1630
  465MOL0     C62654   3.242   0.735   6.975 -0.1725 -0.2161  0.4871
  465MOL0     C62655   3.171   0.609   6.940  0.0054 -0.1830  0.5154
  465MOL0     C62656   3.016   0.630   6.925 -0.7057  0.1519 -1.0611
  465MOL0     N62657   2.945   0.502   6.898 -0.8971  0.2354 -0.3437
  465MOL0     C62658   2.848   0.431   6.956  0.4003 -0.7412  0.1354
  465MOL0     C62659   2.837   0.310   6.901 -0.3578  0.2718  0.5932
  465MOL0     C62660   2.736   0.201   6.929 -0.2551 -0.1037 -0.3007
  465MOL0     C62661   2.647   0.187   6.809 -0.3064  0.1015  0.7257
  465MOL0     C62662   2.507   0.125   6.851  0.0943 -1.0704  0.1462
  465MOL0     C62663   2.408   0.137   6.736 -0.0164 -0.4391  0.2551
  465MOL0     O62664   2.285   0.091   6.790 -0.4633  0.3811 -0.2084
  465MOL0     C62665   2.176   0.122   6.719  0.0408  0.3597  0.5052
  465MOL0     C62666   2.054   0.097   6.782  0.3355 -0.4695  0.6362
  465MOL0     C62667   1.934   0.131   6.714 -0.2043  0.0193 -0.0165
  465MOL0     C62668   1.808   0.095   6.786 -0.4883  0.7994 -0.1203
  465MOL0     C62669   1.927   0.207   6.594 -0.3234  0.8830  0.1717
  465MOL0     C62670   1.805   0.257   6.534  0.1244 -0.6782  0.6946
  465MOL0     O62671   1.685   0.280   6.599  0.0032 -0.3104 -0.5031
  465MOL0     C62672   1.586   0.350   6.544 -0.3819  0.7577  0.0494
  465MOL0     C62673   1.594   0.460   6.465  0.6727 -0.7752 -0.2226
  465MOL0     C62674   1.483   0.535   6.417  0.0589  0.5606 -0.3940
  465MOL0     C62675   1.351   0.494   6.459 -0.1662 -0.1147 -0.8800
  465MOL0     O62676   1.232   0.559   6.421  0.1404 -0.6368 -0.3810
  465MOL0     C62677   1.244   0.684   6.351 -0.8194 -0.0552 -0.1574
  465MOL0     C62678   1.117   0.766   6.358  0.0288 -0.2002 -0.4589
  465MOL0     C62679   1.117   0.873   6.250  0.5997  0.1815  0.6154
  465MOL0     C62680   0.975   0.926   6.226 -0.5458 -0.0100 -0.5254
  465MOL0     C62681   0.918   0.989   6.356  0.0290 -0.0754  0.3897
  465MOL0     C62682   0.805   1.089   6.308 -0.3477 -0.8850 -0.4099
  465MOL0     C62683   0.669   1.009   6.291  0.1493  0.1046  0.1680
  465MOL0     C62684   0.561   1.071   6.369  0.1359 -0.4863 -0.0953
  465MOL0    Cl62685   0.568   1.058   6.552 -0.1482  0.0135  0.0282
  465MOL0     C62686   1.344   0.375   6.537 -0.1556  0.4024  0.0626
  465MOL0     C62687   1.461   0.301   6.581 -0.5519 -0.6488  0.3772
  465MOL0     O62688   1.816   0.283   6.413 -0.7808  0.6339 -0.3127
  465MOL0     C62689   2.050   0.234   6.533 -0.1384  0.6008  0.5477
  465MOL0     C62690   2.169   0.178   6.587  0.2642 -0.4449 -0.5906
  465MOL0     N62691   2.926   0.304   6.799 -0.1155  0.2710  0.2421
  465MOL0     N62692   2.993   0.417   6.800 -0.2294  0.4149  0.1819
  465MOL0     C62693   3.950   1.037   7.479 -0.3763  0.1133 -0.1837
  465MOL0     C62694   4.081   1.048   7.514  0.1318  0.0237  0.4456
  465MOL0     C62695   4.553   1.148   7.488  0.5098  0.6610 -0.1842
  465MOL0     C62696   4.567   1.040   7.581 -0.2420  0.0984  0.6635
  465MOL0     C62697   4.692   0.980   7.606  0.1435 -0.1393 -0.6396
  465MOL0     C62698   4.805   1.042   7.554  0.6485  0.9591  0.4603
  465MOL0     O62699   4.935   0.995   7.570  0.7518  0.4159  0.1630
  465MOL0     C62700   4.970   0.936   7.700  1.0061 -0.0076  0.4778
  465MOL0     C62701   5.119   0.918   7.719 -0.0071  0.8272  0.4563
  465MOL0     C62702   5.188   1.056   7.728  0.3149  0.5067 -0.4417
  465MOL0     C62703   5.325   1.077   7.657  0.0319 -0.1090  0.6988
  465MOL0     C62704   5.426   0.987   7.711 -0.2218 -0.3133 -0.2698
  465MOL0     C62705   5.508   0.908   7.754 -0.8363 -0.5552 -0.0063
  465MOL0     C62706   4.788   1.159   7.477 -0.2190 -0.0632 -0.0422
  465MOL0     C62707   4.664   1.213   7.439  0.0526 -0.6443  0.4300
  465MOL0     H62708   4.232   1.106   7.220 -0.9185 -0.8051 -0.7535
  465MOL0     H62709   3.992   1.109   7.147 -1.4705 -2.7756 -1.4445
  465MOL0     H62710   3.771   1.074   7.113  0.4764 -0.3185 -0.3610
  465MOL0     H62711   3.828   0.904   7.172  0.0341 -1.1444  4.1545
  465MOL0     H62712   3.587   0.937   7.279 -2.8753 -0.9083 -1.4403
  465MOL0     H62713   3.563   1.048   7.149 -0.9522 -0.4210  0.9728
  465MOL0     H62714   3.665   0.833   6.998  0.0703  0.4422 -0.5964
  465MOL0     H62715   3.591   0.751   7.139 -2.7379  0.7950  1.1320
  465MOL0     H62716   3.388   0.883   7.114  0.4383 -0.6723 -0.8481
  465MOL0     H62717   3.447   0.942   6.964  1.2438 -0.3281 -1.0134
  465MOL0     H62718   3.413   0.736   6.845 -0.4272  0.5182 -0.1467
  465MOL0     H62719   3.422   0.637   6.995  0.9455  0.0346  2.1467
  465MOL0     H62720   3.232   0.743   7.084  0.5245 -3.3037  0.8718
  465MOL0     H62721   3.189   0.819   6.927 -2.4105 -1.6701  0.2412
  465MOL0     H62722   3.200   0.574   6.840 -2.9770  0.2386 -0.6162
  465MOL0     H62723   3.199   0.530   7.010 -2.9319 -0.7709  1.1448
  465MOL0     H62724   2.990   0.706   6.850 -1.0065  1.5426  0.3828
  465MOL0     H62725   2.975   0.669   7.019  0.1322 -0.3884 -0.4596
  465MOL0     H62726   2.783   0.456   7.038 -0.7970 -2.3347 -0.2737
  465MOL0     H62727   2.791   0.106   6.927  0.0658  0.0751 -0.1629
  465MOL0     H62728   2.690   0.219   7.026  1.6982 -1.0733  0.8768
  465MOL0     H62729   2.695   0.115   6.742 -0.3125 -1.8982  2.7615
  465MOL0     H62730   2.637   0.284   6.759 -1.3856 -0.8053 -0.9551
  465MOL0     H62731   2.471   0.174   6.942  0.1566 -4.2474  2.0248
  465MOL0     H62732   2.532   0.025   6.887  3.4777 -1.6230 -3.1219
  465MOL0     H62733   2.446   0.090   6.645 -1.2805  0.8188 -0.9613
  465MOL0     H62734   2.404   0.243   6.710  1.3781 -1.1893 -3.6998
  465MOL0     H62735   2.058   0.064   6.885 -0.6860 -1.9886  0.2167
  465MOL0     H62736   1.721   0.062   6.729 -0.5266  0.2968  0.2157
  465MOL0     H62737   1.827   0.012   6.855 -0.7092  1.5633  0.8778
  465MOL0     H62738   1.777   0.180   6.847 -0.2541  1.1519 -0.4884
  465MOL0     H62739   1.684   0.510   6.430  0.2840 -1.3817 -2.2388
  465MOL0     H62740   1.501   0.622   6.354  1.5187 -1.1240 -2.4861
  465MOL0     H62741   1.322   0.756   6.381 -1.6624 -0.0268  2.1680
  465MOL0     H62742   1.276   0.666   6.248 -0.5261  0.4555 -0.1594
  465MOL0     H62743   1.027   0.704   6.356 -0.0967 -0.0659  0.5955
  465MOL0     H62744   1.113   0.804   6.460 -0.3683 -1.9745  0.2174
  465MOL0     H62745   1.154   0.830   6.157  1.1505  0.3451  0.7560
  465MOL0     H62746   1.183   0.955   6.282  1.1049 -1.2885  3.7868
  465MOL0     H62747   0.986   0.996   6.142  5.2985 -0.6625 -0.7026
  465MOL0     H62748   0.905   0.852   6.184 -1.5165  0.3450  0.4119
  465MOL0     H62749   1.002   1.048   6.393 -1.3794  3.3397 -1.4253
  465MOL0     H62750   0.885   0.921   6.435  2.3799 -1.0693  0.5948
  465MOL0     H62751   0.798   1.162   6.389  1.3908 -1.9004  0.7015
  465MOL0     H62752   0.834   1.150   6.222  2.4900 -1.1290  0.2626
  465MOL0     H62753   0.692   0.915   6.343  2.5585  0.7942  0.4433
  465MOL0     H62754   0.650   0.979   6.187 -1.3417  2.1735 -0.2200
  465MOL0     H62755   0.472   1.023   6.328  1.4168 -1.6061 -1.7001
  465MOL0     H62756   0.572   1.179   6.352  3.1326 -0.9459 -1.7704
  465MOL0     H62757   1.249   0.340   6.576  0.0055  1.2099  1.2458
  465MOL0     H62758   1.450   0.211   6.640 -0.2499 -0.7089  0.3403
  465MOL0     H62759   2.062   0.295   6.445  0.4940 -1.1182 -0.6032
  465MOL0     H62760   2.261   0.203   6.535  0.7047 -0.7052  0.0512
  465MOL0     H62761   3.871   1.014   7.550  0.1845  2.3809  1.2659
  465MOL0     H62762   4.119   1.029   7.614  3.5690  2.3702 -0.2352
  465MOL0     H62763   4.471   1.006   7.619 -0.1021 -0.3543  0.6186
  465MOL0     H62764   4.700   0.889   7.663 -2.5317 -0.2452 -0.3327
  465MOL0     H62765   4.929   0.998   7.780  3.8224  0.5594  1.5939
  465MOL0     H62766   4.930   0.834   7.700  1.3181 -0.1346  0.9683
  465MOL0     H62767   5.166   0.865   7.635 -0.4387  4.0974 -2.0710
  465MOL0     H62768   5.142   0.864   7.812 -0.6171 -1.1602 -0.4779
  465MOL0     H62769   5.199   1.085   7.833 -0.0428 -1.8858  0.3264
  465MOL0     H62770   5.112   1.125   7.692 -0.2255  1.8025  2.7918
  465MOL0     H62771   5.364   1.180   7.665  1.1643 -0.3203 -1.3943
  465MOL0     H62772   5.313   1.056   7.550 -2.1959  1.0875  0.6552
  465MOL0     H62773   5.578   0.839   7.796 -2.4585 -3.3496 -1.6136
  465MOL0     H62774   4.886   1.204   7.465  0.2996 -1.2828 -0.5710
  465MOL0     H62775   4.649   1.297   7.372 -1.7043 -1.0969  0.1982
  466MOL0     O62776   2.854   2.573   5.198  0.0096  0.3427  0.2369
  466MOL0     C62777   2.866   2.450   5.206 -0.1943 -0.8440 -0.1249
  466MOL0     O62778   2.798   2.368   5.287 -0.0386  0.3140 -0.2397
  466MOL0     C62779   2.718   2.418   5.390 -0.1213 -0.4703  0.1831
  466MOL0     C62780   2.589   2.359   5.403 -0.2365  0.4376  0.1754
  466MOL0     C62781   2.511   2.384   5.519 -0.4561 -0.6965  0.0212
  466MOL0     C62782   2.554   2.469   5.621 -0.4087 -0.0049 -0.6676
  466MOL0     O62783   2.486   2.473   5.743 -0.1697  0.6432  0.3185
  466MOL0     C62784   2.537   2.544   5.856 -0.1724  0.2777  0.2471
  466MOL0     C62785   2.434   2.491   5.964  0.0867 -0.5750  0.6005
  466MOL0     C62786   2.295   2.570   5.953 -1.1673 -0.6098  0.5245
  466MOL0     C62787   2.212   2.571   6.076 -0.8406 -0.1101 -0.1292
  466MOL0     C62788   2.086   2.658   6.063  1.1794  0.7981 -0.9783
  466MOL0     C62789   1.995   2.634   6.186 -1.0023 -0.4937 -0.0587
  466MOL0     C62790   1.849   2.670   6.154 -1.2991  0.2180  0.1974
  466MOL0     C62791   1.745   2.598   6.245 -0.5996 -0.0427 -0.5916
  466MOL0     N62792   1.614   2.648   6.203 -0.1163 -0.0296 -0.0979
  466MOL0     C62793   1.514   2.575   6.135  0.3928 -0.8161  0.2726
  466MOL0     C62794   1.400   2.665   6.152 -0.2758  0.4072  0.3963
  466MOL0     C62795   1.257   2.647   6.115  0.4379  0.6128  0.7288
  466MOL0     C62796   1.165   2.672   6.237  0.5150  1.1102 -0.2897
  466MOL0     C62797   1.018   2.636   6.204 -0.2298  0.8662  0.2638
  466MOL0     C62798   0.918   2.656   6.314 -0.9157  0.2290 -0.6409
  466MOL0     O62799   0.785   2.652   6.262  0.1441 -0.0700  0.6024
  466MOL0     C62800   0.725   2.532   6.225 -0.4062  0.3173  0.0588
  466MOL0     C62801   0.778   2.406   6.248 -0.2441 -0.7079  0.5052
  466MOL0     C62802   0.713   2.289   6.212  0.2386 -0.2059  0.1850
  466MOL0     C62803   0.784   2.161   6.236  0.1709 -0.3576  0.7087
  466MOL0     C62804   0.576   2.301   6.171  0.2273  0.2763  0.2996
  466MOL0     C62805   0.485   2.190   6.127  1.2596 -0.0584 -0.9001
  466MOL0     O62806   0.360   2.211   6.145  0.3098  0.5343 -0.3088
  466MOL0     C62807   0.263   2.135   6.082 -0.3036  0.5331  1.4139
  466MOL0     C62808   0.241   2.002   6.106  0.0369  0.0193  0.0207
  466MOL0     C62809   0.147   1.927   6.048 -0.5249  0.4479  0.4987
  466MOL0     C62810   0.062   1.988   5.957  0.5032  0.3048  0.3704
  466MOL0     O62811  -0.052   1.911   5.938  0.6254  0.6717  0.6569
  466MOL0     C62812  -0.133   1.931   5.817  0.1438  0.8228  0.7751
  466MOL0     C62813  -0.281   1.890   5.845 -0.4500 -0.7229  0.9067
  466MOL0     C62814  -0.377   1.908   5.731 -0.6358 -0.2483 -1.6869
  466MOL0     C62815  -0.522   1.872   5.766  0.3267  0.2850  0.0684
  466MOL0     C62816  -0.624   1.921   5.665  0.6899 -0.0327  0.6275
  466MOL0     C62817  -0.761   1.850   5.687  0.2417 -0.8834 -0.1351
  466MOL0     C62818  -0.836   1.913   5.804  0.7460 -0.3488 -0.4756
  466MOL0     C62819  -0.973   1.839   5.811 -0.7238 -0.0482  0.1696
  466MOL0    Cl62820  -0.941   1.682   5.884  0.0567 -0.4025  0.2922
  466MOL0     C62821   0.085   2.120   5.919 -0.6176  0.0417 -0.9080
  466MOL0     C62822   0.187   2.198   5.982  0.4301  0.7324  0.4166
  466MOL0     O62823   0.538   2.095   6.074 -0.2754  0.5677  0.0196
  466MOL0     C62824   0.514   2.430   6.159  0.5445 -0.4200 -0.0994
  466MOL0     C62825   0.587   2.542   6.187 -0.4348  0.2612 -0.0199
  466MOL0     N62826   1.435   2.770   6.234  0.1615  0.3836 -0.9013
  466MOL0     N62827   1.560   2.761   6.262 -1.0784 -0.8172 -0.0434
  466MOL0     C62828   2.678   2.541   5.595  0.9211  0.4093 -0.4712
  466MOL0     C62829   2.763   2.504   5.489 -0.9273  0.1351 -1.1605
  466MOL0     C62830   2.969   2.382   5.122 -0.4900 -0.0848  0.2409
  466MOL0     C62831   2.981   2.237   5.123 -0.0721 -0.3416  0.6791
  466MOL0     C62832   3.080   2.170   5.050 -0.3280 -0.3852 -0.2818
  466MOL0     C62833   3.166   2.253   4.973  0.1149  0.1278  0.0061
  466MOL0     O62834   3.254   2.184   4.903 -0.8017 -0.4703  0.1785
  466MOL0     C62835   3.370   2.245   4.855  0.5272 -0.1125 -0.7376
  466MOL0     C62836   3.459   2.141   4.791  0.0187  0.6162 -1.1111
  466MOL0     C62837   3.604   2.158   4.833 -0.0823  0.2625  0.6759
  466MOL0     C62838   3.661   2.295   4.807 -1.0926 -0.0140  0.0804
  466MOL0     C62839   3.809   2.287   4.795 -0.4729 -0.6485 -0.2747
  466MOL0     C62840   3.929   2.283   4.782  0.1136 -0.8228 -0.1099
  466MOL0     C62841   3.161   2.395   4.973  0.1119 -0.0044  0.4673
  466MOL0     C62842   3.059   2.454   5.037  0.5010 -0.2968  0.6420
  466MOL0     H62843   2.546   2.286   5.336 -1.4912 -1.0727  2.4820
  466MOL0     H62844   2.425   2.321   5.535 -0.5753 -0.7413 -0.7569
  466MOL0     H62845   2.639   2.511   5.876  1.2427  2.3001 -2.7872
  466MOL0     H62846   2.544   2.653   5.848  0.1472  0.3481  1.3709
  466MOL0     H62847   2.427   2.383   5.949  0.2763 -0.5279  0.1460
  466MOL0     H62848   2.474   2.511   6.064  2.0167  0.9021 -0.3727
  466MOL0     H62849   2.316   2.671   5.918 -1.4418 -0.9583 -0.7243
  466MOL0     H62850   2.237   2.523   5.872  1.8796 -1.4416 -1.3552
  466MOL0     H62851   2.190   2.466   6.098 -4.5360  0.6246  0.3162
  466MOL0     H62852   2.267   2.612   6.161 -0.9214  0.9644 -0.5810
  466MOL0     H62853   2.099   2.765   6.049  1.7542  1.1911  1.9485
  466MOL0     H62854   2.028   2.629   5.974 -0.3462  1.6918 -0.3189
  466MOL0     H62855   1.998   2.533   6.228 -1.0993  0.1661  1.5905
  466MOL0     H62856   2.030   2.697   6.268 -0.7943  0.3782 -0.7913
  466MOL0     H62857   1.842   2.779   6.163  0.3136  0.2557  1.4459
  466MOL0     H62858   1.821   2.624   6.058 -2.4937  2.3848 -0.5670
  466MOL0     H62859   1.770   2.629   6.347 -0.3193  1.5534 -1.1183
  466MOL0     H62860   1.748   2.488   6.239 -1.4637 -0.0156 -2.0171
  466MOL0     H62861   1.508   2.479   6.085  1.6908 -0.2918 -0.9321
  466MOL0     H62862   1.233   2.720   6.037 -3.9892 -1.2103  0.0928
  466MOL0     H62863   1.244   2.549   6.069  2.7304  2.2779 -4.1874
  466MOL0     H62864   1.162   2.778   6.265  2.5170  1.2099 -0.2954
  466MOL0     H62865   1.184   2.609   6.324 -0.2449 -0.7112 -1.3722
  466MOL0     H62866   1.020   2.531   6.174  2.3957  0.6150  1.0785
  466MOL0     H62867   0.996   2.691   6.112 -0.9214 -2.3490 -1.6676
  466MOL0     H62868   0.945   2.756   6.351  2.9787 -1.3575  1.3689
  466MOL0     H62869   0.945   2.581   6.389  1.0065  1.2407 -0.2362
  466MOL0     H62870   0.880   2.413   6.284 -0.5149  1.3056  1.0250
  466MOL0     H62871   0.710   2.083   6.252 -0.5278  0.2811  0.6116
  466MOL0     H62872   0.838   2.135   6.144 -1.1588 -1.6111  0.2602
  466MOL0     H62873   0.846   2.170   6.326  0.4286  1.4947  0.3754
  466MOL0     H62874   0.310   1.964   6.181  3.1794  2.2495 -1.5419
  466MOL0     H62875   0.133   1.825   6.082  0.6034  0.6417  1.6274
  466MOL0     H62876  -0.130   2.034   5.781  0.7670  0.0200 -1.6799
  466MOL0     H62877  -0.098   1.864   5.738 -0.1610  1.3479  0.1784
  466MOL0     H62878  -0.274   1.785   5.872 -2.7508 -1.7619 -2.0696
  466MOL0     H62879  -0.308   1.961   5.925  1.2668  0.7896  0.2413
  466MOL0     H62880  -0.336   1.844   5.652  0.9470  1.4143 -2.2934
  466MOL0     H62881  -0.365   2.010   5.693 -0.8967 -0.1000 -1.3714
  466MOL0     H62882  -0.530   1.764   5.778  1.6248 -0.0402 -1.6443
  466MOL0     H62883  -0.539   1.910   5.868  1.5811  1.0939  0.0026
  466MOL0     H62884  -0.604   1.884   5.564 -2.7977 -1.1312  0.2003
  466MOL0     H62885  -0.621   2.030   5.658 -2.0750  0.0016 -2.4188
  466MOL0     H62886  -0.827   1.865   5.601 -0.2244 -2.9430 -0.1954
  466MOL0     H62887  -0.749   1.741   5.692 -0.2143 -0.8905  1.2252
  466MOL0     H62888  -0.850   2.019   5.778 -1.4817 -0.6608 -0.7619
  466MOL0     H62889  -0.786   1.915   5.901 -2.2452  0.5401  1.1937
  466MOL0     H62890  -1.027   1.824   5.717  2.6147 -1.3997 -1.7165
  466MOL0     H62891  -1.037   1.904   5.870  1.6583  1.2047  1.5335
  466MOL0     H62892   0.021   2.179   5.854  1.7943  4.8178  0.5614
  466MOL0     H62893   0.210   2.298   5.949 -0.0833  1.1279  1.2203
  466MOL0     H62894   0.408   2.436   6.138  0.0762 -1.4043  1.7330
  466MOL0     H62895   0.546   2.643   6.179 -0.6260  0.0226 -2.9065
  466MOL0     H62896   2.712   2.615   5.667 -2.6316  2.1510 -0.3684
  466MOL0     H62897   2.855   2.562   5.479 -1.8156  2.0948  1.1473
  466MOL0     H62898   2.913   2.173   5.178  0.4832 -1.6102 -0.0830
  466MOL0     H62899   3.083   2.061   5.046  1.5093 -0.4262  1.1643
  466MOL0     H62900   3.332   2.315   4.781  0.2043  0.0732 -0.3964
  466MOL0     H62901   3.430   2.301   4.928 -3.0893  1.7581  1.0268
  466MOL0     H62902   3.456   2.147   4.681  0.5549 -1.5604 -1.2960
  466MOL0     H62903   3.412   2.045   4.812 -3.7180  2.9425  2.7744
  466MOL0     H62904   3.666   2.093   4.770 -1.0716 -0.6393  0.6022
  466MOL0     H62905   3.626   2.140   4.939  1.1109  0.3828  0.4666
  466MOL0     H62906   3.637   2.375   4.877  0.5522  0.1339  0.5241
  466MOL0     H62907   3.624   2.316   4.707 -3.1549 -3.2983  0.0065
  466MOL0     H62908   4.034   2.298   4.769 -0.2629  1.5526 -0.9680
  466MOL0     H62909   3.237   2.463   4.934  1.1063  1.5530  4.6068
  466MOL0     H62910   3.046   2.562   5.036  1.9125 -0.0872  2.0066
  467MOL0     O62911   3.173   8.865   6.936  0.6549  0.7345 -0.5070
  467MOL0     C62912   3.153   8.985   6.894 -0.5755  0.3293 -0.4308
  467MOL0     O62913   3.038   9.037   6.867 -0.6380  0.7702  0.3572
  467MOL0     C62914   2.929   8.956   6.852  0.3214  0.1623  0.0997
  467MOL0     C62915   2.812   8.986   6.920 -0.0693  0.2798  0.5334
  467MOL0     C62916   2.701   8.896   6.894 -0.5626 -0.0050  0.9868
  467MOL0     C62917   2.704   8.793   6.793  0.6527 -0.3501 -0.5058
  467MOL0     O62918   2.594   8.717   6.774  0.6116  0.1631 -0.0133
  467MOL0     C62919   2.584   8.647   6.657 -0.1060  0.7558  0.4316
  467MOL0     C62920   2.449   8.568   6.655 -0.5816  0.1418  0.0966
  467MOL0     C62921   2.320   8.657   6.659  0.9215 -0.3468  0.7728
  467MOL0     C62922   2.204   8.575   6.626 -0.1334  0.2717 -0.0253
  467MOL0     C62923   2.075   8.663   6.617  0.2496 -0.7627 -0.4224
  467MOL0     C62924   1.947   8.575   6.589  0.2368  0.6520  0.0500
  467MOL0     C62925   1.831   8.660   6.550 -0.1683 -0.0199  0.4067
  467MOL0     C62926   1.753   8.735   6.661 -0.3938  0.1449  1.0861
  467MOL0     N62927   1.631   8.800   6.593 -0.1568 -0.5984  0.1761
  467MOL0     C62928   1.613   8.933   6.583 -0.1041 -1.1241  0.2725
  467MOL0     C62929   1.482   8.952   6.557 -0.4421  0.4842  0.8187
  467MOL0     C62930   1.406   9.077   6.523 -0.1477 -0.0408  0.7133
  467MOL0     C62931   1.262   9.068   6.562  0.3464  0.3299 -0.3492
  467MOL0     C62932   1.177   8.982   6.460 -0.4575  0.3957  0.5603
  467MOL0     C62933   1.027   8.976   6.497  0.2175 -0.3968  0.7179
  467MOL0     O62934   0.963   9.108   6.510  0.0829 -0.2386 -0.0910
  467MOL0     C62935   0.835   9.119   6.545  0.9219 -0.3790 -0.6931
  467MOL0     C62936   0.777   9.241   6.518 -0.8435 -0.2942  0.7557
  467MOL0     C62937   0.648   9.281   6.548 -0.1386  0.7277  0.0851
  467MOL0     C62938   0.601   9.424   6.537 -0.8619  0.4653 -0.3524
  467MOL0     C62939   0.560   9.174   6.598  0.0517  0.6120  0.2524
  467MOL0     C62940   0.419   9.200   6.642 -0.5583  0.6745 -0.3343
  467MOL0     O62941   0.380   9.108   6.745 -0.2376 -0.1946  0.5579
  467MOL0     C62942   0.255   9.099   6.806 -0.3571 -0.3011 -0.8942
  467MOL0     C62943   0.213   8.979   6.846  0.0204  0.2286  1.1578
  467MOL0     C62944   0.079   8.972   6.907 -0.2311 -1.2679 -0.0232
  467MOL0     C62945   0.005   9.086   6.925  0.2939 -0.9452  0.1277
  467MOL0     O62946  -0.121   9.080   6.979  0.2515  0.4723  0.1128
  467MOL0     C62947  -0.221   9.156   6.914  0.0443 -0.4745  0.9046
  467MOL0     C62948  -0.349   9.081   6.905  0.4298  0.3173  0.6942
  467MOL0     C62949  -0.359   9.000   6.773 -0.1188  0.0060 -0.8498
  467MOL0     C62950  -0.424   8.866   6.795 -0.3347  0.6179  0.1107
  467MOL0     C62951  -0.448   8.791   6.665  0.8398  0.6081  0.6785
  467MOL0     C62952  -0.511   8.653   6.699  0.4168  0.0896 -0.0295
  467MOL0     C62953  -0.527   8.555   6.579 -0.6122  0.3163  0.9161
  467MOL0     C62954  -0.531   8.407   6.617  0.2127 -0.0398 -0.1663
  467MOL0    Cl62955  -0.434   8.313   6.493  0.3214 -0.1554  0.1762
  467MOL0     C62956   0.056   9.208   6.886  0.5588 -0.2848  0.2900
  467MOL0     C62957   0.185   9.215   6.826  0.7052  0.0349 -0.6012
  467MOL0     O62958   0.349   9.283   6.593 -0.2784  0.0835  0.1541
  467MOL0     C62959   0.606   9.044   6.613 -0.0736  0.4360  0.8427
  467MOL0     C62960   0.743   9.017   6.586  1.0085 -0.1867  0.3303
  467MOL0     N62961   1.430   8.822   6.557  0.1008  1.0158  0.1553
  467MOL0     N62962   1.515   8.735   6.588  0.1711 -0.4968  1.3458
  467MOL0     C62963   2.823   8.782   6.728  0.2375 -1.1413  0.2232
  467MOL0     C62964   2.929   8.857   6.751  0.2031  0.5889 -0.4058
  467MOL0     C62965   3.270   9.074   6.859  0.0951  0.4884  0.1276
  467MOL0     C62966   3.263   9.173   6.754 -0.5843  0.1735 -0.5962
  467MOL0     C62967   3.379   9.253   6.721  0.2937  0.5730  0.2692
  467MOL0     C62968   3.506   9.215   6.780  0.5567 -0.2272 -0.1462
  467MOL0     O62969   3.612   9.289   6.721  0.0350  0.3938 -0.0326
  467MOL0     C62970   3.740   9.249   6.760  0.1905 -0.3869  0.1347
  467MOL0     C62971   3.837   9.366   6.718  0.0055  0.1045  0.3535
  467MOL0     C62972   3.982   9.333   6.769 -0.7356  0.1828 -0.1917
  467MOL0     C62973   4.090   9.417   6.700  0.1873  0.4248  1.0245
  467MOL0     C62974   4.169   9.335   6.604  0.4445  0.2216 -1.0024
  467MOL0     C62975   4.246   9.280   6.526  0.6601  0.2985 -0.1465
  467MOL0     C62976   3.505   9.129   6.894 -0.1235 -0.1708  0.3118
  467MOL0     C62977   3.393   9.065   6.931 -0.2373  1.2601  0.2591
  467MOL0     H62978   2.796   9.069   6.988  1.0467  3.0770 -2.3591
  467MOL0     H62979   2.600   8.911   6.929 -1.1686  1.7242 -1.2464
  467MOL0     H62980   2.590   8.711   6.569  0.5244  2.0843  1.4065
  467MOL0     H62981   2.668   8.576   6.649  0.9414  2.0699 -0.6078
  467MOL0     H62982   2.457   8.510   6.563  1.4118  1.2383 -0.4842
  467MOL0     H62983   2.450   8.500   6.740  1.8908  3.0766  2.6723
  467MOL0     H62984   2.301   8.712   6.751 -2.4642  0.7296 -0.3984
  467MOL0     H62985   2.324   8.744   6.592  1.0563  0.8779  2.3245
  467MOL0     H62986   2.212   8.527   6.528  0.6082  0.4849 -0.0730
  467MOL0     H62987   2.198   8.494   6.700 -0.0169  0.8563  0.6252
  467MOL0     H62988   2.055   8.711   6.713  0.9051 -0.2112 -0.5570
  467MOL0     H62989   2.079   8.736   6.536 -2.6946  0.1338  0.1249
  467MOL0     H62990   1.969   8.509   6.505 -3.3005 -2.5258  1.3925
  467MOL0     H62991   1.929   8.517   6.680 -1.5511  0.4476 -0.4018
  467MOL0     H62992   1.871   8.731   6.477 -2.1547  1.0852  0.3308
  467MOL0     H62993   1.761   8.590   6.505  0.5226 -0.8842  0.6438
  467MOL0     H62994   1.813   8.815   6.704  1.1405  0.2240 -1.0421
  467MOL0     H62995   1.734   8.670   6.747  1.3580  0.4273  1.7278
  467MOL0     H62996   1.688   9.012   6.587 -1.7701  0.5529 -0.0599
  467MOL0     H62997   1.447   9.167   6.569 -3.7294  1.6153  0.9974
  467MOL0     H62998   1.408   9.102   6.417  3.0431 -0.1521  0.6509
  467MOL0     H62999   1.213   9.166   6.566 -0.9780 -0.1749 -2.4542
  467MOL0     H63000   1.248   9.018   6.658 -0.0869 -4.0432 -2.4323
  467MOL0     H63001   1.231   8.888   6.444  0.0360  0.5779  1.0937
  467MOL0     H63002   1.178   9.042   6.369 -0.2664  0.2961  0.4949
  467MOL0     H63003   1.020   8.920   6.591  2.0004 -2.4723 -0.2934
  467MOL0     H63004   0.973   8.920   6.421  1.3966 -0.0154 -0.4453
  467MOL0     H63005   0.845   9.314   6.474  0.5688 -2.6460 -1.1967
  467MOL0     H63006   0.569   9.455   6.637  1.9279  0.3958  0.6554
  467MOL0     H63007   0.691   9.481   6.515 -1.4143  1.5333  0.0669
  467MOL0     H63008   0.517   9.438   6.469 -2.7485 -1.7495  1.3712
  467MOL0     H63009   0.275   8.892   6.826 -1.0401 -0.3439  0.2399
  467MOL0     H63010   0.028   8.882   6.937 -1.2603  0.2121  3.0194
  467MOL0     H63011  -0.239   9.249   6.969 -0.3776 -0.4909  0.8002
  467MOL0     H63012  -0.186   9.192   6.818 -1.9735  2.8189  1.2503
  467MOL0     H63013  -0.354   9.012   6.991  1.6371 -3.2109 -1.8134
  467MOL0     H63014  -0.432   9.150   6.922  1.5148  1.3079  2.2885
  467MOL0     H63015  -0.255   8.988   6.741  0.8462  0.6105  1.7585
  467MOL0     H63016  -0.419   9.065   6.710 -0.3264  1.5235  0.8378
  467MOL0     H63017  -0.350   8.810   6.854  0.4117  0.4640 -0.9378
  467MOL0     H63018  -0.518   8.882   6.848 -0.4091  1.0053 -0.1383
  467MOL0     H63019  -0.346   8.784   6.627  1.3990  1.5696  1.9598
  467MOL0     H63020  -0.507   8.854   6.599  1.2735  1.3664  1.0084
  467MOL0     H63021  -0.443   8.600   6.767 -1.1957 -0.6620  1.0579
  467MOL0     H63022  -0.612   8.664   6.738 -0.6145 -1.8017 -1.9224
  467MOL0     H63023  -0.439   8.571   6.517 -3.3328 -0.2568 -3.5536
  467MOL0     H63024  -0.616   8.581   6.519  0.3833 -2.7839 -2.2196
  467MOL0     H63025  -0.636   8.381   6.609  0.6740 -1.6860 -1.4002
  467MOL0     H63026  -0.479   8.384   6.711 -1.6174 -2.0457  0.4376
  467MOL0     H63027  -0.007   9.296   6.895  1.2266  0.0483  2.0011
  467MOL0     H63028   0.226   9.313   6.802  0.8053  0.1059 -0.1354
  467MOL0     H63029   0.539   8.959   6.627  0.3511 -0.9612 -3.7417
  467MOL0     H63030   0.786   8.918   6.599  0.6327 -0.6327 -1.5420
  467MOL0     H63031   2.842   8.707   6.651  0.0474  0.0865 -1.0628
  467MOL0     H63032   3.022   8.836   6.698  1.1084 -0.0819  1.3552
  467MOL0     H63033   3.164   9.185   6.712 -1.1658  0.5322  0.8357
  467MOL0     H63034   3.377   9.327   6.642  2.1369  0.4450  0.0526
  467MOL0     H63035   3.755   9.242   6.868  1.5174 -0.2724 -0.0293
  467MOL0     H63036   3.763   9.151   6.718  0.1815 -0.9312  1.3672
  467MOL0     H63037   3.806   9.461   6.762  2.2758  1.1747 -0.1844
  467MOL0     H63038   3.840   9.373   6.608 -0.2871  5.0818  0.4651
  467MOL0     H63039   3.999   9.226   6.755 -1.4043  0.2784 -2.0321
  467MOL0     H63040   3.987   9.357   6.875 -0.9926  2.7144 -0.6988
  467MOL0     H63041   4.155   9.468   6.771  1.0759  0.2338  0.3622
  467MOL0     H63042   4.040   9.489   6.635  0.6492  0.6781  0.9442
  467MOL0     H63043   4.314   9.244   6.452  0.1069 -0.0842 -0.4784
  467MOL0     H63044   3.599   9.109   6.945  0.1514  1.8882  0.6995
  467MOL0     H63045   3.398   8.992   7.012 -0.4876 -3.2540 -3.3831
  468MOL0     O63046   9.932   2.368   7.387 -0.1887  0.2620  0.1780
  468MOL0     C63047   9.912   2.365   7.264 -0.5242 -0.1965  0.8002
  468MOL0     O63048   9.998   2.386   7.172 -0.6427  0.3837  0.5221
  468MOL0     C63049  10.129   2.408   7.218 -0.1399  0.2126 -0.5815
  468MOL0     C63050  10.202   2.307   7.276  0.0749  0.0150 -0.5696
  468MOL0     C63051  10.334   2.339   7.310  0.2171 -0.3052 -0.0250
  468MOL0     C63052  10.384   2.467   7.315 -0.4741 -0.4594  1.0327
  468MOL0     O63053  10.511   2.484   7.356 -0.0114  0.2657  0.3572
  468MOL0     C63054  10.546   2.591   7.439  0.6725 -0.8681  0.4306
  468MOL0     C63055  10.627   2.539   7.555  0.3326  0.0784 -0.2042
  468MOL0     C63056  10.629   2.633   7.670  0.0469 -0.3908 -0.0359
  468MOL0     C63057  10.702   2.765   7.639 -0.1264 -0.2580 -0.9830
  468MOL0     C63058  10.717   2.858   7.765  0.1661 -0.3623  0.5198
  468MOL0     C63059  10.768   3.004   7.722  0.1531  0.1067 -0.4878
  468MOL0     C63060  10.834   3.078   7.841 -0.0364  0.2075 -0.0166
  468MOL0     C63061  10.744   3.173   7.919 -0.6669 -0.7827 -0.6971
  468MOL0     N63062  10.640   3.103   7.984 -0.5145 -0.5996 -0.7801
  468MOL0     C63063  10.659   2.994   8.073 -0.5473 -0.0777  0.1803
  468MOL0     C63064  10.532   2.977   8.121  0.4795  0.0712 -0.6590
  468MOL0     C63065  10.504   2.862   8.214  0.2744  0.7884  0.5307
  468MOL0     C63066  10.425   2.751   8.134  0.8486 -0.1256 -0.5363
  468MOL0     C63067  10.298   2.700   8.201 -0.8225  0.1579 -0.5755
  468MOL0     C63068  10.255   2.570   8.127  0.0259  0.3472 -0.2641
  468MOL0     O63069  10.153   2.498   8.204 -0.2634  0.3837 -0.7148
  468MOL0     C63070  10.020   2.521   8.188  0.2133  0.5214  0.7447
  468MOL0     C63071   9.956   2.618   8.111 -0.6147 -0.0520  0.0903
  468MOL0     C63072   9.817   2.640   8.100 -0.6121 -0.7251 -0.2232
  468MOL0     C63073   9.773   2.761   8.018 -0.3075 -0.2355 -0.0216
  468MOL0     C63074   9.732   2.556   8.177 -0.8280 -0.1713 -1.0006
  468MOL0     C63075   9.594   2.547   8.148 -0.1439  0.9467  0.0738
  468MOL0     O63076   9.526   2.481   8.241  0.8665  0.3785  0.5029
  468MOL0     C63077   9.390   2.475   8.226  0.1787 -0.1835 -0.0631
  468MOL0     C63078   9.320   2.365   8.163 -0.1261 -0.3674  0.8545
  468MOL0     C63079   9.186   2.378   8.126 -0.1656  0.0068 -0.2058
  468MOL0     C63080   9.110   2.490   8.158 -0.1576 -0.1878 -0.5958
  468MOL0     O63081   8.978   2.521   8.124  0.1273  0.0636 -0.2861
  468MOL0     C63082   8.902   2.430   8.032 -0.2568  0.4910 -0.3625
  468MOL0     C63083   8.770   2.499   7.992 -0.5773  0.4365 -0.3694
  468MOL0     C63084   8.675   2.399   7.926 -0.1437  0.4255 -0.6761
  468MOL0     C63085   8.533   2.459   7.927  0.4897  0.0674 -0.5747
  468MOL0     C63086   8.421   2.374   7.865  1.1640 -0.0316  0.4956
  468MOL0     C63087   8.296   2.449   7.813 -0.5355 -0.0250 -0.5278
  468MOL0     C63088   8.206   2.531   7.913  0.9157  0.3762 -0.3845
  468MOL0     C63089   8.148   2.437   8.022 -0.5581 -0.3901 -0.2812
  468MOL0    Cl63090   8.199   2.484   8.175  0.3748 -0.2661  0.0534
  468MOL0     C63091   9.175   2.590   8.237 -0.1827  0.4499  0.2988
  468MOL0     C63092   9.311   2.586   8.270 -0.0744  0.1693  0.2205
  468MOL0     O63093   9.551   2.602   8.046 -0.8503 -0.5250  0.1357
  468MOL0     C63094   9.794   2.451   8.249 -1.1965  1.0106 -1.3972
  468MOL0     C63095   9.933   2.433   8.251  0.2029  0.3401  0.0566
  468MOL0     N63096  10.446   3.073   8.068  0.3502  0.0728 -0.0917
  468MOL0     N63097  10.512   3.153   7.993 -0.6282 -0.2173 -0.3415
  468MOL0     C63098  10.305   2.574   7.259 -0.0239 -0.3878 -0.1039
  468MOL0     C63099  10.183   2.538   7.209  0.3702 -0.4445 -0.0030
  468MOL0     C63100   9.776   2.319   7.227  0.0447  0.3164  0.2028
  468MOL0     C63101   9.712   2.374   7.117 -0.4108  0.1652 -0.4919
  468MOL0     C63102   9.587   2.338   7.080 -0.2661 -0.2445 -0.2384
  468MOL0     C63103   9.523   2.232   7.148 -0.3690 -0.0955 -0.6867
  468MOL0     O63104   9.399   2.187   7.120  0.0004  0.4551 -0.4076
  468MOL0     C63105   9.300   2.288   7.131 -0.6666 -1.2350 -0.2495
  468MOL0     C63106   9.213   2.260   7.016  0.2249 -0.1484 -0.1677
  468MOL0     C63107   9.281   2.283   6.875 -0.3287 -0.4979  0.7112
  468MOL0     C63108   9.176   2.263   6.770 -0.0519 -0.0865  0.0455
  468MOL0     C63109   9.139   2.125   6.754 -0.6767  0.6258 -0.3349
  468MOL0     C63110   9.124   2.006   6.741  0.2172  0.1317 -1.1933
  468MOL0     C63111   9.583   2.185   7.271  0.1831 -0.8131  0.3418
  468MOL0     C63112   9.708   2.226   7.305  0.2359  0.2946  0.1007
  468MOL0     H63113  10.163   2.208   7.296 -0.7687  0.4986  0.2966
  468MOL0     H63114  10.394   2.253   7.338 -1.5098 -1.6087 -0.1958
  468MOL0     H63115  10.613   2.652   7.377  1.9278 -1.0667  1.5375
  468MOL0     H63116  10.460   2.641   7.483  0.9389 -1.0215  1.1343
  468MOL0     H63117  10.578   2.446   7.586 -1.2588  0.4917 -1.3488
  468MOL0     H63118  10.728   2.505   7.530 -0.6528 -2.7252 -0.6488
  468MOL0     H63119  10.532   2.664   7.707 -0.5730 -1.8312 -0.3598
  468MOL0     H63120  10.675   2.578   7.753 -1.8138  2.9774  3.5226
  468MOL0     H63121  10.799   2.754   7.591 -0.0655 -1.6878 -0.5744
  468MOL0     H63122  10.631   2.822   7.578  0.0926  1.8816  0.6049
  468MOL0     H63123  10.626   2.864   7.824 -1.3872 -3.0226 -1.3731
  468MOL0     H63124  10.787   2.821   7.841  2.4240  0.7605 -0.8704
  468MOL0     H63125  10.847   2.991   7.647  1.3450 -1.7174  0.9714
  468MOL0     H63126  10.687   3.064   7.681 -0.4501  0.7855  1.5861
  468MOL0     H63127  10.876   3.001   7.907  2.9181  1.9765  0.3688
  468MOL0     H63128  10.916   3.137   7.798 -2.1979  2.2606 -1.5622
  468MOL0     H63129  10.713   3.249   7.848 -0.2793 -0.0948 -0.1374
  468MOL0     H63130  10.800   3.222   7.999 -0.1658  1.0285 -2.1028
  468MOL0     H63131  10.747   2.935   8.094  0.9141  1.1841 -2.0203
  468MOL0     H63132  10.598   2.817   8.249 -0.1695 -0.9376 -0.3858
  468MOL0     H63133  10.451   2.893   8.305 -0.8418  0.8213 -0.1206
  468MOL0     H63134  10.499   2.671   8.136  1.7901  0.7269 -0.4296
  468MOL0     H63135  10.401   2.777   8.031 -2.9563 -4.1196 -0.9344
  468MOL0     H63136  10.217   2.773   8.193 -0.7371  0.8304  3.0431
  468MOL0     H63137  10.306   2.669   8.305  1.1730  0.2123 -0.6658
  468MOL0     H63138  10.337   2.500   8.108 -1.6411 -1.3141 -1.8506
  468MOL0     H63139  10.232   2.599   8.025  0.5820  3.4386  0.4044
  468MOL0     H63140  10.027   2.681   8.057  0.3802  2.2880  3.7194
  468MOL0     H63141   9.722   2.738   7.924 -2.0251  2.8376  0.0228
  468MOL0     H63142   9.721   2.835   8.080  0.8024  0.0673  0.5841
  468MOL0     H63143   9.859   2.823   7.987 -1.9521  1.4634 -1.4489
  468MOL0     H63144   9.381   2.280   8.134 -0.8322 -0.5946 -0.0004
  468MOL0     H63145   9.131   2.300   8.073 -0.1402 -0.1681  0.0219
  468MOL0     H63146   8.957   2.389   7.946  1.1534 -0.2014  0.8156
  468MOL0     H63147   8.881   2.341   8.093  1.7198  0.3836  0.2382
  468MOL0     H63148   8.737   2.536   8.089 -1.5035  2.3985 -1.3579
  468MOL0     H63149   8.783   2.585   7.926 -0.3207 -0.1628 -1.1197
  468MOL0     H63150   8.665   2.310   7.988 -0.2153  0.3303 -0.8236
  468MOL0     H63151   8.705   2.385   7.822  0.0589  2.3219 -0.9162
  468MOL0     H63152   8.498   2.478   8.029 -0.1969 -1.3303 -0.5290
  468MOL0     H63153   8.537   2.553   7.872  0.2675 -0.7809 -2.0891
  468MOL0     H63154   8.395   2.294   7.936  0.1071 -0.4429 -0.3283
  468MOL0     H63155   8.475   2.326   7.783  1.4359  0.8122  0.1810
  468MOL0     H63156   8.332   2.521   7.738 -0.9186  1.9850  1.1277
  468MOL0     H63157   8.239   2.368   7.767  0.3308 -1.1928  0.4125
  468MOL0     H63158   8.120   2.574   7.860  0.2259  0.0382  0.4420
  468MOL0     H63159   8.259   2.615   7.959  1.8395 -0.3696 -0.0416
  468MOL0     H63160   8.193   2.339   8.005 -0.6804 -0.1883 -1.8935
  468MOL0     H63161   8.039   2.432   8.008 -0.6547  2.9330 -1.7694
  468MOL0     H63162   9.119   2.677   8.269 -1.3828  0.0663 -0.6705
  468MOL0     H63163   9.355   2.662   8.334  0.2109 -0.7515  1.1601
  468MOL0     H63164   9.730   2.376   8.295  0.3348 -0.3471 -1.3958
  468MOL0     H63165   9.980   2.352   8.305  2.2260  1.2742 -0.2064
  468MOL0     H63166  10.357   2.668   7.253 -0.3765 -0.1336  0.6982
  468MOL0     H63167  10.107   2.610   7.177 -2.0612 -1.7962  2.3832
  468MOL0     H63168   9.747   2.460   7.061 -1.5565 -0.4438 -2.2655
  468MOL0     H63169   9.523   2.375   7.000 -0.9015  0.4258  0.5736
  468MOL0     H63170   9.248   2.305   7.226  2.7593  1.9739  1.3105
  468MOL0     H63171   9.333   2.392   7.118  0.5267 -0.9596  3.7779
  468MOL0     H63172   9.126   2.326   7.014  0.2028 -0.1897 -1.3041
  468MOL0     H63173   9.173   2.159   7.029 -0.5602 -0.1989 -2.5382
  468MOL0     H63174   9.362   2.209   6.866 -2.3329 -2.6060 -1.1993
  468MOL0     H63175   9.318   2.384   6.857  0.2987 -0.7970  0.2420
  468MOL0     H63176   9.218   2.291   6.674 -1.7768 -1.0956 -1.0667
  468MOL0     H63177   9.087   2.323   6.792 -2.6845 -3.4140 -0.6441
  468MOL0     H63178   9.108   1.901   6.733 -1.1148 -0.0591  2.1473
  468MOL0     H63179   9.520   2.114   7.323  0.1047 -0.4728  0.7136
  468MOL0     H63180   9.740   2.181   7.399  0.0715  1.0925  0.5429
  469MOL0     O63181   9.527   2.776   6.349  0.2661 -0.6539 -0.3499
  469MOL0     C63182   9.564   2.758   6.235  0.2301  0.0552  0.3558
  469MOL0     O63183   9.480   2.758   6.120 -0.9799 -0.2449  0.5623
  469MOL0     C63184   9.346   2.794   6.117  0.6482 -0.0977 -0.0569
  469MOL0     C63185   9.256   2.699   6.072  0.7711  0.1690 -0.1196
  469MOL0     C63186   9.117   2.728   6.070  0.2063  0.5582  0.4991
  469MOL0     C63187   9.065   2.846   6.131  0.0632 -0.6073  0.6704
  469MOL0     O63188   8.938   2.879   6.140  0.3239  0.1302 -0.0006
  469MOL0     C63189   8.855   2.766   6.171 -0.4336  0.5185  0.2205
  469MOL0     C63190   8.710   2.823   6.202  0.4520 -0.0282 -0.9464
  469MOL0     C63191   8.626   2.709   6.251 -0.1861  0.7624  0.0256
  469MOL0     C63192   8.489   2.714   6.196 -0.6794  0.4108  0.2288
  469MOL0     C63193   8.402   2.590   6.231 -0.2585 -0.3227 -0.7916
  469MOL0     C63194   8.260   2.644   6.269  0.2432  0.0403  0.2604
  469MOL0     C63195   8.173   2.709   6.152  0.0815  0.1499  0.1315
  469MOL0     C63196   8.140   2.622   6.032 -0.4521 -0.1482  0.1193
  469MOL0     N63197   8.048   2.516   6.068 -0.0832 -0.2245 -0.2479
  469MOL0     C63198   8.092   2.391   6.115  1.0090  1.1509  0.0549
  469MOL0     C63199   7.975   2.317   6.128 -0.7411  0.2132 -0.4467
  469MOL0     C63200   7.975   2.174   6.167 -0.3099 -0.1649 -0.4925
  469MOL0     C63201   7.841   2.107   6.131 -1.0536  0.2579 -0.7792
  469MOL0     C63202   7.833   1.961   6.182 -0.2908 -0.5296  0.5816
  469MOL0     C63203   7.691   1.912   6.205  0.2164 -0.8226 -0.7452
  469MOL0     O63204   7.628   1.987   6.308  0.4787 -0.5185  0.0064
  469MOL0     C63205   7.498   1.966   6.324  0.1167 -0.6385  0.2449
  469MOL0     C63206   7.420   1.867   6.256  0.2724 -0.6756 -0.1516
  469MOL0     C63207   7.283   1.867   6.275  1.1510 -0.2543 -0.1805
  469MOL0     C63208   7.204   1.762   6.194  0.0189  0.0431 -0.2213
  469MOL0     C63209   7.220   1.957   6.359 -0.9567 -0.7078  0.2860
  469MOL0     C63210   7.069   1.963   6.377 -0.4589 -1.0256  0.1183
  469MOL0     O63211   7.019   2.016   6.494  0.4882  0.9372  0.3433
  469MOL0     C63212   6.891   2.037   6.515  0.6291 -0.9560 -0.0969
  469MOL0     C63213   6.860   2.164   6.564  0.0077  0.8275 -0.5592
  469MOL0     C63214   6.735   2.196   6.596 -0.1441 -0.5425  0.4426
  469MOL0     C63215   6.638   2.099   6.589 -0.3496 -0.7282  0.1271
  469MOL0     O63216   6.513   2.131   6.623 -0.0427 -0.5771 -0.1911
  469MOL0     C63217   6.409   2.040   6.649 -0.0910 -0.6842 -0.7018
  469MOL0     C63218   6.310   2.096   6.748  0.4247 -0.9886 -0.1183
  469MOL0     C63219   6.243   2.218   6.698  0.5410  0.7343  0.7570
  469MOL0     C63220   6.148   2.180   6.579 -0.1484 -0.2545 -0.2053
  469MOL0     C63221   6.049   2.290   6.556  0.7058 -0.3203  0.0878
  469MOL0     C63222   5.963   2.247   6.430 -0.5606  0.0598  0.2917
  469MOL0     C63223   5.858   2.355   6.400 -0.3424  0.2018  1.6695
  469MOL0     C63224   5.776   2.322   6.271 -0.2994  0.0530 -0.8236
  469MOL0    Cl63225   5.887   2.340   6.116 -0.3710 -0.0293  0.2834
  469MOL0     C63226   6.666   1.970   6.535  0.3386  0.2471  0.4902
  469MOL0     C63227   6.795   1.944   6.495 -0.2655  0.2626  0.1019
  469MOL0     O63228   7.005   1.946   6.267 -0.6488 -0.3511 -0.6791
  469MOL0     C63229   7.292   2.055   6.423  0.1648 -0.7808 -0.3097
  469MOL0     C63230   7.432   2.051   6.411 -0.1015  0.1541 -0.0771
  469MOL0     N63231   7.872   2.397   6.103  0.3990 -0.3840  0.4772
  469MOL0     N63232   7.909   2.520   6.068 -0.4991 -0.2626  0.2809
  469MOL0     C63233   9.156   2.931   6.188 -0.6556  0.3021  0.7866
  469MOL0     C63234   9.298   2.907   6.185  0.2242 -0.6741 -0.2976
  469MOL0     C63235   9.704   2.733   6.219  0.4817 -0.0093 -0.1283
  469MOL0     C63236   9.747   2.667   6.095  0.6655  0.0055  0.4295
  469MOL0     C63237   9.884   2.642   6.079  0.1156  0.0937 -0.1528
  469MOL0     C63238   9.974   2.663   6.184 -0.2389 -0.4745  0.6840
  469MOL0     O63239  10.111   2.636   6.178  0.3097 -0.3380  0.3564
  469MOL0     C63240  10.174   2.616   6.049 -0.4658 -0.4496 -0.9631
  469MOL0     C63241  10.324   2.593   6.065 -0.4869  0.4875  0.9716
  469MOL0     C63242  10.404   2.606   5.928  0.7541 -0.5524 -0.3130
  469MOL0     C63243  10.549   2.567   5.936 -0.4900  0.1836  0.1867
  469MOL0     C63244  10.570   2.422   5.929 -0.8951 -1.0243 -0.2984
  469MOL0     C63245  10.608   2.302   5.913 -0.3126  0.0105 -0.4598
  469MOL0     C63246   9.926   2.717   6.303 -0.6933  0.1200 -0.6507
  469MOL0     C63247   9.792   2.751   6.323 -0.6900  0.3679 -0.2554
  469MOL0     H63248   9.293   2.612   6.019 -1.2367 -0.2360 -0.9700
  469MOL0     H63249   9.049   2.663   6.015  2.8078 -0.0540 -2.2527
  469MOL0     H63250   8.857   2.684   6.099 -0.4964 -0.2222  1.0442
  469MOL0     H63251   8.889   2.716   6.262 -0.6215  0.0728  0.0473
  469MOL0     H63252   8.715   2.904   6.276  1.0165  1.9081 -2.9808
  469MOL0     H63253   8.667   2.871   6.114  1.0093 -1.8974 -2.3074
  469MOL0     H63254   8.667   2.618   6.206 -2.1880  0.3398 -1.0636
  469MOL0     H63255   8.618   2.722   6.360 -1.3327  3.3019 -0.2855
  469MOL0     H63256   8.448   2.807   6.237 -0.0042  0.6591  0.3416
  469MOL0     H63257   8.495   2.725   6.088 -0.6546 -1.1347  0.0469
  469MOL0     H63258   8.386   2.510   6.158 -0.4500  0.7117 -1.9226
  469MOL0     H63259   8.441   2.545   6.323  4.9059  1.0311 -1.9645
  469MOL0     H63260   8.207   2.560   6.315  0.2403 -1.0378 -1.6162
  469MOL0     H63261   8.277   2.716   6.349 -2.1497  0.0230  0.8422
  469MOL0     H63262   8.078   2.748   6.191  1.2056  1.4709  1.6918
  469MOL0     H63263   8.233   2.789   6.109  1.7083 -0.2860  1.4839
  469MOL0     H63264   8.237   2.587   5.995 -1.3592  1.0450 -3.8649
  469MOL0     H63265   8.094   2.689   5.959  0.7979  0.7717  0.1344
  469MOL0     H63266   8.192   2.351   6.125  0.8920  0.9983  0.6918
  469MOL0     H63267   8.059   2.125   6.118  0.8010  0.3378  0.8418
  469MOL0     H63268   7.987   2.164   6.276 -0.9917  0.4007 -0.3602
  469MOL0     H63269   7.826   2.098   6.023  0.7413  0.6249 -1.0771
  469MOL0     H63270   7.759   2.169   6.170  0.5703  2.6222 -0.9429
  469MOL0     H63271   7.880   1.965   6.281  1.8325  0.2294 -0.3993
  469MOL0     H63272   7.887   1.890   6.119 -2.7783 -1.9149 -0.1208
  469MOL0     H63273   7.702   1.808   6.237 -2.4955 -1.0377 -0.2645
  469MOL0     H63274   7.638   1.913   6.109  1.7826  0.0191 -1.6251
  469MOL0     H63275   7.460   1.795   6.186  1.0815 -0.3563 -0.0195
  469MOL0     H63276   7.177   1.790   6.091 -2.5355  0.1886  0.4151
  469MOL0     H63277   7.262   1.670   6.203  1.1087  0.9605  4.5503
  469MOL0     H63278   7.109   1.748   6.246  0.3723 -0.6523  0.2561
  469MOL0     H63279   6.948   2.227   6.556  1.7373 -1.1132  1.6687
  469MOL0     H63280   6.705   2.295   6.627 -0.0435  0.2689 -1.8859
  469MOL0     H63281   6.357   2.007   6.559 -0.0141  1.8258 -1.7375
  469MOL0     H63282   6.456   1.952   6.695  1.2505  0.9121  1.1490
  469MOL0     H63283   6.239   2.019   6.778 -0.5297 -0.8405 -1.8552
  469MOL0     H63284   6.374   2.121   6.833  1.1399  3.2880 -1.6571
  469MOL0     H63285   6.321   2.288   6.666 -1.0121  1.3616 -1.9438
  469MOL0     H63286   6.189   2.277   6.772 -0.2684  0.9741 -0.0035
  469MOL0     H63287   6.211   2.169   6.490 -1.3653 -0.0746 -1.1112
  469MOL0     H63288   6.097   2.089   6.612  0.4392 -0.2081  0.8784
  469MOL0     H63289   6.101   2.384   6.536 -0.5399  0.4499  0.3153
  469MOL0     H63290   5.988   2.294   6.647  0.3239  0.2116 -0.1817
  469MOL0     H63291   6.031   2.232   6.346 -1.5529  1.7649 -0.8931
  469MOL0     H63292   5.909   2.153   6.445 -1.1751  0.6364  1.9083
  469MOL0     H63293   5.897   2.457   6.397 -1.1493  0.5034  1.0409
  469MOL0     H63294   5.788   2.352   6.484 -3.4976  1.3954 -0.7002
  469MOL0     H63295   5.697   2.394   6.247  0.7084  1.8127  0.8014
  469MOL0     H63296   5.735   2.222   6.288 -0.4359  0.0400 -1.2270
  469MOL0     H63297   6.590   1.894   6.523  0.4256  0.0600  1.0964
  469MOL0     H63298   6.821   1.844   6.462 -0.5168 -0.8683  2.9978
  469MOL0     H63299   7.251   2.125   6.496 -0.3353 -2.0929  0.6976
  469MOL0     H63300   7.489   2.129   6.459  1.3660  0.4409 -2.1493
  469MOL0     H63301   9.124   3.028   6.224 -1.9182  0.1285  0.1876
  469MOL0     H63302   9.366   2.974   6.236 -0.9202 -0.2904  0.7663
  469MOL0     H63303   9.679   2.642   6.013  1.8658 -0.3974 -0.4763
  469MOL0     H63304   9.920   2.592   5.990  1.0398 -1.0548  0.8225
  469MOL0     H63305  10.133   2.535   5.988  2.6974 -3.5454  0.6931
  469MOL0     H63306  10.167   2.712   5.997 -0.2038 -1.1512 -2.3155
  469MOL0     H63307  10.342   2.491   6.098 -2.0469 -1.0171 -2.3012
  469MOL0     H63308  10.364   2.669   6.133  0.4782  1.2374 -0.3812
  469MOL0     H63309  10.394   2.714   5.909 -0.0078 -0.5186  0.2486
  469MOL0     H63310  10.350   2.552   5.851  0.0916 -1.8624  1.0257
  469MOL0     H63311  10.602   2.604   6.025  0.1983 -0.7670  0.1842
  469MOL0     H63312  10.590   2.627   5.854  2.6260 -0.9258  0.8029
  469MOL0     H63313  10.631   2.198   5.895  0.6375 -0.1035  1.2135
  469MOL0     H63314  10.000   2.725   6.383 -1.3657 -0.6052  0.0752
  469MOL0     H63315   9.776   2.796   6.420  3.3146 -2.9432  2.2878
  470MOL0     O63316   4.080   3.993   4.401 -0.0569 -0.3686 -0.1322
  470MOL0     C63317   4.054   4.047   4.289 -0.0054  0.5951 -0.9824
  470MOL0     O63318   3.928   4.064   4.245  0.2703 -0.2334  0.2318
  470MOL0     C63319   3.816   4.043   4.323 -0.6930 -0.1312 -0.0630
  470MOL0     C63320   3.803   4.047   4.459  0.7069  0.0512 -0.3717
  470MOL0     C63321   3.674   4.041   4.514 -0.1402 -0.1597  0.1869
  470MOL0     C63322   3.554   4.022   4.435 -0.5591 -0.4814  0.0454
  470MOL0     O63323   3.421   4.004   4.494 -0.2265 -0.3372  0.5907
  470MOL0     C63324   3.393   4.064   4.618  0.2402  0.6511  0.8614
  470MOL0     C63325   3.241   4.063   4.650  0.3543  0.2808  1.2629
  470MOL0     C63326   3.193   3.921   4.684 -0.1869  0.0571 -1.1280
  470MOL0     C63327   3.044   3.904   4.689 -0.0967 -0.3470  0.2385
  470MOL0     C63328   2.994   3.761   4.743 -0.2305  0.1635  0.5995
  470MOL0     C63329   2.843   3.743   4.759  0.2317 -0.7032 -0.9887
  470MOL0     C63330   2.784   3.756   4.617 -0.3282 -0.1629 -0.4863
  470MOL0     C63331   2.632   3.729   4.618  0.2725 -0.2956  0.0399
  470MOL0     N63332   2.540   3.835   4.666 -1.3915 -0.1462  0.5567
  470MOL0     C63333   2.501   3.857   4.797 -0.5053  0.7399  0.0299
  470MOL0     C63334   2.403   3.953   4.788 -0.4135 -0.4632 -0.2938
  470MOL0     C63335   2.333   3.990   4.922  0.0788  0.1431 -0.6359
  470MOL0     C63336   2.203   3.907   4.936 -0.5404  0.1501  0.0630
  470MOL0     C63337   2.080   3.982   4.877 -0.5061  0.4262  0.1632
  470MOL0     C63338   1.971   3.899   4.818  1.0832  0.3310  0.4204
  470MOL0     O63339   1.933   3.800   4.906 -0.0471 -0.1718  1.1971
  470MOL0     C63340   1.852   3.707   4.845  0.2336  0.3052  0.6177
  470MOL0     C63341   1.878   3.574   4.853  0.3341 -1.0079 -1.3075
  470MOL0     C63342   1.798   3.470   4.807  0.3457 -0.1513  0.4034
  470MOL0     C63343   1.836   3.324   4.817 -0.6652  0.0101  0.9298
  470MOL0     C63344   1.672   3.516   4.756  0.2326  0.5106  0.2031
  470MOL0     C63345   1.569   3.427   4.721 -0.5366 -0.2549  0.7864
  470MOL0     O63346   1.477   3.470   4.623 -0.7261 -1.0240  0.1748
  470MOL0     C63347   1.373   3.383   4.601  0.5455  0.1419 -0.2671
  470MOL0     C63348   1.251   3.408   4.672 -0.9442 -0.3295  0.1270
  470MOL0     C63349   1.146   3.316   4.650  0.1421 -0.3976 -0.4766
  470MOL0     C63350   1.162   3.212   4.561  0.8170  0.1517 -0.3699
  470MOL0     O63351   1.067   3.121   4.528  0.2178  0.4857 -0.4566
  470MOL0     C63352   0.943   3.117   4.604  0.0385 -0.1082  0.2368
  470MOL0     C63353   0.901   2.971   4.602  0.0540 -0.3087 -0.0300
  470MOL0     C63354   0.756   2.968   4.639  0.5564  1.1002  0.9918
  470MOL0     C63355   0.692   2.832   4.601 -1.3508 -0.3920 -0.3479
  470MOL0     C63356   0.567   2.806   4.678  0.6827 -0.2416  1.0666
  470MOL0     C63357   0.445   2.907   4.662 -0.3433  0.6540  1.1778
  470MOL0     C63358   0.321   2.868   4.743 -0.0076 -0.6143 -0.1190
  470MOL0     C63359   0.278   2.725   4.758  0.0572 -0.0617  0.3594
  470MOL0    Cl63360   0.135   2.709   4.872 -0.1002 -0.2288  0.0184
  470MOL0     C63361   1.284   3.197   4.479 -0.3885  0.1687 -0.0561
  470MOL0     C63362   1.388   3.285   4.503  0.3130 -0.1895  0.1054
  470MOL0     O63363   1.556   3.331   4.800  0.0759  0.2090 -0.3758
  470MOL0     C63364   1.637   3.653   4.740 -0.1361 -0.3702  0.0304
  470MOL0     C63365   1.732   3.747   4.790  0.7600 -0.6420 -0.5489
  470MOL0     N63366   2.391   3.989   4.654  0.5741  1.2313  0.6916
  470MOL0     N63367   2.456   3.902   4.586  1.1926  0.4276  0.6355
  470MOL0     C63368   3.575   3.992   4.303 -0.0959  0.5998  0.1038
  470MOL0     C63369   3.705   4.008   4.246  0.2671 -0.1026  0.1726
  470MOL0     C63370   4.165   4.073   4.198 -0.3720 -0.2376  0.1642
  470MOL0     C63371   4.295   4.039   4.232  0.3183 -0.5443  0.0893
  470MOL0     C63372   4.397   4.070   4.143 -0.1272 -0.6445  0.2319
  470MOL0     C63373   4.380   4.139   4.025 -0.0153 -0.5870 -0.5220
  470MOL0     O63374   4.480   4.189   3.946  0.2790 -0.2806 -0.0160
  470MOL0     C63375   4.457   4.237   3.808  0.0045  0.2497  0.9401
  470MOL0     C63376   4.592   4.285   3.741 -0.1069 -0.4254 -0.1505
  470MOL0     C63377   4.687   4.171   3.701 -1.2652  0.4675 -0.3290
  470MOL0     C63378   4.810   4.143   3.793  1.0854 -0.1186  0.4341
  470MOL0     C63379   4.781   4.124   3.931 -0.2262  0.2407 -0.2180
  470MOL0     C63380   4.767   4.100   4.046  0.3756  0.5464  0.6439
  470MOL0     C63381   4.246   4.157   3.982  0.1283 -0.4684 -0.0326
  470MOL0     C63382   4.143   4.118   4.065  0.0276 -0.1636  0.5078
  470MOL0     H63383   3.882   4.073   4.529 -2.6702  1.2061  3.3967
  470MOL0     H63384   3.673   4.051   4.622  3.5808 -1.7681  0.5299
  470MOL0     H63385   3.448   4.024   4.704 -0.8817  2.6859  2.6193
  470MOL0     H63386   3.423   4.169   4.608  0.7638  0.3152 -2.0097
  470MOL0     H63387   3.213   4.133   4.730  0.9620  4.3845 -1.7930
  470MOL0     H63388   3.185   4.085   4.558  0.8593 -2.6435  0.1376
  470MOL0     H63389   3.224   3.840   4.617  0.1478  0.5732 -1.6048
  470MOL0     H63390   3.228   3.904   4.786 -2.9368  1.3328  0.1537
  470MOL0     H63391   3.008   3.981   4.758  2.5155  0.2224  1.0807
  470MOL0     H63392   3.018   3.914   4.584  2.1692  1.7612 -0.2120
  470MOL0     H63393   3.044   3.687   4.680 -1.1307  0.1688 -0.1400
  470MOL0     H63394   3.039   3.752   4.843 -0.4162 -2.3063  0.5243
  470MOL0     H63395   2.837   3.640   4.796 -0.8155 -0.4647 -0.4591
  470MOL0     H63396   2.799   3.812   4.832 -2.8557 -4.4301  1.0312
  470MOL0     H63397   2.796   3.857   4.576 -0.3468 -0.5826 -1.5480
  470MOL0     H63398   2.823   3.676   4.554 -1.5570 -0.4639 -0.8881
  470MOL0     H63399   2.601   3.640   4.674  1.0594 -0.4511  0.2442
  470MOL0     H63400   2.610   3.704   4.513  1.2323 -3.3297  0.4528
  470MOL0     H63401   2.542   3.806   4.884 -0.2156 -0.9747 -1.0736
  470MOL0     H63402   2.404   3.989   5.005  1.2710  1.5798 -1.5800
  470MOL0     H63403   2.306   4.096   4.913  2.2811  0.7099 -1.2773
  470MOL0     H63404   2.189   3.886   5.042 -1.5611  2.0104  0.3507
  470MOL0     H63405   2.210   3.818   4.873 -0.3272 -0.3139  0.7443
  470MOL0     H63406   2.115   4.063   4.812  1.5325  1.9573  2.9611
  470MOL0     H63407   2.041   4.035   4.965 -2.4716 -0.7664  0.0787
  470MOL0     H63408   2.007   3.862   4.722 -0.0270 -1.8890  0.8020
  470MOL0     H63409   1.891   3.973   4.804  0.8611  0.0454  0.1710
  470MOL0     H63410   1.976   3.555   4.896 -1.1645  0.1157  3.1476
  470MOL0     H63411   1.942   3.305   4.837  0.2866  1.9137 -1.6756
  470MOL0     H63412   1.779   3.282   4.900 -0.8201  0.0456  0.8430
  470MOL0     H63413   1.811   3.270   4.725  2.9191  1.1074 -0.8828
  470MOL0     H63414   1.246   3.490   4.742 -0.9468 -0.0177 -0.2356
  470MOL0     H63415   1.060   3.323   4.717  0.1043  0.2175 -0.5863
  470MOL0     H63416   0.954   3.140   4.711  0.0207  1.9322 -0.1563
  470MOL0     H63417   0.873   3.186   4.555  1.1069  0.7088 -0.1773
  470MOL0     H63418   0.900   2.936   4.498 -0.5996 -1.1654  0.2499
  470MOL0     H63419   0.970   2.914   4.665  0.9366  1.4563  0.6361
  470MOL0     H63420   0.693   3.041   4.587 -1.2939 -0.7821  0.4176
  470MOL0     H63421   0.750   3.000   4.743 -1.1156  4.7946 -0.0682
  470MOL0     H63422   0.672   2.820   4.494  0.5320  0.5435 -0.8604
  470MOL0     H63423   0.753   2.750   4.640 -3.8833 -1.4915  1.5652
  470MOL0     H63424   0.599   2.805   4.782  0.9290 -2.9741  1.0454
  470MOL0     H63425   0.526   2.706   4.661 -0.4599  0.5151 -0.9937
  470MOL0     H63426   0.478   3.004   4.701  2.1854  0.7850 -1.0203
  470MOL0     H63427   0.422   2.910   4.555 -2.4042  3.7658  1.5659
  470MOL0     H63428   0.239   2.920   4.693  0.0981 -0.0601  0.2664
  470MOL0     H63429   0.339   2.902   4.846  1.0619 -1.5176  0.0224
  470MOL0     H63430   0.354   2.658   4.798 -0.2564 -0.9153 -0.4406
  470MOL0     H63431   0.254   2.687   4.659  1.4513 -0.4584  0.1461
  470MOL0     H63432   1.299   3.115   4.409  0.2872  1.0355 -0.9557
  470MOL0     H63433   1.482   3.269   4.451 -0.5646 -2.3750 -0.9438
  470MOL0     H63434   1.543   3.671   4.689  0.4155 -0.3221 -1.0034
  470MOL0     H63435   1.716   3.854   4.784 -1.4953 -0.9220 -0.2291
  470MOL0     H63436   3.494   3.951   4.244  1.7829 -0.6032 -1.8187
  470MOL0     H63437   3.710   4.001   4.138 -2.0168 -2.3058  0.1242
  470MOL0     H63438   4.312   3.997   4.330 -4.6493  1.1178  1.9678
  470MOL0     H63439   4.496   4.039   4.174  0.0822 -0.6990 -0.4925
  470MOL0     H63440   4.421   4.154   3.746  1.2384  0.7112 -0.4492
  470MOL0     H63441   4.385   4.319   3.821 -0.3192 -0.1915  2.0555
  470MOL0     H63442   4.638   4.352   3.814 -2.3547  0.7190  0.2993
  470MOL0     H63443   4.578   4.345   3.650  0.5925 -0.8156 -0.5276
  470MOL0     H63444   4.736   4.197   3.607 -0.5749 -0.3499 -0.2080
  470MOL0     H63445   4.631   4.081   3.676 -0.5893 -0.5873  1.7301
  470MOL0     H63446   4.866   4.234   3.768  1.2563 -1.0601 -3.1282
  470MOL0     H63447   4.866   4.053   3.768 -1.5300 -2.3331  2.0055
  470MOL0     H63448   4.748   4.084   4.150 -2.2659 -1.1059  0.0131
  470MOL0     H63449   4.224   4.205   3.887 -0.4928 -1.3168 -0.3350
  470MOL0     H63450   4.042   4.142   4.032  0.7432  1.9440 -0.3040
  471MOL0     O63451   6.101   4.581  10.166  0.3958  0.2456  0.3377
  471MOL0     C63452   6.152   4.575  10.053 -0.4343  0.3397 -0.8004
  471MOL0     O63453   6.090   4.550   9.938  0.5335  0.2513 -0.2105
  471MOL0     C63454   5.949   4.530   9.941 -0.1028 -0.4707 -0.3524
  471MOL0     C63455   5.862   4.586   9.843 -0.3429  0.1251  0.1983
  471MOL0     C63456   5.724   4.577   9.852  0.2274  0.0294  0.4241
  471MOL0     C63457   5.664   4.494   9.946  1.0604 -0.2800  0.1082
  471MOL0     O63458   5.531   4.474   9.969 -0.1398 -0.3266 -0.0661
  471MOL0     C63459   5.444   4.580   9.945 -0.3970 -0.2529  0.4377
  471MOL0     C63460   5.316   4.532  10.027  0.0628 -0.2555 -0.6255
  471MOL0     C63461   5.191   4.621  10.005  0.0731  0.5798  0.3844
  471MOL0     C63462   5.212   4.767  10.052  0.9553  0.5833 -0.6890
  471MOL0     C63463   5.078   4.852  10.029  0.5924  0.3398  0.0877
  471MOL0     C63464   5.024   4.846   9.882  0.0422  0.0739  0.3352
  471MOL0     C63465   4.912   4.949   9.865 -0.0434  0.1597 -1.0675
  471MOL0     C63466   4.843   4.934   9.740 -0.5301 -0.0063 -0.3431
  471MOL0     N63467   4.750   5.044   9.727  0.2729 -0.5862  0.7264
  471MOL0     C63468   4.623   5.033   9.664 -0.0355  0.6436 -0.0556
  471MOL0     C63469   4.596   5.156   9.614  0.0273 -0.6383 -0.8525
  471MOL0     C63470   4.477   5.196   9.536  0.0875 -0.2474  0.2707
  471MOL0     C63471   4.345   5.181   9.610  0.1943 -0.3334 -0.8808
  471MOL0     C63472   4.228   5.224   9.519 -0.2723 -0.1323 -0.0521
  471MOL0     C63473   4.098   5.187   9.584 -0.0913 -0.2105 -0.2818
  471MOL0     O63474   3.994   5.267   9.522 -0.2331 -0.2152  0.0514
  471MOL0     C63475   3.864   5.255   9.560 -0.3802 -0.2979 -0.3747
  471MOL0     C63476   3.767   5.336   9.506 -0.5477  0.1362  0.2057
  471MOL0     C63477   3.633   5.336   9.544 -0.0477  0.3171  0.1641
  471MOL0     C63478   3.541   5.439   9.466 -0.0069  0.1441  0.0941
  471MOL0     C63479   3.586   5.245   9.642 -0.5381  0.9027  0.7515
  471MOL0     C63480   3.450   5.238   9.699 -0.7230  0.3662 -0.6166
  471MOL0     O63481   3.406   5.123   9.760  0.1846 -0.0687 -0.0615
  471MOL0     C63482   3.295   5.128   9.832  0.2556  0.0986 -0.9323
  471MOL0     C63483   3.296   5.158   9.969 -0.7418  0.1212 -0.0055
  471MOL0     C63484   3.183   5.169  10.042  0.2655 -0.0590  1.2308
  471MOL0     C63485   3.057   5.143   9.989  0.0491 -0.5960  0.0347
  471MOL0     O63486   2.949   5.149  10.074  0.8127  0.2647 -0.5287
  471MOL0     C63487   2.817   5.134  10.016  0.1663 -0.1668 -0.2133
  471MOL0     C63488   2.714   5.146  10.128 -0.5266  0.4009 -0.0464
  471MOL0     C63489   2.582   5.144  10.055 -0.1311 -0.7192  0.1617
  471MOL0     C63490   2.459   5.199  10.117  0.3580  0.8070 -0.4196
  471MOL0     C63491   2.337   5.146  10.034 -0.2701  0.1752 -0.5910
  471MOL0     C63492   2.204   5.128  10.098  0.1598 -0.3920 -0.8629
  471MOL0     C63493   2.144   5.246  10.167 -0.3145  0.1362  0.0325
  471MOL0     C63494   2.045   5.186  10.270  0.9597  0.4406  0.4128
  471MOL0    Cl63495   1.932   5.088  10.177 -0.0899  0.0607  0.3640
  471MOL0     C63496   3.048   5.115   9.853 -0.1671 -0.3711  0.2629
  471MOL0     C63497   3.168   5.110   9.777  0.6444  0.3655  0.7781
  471MOL0     O63498   3.386   5.344   9.686 -0.5106 -0.2619 -0.0311
  471MOL0     C63499   3.686   5.167   9.700  0.2249  0.2630  0.6930
  471MOL0     C63500   3.820   5.173   9.669 -0.3051  0.4144  0.5081
  471MOL0     N63501   4.706   5.238   9.638  0.3464  0.5724 -0.1588
  471MOL0     N63502   4.801   5.170   9.700  0.6324  0.0483  0.6929
  471MOL0     C63503   5.743   4.417  10.023  0.3256 -0.0369 -0.5143
  471MOL0     C63504   5.883   4.431  10.024 -0.1019  0.6140  0.3657
  471MOL0     C63505   6.302   4.591  10.043  0.3749  0.7877  0.1533
  471MOL0     C63506   6.378   4.591  10.156  0.5166  0.0825 -0.7854
  471MOL0     C63507   6.512   4.608  10.158  0.1526 -0.0964 -0.7951
  471MOL0     C63508   6.580   4.643  10.045 -0.9757  0.5142  0.3061
  471MOL0     O63509   6.712   4.669  10.060  0.2725  0.1017  0.2472
  471MOL0     C63510   6.787   4.705   9.941  0.2396  0.2090  0.3767
  471MOL0     C63511   6.817   4.578   9.856  0.4008  0.8288 -0.4016
  471MOL0     C63512   6.894   4.618   9.732 -0.6207  0.3669  0.9219
  471MOL0     C63513   7.041   4.633   9.767  0.1056 -0.2393  1.2548
  471MOL0     C63514   7.110   4.609   9.645 -0.3581  0.4204  0.6903
  471MOL0     C63515   7.162   4.583   9.537  0.2324 -0.8800  0.2681
  471MOL0     C63516   6.501   4.658   9.922 -1.1102 -0.2300 -1.1206
  471MOL0     C63517   6.364   4.631   9.922 -0.6761 -0.3479 -0.6011
  471MOL0     H63518   5.921   4.626   9.761 -1.6768 -1.5489 -1.6561
  471MOL0     H63519   5.678   4.619   9.763  0.2071  0.4919  0.6491
  471MOL0     H63520   5.473   4.683   9.967 -3.7842  1.4579 -2.0843
  471MOL0     H63521   5.421   4.578   9.838 -1.8350  1.6646  0.6517
  471MOL0     H63522   5.289   4.433   9.988 -1.2117 -1.8006  3.5892
  471MOL0     H63523   5.339   4.526  10.134 -0.5016 -0.1293 -0.4941
  471MOL0     H63524   5.187   4.627   9.896  0.5896  3.2072  0.4417
  471MOL0     H63525   5.101   4.565  10.035  1.7822 -2.4282  0.3299
  471MOL0     H63526   5.238   4.775  10.157  0.4562 -1.5273 -0.3578
  471MOL0     H63527   5.292   4.810   9.991  1.5513 -0.1676 -0.4568
  471MOL0     H63528   4.999   4.820  10.097 -0.8539  1.9402 -0.7594
  471MOL0     H63529   5.097   4.956  10.059  0.8859  0.1347  0.6319
  471MOL0     H63530   5.114   4.865   9.822  0.3251 -0.4962  0.5749
  471MOL0     H63531   4.979   4.749   9.860 -3.7877  2.1661 -2.2263
  471MOL0     H63532   4.832   4.942   9.939 -2.1722 -0.8101 -3.2891
  471MOL0     H63533   4.944   5.053   9.868 -2.2721  0.8864  0.8494
  471MOL0     H63534   4.799   4.834   9.735  0.9868 -0.9572  2.7359
  471MOL0     H63535   4.924   4.941   9.666  2.0092 -0.2045  2.2665
  471MOL0     H63536   4.560   4.945   9.659  1.0918 -0.1566 -0.8639
  471MOL0     H63537   4.480   5.304   9.519 -0.1900  0.3379  3.3424
  471MOL0     H63538   4.473   5.151   9.436 -0.6554  0.7998 -0.1948
  471MOL0     H63539   4.337   5.249   9.695  0.0337  0.4356 -1.4962
  471MOL0     H63540   4.334   5.078   9.645  1.5177 -0.8996 -2.0133
  471MOL0     H63541   4.220   5.187   9.416  0.0972 -0.6090  0.0839
  471MOL0     H63542   4.242   5.332   9.509  1.2954 -0.4292 -1.6081
  471MOL0     H63543   4.103   5.200   9.693  0.5915 -0.6405 -0.2527
  471MOL0     H63544   4.076   5.081   9.566  1.0557  0.0397 -3.9030
  471MOL0     H63545   3.799   5.415   9.438 -2.9605  0.4616 -0.6437
  471MOL0     H63546   3.450   5.391   9.429  0.5834 -1.7729  0.9719
  471MOL0     H63547   3.525   5.519   9.539 -1.6946  0.1612 -0.2615
  471MOL0     H63548   3.591   5.487   9.382 -1.1121 -0.8911 -1.2053
  471MOL0     H63549   3.390   5.183  10.018 -0.3445  1.2478 -1.2861
  471MOL0     H63550   3.186   5.187  10.150 -1.2684  1.9814  0.9934
  471MOL0     H63551   2.800   5.214   9.944  2.3577 -1.0984 -1.8542
  471MOL0     H63552   2.811   5.035   9.971  3.0529  0.2010 -1.6270
  471MOL0     H63553   2.703   5.062  10.196 -2.6450 -0.2310 -1.0792
  471MOL0     H63554   2.718   5.243  10.179  0.5369  1.6660 -2.3352
  471MOL0     H63555   2.563   5.038  10.034  3.3824 -1.4294 -0.0860
  471MOL0     H63556   2.590   5.194   9.958 -0.1185  0.8912  0.9749
  471MOL0     H63557   2.454   5.156  10.218  1.3783  0.9832 -0.2838
  471MOL0     H63558   2.460   5.307  10.135 -0.2578  0.8972 -0.8745
  471MOL0     H63559   2.366   5.049   9.995  0.9371  1.0053 -1.8606
  471MOL0     H63560   2.320   5.209   9.946  1.9620  0.3917 -0.9342
  471MOL0     H63561   2.130   5.085  10.029 -2.6386  1.5287  0.7282
  471MOL0     H63562   2.208   5.048  10.172 -1.0069  0.1181 -0.2126
  471MOL0     H63563   2.103   5.318  10.096  1.8595  0.9209 -0.5333
  471MOL0     H63564   2.215   5.308  10.223 -0.6181 -1.0943  1.8516
  471MOL0     H63565   1.990   5.268  10.316  0.0124  0.9909 -1.5948
  471MOL0     H63566   2.102   5.135  10.348  5.3346  3.3266 -0.4891
  471MOL0     H63567   2.955   5.093   9.802 -0.3102  0.7473  0.0065
  471MOL0     H63568   3.149   5.075   9.676  2.3462  2.2462 -0.2500
  471MOL0     H63569   3.679   5.108   9.791 -0.1886  1.2967  1.3519
  471MOL0     H63570   3.890   5.117   9.730  1.2435  0.4914 -1.1030
  471MOL0     H63571   5.684   4.353  10.088  1.0554 -1.2857 -1.0378
  471MOL0     H63572   5.941   4.358  10.080 -1.9877 -0.2187  1.3463
  471MOL0     H63573   6.342   4.584  10.258 -0.4812 -0.6972 -1.1745
  471MOL0     H63574   6.575   4.612  10.246 -0.1038 -1.6865 -0.5092
  471MOL0     H63575   6.738   4.781   9.879  1.8723  1.4876  0.6057
  471MOL0     H63576   6.878   4.743   9.988  1.1690 -0.6585 -0.6627
  471MOL0     H63577   6.721   4.536   9.828 -0.2397  0.7253  1.7591
  471MOL0     H63578   6.885   4.509   9.907  0.9831 -0.1642 -2.3986
  471MOL0     H63579   6.851   4.711   9.695  2.6339  2.4462  1.8632
  471MOL0     H63580   6.882   4.545   9.651 -0.4356 -2.2145  3.0919
  471MOL0     H63581   7.073   4.551   9.833  3.6818  0.4463  0.5520
  471MOL0     H63582   7.068   4.730   9.808  1.9400 -1.1724  2.3809
  471MOL0     H63583   7.208   4.571   9.441 -1.7987 -1.6254 -0.6766
  471MOL0     H63584   6.553   4.690   9.832  1.6950  1.0154  0.7858
  471MOL0     H63585   6.303   4.652   9.835 -1.5886 -0.6650 -0.0537
  472MOL0     O63586   6.821   0.959   3.062 -0.1333  0.5867 -0.3950
  472MOL0     C63587   6.887   1.050   3.109  0.0770  0.0305 -0.0442
  472MOL0     O63588   6.837   1.160   3.176  0.4623  0.6010 -0.0329
  472MOL0     C63589   6.702   1.178   3.200 -0.5489 -0.5184  0.2369
  472MOL0     C63590   6.616   1.197   3.090  0.7338  0.7612 -0.1222
  472MOL0     C63591   6.483   1.215   3.110  0.4753  0.1950 -0.2083
  472MOL0     C63592   6.427   1.227   3.240  0.0115  0.5449  0.6407
  472MOL0     O63593   6.293   1.251   3.245  0.2227 -0.6079  0.2342
  472MOL0     C63594   6.261   1.332   3.353 -0.1841 -0.5411 -0.2727
  472MOL0     C63595   6.108   1.354   3.360  0.4937  0.9818  0.0404
  472MOL0     C63596   6.063   1.405   3.495 -0.3966  0.6741 -0.8065
  472MOL0     C63597   5.918   1.437   3.501  0.2629  0.7781 -0.0030
  472MOL0     C63598   5.884   1.552   3.402  0.2696 -0.0084  0.0269
  472MOL0     C63599   5.745   1.608   3.426  0.4381 -0.1091 -0.1427
  472MOL0     C63600   5.728   1.720   3.325 -0.2013  0.0842  0.1518
  472MOL0     C63601   5.596   1.791   3.333  0.0043  0.2608 -0.2080
  472MOL0     N63602   5.563   1.853   3.460  0.1064  0.2065 -0.0173
  472MOL0     C63603   5.455   1.821   3.541 -0.3343  0.1656 -0.1613
  472MOL0     C63604   5.457   1.906   3.647  0.5051  0.4844  1.1964
  472MOL0     C63605   5.385   1.904   3.782 -0.0886 -0.5333 -0.0862
  472MOL0     C63606   5.232   1.871   3.792 -0.0582  0.0963  0.0470
  472MOL0     C63607   5.161   1.948   3.909 -1.1089  0.6259  0.1524
  472MOL0     C63608   5.013   1.897   3.934  0.0515  0.2787 -0.4368
  472MOL0     O63609   4.929   1.959   3.834  0.1021 -0.0118  0.4001
  472MOL0     C63610   4.793   1.958   3.869  0.0983  0.1412  0.4147
  472MOL0     C63611   4.742   1.850   3.944  0.0040 -0.2691  0.0044
  472MOL0     C63612   4.605   1.841   3.976 -0.0905 -0.3957 -1.0032
  472MOL0     C63613   4.559   1.708   4.051  0.2427 -0.2127  0.6142
  472MOL0     C63614   4.524   1.940   3.915 -0.4280 -0.5495 -0.6657
  472MOL0     C63615   4.378   1.931   3.917  0.2199 -0.8732 -0.1169
  472MOL0     O63616   4.307   2.034   3.856 -0.1605  0.3647 -1.0208
  472MOL0     C63617   4.178   2.027   3.893 -0.3241 -0.8905 -0.5471
  472MOL0     C63618   4.081   1.949   3.834 -0.1303 -0.1868  1.2277
  472MOL0     C63619   3.948   1.958   3.865 -0.3629  0.0474  0.1925
  472MOL0     C63620   3.915   2.040   3.982  0.0460  1.2085  0.0715
  472MOL0     O63621   3.786   2.069   4.025 -0.0723 -0.0650  0.0655
  472MOL0     C63622   3.668   2.030   3.957 -0.4401  0.1018  0.0511
  472MOL0     C63623   3.543   2.064   4.033 -0.0730 -0.3112  0.4585
  472MOL0     C63624   3.420   2.075   3.940  0.5581  0.1777 -0.6622
  472MOL0     C63625   3.300   2.147   4.007  0.0756  0.2251 -0.0625
  472MOL0     C63626   3.175   2.120   3.922  0.6523 -0.1295  0.1525
  472MOL0     C63627   3.049   2.212   3.964  0.0992  0.3457  1.5226
  472MOL0     C63628   2.958   2.221   3.845  0.7116  0.4682 -0.2843
  472MOL0     C63629   2.841   2.316   3.879  0.4194  0.4028 -0.0187
  472MOL0    Cl63630   2.698   2.259   3.787 -0.1866 -0.2774 -0.2173
  472MOL0     C63631   4.013   2.111   4.049 -0.2533  0.3360 -0.1565
  472MOL0     C63632   4.150   2.109   4.010 -1.0692 -0.2119 -0.2958
  472MOL0     O63633   4.320   1.839   3.974 -0.3182  0.0889  0.1245
  472MOL0     C63634   4.580   2.048   3.839  0.4249  0.2438  0.1712
  472MOL0     C63635   4.716   2.061   3.823  0.1915 -0.6374  0.2557
  472MOL0     N63636   5.554   2.006   3.614  0.1665 -0.7664  0.6868
  472MOL0     N63637   5.614   1.969   3.503 -0.5078  0.2861  0.2426
  472MOL0     C63638   6.515   1.204   3.347  0.1305  0.3918  0.1072
  472MOL0     C63639   6.650   1.181   3.328 -0.6036  0.3179  0.8664
  472MOL0     C63640   7.037   1.042   3.094 -0.8768  0.7292 -0.6858
  472MOL0     C63641   7.090   0.927   3.028 -0.4931  0.0260  0.3659
  472MOL0     C63642   7.227   0.907   3.017 -0.2631 -0.0454  0.9289
  472MOL0     C63643   7.312   1.010   3.049 -0.8150 -0.7153 -0.6939
  472MOL0     O63644   7.437   0.993   3.006 -0.3476 -0.5924 -0.4302
  472MOL0     C63645   7.541   1.082   3.042  0.3139  0.8664 -0.7491
  472MOL0     C63646   7.668   1.070   2.966 -0.3053 -0.6286  0.0740
  472MOL0     C63647   7.791   1.130   3.053  0.1576  0.9469 -0.4490
  472MOL0     C63648   7.786   1.277   3.088  0.4859  0.6432 -0.8179
  472MOL0     C63649   7.781   1.373   2.974 -0.4969 -0.5502 -0.3607
  472MOL0     C63650   7.778   1.474   2.902 -0.4992  0.4759  0.0082
  472MOL0     C63651   7.264   1.130   3.108 -0.1479  0.3033 -1.2429
  472MOL0     C63652   7.130   1.144   3.129  0.2558 -1.1539  0.6164
  472MOL0     H63653   6.650   1.173   2.990  0.5064 -4.0095  0.7307
  472MOL0     H63654   6.422   1.211   3.020 -0.4054  2.0042  0.2651
  472MOL0     H63655   6.283   1.276   3.445 -3.6519  0.1555  1.1188
  472MOL0     H63656   6.313   1.428   3.356 -0.8340 -0.2002  0.9266
  472MOL0     H63657   6.089   1.432   3.285 -0.6661  2.4336  1.7545
  472MOL0     H63658   6.055   1.265   3.327 -0.7198  0.9960  1.8162
  472MOL0     H63659   6.091   1.329   3.568  0.8283  1.3456 -0.5535
  472MOL0     H63660   6.115   1.497   3.523 -3.3607  1.9317  1.0929
  472MOL0     H63661   5.854   1.356   3.464 -2.0381  1.7961  1.5401
  472MOL0     H63662   5.885   1.469   3.600 -2.3107  0.5831 -0.7369
  472MOL0     H63663   5.948   1.637   3.425 -0.0092  1.0498 -2.7872
  472MOL0     H63664   5.894   1.513   3.300  1.4451  0.2165  0.0414
  472MOL0     H63665   5.664   1.538   3.402 -1.3864  2.4734 -2.0832
  472MOL0     H63666   5.744   1.638   3.531  2.4785 -0.8881  0.1430
  472MOL0     H63667   5.809   1.793   3.334  1.0927 -1.0937 -1.4416
  472MOL0     H63668   5.721   1.695   3.219 -1.8172 -0.1472  0.2780
  472MOL0     H63669   5.513   1.722   3.313 -0.0709 -0.1923  1.5357
  472MOL0     H63670   5.590   1.868   3.255  1.5853  0.8036  0.1601
  472MOL0     H63671   5.394   1.732   3.533  0.8101 -0.7494  0.9031
  472MOL0     H63672   5.414   1.815   3.838 -3.1781 -2.7268 -1.6457
  472MOL0     H63673   5.405   1.996   3.837  2.1020 -0.0553 -1.5428
  472MOL0     H63674   5.214   1.764   3.804  0.2159  0.0587  0.1405
  472MOL0     H63675   5.186   1.891   3.694 -1.5190 -2.8869  0.0331
  472MOL0     H63676   5.166   2.056   3.894 -0.3621  0.3121 -2.2508
  472MOL0     H63677   5.225   1.937   3.997 -2.7670  1.1072  1.4669
  472MOL0     H63678   4.976   1.937   4.029  0.0207  0.7416 -0.6429
  472MOL0     H63679   5.005   1.788   3.941  0.0954  0.2623 -0.6303
  472MOL0     H63680   4.806   1.768   3.976  2.2101  0.6321 -1.8244
  472MOL0     H63681   4.646   1.659   4.096  1.2758  1.4411  0.4853
  472MOL0     H63682   4.492   1.738   4.132  0.3790 -1.1892  1.1117
  472MOL0     H63683   4.506   1.639   3.983  0.1516 -0.0563  0.5265
  472MOL0     H63684   4.108   1.905   3.738  0.9835  0.7222  1.0913
  472MOL0     H63685   3.868   1.917   3.804 -0.4324 -2.6123  1.8698
  472MOL0     H63686   3.671   2.080   3.860  0.4046  2.1678  1.0837
  472MOL0     H63687   3.676   1.922   3.943 -0.0819  0.1127  0.1720
  472MOL0     H63688   3.510   2.006   4.120 -0.3404 -1.1794 -0.2097
  472MOL0     H63689   3.567   2.161   4.077  1.0099  0.5743 -1.9428
  472MOL0     H63690   3.379   1.975   3.923 -1.7413  0.9006  0.3458
  472MOL0     H63691   3.449   2.114   3.842  3.2576  0.6232  0.2056
  472MOL0     H63692   3.278   2.124   4.111  1.7989 -4.0689 -0.4500
  472MOL0     H63693   3.320   2.254   3.995  0.0293  0.3318  0.7703
  472MOL0     H63694   3.144   2.016   3.937  1.7707 -0.2830  1.6282
  472MOL0     H63695   3.208   2.132   3.818  0.4851  2.8421  0.3693
  472MOL0     H63696   2.997   2.168   4.051  0.0271 -1.7365  0.4881
  472MOL0     H63697   3.075   2.316   3.988 -4.1733  1.8318  0.7363
  472MOL0     H63698   2.916   2.125   3.817  1.9240  0.3058 -1.6285
  472MOL0     H63699   3.030   2.253   3.769  1.1860  2.5123  0.9417
  472MOL0     H63700   2.869   2.417   3.845 -2.5506  0.6999 -1.9946
  472MOL0     H63701   2.806   2.318   3.983 -2.8799  3.3340 -0.9842
  472MOL0     H63702   3.984   2.187   4.121 -0.1372  1.7884 -1.5651
  472MOL0     H63703   4.234   2.161   4.053 -1.9583  0.5551  0.5687
  472MOL0     H63704   4.515   2.124   3.796  1.3037  0.6329 -0.4933
  472MOL0     H63705   4.757   2.144   3.767 -3.0500  0.3200 -0.9409
  472MOL0     H63706   6.480   1.189   3.448 -0.6085 -1.4107 -0.3689
  472MOL0     H63707   6.724   1.157   3.403  0.9822 -2.6887 -1.4284
  472MOL0     H63708   7.020   0.852   2.994 -0.8059  1.1620 -1.6535
  472MOL0     H63709   7.268   0.825   2.958 -0.9273  0.2557  0.0365
  472MOL0     H63710   7.513   1.185   3.022  0.9228  0.9866 -0.9920
  472MOL0     H63711   7.563   1.072   3.149  2.8120 -0.7237 -1.3114
  472MOL0     H63712   7.650   1.119   2.870 -4.3594 -1.7291  0.1154
  472MOL0     H63713   7.695   0.967   2.945  2.3328  0.0001 -0.0177
  472MOL0     H63714   7.883   1.111   2.998  0.6024  1.2404  0.1871
  472MOL0     H63715   7.791   1.064   3.141  0.6535  0.2166 -0.9821
  472MOL0     H63716   7.872   1.310   3.148 -0.3312  0.7428  0.3302
  472MOL0     H63717   7.693   1.292   3.144  1.7180  0.1804  1.4838
  472MOL0     H63718   7.769   1.565   2.845 -2.3456 -0.3182 -1.0855
  472MOL0     H63719   7.337   1.206   3.132 -1.2871  1.1643 -0.3372
  472MOL0     H63720   7.103   1.244   3.160 -1.2386 -0.6286 -2.0296
  473MOL0     O63721   5.222   6.349   7.251  0.0194 -0.3021 -0.0074
  473MOL0     C63722   5.242   6.225   7.259  0.7760 -0.5699 -0.5569
  473MOL0     O63723   5.145   6.129   7.242 -0.2917  0.8043  0.0053
  473MOL0     C63724   5.020   6.163   7.257 -0.2664 -0.6264  0.2418
  473MOL0     C63725   4.969   6.211   7.379 -0.8903 -0.9054 -0.4178
  473MOL0     C63726   4.838   6.260   7.390  0.5963  1.5714  0.1997
  473MOL0     C63727   4.749   6.232   7.280  0.8293 -0.0172 -1.0694
  473MOL0     O63728   4.615   6.271   7.289 -0.0328  0.0734 -0.1418
  473MOL0     C63729   4.554   6.284   7.415 -0.0785  0.1978 -0.3843
  473MOL0     C63730   4.423   6.360   7.396  1.1878  0.7414 -0.4244
  473MOL0     C63731   4.317   6.260   7.365  0.2494 -0.1776 -0.3451
  473MOL0     C63732   4.183   6.331   7.343 -0.3977 -0.1968  0.9760
  473MOL0     C63733   4.066   6.237   7.313 -0.3407  0.0746 -0.6248
  473MOL0     C63734   3.931   6.312   7.287  0.2521 -0.3442 -0.3645
  473MOL0     C63735   3.828   6.204   7.263  0.6467  0.3116 -0.1684
  473MOL0     C63736   3.679   6.232   7.263 -0.3955  0.0946  0.3899
  473MOL0     N63737   3.603   6.114   7.223  0.3283  0.0034 -0.3672
  473MOL0     C63738   3.552   6.016   7.313 -0.7957  0.4027  0.4728
  473MOL0     C63739   3.519   5.913   7.228  0.5214  0.2786  0.2745
  473MOL0     C63740   3.503   5.768   7.269  0.3547 -0.0284 -0.2743
  473MOL0     C63741   3.357   5.713   7.271  0.1729 -0.5610  0.2069
  473MOL0     C63742   3.339   5.568   7.285 -0.4810  0.3918 -1.1185
  473MOL0     C63743   3.196   5.517   7.282 -0.6335 -0.2611  0.8137
  473MOL0     O63744   3.126   5.594   7.376  0.6736  0.0845  0.0461
  473MOL0     C63745   3.047   5.518   7.458  0.7707  0.7123 -0.4989
  473MOL0     C63746   3.098   5.484   7.583  0.0303 -0.3110  0.5703
  473MOL0     C63747   3.034   5.401   7.671 -0.4183 -0.2463  0.5099
  473MOL0     C63748   3.100   5.381   7.814  0.2417  0.9224  0.6258
  473MOL0     C63749   2.906   5.343   7.641  0.0226 -0.1409  0.7482
  473MOL0     C63750   2.823   5.259   7.739  0.1979 -0.0268 -0.2418
  473MOL0     O63751   2.725   5.190   7.671 -0.2040  0.6175  0.6102
  473MOL0     C63752   2.650   5.102   7.753 -0.2135  0.0702 -0.0886
  473MOL0     C63753   2.711   5.017   7.853  0.3404 -1.0903  0.3277
  473MOL0     C63754   2.635   4.944   7.949 -0.0840  0.2687 -0.7250
  473MOL0     C63755   2.500   4.960   7.951  1.2564  0.1487  0.7334
  473MOL0     O63756   2.431   4.891   8.047  0.3398  0.6644 -0.3238
  473MOL0     C63757   2.290   4.896   8.055 -0.1952 -0.5209  0.1134
  473MOL0     C63758   2.240   4.801   7.940 -0.5710  0.1752  0.5139
  473MOL0     C63759   2.097   4.827   7.899  1.0345  1.0066  0.7670
  473MOL0     C63760   2.028   4.686   7.897  0.4698 -0.5091  0.7489
  473MOL0     C63761   1.886   4.689   7.844  0.3793  0.1518 -0.2300
  473MOL0     C63762   1.804   4.755   7.962  1.0593  0.1448 -0.5232
  473MOL0     C63763   1.778   4.665   8.090  0.8902 -1.0543 -0.6958
  473MOL0     C63764   1.671   4.719   8.189  0.1659 -0.1228  0.0813
  473MOL0    Cl63765   1.704   4.881   8.231 -0.3708  0.4097 -0.3535
  473MOL0     C63766   2.438   5.039   7.852 -0.4203 -0.8592  0.0969
  473MOL0     C63767   2.512   5.104   7.747  0.4584  0.3029  0.0966
  473MOL0     O63768   2.833   5.265   7.859  0.1507  0.1311  0.2591
  473MOL0     C63769   2.859   5.366   7.505  0.0197  0.5518  0.5400
  473MOL0     C63770   2.927   5.458   7.422 -0.9563 -0.0005 -0.3694
  473MOL0     N63771   3.539   5.949   7.094 -0.4813 -0.2416 -0.2813
  473MOL0     N63772   3.577   6.077   7.094  0.4614 -0.5274 -0.1617
  473MOL0     C63773   4.793   6.170   7.166  0.0688  0.0399  0.3895
  473MOL0     C63774   4.932   6.145   7.145 -0.4370  0.0538  0.3913
  473MOL0     C63775   5.373   6.182   7.283 -0.3618  0.7349  0.2059
  473MOL0     C63776   5.483   6.260   7.257 -0.9037  0.2170 -0.2286
  473MOL0     C63777   5.615   6.208   7.283  0.5878  0.8092  0.3813
  473MOL0     C63778   5.639   6.073   7.312  1.0723 -0.0622  0.4583
  473MOL0     O63779   5.775   6.038   7.317 -0.3113 -0.0143 -0.4482
  473MOL0     C63780   5.803   5.908   7.297 -0.7408  0.3141 -0.9565
  473MOL0     C63781   5.823   5.886   7.149 -0.2548  0.3985  0.1649
  473MOL0     C63782   5.917   5.769   7.121 -0.4533 -0.3485  0.4971
  473MOL0     C63783   5.870   5.640   7.180  0.6132  0.1602  0.4120
  473MOL0     C63784   5.733   5.595   7.138 -0.8476  0.1521  0.2226
  473MOL0     C63785   5.617   5.570   7.110  0.1483  0.4067 -0.0572
  473MOL0     C63786   5.523   5.998   7.346 -0.9344 -0.6806 -0.1143
  473MOL0     C63787   5.393   6.047   7.324 -0.4819  0.4429  0.7022
  473MOL0     H63788   5.042   6.223   7.459 -0.2409  1.6206 -1.3127
  473MOL0     H63789   4.810   6.305   7.484 -1.1992 -1.3419  1.2199
  473MOL0     H63790   4.527   6.183   7.449 -2.6201  0.6058 -0.9883
  473MOL0     H63791   4.617   6.343   7.482  1.6680 -0.6836 -1.2087
  473MOL0     H63792   4.397   6.408   7.491 -1.8140  0.5256 -1.0290
  473MOL0     H63793   4.442   6.433   7.317  0.1257  0.5417 -0.8777
  473MOL0     H63794   4.354   6.201   7.280 -0.0268  0.5506 -0.9818
  473MOL0     H63795   4.296   6.191   7.447 -2.0976  0.7736 -0.0762
  473MOL0     H63796   4.156   6.404   7.420  4.1319  1.8728  0.8652
  473MOL0     H63797   4.197   6.398   7.258  2.9176 -0.1284  1.4481
  473MOL0     H63798   4.096   6.167   7.235 -2.7743 -2.3429  0.4355
  473MOL0     H63799   4.053   6.178   7.404  3.8126 -2.3880 -1.3795
  473MOL0     H63800   3.912   6.363   7.382  1.2338 -2.9191  1.3481
  473MOL0     H63801   3.932   6.379   7.200  2.7750  0.4181  0.1436
  473MOL0     H63802   3.851   6.148   7.172  0.2829 -0.1470  0.0164
  473MOL0     H63803   3.840   6.126   7.338  2.7332 -0.1170 -0.8876
  473MOL0     H63804   3.664   6.311   7.189  1.8581  1.1141  0.9499
  473MOL0     H63805   3.653   6.274   7.360  0.8491  1.0334  0.3310
  473MOL0     H63806   3.553   6.020   7.422 -2.1847 -0.4162  0.5449
  473MOL0     H63807   3.556   5.703   7.199 -0.6449 -2.3232  1.0168
  473MOL0     H63808   3.559   5.762   7.363  2.3559 -1.4756 -1.4628
  473MOL0     H63809   3.308   5.731   7.174  1.0933  0.9373  0.0005
  473MOL0     H63810   3.310   5.755   7.360  1.8732 -0.9740  1.3350
  473MOL0     H63811   3.376   5.541   7.383  0.1885  1.7816 -0.9667
  473MOL0     H63812   3.402   5.521   7.209 -0.4093 -1.5297  0.0907
  473MOL0     H63813   3.197   5.411   7.309 -1.1553 -0.4152  0.2479
  473MOL0     H63814   3.158   5.530   7.180  1.5714 -2.4053 -0.3740
  473MOL0     H63815   3.201   5.511   7.603  0.6191 -2.0189  0.0263
  473MOL0     H63816   3.072   5.467   7.876  1.1115  1.3835  0.3926
  473MOL0     H63817   3.067   5.282   7.849  0.0760  0.5419 -0.5564
  473MOL0     H63818   3.209   5.372   7.816  0.2415  0.8700  0.3653
  473MOL0     H63819   2.819   5.008   7.855  0.7613  2.3013  3.9995
  473MOL0     H63820   2.675   4.875   8.023 -2.6872 -0.9429 -0.3373
  473MOL0     H63821   2.267   4.852   8.153 -2.2486 -1.0366 -0.5646
  473MOL0     H63822   2.243   4.995   8.050 -1.2512 -1.0632 -1.6129
  473MOL0     H63823   2.296   4.798   7.846  1.2515  1.4682  1.4737
  473MOL0     H63824   2.253   4.706   7.994  1.7897  2.1190  3.7739
  473MOL0     H63825   2.081   4.879   7.804 -0.8074 -0.7373  0.0427
  473MOL0     H63826   2.045   4.889   7.972 -2.7052  0.8931 -1.5486
  473MOL0     H63827   2.082   4.616   7.833  0.9970  0.1392  0.4717
  473MOL0     H63828   2.019   4.639   7.995 -2.1169 -2.0012 -0.1075
  473MOL0     H63829   1.856   4.586   7.823 -1.5869  0.9512 -1.6452
  473MOL0     H63830   1.878   4.733   7.744  4.1365 -1.4579 -1.4255
  473MOL0     H63831   1.846   4.852   7.991  0.0173 -0.1068  2.0970
  473MOL0     H63832   1.707   4.777   7.917  0.8534 -2.9472 -1.8698
  473MOL0     H63833   1.871   4.679   8.147 -1.0125 -0.7473  2.5616
  473MOL0     H63834   1.758   4.562   8.059 -6.3397 -0.4975  0.3628
  473MOL0     H63835   1.674   4.656   8.278  1.7171  0.8988  0.7967
  473MOL0     H63836   1.570   4.719   8.146 -0.0745 -0.7622  0.6273
  473MOL0     H63837   2.330   5.049   7.844 -0.3018 -1.0295 -2.7806
  473MOL0     H63838   2.456   5.150   7.666 -1.2289 -2.5385 -0.4860
  473MOL0     H63839   2.765   5.324   7.472  0.5201 -0.4054  0.2772
  473MOL0     H63840   2.876   5.491   7.332  0.0833 -0.1772 -1.0370
  473MOL0     H63841   4.722   6.166   7.084  1.5091  0.4532 -0.9248
  473MOL0     H63842   4.965   6.105   7.050 -2.5515 -1.6381  0.3035
  473MOL0     H63843   5.480   6.361   7.219  0.0805 -0.3451 -1.9376
  473MOL0     H63844   5.708   6.259   7.264  2.6970 -2.5732  0.8362
  473MOL0     H63845   5.894   5.880   7.352 -0.5962 -0.2665 -1.4794
  473MOL0     H63846   5.731   5.837   7.337 -0.1926 -0.5258 -1.4342
  473MOL0     H63847   5.881   5.969   7.107  4.2491 -1.8293  1.4002
  473MOL0     H63848   5.729   5.868   7.096 -1.5640  2.3862  1.6407
  473MOL0     H63849   6.014   5.800   7.162 -1.2417 -0.5193  2.6079
  473MOL0     H63850   5.915   5.752   7.013  0.3411 -0.1281  0.4376
  473MOL0     H63851   5.876   5.641   7.289 -0.6623  0.8523  0.4867
  473MOL0     H63852   5.942   5.563   7.149  1.9166  0.1155  3.3167
  473MOL0     H63853   5.512   5.575   7.089  0.6757  0.1826 -3.1903
  473MOL0     H63854   5.539   5.900   7.389 -2.1554  0.2895  2.7780
  473MOL0     H63855   5.316   5.972   7.338 -2.5556  2.5364  0.9085
  474MOL0     O63856   5.717  10.255   9.888  0.1563 -0.5103  0.1045
  474MOL0     C63857   5.792  10.169   9.942  0.5628  0.4314 -0.6960
  474MOL0     O63858   5.777  10.110  10.065  0.3238  0.2133 -0.4035
  474MOL0     C63859   5.670  10.158  10.143 -1.1402  0.3592 -0.0064
  474MOL0     C63860   5.567  10.070  10.179 -0.9218 -0.4622 -0.6729
  474MOL0     C63861   5.466  10.107  10.267 -0.9951 -0.1630 -0.0205
  474MOL0     C63862   5.468  10.236  10.318  0.1857  0.0926 -0.4773
  474MOL0     O63863   5.373  10.295  10.389  0.3222 -0.0297  0.6262
  474MOL0     C63864   5.303  10.217  10.487  0.5687  0.8476  0.6744
  474MOL0     C63865   5.222  10.307  10.576  1.1865  0.0209 -0.7320
  474MOL0     C63866   5.115  10.382  10.484  0.2198  0.6807 -0.1336
  474MOL0     C63867   5.028  10.482  10.559  0.0251  0.0335 -0.1684
  474MOL0     C63868   4.903  10.414  10.619 -0.9237  0.0697 -0.1564
  474MOL0     C63869   4.802  10.499  10.696  0.2351 -0.1359 -0.1616
  474MOL0     C63870   4.679  10.423  10.754  0.4610 -0.2354  0.0552
  474MOL0     C63871   4.588  10.528  10.825  0.0478 -0.0236 -0.5807
  474MOL0     N63872   4.482  10.463  10.900 -0.1371  0.0850 -0.0238
  474MOL0     C63873   4.491  10.359  10.985  0.1019 -0.0574 -0.5442
  474MOL0     C63874   4.371  10.346  11.051  0.5395 -0.1053  0.4940
  474MOL0     C63875   4.319  10.240  11.145 -0.6773 -1.2611 -0.1525
  474MOL0     C63876   4.193  10.278  11.232 -0.4371 -0.3940 -0.4697
  474MOL0     C63877   4.063  10.296  11.161  0.3117 -1.3192 -0.4438
  474MOL0     C63878   4.033  10.191  11.051 -0.6033  0.0159  0.8848
  474MOL0     O63879   4.020  10.051  11.085 -0.8673  0.2794  0.0623
  474MOL0     C63880   3.925  10.000  11.166 -0.5772  0.4373 -0.3237
  474MOL0     C63881   3.927   9.864  11.195 -0.3993 -0.3470 -0.6512
  474MOL0     C63882   3.826   9.800  11.268  0.5681 -0.0155  0.4313
  474MOL0     C63883   3.842   9.655  11.303  0.0377  0.1602 -0.2205
  474MOL0     C63884   3.704   9.873  11.288 -0.4661  0.6088  0.0449
  474MOL0     C63885   3.602   9.814  11.377  0.5959  0.1428  0.8345
  474MOL0     O63886   3.474   9.836  11.329 -0.4502  0.2351  0.4184
  474MOL0     C63887   3.360   9.812  11.410 -0.4462 -0.4867  0.1959
  474MOL0     C63888   3.341   9.871  11.533 -0.4213 -0.2095  0.6097
  474MOL0     C63889   3.247   9.835  11.631 -0.0826 -0.0938  0.4034
  474MOL0     C63890   3.148   9.744  11.597 -1.2140 -0.2619  0.3714
  474MOL0     O63891   3.054   9.699  11.674  0.3656 -0.6637 -0.7370
  474MOL0     C63892   3.044   9.766  11.802 -0.1593 -0.6610 -0.2768
  474MOL0     C63893   2.923   9.709  11.862 -0.7497 -0.6254  0.2623
  474MOL0     C63894   2.920   9.746  12.009 -0.6393  0.1767 -0.1829
  474MOL0     C63895   2.782   9.716  12.050  0.5334  0.5298 -0.5124
  474MOL0     C63896   2.772   9.645  12.188  0.4829  0.1063  0.6587
  474MOL0     C63897   2.622   9.652  12.240  0.7731  0.9594  0.7043
  474MOL0     C63898   2.591   9.606  12.383 -0.2837  0.5462 -0.3555
  474MOL0     C63899   2.601   9.726  12.488 -0.4486  0.7557 -0.2654
  474MOL0    Cl63900   2.769   9.786  12.487 -0.0311 -0.4408  0.6621
  474MOL0     C63901   3.158   9.688  11.462  0.3746  0.2691 -0.1041
  474MOL0     C63902   3.265   9.723  11.372  0.8360 -0.4837 -0.1321
  474MOL0     O63903   3.634   9.770  11.488 -0.1849 -0.1641 -0.1833
  474MOL0     C63904   3.701  10.013  11.256 -0.4144 -0.1491 -0.7043
  474MOL0     C63905   3.811  10.074  11.193  0.2351  0.1987  0.3615
  474MOL0     N63906   4.298  10.455  11.014  1.1560 -0.0244  0.3350
  474MOL0     N63907   4.352  10.516  10.915 -0.0090 -0.0306  0.6468
  474MOL0     C63908   5.552  10.330  10.262  0.3782 -0.4431  0.6331
  474MOL0     C63909   5.654  10.291  10.179 -0.0548 -0.4388 -0.7285
  474MOL0     C63910   5.906  10.122   9.864 -0.5109 -0.6464 -0.4599
  474MOL0     C63911   5.957  10.194   9.759  0.6032  0.4799  0.3841
  474MOL0     C63912   6.074  10.150   9.695 -0.5057  0.2811 -0.0186
  474MOL0     C63913   6.135  10.031   9.731  0.8682 -0.8120 -0.2569
  474MOL0     O63914   6.247   9.983   9.669  0.1449  0.7538 -0.5163
  474MOL0     C63915   6.235   9.852   9.608 -0.9028 -0.3744 -0.1896
  474MOL0     C63916   6.355   9.766   9.624  0.2164  0.1187  0.4102
  474MOL0     C63917   6.374   9.720   9.763  0.2141  0.5242 -0.8606
  474MOL0     C63918   6.274   9.612   9.802  0.6221 -0.1257  0.0384
  474MOL0     C63919   6.317   9.562   9.930  0.3330  0.9784  0.0031
  474MOL0     C63920   6.352   9.513  10.035  0.6062  0.9503 -0.7833
  474MOL0     C63921   6.077   9.956   9.839  0.5096 -0.1518  0.2280
  474MOL0     C63922   5.969  10.009   9.912  0.0188 -0.3739  0.6051
  474MOL0     H63923   5.577   9.967  10.144  2.0085 -0.1037 -1.1129
  474MOL0     H63924   5.395  10.026  10.280  1.2073 -2.3920 -1.0204
  474MOL0     H63925   5.234  10.150  10.435 -2.3921  1.5721  3.4039
  474MOL0     H63926   5.370  10.160  10.552 -1.3290  1.8854  3.7980
  474MOL0     H63927   5.186  10.243  10.657 -1.0214 -2.2896 -3.3530
  474MOL0     H63928   5.284  10.391  10.608 -0.7332  1.8621 -1.6231
  474MOL0     H63929   5.180  10.434  10.414  3.3800 -0.3690  1.7721
  474MOL0     H63930   5.055  10.307  10.432  0.1530 -0.3807  1.3863
  474MOL0     H63931   5.072  10.533  10.645 -3.5838  1.9292  0.7608
  474MOL0     H63932   5.004  10.554  10.481  3.2932  1.7755  0.2643
  474MOL0     H63933   4.854  10.379  10.528 -2.7961 -0.8806  1.1358
  474MOL0     H63934   4.921  10.320  10.672 -4.2215 -1.7565 -1.9486
  474MOL0     H63935   4.857  10.555  10.772  0.2373  0.0673 -0.3099
  474MOL0     H63936   4.767  10.569  10.619  2.0883 -2.1211 -3.0163
  474MOL0     H63937   4.619  10.376  10.675 -0.0970  1.9326 -0.8864
  474MOL0     H63938   4.704  10.341  10.822 -3.6050 -0.9084  1.0045
  474MOL0     H63939   4.546  10.586  10.742  0.8802 -1.8387 -2.3479
  474MOL0     H63940   4.647  10.593  10.890 -1.5636  1.1756 -0.2387
  474MOL0     H63941   4.576  10.293  10.998 -0.1318 -0.0884  1.0992
  474MOL0     H63942   4.300  10.155  11.078  0.9034 -2.9216  1.3538
  474MOL0     H63943   4.405  10.210  11.206 -1.4360 -0.8183  1.1886
  474MOL0     H63944   4.205  10.362  11.300 -1.6807 -0.7737  0.2532
  474MOL0     H63945   4.187  10.190  11.297  1.8867 -1.7799 -2.0076
  474MOL0     H63946   4.055  10.399  11.127  0.5215 -1.4400 -0.8677
  474MOL0     H63947   3.985  10.289  11.238  0.7415  1.6164  0.3599
  474MOL0     H63948   4.115  10.200  10.980  0.2053 -0.8774  1.6825
  474MOL0     H63949   3.944  10.214  10.991  0.0769 -0.8916 -0.5483
  474MOL0     H63950   4.026   9.822  11.182  0.0592  0.8744 -1.3451
  474MOL0     H63951   3.824   9.625  11.406  0.3673 -0.5229 -0.3552
  474MOL0     H63952   3.788   9.585  11.238  1.2104 -3.2537  2.1731
  474MOL0     H63953   3.947   9.625  11.294 -0.4424 -1.5559 -0.5466
  474MOL0     H63954   3.417   9.942  11.565  0.7542 -1.3073  0.3324
  474MOL0     H63955   3.257   9.870  11.734  0.7353  2.6018 -0.4990
  474MOL0     H63956   3.134   9.746  11.862  0.6705 -0.2861 -1.3775
  474MOL0     H63957   3.033   9.874  11.794 -1.3757 -0.6328  1.2005
  474MOL0     H63958   2.837   9.746  11.806 -0.0713 -0.2354 -0.5492
  474MOL0     H63959   2.919   9.600  11.853  2.3541 -0.9038  1.1828
  474MOL0     H63960   2.927   9.853  12.030 -2.2155  0.4640 -0.9438
  474MOL0     H63961   2.986   9.681  12.068  0.0085  0.9603 -0.0361
  474MOL0     H63962   2.723   9.808  12.053 -1.2249 -0.5580  2.9594
  474MOL0     H63963   2.738   9.649  11.976  0.7930 -1.3324  0.9557
  474MOL0     H63964   2.837   9.693  12.262 -0.9381  4.2608 -0.5199
  474MOL0     H63965   2.807   9.542  12.180  0.5265  0.2622 -1.9159
  474MOL0     H63966   2.586   9.755  12.238 -1.1136  0.4197  2.6641
  474MOL0     H63967   2.552   9.595  12.178 -0.5392 -1.7700  4.3069
  474MOL0     H63968   2.669   9.535  12.414 -2.0532 -1.2187  0.3315
  474MOL0     H63969   2.496   9.555  12.401  0.0015  0.2898  0.4722
  474MOL0     H63970   2.586   9.694  12.591  2.0861 -0.9088 -0.3300
  474MOL0     H63971   2.527   9.805  12.475 -0.8386  0.7503  1.7068
  474MOL0     H63972   3.094   9.616  11.412  0.4781  0.9857 -1.3312
  474MOL0     H63973   3.269   9.687  11.270 -4.2502  1.5158 -1.3036
  474MOL0     H63974   3.613  10.067  11.290 -0.1991  1.1990 -2.1598
  474MOL0     H63975   3.803  10.182  11.186 -0.5677  0.0837 -0.7770
  474MOL0     H63976   5.545  10.435  10.288 -0.7903  0.1425 -1.6914
  474MOL0     H63977   5.728  10.362  10.141 -1.5830 -0.0189 -3.1610
  474MOL0     H63978   5.915  10.289   9.728 -0.2832 -0.8875 -3.0080
  474MOL0     H63979   6.107  10.202   9.605 -1.6919  0.2950 -0.4660
  474MOL0     H63980   6.138   9.805   9.629 -1.9661  1.2085 -1.3116
  474MOL0     H63981   6.223   9.880   9.503  0.9544  0.0344 -0.3203
  474MOL0     H63982   6.446   9.824   9.606 -1.1010  1.8761 -0.7675
  474MOL0     H63983   6.354   9.687   9.548  3.1575  0.5003 -0.1535
  474MOL0     H63984   6.376   9.797   9.841  1.5554 -1.5178  1.2587
  474MOL0     H63985   6.471   9.669   9.768  0.5975  1.2978 -0.0911
  474MOL0     H63986   6.283   9.528   9.733  0.8520 -0.2901  0.2703
  474MOL0     H63987   6.173   9.655   9.806  0.2569 -1.0227  0.8750
  474MOL0     H63988   6.391   9.480  10.129 -3.6426  0.5086  1.0152
  474MOL0     H63989   6.117   9.865   9.883 -1.1185 -1.3444 -0.6503
  474MOL0     H63990   5.931   9.959  10.000  0.1084 -2.1435 -0.3301
  475MOL0     O63991   1.142   4.930   2.169 -0.0959  0.2474 -0.0418
  475MOL0     C63992   1.240   4.865   2.194  0.2821 -0.0660  0.2595
  475MOL0     O63993   1.239   4.726   2.183 -0.1691 -0.3850 -0.1836
  475MOL0     C63994   1.114   4.659   2.197 -0.5999 -0.5519 -0.0229
  475MOL0     C63995   0.986   4.705   2.253  0.3323  0.0858  0.2651
  475MOL0     C63996   0.872   4.626   2.261 -0.1211  0.9074  0.0498
  475MOL0     C63997   0.875   4.497   2.201 -0.1725  0.3724 -0.2822
  475MOL0     O63998   0.754   4.431   2.215  0.1257  0.9488  1.1687
  475MOL0     C63999   0.738   4.295   2.178  0.3684 -0.2830  0.1505
  475MOL0     C64000   0.766   4.209   2.297  0.6080 -0.3441 -0.2633
  475MOL0     C64001   0.789   4.063   2.260 -0.5885 -0.2290 -0.6132
  475MOL0     C64002   0.787   3.974   2.395  0.4694 -0.3699 -0.1142
  475MOL0     C64003   0.656   3.902   2.404  0.3633 -0.3444  0.1771
  475MOL0     C64004   0.651   3.794   2.514  0.0750 -0.0303 -0.1061
  475MOL0     C64005   0.513   3.769   2.569  0.5523 -0.5829  0.2192
  475MOL0     C64006   0.414   3.735   2.463  0.2561  0.1057  0.1988
  475MOL0     N64007   0.283   3.687   2.514  0.0933 -0.8787 -0.2361
  475MOL0     C64008   0.211   3.724   2.629 -0.2849 -0.5083 -0.0686
  475MOL0     C64009   0.100   3.656   2.623  1.0112  0.0847  0.2492
  475MOL0     C64010  -0.023   3.636   2.712  0.6804  0.6570 -0.1105
  475MOL0     C64011  -0.034   3.494   2.778 -0.0315 -0.4604 -0.0483
  475MOL0     C64012  -0.126   3.491   2.906 -0.0711 -0.2923 -0.3686
  475MOL0     C64013  -0.266   3.553   2.901 -0.0117 -0.9842 -0.5137
  475MOL0     O64014  -0.277   3.692   2.874  0.0460 -0.1520 -0.2213
  475MOL0     C64015  -0.404   3.737   2.840 -0.9216  0.3338  0.4323
  475MOL0     C64016  -0.425   3.858   2.765  0.2567 -0.1476 -0.3832
  475MOL0     C64017  -0.557   3.895   2.719  0.5041  0.5754  0.9278
  475MOL0     C64018  -0.576   4.022   2.637  0.4363  0.4461  0.1031
  475MOL0     C64019  -0.672   3.824   2.771  0.2250 -0.2380  0.6544
  475MOL0     C64020  -0.811   3.864   2.751 -0.2740 -0.2544  0.4153
  475MOL0     O64021  -0.844   3.989   2.791  0.0669 -0.2207 -0.2137
  475MOL0     C64022  -0.976   4.038   2.799  0.0194 -0.0761  0.0674
  475MOL0     C64023  -0.992   4.179   2.807 -0.2825  0.1629  0.5825
  475MOL0     C64024  -1.114   4.241   2.817 -0.4671 -0.5410  0.2508
  475MOL0     C64025  -1.233   4.169   2.825 -0.4251 -0.3837 -0.1533
  475MOL0     O64026  -1.360   4.221   2.847 -0.3404 -0.5805  0.2473
  475MOL0     C64027  -1.373   4.369   2.864 -0.4927  0.5284  0.1729
  475MOL0     C64028  -1.494   4.428   2.937 -0.3292  0.3275  0.3533
  475MOL0     C64029  -1.620   4.369   2.867 -0.9638  0.5524  0.2508
  475MOL0     C64030  -1.732   4.432   2.939  0.6002 -0.0547  0.6410
  475MOL0     C64031  -1.868   4.370   2.911 -0.1572  0.1585  0.9790
  475MOL0     C64032  -1.979   4.425   2.989  0.0827  0.1888  0.1217
  475MOL0     C64033  -2.116   4.407   2.919 -1.3248  0.5593 -0.4476
  475MOL0     C64034  -2.219   4.464   3.018 -0.4250  0.2949 -0.5650
  475MOL0    Cl64035  -2.382   4.482   2.955 -0.3666  0.7273 -0.3087
  475MOL0     C64036  -1.216   4.032   2.821  0.3572  0.0270 -0.0458
  475MOL0     C64037  -1.094   3.965   2.807  0.0703 -0.3256 -0.1022
  475MOL0     O64038  -0.895   3.780   2.710  0.2621  0.5053  1.0890
  475MOL0     C64039  -0.657   3.701   2.839  0.5099 -1.0451  0.2838
  475MOL0     C64040  -0.530   3.663   2.874 -0.4292 -0.0445 -0.4407
  475MOL0     N64041   0.107   3.568   2.508 -0.3637 -1.0643  0.2881
  475MOL0     N64042   0.218   3.591   2.445  0.0790  0.2759 -0.8604
  475MOL0     C64043   0.989   4.445   2.132 -0.4390 -0.1337 -0.6046
  475MOL0     C64044   1.108   4.530   2.139 -0.5581 -0.1848  1.2354
  475MOL0     C64045   1.363   4.946   2.224 -0.2551  0.1407  0.1740
  475MOL0     C64046   1.352   5.082   2.221 -0.0016 -0.5364  0.3223
  475MOL0     C64047   1.456   5.161   2.281 -0.4825  0.2461 -0.0689
  475MOL0     C64048   1.569   5.101   2.335  0.3349 -0.1900 -0.7686
  475MOL0     O64049   1.659   5.195   2.378 -0.2452 -0.0700  0.2725
  475MOL0     C64050   1.777   5.144   2.456  1.2652  0.0986  0.1953
  475MOL0     C64051   1.850   5.271   2.497  0.7774  0.1565  0.2396
  475MOL0     C64052   1.959   5.238   2.605 -0.1691 -0.7355  0.3399
  475MOL0     C64053   2.033   5.374   2.634 -0.5120  0.1477  0.6864
  475MOL0     C64054   2.145   5.333   2.724 -0.2463  0.1329  0.3753
  475MOL0     C64055   2.245   5.302   2.783 -0.4598  0.2328  0.4340
  475MOL0     C64056   1.589   4.963   2.326 -0.0880  0.1732  0.3335
  475MOL0     C64057   1.482   4.886   2.272  0.2177  0.1822 -0.3737
  475MOL0     H64058   0.986   4.802   2.301  1.8620 -0.3740  1.2612
  475MOL0     H64059   0.787   4.660   2.319  1.3204  0.9347  2.2651
  475MOL0     H64060   0.630   4.284   2.158 -0.2675 -0.0205  3.0325
  475MOL0     H64061   0.781   4.273   2.080  0.5146 -0.7228  0.3121
  475MOL0     H64062   0.855   4.249   2.346  0.5333  2.9324 -2.5258
  475MOL0     H64063   0.681   4.213   2.366 -0.1066 -1.3509 -1.0582
  475MOL0     H64064   0.726   4.020   2.182 -0.6435 -3.2659  0.9762
  475MOL0     H64065   0.891   4.048   2.224 -0.7545  1.0800 -1.7311
  475MOL0     H64066   0.856   3.891   2.381  0.9338 -0.2516  1.3872
  475MOL0     H64067   0.812   4.038   2.479  2.9979 -2.4579  0.8394
  475MOL0     H64068   0.579   3.974   2.432 -0.4093 -1.8374  2.1277
  475MOL0     H64069   0.624   3.850   2.313 -2.3675 -0.6992  1.2275
  475MOL0     H64070   0.685   3.696   2.480 -1.5831 -1.7781  2.7929
  475MOL0     H64071   0.721   3.823   2.593  1.7255 -1.7885 -0.8595
  475MOL0     H64072   0.506   3.701   2.654 -2.2973 -0.8302 -0.1365
  475MOL0     H64073   0.475   3.857   2.621  0.5255 -0.6423  0.3013
  475MOL0     H64074   0.454   3.651   2.406 -1.1409 -1.2542  1.1494
  475MOL0     H64075   0.387   3.810   2.387 -0.9114 -1.1794 -0.7054
  475MOL0     H64076   0.242   3.794   2.706  1.8059 -3.8805  2.4868
  475MOL0     H64077  -0.028   3.711   2.792 -0.2776 -0.4944  0.9639
  475MOL0     H64078  -0.115   3.645   2.654 -1.2809 -1.2510  2.4408
  475MOL0     H64079   0.062   3.453   2.808 -0.3664 -0.9784  0.3418
  475MOL0     H64080  -0.073   3.431   2.698 -3.1153 -1.5049  2.0546
  475MOL0     H64081  -0.066   3.524   2.991 -2.4458 -1.0582  1.7340
  475MOL0     H64082  -0.143   3.386   2.930 -0.0645 -0.2657 -0.2515
  475MOL0     H64083  -0.311   3.533   2.998  2.6030  0.4856  1.1445
  475MOL0     H64084  -0.316   3.504   2.818  0.2799  1.0220 -1.9549
  475MOL0     H64085  -0.338   3.918   2.738  0.3289 -0.3339 -0.5638
  475MOL0     H64086  -0.508   4.023   2.551 -0.8251  0.7905 -0.9187
  475MOL0     H64087  -0.672   4.019   2.585  0.8891 -0.1004 -0.7223
  475MOL0     H64088  -0.563   4.114   2.694  1.9049  0.1976  0.2353
  475MOL0     H64089  -0.902   4.236   2.790 -0.9053  0.7656 -0.9410
  475MOL0     H64090  -1.118   4.349   2.810 -0.8798 -0.5161  0.8326
  475MOL0     H64091  -1.286   4.402   2.921  0.4733  0.3081 -1.1326
  475MOL0     H64092  -1.356   4.408   2.764  0.2694  0.4557  0.2712
  475MOL0     H64093  -1.498   4.402   3.043  1.6699 -3.8445 -0.3839
  475MOL0     H64094  -1.489   4.536   2.922  1.5338  0.0973 -1.1303
  475MOL0     H64095  -1.618   4.261   2.882  1.8431  0.8218  2.9840
  475MOL0     H64096  -1.612   4.408   2.766  2.4735 -1.6119 -0.4888
  475MOL0     H64097  -1.716   4.415   3.046 -1.7388 -1.7144  0.8068
  475MOL0     H64098  -1.730   4.537   2.910  0.3642 -1.0955 -3.8536
  475MOL0     H64099  -1.854   4.263   2.929  2.8494 -0.0774 -1.8224
  475MOL0     H64100  -1.892   4.386   2.806 -2.5471 -1.8701  1.1034
  475MOL0     H64101  -1.983   4.383   3.090 -2.5667  2.4019  1.0859
  475MOL0     H64102  -1.965   4.534   2.992 -0.3613  0.2745 -0.8165
  475MOL0     H64103  -2.139   4.302   2.901  0.1738  0.5109 -2.3363
  475MOL0     H64104  -2.129   4.468   2.829 -2.4566  0.2995 -0.4745
  475MOL0     H64105  -2.176   4.560   3.048  0.9569  0.1527 -1.9577
  475MOL0     H64106  -2.242   4.404   3.107 -4.0674 -0.8237 -2.0994
  475MOL0     H64107  -1.310   3.981   2.839  1.3428 -0.9484  2.9321
  475MOL0     H64108  -1.105   3.857   2.805 -2.4112 -0.1323 -0.4659
  475MOL0     H64109  -0.743   3.645   2.875 -0.1286 -0.5894 -0.4921
  475MOL0     H64110  -0.519   3.572   2.932  3.1361  0.7776  0.4277
  475MOL0     H64111   0.983   4.357   2.070  3.5133 -0.8663 -0.2202
  475MOL0     H64112   1.191   4.485   2.085 -0.8844 -2.7114  2.6443
  475MOL0     H64113   1.262   5.128   2.180 -0.7209 -0.7497  1.6001
  475MOL0     H64114   1.441   5.267   2.302 -2.9433  0.3521 -1.8703
  475MOL0     H64115   1.737   5.083   2.538  2.1819 -0.8150 -0.0131
  475MOL0     H64116   1.847   5.079   2.402  0.4670 -0.6160  0.0039
  475MOL0     H64117   1.773   5.336   2.541  0.9562  0.8930 -0.5258
  475MOL0     H64118   1.879   5.306   2.398 -1.9981  2.0256 -0.0164
  475MOL0     H64119   2.028   5.163   2.564 -1.1012 -0.5618 -1.6758
  475MOL0     H64120   1.916   5.199   2.698  1.3255 -0.2051  1.3011
  475MOL0     H64121   1.965   5.444   2.683 -2.8651 -0.8995 -0.8931
  475MOL0     H64122   2.074   5.409   2.539 -0.9099  1.0994  0.8604
  475MOL0     H64123   2.336   5.263   2.824  1.3205 -1.2830 -4.2593
  475MOL0     H64124   1.677   4.911   2.364 -0.0632  0.3924  0.5738
  475MOL0     H64125   1.488   4.778   2.276  1.7740  0.2784  0.7878
  476MOL0     O64126  10.535   5.272   7.449 -0.1692  0.1099  0.5027
  476MOL0     C64127  10.562   5.358   7.361 -0.6845 -0.3102 -0.4203
  476MOL0     O64128  10.485   5.383   7.252 -0.3137  0.1716  0.5679
  476MOL0     C64129  10.360   5.323   7.248  0.2284  1.3178  0.1394
  476MOL0     C64130  10.342   5.218   7.153 -0.0003  0.5394 -0.0377
  476MOL0     C64131  10.223   5.153   7.137 -0.2186  0.2042  0.0922
  476MOL0     C64132  10.112   5.190   7.214 -0.4156  0.4369 -0.0274
  476MOL0     O64133   9.993   5.130   7.187  0.0991 -0.1945  0.7625
  476MOL0     C64134   9.879   5.190   7.261  0.6845  0.6009 -0.2385
  476MOL0     C64135   9.749   5.106   7.241 -0.7474  0.9557  0.3698
  476MOL0     C64136   9.620   5.176   7.293 -1.0115  0.5087 -0.7709
  476MOL0     C64137   9.495   5.087   7.273  0.5499 -0.0111 -0.2407
  476MOL0     C64138   9.469   5.064   7.119 -0.8949  0.3834  0.0150
  476MOL0     C64139   9.327   5.014   7.077 -0.1864  0.9385 -1.0076
  476MOL0     C64140   9.206   5.098   7.136  0.4679 -0.0271 -0.1870
  476MOL0     C64141   9.084   5.025   7.091  0.3860  0.4494 -0.2417
  476MOL0     N64142   8.962   5.097   7.122 -0.6109 -0.2825  1.2493
  476MOL0     C64143   8.878   5.075   7.229 -0.1108 -0.1551  0.1376
  476MOL0     C64144   8.780   5.166   7.220 -0.3971 -0.6207  0.4341
  476MOL0     C64145   8.660   5.172   7.299  0.6828 -0.1194  0.2175
  476MOL0     C64146   8.554   5.069   7.239 -0.3602  0.2958  0.5766
  476MOL0     C64147   8.427   5.061   7.321 -0.6933  0.6477  0.2331
  476MOL0     C64148   8.321   5.157   7.266 -0.0900  0.2426 -0.5207
  476MOL0     O64149   8.214   5.177   7.361  0.5212  0.6260 -0.7945
  476MOL0     C64150   8.107   5.083   7.361 -0.4927 -0.4307  0.1361
  476MOL0     C64151   8.102   4.962   7.293 -0.2179  1.0991 -0.5939
  476MOL0     C64152   7.987   4.876   7.297 -0.4685 -0.3477  0.1497
  476MOL0     C64153   7.991   4.746   7.219 -0.4760  0.6746 -0.3176
  476MOL0     C64154   7.872   4.924   7.367 -0.0068 -0.4687  1.0092
  476MOL0     C64155   7.741   4.858   7.356  0.3408 -0.3878 -0.0966
  476MOL0     O64156   7.734   4.724   7.320  0.0650 -1.2017 -0.0044
  476MOL0     C64157   7.608   4.685   7.295 -0.2318  0.6756 -0.4386
  476MOL0     C64158   7.550   4.656   7.159 -0.5073 -0.3419 -0.9837
  476MOL0     C64159   7.423   4.604   7.152  0.3345  0.0408  0.4003
  476MOL0     C64160   7.345   4.563   7.254  0.1014 -0.4182 -0.3251
  476MOL0     O64161   7.227   4.498   7.226  0.5889  0.0025 -0.3758
  476MOL0     C64162   7.134   4.493   7.338 -0.2031  0.2570  0.1143
  476MOL0     C64163   7.026   4.401   7.281 -0.4629  0.0246 -0.8325
  476MOL0     C64164   6.957   4.331   7.406 -0.2094 -0.4685  0.4090
  476MOL0     C64165   6.871   4.225   7.349 -0.0945 -0.0273 -0.5764
  476MOL0     C64166   6.798   4.148   7.467 -0.7131 -0.5183 -0.2410
  476MOL0     C64167   6.711   4.039   7.410  0.5295 -0.1879  0.0586
  476MOL0     C64168   6.658   3.936   7.513  0.2210 -0.4569  0.1745
  476MOL0     C64169   6.577   3.816   7.471 -0.2699 -0.2808 -0.1752
  476MOL0    Cl64170   6.402   3.877   7.436 -0.4844  0.2108  0.5201
  476MOL0     C64171   7.399   4.592   7.386  0.6668 -1.0576  0.1664
  476MOL0     C64172   7.525   4.655   7.401  0.5469 -0.1283  0.1680
  476MOL0     O64173   7.642   4.928   7.376  0.5192  0.3613  0.5050
  476MOL0     C64174   7.876   5.047   7.436 -0.6866 -0.0636 -0.2931
  476MOL0     C64175   7.994   5.112   7.435 -0.8992 -1.0957 -0.5987
  476MOL0     N64176   8.808   5.251   7.115 -0.4034  0.0438 -0.1643
  476MOL0     N64177   8.916   5.209   7.056  0.7533 -0.6079  0.6491
  476MOL0     C64178  10.129   5.289   7.313  0.6280 -0.6819  0.2603
  476MOL0     C64179  10.255   5.354   7.335  0.1082  0.3502  0.8518
  476MOL0     C64180  10.677   5.449   7.381 -0.4745  0.4259 -0.1991
  476MOL0     C64181  10.688   5.577   7.311 -0.2513 -0.0253 -0.6306
  476MOL0     C64182  10.791   5.660   7.342 -0.0611  0.5833 -0.7072
  476MOL0     C64183  10.891   5.628   7.433 -1.4057 -0.6806 -0.0457
  476MOL0     O64184  10.988   5.712   7.480  0.4163 -0.3515 -0.3313
  476MOL0     C64185  11.024   5.817   7.386 -0.4647  0.6843 -0.2587
  476MOL0     C64186  11.160   5.877   7.422 -0.3050 -0.3350  0.0156
  476MOL0     C64187  11.210   5.962   7.305  1.0826 -0.4660  0.2453
  476MOL0     C64188  11.349   6.026   7.325  0.2365  0.7590  1.0476
  476MOL0     C64189  11.463   5.928   7.340  0.5621 -0.1821  0.1819
  476MOL0     C64190  11.560   5.863   7.345 -0.7846  0.5188  0.8345
  476MOL0     C64191  10.884   5.503   7.493  0.3666  0.7713  0.5880
  476MOL0     C64192  10.776   5.415   7.474  0.2899 -0.7284  0.1403
  476MOL0     H64193  10.425   5.188   7.091  1.3405 -0.2891  2.0710
  476MOL0     H64194  10.216   5.071   7.067  0.6824 -0.5594  0.8728
  476MOL0     H64195   9.898   5.184   7.369 -1.5028 -1.6922  0.1192
  476MOL0     H64196   9.851   5.294   7.242 -1.7526  0.5915  2.5597
  476MOL0     H64197   9.736   5.094   7.133  0.8057  3.3094 -0.1537
  476MOL0     H64198   9.771   5.014   7.296  0.1561  0.1490 -1.2634
  476MOL0     H64199   9.638   5.190   7.400 -1.4262  0.2045 -0.6614
  476MOL0     H64200   9.602   5.271   7.240 -2.7756  1.3609  1.2393
  476MOL0     H64201   9.512   4.995   7.330  0.0670 -0.2067 -0.4087
  476MOL0     H64202   9.410   5.140   7.315  0.8556  0.0127  0.3503
  476MOL0     H64203   9.472   5.164   7.074  1.2698  1.9903  3.2803
  476MOL0     H64204   9.549   4.998   7.083 -2.2235 -1.3692  0.1429
  476MOL0     H64205   9.333   5.009   6.968  0.3912 -0.1540 -0.9459
  476MOL0     H64206   9.319   4.913   7.119 -0.5269  3.1073  5.0605
  476MOL0     H64207   9.204   5.104   7.245 -1.5447 -1.1987 -0.1156
  476MOL0     H64208   9.206   5.199   7.094  1.1452 -0.8077 -2.2018
  476MOL0     H64209   9.086   4.921   7.127  0.5273 -0.3523 -2.3776
  476MOL0     H64210   9.084   5.015   6.982  2.1127 -4.0610 -0.0515
  476MOL0     H64211   8.896   4.996   7.301  2.3936 -0.0627 -0.3111
  476MOL0     H64212   8.673   5.145   7.405 -1.6447  0.7257  0.7888
  476MOL0     H64213   8.625   5.276   7.304  1.9840  0.3514 -0.1524
  476MOL0     H64214   8.606   4.973   7.234 -0.0174  0.5232 -3.0058
  476MOL0     H64215   8.541   5.093   7.133  3.5916  1.5795  0.2151
  476MOL0     H64216   8.455   5.093   7.422 -1.5017 -1.5273  1.2081
  476MOL0     H64217   8.399   4.956   7.329  0.7979  0.3058  1.5643
  476MOL0     H64218   8.281   5.142   7.165  0.6871 -1.8790 -0.5592
  476MOL0     H64219   8.373   5.253   7.265 -0.1327  0.4163  2.9500
  476MOL0     H64220   8.182   4.921   7.233 -0.0972  1.1628 -0.4770
  476MOL0     H64221   7.905   4.737   7.151  0.8476  1.3598 -2.1545
  476MOL0     H64222   8.076   4.748   7.150 -0.3102 -2.2713 -0.3290
  476MOL0     H64223   7.990   4.660   7.287  1.4010 -0.4275 -1.5783
  476MOL0     H64224   7.613   4.683   7.075 -0.9791  0.5154 -1.0695
  476MOL0     H64225   7.386   4.589   7.051 -2.2057  0.3633  1.2131
  476MOL0     H64226   7.175   4.434   7.421 -3.7821 -3.8782 -0.6847
  476MOL0     H64227   7.098   4.595   7.342  1.9233  1.3009 -3.0115
  476MOL0     H64228   6.965   4.467   7.219  1.1123  0.6300 -1.8060
  476MOL0     H64229   7.073   4.319   7.225  1.5119 -1.5116  2.6891
  476MOL0     H64230   6.891   4.408   7.448  1.7242  1.5047  0.0108
  476MOL0     H64231   7.033   4.297   7.477  2.5387  0.8275 -1.7423
  476MOL0     H64232   6.795   4.265   7.282 -0.5575  3.0688  1.5795
  476MOL0     H64233   6.939   4.153   7.302  1.0858  1.3446 -1.0528
  476MOL0     H64234   6.737   4.216   7.526  1.5369  0.8492  0.6525
  476MOL0     H64235   6.879   4.112   7.531  0.8769  3.1984  0.0812
  476MOL0     H64236   6.623   4.091   7.372  0.7714 -0.0579 -0.3292
  476MOL0     H64237   6.756   3.995   7.320 -1.7265  1.2675 -1.9137
  476MOL0     H64238   6.592   3.998   7.575  1.1899  0.6709  0.1023
  476MOL0     H64239   6.740   3.899   7.575  1.4196  2.3697  0.4374
  476MOL0     H64240   6.569   3.743   7.552  1.7753  0.1885  0.5203
  476MOL0     H64241   6.612   3.769   7.378  0.0783  0.5699 -0.4906
  476MOL0     H64242   7.356   4.567   7.483  0.2515  2.7713  1.1057
  476MOL0     H64243   7.560   4.667   7.503 -0.8571 -1.9915  0.9208
  476MOL0     H64244   7.799   5.088   7.500 -1.8493 -0.1416 -1.5773
  476MOL0     H64245   8.000   5.198   7.501  2.3077  0.2121 -2.3601
  476MOL0     H64246  10.053   5.326   7.381 -0.7257  0.2921 -1.6827
  476MOL0     H64247  10.272   5.435   7.406 -0.8527  1.8991 -0.6219
  476MOL0     H64248  10.615   5.612   7.239  1.4151  0.7693 -2.0281
  476MOL0     H64249  10.790   5.756   7.291  1.7335  0.9075 -0.2265
  476MOL0     H64250  11.035   5.780   7.283 -1.7717 -2.2265  0.5387
  476MOL0     H64251  10.940   5.887   7.388 -0.9580  0.1863 -1.8557
  476MOL0     H64252  11.232   5.799   7.451 -2.2885 -1.1014  3.4409
  476MOL0     H64253  11.151   5.941   7.510 -0.7367 -2.2031  1.4083
  476MOL0     H64254  11.141   6.045   7.287  2.5377  1.0013  1.1387
  476MOL0     H64255  11.219   5.898   7.217  3.3955 -0.6779  0.5806
  476MOL0     H64256  11.342   6.089   7.414 -0.5531  3.3396 -0.7332
  476MOL0     H64257  11.382   6.095   7.247  0.6733  3.6263  3.5784
  476MOL0     H64258  11.641   5.794   7.355  1.7323  3.3712  1.7077
  476MOL0     H64259  10.960   5.479   7.567  3.0848 -1.2166 -2.5107
  476MOL0     H64260  10.771   5.319   7.526  2.1861 -0.0300  1.7308
  477MOL0     O64261   7.177   9.386   6.247 -0.3949  0.1325 -0.0494
  477MOL0     C64262   7.070   9.352   6.302 -0.3009 -0.5872  0.4684
  477MOL0     O64263   7.056   9.237   6.378  0.9303 -0.4630  0.2177
  477MOL0     C64264   7.156   9.137   6.389 -0.3504  0.1198  0.1413
  477MOL0     C64265   7.261   9.111   6.301  0.5387  0.2292 -0.7403
  477MOL0     C64266   7.366   9.022   6.335 -0.5681  0.4530 -0.2120
  477MOL0     C64267   7.373   8.958   6.455  0.3946 -0.1703 -0.0921
  477MOL0     O64268   7.484   8.873   6.482 -0.3269  0.0272  0.2657
  477MOL0     C64269   7.494   8.814   6.615  0.3477  0.1517  0.2408
  477MOL0     C64270   7.607   8.709   6.607 -0.3457  0.1626  0.9091
  477MOL0     C64271   7.640   8.658   6.751  0.8262  0.9116 -0.3691
  477MOL0     C64272   7.715   8.527   6.757 -0.4883  0.3567  0.8470
  477MOL0     C64273   7.723   8.468   6.900 -0.0368  0.0099  0.3709
  477MOL0     C64274   7.587   8.413   6.948  0.2129  0.0627  0.2652
  477MOL0     C64275   7.588   8.352   7.085 -0.6512 -0.4854  0.0151
  477MOL0     C64276   7.453   8.284   7.129  0.0792  0.2630  0.5591
  477MOL0     N64277   7.335   8.373   7.135 -0.3715  0.3716  0.0920
  477MOL0     C64278   7.317   8.479   7.220 -0.8990 -0.3693 -0.1909
  477MOL0     C64279   7.200   8.525   7.187  0.2753 -0.4389  0.4437
  477MOL0     C64280   7.148   8.652   7.252  0.2253 -0.0143  0.5370
  477MOL0     C64281   7.003   8.638   7.307 -0.2984  0.9350  1.0719
  477MOL0     C64282   6.899   8.601   7.198  0.6711  0.0299 -0.3418
  477MOL0     C64283   6.761   8.653   7.233 -0.7111  0.9451  1.3318
  477MOL0     O64284   6.771   8.797   7.206 -0.1168  0.6511 -0.0793
  477MOL0     C64285   6.654   8.854   7.161 -0.5403 -0.2456 -0.2444
  477MOL0     C64286   6.636   8.912   7.038  0.2697 -0.8426  0.5586
  477MOL0     C64287   6.511   8.965   7.001  1.2629 -0.3522  0.8934
  477MOL0     C64288   6.478   9.000   6.859  0.3618 -0.2523  0.0813
  477MOL0     C64289   6.409   8.975   7.106  0.4718 -0.6924  0.4394
  477MOL0     C64290   6.273   9.034   7.088 -0.1440  0.0922  0.0234
  477MOL0     O64291   6.201   9.047   7.199 -0.1410  0.1389 -0.2249
  477MOL0     C64292   6.072   9.102   7.197  0.1827  0.3953 -0.4305
  477MOL0     C64293   6.042   9.225   7.144 -0.1029 -0.5098  0.6429
  477MOL0     C64294   5.919   9.284   7.145 -0.2151  0.5887  0.0388
  477MOL0     C64295   5.807   9.205   7.194  0.1820  0.5906 -0.3224
  477MOL0     O64296   5.676   9.242   7.180  0.3157 -0.0292  0.4868
  477MOL0     C64297   5.649   9.381   7.166  0.6030  0.1065  0.6796
  477MOL0     C64298   5.503   9.407   7.185  0.3499  0.3732  0.4600
  477MOL0     C64299   5.406   9.409   7.068  0.1249  0.9532 -0.0451
  477MOL0     C64300   5.262   9.423   7.127 -0.8051  0.6327 -0.0158
  477MOL0     C64301   5.205   9.290   7.175  0.1778 -0.0362  0.4441
  477MOL0     C64302   5.071   9.313   7.247 -0.4336 -0.1109  0.0579
  477MOL0     C64303   5.030   9.183   7.302 -0.1152 -0.9258 -0.2046
  477MOL0     C64304   4.898   9.208   7.385  0.1694  0.2263  0.0214
  477MOL0    Cl64305   4.755   9.230   7.282  0.0703 -0.5466  0.2096
  477MOL0     C64306   5.837   9.073   7.238 -0.2693  0.3625 -0.9783
  477MOL0     C64307   5.969   9.026   7.233  0.0728 -0.4771 -0.6178
  477MOL0     O64308   6.233   9.049   6.975 -0.2484  0.6415 -0.0469
  477MOL0     C64309   6.438   8.930   7.231 -0.1132 -0.4891 -0.6168
  477MOL0     C64310   6.554   8.867   7.260  0.2088  0.8965 -0.0839
  477MOL0     N64311   7.141   8.461   7.079  0.2390 -0.0215  0.3778
  477MOL0     N64312   7.233   8.373   7.047  0.3115 -0.5656  0.0590
  477MOL0     C64313   7.274   8.989   6.545  0.0182 -0.2931 -0.1532
  477MOL0     C64314   7.166   9.072   6.511  0.1326 -0.5477  0.4097
  477MOL0     C64315   6.953   9.438   6.279 -0.3986  0.5243 -0.5091
  477MOL0     C64316   6.950   9.523   6.170 -0.1404  0.0520 -0.5790
  477MOL0     C64317   6.841   9.611   6.159  0.0639 -0.1543 -0.1999
  477MOL0     C64318   6.726   9.605   6.238  0.1406 -0.1191  0.4123
  477MOL0     O64319   6.615   9.688   6.209 -0.3312 -1.0269 -0.7859
  477MOL0     C64320   6.492   9.647   6.277 -0.1636 -0.5948 -0.6090
  477MOL0     C64321   6.366   9.725   6.234 -0.7395 -0.0814  0.5569
  477MOL0     C64322   6.257   9.693   6.328  0.6158  0.5725 -0.9894
  477MOL0     C64323   6.173   9.819   6.361  0.0640  0.2714 -0.6915
  477MOL0     C64324   6.044   9.789   6.407 -0.2911 -0.2264 -0.0775
  477MOL0     C64325   5.934   9.788   6.457  0.6866  0.6817  0.4904
  477MOL0     C64326   6.739   9.516   6.352  0.3389 -0.0492 -0.1903
  477MOL0     C64327   6.850   9.436   6.371 -0.3146  0.1756 -0.1212
  477MOL0     H64328   7.286   9.177   6.218  1.1806  1.6793  0.5325
  477MOL0     H64329   7.446   9.009   6.263  0.9122 -0.2878  1.4988
  477MOL0     H64330   7.529   8.885   6.691 -1.1052  3.8034 -2.2557
  477MOL0     H64331   7.400   8.767   6.647  0.6809  0.3790  1.6409
  477MOL0     H64332   7.577   8.623   6.546 -2.0910  0.4561  1.3119
  477MOL0     H64333   7.705   8.741   6.572  0.6358 -1.5913  1.8983
  477MOL0     H64334   7.708   8.730   6.799  1.7644  1.7662 -2.7988
  477MOL0     H64335   7.556   8.652   6.820  1.4776  1.6695  0.5233
  477MOL0     H64336   7.653   8.451   6.711 -0.6992 -0.2658  2.1121
  477MOL0     H64337   7.818   8.535   6.719 -0.7865 -0.2995 -0.1337
  477MOL0     H64338   7.800   8.391   6.908 -0.5679 -0.7508 -1.5199
  477MOL0     H64339   7.754   8.552   6.964  0.2014 -1.1487  1.8280
  477MOL0     H64340   7.507   8.488   6.939  2.4323  2.2641 -2.8778
  477MOL0     H64341   7.561   8.327   6.886  0.8009 -1.3896  1.9410
  477MOL0     H64342   7.658   8.268   7.090 -1.2063 -1.0607 -1.2769
  477MOL0     H64343   7.618   8.432   7.154 -3.5240  0.0156  0.8423
  477MOL0     H64344   7.468   8.222   7.218 -0.2297 -2.5222 -1.1973
  477MOL0     H64345   7.431   8.208   7.054 -1.3996  1.8209 -0.6702
  477MOL0     H64346   7.390   8.521   7.288 -0.8497  2.1997 -1.7133
  477MOL0     H64347   7.218   8.680   7.332  3.1784 -0.3765 -1.7395
  477MOL0     H64348   7.155   8.724   7.170 -0.0394 -1.9064 -1.2357
  477MOL0     H64349   6.974   8.737   7.345  1.0637  1.7084  0.1521
  477MOL0     H64350   7.007   8.562   7.386 -0.0122 -1.3188 -0.9975
  477MOL0     H64351   6.891   8.494   7.177 -4.2639  0.2993 -1.0195
  477MOL0     H64352   6.933   8.633   7.099 -1.5502  0.4700 -1.0166
  477MOL0     H64353   6.724   8.626   7.332 -3.3491  3.6887  1.2338
  477MOL0     H64354   6.684   8.610   7.169 -2.2808 -0.4042  3.9796
  477MOL0     H64355   6.724   8.914   6.975  0.9537 -0.6748  1.4954
  477MOL0     H64356   6.391   8.948   6.819  0.3519  1.0957 -1.8413
  477MOL0     H64357   6.447   9.105   6.849  0.2721 -0.4284 -1.7732
  477MOL0     H64358   6.565   8.981   6.795  2.4213  0.5510  2.4860
  477MOL0     H64359   6.126   9.285   7.108 -2.0387 -0.4937 -4.9737
  477MOL0     H64360   5.888   9.375   7.095 -0.9756 -0.3728 -1.3193
  477MOL0     H64361   5.696   9.448   7.238  0.0975 -0.0247  1.1367
  477MOL0     H64362   5.661   9.415   7.062 -0.0460  0.6770  0.7806
  477MOL0     H64363   5.479   9.341   7.269  1.5968 -0.5015  0.1667
  477MOL0     H64364   5.501   9.508   7.228  0.1962  2.1925 -3.4130
  477MOL0     H64365   5.414   9.313   7.016  0.5454  0.3921  1.0146
  477MOL0     H64366   5.417   9.493   6.999 -1.5047  2.0289  0.9372
  477MOL0     H64367   5.268   9.484   7.218  2.7113 -1.0943  1.0792
  477MOL0     H64368   5.208   9.474   7.047  0.1275 -0.1267 -1.1541
  477MOL0     H64369   5.275   9.243   7.245  0.1371  0.5108  0.8486
  477MOL0     H64370   5.189   9.226   7.088 -0.5108 -3.7327  3.0524
  477MOL0     H64371   5.093   9.387   7.324  2.3153 -0.8528  0.0938
  477MOL0     H64372   4.996   9.353   7.178 -1.2976 -0.7646  0.6047
  477MOL0     H64373   5.105   9.139   7.369 -0.2981  1.7501  1.8945
  477MOL0     H64374   5.008   9.113   7.221  0.0820 -0.1859 -0.9015
  477MOL0     H64375   4.911   9.295   7.451 -0.4438  0.4552 -0.1554
  477MOL0     H64376   4.880   9.125   7.453  0.1109  1.9642  2.2761
  477MOL0     H64377   5.764   9.003   7.275 -0.5051  1.3404  0.4873
  477MOL0     H64378   5.995   8.923   7.252 -0.9464 -0.4288  1.3160
  477MOL0     H64379   6.362   8.917   7.307  1.5180 -3.8156  0.6320
  477MOL0     H64380   6.563   8.814   7.355 -0.9122  2.1969  0.7761
  477MOL0     H64381   7.273   8.943   6.643 -3.9995  1.1686  0.6804
  477MOL0     H64382   7.089   9.092   6.584  0.4817 -1.1250  0.9423
  477MOL0     H64383   7.030   9.530   6.097 -2.1546 -0.8817 -3.0598
  477MOL0     H64384   6.838   9.679   6.074 -0.5189 -0.2337 -0.2496
  477MOL0     H64385   6.475   9.543   6.249  1.4762 -0.8646 -0.6808
  477MOL0     H64386   6.498   9.667   6.384  2.4381  0.5794 -0.8924
  477MOL0     H64387   6.339   9.699   6.132 -1.4292  3.3549 -0.2745
  477MOL0     H64388   6.384   9.833   6.236 -0.9428 -0.0326 -0.0238
  477MOL0     H64389   6.286   9.639   6.419  1.5155  3.2310  0.4121
  477MOL0     H64390   6.183   9.641   6.267  3.4642 -1.9223 -2.5685
  477MOL0     H64391   6.166   9.899   6.287 -2.5265  1.3502  0.5738
  477MOL0     H64392   6.227   9.860   6.447  0.2652 -2.2529  0.4684
  477MOL0     H64393   5.839   9.794   6.507 -0.3558  2.5614 -1.5835
  477MOL0     H64394   6.664   9.516   6.431  0.6087 -2.3286  0.1377
  477MOL0     H64395   6.845   9.366   6.454  3.5729  0.1322  0.2560
  478MOL0     O64396   5.423   7.316   7.170 -0.2176 -0.4158 -0.0780
  478MOL0     C64397   5.421   7.239   7.075 -0.8913 -0.4902 -0.6300
  478MOL0     O64398   5.310   7.170   7.039  1.0788 -0.6239  0.3269
  478MOL0     C64399   5.183   7.205   7.064  0.0742 -0.5709 -0.9455
  478MOL0     C64400   5.094   7.105   7.102  0.2915  0.3360 -0.2627
  478MOL0     C64401   4.961   7.125   7.146 -0.1994 -0.5761  0.3822
  478MOL0     C64402   4.910   7.259   7.146  0.5277  0.1142 -0.7205
  478MOL0     O64403   4.780   7.276   7.195  0.5071 -0.2944  0.0928
  478MOL0     C64404   4.752   7.400   7.254 -0.8370  0.3073  0.1780
  478MOL0     C64405   4.617   7.384   7.314  0.0677 -0.1317 -0.7209
  478MOL0     C64406   4.556   7.517   7.369 -0.2331 -0.1468 -0.1879
  478MOL0     C64407   4.421   7.538   7.300 -0.5403 -0.5731  0.3990
  478MOL0     C64408   4.370   7.676   7.332 -0.2468 -0.0302  0.2970
  478MOL0     C64409   4.216   7.693   7.297  0.2059 -0.1607 -0.0405
  478MOL0     C64410   4.115   7.679   7.414 -0.0291  1.0949  0.1787
  478MOL0     C64411   4.128   7.781   7.523 -0.4130 -0.3578 -0.1656
  478MOL0     N64412   4.052   7.896   7.477  0.1847  0.3254  0.1085
  478MOL0     C64413   3.915   7.897   7.480  0.1281  0.0923  0.5877
  478MOL0     C64414   3.880   8.014   7.421  0.1476  0.6301 -0.2943
  478MOL0     C64415   3.744   8.068   7.381  0.5581 -0.7019  0.2937
  478MOL0     C64416   3.643   7.961   7.347  0.0847 -0.7291  0.5309
  478MOL0     C64417   3.512   8.030   7.297  0.1439  0.4037 -0.4578
  478MOL0     C64418   3.393   7.929   7.273  0.0099  1.0419  0.0461
  478MOL0     O64419   3.364   7.854   7.393  0.5631 -0.3432 -0.2462
  478MOL0     C64420   3.265   7.751   7.381 -0.3305  0.1391 -0.0983
  478MOL0     C64421   3.238   7.663   7.486 -1.2867 -0.4156  0.3117
  478MOL0     C64422   3.125   7.576   7.499 -0.2238 -0.8688  0.1597
  478MOL0     C64423   3.112   7.489   7.619  0.3721 -0.4657  0.5626
  478MOL0     C64424   3.039   7.574   7.380 -0.9487 -0.2564  1.5426
  478MOL0     C64425   2.917   7.487   7.359 -0.6755  0.8150 -0.3089
  478MOL0     O64426   2.845   7.500   7.244  0.6978  0.4882 -0.0111
  478MOL0     C64427   2.714   7.443   7.229 -0.3498 -0.5362  1.0164
  478MOL0     C64428   2.703   7.315   7.185 -0.0426  1.1839 -0.4813
  478MOL0     C64429   2.584   7.241   7.189  0.1692 -0.0596  0.0307
  478MOL0     C64430   2.463   7.300   7.242 -0.2579 -0.5595  0.4856
  478MOL0     O64431   2.344   7.232   7.241 -0.2065 -0.3815  0.1206
  478MOL0     C64432   2.340   7.109   7.170 -0.2778 -0.1118 -0.3384
  478MOL0     C64433   2.199   7.049   7.198  0.3773  0.1870  0.3098
  478MOL0     C64434   2.204   6.899   7.165 -0.2994  0.2083 -0.1926
  478MOL0     C64435   2.082   6.828   7.223 -0.1496 -0.1523 -0.3835
  478MOL0     C64436   2.098   6.671   7.216  0.6776 -0.0674 -0.1806
  478MOL0     C64437   1.984   6.605   7.294  0.0308 -0.1967  0.1678
  478MOL0     C64438   2.000   6.450   7.275 -1.0803 -0.3114 -0.7199
  478MOL0     C64439   1.946   6.383   7.395 -0.0648  0.3761 -0.5291
  478MOL0    Cl64440   1.781   6.442   7.427 -0.2820 -0.3428 -0.0020
  478MOL0     C64441   2.474   7.434   7.279 -0.1090 -0.4651  0.2157
  478MOL0     C64442   2.594   7.509   7.272  0.0450  0.0147 -1.0248
  478MOL0     O64443   2.878   7.423   7.455  0.0751  0.0520  0.6384
  478MOL0     C64444   3.068   7.658   7.266 -0.2472 -0.0674 -0.2588
  478MOL0     C64445   3.174   7.744   7.273 -0.5085 -0.2639 -0.2665
  478MOL0     N64446   3.989   8.080   7.387  0.0958 -0.8893 -0.9750
  478MOL0     N64447   4.095   8.013   7.417  0.7901  0.3893 -0.5071
  478MOL0     C64448   4.997   7.355   7.104 -0.4218 -0.0364 -0.0183
  478MOL0     C64449   5.129   7.338   7.073  0.2715  0.9974 -0.2649
  478MOL0     C64450   5.545   7.216   7.003  0.0717  0.7582  0.7037
  478MOL0     C64451   5.668   7.273   7.024  0.3314 -0.5263  0.0083
  478MOL0     C64452   5.787   7.264   6.944 -0.0562 -0.5510  0.7563
  478MOL0     C64453   5.785   7.196   6.820 -0.1416  0.0778  0.0009
  478MOL0     O64454   5.887   7.186   6.730 -0.2571 -0.1526  0.5135
  478MOL0     C64455   6.003   7.279   6.744 -0.8025 -0.0196 -0.4041
  478MOL0     C64456   6.123   7.239   6.657 -0.3501  0.0422 -0.4773
  478MOL0     C64457   6.259   7.312   6.672 -0.6192  0.2849  0.8694
  478MOL0     C64458   6.331   7.291   6.806 -0.6587 -0.0093 -0.9845
  478MOL0     C64459   6.469   7.337   6.793  0.1908 -0.1216 -0.3377
  478MOL0     C64460   6.584   7.375   6.767  0.2507  0.1294  0.9244
  478MOL0     C64461   5.662   7.116   6.803 -1.1085  0.2358 -0.1884
  478MOL0     C64462   5.551   7.123   6.891 -0.0809 -0.2993  0.2940
  478MOL0     H64463   5.121   7.001   7.088 -1.1046 -0.0129 -0.5477
  478MOL0     H64464   4.897   7.040   7.166 -1.2737  0.4477  1.4420
  478MOL0     H64465   4.825   7.425   7.333 -0.2168 -1.3872  0.1783
  478MOL0     H64466   4.738   7.483   7.184 -1.1028  2.1293  2.2635
  478MOL0     H64467   4.553   7.342   7.235  1.0523  0.7140 -2.0144
  478MOL0     H64468   4.628   7.313   7.397 -0.2201  0.9005  0.2250
  478MOL0     H64469   4.549   7.510   7.477  3.8654 -2.1034  0.1328
  478MOL0     H64470   4.631   7.594   7.347  0.5439 -1.0943 -0.9496
  478MOL0     H64471   4.430   7.537   7.191 -0.8658 -0.0555  0.3626
  478MOL0     H64472   4.351   7.459   7.327  0.3582 -0.9722  1.6762
  478MOL0     H64473   4.399   7.711   7.431 -0.2026  0.0862  0.2423
  478MOL0     H64474   4.419   7.741   7.259  0.0231 -0.4181  0.1277
  478MOL0     H64475   4.193   7.792   7.256 -1.4982 -0.6457 -0.3319
  478MOL0     H64476   4.194   7.625   7.214  0.2110  1.6227 -1.5716
  478MOL0     H64477   4.016   7.674   7.367 -0.0931 -1.8523  0.4411
  478MOL0     H64478   4.139   7.583   7.460  1.7116  2.5297  2.4582
  478MOL0     H64479   4.233   7.813   7.529 -0.6121  0.3677 -0.4476
  478MOL0     H64480   4.106   7.747   7.625  1.2122  0.3187  0.4408
  478MOL0     H64481   3.848   7.823   7.524  3.6122 -3.6353  0.1686
  478MOL0     H64482   3.693   8.126   7.458 -0.4999 -0.3481 -0.6420
  478MOL0     H64483   3.759   8.138   7.297 -0.7480 -0.2164  0.4395
  478MOL0     H64484   3.628   7.884   7.424 -0.0394 -1.5136 -0.2648
  478MOL0     H64485   3.687   7.912   7.260  0.6310 -1.6836  1.3237
  478MOL0     H64486   3.527   8.071   7.196 -0.7706 -1.9802 -1.6558
  478MOL0     H64487   3.475   8.108   7.364  0.7305  0.8747 -0.6831
  478MOL0     H64488   3.425   7.861   7.194  2.2238  1.1630  0.7473
  478MOL0     H64489   3.307   7.988   7.241 -0.6553 -0.0806 -0.2805
  478MOL0     H64490   3.315   7.658   7.563 -1.3825 -1.3083  0.3680
  478MOL0     H64491   3.172   7.535   7.698 -0.8760  2.0774  0.1463
  478MOL0     H64492   3.004   7.493   7.639 -0.1110 -2.6809 -1.1881
  478MOL0     H64493   3.143   7.386   7.598  1.3819  0.2415 -1.8328
  478MOL0     H64494   2.794   7.272   7.145  0.7589  0.8283  1.6437
  478MOL0     H64495   2.593   7.142   7.145  1.6789  0.4973 -0.9875
  478MOL0     H64496   2.347   7.138   7.065 -2.6348  0.0425 -0.5150
  478MOL0     H64497   2.418   7.044   7.212  0.4313  1.3224  0.6346
  478MOL0     H64498   2.167   7.063   7.302  2.2311  1.0600  0.8056
  478MOL0     H64499   2.127   7.089   7.125 -0.5783 -1.2712  0.4259
  478MOL0     H64500   2.295   6.849   7.199 -0.7563 -1.1753 -0.9248
  478MOL0     H64501   2.189   6.892   7.057  3.5025  1.4439 -0.9372
  478MOL0     H64502   2.062   6.858   7.326 -0.6342 -1.6676 -0.0104
  478MOL0     H64503   1.997   6.861   7.164  1.7118  2.7817 -1.6412
  478MOL0     H64504   2.195   6.649   7.262 -0.6825  0.5807  3.3792
  478MOL0     H64505   2.097   6.634   7.113 -4.2810 -3.1288  0.6296
  478MOL0     H64506   1.992   6.630   7.400 -0.3854 -4.2612  1.3241
  478MOL0     H64507   1.892   6.656   7.264  0.7938  2.7056  2.3154
  478MOL0     H64508   2.108   6.432   7.269 -1.1297 -0.2233 -2.6811
  478MOL0     H64509   1.956   6.417   7.181 -0.2527 -0.1225 -1.1854
  478MOL0     H64510   2.022   6.405   7.471 -0.3955 -2.2249  0.6819
  478MOL0     H64511   1.941   6.274   7.380  1.3318  0.2245 -0.0620
  478MOL0     H64512   2.379   7.478   7.308  0.6015  0.2634  1.5341
  478MOL0     H64513   2.603   7.608   7.316 -2.4634 -0.3671  0.5540
  478MOL0     H64514   2.994   7.673   7.188  0.0392 -0.1736 -0.5505
  478MOL0     H64515   3.186   7.812   7.189  1.5614  0.4322  0.5418
  478MOL0     H64516   4.965   7.458   7.112  0.0163 -0.0466  2.5997
  478MOL0     H64517   5.205   7.412   7.049  2.5151 -1.6654 -1.9544
  478MOL0     H64518   5.692   7.329   7.114 -0.4919 -1.3812  0.7896
  478MOL0     H64519   5.882   7.293   6.987  0.6500 -0.2092 -0.9444
  478MOL0     H64520   5.984   7.384   6.720  0.6429  0.2700 -0.4066
  478MOL0     H64521   6.039   7.274   6.847  1.2727  1.6751 -0.9640
  478MOL0     H64522   6.107   7.225   6.549 -0.0779 -0.9384 -0.4006
  478MOL0     H64523   6.136   7.132   6.676 -0.6974 -1.0684 -5.1556
  478MOL0     H64524   6.251   7.418   6.646 -0.4901 -0.3519 -2.0787
  478MOL0     H64525   6.319   7.263   6.595 -3.0734  0.9766 -1.6706
  478MOL0     H64526   6.331   7.185   6.832  2.6103 -0.4121 -2.2342
  478MOL0     H64527   6.273   7.348   6.880  0.1427 -1.3350  0.7576
  478MOL0     H64528   6.685   7.406   6.751  0.2447  0.6618  1.8869
  478MOL0     H64529   5.655   7.048   6.719 -1.9088  2.5190 -2.0436
  478MOL0     H64530   5.460   7.076   6.855 -0.8521  1.6125 -0.3792
  479MOL0     O64531  10.481   3.467   4.110  0.4029  0.4718 -0.5108
  479MOL0     C64532  10.490   3.456   3.990 -0.1552  0.3337 -0.2663
  479MOL0     O64533  10.388   3.428   3.906 -0.1466  0.9726 -0.0956
  479MOL0     C64534  10.261   3.394   3.938  0.0248  0.7942  0.6276
  479MOL0     C64535  10.164   3.436   3.842 -0.0773 -0.1218  0.4513
  479MOL0     C64536  10.027   3.414   3.860 -0.5141 -0.7501  0.2983
  479MOL0     C64537   9.984   3.359   3.981 -0.3427  0.3294  0.4145
  479MOL0     O64538   9.851   3.340   4.006  0.8069 -0.2886  0.2320
  479MOL0     C64539   9.744   3.415   3.930 -0.1400  0.2805  0.1923
  479MOL0     C64540   9.625   3.426   4.010  0.4386 -0.2397  0.0264
  479MOL0     C64541   9.505   3.508   3.939 -0.0965  0.3899  0.3147
  479MOL0     C64542   9.443   3.606   4.031  0.4126  0.3366  0.4618
  479MOL0     C64543   9.325   3.679   3.979 -0.0279 -0.9568 -0.0561
  479MOL0     C64544   9.224   3.600   3.897 -0.4531 -0.4193  0.4227
  479MOL0     C64545   9.092   3.677   3.880 -0.1935  0.2164  0.7725
  479MOL0     C64546   9.100   3.819   3.799 -1.1231  0.8225 -0.9130
  479MOL0     N64547   8.974   3.899   3.766 -0.5153 -0.0543  0.3407
  479MOL0     C64548   8.882   3.953   3.851  0.6709  0.6228 -0.2408
  479MOL0     C64549   8.780   3.996   3.767  0.3224 -0.0067 -0.0905
  479MOL0     C64550   8.656   4.062   3.797 -0.9064  0.5192  0.5006
  479MOL0     C64551   8.549   3.962   3.796  0.2403 -0.6263 -0.3723
  479MOL0     C64552   8.412   4.023   3.831 -0.2756  0.1345  0.3581
  479MOL0     C64553   8.291   3.947   3.782 -0.2102 -0.3167  0.1686
  479MOL0     O64554   8.278   3.951   3.641 -0.6617  0.2976  0.5972
  479MOL0     C64555   8.198   4.048   3.589 -0.1317 -1.0152 -0.2043
  479MOL0     C64556   8.174   4.173   3.654  0.1006  0.0404  0.2990
  479MOL0     C64557   8.103   4.270   3.588 -0.0984 -0.1780  0.2466
  479MOL0     C64558   8.076   4.406   3.656 -0.5274 -0.4572 -0.6855
  479MOL0     C64559   8.050   4.249   3.458 -0.1056 -0.4891 -0.2309
  479MOL0     C64560   7.952   4.335   3.389  0.3918 -0.5377 -0.3288
  479MOL0     O64561   7.917   4.299   3.260 -0.5174 -0.4614  0.5881
  479MOL0     C64562   7.792   4.314   3.206  0.6157  0.7777 -0.7717
  479MOL0     C64563   7.789   4.261   3.078 -0.3479 -0.7300 -0.3899
  479MOL0     C64564   7.666   4.240   3.016  0.1069  0.7881  0.3334
  479MOL0     C64565   7.550   4.290   3.069 -0.6232 -0.1354 -0.0200
  479MOL0     O64566   7.428   4.282   3.017  1.0574 -0.5689  0.3281
  479MOL0     C64567   7.417   4.287   2.868 -0.0149  0.0359 -0.8487
  479MOL0     C64568   7.272   4.284   2.815 -0.4904 -0.1678 -0.1151
  479MOL0     C64569   7.180   4.163   2.856  0.1104  0.4828  0.1632
  479MOL0     C64570   7.035   4.201   2.832  0.4600  0.0947  0.5625
  479MOL0     C64571   6.934   4.085   2.858  0.3683  0.7049 -0.2695
  479MOL0     C64572   6.803   4.092   2.777 -0.7146 -0.0359  0.0420
  479MOL0     C64573   6.711   3.969   2.783  0.3189 -0.6155  0.7320
  479MOL0     C64574   6.629   3.959   2.910 -0.8709 -0.2642  0.0053
  479MOL0    Cl64575   6.477   3.858   2.874 -0.6098  0.0734 -0.4155
  479MOL0     C64576   7.555   4.368   3.187  0.6117  0.4220  0.2438
  479MOL0     C64577   7.673   4.371   3.257  0.0145  0.0362 -0.3507
  479MOL0     O64578   7.899   4.425   3.446 -0.5595 -0.4204 -0.3293
  479MOL0     C64579   8.077   4.128   3.402  1.0317 -0.2867  0.3403
  479MOL0     C64580   8.156   4.033   3.460  0.0312 -0.4325  1.0196
  479MOL0     N64581   8.824   3.972   3.637 -0.2672 -0.0479  0.0118
  479MOL0     N64582   8.937   3.919   3.637 -0.0870 -0.0165  0.8741
  479MOL0     C64583  10.072   3.317   4.079 -0.5692  0.7973 -0.1223
  479MOL0     C64584  10.213   3.335   4.059 -0.3606  0.8581 -0.2322
  479MOL0     C64585  10.633   3.485   3.929  0.3957 -0.7017  0.4805
  479MOL0     C64586  10.748   3.507   4.012  0.3584 -0.5476 -0.0266
  479MOL0     C64587  10.873   3.526   3.952 -0.5532 -0.4096 -0.4327
  479MOL0     C64588  10.904   3.523   3.815  0.8335 -0.5862  0.2666
  479MOL0     O64589  11.035   3.535   3.775  0.3952  0.4255 -0.2395
  479MOL0     C64590  11.054   3.571   3.639 -0.9301  0.3396 -0.7538
  479MOL0     C64591  11.204   3.591   3.615 -0.3921  0.6006 -0.9609
  479MOL0     C64592  11.290   3.666   3.730  0.8638  0.7527  0.1218
  479MOL0     C64593  11.441   3.670   3.696 -0.1706 -0.3827  0.6113
  479MOL0     C64594  11.519   3.727   3.806 -0.2422  0.5131  0.9484
  479MOL0     C64595  11.580   3.780   3.886 -0.4092  0.0736  0.1455
  479MOL0     C64596  10.786   3.504   3.736  0.2441  0.7020  0.9488
  479MOL0     C64597  10.662   3.481   3.792  0.1758 -1.3112 -2.0154
  479MOL0     H64598  10.198   3.488   3.753  1.1221 -2.0122 -0.2745
  479MOL0     H64599   9.955   3.450   3.788 -4.3868 -3.1655  2.6398
  479MOL0     H64600   9.791   3.511   3.911 -1.9076  1.0822 -0.3283
  479MOL0     H64601   9.732   3.369   3.832  1.4700 -0.2909  0.2258
  479MOL0     H64602   9.587   3.324   4.023  0.9345 -0.5207 -0.6885
  479MOL0     H64603   9.663   3.465   4.105 -0.4939  0.2932  0.1933
  479MOL0     H64604   9.539   3.561   3.849  0.4167 -1.9778 -0.9746
  479MOL0     H64605   9.429   3.435   3.910  1.9734 -1.4544 -0.7697
  479MOL0     H64606   9.400   3.555   4.117 -0.4322  1.1299  0.5200
  479MOL0     H64607   9.520   3.673   4.072  1.9996 -1.3655  0.3826
  479MOL0     H64608   9.270   3.723   4.063 -0.3385  1.4018 -1.4220
  479MOL0     H64609   9.361   3.756   3.910  0.4536  1.1760  2.4211
  479MOL0     H64610   9.277   3.580   3.803  2.0923  3.7588  0.7331
  479MOL0     H64611   9.197   3.502   3.938  3.9244 -2.3362 -0.6941
  479MOL0     H64612   9.017   3.617   3.829  0.8155  0.8295 -1.5581
  479MOL0     H64613   9.049   3.711   3.974  0.7629  4.5634 -0.1292
  479MOL0     H64614   9.145   3.808   3.700  1.8991  1.6978  0.2226
  479MOL0     H64615   9.174   3.886   3.845 -1.6236  1.2837 -0.7678
  479MOL0     H64616   8.889   3.952   3.960  1.4832 -1.0350 -0.2830
  479MOL0     H64617   8.663   4.095   3.901  1.2701 -3.8761  2.0203
  479MOL0     H64618   8.648   4.148   3.730  3.8422  1.1535  0.4270
  479MOL0     H64619   8.566   3.880   3.866  0.2934 -2.0636 -1.9977
  479MOL0     H64620   8.550   3.912   3.699 -1.0129 -0.0916 -0.6818
  479MOL0     H64621   8.409   4.129   3.807 -1.6671  0.2021  0.7563
  479MOL0     H64622   8.397   4.006   3.938 -0.5275 -0.9151  0.1656
  479MOL0     H64623   8.203   3.987   3.834 -0.1087 -2.5341  2.2595
  479MOL0     H64624   8.311   3.847   3.822  3.1243  0.6867  1.3860
  479MOL0     H64625   8.225   4.191   3.748  0.6852 -0.9435  0.1877
  479MOL0     H64626   8.077   4.488   3.584 -1.3810 -0.4534 -0.7017
  479MOL0     H64627   7.977   4.413   3.702 -0.4591 -0.7252 -0.4949
  479MOL0     H64628   8.148   4.426   3.736  0.5979 -2.1911 -1.2076
  479MOL0     H64629   7.883   4.212   3.055  0.6685 -0.0313  1.9801
  479MOL0     H64630   7.661   4.186   2.922 -1.1251 -0.5157  1.1057
  479MOL0     H64631   7.455   4.383   2.833 -3.8617  1.1507 -2.4902
  479MOL0     H64632   7.467   4.206   2.813 -0.8039 -0.9967 -0.0884
  479MOL0     H64633   7.238   4.380   2.854  2.0133  2.0558 -2.8752
  479MOL0     H64634   7.273   4.291   2.705  0.6708  1.7147 -0.0408
  479MOL0     H64635   7.200   4.141   2.961 -0.5060  2.8935  0.8447
  479MOL0     H64636   7.202   4.075   2.794  3.3052  0.8066  0.6971
  479MOL0     H64637   6.998   4.283   2.893 -0.3241  0.3317 -0.2135
  479MOL0     H64638   7.011   4.228   2.729 -0.2324 -3.2749 -0.3092
  479MOL0     H64639   6.906   4.068   2.962 -2.2098 -2.6586 -1.3352
  479MOL0     H64640   6.971   3.985   2.834 -0.4136  0.1609  0.7090
  479MOL0     H64641   6.746   4.175   2.819 -0.5948 -0.3236  0.7800
  479MOL0     H64642   6.834   4.107   2.673 -3.1149  0.5279 -0.6422
  479MOL0     H64643   6.766   3.877   2.765  3.2833  0.8444  1.6705
  479MOL0     H64644   6.645   3.984   2.697 -1.2398 -1.0953  1.7908
  479MOL0     H64645   6.589   4.053   2.952 -1.8872 -1.2564  1.3457
  479MOL0     H64646   6.695   3.907   2.979  0.1914  2.4034  1.1308
  479MOL0     H64647   7.465   4.419   3.219 -0.4792 -0.2194 -1.6737
  479MOL0     H64648   7.665   4.411   3.357 -1.1977  1.0720 -0.8255
  479MOL0     H64649   8.040   4.096   3.305 -2.3103  0.0591  1.3956
  479MOL0     H64650   8.176   3.944   3.402 -0.3728 -1.4107  2.3392
  479MOL0     H64651  10.031   3.266   4.165 -2.4627 -0.5102 -1.6984
  479MOL0     H64652  10.277   3.295   4.137 -2.8928 -0.1562  1.4583
  479MOL0     H64653  10.745   3.532   4.117  1.6837 -0.5134  0.0251
  479MOL0     H64654  10.959   3.550   4.014  0.3079  1.2449 -2.1645
  479MOL0     H64655  11.026   3.491   3.570 -0.9719 -0.3559  0.0519
  479MOL0     H64656  10.994   3.657   3.607 -3.8316 -1.6617 -1.1831
  479MOL0     H64657  11.215   3.645   3.520  1.0367  0.6786 -0.7777
  479MOL0     H64658  11.257   3.495   3.613  0.8472  1.1912  0.9059
  479MOL0     H64659  11.278   3.611   3.824  0.5735  1.7627  0.6889
  479MOL0     H64660  11.251   3.767   3.745  2.0933  1.9867 -3.8759
  479MOL0     H64661  11.458   3.728   3.604 -0.7559  0.0707  0.7824
  479MOL0     H64662  11.477   3.568   3.685  0.3763 -0.3512  1.9538
  479MOL0     H64663  11.648   3.822   3.956 -0.6535  3.2493 -1.3629
  479MOL0     H64664  10.794   3.514   3.628 -0.1718 -0.2284  0.8239
  479MOL0     H64665  10.573   3.475   3.730 -1.5476  1.5830 -0.0556
  480MOL0     O64666  10.742   3.957   0.244 -0.1850 -0.7396  0.1976
  480MOL0     C64667  10.725   3.905   0.359 -0.3787 -0.1772  0.7986
  480MOL0     O64668  10.602   3.887   0.413  0.5096  0.4053  0.2089
  480MOL0     C64669  10.495   3.888   0.326  0.0572  0.0241 -0.3219
  480MOL0     C64670  10.453   3.767   0.261 -1.1169  0.0161 -0.7442
  480MOL0     C64671  10.341   3.771   0.181 -0.0116 -0.7910  0.0421
  480MOL0     C64672  10.279   3.895   0.144  0.1879 -0.0789  0.6261
  480MOL0     O64673  10.166   3.905   0.067  0.1262  0.4984  0.4682
  480MOL0     C64674  10.105   3.780   0.005 -0.3091 -1.0285 -0.9977
  480MOL0     C64675  10.009   3.816  -0.105  0.0437 -0.0151 -0.8227
  480MOL0     C64676   9.960   3.689  -0.180 -0.6484 -0.5702  0.0115
  480MOL0     C64677   9.802   3.694  -0.211 -0.0554 -0.3789 -0.4116
  480MOL0     C64678   9.762   3.548  -0.257 -0.0515 -1.3412 -0.0014
  480MOL0     C64679   9.650   3.541  -0.366 -0.0239 -0.0247 -1.2357
  480MOL0     C64680   9.519   3.614  -0.332  0.2278  0.0034 -0.0561
  480MOL0     C64681   9.472   3.689  -0.458  0.3765  0.3304  0.5745
  480MOL0     N64682   9.337   3.751  -0.435  0.0811  0.5245 -0.1475
  480MOL0     C64683   9.220   3.682  -0.417 -0.3653  0.3884 -0.1296
  480MOL0     C64684   9.123   3.773  -0.431  0.5476  0.3221  0.3162
  480MOL0     C64685   8.977   3.752  -0.428  0.6741  0.0341  0.1579
  480MOL0     C64686   8.912   3.745  -0.567 -0.3514 -0.6097  0.3348
  480MOL0     C64687   8.864   3.878  -0.634 -0.2907 -0.7535 -0.0442
  480MOL0     C64688   8.838   3.849  -0.776  0.8394  0.6773  0.2337
  480MOL0     O64689   8.711   3.788  -0.795  0.2013  0.5993  0.0457
  480MOL0     C64690   8.628   3.824  -0.894 -0.5683 -0.2137  0.4087
  480MOL0     C64691   8.670   3.844  -1.024 -0.1520  0.2425  0.4105
  480MOL0     C64692   8.587   3.901  -1.123 -0.4000 -0.2812 -0.1554
  480MOL0     C64693   8.652   3.939  -1.258 -0.3344  1.0404 -0.4387
  480MOL0     C64694   8.448   3.909  -1.101 -0.1979 -0.5710 -0.7393
  480MOL0     C64695   8.346   3.942  -1.202 -0.3232  0.1574  0.5071
  480MOL0     O64696   8.240   3.851  -1.198 -0.0630  0.0229  0.3662
  480MOL0     C64697   8.143   3.871  -1.291  0.0631  0.5552 -0.1743
  480MOL0     C64698   8.120   3.774  -1.386  0.5855 -0.0582  0.6718
  480MOL0     C64699   8.017   3.781  -1.484  0.0301 -0.1797  0.2982
  480MOL0     C64700   7.929   3.897  -1.477  1.1148 -0.8663  0.1360
  480MOL0     O64701   7.814   3.913  -1.557 -0.2097  0.2593  0.2547
  480MOL0     C64702   7.744   3.794  -1.612  0.1714 -0.4597  0.7504
  480MOL0     C64703   7.656   3.741  -1.497 -0.1270  0.2276 -0.6979
  480MOL0     C64704   7.570   3.847  -1.431  0.3313  0.2889 -0.1283
  480MOL0     C64705   7.444   3.788  -1.374  0.8507  0.4342  0.1662
  480MOL0     C64706   7.363   3.904  -1.318 -0.1695  0.1316 -0.9052
  480MOL0     C64707   7.233   3.863  -1.251  0.7368 -0.2725 -0.1087
  480MOL0     C64708   7.131   3.828  -1.356  0.6585  0.9901 -0.8118
  480MOL0     C64709   6.998   3.778  -1.299 -0.2591  0.4883  0.3089
  480MOL0    Cl64710   6.881   3.800  -1.428 -0.3127  0.1753 -0.3637
  480MOL0     C64711   7.951   3.994  -1.379  0.7667  0.1368 -0.0502
  480MOL0     C64712   8.051   3.974  -1.280  0.3137  0.0544  0.6659
  480MOL0     O64713   8.353   4.039  -1.276  0.0153  0.0670  0.3068
  480MOL0     C64714   8.400   3.874  -0.973 -0.1188  1.7776  0.7716
  480MOL0     C64715   8.498   3.844  -0.872  0.6522  0.0107  0.6027
  480MOL0     N64716   9.187   3.897  -0.446 -0.5524 -0.5285  0.7522
  480MOL0     N64717   9.309   3.884  -0.434 -0.7287 -0.7609  0.6700
  480MOL0     C64718  10.328   4.008   0.212 -0.6030 -0.1407  0.0437
  480MOL0     C64719  10.426   4.003   0.304  0.2257 -0.8256 -0.5640
  480MOL0     C64720  10.843   3.891   0.446 -0.2976  0.0691 -0.6490
  480MOL0     C64721  10.829   3.805   0.560  0.2979 -1.1335 -0.6431
  480MOL0     C64722  10.933   3.793   0.658 -0.7777  0.2431  0.2096
  480MOL0     C64723  11.061   3.859   0.642  0.5303 -0.3018 -0.2030
  480MOL0     O64724  11.168   3.837   0.714 -0.2670  0.6425 -0.2943
  480MOL0     C64725  11.165   3.718   0.797 -0.1409  0.2668  0.2319
  480MOL0     C64726  11.270   3.739   0.904 -0.4501 -0.3353 -0.2594
  480MOL0     C64727  11.317   3.612   0.979 -0.5582 -0.8036  0.0453
  480MOL0     C64728  11.427   3.660   1.084  0.4639  0.0185 -0.4192
  480MOL0     C64729  11.467   3.553   1.175  0.3002  0.2467  0.2463
  480MOL0     C64730  11.509   3.466   1.251 -0.1158 -0.2118 -0.5869
  480MOL0     C64731  11.068   3.942   0.533 -0.0184  0.0062  0.1567
  480MOL0     C64732  10.964   3.959   0.438  0.3122 -0.5940  0.0276
  480MOL0     H64733  10.488   3.664   0.269  0.5804  0.3882 -2.7220
  480MOL0     H64734  10.309   3.680   0.130 -0.3399 -0.5429 -0.1940
  480MOL0     H64735  10.182   3.717  -0.040  0.5197 -0.3665 -0.5199
  480MOL0     H64736  10.060   3.730   0.091  1.9714  0.0641  0.9285
  480MOL0     H64737   9.929   3.870  -0.054 -0.6656 -3.0796  1.6221
  480MOL0     H64738  10.064   3.885  -0.169  1.1453  0.0508  0.1788
  480MOL0     H64739  10.018   3.681  -0.273  1.7477  0.5081  1.3048
  480MOL0     H64740   9.990   3.604  -0.117 -1.4629  0.3405  1.6909
  480MOL0     H64741   9.745   3.726  -0.123 -0.0458 -2.2546  0.3190
  480MOL0     H64742   9.775   3.761  -0.294  1.1452  0.2150 -0.3326
  480MOL0     H64743   9.842   3.488  -0.303 -1.7224 -2.2144 -1.9131
  480MOL0     H64744   9.725   3.497  -0.168 -2.7479  2.4864  1.3385
  480MOL0     H64745   9.698   3.590  -0.452 -0.5143 -0.3158 -1.6727
  480MOL0     H64746   9.631   3.434  -0.375 -2.7247  0.1326  1.1536
  480MOL0     H64747   9.455   3.532  -0.300  3.6623 -2.2978  1.5612
  480MOL0     H64748   9.535   3.691  -0.256 -2.1632  2.0387 -1.4734
  480MOL0     H64749   9.463   3.609  -0.531  0.7159 -1.7927  2.7232
  480MOL0     H64750   9.543   3.761  -0.500  0.7050  0.2382  0.9646
  480MOL0     H64751   9.202   3.576  -0.404  0.6407  0.3574  1.3477
  480MOL0     H64752   8.936   3.668  -0.370 -1.9876  0.2464 -1.2738
  480MOL0     H64753   8.947   3.837  -0.366  1.6468  0.6862 -0.2385
  480MOL0     H64754   8.822   3.686  -0.549 -0.4672  0.4404  3.9009
  480MOL0     H64755   8.976   3.690  -0.637 -2.0778 -1.6674 -0.5125
  480MOL0     H64756   8.948   3.948  -0.631 -0.9609  0.0734 -0.0993
  480MOL0     H64757   8.783   3.928  -0.581 -1.4697 -0.9376 -1.5859
  480MOL0     H64758   8.915   3.782  -0.814 -1.4688 -3.0222  1.5494
  480MOL0     H64759   8.852   3.940  -0.835  3.0506  1.5054  1.9010
  480MOL0     H64760   8.776   3.824  -1.038  0.0991  1.4842  0.3424
  480MOL0     H64761   8.616   4.032  -1.304 -3.0754  0.0568 -0.4730
  480MOL0     H64762   8.760   3.953  -1.250 -0.0940  0.1532 -1.7796
  480MOL0     H64763   8.651   3.849  -1.320 -2.4563  0.0128  0.9654
  480MOL0     H64764   8.192   3.694  -1.402 -1.3596 -1.3862 -2.6387
  480MOL0     H64765   8.000   3.701  -1.555 -2.8729  1.2502 -0.8108
  480MOL0     H64766   7.683   3.814  -1.701  1.6970 -1.8894 -0.6730
  480MOL0     H64767   7.821   3.727  -1.651  3.4146  3.4160 -0.1721
  480MOL0     H64768   7.589   3.662  -1.533 -0.0266 -0.9449  1.5122
  480MOL0     H64769   7.718   3.699  -1.417 -0.8586 -1.2036 -0.8550
  480MOL0     H64770   7.545   3.925  -1.503 -0.0908 -1.5221 -2.0508
  480MOL0     H64771   7.635   3.892  -1.355  0.3656  1.0509 -0.5969
  480MOL0     H64772   7.387   3.745  -1.457  0.0862  0.0243  0.8918
  480MOL0     H64773   7.471   3.716  -1.296 -0.4388 -0.9132 -0.5627
  480MOL0     H64774   7.340   3.976  -1.397  1.4464  2.4608  0.6113
  480MOL0     H64775   7.420   3.965  -1.248  0.5926 -0.0415 -1.3651
  480MOL0     H64776   7.248   3.779  -1.182  0.0913 -2.2453 -2.2601
  480MOL0     H64777   7.196   3.950  -1.196 -0.9657  0.2587 -1.9952
  480MOL0     H64778   7.174   3.758  -1.428  0.7111  1.4789 -1.2666
  480MOL0     H64779   7.108   3.916  -1.417 -1.9825 -0.1534 -1.5888
  480MOL0     H64780   6.967   3.840  -1.215  0.1340 -2.8332  3.1491
  480MOL0     H64781   7.000   3.673  -1.268  0.2283  0.9231  1.8501
  480MOL0     H64782   7.883   4.079  -1.371 -0.4071 -0.1202 -4.5284
  480MOL0     H64783   8.082   4.035  -1.195  0.6073  0.3872  0.3267
  480MOL0     H64784   8.295   3.867  -0.947 -0.2133  1.3638  0.2923
  480MOL0     H64785   8.463   3.821  -0.772 -0.3486  1.2857  0.5853
  480MOL0     H64786  10.280   4.104   0.198  1.1214  1.0615  1.8923
  480MOL0     H64787  10.465   4.080   0.370  2.4702  0.4448 -3.1953
  480MOL0     H64788  10.737   3.751   0.579 -0.9912  1.1772  0.0698
  480MOL0     H64789  10.898   3.735   0.743 -1.0722  1.6725  1.0902
  480MOL0     H64790  11.074   3.672   0.837  1.4188 -2.5594  0.8611
  480MOL0     H64791  11.198   3.632   0.737 -0.7890  1.5304 -2.0308
  480MOL0     H64792  11.254   3.818   0.978 -0.8989 -0.0445 -0.6719
  480MOL0     H64793  11.363   3.769   0.856 -0.7077  0.2858 -0.3693
  480MOL0     H64794  11.350   3.538   0.906 -3.1757 -2.3457  0.2894
  480MOL0     H64795  11.234   3.566   1.035  0.6723 -0.9313  1.8772
  480MOL0     H64796  11.378   3.739   1.141 -1.2481 -1.9239  0.9269
  480MOL0     H64797  11.513   3.696   1.028  0.0059 -3.6589 -4.0209
  480MOL0     H64798  11.538   3.398   1.328 -0.2072 -0.7658 -1.0413
  480MOL0     H64799  11.146   4.015   0.512 -0.2127  0.4863  1.0335
  480MOL0     H64800  10.977   4.040   0.367  1.5216  0.9226  1.8885
  481MOL0     O64801   3.560   7.519   2.015 -0.2008 -0.3019 -0.7021
  481MOL0     C64802   3.626   7.577   2.102  0.4142  0.6883 -0.4822
  481MOL0     O64803   3.578   7.614   2.229 -0.3394  1.0930  0.2906
  481MOL0     C64804   3.456   7.550   2.252  0.1458  0.3191  0.1790
  481MOL0     C64805   3.328   7.586   2.187 -0.0028 -0.3450  0.2632
  481MOL0     C64806   3.208   7.537   2.232  0.5837  0.5093 -0.3059
  481MOL0     C64807   3.197   7.444   2.330 -0.2632 -0.1551 -0.9768
  481MOL0     O64808   3.091   7.384   2.380  0.2701 -0.6136 -0.2058
  481MOL0     C64809   2.987   7.361   2.293  0.7306  0.0789 -0.4698
  481MOL0     C64810   2.885   7.473   2.297  0.0041 -0.8544  0.4237
  481MOL0     C64811   2.789   7.480   2.174  0.5134 -0.3055 -0.0472
  481MOL0     C64812   2.640   7.455   2.198 -0.0732 -0.4116  0.1565
  481MOL0     C64813   2.573   7.440   2.058  0.2284 -0.3112  0.6970
  481MOL0     C64814   2.428   7.409   2.086  0.1160  0.3492 -0.1540
  481MOL0     C64815   2.352   7.366   1.959  0.0302 -0.9544 -0.1679
  481MOL0     C64816   2.210   7.340   1.988  0.1141  0.4411  0.7525
  481MOL0     N64817   2.126   7.313   1.867  0.3859  0.0150  0.2094
  481MOL0     C64818   1.990   7.349   1.871 -0.1537  0.1752 -0.0414
  481MOL0     C64819   1.942   7.281   1.761  0.1352 -0.6785  0.0398
  481MOL0     C64820   1.799   7.290   1.718 -0.2022  0.4113  0.8293
  481MOL0     C64821   1.691   7.218   1.803  0.5096  0.3886  0.0253
  481MOL0     C64822   1.573   7.182   1.719 -0.7412 -0.5293  0.1255
  481MOL0     C64823   1.457   7.141   1.798  0.3052 -0.9664 -0.2623
  481MOL0     O64824   1.343   7.110   1.709 -0.0694  0.0313  0.6868
  481MOL0     C64825   1.220   7.120   1.767  0.0236 -0.6290 -0.8142
  481MOL0     C64826   1.188   7.155   1.907 -0.3011 -0.3859  0.7204
  481MOL0     C64827   1.056   7.181   1.951  0.8947  0.5485  0.9123
  481MOL0     C64828   1.033   7.202   2.093  0.1825 -0.7742 -1.0594
  481MOL0     C64829   0.943   7.165   1.858  0.0556  0.4282 -0.6439
  481MOL0     C64830   0.797   7.183   1.889  0.2633  0.2948  0.2953
  481MOL0     O64831   0.699   7.125   1.805  0.3518 -0.5304 -0.1266
  481MOL0     C64832   0.558   7.138   1.818 -0.2054 -0.0274 -0.3191
  481MOL0     C64833   0.491   7.044   1.744 -0.2534  0.8355 -0.7818
  481MOL0     C64834   0.350   7.050   1.729 -0.1487  0.9040  0.3689
  481MOL0     C64835   0.282   7.153   1.792 -0.0937 -0.2045  0.3390
  481MOL0     O64836   0.150   7.190   1.772  0.1522 -0.6454 -1.0525
  481MOL0     C64837   0.060   7.101   1.717  0.6502 -0.6300  0.0748
  481MOL0     C64838   0.015   6.998   1.815  0.4601  0.0048 -0.3725
  481MOL0     C64839  -0.125   6.939   1.768 -0.0918  0.6275  0.4158
  481MOL0     C64840  -0.235   7.036   1.819 -0.2865  0.2476 -0.2716
  481MOL0     C64841  -0.361   7.019   1.736 -0.1914 -0.5114  0.1141
  481MOL0     C64842  -0.488   7.065   1.813  0.3620 -0.1523  0.0923
  481MOL0     C64843  -0.531   6.954   1.921  0.9671  0.3443  0.1890
  481MOL0     C64844  -0.681   6.982   1.955 -0.1226 -0.6192 -0.4687
  481MOL0    Cl64845  -0.715   6.889   2.105  0.2898 -0.4929 -0.6108
  481MOL0     C64846   0.354   7.248   1.865  0.0522  0.9335 -0.3502
  481MOL0     C64847   0.496   7.244   1.873 -0.4572  0.0400 -0.0655
  481MOL0     O64848   0.774   7.265   1.980  0.6262 -0.3964  0.0168
  481MOL0     C64849   0.974   7.109   1.733 -0.4812 -0.1770 -0.5500
  481MOL0     C64850   1.107   7.093   1.693  0.2574  0.0123 -0.3995
  481MOL0     N64851   2.040   7.208   1.705  0.5029  0.2878 -0.2632
  481MOL0     N64852   2.149   7.233   1.759 -0.6466  0.9007 -0.5060
  481MOL0     C64853   3.315   7.422   2.405 -0.2708  0.3694 -0.3765
  481MOL0     C64854   3.436   7.473   2.366  0.2382 -0.8664 -0.9867
  481MOL0     C64855   3.755   7.649   2.079 -0.5211  0.5876  0.5889
  481MOL0     C64856   3.779   7.732   1.961  0.9146 -0.2867 -0.2018
  481MOL0     C64857   3.887   7.808   1.958 -0.6312  0.2290 -0.7225
  481MOL0     C64858   3.981   7.814   2.056  0.7176 -0.4682 -0.5897
  481MOL0     O64859   4.086   7.897   2.028 -0.0101  0.6709  0.0799
  481MOL0     C64860   4.208   7.883   2.100  0.0265  0.1652  0.2874
  481MOL0     C64861   4.319   7.932   2.001  0.0047  0.3339  0.7682
  481MOL0     C64862   4.315   7.844   1.874  0.3000 -0.0648  0.7803
  481MOL0     C64863   4.426   7.894   1.782 -0.3894  0.0191  0.5300
  481MOL0     C64864   4.423   7.847   1.642 -0.1545  0.5738 -0.3319
  481MOL0     C64865   4.429   7.816   1.525  0.6241  0.1851 -0.0704
  481MOL0     C64866   3.965   7.740   2.174  1.2324 -0.1687 -0.2366
  481MOL0     C64867   3.852   7.654   2.181  0.6397 -1.2775  0.0166
  481MOL0     H64868   3.322   7.652   2.101  5.2559 -0.8594 -0.8274
  481MOL0     H64869   3.123   7.573   2.176  1.9008 -0.7019 -3.3282
  481MOL0     H64870   3.020   7.350   2.189  1.2834 -1.7451 -0.1282
  481MOL0     H64871   2.933   7.267   2.301  2.0203 -0.7981 -1.6296
  481MOL0     H64872   2.828   7.454   2.388 -0.7053 -2.4333 -0.3093
  481MOL0     H64873   2.936   7.570   2.301 -1.0891 -0.0589 -2.3326
  481MOL0     H64874   2.797   7.585   2.141  1.9001 -0.1923  0.5761
  481MOL0     H64875   2.822   7.418   2.090 -2.8627 -1.4560 -0.6990
  481MOL0     H64876   2.622   7.363   2.254  0.1912 -0.8997 -0.5465
  481MOL0     H64877   2.588   7.539   2.245 -2.8797 -0.6543 -2.2740
  481MOL0     H64878   2.592   7.533   2.003 -0.5420  0.0745  1.0802
  481MOL0     H64879   2.609   7.357   1.996  1.5081 -1.5012  2.8991
  481MOL0     H64880   2.424   7.332   2.163 -0.2232  2.1769  1.7328
  481MOL0     H64881   2.383   7.499   2.128 -0.8477  0.2441 -0.9186
  481MOL0     H64882   2.342   7.448   1.887 -0.0169  1.9346  2.9113
  481MOL0     H64883   2.398   7.272   1.926  1.4188  0.1444 -1.4939
  481MOL0     H64884   2.182   7.434   2.036  1.4431  0.0970  2.2734
  481MOL0     H64885   2.192   7.262   2.063  0.4768  0.2535  0.6502
  481MOL0     H64886   1.933   7.412   1.938  3.2100  2.1249  1.2331
  481MOL0     H64887   1.770   7.395   1.717 -1.5171  0.0667  0.3417
  481MOL0     H64888   1.802   7.242   1.620  0.7123 -3.4268  2.5626
  481MOL0     H64889   1.667   7.274   1.893  1.5527 -0.7656  1.0688
  481MOL0     H64890   1.727   7.119   1.831 -1.3742  0.0430  1.3831
  481MOL0     H64891   1.600   7.097   1.656  0.7011  0.9832 -1.3864
  481MOL0     H64892   1.546   7.270   1.659  1.6851  1.9621  2.3663
  481MOL0     H64893   1.429   7.219   1.869  0.3754 -0.4011 -0.8444
  481MOL0     H64894   1.484   7.059   1.865 -1.0131 -0.3467  1.0708
  481MOL0     H64895   1.268   7.166   1.978 -1.0127  1.7605  1.2621
  481MOL0     H64896   0.947   7.144   2.126  0.7885 -2.7598 -2.8349
  481MOL0     H64897   1.117   7.186   2.162 -0.2887  4.0181  1.0864
  481MOL0     H64898   1.014   7.310   2.103 -0.3811 -1.0585  1.7925
  481MOL0     H64899   0.551   6.967   1.697  2.5545  1.5796  1.2993
  481MOL0     H64900   0.296   6.971   1.678 -0.6337  0.6121  1.3078
  481MOL0     H64901  -0.025   7.162   1.684  0.8699 -1.1723 -1.5994
  481MOL0     H64902   0.104   7.055   1.628 -0.2154 -1.1609 -0.0977
  481MOL0     H64903   0.097   6.927   1.833  1.9485  1.1722 -2.0884
  481MOL0     H64904  -0.007   7.045   1.911 -0.3109 -0.8599 -0.1174
  481MOL0     H64905  -0.132   6.836   1.804 -1.2521 -0.3719 -2.3731
  481MOL0     H64906  -0.122   6.926   1.659 -2.0027  0.4523  0.3632
  481MOL0     H64907  -0.255   7.025   1.926 -0.2121  1.5470 -0.1084
  481MOL0     H64908  -0.195   7.137   1.804  1.3840 -0.4823 -1.0450
  481MOL0     H64909  -0.374   6.914   1.710  0.4482 -1.1657  2.2368
  481MOL0     H64910  -0.349   7.077   1.644 -1.3778 -2.5674 -1.4245
  481MOL0     H64911  -0.485   7.165   1.858  0.2183  1.5685 -3.4109
  481MOL0     H64912  -0.568   7.070   1.739  0.3881  0.7741  0.1051
  481MOL0     H64913  -0.464   6.960   2.007 -0.1648  2.2243  0.9897
  481MOL0     H64914  -0.514   6.850   1.891 -1.5124 -0.8712  2.6222
  481MOL0     H64915  -0.751   6.945   1.880 -1.3765  0.3944  0.1618
  481MOL0     H64916  -0.689   7.090   1.971  1.0335 -0.5418 -0.3469
  481MOL0     H64917   0.302   7.337   1.901 -0.2930 -0.4141  2.8274
  481MOL0     H64918   0.552   7.321   1.925  0.2201 -1.2563  1.2165
  481MOL0     H64919   0.894   7.088   1.663 -0.1908  2.1957 -1.6982
  481MOL0     H64920   1.119   7.059   1.591 -0.1072 -4.2885  0.8087
  481MOL0     H64921   3.303   7.351   2.486  1.0325 -0.8949 -1.2385
  481MOL0     H64922   3.517   7.450   2.434  0.2176 -0.3103 -0.7642
  481MOL0     H64923   3.692   7.749   1.899  1.0213  2.1126  0.2122
  481MOL0     H64924   3.896   7.890   1.887  2.2090  0.2932 -0.4078
  481MOL0     H64925   4.212   7.950   2.187 -0.0771  2.7694 -1.6099
  481MOL0     H64926   4.225   7.780   2.133 -0.3035 -0.3206 -1.0180
  481MOL0     H64927   4.417   7.915   2.046  1.7631  1.6835 -2.2219
  481MOL0     H64928   4.295   8.036   1.978 -6.1098 -1.0904 -1.1742
  481MOL0     H64929   4.217   7.845   1.826  0.7077 -1.7161 -0.1829
  481MOL0     H64930   4.333   7.739   1.897  0.6338  0.2035  1.8149
  481MOL0     H64931   4.528   7.871   1.815  0.8542  3.4669 -0.4823
  481MOL0     H64932   4.420   8.003   1.785  3.8949  0.4207  1.7032
  481MOL0     H64933   4.441   7.797   1.420 -0.8532 -1.2944 -0.0053
  481MOL0     H64934   4.034   7.752   2.256  1.5256  0.7450 -0.6129
  481MOL0     H64935   3.835   7.585   2.264 -1.5763 -1.0112 -0.1378
  482MOL0     O64936   3.767   1.012  11.297 -0.3208 -0.9576  0.0014
  482MOL0     C64937   3.785   1.069  11.191 -0.7623 -0.5186  0.2419
  482MOL0     O64938   3.713   1.031  11.078 -1.1559 -0.1115  1.1581
  482MOL0     C64939   3.593   0.978  11.084  0.2157 -0.4963 -0.4085
  482MOL0     C64940   3.484   1.035  11.016  0.9079  0.6902  0.7558
  482MOL0     C64941   3.356   0.972  11.012 -0.0176 -0.4355  0.0977
  482MOL0     C64942   3.330   0.850  11.075 -0.5938 -0.1630  0.2765
  482MOL0     O64943   3.205   0.803  11.056  0.5501  0.5111  0.5765
  482MOL0     C64944   3.159   0.695  11.137 -0.2999  0.1258 -0.2968
  482MOL0     C64945   3.002   0.682  11.156 -0.2320  0.0404  0.2984
  482MOL0     C64946   2.914   0.643  11.041  0.3138  0.0104  0.4927
  482MOL0     C64947   2.775   0.605  11.076 -0.0914 -0.3412  1.0165
  482MOL0     C64948   2.680   0.648  10.965  0.2406 -0.6488  0.3641
  482MOL0     C64949   2.668   0.798  10.926 -0.2890 -0.3841 -0.5886
  482MOL0     C64950   2.534   0.812  10.857  0.4896  0.2788  0.5649
  482MOL0     C64951   2.503   0.954  10.809 -0.1345  0.7928  0.7671
  482MOL0     N64952   2.466   0.943  10.665  0.2922 -0.2548 -0.2088
  482MOL0     C64953   2.534   0.890  10.558  0.0513 -0.5022 -0.4078
  482MOL0     C64954   2.459   0.904  10.445 -1.0665  0.5156 -0.5394
  482MOL0     C64955   2.504   0.860  10.309 -0.7714  0.2934 -0.1632
  482MOL0     C64956   2.645   0.905  10.264 -0.5780 -0.5902 -0.8491
  482MOL0     C64957   2.656   1.061  10.260  0.7608 -0.7900 -0.9681
  482MOL0     C64958   2.768   1.112  10.175  0.6704  0.1234  0.4886
  482MOL0     O64959   2.766   1.254  10.130 -0.0684 -0.6407  0.9474
  482MOL0     C64960   2.834   1.284  10.020 -0.0895 -0.1062  0.4287
  482MOL0     C64961   2.785   1.238   9.897  0.2496 -0.1822  0.3287
  482MOL0     C64962   2.851   1.270   9.782 -0.4122  0.4298 -0.1110
  482MOL0     C64963   2.803   1.232   9.642  0.8292 -0.0459 -0.9397
  482MOL0     C64964   2.972   1.349   9.794  0.5866 -0.3840 -0.2630
  482MOL0     C64965   3.049   1.386   9.673 -0.3669 -0.8002  0.4641
  482MOL0     O64966   3.056   1.520   9.618  0.7799 -0.1224 -0.7944
  482MOL0     C64967   2.949   1.596   9.639  0.2285 -0.7157 -0.5192
  482MOL0     C64968   2.901   1.648   9.759  0.1511  0.3285 -0.7346
  482MOL0     C64969   2.786   1.732   9.774 -0.3588  0.5203  0.1005
  482MOL0     C64970   2.722   1.773   9.656  0.2494 -0.9508 -0.2613
  482MOL0     O64971   2.619   1.863   9.645  0.5495  0.3512 -0.1311
  482MOL0     C64972   2.586   1.947   9.757  0.4042 -0.6074 -0.1881
  482MOL0     C64973   2.686   2.073   9.772  0.1642 -1.1022 -0.6295
  482MOL0     C64974   2.663   2.142   9.910  0.2352  0.8716  0.3614
  482MOL0     C64975   2.791   2.223   9.957 -0.3514 -0.6245  0.5069
  482MOL0     C64976   2.748   2.305  10.080  0.2588 -0.0240  0.1249
  482MOL0     C64977   2.717   2.216  10.192 -0.7114 -0.2755  0.4952
  482MOL0     C64978   2.732   2.282  10.322  0.1966 -0.4751  0.5243
  482MOL0     C64979   2.631   2.387  10.350 -0.1468 -0.1052 -0.2059
  482MOL0    Cl64980   2.692   2.547  10.284 -0.4132 -0.0737 -0.1585
  482MOL0     C64981   2.768   1.725   9.533  0.3579  0.5195  0.1772
  482MOL0     C64982   2.884   1.649   9.527  0.1337  0.4459  0.2713
  482MOL0     O64983   3.132   1.306   9.638 -0.0769  0.1039  1.0314
  482MOL0     C64984   3.019   1.391   9.919 -0.5249 -0.6911 -0.7705
  482MOL0     C64985   2.945   1.369  10.027  0.6036  0.8397  0.0725
  482MOL0     N64986   2.341   0.969  10.476 -0.0442 -0.3031 -0.4144
  482MOL0     N64987   2.346   0.990  10.609  0.2803  1.0198  0.0941
  482MOL0     C64988   3.450   0.784  11.130 -0.1708 -0.4444 -0.7464
  482MOL0     C64989   3.579   0.849  11.138  0.5440 -0.0135  0.3931
  482MOL0     C64990   3.888   1.186  11.189 -0.2681  0.3126  0.2068
  482MOL0     C64991   3.881   1.281  11.084 -0.4616 -0.4800  0.2535
  482MOL0     C64992   3.963   1.400  11.093 -0.4734 -0.0679 -0.5928
  482MOL0     C64993   4.063   1.420  11.187  0.3747  0.3575  0.0587
  482MOL0     O64994   4.144   1.529  11.187 -0.0387  0.3376  0.8292
  482MOL0     C64995   4.288   1.507  11.192 -0.1905  0.3963  0.2163
  482MOL0     C64996   4.353   1.657  11.197  0.2527  0.6048 -0.1436
  482MOL0     C64997   4.502   1.664  11.222 -0.2882 -0.0784  0.2318
  482MOL0     C64998   4.533   1.680  11.375  0.1075  0.3768 -0.0566
  482MOL0     C64999   4.674   1.674  11.398  0.3895  0.1460  0.2386
  482MOL0     C65000   4.786   1.695  11.422  0.4258 -0.0569 -0.2663
  482MOL0     C65001   4.072   1.322  11.284  0.2977  0.1285 -0.9007
  482MOL0     C65002   3.991   1.209  11.286 -0.1318  0.5096 -0.1205
  482MOL0     H65003   3.476   1.131  10.965  1.6510 -0.1734 -1.0446
  482MOL0     H65004   3.273   1.020  10.962  0.4275 -0.1666 -0.3912
  482MOL0     H65005   3.200   0.601  11.100  2.2116  0.8451  0.4405
  482MOL0     H65006   3.194   0.714  11.239 -0.3005 -1.0798 -0.0540
  482MOL0     H65007   2.993   0.602  11.230 -1.4981  0.5158  0.6918
  482MOL0     H65008   2.969   0.771  11.210 -0.6732 -0.2808  0.5695
  482MOL0     H65009   2.923   0.729  10.974 -0.2453  0.7337  1.3262
  482MOL0     H65010   2.955   0.562  10.979  1.7154  0.6424  0.5457
  482MOL0     H65011   2.757   0.497  11.087 -2.4231  0.0762  1.9139
  482MOL0     H65012   2.734   0.651  11.166 -2.8371 -1.3292  0.4007
  482MOL0     H65013   2.703   0.591  10.876  2.1107  0.3110  0.1877
  482MOL0     H65014   2.584   0.612  11.004  0.1961 -1.0659 -0.1286
  482MOL0     H65015   2.668   0.851  11.021  4.2199  0.1510 -0.6489
  482MOL0     H65016   2.756   0.833  10.870 -0.1098 -2.6640 -1.8522
  482MOL0     H65017   2.525   0.736  10.779 -0.5128  1.5718 -0.6214
  482MOL0     H65018   2.456   0.780  10.927 -1.0161  2.2063 -0.1376
  482MOL0     H65019   2.589   1.018  10.828  0.8759 -1.0808  3.1467
  482MOL0     H65020   2.414   0.990  10.863 -1.3681  1.7962 -1.7613
  482MOL0     H65021   2.634   0.852  10.573  1.0465  2.0744 -0.0107
  482MOL0     H65022   2.496   0.751  10.303  0.7461 -0.0218  2.0929
  482MOL0     H65023   2.436   0.903  10.236  1.6784 -0.2051 -2.9333
  482MOL0     H65024   2.672   0.859  10.168  2.6439 -0.9569  0.1263
  482MOL0     H65025   2.717   0.860  10.332 -0.6712  0.8138  0.2346
  482MOL0     H65026   2.672   1.105  10.359  1.6493 -1.9702 -0.5682
  482MOL0     H65027   2.564   1.107  10.223  3.0991  5.3407 -0.2330
  482MOL0     H65028   2.777   1.052  10.084  1.6977  2.5813 -1.1597
  482MOL0     H65029   2.854   1.098  10.240 -0.0771  1.3994  1.8172
  482MOL0     H65030   2.693   1.182   9.885  0.6217 -0.6601 -0.3517
  482MOL0     H65031   2.704   1.186   9.653  1.0986 -1.0992 -2.6064
  482MOL0     H65032   2.791   1.325   9.587 -2.3668 -0.0974 -0.5437
  482MOL0     H65033   2.877   1.172   9.589  1.5553 -1.1307  1.1600
  482MOL0     H65034   2.952   1.627   9.852  0.1349  0.6919 -0.6392
  482MOL0     H65035   2.763   1.779   9.869  2.0432  0.4049  0.8066
  482MOL0     H65036   2.485   1.986   9.738  0.0701 -2.2138 -2.0703
  482MOL0     H65037   2.576   1.882   9.844 -0.4065 -1.6604 -1.0304
  482MOL0     H65038   2.790   2.044   9.756  1.5713  3.6737 -1.6827
  482MOL0     H65039   2.665   2.145   9.692  0.4191  1.7758  1.6997
  482MOL0     H65040   2.649   2.065   9.986 -0.5856 -1.5479 -2.0955
  482MOL0     H65041   2.579   2.211   9.896  0.2651  1.0600  1.0717
  482MOL0     H65042   2.865   2.147   9.982 -1.2886 -2.3086 -1.5633
  482MOL0     H65043   2.833   2.287   9.878  0.4846 -2.7579 -0.8589
  482MOL0     H65044   2.669   2.375  10.051  1.2979  1.2127  0.1303
  482MOL0     H65045   2.828   2.377  10.101 -0.6019  1.2215 -0.6692
  482MOL0     H65046   2.625   2.161  10.174 -0.0179 -1.8561  1.4782
  482MOL0     H65047   2.794   2.139  10.189 -0.9378 -0.5870  1.9317
  482MOL0     H65048   2.826   2.336  10.334  0.8463 -1.5169  0.1531
  482MOL0     H65049   2.731   2.205  10.400 -0.3320  0.6525  1.6781
  482MOL0     H65050   2.625   2.397  10.459 -0.9470  0.9398 -0.3301
  482MOL0     H65051   2.529   2.367  10.318 -0.3179  1.7346 -0.9167
  482MOL0     H65052   2.722   1.748   9.438 -0.1941 -0.2329  0.2512
  482MOL0     H65053   2.923   1.632   9.427 -1.4517  0.3893 -0.3688
  482MOL0     H65054   3.109   1.451   9.923 -1.2269  0.3384  1.0082
  482MOL0     H65055   2.978   1.399  10.126  0.1897  1.1904  0.1052
  482MOL0     H65056   3.433   0.685  11.169 -0.8185  0.1707  0.6117
  482MOL0     H65057   3.672   0.807  11.174 -0.9574 -3.1684  0.8825
  482MOL0     H65058   3.808   1.282  11.003  1.1245  0.4650 -1.2514
  482MOL0     H65059   3.936   1.479  11.023 -3.2683  0.6367  1.1308
  482MOL0     H65060   4.311   1.449  11.282  1.5862 -0.8535 -0.9925
  482MOL0     H65061   4.327   1.449  11.109  4.0801  1.5954  1.1477
  482MOL0     H65062   4.304   1.712  11.279  1.0772  1.5950 -0.2912
  482MOL0     H65063   4.329   1.708  11.103 -2.6684  0.9397  0.6864
  482MOL0     H65064   4.549   1.752  11.177  1.6696 -1.4402 -0.4950
  482MOL0     H65065   4.556   1.575  11.189  0.4944  0.3479  0.3603
  482MOL0     H65066   4.479   1.601  11.428 -1.4935  0.3758 -1.6100
  482MOL0     H65067   4.499   1.777  11.413  2.4003  0.8192  1.1105
  482MOL0     H65068   4.884   1.724  11.455 -0.2046 -0.2349  1.9187
  482MOL0     H65069   4.148   1.330  11.361 -1.0845 -5.5036  1.5921
  482MOL0     H65070   4.001   1.130  11.359 -0.1031 -1.3904 -2.0835
  483MOL0     O65071   4.334   5.296   1.904 -0.0441  0.5797  0.3304
  483MOL0     C65072   4.393   5.374   1.983  0.3822  0.1758 -0.1028
  483MOL0     O65073   4.340   5.436   2.093 -0.3362  0.3312 -0.7407
  483MOL0     C65074   4.214   5.423   2.154  0.6327 -0.5987 -0.2114
  483MOL0     C65075   4.200   5.486   2.278  0.4711  0.2329  0.2103
  483MOL0     C65076   4.078   5.488   2.347  0.5070 -0.2654  0.1388
  483MOL0     C65077   3.976   5.402   2.307 -0.3503 -0.2311 -0.4780
  483MOL0     O65078   3.862   5.393   2.379  0.3954 -0.0212 -0.0144
  483MOL0     C65079   3.743   5.342   2.316 -0.7108 -0.0097 -0.5400
  483MOL0     C65080   3.616   5.389   2.389  0.5789 -0.1321  0.5606
  483MOL0     C65081   3.611   5.544   2.386  0.2664 -0.4291 -0.6744
  483MOL0     C65082   3.590   5.609   2.250 -0.3138 -0.0378  0.4923
  483MOL0     C65083   3.495   5.534   2.153  0.3855 -0.7272 -0.1019
  483MOL0     C65084   3.442   5.612   2.024 -0.4027  0.7172  0.1694
  483MOL0     C65085   3.356   5.734   2.056  0.4162 -0.0324 -1.0553
  483MOL0     C65086   3.340   5.805   1.921 -0.2823  0.2193  0.1101
  483MOL0     N65087   3.444   5.909   1.895  0.2194 -0.1002  0.3829
  483MOL0     C65088   3.513   5.990   1.979  0.5066  0.3377 -0.1540
  483MOL0     C65089   3.573   6.084   1.897  0.5520  0.7233 -0.4475
  483MOL0     C65090   3.653   6.195   1.955 -0.3513 -0.4513  0.0243
  483MOL0     C65091   3.793   6.183   1.894 -0.0646 -0.8381  0.4139
  483MOL0     C65092   3.867   6.320   1.925  0.0683 -0.3059  0.4585
  483MOL0     C65093   4.009   6.325   1.870  0.2720  0.3036 -0.4557
  483MOL0     O65094   4.096   6.248   1.955 -0.3703 -0.4722  0.3625
  483MOL0     C65095   4.227   6.252   1.922 -0.2363  0.0655 -0.3949
  483MOL0     C65096   4.294   6.356   1.847  0.5265  0.1760  0.1100
  483MOL0     C65097   4.428   6.359   1.826 -1.0771 -0.1693  0.8199
  483MOL0     C65098   4.480   6.475   1.736 -0.2354  0.0235 -0.4339
  483MOL0     C65099   4.507   6.244   1.868 -1.0764 -0.3610 -0.0020
  483MOL0     C65100   4.655   6.231   1.835 -0.7854  0.0012 -0.3325
  483MOL0     O65101   4.710   6.108   1.851  0.7628  0.2626  0.5417
  483MOL0     C65102   4.845   6.100   1.858 -0.7835  0.0423 -0.2014
  483MOL0     C65103   4.908   6.140   1.975  0.4025 -0.0577  0.5177
  483MOL0     C65104   5.046   6.121   1.984  0.1734  0.1018 -0.0112
  483MOL0     C65105   5.124   6.046   1.893  0.3651  0.6870  0.0791
  483MOL0     O65106   5.260   6.026   1.934  0.1642 -1.0921 -0.3474
  483MOL0     C65107   5.322   5.903   1.892  0.2069 -0.5167 -0.4118
  483MOL0     C65108   5.452   5.892   1.961  0.8796 -0.5252 -0.4114
  483MOL0     C65109   5.534   6.020   1.924 -0.1949  0.2664  0.1569
  483MOL0     C65110   5.687   5.998   1.940  0.9528  0.7603  0.2301
  483MOL0     C65111   5.731   6.020   2.077  0.3395  0.6546 -0.7688
  483MOL0     C65112   5.881   5.981   2.107 -0.4118  0.0670  0.8075
  483MOL0     C65113   5.989   6.008   2.002 -0.6407 -0.1141  0.0170
  483MOL0     C65114   6.120   5.942   2.051  0.1771 -0.7226  0.3230
  483MOL0    Cl65115   6.216   6.074   2.118 -0.2819 -0.0893 -0.3190
  483MOL0     C65116   5.055   6.006   1.777 -0.5293 -0.1832  0.3501
  483MOL0     C65117   4.920   6.028   1.760  0.4584  0.0639 -0.5382
  483MOL0     O65118   4.727   6.335   1.816  0.2166  0.1711  0.1555
  483MOL0     C65119   4.443   6.139   1.931  0.0566  0.0953 -0.8274
  483MOL0     C65120   4.305   6.144   1.964  0.3680  0.7583  0.3447
  483MOL0     N65121   3.526   6.062   1.768  0.0923 -0.6042  0.3076
  483MOL0     N65122   3.452   5.959   1.771 -0.2189  0.0523  0.6773
  483MOL0     C65123   3.993   5.335   2.183 -0.1005 -0.6847  0.1520
  483MOL0     C65124   4.108   5.351   2.106  0.1495 -0.9832  0.4516
  483MOL0     C65125   4.535   5.410   1.960 -0.5058  0.1588 -0.1836
  483MOL0     C65126   4.612   5.480   2.057  0.4122  0.0641 -0.3127
  483MOL0     C65127   4.745   5.495   2.029  0.1538 -0.0619 -0.7008
  483MOL0     C65128   4.814   5.432   1.928  0.3099 -0.1858  0.1351
  483MOL0     O65129   4.951   5.459   1.917 -0.2100 -0.4293 -0.1748
  483MOL0     C65130   5.018   5.403   1.803 -0.0232  0.6866 -0.0050
  483MOL0     C65131   5.165   5.422   1.808 -0.5658  0.3748 -1.3675
  483MOL0     C65132   5.220   5.319   1.911 -0.9395 -0.1110 -0.1640
  483MOL0     C65133   5.372   5.340   1.931 -0.3485  0.1343 -0.3630
  483MOL0     C65134   5.406   5.456   2.019  0.2952  0.4137  0.8216
  483MOL0     C65135   5.412   5.551   2.092 -0.1650 -0.9087 -0.6658
  483MOL0     C65136   4.744   5.368   1.828  0.6614  0.8730 -0.7832
  483MOL0     C65137   4.604   5.360   1.845 -0.3643 -0.0394 -0.1061
  483MOL0     H65138   4.281   5.551   2.309  2.1696  0.3696 -3.8402
  483MOL0     H65139   4.074   5.563   2.426 -0.9186 -1.0713  0.8560
  483MOL0     H65140   3.731   5.374   2.211 -3.2945  1.4910  0.1072
  483MOL0     H65141   3.747   5.234   2.329 -0.1158 -0.1404 -1.6461
  483MOL0     H65142   3.531   5.342   2.339  1.6409 -1.5864  0.0482
  483MOL0     H65143   3.601   5.348   2.489  1.8468 -0.5584  0.5910
  483MOL0     H65144   3.538   5.582   2.458  0.1353  1.5504 -1.7930
  483MOL0     H65145   3.703   5.589   2.426  0.3102 -0.9659 -0.1484
  483MOL0     H65146   3.557   5.712   2.268 -3.0760 -0.2833 -2.2163
  483MOL0     H65147   3.687   5.622   2.201 -0.6503  0.5009 -0.0449
  483MOL0     H65148   3.535   5.439   2.117  0.2236  0.1490 -2.8510
  483MOL0     H65149   3.412   5.508   2.220 -0.9571  2.1714 -0.4468
  483MOL0     H65150   3.528   5.642   1.964 -1.1069  1.3612 -0.5356
  483MOL0     H65151   3.376   5.537   1.979 -0.2540 -1.1870  2.8385
  483MOL0     H65152   3.266   5.701   2.109  1.8792 -0.3355  1.3982
  483MOL0     H65153   3.411   5.797   2.127  1.2663  0.2243 -1.9134
  483MOL0     H65154   3.248   5.865   1.917  0.3125  1.0981 -0.8254
  483MOL0     H65155   3.334   5.735   1.837 -2.5952  0.5734 -0.0853
  483MOL0     H65156   3.537   5.971   2.083 -0.2408  1.4927  0.2611
  483MOL0     H65157   3.602   6.287   1.927  0.6533  0.5896  1.4483
  483MOL0     H65158   3.664   6.179   2.063  0.1861  0.0406  0.0505
  483MOL0     H65159   3.788   6.171   1.785  2.2749  1.4576 -0.0478
  483MOL0     H65160   3.850   6.103   1.941  2.8018  0.9860  0.2499
  483MOL0     H65161   3.872   6.338   2.032 -0.4424  1.7199  0.1831
  483MOL0     H65162   3.810   6.397   1.871  0.8011 -0.7306 -0.9825
  483MOL0     H65163   4.037   6.431   1.881  0.1100  0.6126 -2.5200
  483MOL0     H65164   4.019   6.286   1.768  0.7046  0.1375 -0.3512
  483MOL0     H65165   4.238   6.441   1.809 -1.7396 -0.1723  2.3781
  483MOL0     H65166   4.534   6.425   1.654 -0.8308 -0.7902 -0.3430
  483MOL0     H65167   4.402   6.526   1.680  0.1144  0.5161 -0.4724
  483MOL0     H65168   4.543   6.544   1.792  0.3414 -1.2122  0.4890
  483MOL0     H65169   4.851   6.194   2.051 -1.3698  0.6891 -1.2634
  483MOL0     H65170   5.088   6.148   2.080  2.7301 -2.5458 -0.2342
  483MOL0     H65171   5.246   5.825   1.902 -1.6130  0.7730 -3.0562
  483MOL0     H65172   5.339   5.902   1.784 -0.0112  0.4410 -0.4632
  483MOL0     H65173   5.438   5.887   2.070 -2.2254  0.6813 -0.6364
  483MOL0     H65174   5.504   5.801   1.931 -0.3297 -1.6423  0.7104
  483MOL0     H65175   5.496   6.101   1.986 -1.0033 -1.0628  1.4469
  483MOL0     H65176   5.521   6.041   1.817 -0.1686  0.8188  0.2592
  483MOL0     H65177   5.716   5.897   1.907 -0.2683  0.9377 -1.5510
  483MOL0     H65178   5.732   6.068   1.869  0.2619  1.7743  0.7633
  483MOL0     H65179   5.671   5.964   2.149  1.5200  0.9792  0.4913
  483MOL0     H65180   5.733   6.128   2.097 -2.0085  0.4710  0.9633
  483MOL0     H65181   5.916   6.033   2.197  1.3655  1.0952 -0.4249
  483MOL0     H65182   5.894   5.875   2.130  0.8270  0.2854  1.1810
  483MOL0     H65183   6.011   6.111   1.973 -2.2812 -0.3352 -2.2372
  483MOL0     H65184   5.959   5.946   1.917 -0.1830  1.1970 -1.1563
  483MOL0     H65185   6.171   5.896   1.966  1.0537 -0.5256  0.7246
  483MOL0     H65186   6.106   5.859   2.121 -2.1400 -1.5159 -0.9757
  483MOL0     H65187   5.112   5.965   1.694  0.9778  5.0773 -1.6674
  483MOL0     H65188   4.874   6.010   1.663 -0.5656 -1.2822  0.1784
  483MOL0     H65189   4.509   6.055   1.950  2.1070  1.7074 -0.4419
  483MOL0     H65190   4.252   6.072   2.026  0.6742  0.6558  0.4883
  483MOL0     H65191   3.918   5.267   2.146 -0.7913 -0.5210  1.2212
  483MOL0     H65192   4.121   5.301   2.010 -0.7119 -2.8501  1.2477
  483MOL0     H65193   4.562   5.544   2.129  0.6519  1.3976 -1.2942
  483MOL0     H65194   4.805   5.555   2.096 -2.5365  1.1065  0.8495
  483MOL0     H65195   4.996   5.297   1.788 -0.3245  0.0433  4.0277
  483MOL0     H65196   4.982   5.467   1.722  1.1692  0.0010 -1.1268
  483MOL0     H65197   5.180   5.526   1.839  1.7212  0.7342 -3.4161
  483MOL0     H65198   5.213   5.404   1.711  2.0375  0.7507 -0.2446
  483MOL0     H65199   5.212   5.217   1.872  0.3065  0.0898 -1.0030
  483MOL0     H65200   5.174   5.333   2.009  0.1395  1.3273  0.1603
  483MOL0     H65201   5.426   5.340   1.836 -1.1222 -1.0330 -0.8272
  483MOL0     H65202   5.416   5.260   1.990 -0.5378  0.2483 -0.0675
  483MOL0     H65203   5.431   5.645   2.141  1.1695 -0.5499 -1.7835
  483MOL0     H65204   4.801   5.326   1.746  0.8563 -1.8349  0.6206
  483MOL0     H65205   4.547   5.318   1.762  2.4788  1.8082 -3.2892
  484MOL0     O65206   8.801   1.491   0.960 -0.0055 -0.8540  0.0142
  484MOL0     C65207   8.885   1.529   1.045  1.0998  0.6912  0.7400
  484MOL0     O65208   8.861   1.615   1.149  1.0349  1.4804 -0.4678
  484MOL0     C65209   8.744   1.681   1.153  0.1231 -0.1004 -0.1380
  484MOL0     C65210   8.709   1.809   1.089  0.5572  0.5757 -0.5333
  484MOL0     C65211   8.581   1.866   1.114 -0.3762 -0.3826 -0.2922
  484MOL0     C65212   8.490   1.798   1.198 -0.3561 -0.3063 -0.0920
  484MOL0     O65213   8.372   1.865   1.228  0.0482 -0.2139  0.3866
  484MOL0     C65214   8.254   1.790   1.215  0.8721 -0.4423  0.3420
  484MOL0     C65215   8.143   1.891   1.164 -0.7992  0.7297 -0.4650
  484MOL0     C65216   8.009   1.814   1.133 -0.4573 -0.6671  0.0565
  484MOL0     C65217   8.029   1.703   1.033 -0.1878 -0.3792 -0.4679
  484MOL0     C65218   7.897   1.640   0.983  0.1274  0.0204 -0.3221
  484MOL0     C65219   7.827   1.547   1.082 -0.2840 -0.3084  0.8436
  484MOL0     C65220   7.722   1.462   1.020 -0.4775 -0.3708  0.0499
  484MOL0     C65221   7.637   1.395   1.132 -0.7497  0.1412  0.2975
  484MOL0     N65222   7.561   1.497   1.190  0.4080 -0.0183  0.7601
  484MOL0     C65223   7.453   1.558   1.133 -0.0385 -0.2197  0.1875
  484MOL0     C65224   7.393   1.618   1.235 -0.2219  0.0086  0.0185
  484MOL0     C65225   7.258   1.692   1.230  0.6803  0.6179 -0.1589
  484MOL0     C65226   7.178   1.678   1.356  0.2965  1.0471 -0.2085
  484MOL0     C65227   7.036   1.722   1.337 -0.6164 -0.6832  0.0314
  484MOL0     C65228   6.942   1.710   1.468  0.2591  0.1255 -0.2480
  484MOL0     O65229   6.925   1.576   1.515 -0.5145 -0.1782  0.3168
  484MOL0     C65230   6.819   1.565   1.607 -0.0524 -0.4058  0.3113
  484MOL0     C65231   6.795   1.436   1.645 -0.0971  0.3954  0.1334
  484MOL0     C65232   6.682   1.398   1.708 -0.3550 -0.2701  0.0319
  484MOL0     C65233   6.675   1.254   1.756  1.0688  0.2546 -0.2547
  484MOL0     C65234   6.588   1.496   1.742  0.8597  0.0135 -0.7601
  484MOL0     C65235   6.448   1.464   1.803  1.0169 -0.5960  0.2537
  484MOL0     O65236   6.378   1.564   1.867  0.3236  0.3491 -0.3743
  484MOL0     C65237   6.243   1.555   1.889  0.4845 -0.0756  0.0957
  484MOL0     C65238   6.172   1.616   1.782 -0.9278  0.4288  0.5960
  484MOL0     C65239   6.036   1.598   1.771 -0.2646  0.5415 -0.5583
  484MOL0     C65240   5.970   1.538   1.879  0.2324 -0.0278  1.1875
  484MOL0     O65241   5.833   1.521   1.886  0.3850 -0.9509  0.3702
  484MOL0     C65242   5.761   1.633   1.832  0.2752  0.0635 -0.0373
  484MOL0     C65243   5.626   1.623   1.914 -0.0412  0.1118  0.3845
  484MOL0     C65244   5.557   1.760   1.882  0.0898  0.5140 -0.5088
  484MOL0     C65245   5.430   1.767   1.964  0.7179 -0.2618 -0.4596
  484MOL0     C65246   5.349   1.896   1.952 -0.1334 -0.1284 -0.5164
  484MOL0     C65247   5.415   2.000   2.040 -0.4745  0.8365 -0.1094
  484MOL0     C65248   5.433   2.129   1.954  0.0055  0.5280 -0.3930
  484MOL0     C65249   5.538   2.112   1.853  0.2078 -0.3656 -0.3185
  484MOL0    Cl65250   5.693   2.151   1.932 -0.5516 -0.0746  0.2259
  484MOL0     C65251   6.039   1.486   1.987  0.6001  0.2791  0.2361
  484MOL0     C65252   6.181   1.495   1.998  0.2841 -0.1865 -0.7024
  484MOL0     O65253   6.398   1.353   1.789  0.5173 -0.0150  0.0141
  484MOL0     C65254   6.615   1.631   1.722  0.4179  0.1438  0.0596
  484MOL0     C65255   6.732   1.665   1.648 -0.2544  0.1863 -0.4802
  484MOL0     N65256   7.468   1.606   1.352  0.0980 -0.0154  0.1164
  484MOL0     N65257   7.572   1.543   1.319  0.4847  1.1496 -0.2495
  484MOL0     C65258   8.526   1.685   1.255 -0.0482  0.2155  0.6002
  484MOL0     C65259   8.646   1.616   1.229  1.1719 -0.4910 -0.4128
  484MOL0     C65260   9.012   1.453   1.034 -1.4297  0.1294 -0.7548
  484MOL0     C65261   9.013   1.337   0.951 -0.3445  0.2737 -0.7719
  484MOL0     C65262   9.122   1.248   0.959 -0.3025  0.6019  0.5987
  484MOL0     C65263   9.237   1.279   1.030 -0.3697  0.2553  0.0094
  484MOL0     O65264   9.354   1.211   1.037 -0.3046 -0.0540 -0.1242
  484MOL0     C65265   9.362   1.075   1.000 -0.3161  0.1019  0.3163
  484MOL0     C65266   9.508   1.027   1.012 -0.2422  0.0185  0.0718
  484MOL0     C65267   9.573   1.066   1.149  0.3646  0.2248 -0.3790
  484MOL0     C65268   9.720   1.021   1.154 -1.3426 -0.6561 -0.5168
  484MOL0     C65269   9.796   1.095   1.265  0.8038  0.3200  1.1362
  484MOL0     C65270   9.855   1.158   1.348  0.2521  0.3450  0.3844
  484MOL0     C65271   9.223   1.390   1.116 -0.3537  0.0844 -0.2231
  484MOL0     C65272   9.122   1.476   1.119 -0.0732  0.4586 -0.6783
  484MOL0     H65273   8.770   1.862   1.016  0.9931 -1.8087 -2.0100
  484MOL0     H65274   8.557   1.967   1.079  0.5506  0.3047  0.9839
  484MOL0     H65275   8.280   1.705   1.151  3.3203 -2.2416  3.4516
  484MOL0     H65276   8.219   1.755   1.313  0.2882 -1.2487 -0.1373
  484MOL0     H65277   8.129   1.965   1.243  0.4868 -0.2548  0.7325
  484MOL0     H65278   8.172   1.954   1.080 -0.6095  1.4422  0.1295
  484MOL0     H65279   7.976   1.776   1.230  3.0869  0.5031  1.8833
  484MOL0     H65280   7.936   1.886   1.095 -0.8043 -0.7734  0.5123
  484MOL0     H65281   8.083   1.747   0.949 -0.3999 -1.3888 -1.1467
  484MOL0     H65282   8.099   1.625   1.066  2.4813  1.1967 -1.9657
  484MOL0     H65283   7.831   1.717   0.943 -0.5426 -0.6138 -0.4480
  484MOL0     H65284   7.919   1.579   0.895 -0.3402  0.5031 -0.7784
  484MOL0     H65285   7.896   1.480   1.135 -1.7470 -1.7421  1.0025
  484MOL0     H65286   7.781   1.601   1.166  1.1063 -0.5255  1.7861
  484MOL0     H65287   7.659   1.511   0.946 -0.7945 -1.8592 -0.7039
  484MOL0     H65288   7.766   1.376   0.968 -1.8255  0.0239 -1.8506
  484MOL0     H65289   7.709   1.369   1.211 -1.7161  1.9874  1.8858
  484MOL0     H65290   7.579   1.310   1.098  0.3150  0.2443 -1.9149
  484MOL0     H65291   7.417   1.542   1.032 -2.2835  2.1497  0.5170
  484MOL0     H65292   7.278   1.795   1.200  1.5906  1.1623  2.0884
  484MOL0     H65293   7.191   1.653   1.153 -0.3991 -1.3449  1.6568
  484MOL0     H65294   7.222   1.730   1.441  2.1718  1.4537 -1.3814
  484MOL0     H65295   7.168   1.570   1.374  0.4393  1.1840  0.7029
  484MOL0     H65296   6.990   1.653   1.266 -1.1404  0.7158 -1.0323
  484MOL0     H65297   7.024   1.823   1.297  2.1599  0.5798  2.0432
  484MOL0     H65298   6.844   1.745   1.434 -0.8817 -1.7687  0.8924
  484MOL0     H65299   6.972   1.778   1.548 -0.2329  0.0868 -0.0272
  484MOL0     H65300   6.860   1.356   1.610 -0.0260 -0.0406  1.2152
  484MOL0     H65301   6.664   1.254   1.865  1.1292  1.2688 -0.2365
  484MOL0     H65302   6.587   1.208   1.710  0.4306 -2.0178  2.8990
  484MOL0     H65303   6.758   1.196   1.714 -0.6925 -0.7169 -2.6226
  484MOL0     H65304   6.223   1.668   1.701  1.8450 -0.7941  1.4728
  484MOL0     H65305   5.979   1.629   1.683 -1.5461 -1.0083 -0.3151
  484MOL0     H65306   5.816   1.726   1.851  0.8476 -0.6946  2.3516
  484MOL0     H65307   5.743   1.619   1.725 -0.9521 -0.6080  0.2385
  484MOL0     H65308   5.570   1.532   1.888 -0.4640  0.7669 -1.1066
  484MOL0     H65309   5.645   1.620   2.022  1.8742  0.1026  0.0824
  484MOL0     H65310   5.534   1.773   1.776 -0.6779  0.2399 -0.3852
  484MOL0     H65311   5.630   1.832   1.920 -0.2664  0.3123  0.5928
  484MOL0     H65312   5.355   1.690   1.944  0.3825  0.7080 -3.3839
  484MOL0     H65313   5.445   1.752   2.072  1.1605  2.2363 -0.1110
  484MOL0     H65314   5.252   1.872   1.996  1.1749  0.0354  2.7311
  484MOL0     H65315   5.331   1.925   1.848  1.8761 -0.5554 -1.0233
  484MOL0     H65316   5.367   2.024   2.135 -1.0236  3.1625 -0.9120
  484MOL0     H65317   5.509   1.967   2.085 -1.0569  0.0978  0.5914
  484MOL0     H65318   5.462   2.216   2.013 -0.9056  0.3140  0.4038
  484MOL0     H65319   5.334   2.152   1.913  0.6911  2.6114 -0.9778
  484MOL0     H65320   5.521   2.176   1.766 -1.8808 -0.3400  0.0433
  484MOL0     H65321   5.536   2.011   1.813 -0.1817 -0.5410  0.1304
  484MOL0     H65322   5.979   1.427   2.056  4.0936 -2.6333  1.1044
  484MOL0     H65323   6.227   1.458   2.089 -0.1400  0.1561 -0.3439
  484MOL0     H65324   6.547   1.707   1.760  0.5652  1.6500 -2.4530
  484MOL0     H65325   6.749   1.771   1.633  0.8742 -0.1178 -1.5538
  484MOL0     H65326   8.447   1.638   1.313 -1.4652  0.9344 -0.6656
  484MOL0     H65327   8.663   1.515   1.267  1.0585 -0.4631 -0.2888
  484MOL0     H65328   8.934   1.316   0.880 -0.8060  0.1497 -0.2333
  484MOL0     H65329   9.110   1.153   0.908 -0.0077 -0.4743  2.4344
  484MOL0     H65330   9.297   1.018   1.067  0.0817  0.5149  1.0646
  484MOL0     H65331   9.332   1.051   0.898  2.0097 -2.3547  0.0695
  484MOL0     H65332   9.575   1.075   0.940  2.1519 -0.2415  1.9871
  484MOL0     H65333   9.504   0.921   0.986 -0.6964  0.7779 -3.4574
  484MOL0     H65334   9.538   0.995   1.225 -2.4697 -3.4411 -4.5793
  484MOL0     H65335   9.571   1.174   1.167 -0.3659 -0.2001  2.4919
  484MOL0     H65336   9.767   1.029   1.055 -1.6200 -3.4751 -0.9720
  484MOL0     H65337   9.739   0.915   1.173 -1.4708 -0.2359  2.3861
  484MOL0     H65338   9.889   1.229   1.421  0.5426  1.5855 -0.9181
  484MOL0     H65339   9.318   1.406   1.166 -0.5850  0.4080  0.1239
  484MOL0     H65340   9.119   1.566   1.180 -0.4385  1.2640 -1.8501
  485MOL0     O65341   0.918   5.395   2.004  0.0790  0.2858 -0.4892
  485MOL0     C65342   0.988   5.462   1.923  0.0368  0.3375 -0.4375
  485MOL0     O65343   0.938   5.521   1.811 -0.4539 -0.3818  0.2995
  485MOL0     C65344   0.801   5.527   1.784  0.0630 -0.9379 -0.6481
  485MOL0     C65345   0.698   5.550   1.881 -0.3140  0.2996  0.2048
  485MOL0     C65346   0.573   5.558   1.838  0.1351  0.0350  1.3031
  485MOL0     C65347   0.534   5.546   1.702 -0.8983  0.1916  0.7890
  485MOL0     O65348   0.407   5.530   1.668  0.4467 -0.3875 -0.2106
  485MOL0     C65349   0.368   5.404   1.614  0.6451 -0.5695 -0.1571
  485MOL0     C65350   0.217   5.388   1.651 -0.5560  0.0494  0.8239
  485MOL0     C65351   0.140   5.508   1.603  0.1942  0.3271  0.1229
  485MOL0     C65352  -0.014   5.499   1.638 -0.3452  0.3288 -0.6745
  485MOL0     C65353  -0.067   5.639   1.601  0.8315  0.3842  0.1181
  485MOL0     C65354  -0.221   5.626   1.615 -0.2257 -0.2100  0.2064
  485MOL0     C65355  -0.291   5.761   1.574  0.6751 -0.0205 -0.1614
  485MOL0     C65356  -0.439   5.747   1.571 -0.6200  0.8602 -0.0509
  485MOL0     N65357  -0.510   5.873   1.542 -0.5515  0.2524  0.0880
  485MOL0     C65358  -0.526   5.937   1.420 -0.4970  0.1802 -0.1571
  485MOL0     C65359  -0.602   6.047   1.449 -0.7718 -0.4131 -0.4394
  485MOL0     C65360  -0.661   6.123   1.339  0.0258  0.4160  0.2764
  485MOL0     C65361  -0.796   6.076   1.287  0.3500 -0.2146 -0.7525
  485MOL0     C65362  -0.905   6.041   1.391 -0.2463  0.2647  0.2323
  485MOL0     C65363  -1.028   5.992   1.312  0.5691 -0.3174 -0.1917
  485MOL0     O65364  -1.131   5.948   1.405  0.3152 -0.6665  0.0211
  485MOL0     C65365  -1.262   5.930   1.355 -0.1325 -0.1292 -0.0600
  485MOL0     C65366  -1.370   5.917   1.442  0.1471  0.2130  0.6963
  485MOL0     C65367  -1.504   5.895   1.404 -0.0693 -0.7179  0.8293
  485MOL0     C65368  -1.597   5.903   1.521 -0.1002 -0.0573  0.6210
  485MOL0     C65369  -1.527   5.870   1.271 -0.0656 -0.2608  0.2611
  485MOL0     C65370  -1.664   5.852   1.216 -0.3382 -0.1511 -0.5600
  485MOL0     O65371  -1.771   5.927   1.277  0.3207  0.0882  0.1743
  485MOL0     C65372  -1.874   5.950   1.190  1.0596  0.1446  0.4852
  485MOL0     C65373  -1.999   5.915   1.240 -1.5461 -0.4084 -0.3947
  485MOL0     C65374  -2.118   5.953   1.171  0.1063 -0.1908 -0.3576
  485MOL0     C65375  -2.105   6.010   1.042  0.5150  0.7451 -0.0979
  485MOL0     O65376  -2.206   6.060   0.962  0.3092 -0.1321  0.1283
  485MOL0     C65377  -2.331   6.075   1.022  0.1145 -0.3614 -0.1321
  485MOL0     C65378  -2.408   6.176   0.936 -0.4036 -0.0616 -0.1678
  485MOL0     C65379  -2.541   6.217   0.987 -0.7630  0.1582  0.2952
  485MOL0     C65380  -2.585   6.338   0.911 -0.4065 -0.1045  0.1355
  485MOL0     C65381  -2.723   6.387   0.951 -0.6971 -1.2073 -0.1301
  485MOL0     C65382  -2.801   6.454   0.839  0.0567 -0.0788 -0.6257
  485MOL0     C65383  -2.942   6.487   0.892 -0.6616  0.0278  0.2902
  485MOL0     C65384  -3.015   6.573   0.789 -0.3713  0.3455  0.7248
  485MOL0    Cl65385  -3.184   6.583   0.811  0.0332 -0.0651 -0.2792
  485MOL0     C65386  -1.976   6.041   0.994  0.5808  0.8327  0.1059
  485MOL0     C65387  -1.862   6.018   1.065  0.2166 -0.0907 -0.7559
  485MOL0     O65388  -1.676   5.785   1.117  0.2836 -0.5434 -0.1430
  485MOL0     C65389  -1.420   5.880   1.169 -0.3882 -0.3498  0.0443
  485MOL0     C65390  -1.295   5.915   1.217 -0.1929  0.0127  1.0328
  485MOL0     N65391  -0.629   6.051   1.582  0.5144  0.0906  0.7377
  485MOL0     N65392  -0.570   5.950   1.631  0.2776 -0.4556 -0.0211
  485MOL0     C65393   0.633   5.527   1.603  0.2033 -0.1858  0.2987
  485MOL0     C65394   0.767   5.524   1.653 -1.0174 -0.3954  0.1061
  485MOL0     C65395   1.131   5.479   1.941 -0.0067 -0.1625 -0.0441
  485MOL0     C65396   1.215   5.556   1.855  0.8842  0.2461 -0.4589
  485MOL0     C65397   1.354   5.568   1.880  0.1616  0.3166  0.9211
  485MOL0     C65398   1.409   5.507   1.987  0.6529 -0.1500 -0.6489
  485MOL0     O65399   1.544   5.525   2.016  0.1945 -0.3283  0.5740
  485MOL0     C65400   1.631   5.618   1.945  0.8028  0.4940  0.0631
  485MOL0     C65401   1.765   5.637   2.017 -0.2864  0.5070 -0.2991
  485MOL0     C65402   1.851   5.756   1.965  0.8081  0.1916  0.9555
  485MOL0     C65403   1.801   5.894   2.004 -0.6785  0.6350  0.0104
  485MOL0     C65404   1.762   5.906   2.141  0.6199  0.9216  0.3057
  485MOL0     C65405   1.739   5.922   2.257  0.5567  0.5479 -0.1109
  485MOL0     C65406   1.325   5.445   2.077  0.3836  1.2439 -0.0023
  485MOL0     C65407   1.189   5.422   2.046 -0.0682 -0.3275 -0.3630
  485MOL0     H65408   0.708   5.560   1.988  0.5458  1.1239  0.0629
  485MOL0     H65409   0.495   5.580   1.910  0.6124  1.0128  1.5331
  485MOL0     H65410   0.377   5.402   1.505 -0.1899 -1.4550 -0.2233
  485MOL0     H65411   0.415   5.318   1.663 -2.6548 -1.0342  2.5875
  485MOL0     H65412   0.190   5.297   1.597 -1.7037  0.8466  0.0088
  485MOL0     H65413   0.205   5.366   1.757  2.7794  2.0242  1.7524
  485MOL0     H65414   0.171   5.599   1.654 -2.2744  0.4317  1.6002
  485MOL0     H65415   0.144   5.512   1.493 -0.3332  0.6185  0.1071
  485MOL0     H65416  -0.076   5.426   1.587 -1.1440  0.2739  0.3495
  485MOL0     H65417  -0.015   5.471   1.744  3.6806 -2.2453 -1.1037
  485MOL0     H65418  -0.024   5.723   1.656  2.1436  0.0009 -0.2704
  485MOL0     H65419  -0.039   5.650   1.495 -0.0070 -2.8776 -0.5518
  485MOL0     H65420  -0.243   5.564   1.528  1.5267 -0.6256  0.0231
  485MOL0     H65421  -0.256   5.594   1.714 -1.3958  0.6331  0.0934
  485MOL0     H65422  -0.259   5.833   1.649 -0.8638 -0.2890  0.7935
  485MOL0     H65423  -0.267   5.789   1.471  2.4440 -0.0218  0.2342
  485MOL0     H65424  -0.477   5.706   1.665  1.7239  1.7589  1.3616
  485MOL0     H65425  -0.468   5.676   1.492  0.7303 -0.1193  0.2991
  485MOL0     H65426  -0.501   5.909   1.319 -2.2180 -0.5202 -0.4203
  485MOL0     H65427  -0.655   6.229   1.365  2.6594  0.3511  0.1734
  485MOL0     H65428  -0.591   6.093   1.261 -2.3004 -4.7423 -0.2430
  485MOL0     H65429  -0.789   5.991   1.219 -0.7075  0.6304 -1.9651
  485MOL0     H65430  -0.818   6.166   1.228  0.0826 -0.2397 -0.6933
  485MOL0     H65431  -0.924   6.119   1.466 -0.2469  0.3598  0.1329
  485MOL0     H65432  -0.867   5.958   1.450  0.9945  0.1346 -0.7199
  485MOL0     H65433  -1.007   5.908   1.245  2.0800 -1.5651  1.7024
  485MOL0     H65434  -1.066   6.083   1.266  0.1689  0.1080  0.9482
  485MOL0     H65435  -1.342   5.916   1.547 -1.7821 -0.3575  1.2484
  485MOL0     H65436  -1.610   5.800   1.554  2.3132 -0.6905 -0.2014
  485MOL0     H65437  -1.561   5.968   1.602 -1.7772  1.2367  0.3854
  485MOL0     H65438  -1.696   5.938   1.491  0.6387  0.8154 -0.9107
  485MOL0     H65439  -2.011   5.870   1.338  1.9197  3.3994  2.1141
  485MOL0     H65440  -2.215   5.941   1.218  0.3188 -1.8338 -0.2607
  485MOL0     H65441  -2.388   5.984   1.040  2.0532 -1.2458  2.0065
  485MOL0     H65442  -2.323   6.127   1.118  1.0116 -0.9596  0.1228
  485MOL0     H65443  -2.358   6.273   0.937 -2.0574  0.8483 -0.7335
  485MOL0     H65444  -2.421   6.137   0.835 -1.7324  1.5790 -0.6783
  485MOL0     H65445  -2.537   6.242   1.093 -0.2303  1.3932 -0.0047
  485MOL0     H65446  -2.614   6.137   0.968 -1.0166  0.3117  0.6196
  485MOL0     H65447  -2.510   6.415   0.934 -0.5297  0.3550 -0.9387
  485MOL0     H65448  -2.573   6.315   0.805  1.6021  2.4021 -0.2898
  485MOL0     H65449  -2.706   6.465   1.026  3.1982 -1.9117 -0.0478
  485MOL0     H65450  -2.785   6.308   0.995 -0.7782 -0.8422  0.4149
  485MOL0     H65451  -2.743   6.543   0.813  1.8411 -1.4467 -1.6480
  485MOL0     H65452  -2.807   6.390   0.750 -3.7496 -0.6291 -0.1126
  485MOL0     H65453  -2.947   6.554   0.978 -0.8037  2.3741 -1.4229
  485MOL0     H65454  -2.989   6.390   0.908  2.7476 -1.8599 -0.1026
  485MOL0     H65455  -3.000   6.534   0.688 -2.3143 -3.6637  1.7651
  485MOL0     H65456  -2.987   6.678   0.805  1.1788 -0.0526  0.8294
  485MOL0     H65457  -1.972   6.082   0.894 -3.5688 -0.1745 -0.6801
  485MOL0     H65458  -1.767   6.045   1.021 -0.6746  3.2685 -0.8715
  485MOL0     H65459  -1.442   5.869   1.063 -0.8686  0.8852  0.0008
  485MOL0     H65460  -1.219   5.920   1.141  1.2655  0.2072  2.4455
  485MOL0     H65461   0.596   5.507   1.503 -1.2880 -3.6567  1.4081
  485MOL0     H65462   0.839   5.474   1.589  1.1625  1.9378  0.5918
  485MOL0     H65463   1.182   5.614   1.770 -0.9643 -0.1940 -0.0781
  485MOL0     H65464   1.410   5.639   1.821  1.0369  1.1485  2.6589
  485MOL0     H65465   1.661   5.576   1.848  0.0365  1.8206 -0.7786
  485MOL0     H65466   1.586   5.716   1.930  0.0607  0.8891  3.8877
  485MOL0     H65467   1.824   5.545   2.008 -0.6836  0.3207 -1.1446
  485MOL0     H65468   1.757   5.652   2.125  0.4443  1.6976 -0.3905
  485MOL0     H65469   1.856   5.737   1.857 -1.4188 -1.5012  1.0850
  485MOL0     H65470   1.953   5.748   2.005  0.6799  0.6191  1.3721
  485MOL0     H65471   1.718   5.917   1.936  0.0711 -1.5084 -1.7432
  485MOL0     H65472   1.877   5.972   1.993 -0.0157  0.0189  0.1563
  485MOL0     H65473   1.710   5.947   2.357  2.5092  3.0517 -0.0679
  485MOL0     H65474   1.363   5.409   2.172 -0.1381 -0.8193 -0.5420
  485MOL0     H65475   1.126   5.378   2.123  2.3534  2.4799  3.6574
  486MOL0     O65476  10.441   3.425   4.511 -0.2268  0.4699  0.8789
  486MOL0     C65477  10.414   3.346   4.418  0.4833 -0.3294  0.2620
  486MOL0     O65478  10.290   3.302   4.392 -0.2194  0.2514  0.4119
  486MOL0     C65479  10.186   3.386   4.399 -0.2197 -0.7330  0.4058
  486MOL0     C65480  10.064   3.349   4.452 -0.0845  1.0510  0.5304
  486MOL0     C65481   9.946   3.425   4.452 -0.5305 -0.5539  0.1236
  486MOL0     C65482   9.957   3.554   4.388 -0.0126  0.3474  0.4734
  486MOL0     O65483   9.839   3.627   4.376  0.3511  0.4734 -0.0344
  486MOL0     C65484   9.845   3.747   4.299  0.3484 -0.0404 -0.2636
  486MOL0     C65485   9.708   3.808   4.320 -0.1917 -2.0214 -0.3041
  486MOL0     C65486   9.722   3.941   4.250 -0.1039 -0.2922  0.0900
  486MOL0     C65487   9.593   4.016   4.230  0.8983  0.4290 -0.7917
  486MOL0     C65488   9.621   4.129   4.139  0.7242  0.9641 -0.1729
  486MOL0     C65489   9.722   4.244   4.165 -0.2892  0.3951  0.5433
  486MOL0     C65490   9.697   4.322   4.289  0.2093 -0.1740  0.6636
  486MOL0     C65491   9.816   4.423   4.306  0.2348  0.3604  0.5947
  486MOL0     N65492   9.808   4.478   4.437  0.4496  0.1402 -0.0332
  486MOL0     C65493   9.854   4.419   4.552 -0.2721  0.1555 -0.2417
  486MOL0     C65494   9.813   4.503   4.654  0.8537  0.3849 -1.3534
  486MOL0     C65495   9.821   4.472   4.806  0.6179 -0.0204  0.3495
  486MOL0     C65496   9.715   4.538   4.901  1.1765  0.7226 -0.4129
  486MOL0     C65497   9.578   4.459   4.904 -0.0769 -0.0249  0.4806
  486MOL0     C65498   9.468   4.548   4.975 -0.8469  1.0202  0.1613
  486MOL0     O65499   9.352   4.478   5.032 -0.3664  0.0073 -0.3044
  486MOL0     C65500   9.244   4.550   5.072 -0.2504 -0.1561 -0.4270
  486MOL0     C65501   9.120   4.479   5.074 -1.3144  0.0989  0.6590
  486MOL0     C65502   9.002   4.551   5.094  0.4252  0.3744  0.8371
  486MOL0     C65503   8.877   4.460   5.070 -0.1443  0.3575 -0.0753
  486MOL0     C65504   9.004   4.691   5.124  0.6614 -0.2251 -0.0274
  486MOL0     C65505   8.879   4.775   5.140 -0.2887 -0.2477  0.5258
  486MOL0     O65506   8.752   4.711   5.127 -0.0799 -0.2704  0.1653
  486MOL0     C65507   8.636   4.782   5.133 -0.3412  0.1697  0.3861
  486MOL0     C65508   8.519   4.709   5.149 -0.0141 -0.2487 -0.3531
  486MOL0     C65509   8.390   4.774   5.155 -0.0644  0.1755 -0.6365
  486MOL0     C65510   8.378   4.913   5.130 -0.0137  0.2349  0.2491
  486MOL0     O65511   8.254   4.970   5.155 -0.0751  0.1400  0.0429
  486MOL0     C65512   8.219   5.060   5.053  0.1026  0.0507  0.2814
  486MOL0     C65513   8.070   5.104   5.086  0.0131  0.6188 -0.1616
  486MOL0     C65514   7.969   4.996   5.103  0.7729 -0.5861 -0.6417
  486MOL0     C65515   7.982   4.873   5.013  0.4256 -1.0262 -0.5512
  486MOL0     C65516   7.909   4.755   5.069  0.9254  0.0876  0.3878
  486MOL0     C65517   7.918   4.639   4.978  0.2547 -0.0777  0.6507
  486MOL0     C65518   7.815   4.533   5.025  0.2357  0.8834 -0.8523
  486MOL0     C65519   7.813   4.406   4.941  0.6010 -0.3112 -0.1858
  486MOL0    Cl65520   7.718   4.282   5.033  0.4118 -0.0784 -0.1949
  486MOL0     C65521   8.491   4.984   5.096 -0.2068 -0.1497 -0.0266
  486MOL0     C65522   8.621   4.920   5.091 -0.5000 -0.4903 -0.4971
  486MOL0     O65523   8.898   4.894   5.167 -0.0432  0.3359  0.4371
  486MOL0     C65524   9.130   4.751   5.140  0.8284  0.2443 -0.0573
  486MOL0     C65525   9.241   4.688   5.099 -0.9367  0.4485  0.8539
  486MOL0     N65526   9.758   4.621   4.595  0.0812 -0.2384  0.1158
  486MOL0     N65527   9.756   4.604   4.468  0.5697  1.3448  0.5048
  486MOL0     C65528  10.086   3.596   4.336  0.1457 -0.1097 -0.6358
  486MOL0     C65529  10.202   3.516   4.344 -0.4306  0.0248 -0.7872
  486MOL0     C65530  10.520   3.286   4.331 -0.3280 -0.5571 -0.2102
  486MOL0     C65531  10.644   3.339   4.340 -0.7724  0.5676  0.3933
  486MOL0     C65532  10.748   3.270   4.276 -0.6478 -0.1420 -0.0804
  486MOL0     C65533  10.724   3.152   4.203  0.0130  0.4473 -0.3911
  486MOL0     O65534  10.811   3.071   4.132 -0.3080  0.0944  0.3397
  486MOL0     C65535  10.954   3.100   4.135 -0.5283  0.8464 -0.8240
  486MOL0     C65536  11.038   2.977   4.076  0.5833 -0.9969  0.8850
  486MOL0     C65537  11.011   2.961   3.927  0.0946 -0.6356 -0.7517
  486MOL0     C65538  11.088   2.844   3.862 -0.1641 -0.3013 -0.1841
  486MOL0     C65539  11.230   2.830   3.908  0.4202  0.3363 -0.4457
  486MOL0     C65540  11.347   2.812   3.936 -0.2487  0.0028  0.5506
  486MOL0     C65541  10.592   3.106   4.195  0.0600  1.4915 -0.0176
  486MOL0     C65542  10.498   3.165   4.261 -0.5365 -0.1037  0.0780
  486MOL0     H65543  10.061   3.246   4.489  1.2678  1.1078  0.8301
  486MOL0     H65544   9.852   3.389   4.492  1.0865 -3.4302  1.7000
  486MOL0     H65545   9.928   3.817   4.315  0.2453 -0.1289  0.7672
  486MOL0     H65546   9.867   3.717   4.197 -0.9078 -2.1220  0.0321
  486MOL0     H65547   9.636   3.742   4.271 -1.1808 -0.7331 -0.6377
  486MOL0     H65548   9.676   3.817   4.424 -2.7569 -0.5185 -1.1162
  486MOL0     H65549   9.785   4.009   4.309 -0.4862  4.1637 -4.0811
  486MOL0     H65550   9.780   3.925   4.159  0.5741  0.1996  0.4267
  486MOL0     H65551   9.523   3.948   4.181 -0.5840  0.9662  0.4931
  486MOL0     H65552   9.553   4.056   4.324 -0.1167  0.4559 -1.2190
  486MOL0     H65553   9.643   4.081   4.043  0.6668 -1.7207  1.0711
  486MOL0     H65554   9.530   4.190   4.126 -0.3116 -0.1136  1.5967
  486MOL0     H65555   9.819   4.194   4.172 -0.2299  0.6542  2.0141
  486MOL0     H65556   9.725   4.318   4.085 -1.7046  2.2926  2.1613
  486MOL0     H65557   9.600   4.373   4.283  0.6717  0.7095  0.4453
  486MOL0     H65558   9.684   4.261   4.379  0.6456  1.0593  1.5911
  486MOL0     H65559   9.801   4.491   4.222 -1.0829 -0.7128 -0.0923
  486MOL0     H65560   9.914   4.380   4.286  1.3477  2.7118  0.6953
  486MOL0     H65561   9.918   4.332   4.560 -0.8257 -0.3969 -1.5132
  486MOL0     H65562   9.808   4.364   4.816 -1.4314  0.2558  1.1704
  486MOL0     H65563   9.918   4.512   4.838 -0.4639  2.3445  0.9067
  486MOL0     H65564   9.698   4.640   4.865 -0.3957 -0.2695 -2.6814
  486MOL0     H65565   9.756   4.537   5.003 -0.5100 -1.6027  0.3252
  486MOL0     H65566   9.576   4.362   4.954  0.4592 -2.0738 -3.1222
  486MOL0     H65567   9.539   4.460   4.801 -0.7566  2.0747  0.6994
  486MOL0     H65568   9.436   4.608   4.889  2.5987  1.8798 -0.6619
  486MOL0     H65569   9.511   4.617   5.048  0.2698  2.0088 -1.3882
  486MOL0     H65570   9.121   4.372   5.057 -1.4367 -0.0660  1.6667
  486MOL0     H65571   8.903   4.356   5.046  0.3885  0.6694 -0.8861
  486MOL0     H65572   8.816   4.445   5.159  2.0073 -1.5068  1.2099
  486MOL0     H65573   8.811   4.507   4.997 -0.4558  2.0890  1.2623
  486MOL0     H65574   8.533   4.607   5.183 -0.8972 -0.2988 -0.1038
  486MOL0     H65575   8.299   4.729   5.195 -0.9900  1.9787 -0.5995
  486MOL0     H65576   8.288   5.145   5.060 -1.3568  1.5097 -1.8844
  486MOL0     H65577   8.231   5.015   4.954 -0.3603 -0.5800  0.5091
  486MOL0     H65578   8.082   5.164   5.176  2.4593  0.1254 -0.0929
  486MOL0     H65579   8.049   5.174   5.005  1.7244  0.5245 -0.7212
  486MOL0     H65580   7.869   5.038   5.093  0.6000 -0.6102  0.7366
  486MOL0     H65581   7.967   4.964   5.208 -0.5168  2.1801  0.2658
  486MOL0     H65582   7.940   4.892   4.913 -2.5113 -2.8814  0.1993
  486MOL0     H65583   8.087   4.844   5.006  1.2630  1.2695  1.2268
  486MOL0     H65584   7.805   4.786   5.076 -0.1570 -3.0707 -0.1549
  486MOL0     H65585   7.939   4.739   5.173 -1.5971 -0.0850  1.1556
  486MOL0     H65586   7.904   4.661   4.872 -0.6085 -0.1133  0.7488
  486MOL0     H65587   8.014   4.588   4.989 -0.1901 -0.7513  1.6357
  486MOL0     H65588   7.713   4.571   5.018 -0.4327 -0.9121 -1.1877
  486MOL0     H65589   7.823   4.521   5.133  0.1211 -0.2587 -0.9641
  486MOL0     H65590   7.908   4.358   4.915  0.9933  0.1038  0.4505
  486MOL0     H65591   7.754   4.419   4.850  2.2024 -1.2683 -1.4207
  486MOL0     H65592   8.492   5.089   5.068  1.0708 -0.2404 -0.3845
  486MOL0     H65593   8.707   4.982   5.069 -0.5509  1.0630  2.9896
  486MOL0     H65594   9.131   4.860   5.146  2.0113  0.1788  2.1575
  486MOL0     H65595   9.332   4.744   5.120 -1.4855  1.6084  0.2829
  486MOL0     H65596  10.108   3.696   4.300 -1.2733  0.2350 -0.6122
  486MOL0     H65597  10.300   3.543   4.307 -0.6936  0.5920 -1.0975
  486MOL0     H65598  10.673   3.414   4.414  2.2841 -2.3303  2.4073
  486MOL0     H65599  10.844   3.319   4.286 -0.8952  0.5921 -1.1362
  486MOL0     H65600  10.967   3.185   4.066 -1.4707 -1.0347 -3.4956
  486MOL0     H65601  10.990   3.124   4.235 -0.9598 -4.0410  0.7368
  486MOL0     H65602  10.998   2.890   4.128 -4.1767  0.5309  0.2716
  486MOL0     H65603  11.146   2.991   4.090  0.5576  0.9450 -0.4228
  486MOL0     H65604  11.040   3.057   3.883 -1.2155  0.5722  0.8967
  486MOL0     H65605  10.905   2.940   3.911  0.3563 -2.5708 -0.2389
  486MOL0     H65606  11.086   2.869   3.756 -0.5031  3.8078  0.6277
  486MOL0     H65607  11.025   2.754   3.866 -0.7829  0.1611  2.7351
  486MOL0     H65608  11.452   2.816   3.955  0.4231  1.5544 -2.7464
  486MOL0     H65609  10.561   3.017   4.140  1.6381  0.5415  0.5413
  486MOL0     H65610  10.398   3.125   4.247  0.2295 -1.6310 -1.3906
  487MOL0     O65611   2.574  10.755   3.218 -0.1581  0.0494  0.0099
  487MOL0     C65612   2.631  10.675   3.291 -0.1205  0.1914 -0.0344
  487MOL0     O65613   2.576  10.601   3.392  0.5211 -0.9378  0.0782
  487MOL0     C65614   2.443  10.624   3.423 -0.0551 -0.6828  0.3708
  487MOL0     C65615   2.387  10.756   3.444  0.0733 -0.0310 -0.4659
  487MOL0     C65616   2.252  10.764   3.492 -0.0040 -0.2592 -0.1319
  487MOL0     C65617   2.172  10.651   3.524  0.5083 -0.6251  0.1341
  487MOL0     O65618   2.049  10.662   3.589 -0.2612 -1.1228  0.3177
  487MOL0     C65619   1.932  10.633   3.509 -0.2559  0.8130 -0.2121
  487MOL0     C65620   1.868  10.760   3.458  0.2408  0.0211 -0.2744
  487MOL0     C65621   1.805  10.830   3.571 -0.5340 -0.0387  0.2054
  487MOL0     C65622   1.724  10.958   3.525  0.0326 -0.3898  0.6504
  487MOL0     C65623   1.648  11.029   3.638  0.2470  1.0049 -0.2900
  487MOL0     C65624   1.596  11.168   3.597 -0.4677  1.4624  0.0573
  487MOL0     C65625   1.553  11.237   3.725  0.0387 -0.5698  0.2027
  487MOL0     C65626   1.506  11.383   3.701 -0.6037  0.2693 -0.4005
  487MOL0     N65627   1.380  11.379   3.624  0.2344  0.4246 -0.5756
  487MOL0     C65628   1.254  11.374   3.672  0.0808  0.1918 -0.3841
  487MOL0     C65629   1.167  11.378   3.570 -0.1243  0.0509  0.3591
  487MOL0     C65630   1.017  11.382   3.558  0.3840  0.3135 -0.5362
  487MOL0     C65631   0.954  11.520   3.515  0.8733 -0.0946 -0.0302
  487MOL0     C65632   0.994  11.565   3.374 -0.0992 -0.0458  0.5538
  487MOL0     C65633   0.947  11.712   3.359  0.1903  0.7509 -0.1725
  487MOL0     O65634   0.812  11.728   3.415  0.3653 -0.1723  0.4947
  487MOL0     C65635   0.704  11.704   3.333 -0.1482 -0.0769 -0.7677
  487MOL0     C65636   0.703  11.674   3.196 -0.0351 -0.1284 -0.8005
  487MOL0     C65637   0.595  11.662   3.115  1.1128  0.2725 -0.2662
  487MOL0     C65638   0.625  11.642   2.972  0.3958  0.8461  0.1271
  487MOL0     C65639   0.462  11.666   3.171  0.0087  1.0509  0.8630
  487MOL0     C65640   0.342  11.640   3.099  0.1473  0.0834  0.4123
  487MOL0     O65641   0.233  11.624   3.191  0.0962 -0.5774 -0.2585
  487MOL0     C65642   0.095  11.616   3.159 -0.4358 -0.2012 -0.1477
  487MOL0     C65643   0.012  11.550   3.256 -0.4859 -0.4999  0.9267
  487MOL0     C65644  -0.130  11.537   3.230 -0.0908 -0.1433 -0.1143
  487MOL0     C65645  -0.184  11.580   3.114 -0.0424 -0.8904  0.9173
  487MOL0     O65646  -0.321  11.551   3.095 -0.3072  0.1391 -0.1971
  487MOL0     C65647  -0.369  11.506   2.965 -1.0179  0.4219 -0.0659
  487MOL0     C65648  -0.514  11.492   2.966  0.2087  0.1349 -0.0198
  487MOL0     C65649  -0.576  11.625   2.994 -0.2510 -0.1891  0.6829
  487MOL0     C65650  -0.727  11.616   2.968  0.6762 -0.5180  0.1318
  487MOL0     C65651  -0.794  11.763   2.976 -0.3619 -0.4890  0.3886
  487MOL0     C65652  -0.935  11.750   2.909 -1.0595 -0.6600 -0.0832
  487MOL0     C65653  -1.021  11.874   2.923 -0.6040  0.2527  0.0671
  487MOL0     C65654  -1.173  11.858   2.941  0.2532  0.0577  0.7300
  487MOL0    Cl65655  -1.238  11.786   2.787 -0.3141  0.3215 -0.4085
  487MOL0     C65656  -0.103  11.642   3.021 -0.5693  0.6513 -0.2372
  487MOL0     C65657   0.038  11.667   3.045  0.3811  0.8230  0.2199
  487MOL0     O65658   0.335  11.643   2.976  0.2140 -0.2101 -0.3549
  487MOL0     C65659   0.462  11.682   3.312 -0.3076  0.3070 -0.1254
  487MOL0     C65660   0.587  11.696   3.389  0.4235  0.1596 -0.2000
  487MOL0     N65661   1.247  11.367   3.455  0.2136  0.7507  0.5241
  487MOL0     N65662   1.368  11.373   3.486 -0.0766 -0.1882  0.2581
  487MOL0     C65663   2.224  10.535   3.481 -0.4291  0.5673 -0.3177
  487MOL0     C65664   2.360  10.513   3.437  0.6912 -0.5623 -0.2988
  487MOL0     C65665   2.763  10.651   3.270 -0.2341 -0.7730 -0.1606
  487MOL0     C65666   2.828  10.552   3.341 -0.6920 -0.5378 -0.2251
  487MOL0     C65667   2.966  10.544   3.342 -0.8966  0.3977 -0.5467
  487MOL0     C65668   3.051  10.625   3.265  0.2641 -0.4940  0.8938
  487MOL0     O65669   3.190  10.611   3.281 -0.1231 -0.6673 -0.1559
  487MOL0     C65670   3.283  10.687   3.202 -0.1474  0.4415 -1.2645
  487MOL0     C65671   3.429  10.660   3.219 -0.2527 -0.5764 -0.6642
  487MOL0     C65672   3.492  10.713   3.348  0.6391 -0.6209 -0.2359
  487MOL0     C65673   3.622  10.638   3.372 -0.1081 -0.5592 -0.2866
  487MOL0     C65674   3.733  10.674   3.283  0.1392  0.4494  1.0872
  487MOL0     C65675   3.829  10.695   3.213  0.7780 -1.5058  0.1499
  487MOL0     C65676   2.980  10.716   3.183 -0.5934 -0.2625 -0.7443
  487MOL0     C65677   2.845  10.739   3.190 -0.0174  0.4247  0.5981
  487MOL0     H65678   2.457  10.833   3.412  0.7634  0.3562  1.8064
  487MOL0     H65679   2.213  10.865   3.496 -5.7180 -2.0522 -1.3651
  487MOL0     H65680   1.972  10.563   3.435  1.6318  0.2099  1.2831
  487MOL0     H65681   1.855  10.579   3.566 -0.3785  2.4876  1.3230
  487MOL0     H65682   1.943  10.828   3.417  1.1703 -0.2427  0.9226
  487MOL0     H65683   1.800  10.749   3.373  1.2527  1.1547 -1.2633
  487MOL0     H65684   1.738  10.764   3.626  0.0118 -0.5984  0.2126
  487MOL0     H65685   1.882  10.858   3.644  0.2626  0.1366 -0.6654
  487MOL0     H65686   1.793  11.026   3.474 -0.1638 -0.8606 -0.2680
  487MOL0     H65687   1.651  10.932   3.447 -0.5670 -1.0609  1.4217
  487MOL0     H65688   1.567  10.960   3.664  0.4934  1.0922  0.7859
  487MOL0     H65689   1.717  11.027   3.723 -0.3192 -2.3302  0.2529
  487MOL0     H65690   1.676  11.228   3.553  1.4726 -0.5994  0.6322
  487MOL0     H65691   1.522  11.163   3.516  1.0234 -2.8435 -1.3191
  487MOL0     H65692   1.469  11.187   3.774  1.0074 -1.7643  0.7178
  487MOL0     H65693   1.631  11.229   3.802  0.8696 -1.1681 -0.6648
  487MOL0     H65694   1.576  11.448   3.649 -0.9111  1.4406  0.5820
  487MOL0     H65695   1.483  11.422   3.801 -0.0192  1.7008 -0.8126
  487MOL0     H65696   1.237  11.365   3.779  1.9760  0.4667 -0.0102
  487MOL0     H65697   0.971  11.311   3.489 -0.2685  1.6202 -1.4861
  487MOL0     H65698   0.971  11.351   3.653  0.1683  1.7513 -0.1488
  487MOL0     H65699   0.986  11.601   3.581 -3.9686  1.6709  0.5882
  487MOL0     H65700   0.845  11.506   3.508  0.3125  3.5348 -0.4825
  487MOL0     H65701   0.947  11.515   3.288  0.2677  0.7576 -0.1218
  487MOL0     H65702   1.102  11.554   3.364 -0.1484  0.6277 -1.0338
  487MOL0     H65703   0.955  11.740   3.254 -0.2976  0.6305 -0.2452
  487MOL0     H65704   1.026  11.766   3.414  2.8182 -1.0308 -1.9781
  487MOL0     H65705   0.799  11.668   3.144 -1.0173 -0.0827 -2.7266
  487MOL0     H65706   0.557  11.694   2.903 -0.8692  1.5223  1.8174
  487MOL0     H65707   0.726  11.674   2.946  0.0912  3.8667  2.1366
  487MOL0     H65708   0.620  11.533   2.963  3.5025  0.6374 -0.0499
  487MOL0     H65709   0.053  11.498   3.343  0.3833  0.2159  0.9596
  487MOL0     H65710  -0.193  11.484   3.301  0.5324 -3.1606 -1.6369
  487MOL0     H65711  -0.336  11.566   2.880 -3.0179  1.1696 -0.3732
  487MOL0     H65712  -0.331  11.404   2.954 -0.6997  0.5210  0.0900
  487MOL0     H65713  -0.556  11.456   2.872 -0.6478 -0.8032  0.6993
  487MOL0     H65714  -0.546  11.420   3.042  0.3584  1.1712  1.0481
  487MOL0     H65715  -0.534  11.702   2.929 -1.3850 -1.0327 -1.1424
  487MOL0     H65716  -0.562  11.651   3.100  5.4669 -1.1764  0.4933
  487MOL0     H65717  -0.748  11.577   2.868 -1.9630  1.4997 -0.2335
  487MOL0     H65718  -0.781  11.554   3.040 -2.6532 -0.3007 -1.9531
  487MOL0     H65719  -0.733  11.832   2.917  0.4064  0.9036  2.6825
  487MOL0     H65720  -0.796  11.789   3.083  2.3156 -0.5796  0.5420
  487MOL0     H65721  -0.917  11.713   2.808  0.8933  2.1285 -0.8928
  487MOL0     H65722  -0.971  11.661   2.960 -1.0440 -1.3147 -1.2027
  487MOL0     H65723  -1.006  11.928   2.829  2.1034  1.5286  1.1311
  487MOL0     H65724  -0.982  11.943   2.998  3.7656  0.1906 -1.8203
  487MOL0     H65725  -1.215  11.959   2.952  1.4708  0.7894 -0.8324
  487MOL0     H65726  -1.208  11.801   3.027 -4.8754 -0.1857 -1.1386
  487MOL0     H65727  -0.152  11.671   2.929  0.2419 -0.8418 -1.1800
  487MOL0     H65728   0.095  11.722   2.971 -1.5320  3.4844  0.5994
  487MOL0     H65729   0.372  11.693   3.371  0.4546  0.3886  1.0582
  487MOL0     H65730   0.573  11.708   3.496 -2.4137  0.2144 -0.4938
  487MOL0     H65731   2.170  10.441   3.492  2.5540 -1.2494 -0.1175
  487MOL0     H65732   2.392  10.410   3.429  0.6958 -0.7225  1.4039
  487MOL0     H65733   2.773  10.478   3.398 -0.1728 -2.2144 -1.7851
  487MOL0     H65734   2.998  10.463   3.406  1.4476  0.8162 -1.1107
  487MOL0     H65735   3.256  10.660   3.099  1.8144 -0.2838 -1.6401
  487MOL0     H65736   3.264  10.793   3.225 -0.6411  0.1167 -0.1034
  487MOL0     H65737   3.477  10.704   3.131 -1.0010  0.5700 -0.5183
  487MOL0     H65738   3.443  10.552   3.213 -2.7374 -0.9632 -0.3287
  487MOL0     H65739   3.419  10.690   3.426  1.4217  2.0337  1.3993
  487MOL0     H65740   3.504  10.822   3.351  1.6916 -0.6763  4.3469
  487MOL0     H65741   3.594  10.533   3.380 -1.5304 -0.3358 -1.8052
  487MOL0     H65742   3.675  10.663   3.465  0.7321 -1.4230 -0.5202
  487MOL0     H65743   3.922  10.709   3.162  0.2507  2.5443 -0.0106
  487MOL0     H65744   3.037  10.774   3.111  2.3024 -0.1937  1.4157
  487MOL0     H65745   2.803  10.812   3.122  0.0667  1.4356  1.5839
  488MOL0     O65746   7.478   3.853  11.270 -0.0437  0.0437  0.3745
  488MOL0     C65747   7.464   3.762  11.184  0.6197 -0.3926 -0.0722
  488MOL0     O65748   7.336   3.719  11.146  0.3694 -1.1749  0.0613
  488MOL0     C65749   7.223   3.798  11.180  0.3707 -0.2135 -0.2515
  488MOL0     C65750   7.199   3.925  11.125  0.0430 -0.2853  0.4661
  488MOL0     C65751   7.081   3.996  11.158  0.6276 -0.7312 -0.0129
  488MOL0     C65752   6.977   3.944  11.229 -0.1437  0.2388  0.1510
  488MOL0     O65753   6.862   4.016  11.247  0.3121 -0.5534 -0.6878
  488MOL0     C65754   6.793   4.000  11.375 -1.1930 -0.6278  0.1047
  488MOL0     C65755   6.681   4.093  11.393  0.4354  0.8009  0.4130
  488MOL0     C65756   6.736   4.234  11.400 -0.6104  1.1538  0.1045
  488MOL0     C65757   6.611   4.324  11.416  0.1968 -0.5006 -0.0438
  488MOL0     C65758   6.649   4.460  11.360 -1.1576  0.9647  0.2245
  488MOL0     C65759   6.551   4.573  11.383 -0.6371 -0.2316  0.2901
  488MOL0     C65760   6.610   4.715  11.338 -0.1618 -0.1584  0.3778
  488MOL0     C65761   6.502   4.830  11.336 -0.8431 -0.0468 -0.7314
  488MOL0     N65762   6.457   4.870  11.465 -0.1411  0.4412 -0.8159
  488MOL0     C65763   6.333   4.832  11.512 -0.0525  0.8983  0.3899
  488MOL0     C65764   6.296   4.940  11.585  0.3400 -0.2496  0.0265
  488MOL0     C65765   6.169   4.957  11.667  0.4207  0.4870  0.6268
  488MOL0     C65766   6.173   4.975  11.815  1.0202  0.7456 -0.6801
  488MOL0     C65767   6.031   4.927  11.885 -1.1877 -0.6259 -0.1946
  488MOL0     C65768   5.905   5.009  11.867  0.4369  0.1702 -0.3161
  488MOL0     O65769   5.941   5.149  11.882  0.0762  0.0937  0.1678
  488MOL0     C65770   5.875   5.213  11.983  0.6632 -0.5249  0.3687
  488MOL0     C65771   5.954   5.291  12.069  0.0738 -0.2536 -0.0301
  488MOL0     C65772   5.895   5.365  12.172  0.2556  0.5081  0.1689
  488MOL0     C65773   5.984   5.455  12.256  0.0854  0.7542 -0.0983
  488MOL0     C65774   5.757   5.359  12.196 -0.5687 -0.7602  0.2566
  488MOL0     C65775   5.687   5.434  12.298 -0.9514  0.4215 -0.2410
  488MOL0     O65776   5.558   5.455  12.270 -0.2492 -0.1755  1.1183
  488MOL0     C65777   5.493   5.557  12.331 -0.4346 -0.2577 -0.2197
  488MOL0     C65778   5.551   5.680  12.372  0.0299  0.3197  0.1675
  488MOL0     C65779   5.471   5.784  12.412 -0.2479 -0.3488  0.2008
  488MOL0     C65780   5.328   5.768  12.414 -0.5517  0.0125 -0.9540
  488MOL0     O65781   5.245   5.864  12.466 -0.2888 -0.3318 -0.5361
  488MOL0     C65782   5.262   5.995  12.402 -0.2943  0.9189 -0.2083
  488MOL0     C65783   5.143   6.087  12.406  0.9221 -1.8553  0.7672
  488MOL0     C65784   5.003   6.023  12.367 -0.0314  0.6295 -0.1251
  488MOL0     C65785   4.877   6.114  12.373 -0.0688  0.8272 -1.4905
  488MOL0     C65786   4.748   6.054  12.334 -0.1642 -0.0650  0.1656
  488MOL0     C65787   4.708   5.934  12.414 -0.0398 -0.4898 -0.5444
  488MOL0     C65788   4.559   5.897  12.399  0.2803 -0.4830  0.0035
  488MOL0     C65789   4.550   5.746  12.384  0.2779  0.5161 -0.8513
  488MOL0    Cl65790   4.605   5.651  12.522  0.5027 -0.2480  0.2056
  488MOL0     C65791   5.266   5.647  12.390  0.4220  0.4713 -1.3273
  488MOL0     C65792   5.355   5.541  12.350  0.3752 -0.5374 -0.3487
  488MOL0     O65793   5.739   5.459  12.410  0.5742 -0.1313 -0.0699
  488MOL0     C65794   5.682   5.279  12.110 -0.0802 -0.2274  1.0370
  488MOL0     C65795   5.736   5.207  11.999  0.2411 -0.9772  0.1357
  488MOL0     N65796   6.405   5.027  11.595  0.1662 -0.6380 -0.5480
  488MOL0     N65797   6.497   4.991  11.515 -0.2310 -1.4020 -0.6678
  488MOL0     C65798   6.991   3.815  11.275 -0.5646 -0.0532  0.6073
  488MOL0     C65799   7.115   3.749  11.254 -0.3615  0.6399 -0.6129
  488MOL0     C65800   7.577   3.692  11.135 -0.0811 -0.7950  0.6931
  488MOL0     C65801   7.697   3.688  11.207 -0.9736 -0.4473  0.5052
  488MOL0     C65802   7.809   3.615  11.146  0.1030 -0.1147 -0.3675
  488MOL0     C65803   7.792   3.542  11.029  0.4577  0.1418  0.3508
  488MOL0     O65804   7.895   3.480  10.970 -0.2121  0.9577  0.2164
  488MOL0     C65805   8.029   3.478  11.027 -0.2261  0.0731  0.6302
  488MOL0     C65806   8.106   3.373  10.962 -0.4059  0.3207  0.3385
  488MOL0     C65807   8.094   3.360  10.810  0.1643  0.7838  0.0539
  488MOL0     C65808   8.104   3.483  10.731  0.1195 -0.8884 -1.7212
  488MOL0     C65809   8.139   3.465  10.598  0.2061 -0.6589  0.5679
  488MOL0     C65810   8.136   3.445  10.476  1.2432 -0.5032 -0.4402
  488MOL0     C65811   7.668   3.555  10.963 -0.4558  0.1681 -0.1404
  488MOL0     C65812   7.566   3.625  11.008 -0.5637  0.5188  0.3316
  488MOL0     H65813   7.275   3.983  11.074  1.8586 -1.8211  1.3100
  488MOL0     H65814   7.065   4.097  11.122  1.9140 -0.5462 -0.1164
  488MOL0     H65815   6.765   3.894  11.376  1.0028 -1.2686 -1.0624
  488MOL0     H65816   6.860   4.011  11.461 -3.7445 -0.9468  2.2986
  488MOL0     H65817   6.603   4.086  11.317 -0.5130 -0.5522  1.4612
  488MOL0     H65818   6.619   4.074  11.481  0.0432 -2.7604 -0.4554
  488MOL0     H65819   6.805   4.236  11.484 -2.3938 -0.4749  1.6991
  488MOL0     H65820   6.795   4.255  11.311  0.7609  0.4742  0.8204
  488MOL0     H65821   6.528   4.290  11.353  1.4115 -0.5779 -1.6872
  488MOL0     H65822   6.581   4.329  11.521 -1.3611 -0.5756 -0.4597
  488MOL0     H65823   6.742   4.493  11.407 -0.3469 -0.3204 -0.4128
  488MOL0     H65824   6.665   4.463  11.252 -2.0620 -0.2359  0.0337
  488MOL0     H65825   6.462   4.547  11.325 -0.1028 -0.8194 -0.2944
  488MOL0     H65826   6.524   4.586  11.488  0.3734  1.9571  0.3348
  488MOL0     H65827   6.687   4.758  11.402 -2.5387  0.1780  3.2126
  488MOL0     H65828   6.662   4.703  11.242 -2.8177 -0.9295 -1.0744
  488MOL0     H65829   6.420   4.793  11.273  1.0953 -3.0583 -1.7008
  488MOL0     H65830   6.542   4.920  11.288 -0.7649  0.1612 -0.2816
  488MOL0     H65831   6.268   4.751  11.480  1.4664  0.7954 -2.8420
  488MOL0     H65832   6.098   5.025  11.620  0.0837 -1.1579 -1.3583
  488MOL0     H65833   6.118   4.863  11.644  0.8879 -0.2838  2.4571
  488MOL0     H65834   6.203   5.078  11.836  1.3628  0.8884 -1.7993
  488MOL0     H65835   6.248   4.906  11.856 -1.5930 -0.5161  2.4032
  488MOL0     H65836   6.071   4.927  11.986 -1.1721  0.3954 -0.1900
  488MOL0     H65837   6.024   4.820  11.863 -0.6934 -0.7417  0.1842
  488MOL0     H65838   5.816   4.982  11.926 -0.4395 -1.2803 -2.1896
  488MOL0     H65839   5.869   4.997  11.765  2.0428 -0.5477 -0.8271
  488MOL0     H65840   6.060   5.314  12.058  0.2305  0.9360  2.9551
  488MOL0     H65841   6.002   5.415  12.357  2.7266  0.7143 -0.5081
  488MOL0     H65842   6.081   5.462  12.206  0.6249 -0.1913  0.7755
  488MOL0     H65843   5.953   5.560  12.258  1.0508  1.0545 -0.1796
  488MOL0     H65844   5.658   5.696  12.362  0.1487  1.7286  2.8639
  488MOL0     H65845   5.516   5.881  12.432  0.8348 -1.0376  1.2019
  488MOL0     H65846   5.341   6.051  12.453 -0.0604  2.1868 -1.8990
  488MOL0     H65847   5.287   5.981  12.297  2.7409 -3.3732  0.8249
  488MOL0     H65848   5.130   6.132  12.505 -0.8415  0.9792 -0.6543
  488MOL0     H65849   5.170   6.176  12.349  0.8953 -1.5102  1.2840
  488MOL0     H65850   4.990   5.924  12.410  0.6963  0.5240 -0.1402
  488MOL0     H65851   5.009   6.004  12.259  2.3810  3.8268 -0.7196
  488MOL0     H65852   4.862   6.144  12.477  0.1308  0.4774 -1.3565
  488MOL0     H65853   4.891   6.201  12.308  2.9334 -1.5382 -4.3628
  488MOL0     H65854   4.761   6.037  12.227  1.4963  1.9304 -0.0072
  488MOL0     H65855   4.665   6.125  12.344  0.3066  0.2390  2.4589
  488MOL0     H65856   4.769   5.849  12.380  0.4137 -0.3947  0.0050
  488MOL0     H65857   4.726   5.957  12.519 -0.3438 -2.6391  0.0444
  488MOL0     H65858   4.520   5.954  12.314 -0.1516 -0.7188  0.0404
  488MOL0     H65859   4.495   5.930  12.482 -1.8174 -0.5437 -1.4937
  488MOL0     H65860   4.608   5.719  12.296 -2.1074  2.6861 -3.2563
  488MOL0     H65861   4.450   5.716  12.351 -0.7767  2.3185  0.5042
  488MOL0     H65862   5.160   5.629  12.399  0.5335  1.0581  2.7299
  488MOL0     H65863   5.318   5.441  12.331  1.2736 -1.7218  3.2922
  488MOL0     H65864   5.574   5.276  12.125 -0.5042 -0.3059 -1.4698
  488MOL0     H65865   5.675   5.154  11.926 -3.7207  0.9313  1.7852
  488MOL0     H65866   6.915   3.768  11.337 -0.1870  0.3695  1.4099
  488MOL0     H65867   7.129   3.650  11.297  0.9896  0.9044 -0.3860
  488MOL0     H65868   7.699   3.734  11.306 -4.0038 -0.3082  0.5804
  488MOL0     H65869   7.906   3.614  11.194  0.1745 -2.0445 -0.4781
  488MOL0     H65870   8.083   3.573  11.019  2.5270 -1.4781 -0.4594
  488MOL0     H65871   8.027   3.458  11.134  2.2887  0.4657  0.8164
  488MOL0     H65872   8.075   3.279  11.008  0.0653  0.6983  1.4504
  488MOL0     H65873   8.208   3.379  11.000 -0.3373  1.0918  0.0548
  488MOL0     H65874   7.997   3.311  10.797  1.2272 -2.9471  3.9384
  488MOL0     H65875   8.171   3.288  10.784 -0.1798 -0.0937  1.3343
  488MOL0     H65876   8.184   3.547  10.769  0.1147 -2.5055  1.4024
  488MOL0     H65877   8.005   3.528  10.733  0.3465 -0.2614  1.7647
  488MOL0     H65878   8.141   3.421  10.372 -0.0174  0.3496 -0.7205
  488MOL0     H65879   7.661   3.498  10.870  0.6941  0.1562 -0.2388
  488MOL0     H65880   7.470   3.623  10.957 -1.9388 -0.4274  2.7492
  489MOL0     O65881   8.014   9.360  11.033  0.1103 -0.1105 -0.1719
  489MOL0     C65882   8.114   9.430  11.059 -0.0985 -0.1784  0.2121
  489MOL0     O65883   8.115   9.545  11.129 -0.3005  0.0469 -0.2614
  489MOL0     C65884   8.003   9.583  11.198  0.5447 -0.1610 -0.5631
  489MOL0     C65885   7.867   9.568  11.158 -0.4758 -0.1916  0.9002
  489MOL0     C65886   7.772   9.627  11.240  0.7345 -1.0089  0.0902
  489MOL0     C65887   7.795   9.701  11.353 -0.7753 -0.5411 -0.5259
  489MOL0     O65888   7.700   9.765  11.429  0.0323  0.7778 -0.3065
  489MOL0     C65889   7.580   9.686  11.464 -1.4330 -0.0311 -0.4696
  489MOL0     C65890   7.527   9.696  11.606  0.0730 -0.2009 -0.0184
  489MOL0     C65891   7.386   9.628  11.628 -0.4237 -0.8818 -0.6308
  489MOL0     C65892   7.265   9.717  11.608 -0.9960  0.4710 -0.7714
  489MOL0     C65893   7.139   9.669  11.663  0.7219 -0.3947 -0.6743
  489MOL0     C65894   7.027   9.760  11.615 -0.0861  0.4231 -0.0046
  489MOL0     C65895   6.898   9.738  11.679  0.3987  0.1042 -0.3903
  489MOL0     C65896   6.773   9.815  11.613  0.4377 -0.1504  0.1030
  489MOL0     N65897   6.650   9.804  11.693 -0.1045  0.3083 -0.9951
  489MOL0     C65898   6.543   9.728  11.664 -0.1561  0.1497 -0.0150
  489MOL0     C65899   6.456   9.732  11.769 -0.5721  0.3558 -0.3529
  489MOL0     C65900   6.316   9.677  11.788  0.0855  0.5094  0.3173
  489MOL0     C65901   6.222   9.776  11.711 -0.5373  0.0437 -0.4620
  489MOL0     C65902   6.081   9.726  11.732  0.1527  0.1427  0.4607
  489MOL0     C65903   5.983   9.829  11.692  0.2776  0.8538 -0.1205
  489MOL0     O65904   5.959   9.935  11.783 -0.1308 -0.0945  0.3972
  489MOL0     C65905   5.831   9.994  11.783  0.3166  0.5026 -1.3195
  489MOL0     C65906   5.788  10.064  11.904  0.0404 -0.0856  0.8900
  489MOL0     C65907   5.667  10.131  11.911  0.6288  0.3342  1.2369
  489MOL0     C65908   5.637  10.226  12.028  0.6931  0.8767  0.8621
  489MOL0     C65909   5.573  10.102  11.809  0.8288 -0.1398 -1.3315
  489MOL0     C65910   5.433  10.159  11.802 -0.5556 -0.8151  0.5945
  489MOL0     O65911   5.386  10.161  11.679  0.2490 -0.1841  0.3566
  489MOL0     C65912   5.266  10.208  11.646  0.1524 -0.1406 -0.0549
  489MOL0     C65913   5.160  10.150  11.713  0.5595 -0.2315 -0.0903
  489MOL0     C65914   5.024  10.179  11.676 -0.7783 -0.0306 -0.8918
  489MOL0     C65915   5.005  10.275  11.573 -0.5497 -0.5382 -0.6749
  489MOL0     O65916   4.882  10.317  11.533  0.1891  0.0641 -0.2778
  489MOL0     C65917   4.753  10.275  11.580 -0.5095  0.9805  0.3462
  489MOL0     C65918   4.638  10.348  11.506 -0.2474  0.0680 -0.5670
  489MOL0     C65919   4.507  10.320  11.572  0.1723  0.2707  0.0071
  489MOL0     C65920   4.466  10.174  11.545  0.1731  0.0554  0.0960
  489MOL0     C65921   4.324  10.147  11.584 -0.4307 -0.2685 -0.3727
  489MOL0     C65922   4.285  10.000  11.560  0.3645  0.0964  0.1076
  489MOL0     C65923   4.129   9.981  11.550  0.9936 -0.1007 -0.4110
  489MOL0     C65924   4.096   9.836  11.549  0.5272  0.8043 -0.2182
  489MOL0    Cl65925   4.157   9.760  11.401  0.2634 -0.0056  0.1437
  489MOL0     C65926   5.117  10.337  11.508 -0.5657  0.6727 -0.0124
  489MOL0     C65927   5.247  10.304  11.547  0.5428  0.5786 -0.3070
  489MOL0     O65928   5.391  10.223  11.894 -0.2858 -0.4534 -0.0500
  489MOL0     C65929   5.609  10.020  11.698  0.2127  0.1546  0.5392
  489MOL0     C65930   5.740   9.976  11.689  0.2571 -0.4960 -0.1689
  489MOL0     N65931   6.512   9.827  11.856  0.3790  0.1017  0.1889
  489MOL0     N65932   6.629   9.855  11.819 -0.1931 -0.0087 -0.5263
  489MOL0     C65933   7.930   9.720  11.389 -0.9569 -1.0969 -0.9825
  489MOL0     C65934   8.029   9.656  11.320 -0.0271 -0.6932  0.8340
  489MOL0     C65935   8.240   9.388  10.990  1.2378 -0.2718 -0.2010
  489MOL0     C65936   8.359   9.470  10.991  0.0829  1.4187  0.3917
  489MOL0     C65937   8.473   9.413  10.934  0.0002  0.1333 -0.8777
  489MOL0     C65938   8.468   9.291  10.860 -0.5136 -0.0365  0.4738
  489MOL0     O65939   8.576   9.220  10.809  0.1397 -0.3407 -0.3276
  489MOL0     C65940   8.703   9.279  10.830 -0.1581  0.6290 -0.9059
  489MOL0     C65941   8.796   9.187  10.762 -0.3619 -0.3150  0.4426
  489MOL0     C65942   8.942   9.253  10.776  0.0252  1.4552  0.1825
  489MOL0     C65943   9.004   9.236  10.917 -0.1939 -0.4919  0.0933
  489MOL0     C65944   9.146   9.250  10.908  1.4186 -0.0481  0.8866
  489MOL0     C65945   9.261   9.244  10.902 -0.0544  0.1639  0.5152
  489MOL0     C65946   8.351   9.231  10.832  0.5916  0.7904  0.0283
  489MOL0     C65947   8.236   9.274  10.907 -0.3111 -0.4273  1.1916
  489MOL0     H65948   7.847   9.518  11.064  0.8091 -0.9693  1.0162
  489MOL0     H65949   7.668   9.622  11.209  0.4161  0.4729  0.8503
  489MOL0     H65950   7.495   9.723  11.405 -1.5588 -1.7273 -1.4102
  489MOL0     H65951   7.581   9.581  11.434 -3.5047  0.3358 -2.0691
  489MOL0     H65952   7.601   9.660  11.678  1.8535  2.1780 -0.5561
  489MOL0     H65953   7.524   9.803  11.629 -2.7005  0.2815 -1.9859
  489MOL0     H65954   7.375   9.543  11.561 -2.2419 -0.9680 -0.2585
  489MOL0     H65955   7.380   9.600  11.733 -2.3522  3.3327  0.6140
  489MOL0     H65956   7.292   9.802  11.671  0.4590 -0.6096  0.1395
  489MOL0     H65957   7.256   9.753  11.505 -2.3045  1.4007 -0.3645
  489MOL0     H65958   7.131   9.569  11.619  2.8518 -0.9824  0.1171
  489MOL0     H65959   7.147   9.672  11.772  2.1139  4.7175 -0.6799
  489MOL0     H65960   7.049   9.865  11.638 -2.4639  1.1377 -0.7016
  489MOL0     H65961   7.026   9.748  11.506  0.2575  1.3161 -0.1217
  489MOL0     H65962   6.872   9.631  11.677  2.1670 -0.3592 -2.6181
  489MOL0     H65963   6.916   9.772  11.782 -0.5298  0.9137 -0.4887
  489MOL0     H65964   6.757   9.786  11.509  0.6827 -2.3712  0.6215
  489MOL0     H65965   6.797   9.921  11.624 -1.7166  0.3455  0.5419
  489MOL0     H65966   6.525   9.680  11.568  0.1022 -1.9693  0.9309
  489MOL0     H65967   6.302   9.576  11.747 -0.9077  0.4645  0.7527
  489MOL0     H65968   6.290   9.682  11.894  3.3558 -0.0731  1.2406
  489MOL0     H65969   6.255   9.772  11.607  2.1831  0.5994  0.2941
  489MOL0     H65970   6.222   9.878  11.752 -0.6332  0.0641 -0.5133
  489MOL0     H65971   6.062   9.715  11.839  0.3119 -0.3787  0.4380
  489MOL0     H65972   6.061   9.631  11.681  0.6146 -1.8100  3.6803
  489MOL0     H65973   5.889   9.774  11.697  0.6831  0.2285  1.6354
  489MOL0     H65974   5.999   9.870  11.592 -1.1376  0.7071 -0.4231
  489MOL0     H65975   5.863  10.073  11.982  1.1469  1.1618 -0.2792
  489MOL0     H65976   5.589  10.318  11.992 -0.0598 -1.0121 -3.5252
  489MOL0     H65977   5.584  10.173  12.107  0.6718  1.5917  1.3421
  489MOL0     H65978   5.730  10.264  12.071  1.0887  2.4911 -1.2667
  489MOL0     H65979   5.187  10.069  11.780  0.8423  0.5455  0.7483
  489MOL0     H65980   4.938  10.137  11.725 -0.9436  1.8522  0.5610
  489MOL0     H65981   4.739  10.166  11.572 -0.5924  1.0490 -0.5121
  489MOL0     H65982   4.754  10.286  11.689  1.0929  1.8547  0.2741
  489MOL0     H65983   4.661  10.453  11.526  0.1804 -0.3233  1.0981
  489MOL0     H65984   4.634  10.349  11.396 -1.6710 -4.7810 -0.7901
  489MOL0     H65985   4.434  10.395  11.539 -0.8602  0.2305  2.0774
  489MOL0     H65986   4.521  10.330  11.680  1.4914 -0.5169 -0.0720
  489MOL0     H65987   4.470  10.149  11.438  0.9218 -0.8177  0.3173
  489MOL0     H65988   4.530  10.115  11.610 -0.8366 -1.3544 -0.1488
  489MOL0     H65989   4.266  10.211  11.517 -1.6083 -0.0405  0.8155
  489MOL0     H65990   4.305  10.180  11.687  2.9484  0.2217  0.2334
  489MOL0     H65991   4.327   9.971  11.463 -0.9671 -0.5179 -0.3137
  489MOL0     H65992   4.328   9.934  11.635 -2.6133 -0.4814  1.4482
  489MOL0     H65993   4.085  10.029  11.463  3.0400  2.6262 -0.0866
  489MOL0     H65994   4.083  10.009  11.645  0.9774 -0.9582 -0.1501
  489MOL0     H65995   3.988   9.823  11.559  1.0294 -2.5393  3.2902
  489MOL0     H65996   4.139   9.787  11.637 -1.6554  0.3216  0.6237
  489MOL0     H65997   5.093  10.408  11.429 -3.7443 -0.4094 -0.2052
  489MOL0     H65998   5.334  10.337  11.492 -0.2340  1.6553 -0.9145
  489MOL0     H65999   5.533   9.996  11.624 -0.3314  0.4461  0.9902
  489MOL0     H66000   5.774   9.924  11.600  0.3684 -1.5481  0.4671
  489MOL0     H66001   7.960   9.788  11.469 -1.8701 -0.0279 -1.5148
  489MOL0     H66002   8.133   9.665  11.350  0.2888  1.6328 -0.7318
  489MOL0     H66003   8.375   9.563  11.044  1.3409  0.8225  1.1146
  489MOL0     H66004   8.559   9.476  10.952 -0.6578  1.5376 -2.3992
  489MOL0     H66005   8.705   9.382  10.792  1.6379  1.1395  0.4131
  489MOL0     H66006   8.731   9.298  10.934  1.5260  0.9749 -1.3932
  489MOL0     H66007   8.767   9.183  10.657 -0.0033 -1.3003  0.3649
  489MOL0     H66008   8.791   9.083  10.797 -0.5924 -0.6801 -0.6306
  489MOL0     H66009   8.929   9.359  10.749  0.9913  1.3924 -0.5739
  489MOL0     H66010   9.009   9.200  10.709  1.5218 -0.1731  2.7976
  489MOL0     H66011   8.979   9.137  10.954 -2.2643  0.0189  0.1773
  489MOL0     H66012   8.955   9.318  10.971 -0.9413  0.3397 -1.7478
  489MOL0     H66013   9.368   9.235  10.901 -0.1893 -2.5121 -1.0450
  489MOL0     H66014   8.348   9.140  10.774 -0.0951  0.2670  0.8658
  489MOL0     H66015   8.140   9.228  10.886 -0.8073  0.5539  1.2927
  490MOL0     O66016   3.730   3.941  10.781 -0.1768  0.1303 -0.0024
  490MOL0     C66017   3.799   3.875  10.701  0.3640 -0.1119 -0.2875
  490MOL0     O66018   3.746   3.794  10.597  0.7075 -0.2288 -0.2349
  490MOL0     C66019   3.616   3.811  10.557 -0.8607 -0.0249 -0.3038
  490MOL0     C66020   3.539   3.709  10.515  0.6552 -0.5084  0.2235
  490MOL0     C66021   3.416   3.726  10.453 -0.4976 -0.8439  0.4720
  490MOL0     C66022   3.357   3.851  10.448  0.3910 -0.1071  0.1391
  490MOL0     O66023   3.234   3.878  10.394  0.1519  0.2685  0.5699
  490MOL0     C66024   3.191   3.806  10.276  0.4199  0.1797 -0.0202
  490MOL0     C66025   3.054   3.835  10.232 -0.7176  0.4249  0.3843
  490MOL0     C66026   2.943   3.761  10.309  0.5914  0.5876  0.1447
  490MOL0     C66027   2.914   3.830  10.446 -0.1378 -0.5165 -0.1044
  490MOL0     C66028   2.774   3.814  10.513  0.8494 -0.0345  0.0857
  490MOL0     C66029   2.663   3.875  10.425  0.0186  1.0472 -0.0683
  490MOL0     C66030   2.519   3.836  10.475  0.4326 -0.2213  0.2343
  490MOL0     C66031   2.418   3.931  10.410  1.7830  0.6949  0.5412
  490MOL0     N66032   2.285   3.872  10.427 -0.2226 -1.4262 -0.5126
  490MOL0     C66033   2.210   3.880  10.540  0.4793 -0.3173 -0.7901
  490MOL0     C66034   2.093   3.814  10.499 -0.3797  0.1535  0.2066
  490MOL0     C66035   1.979   3.778  10.592  1.2617 -0.2989 -0.9371
  490MOL0     C66036   1.842   3.743  10.519 -1.0347 -0.1164  0.2806
  490MOL0     C66037   1.735   3.724  10.627  0.2001  0.7721 -0.7436
  490MOL0     C66038   1.605   3.695  10.552 -0.0202 -0.0166  0.5297
  490MOL0     O66039   1.505   3.695  10.654  0.7380  0.2478  0.2187
  490MOL0     C66040   1.370   3.695  10.610 -0.5667 -0.7835 -0.1903
  490MOL0     C66041   1.272   3.751  10.699 -0.6577  0.3694  0.2781
  490MOL0     C66042   1.137   3.744  10.656 -0.4900 -0.4542 -0.6509
  490MOL0     C66043   1.038   3.820  10.734  0.3654  0.2898  1.2508
  490MOL0     C66044   1.096   3.684  10.530  0.3073 -0.4923 -0.2848
  490MOL0     C66045   0.955   3.661  10.480  0.0057 -0.8248  0.5612
  490MOL0     O66046   0.939   3.608  10.346 -0.7404  0.8000 -0.2126
  490MOL0     C66047   0.807   3.573  10.313 -0.1054 -0.5595 -0.8856
  490MOL0     C66048   0.749   3.452  10.356  0.4205  0.3197  0.2823
  490MOL0     C66049   0.620   3.419  10.315  0.1447  0.1456  0.1410
  490MOL0     C66050   0.546   3.503  10.233  0.7717  0.3646 -0.1038
  490MOL0     O66051   0.430   3.456  10.194  0.0428 -0.1878  0.3394
  490MOL0     C66052   0.328   3.551  10.155  0.4312 -0.2885  0.0147
  490MOL0     C66053   0.191   3.476  10.152 -0.2846 -0.0943  0.1393
  490MOL0     C66054   0.080   3.572  10.107  0.3558 -0.0159 -0.5703
  490MOL0     C66055  -0.034   3.487  10.036  0.3226 -0.4530 -0.1503
  490MOL0     C66056  -0.161   3.552   9.998  0.9008  0.0428 -0.2052
  490MOL0     C66057  -0.141   3.669   9.902 -0.6547 -1.0555  0.0471
  490MOL0     C66058  -0.274   3.704   9.827 -0.3411  0.4805 -0.9352
  490MOL0     C66059  -0.392   3.732   9.920  0.5312  1.0195 -0.4692
  490MOL0    Cl66060  -0.353   3.855  10.049  0.5101 -0.3246 -0.0183
  490MOL0     C66061   0.609   3.614  10.182 -0.0278 -0.4034 -0.2102
  490MOL0     C66062   0.740   3.646  10.227  0.2600 -0.3263 -0.0523
  490MOL0     O66063   0.863   3.675  10.557  0.5406  0.4279 -0.1604
  490MOL0     C66064   1.202   3.638  10.455  1.0034  0.2505 -0.3116
  490MOL0     C66065   1.335   3.641  10.484  0.5920  0.3682 -0.5728
  490MOL0     N66066   2.096   3.795  10.360 -0.1095  0.2324 -0.0716
  490MOL0     N66067   2.213   3.825  10.325 -0.2811  0.0914  1.3772
  490MOL0     C66068   3.428   3.959  10.493  0.5126  0.0013 -0.0892
  490MOL0     C66069   3.562   3.942  10.540 -0.0715 -0.2108 -0.7454
  490MOL0     C66070   3.946   3.862  10.730 -0.9357 -0.9154  0.0067
  490MOL0     C66071   4.028   3.783  10.652  0.0990 -0.5311  0.5665
  490MOL0     C66072   4.167   3.787  10.664  0.6671  0.0269 -0.4956
  490MOL0     C66073   4.222   3.859  10.770  0.0285 -0.0046 -0.1552
  490MOL0     O66074   4.365   3.853  10.788  0.8118 -0.6600 -0.1134
  490MOL0     C66075   4.421   3.908  10.902 -0.4983 -0.4382 -0.7932
  490MOL0     C66076   4.584   3.901  10.895  0.8416 -0.1445  0.2389
  490MOL0     C66077   4.634   3.986  10.769 -0.4491  0.2556 -0.1320
  490MOL0     C66078   4.783   3.975  10.743  0.2665 -0.3807  0.0693
  490MOL0     C66079   4.831   4.057  10.628  0.3464 -0.0486  0.2462
  490MOL0     C66080   4.877   4.114  10.527  0.6369 -0.0649  0.8296
  490MOL0     C66081   4.144   3.939  10.856 -0.1405  0.9580 -0.3955
  490MOL0     C66082   4.012   3.937  10.826  0.3918 -0.3052  0.4209
  490MOL0     H66083   3.572   3.605  10.516 -1.0606 -1.1028 -0.2468
  490MOL0     H66084   3.353   3.647  10.414  1.0423 -1.9870  0.2157
  490MOL0     H66085   3.263   3.825  10.196  1.4433  3.0290  1.4374
  490MOL0     H66086   3.194   3.698  10.293 -2.1300 -0.0930 -0.7962
  490MOL0     H66087   3.041   3.944  10.232  1.2178  0.7695 -2.7281
  490MOL0     H66088   3.045   3.800  10.129 -1.4463  4.2210 -1.0065
  490MOL0     H66089   2.860   3.764  10.237  2.0810 -0.4191 -1.7134
  490MOL0     H66090   2.963   3.654  10.314 -1.4158  0.2363  2.8434
  490MOL0     H66091   2.992   3.781  10.505  2.9729  1.1984 -2.5169
  490MOL0     H66092   2.933   3.937  10.433  0.5268 -0.4364  1.3706
  490MOL0     H66093   2.751   3.709  10.532  0.0086  0.0346 -0.5147
  490MOL0     H66094   2.787   3.860  10.611  2.7086  0.9675 -0.5684
  490MOL0     H66095   2.678   3.983  10.436  4.1584  0.4784  2.0132
  490MOL0     H66096   2.665   3.834  10.324 -2.0502 -1.7636  0.8872
  490MOL0     H66097   2.503   3.729  10.465 -0.4427 -0.6960  4.7553
  490MOL0     H66098   2.508   3.862  10.580  0.2442  1.4239 -0.1587
  490MOL0     H66099   2.441   3.953  10.305  0.0718 -0.3762 -0.1106
  490MOL0     H66100   2.426   4.025  10.465 -1.7058 -1.0001  4.5221
  490MOL0     H66101   2.243   3.914  10.637 -0.1105 -2.4139  0.2117
  490MOL0     H66102   2.006   3.696  10.660  1.9793  0.6616 -0.0329
  490MOL0     H66103   1.970   3.861  10.663  0.5711 -1.0810 -0.0710
  490MOL0     H66104   1.858   3.653  10.458  1.1579 -1.1003  2.1726
  490MOL0     H66105   1.810   3.825  10.454  1.0270 -0.0936 -0.7706
  490MOL0     H66106   1.728   3.812  10.692 -0.9087 -0.1811  0.4772
  490MOL0     H66107   1.769   3.643  10.691 -2.7243  0.4204  0.5079
  490MOL0     H66108   1.604   3.595  10.507  0.2603 -0.8020  2.2122
  490MOL0     H66109   1.594   3.773  10.475 -0.1203 -0.3125  0.2443
  490MOL0     H66110   1.306   3.814  10.780  0.2078  0.3273 -0.0353
  490MOL0     H66111   1.075   3.849  10.833  0.7364 -0.6712  1.4017
  490MOL0     H66112   1.012   3.908  10.674 -0.8316 -2.0179 -1.8590
  490MOL0     H66113   0.954   3.755  10.756 -0.2717  1.6402  3.0869
  490MOL0     H66114   0.794   3.378  10.422  3.1545  1.3227 -0.3206
  490MOL0     H66115   0.573   3.329  10.353  0.6019 -0.5279 -0.8589
  490MOL0     H66116   0.321   3.629  10.231 -2.5423 -0.4319 -0.0095
  490MOL0     H66117   0.357   3.599  10.061  0.7319  0.0490  0.2777
  490MOL0     H66118   0.199   3.398  10.075 -1.5811 -0.6687  0.5570
  490MOL0     H66119   0.155   3.425  10.242 -1.7088 -2.9353 -1.8781
  490MOL0     H66120   0.122   3.639  10.032  0.0196  1.0453  0.1783
  490MOL0     H66121   0.043   3.627  10.194 -2.8892 -0.8378 -1.2867
  490MOL0     H66122   0.007   3.446   9.943 -2.1679 -0.4306 -1.3242
  490MOL0     H66123  -0.053   3.405  10.105 -1.6508 -0.3889 -0.5706
  490MOL0     H66124  -0.197   3.601  10.090  3.8002 -2.3676  2.4418
  490MOL0     H66125  -0.233   3.479   9.959 -0.1986  0.0460  1.6427
  490MOL0     H66126  -0.108   3.752   9.965  0.6732 -0.9995 -0.6986
  490MOL0     H66127  -0.061   3.645   9.832  0.1934  0.6740  0.3714
  490MOL0     H66128  -0.297   3.625   9.755 -0.4881 -1.7152  1.3885
  490MOL0     H66129  -0.258   3.793   9.765 -2.0177  0.0370 -2.0784
  490MOL0     H66130  -0.430   3.641   9.969  3.9053  0.5730  1.6203
  490MOL0     H66131  -0.471   3.779   9.861 -1.3385 -0.8351  0.4116
  490MOL0     H66132   0.567   3.689  10.116  2.7379  1.0538 -0.4562
  490MOL0     H66133   0.792   3.737  10.200 -1.4701  0.3199 -1.3318
  490MOL0     H66134   1.177   3.608  10.354 -2.7883  0.2335  0.4561
  490MOL0     H66135   1.401   3.589  10.416  1.8463 -0.2752  1.0817
  490MOL0     H66136   3.387   4.059  10.489  1.5861  0.4864  0.6102
  490MOL0     H66137   3.619   4.031  10.566  1.0484 -1.6400  2.0676
  490MOL0     H66138   3.997   3.717  10.572  1.7002 -1.6788  0.8425
  490MOL0     H66139   4.242   3.740  10.601  0.1710 -0.4748 -0.7177
  490MOL0     H66140   4.398   4.015  10.911  2.3562  0.2231 -0.5373
  490MOL0     H66141   4.392   3.867  10.999 -1.7755  1.5812 -0.2571
  490MOL0     H66142   4.615   3.797  10.879  0.7289 -0.0851 -0.3776
  490MOL0     H66143   4.624   3.950  10.985 -0.2066  0.9632  0.1281
  490MOL0     H66144   4.607   4.089  10.795  0.6705  0.8884 -1.3414
  490MOL0     H66145   4.578   3.949  10.683 -1.8547 -1.8442  1.5921
  490MOL0     H66146   4.815   3.871  10.732 -1.3874 -0.8622 -0.4121
  490MOL0     H66147   4.826   4.006  10.839  0.5675 -1.2584  0.2246
  490MOL0     H66148   4.909   4.170  10.442 -1.6915  0.8117  0.4436
  490MOL0     H66149   4.187   3.998  10.936  2.2043 -3.2349  1.7706
  490MOL0     H66150   3.961   3.993  10.904  3.1624 -1.8368  3.6395
  491MOL0     O66151   4.657   0.560   7.504 -0.4781 -1.1401 -0.0619
  491MOL0     C66152   4.684   0.558   7.617 -0.5129  0.9220 -0.9394
  491MOL0     O66153   4.601   0.548   7.722  0.3094 -0.0043 -0.6229
  491MOL0     C66154   4.474   0.521   7.709 -0.2564 -0.8272 -0.0867
  491MOL0     C66155   4.436   0.390   7.739  0.1562  0.5763  0.3682
  491MOL0     C66156   4.303   0.361   7.769 -0.4456 -0.0651  0.6907
  491MOL0     C66157   4.202   0.456   7.738  0.1176  0.4126  0.0289
  491MOL0     O66158   4.064   0.433   7.737  0.0537 -0.2388  0.1413
  491MOL0     C66159   4.041   0.290   7.736  0.2040  0.4792  0.1092
  491MOL0     C66160   3.894   0.280   7.688 -0.4119  0.4321  0.4008
  491MOL0     C66161   3.808   0.352   7.793 -0.2831 -0.4739  0.7583
  491MOL0     C66162   3.667   0.347   7.748 -0.6950  0.0012 -0.2081
  491MOL0     C66163   3.582   0.438   7.835 -0.6394  0.0358  0.1069
  491MOL0     C66164   3.449   0.464   7.771  0.0184 -0.2786 -0.1774
  491MOL0     C66165   3.366   0.595   7.803 -0.5198 -0.3002  0.0778
  491MOL0     C66166   3.317   0.597   7.950  0.1258 -0.0842  0.2835
  491MOL0     N66167   3.295   0.721   8.014  1.1418 -0.0915 -0.2951
  491MOL0     C66168   3.193   0.808   7.992  0.8368 -0.7511  0.5348
  491MOL0     C66169   3.238   0.928   8.047 -0.0303 -0.1695  0.1861
  491MOL0     C66170   3.145   1.044   8.061  0.2749 -0.4715 -0.6724
  491MOL0     C66171   3.168   1.127   7.935  0.0025  0.2537 -0.1401
  491MOL0     C66172   3.095   1.081   7.810  0.6163  0.1363 -1.0780
  491MOL0     C66173   2.947   1.127   7.818 -0.1071  1.0392  0.5244
  491MOL0     O66174   2.885   1.103   7.694  0.0347 -0.3182  0.7371
  491MOL0     C66175   2.753   1.123   7.671  0.7205  0.2937  0.4410
  491MOL0     C66176   2.705   1.118   7.543 -0.5785 -0.0117 -0.1155
  491MOL0     C66177   2.567   1.120   7.513 -0.0900 -0.4772  0.2897
  491MOL0     C66178   2.535   1.078   7.367  0.8565 -0.7474 -0.1698
  491MOL0     C66179   2.472   1.149   7.619  0.4538 -0.2150  0.7897
  491MOL0     C66180   2.326   1.164   7.596  0.4514  0.1393 -0.9700
  491MOL0     O66181   2.243   1.179   7.710  0.4386  0.5499 -0.2409
  491MOL0     C66182   2.103   1.197   7.694  0.3617 -0.2505  0.4809
  491MOL0     C66183   2.015   1.106   7.764 -0.2642 -0.5459 -0.4233
  491MOL0     C66184   1.875   1.121   7.752  0.0999 -0.4094  0.0778
  491MOL0     C66185   1.818   1.230   7.679  1.3008 -0.0444 -0.2293
  491MOL0     O66186   1.683   1.245   7.660  0.3095 -0.3316  0.3317
  491MOL0     C66187   1.615   1.218   7.783  0.6846  0.6319  0.6101
  491MOL0     C66188   1.471   1.263   7.780  0.0817  0.0544 -0.2262
  491MOL0     C66189   1.461   1.415   7.766 -0.1278  0.3499  0.2846
  491MOL0     C66190   1.311   1.455   7.753 -0.3619 -1.7089  0.4585
  491MOL0     C66191   1.260   1.596   7.778 -0.4331  0.1153 -0.2788
  491MOL0     C66192   1.116   1.584   7.829 -0.2929  0.3274  0.2280
  491MOL0     C66193   1.076   1.727   7.860 -0.2624 -0.5855 -0.1757
  491MOL0     C66194   0.934   1.725   7.919  0.1542 -0.1666 -0.2814
  491MOL0    Cl66195   0.914   1.848   8.042 -0.0717  0.4032  0.0331
  491MOL0     C66196   1.904   1.312   7.610 -0.8767 -1.5293 -0.6375
  491MOL0     C66197   2.043   1.306   7.621 -0.8578  1.2253 -0.7959
  491MOL0     O66198   2.287   1.154   7.486  0.2653 -0.1311 -0.0849
  491MOL0     C66199   2.519   1.168   7.744 -0.6159  1.0330 -0.1750
  491MOL0     C66200   2.650   1.142   7.773 -0.3193 -0.9266 -0.5153
  491MOL0     N66201   3.364   0.905   8.100 -0.1495 -0.6906  0.2747
  491MOL0     N66202   3.396   0.787   8.082 -0.5661  0.1620  0.7437
  491MOL0     C66203   4.240   0.581   7.695  0.3644  0.4493 -1.0477
  491MOL0     C66204   4.375   0.616   7.698 -0.6417  0.0626  0.0928
  491MOL0     C66205   4.826   0.552   7.654  0.4635  0.5691 -0.6574
  491MOL0     C66206   4.927   0.564   7.562 -0.9157  0.4225  0.1122
  491MOL0     C66207   5.062   0.531   7.591 -0.0342  0.3934  0.1904
  491MOL0     C66208   5.100   0.513   7.721 -1.1656 -0.4168  0.4192
  491MOL0     O66209   5.231   0.486   7.754 -0.1530 -0.5546  0.6410
  491MOL0     C66210   5.308   0.587   7.824  0.2352 -0.2239 -0.3392
  491MOL0     C66211   5.454   0.545   7.848  0.3079 -0.3150 -0.7804
  491MOL0     C66212   5.546   0.540   7.724  0.3252  0.3915  0.1003
  491MOL0     C66213   5.682   0.490   7.764 -0.0490  0.2340  0.9402
  491MOL0     C66214   5.761   0.607   7.807 -0.6868 -0.3924 -0.7622
  491MOL0     C66215   5.837   0.700   7.834  0.9035  0.0088  0.4068
  491MOL0     C66216   4.996   0.489   7.814  0.0080 -0.3387 -0.2543
  491MOL0     C66217   4.862   0.505   7.781 -0.4975  0.2336  0.1407
  491MOL0     H66218   4.494   0.299   7.746 -0.5118  0.1758  0.7887
  491MOL0     H66219   4.287   0.257   7.795 -3.2396  0.2459  0.4926
  491MOL0     H66220   4.099   0.243   7.655  0.9944 -1.1885  1.5734
  491MOL0     H66221   4.062   0.245   7.833 -0.4798  0.3951  0.2169
  491MOL0     H66222   3.877   0.326   7.590  1.4132 -3.1449 -1.7546
  491MOL0     H66223   3.867   0.174   7.686  1.0347  0.0463 -1.6100
  491MOL0     H66224   3.793   0.297   7.886 -0.7973 -1.3907  0.1465
  491MOL0     H66225   3.849   0.453   7.802  0.7624 -0.7902 -0.1161
  491MOL0     H66226   3.654   0.374   7.643 -2.0460 -0.6749 -0.2452
  491MOL0     H66227   3.630   0.244   7.758 -0.8031 -0.2488 -2.6632
  491MOL0     H66228   3.561   0.395   7.934 -0.1895  0.1028  0.2324
  491MOL0     H66229   3.635   0.532   7.850  4.1076 -2.0169 -1.7134
  491MOL0     H66230   3.470   0.457   7.664 -3.5107 -1.4985 -0.9245
  491MOL0     H66231   3.384   0.380   7.798  2.4595 -1.2759  3.3445
  491MOL0     H66232   3.422   0.686   7.779 -0.5578 -0.5433 -0.9649
  491MOL0     H66233   3.278   0.604   7.738 -0.0686  0.6469 -0.4171
  491MOL0     H66234   3.394   0.548   8.011  2.3813  2.9021  0.0458
  491MOL0     H66235   3.226   0.535   7.958 -0.2071 -0.4481 -4.1032
  491MOL0     H66236   3.102   0.773   7.945  1.0483 -0.1577 -0.3539
  491MOL0     H66237   3.038   1.018   8.061  0.6004 -2.2893 -3.6399
  491MOL0     H66238   3.181   1.106   8.144 -0.1909  0.9241 -1.4785
  491MOL0     H66239   3.276   1.139   7.922  0.0516  1.9551  1.4883
  491MOL0     H66240   3.147   1.233   7.955 -1.7894  0.0687 -0.8219
  491MOL0     H66241   3.094   0.972   7.801 -0.2480  0.2672 -3.1122
  491MOL0     H66242   3.148   1.124   7.725 -1.1157  2.4605 -1.0754
  491MOL0     H66243   2.956   1.236   7.828 -1.0562  1.2478 -0.7260
  491MOL0     H66244   2.892   1.073   7.896 -1.4597 -0.6638 -1.5223
  491MOL0     H66245   2.776   1.099   7.463  2.3796 -0.7848  2.4570
  491MOL0     H66246   2.632   1.064   7.317  1.3049 -3.3407  1.2347
  491MOL0     H66247   2.478   0.985   7.362 -0.5901  0.1601 -1.0922
  491MOL0     H66248   2.480   1.154   7.311  1.4414 -0.2311 -0.0591
  491MOL0     H66249   2.075   1.028   7.811  0.6108  0.4483  0.1725
  491MOL0     H66250   1.806   1.046   7.791 -0.0426 -0.5282 -0.3974
  491MOL0     H66251   1.598   1.114   7.811  3.8456 -0.2889 -0.5601
  491MOL0     H66252   1.660   1.269   7.869 -1.4720 -2.4006  3.8635
  491MOL0     H66253   1.422   1.214   7.696  0.6887  1.0435 -1.1955
  491MOL0     H66254   1.423   1.227   7.872  1.3780  0.1690  0.5215
  491MOL0     H66255   1.512   1.464   7.683 -1.3385  1.5006  0.1715
  491MOL0     H66256   1.510   1.454   7.856  1.2246  1.8109 -1.0128
  491MOL0     H66257   1.260   1.418   7.664 -2.1524 -0.7571  1.0397
  491MOL0     H66258   1.265   1.389   7.827 -3.4614 -2.1911 -1.7098
  491MOL0     H66259   1.261   1.655   7.686  3.4863  1.0911  0.2015
  491MOL0     H66260   1.331   1.641   7.849 -0.2355  0.0264 -0.4212
  491MOL0     H66261   1.046   1.532   7.762  1.0189 -0.6771 -0.4093
  491MOL0     H66262   1.113   1.534   7.926  0.5058  1.2818  0.7635
  491MOL0     H66263   1.080   1.784   7.768 -0.5230 -1.0040 -0.4522
  491MOL0     H66264   1.144   1.760   7.939 -0.3343 -1.4426  0.2711
  491MOL0     H66265   0.907   1.635   7.975 -2.0524  1.4027  1.3436
  491MOL0     H66266   0.857   1.730   7.842 -0.4244 -2.2147  0.1119
  491MOL0     H66267   1.879   1.383   7.532 -0.4807 -0.8952 -0.1925
  491MOL0     H66268   2.102   1.374   7.560  1.4754  0.4518  0.4827
  491MOL0     H66269   2.461   1.207   7.827  1.1063  0.8582  1.1748
  491MOL0     H66270   2.683   1.132   7.876  0.5735 -1.9964 -0.8882
  491MOL0     H66271   4.163   0.652   7.664 -0.1837 -0.3007 -1.4359
  491MOL0     H66272   4.416   0.715   7.677  2.1319 -1.1432 -0.6622
  491MOL0     H66273   4.906   0.589   7.458 -1.6538 -0.6037 -0.0129
  491MOL0     H66274   5.148   0.538   7.525  0.6037  0.3998  1.0079
  491MOL0     H66275   5.317   0.675   7.760 -1.0364 -0.2883 -0.6372
  491MOL0     H66276   5.253   0.612   7.916  2.4003 -1.1968  1.3063
  491MOL0     H66277   5.451   0.449   7.900 -0.7182  0.9528  1.6501
  491MOL0     H66278   5.507   0.606   7.922  0.2423 -2.1020  0.8135
  491MOL0     H66279   5.547   0.640   7.679  2.8084  1.5698  2.5065
  491MOL0     H66280   5.510   0.471   7.646  1.1269  1.3002 -1.1049
  491MOL0     H66281   5.731   0.459   7.671  2.4074  3.2649  1.0384
  491MOL0     H66282   5.681   0.403   7.831 -0.9735  1.5658  2.7563
  491MOL0     H66283   5.920   0.765   7.853  0.5343  0.1565  1.6100
  491MOL0     H66284   5.038   0.471   7.913  2.4872  0.7039 -1.0308
  491MOL0     H66285   4.789   0.484   7.859  2.3774  0.4506  3.0906
  492MOL0     O66286   7.943   1.509   1.985 -0.1944 -0.9926 -0.5701
  492MOL0     C66287   7.984   1.427   1.902 -0.7348 -0.2511 -0.0876
  492MOL0     O66288   7.896   1.355   1.821  0.3939 -0.9899  0.0916
  492MOL0     C66289   7.774   1.424   1.810 -0.7951  0.1062  0.2228
  492MOL0     C66290   7.733   1.493   1.692  0.3217  0.5605  0.5012
  492MOL0     C66291   7.611   1.562   1.682 -0.6016 -0.8989 -0.3853
  492MOL0     C66292   7.526   1.566   1.795 -0.1280  1.4953  0.1692
  492MOL0     O66293   7.429   1.654   1.810  0.5885 -0.1747 -0.3178
  492MOL0     C66294   7.313   1.629   1.729 -0.0595 -0.1211 -0.4445
  492MOL0     C66295   7.201   1.714   1.785  0.1201  0.0427 -0.3084
  492MOL0     C66296   7.149   1.659   1.918 -0.2248  0.4729  0.1492
  492MOL0     C66297   7.013   1.605   1.910  0.4223 -0.9834 -0.3545
  492MOL0     C66298   6.979   1.530   2.035 -0.6613 -0.7877 -0.4319
  492MOL0     C66299   6.831   1.493   2.030 -0.3348 -0.7550  0.9367
  492MOL0     C66300   6.791   1.390   2.141  0.0592 -0.2115  0.2240
  492MOL0     C66301   6.642   1.385   2.156  1.0727  0.4074 -0.3246
  492MOL0     N66302   6.580   1.489   2.243  0.3808 -0.3868  0.0467
  492MOL0     C66303   6.479   1.570   2.195  0.4120  0.1538  0.2711
  492MOL0     C66304   6.447   1.645   2.300 -0.5231  0.2460  0.1513
  492MOL0     C66305   6.356   1.762   2.302 -0.1590 -0.4502 -0.0809
  492MOL0     C66306   6.272   1.793   2.428 -0.5386  1.0994  0.0459
  492MOL0     C66307   6.175   1.682   2.447  0.3901 -0.6600 -0.7058
  492MOL0     C66308   6.031   1.740   2.473 -1.4093 -0.1350  0.0484
  492MOL0     O66309   5.977   1.770   2.345  0.4200  0.5065  0.4056
  492MOL0     C66310   5.854   1.716   2.322  0.3000 -0.0041  0.0456
  492MOL0     C66311   5.841   1.585   2.289  0.1619  0.1391 -0.3057
  492MOL0     C66312   5.714   1.526   2.278 -1.2011  0.4970 -0.5212
  492MOL0     C66313   5.722   1.368   2.266  0.7937  0.0230 -0.0486
  492MOL0     C66314   5.596   1.597   2.290 -0.3436  0.1275  0.2801
  492MOL0     C66315   5.456   1.541   2.304  0.3377  0.0656  0.1416
  492MOL0     O66316   5.344   1.625   2.303 -0.5720  0.7583  0.2305
  492MOL0     C66317   5.217   1.571   2.314 -0.5813  0.4525 -0.9211
  492MOL0     C66318   5.134   1.595   2.212  0.0291 -0.2445  1.0353
  492MOL0     C66319   5.006   1.536   2.202 -0.1988 -0.5753 -0.3112
  492MOL0     C66320   4.955   1.473   2.309 -0.4246  0.6385  0.7659
  492MOL0     O66321   4.827   1.413   2.309  0.3493 -0.0734  0.3784
  492MOL0     C66322   4.735   1.449   2.201  0.4791 -0.9271 -0.1566
  492MOL0     C66323   4.610   1.357   2.219  0.5346  0.0244  0.4800
  492MOL0     C66324   4.635   1.209   2.170  0.3525 -0.0995 -0.1429
  492MOL0     C66325   4.555   1.094   2.246 -0.2971 -0.0554 -0.3689
  492MOL0     C66326   4.588   0.957   2.199 -0.1870  1.5133  0.4957
  492MOL0     C66327   4.722   0.902   2.250 -0.7058  0.7468 -0.1821
  492MOL0     C66328   4.768   0.770   2.183 -0.1604  0.6127 -0.0090
  492MOL0     C66329   4.900   0.732   2.246  0.6823  0.1675  0.1148
  492MOL0    Cl66330   4.962   0.613   2.132 -0.5725  0.3249  0.1715
  492MOL0     C66331   5.032   1.460   2.427  0.1418 -0.3854  0.6245
  492MOL0     C66332   5.163   1.501   2.421 -0.9553 -1.0628  0.5671
  492MOL0     O66333   5.444   1.416   2.305  0.9632 -0.8509  0.1722
  492MOL0     C66334   5.613   1.743   2.304  0.3271 -0.2450 -0.7964
  492MOL0     C66335   5.736   1.796   2.329 -0.2999 -0.1371  0.2387
  492MOL0     N66336   6.540   1.611   2.401  0.7480  0.7600  0.1918
  492MOL0     N66337   6.608   1.508   2.370  0.6306  0.2727  0.0827
  492MOL0     C66338   7.545   1.492   1.908 -0.4884  0.4133  0.2799
  492MOL0     C66339   7.675   1.417   1.908  0.9162  0.1721 -0.3411
  492MOL0     C66340   8.132   1.409   1.894  0.1683 -0.3370  0.2902
  492MOL0     C66341   8.178   1.298   1.816 -0.0395 -0.2609  0.4415
  492MOL0     C66342   8.307   1.266   1.830 -0.0508 -0.4592  0.3560
  492MOL0     C66343   8.397   1.336   1.911 -0.5178 -0.2635 -0.1835
  492MOL0     O66344   8.526   1.286   1.927 -0.4398 -0.2602  0.0297
  492MOL0     C66345   8.633   1.371   1.975  0.0185 -0.5796 -0.5826
  492MOL0     C66346   8.773   1.302   1.985 -0.0960 -1.0800  0.4198
  492MOL0     C66347   8.750   1.167   2.045  0.6299  1.1865 -0.5399
  492MOL0     C66348   8.728   1.053   1.943  0.8529  0.1760  0.2634
  492MOL0     C66349   8.700   0.927   2.014  0.0455 -0.7457  0.1773
  492MOL0     C66350   8.669   0.829   2.076 -0.1547  0.2095  0.1548
  492MOL0     C66351   8.354   1.457   1.969  1.1124  0.3401 -0.6991
  492MOL0     C66352   8.221   1.493   1.967  0.1844  0.0600 -0.5441
  492MOL0     H66353   7.800   1.482   1.607  0.0966 -1.4432  0.5288
  492MOL0     H66354   7.589   1.625   1.596 -0.9866  0.0862  0.4168
  492MOL0     H66355   7.332   1.671   1.630  1.3858 -0.8272 -0.5014
  492MOL0     H66356   7.285   1.523   1.726  0.4470 -0.2545 -3.0888
  492MOL0     H66357   7.242   1.816   1.791  0.6119 -0.2298  1.8865
  492MOL0     H66358   7.108   1.715   1.728  0.0928  1.6894 -0.3041
  492MOL0     H66359   7.221   1.583   1.946  2.0697  1.6741 -2.0303
  492MOL0     H66360   7.159   1.741   1.990  1.2513  2.1357 -1.8091
  492MOL0     H66361   6.944   1.689   1.899  1.4340  0.0826  1.1097
  492MOL0     H66362   7.000   1.545   1.819 -0.4582  0.3183 -1.1250
  492MOL0     H66363   7.041   1.440   2.034  0.8051  0.0478 -4.3753
  492MOL0     H66364   6.991   1.599   2.120 -1.2574  0.4958 -1.3506
  492MOL0     H66365   6.757   1.574   2.024 -0.3040 -0.7483  0.5862
  492MOL0     H66366   6.808   1.445   1.934 -0.1192  0.5214  0.2284
  492MOL0     H66367   6.829   1.289   2.120 -1.2363 -1.2005  2.3092
  492MOL0     H66368   6.838   1.425   2.233  1.5113  0.0152 -0.5763
  492MOL0     H66369   6.623   1.283   2.191  1.5589  0.2725 -0.4406
  492MOL0     H66370   6.598   1.391   2.056  0.3243  0.4456 -0.0007
  492MOL0     H66371   6.447   1.570   2.091  1.5849  2.0211 -0.1439
  492MOL0     H66372   6.431   1.842   2.302  2.0705 -2.4166 -0.3646
  492MOL0     H66373   6.295   1.766   2.212  0.3867 -0.8985 -0.4800
  492MOL0     H66374   6.229   1.894   2.430 -0.3710  1.1656  1.0616
  492MOL0     H66375   6.341   1.781   2.512  0.3849  1.6982 -0.5955
  492MOL0     H66376   6.194   1.630   2.541 -1.2358  1.0539  0.6535
  492MOL0     H66377   6.166   1.608   2.368 -1.2723 -0.6201 -0.5902
  492MOL0     H66378   6.029   1.842   2.513 -1.5200  0.0339 -0.3886
  492MOL0     H66379   5.968   1.682   2.542 -1.3164  0.9645  1.1062
  492MOL0     H66380   5.932   1.526   2.279  0.5118  0.8231 -1.2611
  492MOL0     H66381   5.718   1.312   2.360  2.0691  0.1592  0.1051
  492MOL0     H66382   5.642   1.331   2.202  0.9258 -2.0156  0.9157
  492MOL0     H66383   5.818   1.340   2.221  1.2822  0.4518  0.7047
  492MOL0     H66384   5.168   1.638   2.119  0.9384 -0.6776  1.1604
  492MOL0     H66385   4.941   1.578   2.126  2.0316  3.8165 -0.0942
  492MOL0     H66386   4.706   1.554   2.216 -1.8300 -1.4259 -0.7531
  492MOL0     H66387   4.774   1.438   2.100 -1.5535 -2.5727 -0.8372
  492MOL0     H66388   4.565   1.367   2.319 -2.7190  1.1026 -0.9424
  492MOL0     H66389   4.538   1.409   2.154 -0.0889 -0.7445  0.5458
  492MOL0     H66390   4.740   1.179   2.173  0.1791 -0.6808  0.2453
  492MOL0     H66391   4.601   1.202   2.066 -1.7919 -2.1896  0.6110
  492MOL0     H66392   4.583   1.107   2.351 -1.1569 -1.7143  0.0903
  492MOL0     H66393   4.450   1.118   2.226 -0.1797  0.3939 -0.4673
  492MOL0     H66394   4.578   0.940   2.091 -1.2304  0.1336  0.7791
  492MOL0     H66395   4.524   0.882   2.247  0.1183  0.5018 -0.6208
  492MOL0     H66396   4.803   0.969   2.221  0.3374  0.8578  2.6854
  492MOL0     H66397   4.707   0.888   2.358 -3.5499 -0.8391 -0.6697
  492MOL0     H66398   4.792   0.779   2.076  2.3046  0.2292  0.4473
  492MOL0     H66399   4.693   0.693   2.199 -1.6116  2.0276  0.3277
  492MOL0     H66400   4.885   0.687   2.345  2.3980  0.5809  0.5884
  492MOL0     H66401   4.966   0.817   2.260  2.1829 -0.7715 -0.9855
  492MOL0     H66402   4.996   1.408   2.515 -1.4639 -2.4221 -1.1134
  492MOL0     H66403   5.222   1.494   2.511 -0.3587 -1.0068  0.1849
  492MOL0     H66404   5.520   1.799   2.311 -0.9553 -2.4640  1.9711
  492MOL0     H66405   5.761   1.897   2.360  3.5220 -0.2551 -1.9305
  492MOL0     H66406   7.472   1.472   1.986  0.5547  0.4470  1.2964
  492MOL0     H66407   7.693   1.357   1.997  1.3761  0.1016 -0.4783
  492MOL0     H66408   8.118   1.236   1.750 -0.4623  0.5472  0.0569
  492MOL0     H66409   8.339   1.187   1.763  0.3618  0.6107 -0.7396
  492MOL0     H66410   8.644   1.466   1.922  1.5063 -0.2287  0.2999
  492MOL0     H66411   8.599   1.398   2.075  0.3918 -1.4651 -0.2120
  492MOL0     H66412   8.845   1.370   2.033  0.7923  0.6260 -3.0083
  492MOL0     H66413   8.814   1.293   1.884  5.1636 -0.5214  2.1530
  492MOL0     H66414   8.663   1.165   2.110 -0.1796  1.1543 -1.5905
  492MOL0     H66415   8.839   1.133   2.099 -0.8771 -1.7786  0.3183
  492MOL0     H66416   8.813   1.043   1.875  1.2085  0.9127  0.5848
  492MOL0     H66417   8.641   1.089   1.886  1.7241  1.7679 -0.1481
  492MOL0     H66418   8.639   0.750   2.141 -2.3967  1.3070  0.5505
  492MOL0     H66419   8.424   1.521   2.022 -1.0864  2.7477 -0.4948
  492MOL0     H66420   8.193   1.574   2.034  0.7869 -2.0371  2.4670
  493MOL0     O66421  10.336   7.808  10.134  0.6282 -0.4141 -0.0572
  493MOL0     C66422  10.346   7.816  10.259 -0.1301  0.6644 -0.1270
  493MOL0     O66423  10.243   7.828  10.347 -0.9819 -0.3453  0.0927
  493MOL0     C66424  10.116   7.847  10.282 -1.1592 -0.1297  0.5740
  493MOL0     C66425  10.026   7.742  10.301 -0.4841 -0.0233  0.1636
  493MOL0     C66426   9.901   7.740  10.245  0.2923  0.5671 -0.3169
  493MOL0     C66427   9.861   7.856  10.173 -0.0373 -0.4417  0.3026
  493MOL0     O66428   9.736   7.852  10.122  0.0218  0.1707  0.0168
  493MOL0     C66429   9.677   7.973  10.084 -0.4563  0.0286 -0.0055
  493MOL0     C66430   9.529   7.953  10.048 -0.6867  0.4612  0.1166
  493MOL0     C66431   9.455   7.885  10.154  0.5221  0.4288  0.3602
  493MOL0     C66432   9.303   7.869  10.112 -0.1661  1.0384 -0.2373
  493MOL0     C66433   9.225   7.759  10.199 -1.1301 -0.0586  0.1262
  493MOL0     C66434   9.277   7.615  10.193 -0.4024 -0.8876 -0.2399
  493MOL0     C66435   9.194   7.517  10.274 -0.2438 -0.5772 -0.4021
  493MOL0     C66436   9.258   7.381  10.292 -0.1738  0.0726 -0.4945
  493MOL0     N66437   9.171   7.296  10.370 -0.4031  0.0004 -0.2153
  493MOL0     C66438   9.096   7.193  10.322 -0.4840  0.2722  0.1489
  493MOL0     C66439   9.044   7.121  10.422 -0.0457  0.0808  0.5230
  493MOL0     C66440   8.952   6.996  10.389 -0.1719 -0.3888  0.1390
  493MOL0     C66441   8.817   7.039  10.356  0.6971 -0.8540  1.2956
  493MOL0     C66442   8.757   7.122  10.472  0.4708  0.3051  0.1339
  493MOL0     C66443   8.615   7.166  10.427 -0.4978 -0.4805 -0.2076
  493MOL0     O66444   8.522   7.060  10.434 -0.3992  0.4917  0.6954
  493MOL0     C66445   8.389   7.077  10.435 -0.3857 -1.1382 -0.6962
  493MOL0     C66446   8.324   7.198  10.473  0.6572  0.3083 -0.4536
  493MOL0     C66447   8.186   7.213  10.460 -0.6277  0.0642  0.5352
  493MOL0     C66448   8.140   7.350  10.505  0.3714  0.4504  0.2609
  493MOL0     C66449   8.107   7.107  10.419  0.6973 -0.5362 -0.2620
  493MOL0     C66450   7.962   7.121  10.414 -0.0277 -1.2995  0.3551
  493MOL0     O66451   7.903   7.253  10.387 -0.0734  0.1754  0.2471
  493MOL0     C66452   7.773   7.260  10.351 -0.3043 -0.1065 -0.3085
  493MOL0     C66453   7.725   7.389  10.387 -0.2914  0.7802  0.4609
  493MOL0     C66454   7.588   7.418  10.361  0.0656  0.3720 -0.2149
  493MOL0     C66455   7.510   7.326  10.290  0.2023  0.6134  0.2950
  493MOL0     O66456   7.385   7.344  10.242 -0.3633  0.6938 -0.2421
  493MOL0     C66457   7.313   7.468  10.252  0.3791  0.1211 -0.5417
  493MOL0     C66458   7.191   7.470  10.163 -0.3517 -0.0205 -0.5156
  493MOL0     C66459   7.064   7.524  10.228  0.0706  0.4089 -0.5065
  493MOL0     C66460   6.934   7.518  10.146 -0.3003 -0.0843  0.0664
  493MOL0     C66461   6.814   7.525  10.244  0.0049 -0.4158  0.4771
  493MOL0     C66462   6.691   7.560  10.166  0.1877 -0.1162  0.5337
  493MOL0     C66463   6.572   7.591  10.248 -0.4508 -0.5599  0.0108
  493MOL0     C66464   6.527   7.482  10.334  0.5574  0.1562  0.7580
  493MOL0    Cl66465   6.379   7.546  10.411 -0.3161 -0.0409 -0.0860
  493MOL0     C66466   7.574   7.203  10.249 -0.6109 -0.3915  0.9663
  493MOL0     C66467   7.703   7.167  10.278 -0.3312  0.3747 -0.4986
  493MOL0     O66468   7.896   7.019  10.429  0.2049 -0.0669 -0.3103
  493MOL0     C66469   8.172   6.982  10.394  0.1009 -0.0532 -0.7516
  493MOL0     C66470   8.313   6.972  10.406 -0.0257  0.4380  0.5819
  493MOL0     N66471   9.085   7.189  10.540 -0.4859  0.4951 -0.7517
  493MOL0     N66472   9.161   7.283  10.509  0.0695 -0.5749  1.0972
  493MOL0     C66473   9.955   7.960  10.147 -0.5537 -0.0498  0.1477
  493MOL0     C66474  10.087   7.954  10.198 -0.4511  0.0401  0.1117
  493MOL0     C66475  10.477   7.818  10.311 -0.3984 -0.2345  0.2895
  493MOL0     C66476  10.588   7.811  10.226  0.7318  0.5459  0.2313
  493MOL0     C66477  10.717   7.795  10.267 -0.1017 -0.4339  0.3054
  493MOL0     C66478  10.747   7.818  10.402  0.2493 -0.8255 -0.2145
  493MOL0     O66479  10.879   7.809  10.442 -0.5160  0.7733 -0.3133
  493MOL0     C66480  10.917   7.836  10.583  0.2963 -0.0787  0.2699
  493MOL0     C66481  11.075   7.857  10.580 -0.4383  0.5333  0.6229
  493MOL0     C66482  11.126   7.899  10.723  0.0439 -0.6664 -0.6089
  493MOL0     C66483  11.281   7.922  10.716 -0.0619 -0.3143  0.5315
  493MOL0     C66484  11.313   8.012  10.611  0.4196  0.1115  0.3788
  493MOL0     C66485  11.343   8.083  10.523 -0.4537  0.4258 -0.2684
  493MOL0     C66486  10.639   7.842  10.490  0.3127  0.5569  0.9247
  493MOL0     C66487  10.506   7.826  10.443 -0.2300  0.0989 -0.1804
  493MOL0     H66488  10.057   7.663  10.369 -0.6861 -1.5957 -1.5061
  493MOL0     H66489   9.834   7.655  10.241  0.5265  0.3779 -3.6400
  493MOL0     H66490   9.678   8.029  10.178 -0.2340 -3.6052  2.3621
  493MOL0     H66491   9.716   8.023   9.995 -1.6563  0.7828 -0.1241
  493MOL0     H66492   9.480   8.050  10.037 -0.1806  0.5498 -1.6599
  493MOL0     H66493   9.526   7.897   9.954  2.5885  1.8254 -0.9513
  493MOL0     H66494   9.493   7.783  10.159  0.3039  0.4111  2.4203
  493MOL0     H66495   9.458   7.929  10.254 -0.7150  0.2762  0.4866
  493MOL0     H66496   9.244   7.961  10.116 -3.1412 -0.5788 -2.3395
  493MOL0     H66497   9.311   7.845  10.006 -1.8759 -0.5811 -0.0555
  493MOL0     H66498   9.220   7.787  10.305 -0.6421  1.7207 -0.2788
  493MOL0     H66499   9.121   7.756  10.165 -1.0853  1.2769 -0.2152
  493MOL0     H66500   9.271   7.589  10.088  0.9584  0.1406 -0.5962
  493MOL0     H66501   9.380   7.616  10.229 -0.3029  0.4081 -0.4966
  493MOL0     H66502   9.163   7.551  10.373  0.4274  0.7316 -0.6224
  493MOL0     H66503   9.104   7.524  10.212 -0.7017  0.8819  0.3725
  493MOL0     H66504   9.354   7.384  10.345 -0.3865 -0.7028 -0.0599
  493MOL0     H66505   9.276   7.332  10.196 -0.9324 -0.9725 -0.1170
  493MOL0     H66506   9.108   7.157  10.221 -1.0977  2.4876 -0.7912
  493MOL0     H66507   9.003   6.953  10.303  2.9607  3.8029 -0.4353
  493MOL0     H66508   8.961   6.936  10.480  1.1722  2.8086  2.3116
  493MOL0     H66509   8.759   6.948  10.345 -1.1089  0.5159 -1.5136
  493MOL0     H66510   8.807   7.102  10.267  1.9580 -1.6240  0.5841
  493MOL0     H66511   8.807   7.215  10.501 -1.2488  1.1574  0.5185
  493MOL0     H66512   8.756   7.060  10.562  1.9509 -0.4337 -0.3335
  493MOL0     H66513   8.625   7.208  10.326 -0.2059 -0.4539 -0.1692
  493MOL0     H66514   8.588   7.251  10.490  0.7578  0.3368 -0.7145
  493MOL0     H66515   8.384   7.283  10.505 -0.1280  0.5791  0.3347
  493MOL0     H66516   8.070   7.355  10.588 -0.9448 -3.4409 -0.3774
  493MOL0     H66517   8.225   7.417  10.517  0.6609  1.1165 -3.8755
  493MOL0     H66518   8.094   7.401  10.420  3.8416 -1.0563 -2.8124
  493MOL0     H66519   7.807   7.449  10.424  1.5525 -1.0027 -0.5231
  493MOL0     H66520   7.549   7.519  10.373 -0.4398  0.4602 -2.1274
  493MOL0     H66521   7.278   7.477  10.355 -0.2629  1.5499 -0.8542
  493MOL0     H66522   7.375   7.553  10.221  0.6702 -0.0852 -0.5271
  493MOL0     H66523   7.225   7.518  10.071 -1.7859 -1.4929 -1.8937
  493MOL0     H66524   7.162   7.368  10.134 -0.2963 -0.2905  0.3570
  493MOL0     H66525   7.082   7.629  10.253 -1.4692  0.4563  0.4935
  493MOL0     H66526   7.051   7.461  10.317  1.0314 -0.7143 -1.1323
  493MOL0     H66527   6.917   7.600  10.076 -1.0756  0.4375  0.8315
  493MOL0     H66528   6.932   7.425  10.087  0.1177  1.3791 -2.3845
  493MOL0     H66529   6.825   7.605  10.317 -1.3666  1.4014 -1.1972
  493MOL0     H66530   6.804   7.426  10.289  2.8549 -0.1866  1.8972
  493MOL0     H66531   6.715   7.642  10.097  1.3933  0.3484  1.4784
  493MOL0     H66532   6.672   7.475  10.100  3.2890  0.1046 -0.8447
  493MOL0     H66533   6.489   7.627  10.186 -0.6273 -2.2520 -0.7771
  493MOL0     H66534   6.596   7.670  10.320  0.6605 -1.6260  0.8328
  493MOL0     H66535   6.601   7.451  10.409 -2.0730  0.2508  3.6198
  493MOL0     H66536   6.494   7.396  10.275  0.2669  0.6230  0.2305
  493MOL0     H66537   7.510   7.134  10.195  0.1334  0.2288 -0.7878
  493MOL0     H66538   7.737   7.066  10.254  1.7633  1.2692 -1.6243
  493MOL0     H66539   8.105   6.900  10.368 -1.7084  1.1424 -0.0625
  493MOL0     H66540   8.380   6.886  10.413 -0.4618  0.2359  2.8542
  493MOL0     H66541   9.941   8.035  10.070  1.6367 -0.9770 -1.2539
  493MOL0     H66542  10.151   8.039  10.174 -1.9651  0.6715 -2.0197
  493MOL0     H66543  10.569   7.791  10.121  0.3518 -1.9020  0.7184
  493MOL0     H66544  10.799   7.778  10.198  0.1108 -0.2111  0.5033
  493MOL0     H66545  10.870   7.923  10.630 -0.9299  0.2180 -1.4123
  493MOL0     H66546  10.896   7.751  10.648 -1.9564  0.4022  0.2732
  493MOL0     H66547  11.094   7.929  10.500  1.0697  0.3888  0.8269
  493MOL0     H66548  11.130   7.768  10.549 -0.3890  0.3135  1.3250
  493MOL0     H66549  11.111   7.818  10.796 -1.7840 -1.1108 -1.4107
  493MOL0     H66550  11.069   7.984  10.761 -1.7292 -1.8211 -0.5303
  493MOL0     H66551  11.335   7.827  10.706  0.0328 -0.2541  0.4730
  493MOL0     H66552  11.322   7.959  10.811  3.4362  1.2216 -1.4051
  493MOL0     H66553  11.385   8.132  10.437 -1.0423 -2.1216 -2.1424
  493MOL0     H66554  10.650   7.870  10.594  0.8359  1.5647  0.6101
  493MOL0     H66555  10.423   7.847  10.509 -1.3905  2.6029 -2.2770
  494MOL0     O66556   7.923   0.778   5.483  0.0501 -0.1396  1.2193
  494MOL0     C66557   7.941   0.905   5.468  0.4552 -0.0052 -0.9182
  494MOL0     O66558   7.937   0.974   5.356  0.3330  0.2698 -0.2619
  494MOL0     C66559   7.935   0.905   5.240  0.5199 -0.6448  0.1398
  494MOL0     C66560   7.834   0.910   5.145 -0.0832 -1.1281 -0.2875
  494MOL0     C66561   7.836   0.823   5.038  0.7172 -0.3641  0.7138
  494MOL0     C66562   7.942   0.732   5.014 -0.0534 -0.3585 -0.6883
  494MOL0     O66563   7.934   0.657   4.906  0.5081 -0.5044 -0.2352
  494MOL0     C66564   7.955   0.518   4.925 -0.3825  0.8193 -0.1337
  494MOL0     C66565   7.888   0.448   5.047 -0.9986 -0.0984 -0.1974
  494MOL0     C66566   7.738   0.451   5.031  0.6673  0.9933 -0.7028
  494MOL0     C66567   7.681   0.375   5.148 -0.8362  0.2150 -0.7152
  494MOL0     C66568   7.528   0.383   5.177 -0.2601  0.1977  0.0945
  494MOL0     C66569   7.485   0.531   5.176  0.2807  0.4517 -0.1245
  494MOL0     C66570   7.344   0.531   5.211  0.0303 -0.3616  0.5416
  494MOL0     C66571   7.277   0.673   5.182 -0.0332  0.3950  0.4436
  494MOL0     N66572   7.139   0.680   5.233  0.3119 -0.2069  0.2163
  494MOL0     C66573   7.044   0.755   5.173  0.6016 -1.2068 -0.6132
  494MOL0     C66574   6.929   0.733   5.243  0.5571 -0.1752  0.5793
  494MOL0     C66575   6.788   0.774   5.199 -0.2882 -0.3802 -0.8445
  494MOL0     C66576   6.721   0.677   5.111  0.0985 -0.5118 -0.5657
  494MOL0     C66577   6.581   0.733   5.052  0.6694  0.1406 -0.5774
  494MOL0     C66578   6.460   0.727   5.151  0.1658  1.6060  0.1406
  494MOL0     O66579   6.341   0.730   5.076  0.2579 -0.8409  0.4319
  494MOL0     C66580   6.225   0.707   5.140  0.1152 -0.2983 -0.5921
  494MOL0     C66581   6.122   0.646   5.071 -0.3875  0.8374 -0.3197
  494MOL0     C66582   5.992   0.612   5.131 -0.4708  0.7680 -0.0432
  494MOL0     C66583   5.896   0.543   5.039  0.2577  0.0584  1.3597
  494MOL0     C66584   5.969   0.662   5.261  0.2672  0.8741  0.3600
  494MOL0     C66585   5.839   0.645   5.339 -0.3393  0.2251  0.0081
  494MOL0     O66586   5.734   0.587   5.276  0.0592 -0.7157  0.1235
  494MOL0     C66587   5.604   0.621   5.314  0.5251  0.9172  0.0322
  494MOL0     C66588   5.508   0.524   5.305  1.1791  0.4762 -0.4373
  494MOL0     C66589   5.372   0.558   5.321  0.1495 -0.6696 -0.2563
  494MOL0     C66590   5.332   0.692   5.351  0.1182  0.1197 -0.5474
  494MOL0     O66591   5.201   0.719   5.367  0.9766  0.0435  0.0550
  494MOL0     C66592   5.167   0.853   5.385 -0.0834 -0.0607  0.8598
  494MOL0     C66593   5.010   0.878   5.393  0.1025  0.8996  0.1815
  494MOL0     C66594   4.944   0.777   5.485 -0.3112  0.9967 -0.2614
  494MOL0     C66595   4.786   0.796   5.493 -0.2259 -1.0591 -0.1480
  494MOL0     C66596   4.719   0.677   5.575 -0.7617  0.6594 -0.1029
  494MOL0     C66597   4.577   0.703   5.619 -0.4421 -0.1302 -1.1083
  494MOL0     C66598   4.528   0.586   5.714 -0.2738 -0.4916  0.2389
  494MOL0     C66599   4.392   0.617   5.780  0.4643 -0.6182 -0.2833
  494MOL0    Cl66600   4.273   0.629   5.655  0.2857 -0.2753  0.5843
  494MOL0     C66601   5.437   0.790   5.345 -0.0385 -0.0621 -0.3614
  494MOL0     C66602   5.566   0.753   5.332  0.0984  0.1162  0.1195
  494MOL0     O66603   5.835   0.702   5.449 -0.2242 -0.4257 -0.2369
  494MOL0     C66604   6.074   0.740   5.324  0.2708 -0.3785  0.3610
  494MOL0     C66605   6.199   0.760   5.272 -0.4585 -0.5694 -0.2773
  494MOL0     N66606   6.960   0.642   5.346 -0.6051 -0.2946  0.0112
  494MOL0     N66607   7.085   0.611   5.340 -0.9906 -1.1181  0.9039
  494MOL0     C66608   8.043   0.729   5.105 -0.3996 -0.1188 -0.4570
  494MOL0     C66609   8.046   0.822   5.205  0.5262 -0.1164 -0.5980
  494MOL0     C66610   7.974   0.988   5.592 -0.1244 -0.4145  1.0279
  494MOL0     C66611   7.959   0.938   5.722 -0.5867 -0.4746 -0.1427
  494MOL0     C66612   7.982   1.021   5.836  0.4408  0.1687 -0.6551
  494MOL0     C66613   8.022   1.154   5.825  1.2634 -0.7154 -0.2341
  494MOL0     O66614   8.026   1.236   5.937  0.3020 -0.3901  0.1050
  494MOL0     C66615   7.947   1.360   5.912 -0.5637  0.6635 -0.4404
  494MOL0     C66616   7.934   1.440   6.043 -0.7978 -0.5850 -0.1689
  494MOL0     C66617   7.897   1.594   6.021  1.3430 -0.0798 -0.7792
  494MOL0     C66618   7.774   1.621   5.935  0.3423  0.4726 -0.0506
  494MOL0     C66619   7.650   1.572   6.004 -0.1259 -0.8075  0.1746
  494MOL0     C66620   7.560   1.527   6.074 -0.6201 -0.0180  1.0223
  494MOL0     C66621   8.053   1.194   5.699 -0.4663 -1.0049 -0.6177
  494MOL0     C66622   8.033   1.116   5.582  0.0929  0.4582  0.2577
  494MOL0     H66623   7.749   0.976   5.157 -0.2363 -0.5326 -3.6432
  494MOL0     H66624   7.745   0.839   4.981  0.2658  2.6890  2.1101
  494MOL0     H66625   7.913   0.471   4.836 -1.1664  2.8510 -0.8941
  494MOL0     H66626   8.062   0.495   4.930 -0.5313  0.2596  0.7579
  494MOL0     H66627   7.910   0.340   5.048  0.6647  0.2190 -0.5039
  494MOL0     H66628   7.912   0.493   5.144 -2.7324  1.4121 -0.4123
  494MOL0     H66629   7.707   0.554   5.051  3.1807  1.3881  1.9127
  494MOL0     H66630   7.700   0.406   4.939 -2.4166 -0.6815  1.2235
  494MOL0     H66631   7.704   0.268   5.137  1.5057 -0.0307  4.0201
  494MOL0     H66632   7.729   0.406   5.241 -0.8923 -1.2097 -0.1831
  494MOL0     H66633   7.477   0.325   5.100 -0.9149  2.3175 -1.1764
  494MOL0     H66634   7.501   0.327   5.267 -3.0233  0.3606 -0.5499
  494MOL0     H66635   7.539   0.582   5.257  0.5731 -0.5234  0.3043
  494MOL0     H66636   7.499   0.576   5.078 -2.7186 -2.5642 -2.1792
  494MOL0     H66637   7.292   0.451   5.158  2.2607  0.2796 -2.8979
  494MOL0     H66638   7.335   0.513   5.319 -4.1430  0.1037  0.4719
  494MOL0     H66639   7.292   0.696   5.076 -2.5800 -1.7185 -0.4749
  494MOL0     H66640   7.320   0.761   5.231 -2.1408 -0.0746  3.3820
  494MOL0     H66641   7.054   0.817   5.084  1.0471 -1.5992 -0.8410
  494MOL0     H66642   6.729   0.804   5.286  2.7066 -0.2854  1.3286
  494MOL0     H66643   6.806   0.864   5.141 -3.4501  0.8348 -0.1102
  494MOL0     H66644   6.702   0.584   5.166  2.8670 -1.2928 -0.7598
  494MOL0     H66645   6.789   0.657   5.028  0.1024 -0.9850 -0.4492
  494MOL0     H66646   6.550   0.667   4.970 -2.3332 -0.4321  0.9106
  494MOL0     H66647   6.582   0.838   5.020 -1.4932  0.1900 -0.6277
  494MOL0     H66648   6.469   0.810   5.222 -2.0016 -0.1898  2.7630
  494MOL0     H66649   6.473   0.634   5.208  2.0815  2.4771  1.2372
  494MOL0     H66650   6.139   0.618   4.968  0.2142  0.4338 -0.1155
  494MOL0     H66651   5.924   0.549   4.934  0.4321 -1.0557  1.3334
  494MOL0     H66652   5.861   0.446   5.075 -5.7041  1.9440  1.7354
  494MOL0     H66653   5.802   0.599   5.037  0.8663  1.1178 -1.3120
  494MOL0     H66654   5.529   0.419   5.283  0.0843 -0.2113  1.5225
  494MOL0     H66655   5.295   0.483   5.305  0.9319 -1.2038 -1.7665
  494MOL0     H66656   5.226   0.881   5.473  1.1517 -0.4818  0.1946
  494MOL0     H66657   5.208   0.909   5.301  4.0839  2.4321  4.1121
  494MOL0     H66658   4.985   0.980   5.423 -1.2349  1.6402 -3.0612
  494MOL0     H66659   4.980   0.860   5.289  2.9592 -0.4043 -0.5242
  494MOL0     H66660   4.984   0.779   5.587 -1.4588  0.3616  0.2243
  494MOL0     H66661   4.962   0.675   5.451  0.5851  0.1352  2.5095
  494MOL0     H66662   4.767   0.887   5.552 -1.6804  0.5401 -2.8788
  494MOL0     H66663   4.751   0.817   5.392  1.4274  1.6865 -0.2473
  494MOL0     H66664   4.784   0.652   5.659 -1.0144 -1.0039 -0.3628
  494MOL0     H66665   4.712   0.585   5.517 -1.1352 -2.5787  4.5634
  494MOL0     H66666   4.586   0.799   5.670  3.1276  0.3983 -2.4172
  494MOL0     H66667   4.513   0.712   5.531 -1.9076  3.5606  0.1486
  494MOL0     H66668   4.603   0.572   5.792  0.1341 -1.3639 -0.2874
  494MOL0     H66669   4.515   0.492   5.659  3.1460 -0.3035 -1.1491
  494MOL0     H66670   4.381   0.703   5.847  0.7471 -0.1797 -0.7897
  494MOL0     H66671   4.380   0.526   5.840 -0.7441  0.1321  0.6570
  494MOL0     H66672   5.407   0.893   5.361  0.8412  0.2627 -0.7723
  494MOL0     H66673   5.640   0.832   5.327  1.1209 -0.7174  1.5596
  494MOL0     H66674   6.069   0.792   5.420  1.9315 -0.1006  0.3298
  494MOL0     H66675   6.267   0.824   5.326  0.2148 -2.2675  0.9711
  494MOL0     H66676   8.135   0.674   5.087  1.3535  2.3408  0.4544
  494MOL0     H66677   8.143   0.822   5.255  2.0334 -4.1495 -3.0357
  494MOL0     H66678   7.933   0.839   5.757  0.2187 -0.7949 -0.4315
  494MOL0     H66679   7.955   0.980   5.933  2.0894  0.8148  0.1063
  494MOL0     H66680   7.994   1.434   5.848 -2.2997  1.8396 -0.4235
  494MOL0     H66681   7.858   1.327   5.858 -0.8737 -1.9164  1.4171
  494MOL0     H66682   8.038   1.434   6.075 -0.9025 -2.6512 -0.0853
  494MOL0     H66683   7.858   1.392   6.105 -1.0352  2.3805  2.0325
  494MOL0     H66684   7.984   1.633   5.966  2.6952  0.4824  1.6096
  494MOL0     H66685   7.877   1.643   6.117 -0.8097 -2.1194 -0.1036
  494MOL0     H66686   7.781   1.565   5.841  1.1844 -1.2760  0.9885
  494MOL0     H66687   7.773   1.727   5.910 -0.3086  0.4691 -0.0447
  494MOL0     H66688   7.473   1.488   6.123 -2.5209  3.2991  0.5051
  494MOL0     H66689   8.083   1.298   5.690 -3.3852  0.0066  0.2130
  494MOL0     H66690   8.050   1.154   5.482 -0.1637 -0.9654 -0.3541
  495MOL0     O66691   1.064   3.273   2.897 -0.1892 -0.5948  0.3029
  495MOL0     C66692   1.134   3.355   2.842 -0.0924 -0.2186  1.0036
  495MOL0     O66693   1.094   3.431   2.730 -0.4232  0.1485 -0.1756
  495MOL0     C66694   0.987   3.374   2.665 -0.0810  0.2717  0.6612
  495MOL0     C66695   0.870   3.443   2.661 -0.6940  0.0482  0.2091
  495MOL0     C66696   0.768   3.399   2.582 -1.2845  0.3865 -0.1565
  495MOL0     C66697   0.779   3.273   2.506  0.8499  0.4099 -0.3415
  495MOL0     O66698   0.670   3.236   2.432  0.3604  0.0569  0.0158
  495MOL0     C66699   0.634   3.107   2.458 -0.1966  0.2683  0.5997
  495MOL0     C66700   0.502   3.077   2.400 -0.2520  0.2545  0.5154
  495MOL0     C66701   0.398   3.159   2.478 -0.9141 -0.2745 -0.7903
  495MOL0     C66702   0.260   3.103   2.446 -0.6803  1.2236  0.0706
  495MOL0     C66703   0.141   3.186   2.501  0.0445  0.2694  0.1626
  495MOL0     C66704   0.010   3.108   2.474  0.5279 -0.8720  0.8952
  495MOL0     C66705  -0.114   3.191   2.524 -0.0885  0.5685 -1.0101
  495MOL0     C66706  -0.141   3.314   2.443  0.2765  0.2687  0.4021
  495MOL0     N66707  -0.282   3.339   2.472  0.4186  0.8554  0.4603
  495MOL0     C66708  -0.379   3.280   2.394 -0.1925  0.2816 -0.8238
  495MOL0     C66709  -0.496   3.284   2.460 -0.2816 -0.1197 -0.6783
  495MOL0     C66710  -0.632   3.224   2.410 -0.1290 -0.1755 -0.1127
  495MOL0     C66711  -0.754   3.234   2.495  0.6693  0.2150 -0.8384
  495MOL0     C66712  -0.872   3.162   2.435 -0.4457  0.0903 -1.0083
  495MOL0     C66713  -0.990   3.152   2.526 -0.2740  0.2867  0.0233
  495MOL0     O66714  -1.084   3.065   2.454 -0.1336 -0.6646  0.2795
  495MOL0     C66715  -1.215   3.068   2.503 -0.3808  0.8495  0.0957
  495MOL0     C66716  -1.244   3.090   2.642 -0.0500  0.2246 -0.1766
  495MOL0     C66717  -1.377   3.112   2.681  0.0299  0.0652 -0.5929
  495MOL0     C66718  -1.404   3.162   2.823 -0.5161  0.1022  0.7158
  495MOL0     C66719  -1.480   3.081   2.586 -0.2317 -0.5536  0.4826
  495MOL0     C66720  -1.621   3.081   2.620 -0.1929  0.0490 -0.3539
  495MOL0     O66721  -1.666   3.136   2.740 -0.1797 -0.7492  0.1989
  495MOL0     C66722  -1.803   3.139   2.763  0.0830 -0.0875  0.9419
  495MOL0     C66723  -1.890   3.031   2.743  0.0699  0.0995 -0.4669
  495MOL0     C66724  -2.017   3.034   2.789  0.0394  0.8500 -0.0271
  495MOL0     C66725  -2.069   3.138   2.867 -0.8626 -0.0883  0.1234
  495MOL0     O66726  -2.199   3.155   2.907 -1.0628  0.1893  0.0837
  495MOL0     C66727  -2.287   3.046   2.876  0.6005 -0.2792 -0.2379
  495MOL0     C66728  -2.426   3.089   2.924 -0.0717 -0.9858  1.4221
  495MOL0     C66729  -2.520   2.971   2.939  0.4107 -0.0443  0.0399
  495MOL0     C66730  -2.659   3.018   3.002  0.0566  0.1417 -0.5136
  495MOL0     C66731  -2.764   2.906   2.994  0.2985  0.1389  0.8798
  495MOL0     C66732  -2.753   2.799   3.099 -0.9526 -0.0122  0.8201
  495MOL0     C66733  -2.872   2.709   3.107  1.1816  0.6005  0.1187
  495MOL0     C66734  -2.876   2.611   3.219 -0.1889  0.2009  0.1020
  495MOL0    Cl66735  -2.751   2.474   3.203  0.5921 -0.1458  0.3872
  495MOL0     C66736  -1.979   3.244   2.893 -0.3009  0.4649  0.1041
  495MOL0     C66737  -1.847   3.240   2.836  0.4648 -0.3835 -0.1040
  495MOL0     O66738  -1.695   3.050   2.529  0.1633  0.1699 -0.5869
  495MOL0     C66739  -1.445   3.063   2.450  0.6813  0.1834 -0.8325
  495MOL0     C66740  -1.315   3.060   2.404 -0.3851 -0.5486  0.0906
  495MOL0     N66741  -0.481   3.362   2.571 -0.0807 -0.1522 -0.3782
  495MOL0     N66742  -0.351   3.390   2.579 -0.2720  0.5511  0.1939
  495MOL0     C66743   0.902   3.211   2.501 -0.9630  0.1371  0.1728
  495MOL0     C66744   1.007   3.264   2.582  0.4002 -0.3351  0.6398
  495MOL0     C66745   1.265   3.396   2.899 -0.5245  0.0451  0.1755
  495MOL0     C66746   1.298   3.345   3.027  0.0161 -0.0335  0.7481
  495MOL0     C66747   1.419   3.369   3.075 -0.5164  0.6123 -0.8988
  495MOL0     C66748   1.520   3.446   3.009  0.4408  0.4829 -0.7820
  495MOL0     O66749   1.648   3.438   3.064  0.0510  0.5286 -0.2856
  495MOL0     C66750   1.762   3.482   2.987  0.5220 -0.1816 -0.9001
  495MOL0     C66751   1.882   3.438   3.064 -0.1364 -1.1887  0.6439
  495MOL0     C66752   1.998   3.529   3.011  0.7698  0.5043  0.2440
  495MOL0     C66753   2.132   3.491   3.062 -0.5315  0.5761 -0.4916
  495MOL0     C66754   2.161   3.344   3.034 -0.7661 -0.1910 -1.0466
  495MOL0     C66755   2.188   3.226   3.022 -0.3824 -0.3117  0.2593
  495MOL0     C66756   1.479   3.505   2.882 -0.2155  0.2222  0.5656
  495MOL0     C66757   1.354   3.482   2.830 -0.0134  0.1607  0.5387
  495MOL0     H66758   0.864   3.538   2.713 -0.3749  0.9586 -1.3499
  495MOL0     H66759   0.674   3.452   2.593 -1.2709  0.0505  2.2949
  495MOL0     H66760   0.697   3.038   2.401 -1.1043 -0.4731  0.4800
  495MOL0     H66761   0.647   3.076   2.562  2.8577 -1.8947 -0.2648
  495MOL0     H66762   0.489   3.090   2.292 -0.8351  0.4390  0.6035
  495MOL0     H66763   0.478   2.971   2.417  2.4952 -1.1975 -3.3097
  495MOL0     H66764   0.425   3.146   2.584 -2.2906 -1.7825 -0.5711
  495MOL0     H66765   0.405   3.267   2.463  2.0266 -0.1789  0.5547
  495MOL0     H66766   0.240   3.102   2.338 -1.6964  1.9967  0.2352
  495MOL0     H66767   0.253   3.007   2.496 -0.8050  0.2230 -1.7753
  495MOL0     H66768   0.153   3.197   2.610  1.3976 -1.1536  0.1937
  495MOL0     H66769   0.133   3.289   2.464 -3.1333  0.6491  1.5946
  495MOL0     H66770  -0.005   3.092   2.367 -0.7252  0.8699  0.7605
  495MOL0     H66771   0.013   3.012   2.526 -0.3977 -0.5027  1.6484
  495MOL0     H66772  -0.198   3.121   2.514 -0.3745  1.0227 -1.8363
  495MOL0     H66773  -0.098   3.214   2.630  2.5454 -0.4530 -1.1083
  495MOL0     H66774  -0.122   3.298   2.336 -1.0537 -0.1933  0.2139
  495MOL0     H66775  -0.076   3.396   2.474  0.8100  0.0231 -0.0415
  495MOL0     H66776  -0.359   3.238   2.296  1.1332 -1.8850  0.2877
  495MOL0     H66777  -0.652   3.273   2.314  0.7136  0.5468  0.0579
  495MOL0     H66778  -0.619   3.116   2.400  1.3549  0.0426 -0.7695
  495MOL0     H66779  -0.773   3.340   2.513 -3.5573  0.2106 -3.8198
  495MOL0     H66780  -0.732   3.179   2.587  1.9451  1.3626 -0.4358
  495MOL0     H66781  -0.837   3.062   2.409 -2.0614  0.1765 -4.0674
  495MOL0     H66782  -0.904   3.208   2.341 -0.3075  1.4899 -0.3976
  495MOL0     H66783  -1.030   3.252   2.548  0.9274  1.0467 -1.0828
  495MOL0     H66784  -0.954   3.106   2.618  2.7804  2.2083 -0.0900
  495MOL0     H66785  -1.156   3.091   2.706 -0.8035 -0.8686  0.9181
  495MOL0     H66786  -1.308   3.176   2.872 -0.3573 -2.2833  1.1841
  495MOL0     H66787  -1.459   3.257   2.824 -0.4659  0.1224  1.7658
  495MOL0     H66788  -1.471   3.096   2.879  0.0220 -1.1449 -0.0746
  495MOL0     H66789  -1.849   2.940   2.698 -0.8574 -1.3930  1.5612
  495MOL0     H66790  -2.068   2.941   2.769  0.0891  1.1968 -2.0136
  495MOL0     H66791  -2.279   3.024   2.769  5.9734  1.3894 -0.4745
  495MOL0     H66792  -2.243   2.963   2.931  1.5187 -0.2770 -0.9507
  495MOL0     H66793  -2.423   3.137   3.022 -3.5982  0.6139  0.9058
  495MOL0     H66794  -2.463   3.158   2.848  0.9119 -0.9057  0.9957
  495MOL0     H66795  -2.473   2.893   2.999 -0.3242 -1.8574 -1.6120
  495MOL0     H66796  -2.539   2.936   2.837  0.9879  2.6771 -1.1044
  495MOL0     H66797  -2.643   3.051   3.105  0.2133  0.5374 -0.6652
  495MOL0     H66798  -2.700   3.096   2.938 -1.3061 -0.0824  0.0372
  495MOL0     H66799  -2.754   2.851   2.900  5.6624 -0.1456  1.2921
  495MOL0     H66800  -2.863   2.951   3.004  0.4427  0.9053 -0.7304
  495MOL0     H66801  -2.667   2.734   3.082 -2.0422 -1.3134  0.0824
  495MOL0     H66802  -2.740   2.855   3.192 -2.2205  0.6615  0.6159
  495MOL0     H66803  -2.889   2.661   3.010 -0.9830  0.2576  0.5990
  495MOL0     H66804  -2.965   2.765   3.121  2.0909  2.4886 -0.9674
  495MOL0     H66805  -2.972   2.559   3.213  0.9533 -1.9312 -0.9228
  495MOL0     H66806  -2.877   2.670   3.310  2.4853  1.4207 -0.5685
  495MOL0     H66807  -2.013   3.333   2.946 -0.0395 -0.6666  2.2990
  495MOL0     H66808  -1.783   3.326   2.851  0.6554 -0.3990 -0.7953
  495MOL0     H66809  -1.524   3.051   2.377 -2.0201  0.3126  1.8902
  495MOL0     H66810  -1.293   3.049   2.298  1.1933  0.6824  0.2505
  495MOL0     H66811   0.906   3.130   2.429 -0.6278 -1.9183  2.3757
  495MOL0     H66812   1.107   3.223   2.571  0.8618  0.6803  0.8783
  495MOL0     H66813   1.233   3.281   3.087  3.0483 -2.7022  1.4479
  495MOL0     H66814   1.441   3.313   3.165 -0.8600  4.2327  1.6475
  495MOL0     H66815   1.761   3.447   2.883 -0.8707 -1.8690 -0.3621
  495MOL0     H66816   1.751   3.589   2.972 -1.9963 -0.5244 -1.8807
  495MOL0     H66817   1.894   3.330   3.057  0.2456 -1.0553 -1.1502
  495MOL0     H66818   1.862   3.474   3.166  0.0467 -1.2796  0.7123
  495MOL0     H66819   1.977   3.632   3.042 -3.1624  1.3328 -4.1685
  495MOL0     H66820   2.007   3.529   2.902 -0.5860  1.5501  0.1191
  495MOL0     H66821   2.143   3.516   3.168 -1.1851  2.5629 -0.8616
  495MOL0     H66822   2.212   3.549   3.015 -0.1093  0.1428 -0.3144
  495MOL0     H66823   2.206   3.121   3.010 -0.4312 -0.4295  1.1492
  495MOL0     H66824   1.550   3.565   2.826  1.1039 -3.6349 -2.3357
  495MOL0     H66825   1.325   3.519   2.732  0.3042 -1.4518 -0.1825
  496MOL0     O66826   3.596   3.454  11.292 -1.0224 -0.5662  0.6176
  496MOL0     C66827   3.630   3.393  11.387 -0.3841 -0.4496  0.1059
  496MOL0     O66828   3.549   3.380  11.497  0.2038 -0.4731 -0.7321
  496MOL0     C66829   3.413   3.407  11.479 -0.0204 -0.4366 -0.2523
  496MOL0     C66830   3.334   3.334  11.391 -0.3713  0.5883  0.2443
  496MOL0     C66831   3.201   3.368  11.366 -0.2644 -0.4232 -0.1227
  496MOL0     C66832   3.138   3.468  11.440 -0.1234 -0.4374  0.3713
  496MOL0     O66833   3.001   3.497  11.422 -0.3253  0.1425 -0.1541
  496MOL0     C66834   2.982   3.631  11.373  0.5278  0.3026 -1.0365
  496MOL0     C66835   2.840   3.676  11.417 -0.1175  0.4477  0.0678
  496MOL0     C66836   2.836   3.823  11.388  0.5523 -0.2966 -0.4354
  496MOL0     C66837   2.714   3.876  11.468 -0.5281 -0.2360 -0.2244
  496MOL0     C66838   2.692   4.020  11.448  0.9153  0.3751  0.7946
  496MOL0     C66839   2.617   4.045  11.313 -0.6862  0.7480 -0.3526
  496MOL0     C66840   2.577   4.186  11.288 -0.1143  0.6101 -0.3818
  496MOL0     C66841   2.474   4.238  11.390  1.1043  0.3936 -0.4568
  496MOL0     N66842   2.340   4.173  11.377  0.2280  0.0878  0.2643
  496MOL0     C66843   2.291   4.080  11.472  0.4391  0.2193  0.0390
  496MOL0     C66844   2.177   4.045  11.414 -0.4439 -0.9850  0.1726
  496MOL0     C66845   2.078   3.953  11.470  0.4665  1.1975  0.2785
  496MOL0     C66846   1.927   3.979  11.445 -0.0363  0.1328  0.3107
  496MOL0     C66847   1.866   3.939  11.313  0.4603  0.0134 -0.5817
  496MOL0     C66848   1.720   3.990  11.290  0.1865 -0.8099  0.2433
  496MOL0     O66849   1.631   3.899  11.360 -0.3244  0.2710  0.4421
  496MOL0     C66850   1.496   3.900  11.343  0.3590 -0.2290 -0.2736
  496MOL0     C66851   1.417   3.835  11.437 -0.2186  0.3122  0.4552
  496MOL0     C66852   1.279   3.835  11.432  0.0849 -0.0514 -0.7206
  496MOL0     C66853   1.215   3.775  11.549  1.0473  0.4430 -0.0901
  496MOL0     C66854   1.211   3.890  11.325  0.3471 -0.5328  0.3901
  496MOL0     C66855   1.062   3.877  11.299  0.5800 -0.5326 -0.1719
  496MOL0     O66856   1.017   3.927  11.179  0.5021 -0.5865 -0.4755
  496MOL0     C66857   0.885   3.921  11.160  0.4078 -0.2879 -0.6201
  496MOL0     C66858   0.806   4.038  11.158 -0.1901 -0.1393 -0.6971
  496MOL0     C66859   0.665   4.028  11.134 -0.0312 -0.1985 -0.2337
  496MOL0     C66860   0.610   3.906  11.092  0.1229  0.1587  0.3994
  496MOL0     O66861   0.480   3.889  11.062 -0.4288 -0.7256  0.4113
  496MOL0     C66862   0.397   4.003  11.059  0.4523 -0.0497  0.3201
  496MOL0     C66863   0.265   3.973  11.003 -0.9046  0.7052  0.5060
  496MOL0     C66864   0.276   3.885  10.874 -1.3325 -0.3967 -0.6785
  496MOL0     C66865   0.153   3.884  10.795 -0.3287  1.3472 -0.2024
  496MOL0     C66866   0.166   3.844  10.638 -0.2468 -0.4783 -0.7034
  496MOL0     C66867   0.043   3.888  10.553 -0.1377 -0.3006  0.5222
  496MOL0     C66868   0.048   3.823  10.410 -0.7980  0.4654 -0.2767
  496MOL0     C66869  -0.068   3.878  10.316 -1.0196  0.0309 -0.9230
  496MOL0    Cl66870  -0.005   4.024  10.241 -0.6419 -0.0272 -0.6572
  496MOL0     C66871   0.692   3.790  11.095  0.8606 -0.1342 -0.3831
  496MOL0     C66872   0.827   3.800  11.122 -1.0481 -0.8955 -0.3859
  496MOL0     O66873   0.983   3.838  11.384  0.4112  0.4128  0.0899
  496MOL0     C66874   1.290   3.964  11.226  0.7916 -0.3575 -1.2749
  496MOL0     C66875   1.433   3.968  11.241  0.5183  0.8342  0.0198
  496MOL0     N66876   2.164   4.104  11.291  0.2135  0.0551 -0.4490
  496MOL0     N66877   2.263   4.185  11.266  0.6637  0.0003 -0.1677
  496MOL0     C66878   3.213   3.540  11.531  0.2480 -0.0541 -0.4734
  496MOL0     C66879   3.346   3.505  11.557  0.0344 -0.3565 -0.4353
  496MOL0     C66880   3.766   3.331  11.382  0.2363  0.0555 -0.1082
  496MOL0     C66881   3.868   3.366  11.293  0.1182  0.3312  0.2142
  496MOL0     C66882   3.993   3.298  11.304 -0.1100 -0.8228 -1.0704
  496MOL0     C66883   4.019   3.201  11.406  0.0413 -1.0439 -0.8986
  496MOL0     O66884   4.143   3.146  11.406 -0.1842 -0.1961  0.3491
  496MOL0     C66885   4.175   3.070  11.530 -0.5513  0.0331  0.1466
  496MOL0     C66886   4.329   3.081  11.555  0.6718 -0.2006 -0.4262
  496MOL0     C66887   4.381   3.223  11.586 -0.0140  0.7180 -0.9383
  496MOL0     C66888   4.395   3.311  11.461  0.4544  0.5795 -0.6424
  496MOL0     C66889   4.454   3.435  11.504 -0.6547 -0.4330  0.3875
  496MOL0     C66890   4.511   3.533  11.547  0.3158  0.7041 -0.2783
  496MOL0     C66891   3.919   3.161  11.484  0.9632  0.6905  0.8128
  496MOL0     C66892   3.788   3.228  11.469 -0.1950 -0.3428 -0.5651
  496MOL0     H66893   3.383   3.256  11.333 -1.7261 -0.4345  0.3982
  496MOL0     H66894   3.144   3.311  11.293  1.2656 -0.6201 -1.2141
  496MOL0     H66895   3.049   3.700  11.425 -2.7893  1.9281  1.4596
  496MOL0     H66896   3.007   3.637  11.266 -0.3717 -2.5607 -1.5104
  496MOL0     H66897   2.762   3.614  11.370  0.3319  0.3781 -0.6032
  496MOL0     H66898   2.831   3.660  11.525 -2.9858 -1.5092 -0.3225
  496MOL0     H66899   2.922   3.884  11.416 -0.9993  1.9683 -0.2640
  496MOL0     H66900   2.821   3.836  11.280 -0.9135 -0.6594 -0.2983
  496MOL0     H66901   2.621   3.825  11.443 -0.9308  0.4188 -0.0603
  496MOL0     H66902   2.721   3.866  11.577 -2.3597  0.9942  0.0464
  496MOL0     H66903   2.622   4.066  11.519 -1.4055  1.0693 -1.7369
  496MOL0     H66904   2.787   4.073  11.447  1.4408 -0.4530 -2.2374
  496MOL0     H66905   2.683   4.012  11.232 -0.5961 -2.4470  0.8744
  496MOL0     H66906   2.526   3.985  11.306 -1.1316  1.4122 -0.3412
  496MOL0     H66907   2.656   4.260  11.306 -1.6097  2.5547 -1.4002
  496MOL0     H66908   2.546   4.208  11.185  1.5931 -1.2832 -1.3678
  496MOL0     H66909   2.462   4.346  11.382  1.7674  0.8380  2.9717
  496MOL0     H66910   2.505   4.229  11.495 -0.3074  4.0567  0.4262
  496MOL0     H66911   2.323   4.038  11.567 -0.2369  1.7110  0.9524
  496MOL0     H66912   2.098   3.862  11.413 -1.5911  2.0879 -2.0268
  496MOL0     H66913   2.096   3.941  11.577  1.6193 -1.0646 -0.0993
  496MOL0     H66914   1.899   4.084  11.459 -1.0073 -0.1394  0.4783
  496MOL0     H66915   1.873   3.925  11.523 -1.6457  2.1606  0.6741
  496MOL0     H66916   1.863   3.830  11.305 -0.5097 -0.0321  0.1978
  496MOL0     H66917   1.933   3.980  11.236  1.0352  0.4670  0.1474
  496MOL0     H66918   1.703   3.981  11.183 -0.2072 -0.3796  0.2694
  496MOL0     H66919   1.695   4.088  11.330 -1.6175 -1.8886  1.9440
  496MOL0     H66920   1.467   3.783  11.518 -0.7073  0.0288  0.5845
  496MOL0     H66921   1.206   3.847  11.631  0.6537 -0.5897  0.7988
  496MOL0     H66922   1.112   3.739  11.539  1.1857  0.6094 -3.1806
  496MOL0     H66923   1.277   3.692  11.584  0.7703  0.3108  0.0922
  496MOL0     H66924   0.843   4.137  11.181 -3.5177  1.2135 -0.5218
  496MOL0     H66925   0.600   4.113  11.149 -0.4291 -0.5939  0.3208
  496MOL0     H66926   0.377   4.041  11.160  2.1394  1.7478  0.0456
  496MOL0     H66927   0.435   4.084  10.996 -1.1341 -2.9984 -5.0035
  496MOL0     H66928   0.208   3.919  11.078 -0.7826  0.7208  0.6115
  496MOL0     H66929   0.222   4.071  10.981  1.6126  1.9119  0.5813
  496MOL0     H66930   0.293   3.780  10.901  2.4074  0.5461  1.2866
  496MOL0     H66931   0.359   3.924  10.814 -1.6179  0.2964 -0.6354
  496MOL0     H66932   0.078   3.827  10.850  0.6101 -0.5468 -0.8099
  496MOL0     H66933   0.128   3.991  10.793  2.0464  1.9683 -1.2133
  496MOL0     H66934   0.172   3.735  10.633 -1.1480 -0.4950 -2.0090
  496MOL0     H66935   0.262   3.871  10.595 -0.2545  0.9725  0.1206
  496MOL0     H66936  -0.047   3.850  10.602 -0.5064 -1.7315 -1.1491
  496MOL0     H66937   0.046   3.997  10.552 -0.5043 -0.2919  0.0621
  496MOL0     H66938   0.021   3.718  10.420  0.2544 -0.0147 -2.1003
  496MOL0     H66939   0.152   3.818  10.379  0.0489 -0.7036  2.4820
  496MOL0     H66940  -0.158   3.906  10.373 -1.0120  1.0933 -1.4163
  496MOL0     H66941  -0.094   3.803  10.241  0.5799  0.5770 -2.0734
  496MOL0     H66942   0.643   3.698  11.065 -3.2944  1.6064  0.4168
  496MOL0     H66943   0.899   3.718  11.123 -0.3121 -0.4012 -3.3816
  496MOL0     H66944   1.242   4.025  11.151  1.2782  0.7693 -0.6967
  496MOL0     H66945   1.494   4.030  11.177  1.4045  2.9100  2.6914
  496MOL0     H66946   3.173   3.614  11.599 -1.1190 -1.5837  0.4703
  496MOL0     H66947   3.418   3.550  11.625  1.9612 -2.5924 -0.8761
  496MOL0     H66948   3.849   3.450  11.228  0.2228  0.0418 -0.1894
  496MOL0     H66949   4.074   3.337  11.243  1.2688  1.3681  1.8971
  496MOL0     H66950   4.145   3.114  11.625  2.0502  2.4034  0.0243
  496MOL0     H66951   4.140   2.969  11.507 -1.3471  1.1063 -4.4705
  496MOL0     H66952   4.378   3.047  11.462  2.9710  1.9942 -0.1185
  496MOL0     H66953   4.355   3.000  11.624  0.3226 -1.1459 -1.3704
  496MOL0     H66954   4.484   3.215  11.622 -0.3032  2.6053  0.4406
  496MOL0     H66955   4.316   3.280  11.653  1.8861 -0.4284  2.0994
  496MOL0     H66956   4.299   3.325  11.411 -0.9765 -2.3532  1.0442
  496MOL0     H66957   4.468   3.253  11.403  1.7090  0.1739  1.2799
  496MOL0     H66958   4.561   3.614  11.596 -1.2211  0.9105  1.0319
  496MOL0     H66959   3.914   3.067  11.536 -0.3492 -0.8074 -1.8133
  496MOL0     H66960   3.707   3.184  11.526 -1.1759  2.3554  0.2737
  497MOL0     O66961   0.559   7.859   4.492 -0.1041 -0.2616  0.7867
  497MOL0     C66962   0.594   7.922   4.590  0.0396 -0.3260 -0.2943
  497MOL0     O66963   0.506   7.983   4.681  0.4071  0.1915 -0.5697
  497MOL0     C66964   0.379   7.936   4.679 -0.5955  0.1123 -0.5602
  497MOL0     C66965   0.291   7.975   4.576  0.6071 -0.2599 -0.4038
  497MOL0     C66966   0.158   7.911   4.562 -0.6730 -0.7029  0.3998
  497MOL0     C66967   0.123   7.814   4.658 -0.5702  0.2204  0.8039
  497MOL0     O66968  -0.005   7.764   4.659 -0.8307  0.1577  0.0981
  497MOL0     C66969  -0.044   7.676   4.764  0.3451  0.0425 -0.3184
  497MOL0     C66970  -0.193   7.643   4.769  1.1068 -0.6041 -0.1888
  497MOL0     C66971  -0.278   7.762   4.818 -0.7074  0.2635 -0.3465
  497MOL0     C66972  -0.429   7.739   4.805  0.1975  0.0451 -0.4626
  497MOL0     C66973  -0.509   7.855   4.866 -0.1249  0.1126  0.1584
  497MOL0     C66974  -0.649   7.860   4.824  0.6662  0.9437  0.2297
  497MOL0     C66975  -0.728   7.914   4.943  0.0479  1.2519 -0.4673
  497MOL0     C66976  -0.876   7.920   4.890 -0.4212 -0.1978 -0.0799
  497MOL0     N66977  -0.935   7.783   4.858 -0.9661 -0.0620  0.1817
  497MOL0     C66978  -0.946   7.735   4.734 -0.7121  0.7343  0.3990
  497MOL0     C66979  -1.029   7.630   4.745 -0.0005 -0.1302 -0.2038
  497MOL0     C66980  -1.077   7.525   4.643  0.0401  0.7886 -0.3784
  497MOL0     C66981  -1.188   7.569   4.546  0.1341  0.0877 -0.5697
  497MOL0     C66982  -1.139   7.653   4.429 -0.0912  0.0297  0.2022
  497MOL0     C66983  -1.251   7.735   4.362 -0.1015 -0.0554  0.2381
  497MOL0     O66984  -1.362   7.663   4.319  0.4122 -0.0780  0.7396
  497MOL0     C66985  -1.478   7.727   4.274 -0.2462  0.8786  0.1889
  497MOL0     C66986  -1.492   7.862   4.246 -0.3495  0.3505  0.6721
  497MOL0     C66987  -1.608   7.926   4.201  0.5376 -1.0833 -0.3793
  497MOL0     C66988  -1.612   8.077   4.176 -0.4165 -0.3267 -0.8775
  497MOL0     C66989  -1.727   7.849   4.196  0.8049  0.1862  0.3021
  497MOL0     C66990  -1.856   7.914   4.148 -0.4655  0.1336  0.1438
  497MOL0     O66991  -1.930   7.839   4.050 -0.0691  0.1927 -0.0316
  497MOL0     C66992  -2.064   7.865   4.021  0.2748 -0.2214  0.9676
  497MOL0     C66993  -2.108   7.995   4.003 -0.4446 -0.1905 -0.1696
  497MOL0     C66994  -2.242   8.012   3.979  0.8455  0.3241 -0.0320
  497MOL0     C66995  -2.337   7.912   3.949  0.0181  0.2063 -0.4442
  497MOL0     O66996  -2.476   7.928   3.925 -0.4445 -0.2026 -0.3134
  497MOL0     C66997  -2.557   7.823   3.873  0.2785  0.8010  0.6980
  497MOL0     C66998  -2.706   7.872   3.865 -0.1197  0.4202  0.0145
  497MOL0     C66999  -2.789   7.772   3.780  0.5446  0.1140  0.3251
  497MOL0     C67000  -2.931   7.811   3.742  0.0213  0.3542 -0.2006
  497MOL0     C67001  -2.940   7.950   3.674 -0.8201 -0.5017  0.5892
  497MOL0     C67002  -2.841   7.962   3.554 -0.2832  0.6148  0.4069
  497MOL0     C67003  -2.848   8.083   3.458  0.0313 -0.2745  1.0425
  497MOL0     C67004  -2.943   8.073   3.340 -0.0167 -0.0293  0.2577
  497MOL0    Cl67005  -2.896   7.934   3.228  0.4163 -0.1939  0.2072
  497MOL0     C67006  -2.278   7.782   3.949  0.3714 -0.2208  0.8296
  497MOL0     C67007  -2.148   7.756   3.990 -0.1193 -0.2538 -0.7941
  497MOL0     O67008  -1.899   7.993   4.221 -0.2604  0.0314  0.4820
  497MOL0     C67009  -1.718   7.710   4.219  0.2324  0.5747 -0.6210
  497MOL0     C67010  -1.596   7.652   4.254  0.1058  0.7496  0.0824
  497MOL0     N67011  -1.078   7.617   4.879  0.2960 -0.8700  0.0842
  497MOL0     N67012  -1.013   7.712   4.945  0.1989 -0.2363  0.4941
  497MOL0     C67013   0.218   7.780   4.757  0.8082  0.1099 -0.5962
  497MOL0     C67014   0.344   7.834   4.771  0.0978 -0.1181  0.5219
  497MOL0     C67015   0.738   7.924   4.619 -0.2437 -0.1816 -0.4602
  497MOL0     C67016   0.832   7.896   4.518  0.3627  0.2892 -0.2942
  497MOL0     C67017   0.968   7.916   4.541 -0.5661  0.3223  0.0092
  497MOL0     C67018   1.011   7.968   4.669  0.2037  0.6893  0.2883
  497MOL0     O67019   1.145   8.009   4.675  0.4221  0.7171  0.0453
  497MOL0     C67020   1.169   8.136   4.734  0.0479 -0.0488  0.2542
  497MOL0     C67021   1.281   8.192   4.653 -0.4059 -0.7964  0.5734
  497MOL0     C67022   1.413   8.124   4.675  0.2853  0.0744 -0.8682
  497MOL0     C67023   1.529   8.170   4.581  0.3537  0.8758  0.2461
  497MOL0     C67024   1.510   8.125   4.445  1.2892  0.3647 -0.1744
  497MOL0     C67025   1.473   8.078   4.340 -0.0358  0.9950 -0.5590
  497MOL0     C67026   0.920   7.992   4.768  0.4157  0.7259 -0.6759
  497MOL0     C67027   0.781   7.972   4.745 -0.9181 -0.0774  0.0325
  497MOL0     H67028   0.332   8.046   4.504  2.2268  0.3822  1.0705
  497MOL0     H67029   0.087   7.935   4.483 -0.7659 -0.2083  0.6285
  497MOL0     H67030  -0.002   7.575   4.763  0.1654 -0.0685  1.3242
  497MOL0     H67031  -0.023   7.732   4.856  0.0467 -1.5324  0.7562
  497MOL0     H67032  -0.240   7.606   4.678  0.8051  0.5679 -0.5225
  497MOL0     H67033  -0.213   7.575   4.852 -1.5339  1.4558  1.0513
  497MOL0     H67034  -0.243   7.777   4.921  1.2341 -1.4207 -0.7007
  497MOL0     H67035  -0.260   7.858   4.769 -0.5908  1.1879  1.4204
  497MOL0     H67036  -0.445   7.722   4.698 -0.6848 -2.1425 -0.0437
  497MOL0     H67037  -0.454   7.649   4.863  0.0052  0.3072 -0.1371
  497MOL0     H67038  -0.509   7.836   4.974 -1.8560 -0.2551  0.1146
  497MOL0     H67039  -0.462   7.952   4.849  0.7218 -0.3444 -0.2249
  497MOL0     H67040  -0.644   7.940   4.749 -1.3689  0.5747 -0.3720
  497MOL0     H67041  -0.682   7.765   4.781  1.7807 -0.8052  2.9584
  497MOL0     H67042  -0.728   7.848   5.030  1.2218  1.3031 -0.4082
  497MOL0     H67043  -0.683   8.009   4.973  1.4398  1.6316 -3.3815
  497MOL0     H67044  -0.891   7.977   4.798 -1.3884  2.3427  1.5501
  497MOL0     H67045  -0.936   7.968   4.968  0.9323  3.6208 -1.1981
  497MOL0     H67046  -0.893   7.756   4.642  0.6599 -1.6277  0.5806
  497MOL0     H67047  -0.995   7.485   4.583  0.1002  2.1113 -1.2133
  497MOL0     H67048  -1.120   7.438   4.695  0.3508  0.7193 -0.2348
  497MOL0     H67049  -1.260   7.632   4.598 -1.5715 -0.8494 -1.7054
  497MOL0     H67050  -1.243   7.483   4.508 -1.3638  0.6482  0.2669
  497MOL0     H67051  -1.079   7.605   4.351  0.0527  0.8530 -0.2089
  497MOL0     H67052  -1.066   7.717   4.479  0.7300  0.6266 -1.6787
  497MOL0     H67053  -1.214   7.792   4.276  0.3358 -1.3051 -0.4240
  497MOL0     H67054  -1.280   7.803   4.443  0.5177  0.3363  0.1368
  497MOL0     H67055  -1.406   7.926   4.261  1.1964 -1.3754 -0.4048
  497MOL0     H67056  -1.512   8.118   4.163 -0.0735 -1.1400 -0.8833
  497MOL0     H67057  -1.671   8.106   4.088  1.2068  1.8029 -1.3383
  497MOL0     H67058  -1.663   8.121   4.262 -0.9193 -0.8738 -0.8885
  497MOL0     H67059  -2.052   8.084   4.029 -1.2285 -0.5240  3.0225
  497MOL0     H67060  -2.275   8.115   3.986  0.6761  0.2563  0.1548
  497MOL0     H67061  -2.524   7.789   3.774 -0.7494  2.0742 -0.1179
  497MOL0     H67062  -2.548   7.737   3.939 -0.1936 -0.4548 -0.8165
  497MOL0     H67063  -2.739   7.882   3.969  1.5159  0.7962  0.5347
  497MOL0     H67064  -2.714   7.973   3.824  0.1974 -0.2620 -1.7856
  497MOL0     H67065  -2.789   7.684   3.845  0.3870  0.3418  0.6317
  497MOL0     H67066  -2.737   7.760   3.684 -1.0702  0.1947 -0.5943
  497MOL0     H67067  -2.972   7.732   3.679 -0.4887 -1.2577  2.0207
  497MOL0     H67068  -2.985   7.803   3.837  1.8787 -0.5714  0.8125
  497MOL0     H67069  -2.916   8.030   3.744  0.6984  1.3877 -1.9124
  497MOL0     H67070  -3.042   7.959   3.637 -0.6001 -0.7309 -0.0917
  497MOL0     H67071  -2.739   7.968   3.596 -0.9691 -0.1717  2.3224
  497MOL0     H67072  -2.856   7.865   3.506 -0.6623  0.5420  0.6714
  497MOL0     H67073  -2.745   8.099   3.423  0.9526  0.8332  3.9608
  497MOL0     H67074  -2.872   8.175   3.511 -0.2084 -0.0427  0.5400
  497MOL0     H67075  -2.940   8.166   3.282 -0.8882 -2.7203 -4.6595
  497MOL0     H67076  -3.042   8.048   3.377 -0.1568 -0.3878 -0.3545
  497MOL0     H67077  -2.333   7.696   3.911  2.6747 -1.0128 -0.9496
  497MOL0     H67078  -2.117   7.652   3.990  1.1515  0.1011 -1.2520
  497MOL0     H67079  -1.806   7.649   4.199  0.8672 -0.2389 -1.0036
  497MOL0     H67080  -1.596   7.550   4.289 -0.2860  0.5563 -0.4677
  497MOL0     H67081   0.201   7.700   4.829  2.6259 -0.3664 -0.6434
  497MOL0     H67082   0.422   7.803   4.840  2.5850 -0.5245 -2.2772
  497MOL0     H67083   0.795   7.869   4.419 -1.3229 -0.7054  0.5591
  497MOL0     H67084   1.045   7.903   4.465 -2.2182  0.8590 -1.8292
  497MOL0     H67085   1.087   8.209   4.727  1.3796  1.3756 -1.5923
  497MOL0     H67086   1.201   8.119   4.837  0.5827  1.8549  0.4463
  497MOL0     H67087   1.288   8.288   4.705 -0.5683 -1.4705  1.8724
  497MOL0     H67088   1.256   8.210   4.548 -0.7566  1.6971  1.0164
  497MOL0     H67089   1.393   8.018   4.656  2.6554 -0.5761 -0.0620
  497MOL0     H67090   1.444   8.152   4.776  2.0630  0.2348 -1.4248
  497MOL0     H67091   1.624   8.130   4.619  0.1992  2.5254  2.6156
  497MOL0     H67092   1.540   8.279   4.592 -0.1942  1.2957 -2.6910
  497MOL0     H67093   1.435   8.020   4.258  0.0601 -0.6459  0.5052
  497MOL0     H67094   0.946   8.038   4.863 -3.2173  0.4969  0.5909
  497MOL0     H67095   0.711   8.005   4.821 -0.8983  0.2296 -0.0845
  498MOL0     O67096   2.201   1.636  10.267  0.4971 -0.6198 -0.4214
  498MOL0     C67097   2.210   1.529  10.319 -0.1512  0.0800 -0.3752
  498MOL0     O67098   2.105   1.444  10.351 -0.1355  0.2323  0.5643
  498MOL0     C67099   1.987   1.456  10.280 -0.3503  0.2509  0.5334
  498MOL0     C67100   1.870   1.421  10.348  0.5822 -0.3030 -0.2260
  498MOL0     C67101   1.743   1.409  10.292  1.1651 -0.6028  0.3865
  498MOL0     C67102   1.737   1.423  10.160  0.2726  0.2212 -0.6628
  498MOL0     O67103   1.620   1.371  10.105  0.2680  0.4421  0.2394
  498MOL0     C67104   1.566   1.437   9.990  0.2864  1.3692 -0.5964
  498MOL0     C67105   1.443   1.372   9.929 -0.0762 -0.6614 -0.4619
  498MOL0     C67106   1.335   1.381  10.037 -0.3639  0.6724  0.4061
  498MOL0     C67107   1.204   1.329   9.986  0.3864 -0.3147 -0.1815
  498MOL0     C67108   1.085   1.419  10.017  0.1000 -0.6355  0.2469
  498MOL0     C67109   0.960   1.360   9.949  0.5906 -0.0275 -0.7012
  498MOL0     C67110   0.964   1.366   9.795 -0.2437  0.5371 -0.8418
  498MOL0     C67111   0.832   1.360   9.720  0.9555 -0.0811  0.9582
  498MOL0     N67112   0.745   1.254   9.772 -0.2753 -0.5965  0.0603
  498MOL0     C67113   0.609   1.277   9.800 -1.1619  1.4637  0.3841
  498MOL0     C67114   0.563   1.151   9.845 -0.5469  0.2675  0.3931
  498MOL0     C67115   0.416   1.121   9.860 -0.7656 -0.6952  0.5330
  498MOL0     C67116   0.404   1.074  10.010  0.1374  0.3851  0.8018
  498MOL0     C67117   0.258   1.025  10.031  0.9149 -0.2676  0.7102
  498MOL0     C67118   0.171   1.146  10.072  0.5286  0.0670 -0.2465
  498MOL0     O67119   0.154   1.224   9.952 -0.4967  0.1232  0.4833
  498MOL0     C67120   0.026   1.247   9.912 -0.8548  0.3452 -1.1780
  498MOL0     C67121  -0.082   1.274   9.991 -0.4979 -0.4209 -0.2871
  498MOL0     C67122  -0.200   1.310   9.932  0.4722  0.1404 -0.4369
  498MOL0     C67123  -0.310   1.346  10.035 -0.4966  0.2405  0.0074
  498MOL0     C67124  -0.215   1.320   9.788 -0.9442  0.3400  0.1796
  498MOL0     C67125  -0.343   1.343   9.718  0.4767 -0.4494 -0.3267
  498MOL0     O67126  -0.343   1.385   9.589 -0.6348 -1.0425 -0.7289
  498MOL0     C67127  -0.462   1.393   9.531  0.2885 -0.1866 -0.1840
  498MOL0     C67128  -0.515   1.280   9.472  0.0095  0.0092  0.5373
  498MOL0     C67129  -0.632   1.284   9.415 -0.0183 -0.1136 -0.3280
  498MOL0     C67130  -0.715   1.394   9.409  0.4828 -0.1764  0.2170
  498MOL0     O67131  -0.839   1.377   9.345 -0.1333 -0.1874  0.3437
  498MOL0     C67132  -0.954   1.384   9.433 -0.7057  0.3275 -0.6916
  498MOL0     C67133  -1.079   1.349   9.347 -0.8803  0.4749 -0.7786
  498MOL0     C67134  -1.209   1.319   9.424  0.0490 -0.0010 -0.7321
  498MOL0     C67135  -1.320   1.265   9.334  0.5886  0.2401  0.1073
  498MOL0     C67136  -1.438   1.192   9.406  0.3944  0.3481  0.2051
  498MOL0     C67137  -1.518   1.286   9.499  0.7191  0.6219 -0.0425
  498MOL0     C67138  -1.600   1.388   9.423  0.7078  0.0226  0.4049
  498MOL0     C67139  -1.679   1.492   9.514  0.4107 -0.4607  0.5418
  498MOL0    Cl67140  -1.793   1.399   9.612  0.3173  0.1056 -0.0063
  498MOL0     C67141  -0.657   1.518   9.453  0.0486 -0.2567  0.0708
  498MOL0     C67142  -0.535   1.515   9.520  0.1276 -0.5422  0.3695
  498MOL0     O67143  -0.444   1.325   9.782  0.4173  0.3329  0.2702
  498MOL0     C67144  -0.102   1.293   9.700 -0.2028  0.4922 -0.2012
  498MOL0     C67145   0.012   1.253   9.773  0.0701  0.3420  0.2026
  498MOL0     N67146   0.672   1.067   9.854  0.3877  0.1774 -0.6611
  498MOL0     N67147   0.779   1.130   9.814 -0.1453  0.4016  0.5680
  498MOL0     C67148   1.841   1.478  10.086  0.7095 -0.6996  0.1519
  498MOL0     C67149   1.967   1.497  10.143 -0.0794  0.0656 -0.4802
  498MOL0     C67150   2.347   1.492  10.377 -0.1558  0.1989  0.2999
  498MOL0     C67151   2.370   1.357  10.414  1.1273 -0.1598  0.9370
  498MOL0     C67152   2.489   1.308  10.460  0.3107 -0.7980  0.4805
  498MOL0     C67153   2.597   1.402  10.477  0.8197  0.1657 -0.0306
  498MOL0     O67154   2.713   1.350  10.535  0.2961 -0.6281 -0.4833
  498MOL0     C67155   2.840   1.416  10.519  0.2020 -0.7878 -0.5350
  498MOL0     C67156   2.866   1.510  10.633  0.1626  0.0444 -0.0101
  498MOL0     C67157   2.991   1.591  10.612  0.4517  0.8140  0.0496
  498MOL0     C67158   3.123   1.534  10.674  0.0956 -0.0731  0.2151
  498MOL0     C67159   3.228   1.625  10.639 -0.6187 -0.2423 -0.2948
  498MOL0     C67160   3.310   1.706  10.611  0.2255 -1.0678  0.4519
  498MOL0     C67161   2.574   1.537  10.437  0.0261 -0.2769 -0.3712
  498MOL0     C67162   2.451   1.585  10.392  0.1609  0.8028  0.6646
  498MOL0     H67163   1.889   1.393  10.451  0.1923  1.3062  0.3096
  498MOL0     H67164   1.658   1.377  10.352 -0.9670  1.6635 -1.2198
  498MOL0     H67165   1.544   1.538  10.024 -0.8529  0.3039  2.0709
  498MOL0     H67166   1.635   1.432   9.905  0.3848 -1.1759 -0.4547
  498MOL0     H67167   1.411   1.434   9.845  1.3143  0.7964  0.0262
  498MOL0     H67168   1.467   1.271   9.892  1.4586 -0.7305  0.6011
  498MOL0     H67169   1.382   1.312  10.108 -1.7512 -2.9659 -1.9231
  498MOL0     H67170   1.328   1.479  10.085  0.5874  2.4081 -2.7432
  498MOL0     H67171   1.215   1.311   9.878 -1.5406 -1.3124 -0.2505
  498MOL0     H67172   1.186   1.238  10.044 -2.9189  1.5759  2.0799
  498MOL0     H67173   1.076   1.425  10.125  0.4004 -2.4941  0.4115
  498MOL0     H67174   1.106   1.517   9.972  2.0287 -1.3802 -0.6030
  498MOL0     H67175   0.942   1.255   9.974 -0.4050  0.1386 -0.6836
  498MOL0     H67176   0.875   1.419   9.985 -0.1222  0.2110 -2.6322
  498MOL0     H67177   1.017   1.458   9.769 -0.6739  1.0570  0.0471
  498MOL0     H67178   1.026   1.281   9.766  0.4994  0.5275  0.6830
  498MOL0     H67179   0.853   1.352   9.612  2.6207  0.2469  1.2276
  498MOL0     H67180   0.780   1.456   9.725  3.6664  1.8268 -2.3649
  498MOL0     H67181   0.543   1.359   9.776 -2.3088  0.5421  0.2968
  498MOL0     H67182   0.371   1.217   9.832  2.3305  0.8880  0.5794
  498MOL0     H67183   0.379   1.049   9.787 -3.0695 -1.4496  2.2914
  498MOL0     H67184   0.434   1.152  10.081  0.2070  1.0140  0.0856
  498MOL0     H67185   0.470   0.993  10.041 -1.8842 -0.4866  3.2106
  498MOL0     H67186   0.260   0.951  10.112  0.8568 -0.3376  0.6480
  498MOL0     H67187   0.215   0.965   9.951  0.5266 -1.6664  1.9236
  498MOL0     H67188   0.207   1.201  10.160 -0.2029  0.0768  0.0464
  498MOL0     H67189   0.073   1.116  10.108  1.4587  1.1959  3.6652
  498MOL0     H67190  -0.075   1.286  10.099 -0.2319  0.1237 -0.3608
  498MOL0     H67191  -0.369   1.259  10.065  0.0486  1.2116  4.7290
  498MOL0     H67192  -0.259   1.384  10.124 -0.1466 -0.0881 -0.0533
  498MOL0     H67193  -0.369   1.426   9.989  0.5745  1.4243  0.6307
  498MOL0     H67194  -0.452   1.192   9.462 -0.6999 -0.2704 -3.4893
  498MOL0     H67195  -0.659   1.197   9.356 -2.0256  1.8474 -2.5252
  498MOL0     H67196  -0.951   1.308   9.512  0.3694 -0.0879 -1.1101
  498MOL0     H67197  -0.967   1.483   9.478 -1.7900  1.0729 -2.5380
  498MOL0     H67198  -1.089   1.440   9.286  1.2294  1.6845  0.5417
  498MOL0     H67199  -1.053   1.265   9.282 -1.7182 -1.0819  0.8216
  498MOL0     H67200  -1.245   1.405   9.481 -2.0453 -1.6356  0.5524
  498MOL0     H67201  -1.196   1.247   9.505  4.4953 -0.8043 -1.8574
  498MOL0     H67202  -1.345   1.356   9.278  3.0039  1.6774  1.2068
  498MOL0     H67203  -1.285   1.192   9.261 -2.7059 -2.8159  1.3029
  498MOL0     H67204  -1.408   1.098   9.454  2.0616 -0.2622 -1.8774
  498MOL0     H67205  -1.500   1.150   9.327  3.3739 -0.6835 -1.7941
  498MOL0     H67206  -1.585   1.228   9.564  1.7793 -2.5686 -1.5609
  498MOL0     H67207  -1.445   1.339   9.561  0.4491 -1.5398  2.2710
  498MOL0     H67208  -1.668   1.335   9.355  1.2753  0.2449 -0.3450
  498MOL0     H67209  -1.534   1.442   9.355 -0.7063  0.7598 -0.4238
  498MOL0     H67210  -1.745   1.557   9.455  0.8302  0.6883  1.3029
  498MOL0     H67211  -1.611   1.557   9.570 -2.0433  2.7813  0.0531
  498MOL0     H67212  -0.707   1.614   9.459 -0.1517 -0.4520  2.7898
  498MOL0     H67213  -0.482   1.604   9.550  1.5562  0.2610 -3.8558
  498MOL0     H67214  -0.103   1.286   9.591 -3.5021  1.0345 -0.2965
  498MOL0     H67215   0.096   1.232   9.708 -1.4638 -2.1582 -1.1290
  498MOL0     H67216   1.835   1.510   9.982  1.9258  0.2801  0.3517
  498MOL0     H67217   2.050   1.532  10.083 -1.1619 -0.7143 -2.5315
  498MOL0     H67218   2.277   1.300  10.412  0.4467  0.7434  3.2657
  498MOL0     H67219   2.485   1.209  10.504 -0.0726 -0.7274  0.6087
  498MOL0     H67220   2.915   1.336  10.518 -1.7853 -2.7676 -0.1184
  498MOL0     H67221   2.847   1.467  10.423 -2.5623  0.8944  0.0342
  498MOL0     H67222   2.880   1.451  10.725  1.7673  3.0797  1.8379
  498MOL0     H67223   2.782   1.579  10.643 -1.5117 -1.9590  0.7159
  498MOL0     H67224   2.989   1.690  10.659  1.0852  1.1111 -0.5337
  498MOL0     H67225   3.005   1.611  10.506  0.5221 -2.8819 -0.7675
  498MOL0     H67226   3.149   1.434  10.640  0.0425  0.0226 -0.1115
  498MOL0     H67227   3.108   1.534  10.782 -3.4525  0.0788 -0.1595
  498MOL0     H67228   3.386   1.775  10.580 -2.0281  0.4769 -2.1405
  498MOL0     H67229   2.653   1.611  10.446 -0.0470 -0.0037 -1.7855
  498MOL0     H67230   2.436   1.689  10.366  4.3027  0.7034 -3.2640
  499MOL0     O67231   5.393   3.343   0.754  0.1846  0.7915  0.5627
  499MOL0     C67232   5.485   3.423   0.756 -0.0551  0.5628 -0.0158
  499MOL0     O67233   5.473   3.562   0.760  0.4290  0.5978 -0.4622
  499MOL0     C67234   5.349   3.613   0.769  0.1592 -0.3609  0.4917
  499MOL0     C67235   5.282   3.666   0.656 -0.1988 -0.5467 -0.3741
  499MOL0     C67236   5.151   3.720   0.661 -0.7844 -0.5022  0.1834
  499MOL0     C67237   5.075   3.715   0.783 -0.1320  0.2589  0.2670
  499MOL0     O67238   4.947   3.756   0.799 -0.5214  0.7816  1.0170
  499MOL0     C67239   4.882   3.818   0.695  0.6090 -0.2907  0.6795
  499MOL0     C67240   4.741   3.834   0.733  0.9029  0.3672 -0.3485
  499MOL0     C67241   4.730   3.910   0.864  0.3537 -0.0054  0.1038
  499MOL0     C67242   4.772   4.056   0.848  0.3353  0.5970  0.2076
  499MOL0     C67243   4.765   4.156   0.968 -0.2943 -0.1214  1.1134
  499MOL0     C67244   4.622   4.156   1.036 -0.5397  0.7633  0.1129
  499MOL0     C67245   4.639   4.247   1.166  0.1106 -0.4642  0.5736
  499MOL0     C67246   4.521   4.257   1.268 -0.1703  0.0496 -0.0740
  499MOL0     N67247   4.516   4.132   1.350 -0.6606  0.7116  0.0125
  499MOL0     C67248   4.475   4.008   1.311 -0.1326 -0.4287 -0.8864
  499MOL0     C67249   4.487   3.936   1.424  0.4896  0.0607  0.2373
  499MOL0     C67250   4.434   3.800   1.438  0.2922 -0.2803 -0.0615
  499MOL0     C67251   4.284   3.797   1.500 -0.3742  0.1728 -0.9003
  499MOL0     C67252   4.231   3.655   1.514 -0.2389  0.4875  0.0818
  499MOL0     C67253   4.078   3.655   1.543  0.3460  0.9676  0.5294
  499MOL0     O67254   4.001   3.687   1.427 -0.0215 -0.3457  0.4905
  499MOL0     C67255   3.872   3.662   1.453  0.1087 -0.4305  0.0375
  499MOL0     C67256   3.799   3.763   1.506  0.2913  0.1089  0.6099
  499MOL0     C67257   3.659   3.749   1.524 -0.5455  0.6531 -0.2279
  499MOL0     C67258   3.581   3.871   1.561  0.5470  0.1919 -0.0958
  499MOL0     C67259   3.597   3.611   1.496 -0.6925  0.1654  0.5560
  499MOL0     C67260   3.451   3.598   1.509 -0.7818 -0.1926 -0.2377
  499MOL0     O67261   3.402   3.489   1.453  0.3113 -0.5788 -0.3663
  499MOL0     C67262   3.274   3.481   1.434  0.7505 -0.3704 -0.3428
  499MOL0     C67263   3.197   3.376   1.494 -0.4236  0.0116  0.2731
  499MOL0     C67264   3.060   3.373   1.481 -0.2723 -0.4498  1.0938
  499MOL0     C67265   2.994   3.461   1.404  0.1261  0.3916 -0.1632
  499MOL0     O67266   2.859   3.460   1.389 -0.5679 -0.1846 -0.3852
  499MOL0     C67267   2.803   3.340   1.345 -0.2219  1.2069 -0.2854
  499MOL0     C67268   2.647   3.349   1.358 -0.1485  0.2461  0.3288
  499MOL0     C67269   2.592   3.243   1.264  0.0396  0.3727  0.5940
  499MOL0     C67270   2.447   3.241   1.272  0.4553  0.1686 -0.6011
  499MOL0     C67271   2.385   3.135   1.178  0.4291  0.2179  0.2243
  499MOL0     C67272   2.246   3.088   1.226 -0.0250  1.1187  0.5508
  499MOL0     C67273   2.147   3.194   1.212  0.3164  0.1869  0.9402
  499MOL0     C67274   2.088   3.191   1.079  0.1988 -0.0576 -0.0939
  499MOL0    Cl67275   1.957   3.306   1.066  0.2963 -0.5569 -0.0712
  499MOL0     C67276   3.063   3.572   1.347 -0.3291  0.0484 -0.8278
  499MOL0     C67277   3.201   3.571   1.361 -0.4151 -0.9374  0.0872
  499MOL0     O67278   3.393   3.676   1.583 -0.2422  0.2568 -0.3000
  499MOL0     C67279   3.684   3.512   1.450  0.0365  0.2759 -0.0383
  499MOL0     C67280   3.811   3.542   1.428 -0.1418  0.3980 -0.1399
  499MOL0     N67281   4.533   4.014   1.530 -0.2608 -0.4947 -0.4917
  499MOL0     N67282   4.554   4.132   1.485  0.9517 -0.6061 -0.3453
  499MOL0     C67283   5.134   3.648   0.891  0.0571  0.2466  0.1774
  499MOL0     C67284   5.266   3.601   0.889  0.3114 -0.3329  0.0550
  499MOL0     C67285   5.626   3.365   0.749 -0.5557  1.1251  0.7191
  499MOL0     C67286   5.735   3.452   0.750 -1.0721 -0.0815  0.1179
  499MOL0     C67287   5.867   3.391   0.735  1.1962 -1.1602 -0.1530
  499MOL0     C67288   5.888   3.256   0.735 -0.1908  0.2015  0.0318
  499MOL0     O67289   6.003   3.185   0.711 -0.0045  0.5171 -0.5978
  499MOL0     C67290   6.123   3.261   0.680 -0.7979  0.3200  0.4728
  499MOL0     C67291   6.231   3.177   0.604  0.4806  0.1485 -0.9134
  499MOL0     C67292   6.370   3.249   0.585  0.3065 -0.2977 -0.1414
  499MOL0     C67293   6.464   3.182   0.489 -0.0598 -0.9946 -0.0183
  499MOL0     C67294   6.519   3.055   0.529  0.3074  0.2764 -0.2613
  499MOL0     C67295   6.546   2.944   0.556 -0.4026 -0.7084  0.9019
  499MOL0     C67296   5.774   3.178   0.725  0.5913 -0.2452 -0.0212
  499MOL0     C67297   5.644   3.228   0.731 -0.2200 -0.2640 -0.5429
  499MOL0     H67298   5.346   3.672   0.568 -0.1227  3.6975 -0.2125
  499MOL0     H67299   5.105   3.756   0.570  0.7294  0.7756 -0.1013
  499MOL0     H67300   4.927   3.912   0.663 -1.1036  0.7194  1.1105
  499MOL0     H67301   4.873   3.752   0.608 -3.2470  1.9787 -0.8887
  499MOL0     H67302   4.687   3.880   0.650  1.6783 -2.7835 -2.7798
  499MOL0     H67303   4.694   3.735   0.740  2.4378 -0.2722  1.9281
  499MOL0     H67304   4.624   3.910   0.890  0.7597 -0.7313  1.9070
  499MOL0     H67305   4.785   3.859   0.943 -0.5824 -0.7648  0.2883
  499MOL0     H67306   4.876   4.054   0.816  0.0806 -0.2533 -0.6226
  499MOL0     H67307   4.714   4.101   0.766  0.7536 -0.0133 -0.4334
  499MOL0     H67308   4.842   4.130   1.040 -2.6443  1.9501  4.6868
  499MOL0     H67309   4.800   4.254   0.933  1.8482 -0.8212  1.2168
  499MOL0     H67310   4.540   4.180   0.968 -1.8525  1.2084  1.7893
  499MOL0     H67311   4.602   4.052   1.061 -1.9260  1.0850  0.4081
  499MOL0     H67312   4.723   4.216   1.230 -0.1652  0.4228  1.3866
  499MOL0     H67313   4.668   4.344   1.126  0.7882 -2.4122 -4.3914
  499MOL0     H67314   4.424   4.264   1.219 -1.3733 -0.3077  2.1310
  499MOL0     H67315   4.520   4.349   1.327 -0.8538 -0.7325  1.1649
  499MOL0     H67316   4.423   3.979   1.220 -1.3447 -1.7905  0.1745
  499MOL0     H67317   4.436   3.766   1.334  1.1160 -0.7482  0.0994
  499MOL0     H67318   4.500   3.737   1.500  1.2901 -0.2298 -1.0434
  499MOL0     H67319   4.212   3.851   1.436  0.3854  1.8094 -0.4379
  499MOL0     H67320   4.286   3.841   1.600 -0.2646  0.1227 -0.8802
  499MOL0     H67321   4.283   3.605   1.597  1.0606  3.0510  0.9086
  499MOL0     H67322   4.250   3.610   1.416 -2.7948  2.6588 -1.5532
  499MOL0     H67323   4.062   3.726   1.625  0.0071  1.2091  0.2562
  499MOL0     H67324   4.044   3.560   1.585 -2.2034  1.6713  0.1934
  499MOL0     H67325   3.827   3.868   1.512 -1.4503  0.7318 -1.1027
  499MOL0     H67326   3.640   3.961   1.539 -0.9612  0.5780 -2.9346
  499MOL0     H67327   3.489   3.873   1.503  0.7447 -4.9954 -0.9914
  499MOL0     H67328   3.564   3.874   1.669 -2.0695  2.1227 -0.4595
  499MOL0     H67329   3.262   3.309   1.550  0.7886  1.7510  1.0443
  499MOL0     H67330   3.013   3.293   1.536  0.2193 -0.3944  1.6114
  499MOL0     H67331   2.841   3.332   1.243 -0.8442  0.9440 -0.5019
  499MOL0     H67332   2.830   3.244   1.389 -1.0655  0.5933 -1.0799
  499MOL0     H67333   2.612   3.355   1.462 -0.6719  0.9180  0.1250
  499MOL0     H67334   2.627   3.451   1.322  3.3019  0.9151 -0.0357
  499MOL0     H67335   2.637   3.147   1.287  0.3704 -0.0327 -1.5845
  499MOL0     H67336   2.611   3.276   1.162 -2.5054  1.5179  0.3925
  499MOL0     H67337   2.422   3.225   1.378  1.2440 -1.7683 -0.6762
  499MOL0     H67338   2.413   3.342   1.246  0.0703  0.7034  1.7492
  499MOL0     H67339   2.448   3.047   1.192 -0.8325 -0.6740  0.3790
  499MOL0     H67340   2.381   3.172   1.075  0.0275  1.8663  0.8002
  499MOL0     H67341   2.211   3.006   1.164 -0.1771  2.1915 -0.8374
  499MOL0     H67342   2.253   3.056   1.331  2.7549 -0.5738 -0.0458
  499MOL0     H67343   2.195   3.286   1.246  4.6747 -1.6627  0.4748
  499MOL0     H67344   2.066   3.162   1.279  1.2284  1.5859  2.7873
  499MOL0     H67345   2.059   3.087   1.060  1.4923 -0.7325  1.3787
  499MOL0     H67346   2.163   3.218   1.004 -0.4775  2.6995  0.1368
  499MOL0     H67347   3.005   3.648   1.295  1.3867  1.2992 -0.9934
  499MOL0     H67348   3.245   3.654   1.307 -3.5044  0.7219 -0.1046
  499MOL0     H67349   3.662   3.413   1.411  1.4165  1.0071 -2.9726
  499MOL0     H67350   3.868   3.458   1.390 -1.0245 -0.7618  1.0080
  499MOL0     H67351   5.082   3.624   0.983 -0.4853  2.6304  0.5621
  499MOL0     H67352   5.304   3.537   0.968 -2.2675 -2.0623  0.0019
  499MOL0     H67353   5.720   3.559   0.761  2.7157  0.4677  1.2020
  499MOL0     H67354   5.944   3.466   0.748 -1.0931  0.9736  2.3004
  499MOL0     H67355   6.098   3.356   0.633 -1.6008  0.1435  0.5273
  499MOL0     H67356   6.174   3.299   0.769  0.5978 -2.4057  0.9538
  499MOL0     H67357   6.186   3.140   0.511 -1.1160 -2.0093  0.6097
  499MOL0     H67358   6.262   3.087   0.659 -0.6539  0.0154 -0.4618
  499MOL0     H67359   6.425   3.246   0.679 -1.0386  0.0461  0.6982
  499MOL0     H67360   6.353   3.350   0.548  2.0483 -0.1223 -0.5519
  499MOL0     H67361   6.540   3.257   0.464 -1.2567 -0.1487 -1.2510
  499MOL0     H67362   6.410   3.180   0.394  3.4652  0.9528 -2.3186
  499MOL0     H67363   6.559   2.840   0.579 -2.6735 -1.6199 -1.4506
  499MOL0     H67364   5.769   3.070   0.711 -0.7870 -0.2439  0.2594
  499MOL0     H67365   5.559   3.161   0.724  0.1087 -0.7624  0.1479
  500MOL0     O67366   1.588   7.342   8.491  0.0843 -0.0806  0.5754
  500MOL0     C67367   1.672   7.374   8.405  0.2471 -0.1510 -1.0261
  500MOL0     O67368   1.640   7.406   8.280 -0.2949 -0.1836  0.3465
  500MOL0     C67369   1.515   7.377   8.224  0.7916 -0.1959 -0.4994
  500MOL0     C67370   1.389   7.404   8.286 -0.1330 -0.7160  0.1008
  500MOL0     C67371   1.272   7.370   8.217  0.1414 -0.4760  0.5549
  500MOL0     C67372   1.268   7.324   8.086 -0.1914  0.4057 -0.1869
  500MOL0     O67373   1.154   7.278   8.015 -0.0734 -0.3844  0.5457
  500MOL0     C67374   1.032   7.303   8.069 -0.0680 -0.2863 -0.9437
  500MOL0     C67375   0.923   7.252   7.975  0.2672 -0.2521  0.3984
  500MOL0     C67376   0.792   7.221   8.041 -0.5716 -0.4006 -0.0816
  500MOL0     C67377   0.687   7.179   7.927  0.2736 -0.2178 -0.7904
  500MOL0     C67378   0.549   7.244   7.947 -0.1713  0.8547  0.3494
  500MOL0     C67379   0.458   7.195   7.831  0.1756 -0.1790 -0.2092
  500MOL0     C67380   0.327   7.273   7.835  0.5208 -0.5132 -0.1557
  500MOL0     C67381   0.261   7.304   7.700 -0.0282 -0.3277 -0.3593
  500MOL0     N67382   0.120   7.332   7.712  0.1093 -0.3187 -0.4195
  500MOL0     C67383   0.069   7.448   7.763  0.0621  0.2489 -1.1777
  500MOL0     C67384  -0.066   7.445   7.751 -0.7427 -0.9549 -0.4897
  500MOL0     C67385  -0.172   7.556   7.774  0.1260  0.4610 -0.2894
  500MOL0     C67386  -0.312   7.503   7.813  0.7518 -0.4235 -0.7692
  500MOL0     C67387  -0.403   7.621   7.816 -0.1911  0.1883  0.7248
  500MOL0     C67388  -0.549   7.587   7.837  0.0134 -0.2571  0.3070
  500MOL0     O67389  -0.620   7.709   7.852  0.8148 -0.6056 -0.3282
  500MOL0     C67390  -0.756   7.698   7.880  0.3701  1.1618  0.3563
  500MOL0     C67391  -0.802   7.772   7.978  0.2202 -0.8638 -0.1257
  500MOL0     C67392  -0.940   7.789   8.000 -0.0858 -0.9163  0.0389
  500MOL0     C67393  -0.970   7.888   8.119  0.0438 -0.3395  0.3866
  500MOL0     C67394  -1.036   7.724   7.932  0.0013  0.3675  0.1724
  500MOL0     C67395  -1.170   7.747   7.930  0.3050  0.9483 -0.1165
  500MOL0     O67396  -1.240   7.719   8.051  0.3135 -0.1226  0.3454
  500MOL0     C67397  -1.376   7.726   8.045 -0.7334 -0.2224  0.3695
  500MOL0     C67398  -1.435   7.806   8.139 -0.0129  0.1351 -0.0363
  500MOL0     C67399  -1.571   7.812   8.154  0.1402 -0.2947 -0.2534
  500MOL0     C67400  -1.652   7.750   8.061  0.3044  0.8744  0.1096
  500MOL0     O67401  -1.787   7.762   8.077  0.1634 -0.3478  0.0852
  500MOL0     C67402  -1.856   7.752   7.949  0.1467  0.6017  0.8352
  500MOL0     C67403  -1.981   7.842   7.969  0.6248  0.6155  0.5314
  500MOL0     C67404  -2.064   7.845   7.834  0.5137 -1.3803  0.2260
  500MOL0     C67405  -2.193   7.934   7.872 -0.1815 -0.5702 -0.1122
  500MOL0     C67406  -2.305   7.916   7.768  0.1807  0.0130 -0.1395
  500MOL0     C67407  -2.393   7.798   7.814  0.9702 -0.5393  0.1810
  500MOL0     C67408  -2.517   7.768   7.721  0.5431  1.0564  0.4472
  500MOL0     C67409  -2.652   7.834   7.770  0.1451  0.1300  0.3639
  500MOL0    Cl67410  -2.801   7.820   7.657 -0.2909 -0.4110  0.0886
  500MOL0     C67411  -1.597   7.663   7.960 -0.3716 -0.0908 -0.7528
  500MOL0     C67412  -1.457   7.654   7.952  0.3456  0.3940 -0.5782
  500MOL0     O67413  -1.231   7.768   7.828 -0.3854 -0.4091 -0.7763
  500MOL0     C67414  -0.989   7.632   7.833 -0.3084 -0.7940  0.7242
  500MOL0     C67415  -0.844   7.611   7.810  0.7496 -0.2254  0.1509
  500MOL0     N67416  -0.094   7.318   7.694 -0.0012  0.2834  0.1126
  500MOL0     N67417   0.015   7.256   7.665  0.7584  0.4504  0.8090
  500MOL0     C67418   1.390   7.315   8.023  0.2469 -0.7724 -0.3683
  500MOL0     C67419   1.509   7.348   8.088  0.1640 -0.0286  0.9044
  500MOL0     C67420   1.807   7.379   8.449  0.2488  0.2118 -0.7582
  500MOL0     C67421   1.916   7.420   8.367  0.1711  0.3773 -0.1035
  500MOL0     C67422   2.045   7.419   8.408  0.1379  0.0942  0.1543
  500MOL0     C67423   2.074   7.378   8.539  0.2883  0.5736 -0.1147
  500MOL0     O67424   2.203   7.391   8.583  0.1266 -0.1588  0.2315
  500MOL0     C67425   2.224   7.456   8.712  0.6051 -0.1624 -0.7660
  500MOL0     C67426   2.336   7.394   8.793 -0.1086  1.0471 -0.5946
  500MOL0     C67427   2.469   7.407   8.707 -0.1143  0.4559  0.7505
  500MOL0     C67428   2.594   7.385   8.782 -1.0033 -0.3954  0.3459
  500MOL0     C67429   2.708   7.435   8.704  0.2742  0.3016 -0.9191
  500MOL0     C67430   2.810   7.486   8.661  0.1886  0.7815 -0.8446
  500MOL0     C67431   1.977   7.326   8.620 -0.0146 -0.0276  0.1821
  500MOL0     C67432   1.845   7.332   8.577 -0.4982  0.2667  0.7190
  500MOL0     H67433   1.398   7.441   8.387  1.1127  0.1484 -0.3127
  500MOL0     H67434   1.183   7.383   8.278  1.1747  1.1290  1.8090
  500MOL0     H67435   1.027   7.251   8.165  0.7009  0.1438 -0.6653
  500MOL0     H67436   1.026   7.411   8.085 -1.0668 -0.7376  2.5768
  500MOL0     H67437   0.914   7.335   7.905  0.1822  0.6773  1.4879
  500MOL0     H67438   0.949   7.158   7.925  2.2345  0.2345  0.4348
  500MOL0     H67439   0.795   7.136   8.109 -2.9633 -0.8681 -0.4457
  500MOL0     H67440   0.758   7.313   8.090  0.7415  2.0028 -3.2404
  500MOL0     H67441   0.723   7.209   7.829 -2.1419  2.5863 -0.9772
  500MOL0     H67442   0.677   7.071   7.921 -0.2516 -0.4906  2.7754
  500MOL0     H67443   0.497   7.218   8.040 -0.5449  2.1050  0.5110
  500MOL0     H67444   0.575   7.350   7.954  1.1484  0.4908  1.4443
  500MOL0     H67445   0.512   7.212   7.737 -0.3468  2.1342 -0.1552
  500MOL0     H67446   0.438   7.088   7.839 -1.5139  0.0313 -1.0391
  500MOL0     H67447   0.251   7.238   7.906  0.9029  2.9329  2.1437
  500MOL0     H67448   0.344   7.373   7.873 -0.4321 -0.0508 -0.8845
  500MOL0     H67449   0.264   7.225   7.625  0.7461  0.7161 -1.4593
  500MOL0     H67450   0.297   7.398   7.657 -1.2857 -0.0161 -0.7686
  500MOL0     H67451   0.120   7.539   7.793  3.0794 -1.7464  0.2670
  500MOL0     H67452  -0.136   7.627   7.849  1.7601 -0.1467 -0.4641
  500MOL0     H67453  -0.184   7.615   7.683 -0.6920 -2.9528 -2.5844
  500MOL0     H67454  -0.303   7.458   7.912  1.8311  0.0900 -0.6249
  500MOL0     H67455  -0.356   7.440   7.735 -2.1636  0.5088 -0.0185
  500MOL0     H67456  -0.380   7.671   7.721  0.4019  0.3685  0.9565
  500MOL0     H67457  -0.367   7.688   7.896 -0.6521  2.0557 -0.5765
  500MOL0     H67458  -0.553   7.526   7.927  1.0204 -1.2925 -0.3161
  500MOL0     H67459  -0.589   7.521   7.759 -0.4790  0.9812 -0.5300
  500MOL0     H67460  -0.739   7.838   8.037 -1.5150 -1.4531  2.5476
  500MOL0     H67461  -1.044   7.964   8.095  0.3100 -0.5068 -1.0677
  500MOL0     H67462  -0.998   7.838   8.212 -2.6874  3.6141  1.9634
  500MOL0     H67463  -0.892   7.958   8.151 -0.8645  1.6040 -1.4246
  500MOL0     H67464  -1.374   7.857   8.213  0.2041 -1.3723  0.8689
  500MOL0     H67465  -1.611   7.884   8.225 -0.4756 -0.1899 -0.7015
  500MOL0     H67466  -1.812   7.809   7.866 -3.5840 -1.3027 -2.8483
  500MOL0     H67467  -1.882   7.647   7.932 -3.7931  1.3168  1.6035
  500MOL0     H67468  -2.052   7.791   8.034 -1.8110  1.5759 -1.2103
  500MOL0     H67469  -1.970   7.940   8.016  2.4927  0.5974  0.2227
  500MOL0     H67470  -2.087   7.746   7.793 -0.0839 -0.1990 -2.4694
  500MOL0     H67471  -2.002   7.903   7.765 -0.0627  0.3635  1.1046
  500MOL0     H67472  -2.243   7.903   7.964 -0.8473 -0.0148 -0.2757
  500MOL0     H67473  -2.164   8.039   7.884 -0.3142 -0.7060  1.5773
  500MOL0     H67474  -2.263   7.905   7.668  0.3927 -3.1144  0.2092
  500MOL0     H67475  -2.376   7.999   7.779 -0.0787 -0.3332  0.9806
  500MOL0     H67476  -2.329   7.710   7.820 -0.1638 -1.4748 -0.7391
  500MOL0     H67477  -2.440   7.813   7.912 -1.2064 -0.2589 -0.8389
  500MOL0     H67478  -2.535   7.660   7.719 -1.7049  1.3746  1.3404
  500MOL0     H67479  -2.496   7.797   7.618 -0.2531 -0.1943 -0.0935
  500MOL0     H67480  -2.637   7.939   7.797  1.1091 -0.3348  1.7296
  500MOL0     H67481  -2.679   7.791   7.867 -1.6424  0.2559 -0.0555
  500MOL0     H67482  -1.648   7.603   7.885  0.1189 -1.9936  0.3777
  500MOL0     H67483  -1.407   7.589   7.881  2.9877  2.0084 -0.3219
  500MOL0     H67484  -1.055   7.580   7.765 -1.5651  0.3629  1.0166
  500MOL0     H67485  -0.806   7.548   7.731 -0.6442  1.6779 -2.2103
  500MOL0     H67486   1.392   7.288   7.918 -0.1495  0.9057 -0.8363
  500MOL0     H67487   1.599   7.319   8.035  0.6733 -0.2112  1.8591
  500MOL0     H67488   1.897   7.466   8.271  0.9034  2.5967  0.7671
  500MOL0     H67489   2.126   7.456   8.346 -0.6902 -0.8088 -1.5174
  500MOL0     H67490   2.245   7.563   8.701 -0.9135  0.2330 -0.0908
  500MOL0     H67491   2.137   7.450   8.777  1.4271  0.9767  0.5006
  500MOL0     H67492   2.309   7.289   8.802  0.1176  1.0425  0.0915
  500MOL0     H67493   2.341   7.441   8.892  1.7935 -0.5152  0.0969
  500MOL0     H67494   2.479   7.510   8.673  3.2677 -0.1596 -0.5124
  500MOL0     H67495   2.470   7.344   8.617  0.3646  1.7029 -0.1574
  500MOL0     H67496   2.607   7.281   8.813 -2.1268 -1.1597 -1.5866
  500MOL0     H67497   2.571   7.428   8.881 -0.4031 -0.0339  0.3382
  500MOL0     H67498   2.899   7.516   8.610  0.5275  1.1269 -0.0727
  500MOL0     H67499   2.020   7.297   8.715  2.0098  1.4547 -0.2125
  500MOL0     H67500   1.765   7.297   8.641 -0.6127 -1.8339 -0.4708
  501MOL0     O67501   7.731   6.091   4.411 -0.3723 -0.7714 -0.1657
  501MOL0     C67502   7.760   5.998   4.490 -0.2572 -0.5555  0.0739
  501MOL0     O67503   7.672   5.934   4.576 -0.3502  0.3125  0.2107
  501MOL0     C67504   7.540   5.965   4.578  0.4615  0.1553 -0.8291
  501MOL0     C67505   7.445   5.864   4.575 -0.5843 -0.5335 -0.4352
  501MOL0     C67506   7.310   5.893   4.572  0.2522  0.0144  0.2945
  501MOL0     C67507   7.258   6.029   4.570 -1.3784 -0.3672 -0.0650
  501MOL0     O67508   7.128   6.050   4.557  0.3265 -0.8628 -0.0361
  501MOL0     C67509   7.079   6.183   4.529  1.0540 -0.4811 -0.1706
  501MOL0     C67510   6.934   6.196   4.533  0.6272 -0.7441 -0.2463
  501MOL0     C67511   6.894   6.326   4.464  0.3779 -0.4166 -0.1484
  501MOL0     C67512   6.745   6.339   4.486 -0.3474 -0.0793 -0.2651
  501MOL0     C67513   6.706   6.484   4.449 -0.2803  0.1936  0.6857
  501MOL0     C67514   6.559   6.480   4.431 -0.5640 -0.5891  0.4763
  501MOL0     C67515   6.494   6.619   4.407  0.5066 -0.5139  0.4113
  501MOL0     C67516   6.525   6.666   4.265 -0.0364 -0.1640  0.4989
  501MOL0     N67517   6.459   6.794   4.231  0.4679  0.0941  0.0123
  501MOL0     C67518   6.514   6.915   4.215 -0.0432 -0.4608 -0.1677
  501MOL0     C67519   6.409   7.007   4.205  0.5383 -0.3622  0.3507
  501MOL0     C67520   6.414   7.158   4.207 -0.1328 -0.0762 -0.1156
  501MOL0     C67521   6.279   7.218   4.244 -0.4804  0.0791 -0.9512
  501MOL0     C67522   6.296   7.376   4.243 -0.2638  0.6528 -0.2872
  501MOL0     C67523   6.164   7.439   4.298  0.2756  0.4456 -0.4217
  501MOL0     O67524   6.172   7.579   4.288 -0.3801 -0.0184 -0.4605
  501MOL0     C67525   6.063   7.657   4.289  0.1877  0.3524  0.1790
  501MOL0     C67526   6.087   7.788   4.267 -0.4424  0.2409  0.7109
  501MOL0     C67527   5.990   7.883   4.266 -0.1437  0.0092  0.0259
  501MOL0     C67528   6.037   8.021   4.236 -0.0610  0.2597 -0.0739
  501MOL0     C67529   5.858   7.844   4.287  0.4631  0.0689  0.7409
  501MOL0     C67530   5.744   7.943   4.286  0.2424  0.6348  0.1282
  501MOL0     O67531   5.628   7.902   4.341 -0.1279 -0.3246 -0.0632
  501MOL0     C67532   5.513   7.979   4.346 -0.4810  0.6685  0.2640
  501MOL0     C67533   5.424   7.954   4.451 -0.5064 -0.4265  0.3193
  501MOL0     C67534   5.298   8.009   4.449 -0.9020 -0.3797 -0.2635
  501MOL0     C67535   5.251   8.089   4.342 -0.1822  0.1407 -0.0834
  501MOL0     O67536   5.131   8.142   4.361 -0.4830  0.6612  0.0398
  501MOL0     C67537   5.066   8.215   4.255 -0.2597 -0.2550 -0.1261
  501MOL0     C67538   4.932   8.250   4.314  0.2258  1.1700 -0.8113
  501MOL0     C67539   4.840   8.309   4.206 -0.3670 -0.8526  0.4566
  501MOL0     C67540   4.883   8.452   4.152 -0.1676 -0.5692 -0.5398
  501MOL0     C67541   4.774   8.504   4.056 -0.1689  0.3642 -0.4255
  501MOL0     C67542   4.828   8.630   3.990 -0.2041  0.1633 -0.0754
  501MOL0     C67543   4.856   8.748   4.084  0.1420  0.3318 -0.1641
  501MOL0     C67544   4.888   8.880   4.015 -0.1630  0.2173 -0.7632
  501MOL0    Cl67545   4.923   9.007   4.133  0.2823  0.5685  0.3684
  501MOL0     C67546   5.336   8.123   4.238 -0.0940 -0.4120  0.4400
  501MOL0     C67547   5.468   8.063   4.243 -1.0144 -0.0339  0.4231
  501MOL0     O67548   5.762   8.054   4.237 -0.0541 -0.0053 -0.6614
  501MOL0     C67549   5.830   7.716   4.319  0.2719 -0.5082  0.9889
  501MOL0     C67550   5.934   7.621   4.313  0.2876  0.2916  0.2211
  501MOL0     N67551   6.296   6.930   4.196  0.6095  0.4709  0.7112
  501MOL0     N67552   6.322   6.813   4.216  0.0829  1.1260  0.0832
  501MOL0     C67553   7.352   6.124   4.576 -0.5481 -0.2932  0.6740
  501MOL0     C67554   7.487   6.093   4.574 -0.5921  0.7055  0.1664
  501MOL0     C67555   7.902   5.956   4.500 -0.0765  0.7742 -0.2425
  501MOL0     C67556   8.005   6.005   4.417 -1.0018 -0.0699  0.9070
  501MOL0     C67557   8.137   5.947   4.414  1.0577  1.1497  0.6289
  501MOL0     C67558   8.169   5.845   4.506 -0.1963 -0.6208 -0.7369
  501MOL0     O67559   8.294   5.789   4.494 -0.0075  0.1930 -0.8491
  501MOL0     C67560   8.331   5.669   4.564 -0.4570 -0.0360  0.4501
  501MOL0     C67561   8.477   5.646   4.528  0.4323  0.0882  0.4103
  501MOL0     C67562   8.571   5.772   4.560  0.1052  0.0963 -1.2014
  501MOL0     C67563   8.724   5.730   4.553  0.5363 -1.4292  0.7955
  501MOL0     C67564   8.759   5.599   4.611 -0.3274  0.0667  0.4400
  501MOL0     C67565   8.778   5.493   4.669 -0.4871 -0.5122 -0.6455
  501MOL0     C67566   8.069   5.804   4.597  0.2102 -0.1193  0.8429
  501MOL0     C67567   7.937   5.859   4.595 -0.0428  0.3173  0.2149
  501MOL0     H67568   7.468   5.758   4.575  0.1590 -0.3788  0.6519
  501MOL0     H67569   7.236   5.814   4.581 -0.9735  1.1528  0.5651
  501MOL0     H67570   7.109   6.251   4.609  1.7253 -0.4098 -0.4807
  501MOL0     H67571   7.120   6.220   4.435  2.4061  0.0192  0.5787
  501MOL0     H67572   6.887   6.120   4.470 -0.9347 -0.7836  0.9105
  501MOL0     H67573   6.902   6.176   4.635  1.7988  0.8411  0.4588
  501MOL0     H67574   6.939   6.419   4.500  0.2493 -0.3489 -0.1645
  501MOL0     H67575   6.926   6.306   4.361 -2.2575 -0.1398 -1.0780
  501MOL0     H67576   6.696   6.269   4.418  1.5973 -0.9891 -0.8162
  501MOL0     H67577   6.708   6.314   4.585 -1.4242  0.9559 -0.3758
  501MOL0     H67578   6.731   6.558   4.525  3.1340  0.0258 -0.1142
  501MOL0     H67579   6.761   6.518   4.361 -1.4032 -0.6204 -0.3668
  501MOL0     H67580   6.539   6.416   4.344  1.1881  1.2389 -1.4114
  501MOL0     H67581   6.508   6.436   4.517 -0.0330 -1.4632  0.3567
  501MOL0     H67582   6.385   6.611   4.415  0.3926  0.4749  0.0077
  501MOL0     H67583   6.531   6.689   4.483 -1.2655  2.6223 -1.4108
  501MOL0     H67584   6.488   6.589   4.197  0.2446  1.4143 -1.5067
  501MOL0     H67585   6.633   6.672   4.252 -0.1031 -0.9456 -0.4934
  501MOL0     H67586   6.622   6.927   4.222 -0.0147  0.2957 -1.5890
  501MOL0     H67587   6.490   7.194   4.276 -0.2155  0.5635 -0.3520
  501MOL0     H67588   6.445   7.194   4.108  0.7313 -0.5226 -0.0121
  501MOL0     H67589   6.253   7.186   4.345  0.7070 -3.2948 -1.5901
  501MOL0     H67590   6.196   7.195   4.177 -0.3559 -0.0827 -1.0523
  501MOL0     H67591   6.312   7.407   4.139 -1.2234 -1.3352 -1.0812
  501MOL0     H67592   6.381   7.407   4.304  0.9241 -0.1127 -1.5045
  501MOL0     H67593   6.154   7.410   4.402  0.1777 -0.2614 -0.6251
  501MOL0     H67594   6.076   7.392   4.252 -0.1920  0.3649  0.5225
  501MOL0     H67595   6.190   7.821   4.271 -0.0544 -0.6669 -1.0183
  501MOL0     H67596   6.139   8.037   4.273 -0.3727 -1.2281  1.5829
  501MOL0     H67597   6.045   8.022   4.127  0.0591  1.3485 -0.0625
  501MOL0     H67598   5.984   8.111   4.265  1.7387  1.1787  0.5300
  501MOL0     H67599   5.449   7.880   4.526 -0.5000 -0.0771  0.6667
  501MOL0     H67600   5.227   7.986   4.528  0.0688  0.2886  0.8462
  501MOL0     H67601   5.124   8.306   4.240  0.2207 -0.5142  0.1168
  501MOL0     H67602   5.062   8.163   4.158 -0.2130  0.4490 -0.5102
  501MOL0     H67603   4.896   8.153   4.350  0.7703  0.4119 -2.2427
  501MOL0     H67604   4.963   8.317   4.395  1.2493  0.5483 -0.6628
  501MOL0     H67605   4.743   8.322   4.253 -0.3111  1.6618 -0.0263
  501MOL0     H67606   4.833   8.252   4.112  0.9178  1.5489 -1.2156
  501MOL0     H67607   4.897   8.532   4.225  1.7727  0.3776 -1.8670
  501MOL0     H67608   4.977   8.441   4.096  1.3708  1.0686  1.5224
  501MOL0     H67609   4.679   8.517   4.109  1.3626 -1.0294  2.9204
  501MOL0     H67610   4.761   8.430   3.976  2.5679 -0.8511  0.1450
  501MOL0     H67611   4.921   8.608   3.937  0.2401 -0.4315  0.9381
  501MOL0     H67612   4.759   8.660   3.910  1.5008 -0.0768 -1.7018
  501MOL0     H67613   4.939   8.728   4.152 -2.3419  0.7854  3.3382
  501MOL0     H67614   4.768   8.763   4.148  0.0702  0.4181 -0.2828
  501MOL0     H67615   4.797   8.909   3.961 -0.5043 -2.0928 -1.5482
  501MOL0     H67616   4.974   8.882   3.947  1.5577 -2.2475  1.1507
  501MOL0     H67617   5.304   8.201   4.171 -2.2796 -1.2039  0.4678
  501MOL0     H67618   5.531   8.083   4.156  1.9526 -1.6771  2.0490
  501MOL0     H67619   5.725   7.688   4.331  0.0330 -0.3358 -0.4569
  501MOL0     H67620   5.922   7.516   4.335 -0.6834 -0.0001 -1.5536
  501MOL0     H67621   7.327   6.230   4.580  0.6889 -0.0009  1.3899
  501MOL0     H67622   7.566   6.168   4.569 -0.1104  0.1413 -4.2319
  501MOL0     H67623   7.974   6.075   4.341  2.7458 -0.5473 -1.2849
  501MOL0     H67624   8.214   5.980   4.345  0.9736 -1.2485 -0.7271
  501MOL0     H67625   8.325   5.692   4.671  1.9467  2.3174  0.1928
  501MOL0     H67626   8.268   5.586   4.531  0.8516 -0.9449  0.1831
  501MOL0     H67627   8.472   5.633   4.420 -1.1023 -0.7607  0.5625
  501MOL0     H67628   8.514   5.558   4.581  0.7522  0.0421  0.1116
  501MOL0     H67629   8.540   5.802   4.661 -1.9066 -1.0745 -1.4307
  501MOL0     H67630   8.541   5.857   4.498  1.8951  1.5163 -0.2282
  501MOL0     H67631   8.782   5.811   4.598 -1.8336  0.8671 -0.0537
  501MOL0     H67632   8.746   5.731   4.446  1.9054  0.0268  1.0463
  501MOL0     H67633   8.800   5.398   4.714  0.6583  0.3948  0.7948
  501MOL0     H67634   8.084   5.733   4.677 -0.4939  0.9079  1.9209
  501MOL0     H67635   7.867   5.814   4.664  1.0406  0.6888  1.6229
  502MOL0     O67636   0.369  10.349   9.533  0.8621 -0.1482  0.1340
  502MOL0     C67637   0.429  10.317   9.630  0.3200  0.0550 -0.4395
  502MOL0     O67638   0.389  10.238   9.727  0.1380 -0.0954  0.1238
  502MOL0     C67639   0.261  10.211   9.753 -1.1666 -0.6483 -0.0483
  502MOL0     C67640   0.244  10.087   9.819  0.5247 -0.4785  0.0921
  502MOL0     C67641   0.108  10.040   9.827 -0.6294  1.1289  0.5427
  502MOL0     C67642  -0.006  10.111   9.786 -1.0241 -0.2499 -0.0208
  502MOL0     O67643  -0.137  10.065   9.809 -0.1504 -0.7859  0.3305
  502MOL0     C67644  -0.164  10.020   9.940  0.5953  0.4972  0.2853
  502MOL0     C67645  -0.317  10.061   9.964  0.0801  0.1536 -0.0434
  502MOL0     C67646  -0.416  10.003   9.858 -0.5360  0.0136  0.7815
  502MOL0     C67647  -0.558  10.036   9.896 -0.4130  0.2247 -0.1686
  502MOL0     C67648  -0.662   9.982   9.794 -0.1645 -0.5336 -0.6733
  502MOL0     C67649  -0.799  10.028   9.846  1.0460 -0.1587  0.0236
  502MOL0     C67650  -0.924   9.981   9.767 -0.9719 -0.1791  0.5225
  502MOL0     C67651  -1.061  10.012   9.836 -0.0430 -0.5909  0.0099
  502MOL0     N67652  -1.171   9.991   9.738  0.4018 -0.7349 -0.4953
  502MOL0     C67653  -1.301   9.966   9.780  0.7530 -0.2732  0.2807
  502MOL0     C67654  -1.367   9.939   9.666 -0.2346  0.5498 -0.4145
  502MOL0     C67655  -1.515   9.919   9.657  0.2512 -0.0476  0.5225
  502MOL0     C67656  -1.573   9.787   9.712 -0.2654 -0.4169  0.0286
  502MOL0     C67657  -1.725   9.764   9.668  0.8836 -0.5455  0.3187
  502MOL0     C67658  -1.820   9.870   9.726 -0.4763  0.4725 -0.5637
  502MOL0     O67659  -1.953   9.849   9.687  0.3293  0.2986 -0.1220
  502MOL0     C67660  -2.062   9.922   9.744  0.4214  0.0731 -0.1608
  502MOL0     C67661  -2.073  10.060   9.744  0.0971 -0.0523  0.7246
  502MOL0     C67662  -2.184  10.126   9.803  0.3307 -0.2331  1.2050
  502MOL0     C67663  -2.197  10.278   9.773  0.9989  0.0543 -0.3747
  502MOL0     C67664  -2.279  10.045   9.875 -0.2996  0.5042 -0.4832
  502MOL0     C67665  -2.407  10.094   9.930  0.9586  0.0575 -0.6141
  502MOL0     O67666  -2.518  10.008   9.945  0.6189 -0.2351 -0.2743
  502MOL0     C67667  -2.638  10.063   9.984 -0.6671 -0.5900  1.2012
  502MOL0     C67668  -2.674  10.041  10.115 -0.7781 -0.2389 -0.2047
  502MOL0     C67669  -2.798  10.097  10.155 -0.2096 -0.5532 -0.0378
  502MOL0     C67670  -2.889  10.170  10.070 -1.2678 -0.0635 -0.6122
  502MOL0     O67671  -3.005  10.226  10.117  0.1150  0.3239 -0.1417
  502MOL0     C67672  -3.076  10.323  10.050  1.0103 -0.2051 -0.4799
  502MOL0     C67673  -3.193  10.382  10.144 -0.2368 -0.2880  0.2558
  502MOL0     C67674  -3.157  10.428  10.281  0.4195  0.1228 -0.1580
  502MOL0     C67675  -3.280  10.498  10.357 -0.5188  0.1275 -0.4906
  502MOL0     C67676  -3.238  10.546  10.501  0.1832 -0.5234 -0.3825
  502MOL0     C67677  -3.320  10.665  10.557 -0.1554  0.6298  0.3764
  502MOL0     C67678  -3.466  10.626  10.565  1.1145  1.4340 -0.2681
  502MOL0     C67679  -3.556  10.736  10.608  0.5371 -0.4607 -0.1900
  502MOL0    Cl67680  -3.728  10.676  10.624  0.0968  0.0572 -0.4020
  502MOL0     C67681  -2.845  10.189   9.940 -0.2749 -0.6641 -1.6138
  502MOL0     C67682  -2.718  10.142   9.894  0.1450 -0.9005 -0.3380
  502MOL0     O67683  -2.417  10.213   9.965 -0.9967  0.1113 -0.5049
  502MOL0     C67684  -2.255   9.902   9.890 -0.3505 -0.3214 -0.9930
  502MOL0     C67685  -2.143   9.845   9.824  0.0160  0.0458 -0.4321
  502MOL0     N67686  -1.283   9.944   9.567  0.5135 -0.2625  0.3017
  502MOL0     N67687  -1.158   9.970   9.607  0.2252  0.6532  0.5740
  502MOL0     C67688   0.019  10.235   9.729  0.5265  0.2828  0.4645
  502MOL0     C67689   0.149  10.289   9.714 -0.0685  0.5464 -0.0105
  502MOL0     C67690   0.569  10.369   9.634 -0.1895  1.2942 -0.1669
  502MOL0     C67691   0.669  10.320   9.719 -0.2397  0.4287  0.4207
  502MOL0     C67692   0.792  10.385   9.728  0.4306 -0.2878  0.1518
  502MOL0     C67693   0.829  10.485   9.637  0.0240 -0.0945  0.3706
  502MOL0     O67694   0.959  10.532   9.626  0.4699 -0.0252 -0.0381
  502MOL0     C67695   0.986  10.655   9.557  0.3483 -0.1431 -0.0242
  502MOL0     C67696   1.123  10.727   9.590 -0.1968 -0.3001  0.5972
  502MOL0     C67697   1.144  10.871   9.526  0.2888  0.5788 -0.0226
  502MOL0     C67698   1.046  10.974   9.582 -0.1097  0.3769 -0.6271
  502MOL0     C67699   1.076  11.021   9.718  0.1038  0.1190  0.4244
  502MOL0     C67700   1.107  11.047   9.837 -0.1292  1.1344 -0.2090
  502MOL0     C67701   0.729  10.535   9.555 -0.2630 -0.4964 -0.7114
  502MOL0     C67702   0.601  10.478   9.551 -0.1519 -0.2964 -0.1005
  502MOL0     H67703   0.331  10.033   9.855  0.9002 -0.3648 -0.6261
  502MOL0     H67704   0.094   9.939   9.865 -3.9202  1.0293 -0.6084
  502MOL0     H67705  -0.160   9.911   9.943 -1.0932  0.3150 -1.6500
  502MOL0     H67706  -0.104  10.063  10.021  0.9542 -0.2860  0.4411
  502MOL0     H67707  -0.343  10.020  10.062  0.3950 -0.2261 -0.1162
  502MOL0     H67708  -0.325  10.170   9.962  0.4573  0.2063 -3.3706
  502MOL0     H67709  -0.381  10.040   9.761  2.5067 -1.4623  1.1912
  502MOL0     H67710  -0.404   9.894   9.857  0.3801  0.1057 -0.2587
  502MOL0     H67711  -0.575  10.005  10.000 -2.2344 -1.8241 -1.0143
  502MOL0     H67712  -0.573  10.144   9.903  0.4150  0.2984  0.8186
  502MOL0     H67713  -0.649  10.025   9.694  2.9569 -1.2974 -0.6951
  502MOL0     H67714  -0.652   9.874   9.789 -1.6465 -0.7396  0.1835
  502MOL0     H67715  -0.822   9.984   9.943 -1.8685  2.3466  0.6306
  502MOL0     H67716  -0.803  10.136   9.867  1.1893 -0.4586  1.7595
  502MOL0     H67717  -0.923  10.023   9.666  0.2415 -2.1301 -0.3305
  502MOL0     H67718  -0.913   9.875   9.743  1.5618  0.1953 -0.3410
  502MOL0     H67719  -1.062  10.115   9.873 -1.4713 -1.1241  1.6161
  502MOL0     H67720  -1.088   9.958   9.927 -0.8944  1.2165  0.8826
  502MOL0     H67721  -1.343   9.967   9.880 -0.3497  0.2147 -0.1688
  502MOL0     H67722  -1.559  10.010   9.699  0.5869  1.1749 -1.6052
  502MOL0     H67723  -1.542   9.911   9.551  0.9278  0.2006  0.3230
  502MOL0     H67724  -1.567   9.787   9.821  0.4769 -0.4521 -0.0041
  502MOL0     H67725  -1.508   9.708   9.672 -0.2887 -0.3080 -0.2311
  502MOL0     H67726  -1.744   9.659   9.691 -0.8469 -0.7861 -1.8524
  502MOL0     H67727  -1.738   9.774   9.560 -2.1608 -0.5830  0.5849
  502MOL0     H67728  -1.782   9.970   9.704 -1.0254  1.1666  1.4433
  502MOL0     H67729  -1.827   9.863   9.835  0.4345  1.8415 -0.3958
  502MOL0     H67730  -1.998  10.120   9.694  0.6741  0.1750  1.8148
  502MOL0     H67731  -2.155  10.330   9.860  0.2165 -3.1280  2.1236
  502MOL0     H67732  -2.148  10.310   9.680 -0.0904  3.0502 -0.0255
  502MOL0     H67733  -2.301  10.311   9.768  0.8763  0.3721  2.5201
  502MOL0     H67734  -2.615   9.999  10.196 -0.9976  1.8731  1.1212
  502MOL0     H67735  -2.820  10.106  10.261 -0.0561  2.8890 -0.1668
  502MOL0     H67736  -3.003  10.401  10.025  1.5213  0.4616  2.7607
  502MOL0     H67737  -3.109  10.286   9.952 -0.3436  1.0387 -0.5171
  502MOL0     H67738  -3.246  10.462  10.090 -1.1070  0.1403  1.7046
  502MOL0     H67739  -3.269  10.304  10.153 -1.2244 -0.0049 -3.6230
  502MOL0     H67740  -3.074  10.499  10.273  0.3524  0.2674  0.3612
  502MOL0     H67741  -3.122  10.342  10.339  2.4377  1.5868  0.9528
  502MOL0     H67742  -3.311  10.581  10.293  0.2312  2.9593  2.5906
  502MOL0     H67743  -3.362  10.426  10.365 -0.8675  0.7537  2.6259
  502MOL0     H67744  -3.139  10.591  10.496  0.5149 -1.2689 -4.3330
  502MOL0     H67745  -3.242  10.464  10.572 -0.0827  2.1283  2.9011
  502MOL0     H67746  -3.280  10.681  10.657 -3.3476  0.2375  1.8349
  502MOL0     H67747  -3.310  10.757  10.499  1.3836  0.5271  0.4357
  502MOL0     H67748  -3.480  10.536  10.626  0.9195  3.4425  2.8345
  502MOL0     H67749  -3.503  10.607  10.463  0.3439  3.0595 -0.3219
  502MOL0     H67750  -3.556  10.815  10.532 -0.1171 -1.2044 -0.9814
  502MOL0     H67751  -3.523  10.780  10.703 -0.6922 -1.7131  0.8663
  502MOL0     H67752  -2.901  10.254   9.874  0.8660 -0.2520 -2.2088
  502MOL0     H67753  -2.690  10.167   9.792 -1.5279  1.1236 -0.3701
  502MOL0     H67754  -2.316   9.853   9.965 -0.1545 -0.2091 -0.7590
  502MOL0     H67755  -2.129   9.737   9.825 -1.0056 -0.1169  1.6999
  502MOL0     H67756  -0.073  10.286   9.703  0.6777 -0.0163 -0.6808
  502MOL0     H67757   0.170  10.391   9.682 -1.3304  0.8335  0.0157
  502MOL0     H67758   0.655  10.243   9.794 -0.9563  0.0048 -0.1351
  502MOL0     H67759   0.868  10.359   9.802 -0.9334 -0.3331  1.5942
  502MOL0     H67760   0.975  10.640   9.449 -1.3688 -0.4595  0.1642
  502MOL0     H67761   0.912  10.729   9.590 -0.2772 -1.2376  1.1147
  502MOL0     H67762   1.207  10.667   9.555 -0.4008 -1.4858  2.0500
  502MOL0     H67763   1.116  10.737   9.699 -0.6104 -0.8275  0.6226
  502MOL0     H67764   1.113  10.862   9.421  2.1272 -2.8066 -0.4299
  502MOL0     H67765   1.247  10.901   9.544  1.7503 -4.2986  1.3211
  502MOL0     H67766   0.942  10.938   9.590 -0.4028  1.1413 -0.8868
  502MOL0     H67767   1.039  11.058   9.512 -3.3734 -0.6303 -1.6973
  502MOL0     H67768   1.114  11.062   9.943  0.5702  2.4264 -0.4207
  502MOL0     H67769   0.751  10.613   9.483 -0.9421  0.1500 -0.2440
  502MOL0     H67770   0.529  10.530   9.488  0.2371  0.1439 -0.1859
  503MOL0     O67771   2.992   2.601   1.037  0.0434  0.5393 -0.1075
  503MOL0     C67772   2.909   2.513   1.012 -0.3665 -0.2462 -0.1878
  503MOL0     O67773   2.779   2.515   1.053  0.6128  0.2429  0.1577
  503MOL0     C67774   2.737   2.603   1.147  0.0811  0.0765 -0.1518
  503MOL0     C67775   2.704   2.562   1.278  0.7219 -0.4534  0.7991
  503MOL0     C67776   2.646   2.656   1.365 -0.2368  0.0389 -0.0171
  503MOL0     C67777   2.638   2.794   1.326  0.2828 -0.0998 -0.2364
  503MOL0     O67778   2.592   2.895   1.412  0.2473  0.7229  0.5048
  503MOL0     C67779   2.556   2.862   1.545 -0.6357 -0.2751  0.0822
  503MOL0     C67780   2.497   2.995   1.600 -1.1377  0.7212 -0.6544
  503MOL0     C67781   2.423   2.975   1.727 -0.4183  0.2511  0.0953
  503MOL0     C67782   2.355   3.115   1.757 -0.0549 -0.2373 -1.3659
  503MOL0     C67783   2.288   3.111   1.897 -0.6955  0.4711  0.4897
  503MOL0     C67784   2.183   3.214   1.897  0.2436 -0.6383  0.2914
  503MOL0     C67785   2.121   3.215   2.037 -0.2445  0.1850 -0.5937
  503MOL0     C67786   2.052   3.344   2.064  0.3927  0.3571  0.8595
  503MOL0     N67787   1.916   3.339   2.004 -0.4713  0.6428  0.0942
  503MOL0     C67788   1.880   3.385   1.874  0.9361  0.1836 -1.3361
  503MOL0     C67789   1.749   3.349   1.865  0.0217  0.1315  0.0588
  503MOL0     C67790   1.677   3.363   1.734  0.1400  0.3922 -0.0928
  503MOL0     C67791   1.675   3.502   1.678 -0.0209 -0.6050 -0.3233
  503MOL0     C67792   1.616   3.610   1.761 -0.2400  0.3940  1.0220
  503MOL0     C67793   1.463   3.593   1.755  0.7960 -0.5613  0.1368
  503MOL0     O67794   1.420   3.618   1.619 -0.3000 -0.1857  0.0300
  503MOL0     C67795   1.283   3.633   1.595  0.1440  0.7598  0.3105
  503MOL0     C67796   1.244   3.702   1.473 -0.0939  0.4379 -0.6269
  503MOL0     C67797   1.104   3.724   1.438 -0.5647  0.4310  0.1354
  503MOL0     C67798   1.101   3.826   1.329  0.1675 -0.1153  0.4979
  503MOL0     C67799   1.002   3.674   1.523 -0.0915  0.5399 -0.7506
  503MOL0     C67800   0.854   3.688   1.500 -0.2670  0.4144 -0.0843
  503MOL0     O67801   0.778   3.656   1.610  0.2718 -0.3249  0.1559
  503MOL0     C67802   0.640   3.690   1.616 -0.8088  0.1971 -0.6093
  503MOL0     C67803   0.581   3.681   1.742  0.3669 -0.3316 -0.0650
  503MOL0     C67804   0.442   3.693   1.758 -0.4931 -0.2473 -0.6811
  503MOL0     C67805   0.357   3.703   1.646  0.7439  0.6668  0.1680
  503MOL0     O67806   0.225   3.695   1.673  0.5917  0.2717  0.2416
  503MOL0     C67807   0.136   3.659   1.569 -0.2138  0.3963 -0.5598
  503MOL0     C67808   0.013   3.623   1.633 -0.0119  0.0106 -0.2452
  503MOL0     C67809  -0.065   3.539   1.535  0.1695 -0.5864  0.3143
  503MOL0     C67810  -0.128   3.604   1.417  0.4877 -0.1292  0.1051
  503MOL0     C67811  -0.261   3.653   1.464 -0.1930 -0.2312  0.0497
  503MOL0     C67812  -0.330   3.752   1.366 -0.2456 -0.0427  0.3868
  503MOL0     C67813  -0.371   3.690   1.230  0.4856 -0.0272 -0.1611
  503MOL0     C67814  -0.421   3.789   1.133 -0.5175  0.0492  0.5027
  503MOL0    Cl67815  -0.308   3.904   1.064  0.2829  0.0819  0.0179
  503MOL0     C67816   0.417   3.706   1.516 -0.2931 -0.0516 -0.0576
  503MOL0     C67817   0.554   3.695   1.506  0.6486 -0.5691 -0.0216
  503MOL0     O67818   0.817   3.712   1.388 -0.2548 -0.1227  0.3058
  503MOL0     C67819   1.040   3.621   1.648 -0.8038  0.3168  0.1196
  503MOL0     C67820   1.174   3.590   1.678 -0.1890 -0.7973 -1.0915
  503MOL0     N67821   1.702   3.286   1.988  0.0392 -0.1677  1.0798
  503MOL0     N67822   1.803   3.286   2.069  0.4693 -0.5545  0.5730
  503MOL0     C67823   2.678   2.836   1.208 -0.1149  0.2793 -0.0587
  503MOL0     C67824   2.735   2.744   1.116  0.6173  0.0694  0.2379
  503MOL0     C67825   2.931   2.408   0.909 -0.4660 -0.0045 -0.5154
  503MOL0     C67826   2.852   2.292   0.890 -0.1764  0.7825  0.5234
  503MOL0     C67827   2.888   2.198   0.795  0.3461 -0.1035  0.5070
  503MOL0     C67828   2.999   2.205   0.715 -0.2878 -0.5111 -0.3228
  503MOL0     O67829   3.032   2.116   0.609  0.5815  0.1229 -0.3135
  503MOL0     C67830   2.941   2.018   0.559  0.5861 -0.3681 -0.5908
  503MOL0     C67831   2.959   2.008   0.408  0.0285 -0.8852 -0.3772
  503MOL0     C67832   2.866   1.896   0.364  0.0080 -0.1771 -0.3496
  503MOL0     C67833   2.867   1.889   0.210 -0.4634 -0.7813  0.6362
  503MOL0     C67834   2.980   1.809   0.170 -0.6625 -0.0720 -0.8288
  503MOL0     C67835   3.076   1.734   0.146  0.9867  0.5365  0.7161
  503MOL0     C67836   3.087   2.304   0.744  0.6566 -0.6154  0.8496
  503MOL0     C67837   3.052   2.401   0.841  0.5071 -0.1383  0.0075
  503MOL0     H67838   2.706   2.458   1.309  0.8294  0.5141  4.5685
  503MOL0     H67839   2.614   2.601   1.453  1.6658 -1.4059 -0.1537
  503MOL0     H67840   2.484   2.780   1.548 -1.1421  0.1888  0.6528
  503MOL0     H67841   2.645   2.841   1.606 -2.2011 -1.8088  1.9305
  503MOL0     H67842   2.582   3.062   1.614  0.3605 -0.9577 -1.2841
  503MOL0     H67843   2.424   3.038   1.531 -0.9706  0.7805 -0.7928
  503MOL0     H67844   2.348   2.896   1.714 -1.2912  1.2749 -1.5700
  503MOL0     H67845   2.498   2.943   1.799 -0.4798 -0.1769 -0.0290
  503MOL0     H67846   2.429   3.196   1.757  1.9088 -1.9315 -1.0526
  503MOL0     H67847   2.281   3.142   1.681 -1.1300  0.0799 -0.2339
  503MOL0     H67848   2.244   3.011   1.901 -0.8674  0.3169 -2.7421
  503MOL0     H67849   2.361   3.137   1.974 -2.6018  1.4688  2.0557
  503MOL0     H67850   2.222   3.308   1.857 -0.7170 -0.5304 -0.4352
  503MOL0     H67851   2.106   3.188   1.824  1.0528  1.5971 -1.4824
  503MOL0     H67852   2.051   3.132   2.049  2.9827 -3.0652 -2.2309
  503MOL0     H67853   2.203   3.208   2.110  0.3560 -0.6036 -1.3288
  503MOL0     H67854   2.099   3.440   2.041 -2.7350  1.5754 -1.0109
  503MOL0     H67855   2.047   3.342   2.173  1.2021  0.4939  0.9115
  503MOL0     H67856   1.929   3.441   1.795 -0.5501  0.5720 -2.0385
  503MOL0     H67857   1.724   3.292   1.665 -2.8136 -1.4507 -0.4075
  503MOL0     H67858   1.577   3.324   1.755  0.9999 -1.4400  0.8307
  503MOL0     H67859   1.623   3.503   1.583 -0.7299  2.6214 -0.0113
  503MOL0     H67860   1.775   3.521   1.637  0.1459 -4.8849 -2.4567
  503MOL0     H67861   1.648   3.705   1.715 -0.9070 -0.4673 -1.3764
  503MOL0     H67862   1.648   3.612   1.865 -0.5042  0.9000  1.0979
  503MOL0     H67863   1.412   3.671   1.812 -0.3158 -2.8561  2.4876
  503MOL0     H67864   1.443   3.494   1.798  1.6870 -2.0142 -2.5080
  503MOL0     H67865   1.325   3.733   1.408 -1.6676  0.4890 -2.6524
  503MOL0     H67866   1.158   3.915   1.355  2.9664 -1.6179 -0.1474
  503MOL0     H67867   1.142   3.784   1.237 -1.4038 -1.1770  0.2313
  503MOL0     H67868   0.995   3.850   1.318  0.5505  0.6263 -2.2837
  503MOL0     H67869   0.640   3.650   1.827 -0.3594  0.2991  0.6879
  503MOL0     H67870   0.400   3.688   1.858 -1.8057  1.5654 -1.0764
  503MOL0     H67871   0.125   3.738   1.494 -1.7718 -0.0916 -0.8731
  503MOL0     H67872   0.177   3.574   1.513  0.2813  0.6112 -0.5322
  503MOL0     H67873   0.027   3.547   1.711 -1.2996 -0.5828 -0.5537
  503MOL0     H67874  -0.038   3.712   1.671 -3.0236  0.4855 -4.5427
  503MOL0     H67875  -0.155   3.494   1.579  0.3219 -1.0598  0.1567
  503MOL0     H67876  -0.004   3.450   1.514  4.0340  1.7534  0.6994
  503MOL0     H67877  -0.064   3.689   1.392  3.2857 -1.2300  2.8660
  503MOL0     H67878  -0.129   3.521   1.346  1.1293 -0.1437  0.1137
  503MOL0     H67879  -0.250   3.699   1.563  1.1170 -2.2387  0.8984
  503MOL0     H67880  -0.332   3.573   1.485 -0.1807 -0.2330  0.0829
  503MOL0     H67881  -0.421   3.796   1.407  1.3586  2.1349  1.8033
  503MOL0     H67882  -0.263   3.835   1.338  0.5481 -0.5789  0.6877
  503MOL0     H67883  -0.461   3.633   1.254  0.1189 -0.7276 -2.8665
  503MOL0     H67884  -0.297   3.631   1.174 -1.1991 -1.4259 -1.0068
  503MOL0     H67885  -0.499   3.839   1.190  0.0322  3.6184 -1.5809
  503MOL0     H67886  -0.469   3.744   1.045 -0.3362  0.9142 -0.0476
  503MOL0     H67887   0.358   3.681   1.428  0.3542 -0.3070 -0.4293
  503MOL0     H67888   0.588   3.694   1.403 -1.1075 -1.3328 -0.6391
  503MOL0     H67889   0.972   3.592   1.727 -0.0274  0.3208  0.7931
  503MOL0     H67890   1.204   3.525   1.760  0.3479  1.2102  0.3633
  503MOL0     H67891   2.691   2.941   1.182  2.7402  0.4273  1.4996
  503MOL0     H67892   2.765   2.783   1.019 -0.7137 -0.9653 -0.6159
  503MOL0     H67893   2.769   2.267   0.955  1.5029 -1.2721  2.0317
  503MOL0     H67894   2.810   2.127   0.771  2.8234 -1.9005 -3.0834
  503MOL0     H67895   2.968   1.922   0.605  0.2683 -0.8263 -1.3356
  503MOL0     H67896   2.837   2.045   0.581  1.5805  0.7962  3.4476
  503MOL0     H67897   3.065   2.009   0.382  0.5866 -1.6690  1.6705
  503MOL0     H67898   2.917   2.097   0.361  0.2377 -1.2963 -1.3646
  503MOL0     H67899   2.767   1.902   0.409  0.5132  2.0835  0.5685
  503MOL0     H67900   2.924   1.811   0.402 -0.0880 -0.8822 -1.7317
  503MOL0     H67901   2.879   1.990   0.170  0.6642 -1.0664  0.2059
  503MOL0     H67902   2.774   1.851   0.168 -0.5489 -0.2417  0.3346
  503MOL0     H67903   3.150   1.669   0.105 -1.6675 -1.6707 -0.8841
  503MOL0     H67904   3.183   2.314   0.694  1.4554 -1.0147  2.2257
  503MOL0     H67905   3.122   2.484   0.853 -0.9825  1.3291 -0.9722
  504MOL0     O67906   1.552   7.968   8.186 -0.0785  0.4727  0.4067
  504MOL0     C67907   1.569   8.035   8.082  0.5967  0.3325 -1.0960
  504MOL0     O67908   1.473   8.072   7.997 -0.6707 -0.0130 -0.3575
  504MOL0     C67909   1.345   8.022   8.006 -0.0903  0.3087  0.5019
  504MOL0     C67910   1.269   8.004   8.128 -0.6073  0.7492  0.1150
  504MOL0     C67911   1.137   7.973   8.117  0.7081 -1.0012 -0.3417
  504MOL0     C67912   1.081   7.943   7.992  0.1237 -1.1910  0.6399
  504MOL0     O67913   0.951   7.896   7.980 -0.7362 -0.2489 -0.8738
  504MOL0     C67914   0.875   8.004   7.941  1.4372 -0.3575  1.5670
  504MOL0     C67915   0.732   7.975   7.966  0.9655 -0.3857  0.6039
  504MOL0     C67916   0.634   8.093   7.925 -0.5717  0.4299  0.7215
  504MOL0     C67917   0.495   8.068   7.975 -0.1598 -0.2600  0.2567
  504MOL0     C67918   0.403   8.174   7.920 -0.1541 -0.3800  0.2287
  504MOL0     C67919   0.261   8.157   7.978 -0.6547  0.4421  0.3957
  504MOL0     C67920   0.168   8.267   7.934 -0.8439 -0.5217  0.5284
  504MOL0     C67921   0.025   8.262   7.985  1.0228 -0.3910  0.3687
  504MOL0     N67922  -0.063   8.365   7.921  0.1242  0.0162 -0.3028
  504MOL0     C67923  -0.092   8.495   7.966 -0.1849  0.9123 -0.0642
  504MOL0     C67924  -0.165   8.552   7.876 -1.3794  0.5076  1.3934
  504MOL0     C67925  -0.215   8.697   7.894  0.3531 -0.0059 -0.1945
  504MOL0     C67926  -0.170   8.781   7.781 -0.2675 -0.2425  0.4745
  504MOL0     C67927  -0.008   8.806   7.789  0.1901  0.1712 -0.3893
  504MOL0     C67928   0.031   8.913   7.883 -0.1157 -0.5987 -0.3554
  504MOL0     O67929   0.039   8.863   8.019 -0.0074  0.3357 -0.6828
  504MOL0     C67930   0.150   8.792   8.063 -0.4739 -0.6128 -0.4628
  504MOL0     C67931   0.139   8.720   8.178  0.3658  0.3164 -0.0316
  504MOL0     C67932   0.246   8.664   8.248  0.6098 -0.6669  1.3184
  504MOL0     C67933   0.220   8.580   8.371  0.7537  0.2429  0.9556
  504MOL0     C67934   0.379   8.683   8.192  1.0926  0.4469  0.5078
  504MOL0     C67935   0.501   8.619   8.236 -0.4144  0.0847 -0.6543
  504MOL0     O67936   0.613   8.604   8.151  0.1226  0.1573  0.2984
  504MOL0     C67937   0.738   8.560   8.194  0.7894 -0.3144 -0.1356
  504MOL0     C67938   0.809   8.483   8.103 -0.0625 -0.3300  0.6097
  504MOL0     C67939   0.940   8.460   8.125 -0.5008  0.5230  0.1803
  504MOL0     C67940   1.000   8.482   8.247  0.0082 -0.7980  0.7256
  504MOL0     O67941   1.131   8.470   8.272 -0.2778  0.2295  0.5907
  504MOL0     C67942   1.209   8.386   8.183  0.3308 -0.6200  0.0194
  504MOL0     C67943   1.339   8.357   8.260  0.9026 -0.8568  0.6120
  504MOL0     C67944   1.317   8.272   8.384 -0.8121  0.3068 -0.3458
  504MOL0     C67945   1.453   8.284   8.474 -0.2779  0.7741 -0.0946
  504MOL0     C67946   1.583   8.248   8.401  0.2413 -0.3754 -0.2083
  504MOL0     C67947   1.702   8.215   8.488 -0.3998 -0.4208  0.3304
  504MOL0     C67948   1.734   8.325   8.588  0.6293  0.1706  0.5019
  504MOL0     C67949   1.887   8.330   8.600  0.3119  0.0450  0.4265
  504MOL0    Cl67950   1.998   8.194   8.552  0.3248 -0.0827  0.3263
  504MOL0     C67951   0.926   8.540   8.347 -0.3214  0.1914  0.1195
  504MOL0     C67952   0.791   8.586   8.320  0.0163 -0.0622 -0.2381
  504MOL0     O67953   0.500   8.588   8.358  0.5011 -0.8405 -0.0470
  504MOL0     C67954   0.386   8.742   8.061 -0.5306 -0.8543 -0.5914
  504MOL0     C67955   0.273   8.792   8.004 -0.1978  0.2706  0.0678
  504MOL0     N67956  -0.180   8.465   7.769  0.0125 -0.3710  0.0279
  504MOL0     N67957  -0.116   8.351   7.793 -0.5708 -0.8366  0.5307
  504MOL0     C67958   1.154   7.964   7.871  0.1884 -0.1244 -0.2844
  504MOL0     C67959   1.290   7.997   7.881  0.5690  0.4049 -0.0420
  504MOL0     C67960   1.698   8.108   8.071 -0.4683  0.3337  0.4150
  504MOL0     C67961   1.801   8.101   8.167  0.6433 -0.3880  0.2562
  504MOL0     C67962   1.912   8.176   8.160 -0.1858 -0.2453 -0.0822
  504MOL0     C67963   1.942   8.249   8.041 -1.5586 -0.0136 -0.6742
  504MOL0     O67964   2.066   8.311   8.019  0.4193  0.3723 -0.1052
  504MOL0     C67965   2.182   8.288   8.112  0.1279 -0.1378 -0.2088
  504MOL0     C67966   2.186   8.400   8.223 -0.1452  0.5748 -0.6531
  504MOL0     C67967   2.228   8.534   8.147  0.6300  0.2620 -1.0504
  504MOL0     C67968   2.206   8.658   8.238 -0.0225  0.2401 -0.3151
  504MOL0     C67969   2.223   8.773   8.152 -0.0632 -0.4316  0.1601
  504MOL0     C67970   2.249   8.872   8.081  0.3007  0.1899 -1.0616
  504MOL0     C67971   1.838   8.273   7.951 -0.4245  0.8735  0.2663
  504MOL0     C67972   1.712   8.203   7.975 -1.9378 -0.7142  0.9862
  504MOL0     H67973   1.314   8.021   8.225  1.5547 -0.6763 -0.5601
  504MOL0     H67974   1.079   7.958   8.207  2.7253  0.4498  1.2909
  504MOL0     H67975   0.903   8.096   7.994 -0.1476  1.2082 -0.1227
  504MOL0     H67976   0.888   8.018   7.833 -1.6215 -1.1384  0.9857
  504MOL0     H67977   0.689   7.894   7.907 -2.5870  1.5514  0.2200
  504MOL0     H67978   0.714   7.963   8.073 -1.2590  0.0956  0.3460
  504MOL0     H67979   0.668   8.194   7.951  1.4224  0.3160 -1.1490
  504MOL0     H67980   0.642   8.092   7.815  0.8502  0.5146  0.8070
  504MOL0     H67981   0.457   7.968   7.949  2.4295 -1.1565 -0.4315
  504MOL0     H67982   0.499   8.078   8.084  1.3376  0.6154  0.1606
  504MOL0     H67983   0.448   8.273   7.932  0.0010 -0.6065  1.6864
  504MOL0     H67984   0.381   8.160   7.814  1.2754  1.7834 -0.4133
  504MOL0     H67985   0.220   8.061   7.943 -1.0149  0.2669  1.2700
  504MOL0     H67986   0.266   8.151   8.087  1.2052 -0.7118  0.2952
  504MOL0     H67987   0.202   8.364   7.971 -2.0185  0.0121  0.2621
  504MOL0     H67988   0.160   8.279   7.825  0.2622 -1.5709  0.3131
  504MOL0     H67989   0.027   8.250   8.094 -1.9227 -0.2333  0.5062
  504MOL0     H67990  -0.019   8.169   7.947 -0.2592  1.3403 -2.6623
  504MOL0     H67991  -0.079   8.540   8.064  0.4570  2.1983 -0.7094
  504MOL0     H67992  -0.324   8.701   7.903  0.3295  1.9150 -0.8521
  504MOL0     H67993  -0.181   8.739   7.990  0.1488  1.8334 -0.8906
  504MOL0     H67994  -0.217   8.879   7.774  1.1722  0.4094 -0.6168
  504MOL0     H67995  -0.196   8.725   7.691 -1.6918  0.6363  0.3202
  504MOL0     H67996   0.019   8.832   7.686  0.2850  2.4365  0.1660
  504MOL0     H67997   0.046   8.712   7.809  1.1175  1.1199  1.9352
  504MOL0     H67998  -0.044   8.991   7.868  1.4111  0.4511 -3.3223
  504MOL0     H67999   0.124   8.962   7.852  0.7840 -0.2381  2.5880
  504MOL0     H68000   0.047   8.713   8.234  0.9148 -0.3264  0.8228
  504MOL0     H68001   0.113   8.559   8.385  0.6807 -1.3757 -1.5372
  504MOL0     H68002   0.280   8.491   8.351  2.2235  1.3963  0.0378
  504MOL0     H68003   0.250   8.623   8.467 -0.6066 -1.3286  2.1452
  504MOL0     H68004   0.760   8.467   8.008  3.5875  3.2613 -2.1860
  504MOL0     H68005   0.987   8.407   8.043 -1.4940 -1.1057  0.6236
  504MOL0     H68006   1.151   8.296   8.163  0.9328 -1.3663  1.4484
  504MOL0     H68007   1.242   8.440   8.093 -1.5781  2.0614  0.7906
  504MOL0     H68008   1.405   8.302   8.193 -0.1053 -1.7058  0.2869
  504MOL0     H68009   1.375   8.458   8.284 -1.4797  0.1386  0.2938
  504MOL0     H68010   1.296   8.167   8.361 -0.2182 -0.4883  2.4341
  504MOL0     H68011   1.231   8.313   8.438 -1.0704 -0.3196 -0.2801
  504MOL0     H68012   1.459   8.385   8.515  1.9238 -0.0080  1.7302
  504MOL0     H68013   1.447   8.215   8.559 -0.1518 -1.7795 -2.0345
  504MOL0     H68014   1.614   8.322   8.327 -2.8347  2.9261  1.5104
  504MOL0     H68015   1.559   8.159   8.341 -1.0955 -0.5278  0.5180
  504MOL0     H68016   1.698   8.118   8.538  4.4478  0.0573  2.1832
  504MOL0     H68017   1.783   8.209   8.413  0.1011  3.0711  0.4040
  504MOL0     H68018   1.687   8.292   8.681 -2.3193 -0.4892 -1.0861
  504MOL0     H68019   1.700   8.423   8.553  0.7252  0.5496  1.4377
  504MOL0     H68020   1.892   8.365   8.704 -3.5171  1.2903  0.3631
  504MOL0     H68021   1.917   8.412   8.534  1.3154 -0.4251  0.2739
  504MOL0     H68022   0.975   8.557   8.442  0.3969 -2.9567  0.4365
  504MOL0     H68023   0.732   8.630   8.400  1.1499 -0.8133  1.0482
  504MOL0     H68024   0.487   8.755   8.022  1.9569  1.2518  5.3570
  504MOL0     H68025   0.277   8.843   7.908 -2.8075  0.0685 -0.2308
  504MOL0     H68026   1.111   7.920   7.781  0.6278 -0.0814 -0.5174
  504MOL0     H68027   1.352   8.004   7.792  0.2682  1.8582 -0.1730
  504MOL0     H68028   1.789   8.026   8.244  3.2752  0.6529  1.8111
  504MOL0     H68029   1.980   8.179   8.244  0.3383 -3.9405 -0.2209
  504MOL0     H68030   2.171   8.190   8.158 -1.6719  0.2246  0.2098
  504MOL0     H68031   2.273   8.293   8.053 -0.6313  0.9474 -1.3468
  504MOL0     H68032   2.252   8.369   8.305 -0.2654  0.5068 -0.5804
  504MOL0     H68033   2.084   8.414   8.261  0.1915  4.3188 -0.7421
  504MOL0     H68034   2.174   8.543   8.053 -0.2106  0.4054 -0.5679
  504MOL0     H68035   2.337   8.536   8.131  0.5704  3.2719 -1.7616
  504MOL0     H68036   2.286   8.646   8.312 -0.9521  1.3830  0.9375
  504MOL0     H68037   2.106   8.663   8.281 -0.8281  1.8748 -2.2625
  504MOL0     H68038   2.269   8.966   8.035  0.2616 -0.1622 -1.8212
  504MOL0     H68039   1.846   8.340   7.866 -0.9807  0.9995  0.3095
  504MOL0     H68040   1.646   8.219   7.890  0.4469  2.0793 -0.5244
  505MOL0     O68041   4.804   6.313   6.894 -0.5011  0.5837  0.2000
  505MOL0     C68042   4.860   6.265   6.800 -0.0977  0.4489  0.2815
  505MOL0     O68043   4.802   6.181   6.704  0.3577 -0.2493 -0.0406
  505MOL0     C68044   4.671   6.142   6.738  0.6762 -0.8224  0.1791
  505MOL0     C68045   4.568   6.226   6.682  0.4825  0.7085 -0.8075
  505MOL0     C68046   4.433   6.213   6.722  0.5752  0.0092  0.4909
  505MOL0     C68047   4.396   6.122   6.821  0.4333 -0.0416  0.0190
  505MOL0     O68048   4.274   6.113   6.872  0.1006  0.7457 -0.7082
  505MOL0     C68049   4.184   6.227   6.910 -0.8119 -0.6893  0.0723
  505MOL0     C68050   4.048   6.182   6.940 -0.1104 -0.3077  0.2153
  505MOL0     C68051   3.986   6.105   6.822  0.1189  0.0521  0.2502
  505MOL0     C68052   3.849   6.047   6.859 -0.8331  0.4441 -0.3121
  505MOL0     C68053   3.778   5.982   6.739 -0.1659  0.5697  0.4250
  505MOL0     C68054   3.644   5.920   6.769  0.0583  0.8222  0.0751
  505MOL0     C68055   3.580   5.870   6.641  0.5364 -0.1169  0.5514
  505MOL0     C68056   3.443   5.796   6.640  0.4892 -0.2119  0.2310
  505MOL0     N68057   3.458   5.663   6.695  0.2493  0.4459  0.0780
  505MOL0     C68058   3.486   5.630   6.824 -0.4217 -0.4114 -0.7701
  505MOL0     C68059   3.500   5.488   6.817 -0.2481  0.6998  0.2062
  505MOL0     C68060   3.536   5.375   6.908 -0.1082 -0.8064  0.5453
  505MOL0     C68061   3.403   5.325   6.982 -0.1892 -0.6250  0.0110
  505MOL0     C68062   3.329   5.225   6.900 -0.4454  0.0030  0.1840
  505MOL0     C68063   3.188   5.190   6.941  1.4769 -0.3443 -0.2403
  505MOL0     O68064   3.174   5.117   7.062 -0.3014 -0.2558 -0.1573
  505MOL0     C68065   3.038   5.091   7.084  0.1308 -0.8658 -0.1811
  505MOL0     C68066   2.978   4.976   7.033  0.1275 -0.7975  0.0622
  505MOL0     C68067   2.839   4.960   7.039  0.2395  0.7485  0.1048
  505MOL0     C68068   2.783   4.831   6.977 -0.0577  0.0670 -0.0138
  505MOL0     C68069   2.766   5.056   7.116 -0.0865  0.5386 -0.2643
  505MOL0     C68070   2.618   5.037   7.133  0.9108 -0.5278 -0.4641
  505MOL0     O68071   2.570   5.113   7.236 -0.4716  0.5306 -0.2394
  505MOL0     C68072   2.443   5.120   7.291  0.4309  0.4649  0.0432
  505MOL0     C68073   2.415   5.230   7.369  0.2848 -0.6098 -0.7788
  505MOL0     C68074   2.272   5.254   7.401 -0.3563 -0.4089  0.1595
  505MOL0     C68075   2.175   5.165   7.364 -0.8031  0.0908 -0.0661
  505MOL0     O68076   2.051   5.193   7.396 -0.2629  0.1236 -0.0067
  505MOL0     C68077   1.978   5.106   7.486 -0.2807 -0.1699 -0.1669
  505MOL0     C68078   1.842   5.166   7.495  0.9125  0.8121  0.2630
  505MOL0     C68079   1.767   5.086   7.599 -0.8080 -0.9730  0.2095
  505MOL0     C68080   1.619   5.115   7.608  0.3272 -0.3520  0.4886
  505MOL0     C68081   1.543   5.027   7.712 -0.2686 -0.8736  0.5459
  505MOL0     C68082   1.510   4.886   7.665 -0.4409 -0.5459 -0.4996
  505MOL0     C68083   1.423   4.823   7.772 -0.2516 -0.6684  0.8519
  505MOL0     C68084   1.406   4.671   7.745 -1.0467  0.9517 -0.2021
  505MOL0    Cl68085   1.578   4.586   7.760 -0.0883  0.4245  0.2237
  505MOL0     C68086   2.206   5.051   7.291 -0.0549  0.4804 -0.2575
  505MOL0     C68087   2.335   5.028   7.255  0.0189  0.0545 -0.8291
  505MOL0     O68088   2.548   4.966   7.065  0.4291  0.2046 -0.2462
  505MOL0     C68089   2.831   5.170   7.169  0.5000 -0.7193 -0.3135
  505MOL0     C68090   2.966   5.194   7.155  0.1635 -0.2629 -0.0702
  505MOL0     N68091   3.482   5.446   6.685 -0.0783  0.4370  0.2078
  505MOL0     N68092   3.462   5.554   6.611 -0.3770  0.2408  0.8669
  505MOL0     C68093   4.496   6.030   6.864 -0.1606  0.7099  0.0827
  505MOL0     C68094   4.631   6.038   6.824 -0.8778  0.3639  0.1198
  505MOL0     C68095   5.011   6.280   6.790 -0.6114  0.0216  1.1190
  505MOL0     C68096   5.083   6.366   6.877  0.1557 -0.2652  0.5057
  505MOL0     C68097   5.221   6.386   6.863  0.5421  0.2302  0.7066
  505MOL0     C68098   5.298   6.316   6.770  0.2783 -0.8379  0.5670
  505MOL0     O68099   5.433   6.333   6.758 -0.0087 -0.5831 -0.2214
  505MOL0     C68100   5.500   6.218   6.809  0.2840 -1.2431  0.3536
  505MOL0     C68101   5.649   6.255   6.805 -0.2257 -0.1465  0.3084
  505MOL0     C68102   5.703   6.305   6.666  0.3274  0.0697  1.0593
  505MOL0     C68103   5.718   6.193   6.557  0.0853 -0.2035 -0.1307
  505MOL0     C68104   5.816   6.089   6.595 -0.2739  0.2883 -0.1922
  505MOL0     C68105   5.891   5.999   6.619  0.1880 -0.1082 -0.4480
  505MOL0     C68106   5.225   6.234   6.682  0.0143 -0.7330  0.1177
  505MOL0     C68107   5.090   6.213   6.696  0.0481 -0.3387 -0.4275
  505MOL0     H68108   4.582   6.304   6.608 -1.8387  0.8725 -1.1431
  505MOL0     H68109   4.365   6.285   6.678  1.1422  1.7686  2.3396
  505MOL0     H68110   4.233   6.267   6.999  0.4912 -0.6178 -0.6540
  505MOL0     H68111   4.190   6.302   6.831  1.5709 -0.3590  0.4730
  505MOL0     H68112   4.049   6.108   7.020  2.2088  0.5523  1.0537
  505MOL0     H68113   3.982   6.264   6.972 -0.0281 -0.3482  0.4876
  505MOL0     H68114   3.969   6.164   6.732 -1.1042  1.1066  1.1458
  505MOL0     H68115   4.056   6.026   6.791  0.7075  0.7047 -0.1114
  505MOL0     H68116   3.864   5.968   6.933 -0.4020  0.3037 -0.5458
  505MOL0     H68117   3.781   6.123   6.899  2.0652  2.4195  1.2266
  505MOL0     H68118   3.784   6.055   6.658  3.3031  1.7180  1.5467
  505MOL0     H68119   3.838   5.895   6.714 -0.3193  0.9607 -1.4897
  505MOL0     H68120   3.650   5.838   6.840 -1.7168  0.3863 -0.2386
  505MOL0     H68121   3.591   6.006   6.812 -2.3152 -0.2782 -0.4974
  505MOL0     H68122   3.578   5.962   6.583  3.0213 -0.2981  0.0780
  505MOL0     H68123   3.651   5.798   6.600  0.3557 -0.2954  0.5481
  505MOL0     H68124   3.409   5.801   6.536 -2.7518  2.0526  1.2334
  505MOL0     H68125   3.375   5.854   6.703  3.0763  1.0759  2.0374
  505MOL0     H68126   3.502   5.696   6.909  0.8262 -1.9126  0.2120
  505MOL0     H68127   3.580   5.285   6.864  1.3690 -0.3109  0.9355
  505MOL0     H68128   3.596   5.429   6.982 -2.9294  2.9283  0.3856
  505MOL0     H68129   3.344   5.418   6.986 -2.2384 -1.6348 -2.8297
  505MOL0     H68130   3.419   5.279   7.080 -2.3953 -0.0083  0.7407
  505MOL0     H68131   3.395   5.140   6.919  3.6911  2.8267 -0.3651
  505MOL0     H68132   3.335   5.253   6.794 -0.2691 -3.7512 -0.9426
  505MOL0     H68133   3.132   5.142   6.860  2.2959 -0.0301 -1.0137
  505MOL0     H68134   3.138   5.287   6.948 -1.4554 -1.7403 -0.2948
  505MOL0     H68135   3.041   4.906   6.979  0.9471 -1.3534  1.6751
  505MOL0     H68136   2.710   4.855   6.899 -1.4922 -3.4220  0.1079
  505MOL0     H68137   2.850   4.764   6.923 -2.1451 -1.0893 -1.2897
  505MOL0     H68138   2.727   4.771   7.049 -1.4322  0.6564 -0.5660
  505MOL0     H68139   2.497   5.299   7.389  0.4259 -0.7769 -0.7789
  505MOL0     H68140   2.244   5.348   7.448  0.6638  0.6943 -1.3023
  505MOL0     H68141   1.984   5.001   7.456  2.4208 -0.6698  1.7718
  505MOL0     H68142   2.025   5.105   7.585 -1.8634  0.0715  0.6114
  505MOL0     H68143   1.849   5.267   7.536 -0.6341  1.7112 -1.5524
  505MOL0     H68144   1.787   5.166   7.401  2.0298  1.2231 -0.4063
  505MOL0     H68145   1.811   5.095   7.699 -0.3562 -1.0395  0.0199
  505MOL0     H68146   1.786   4.980   7.578 -2.3446 -0.8172 -2.4926
  505MOL0     H68147   1.605   5.221   7.635 -0.0310 -0.2394 -0.1259
  505MOL0     H68148   1.577   5.110   7.507 -0.4545  0.4109  0.7645
  505MOL0     H68149   1.452   5.082   7.738  0.6865  1.4446 -0.6637
  505MOL0     H68150   1.596   5.018   7.807  0.0822 -5.0527  0.1370
  505MOL0     H68151   1.470   4.894   7.564  1.3727 -0.6993 -1.2823
  505MOL0     H68152   1.607   4.836   7.654  0.1398  0.9107 -2.9466
  505MOL0     H68153   1.322   4.864   7.783  0.0877  0.0457  1.3773
  505MOL0     H68154   1.467   4.848   7.869  1.7519  1.3851 -0.4638
  505MOL0     H68155   1.381   4.656   7.640  1.4794 -0.1363 -0.7274
  505MOL0     H68156   1.334   4.629   7.815  1.1501 -1.0213  1.0170
  505MOL0     H68157   2.129   4.985   7.251 -1.6304  1.6525  0.7292
  505MOL0     H68158   2.361   4.942   7.195 -2.3549 -0.8136 -0.7166
  505MOL0     H68159   2.777   5.245   7.227 -3.8076  0.4731 -5.1373
  505MOL0     H68160   3.025   5.282   7.174  0.5714  0.7224 -4.7060
  505MOL0     H68161   4.457   5.960   6.938 -0.1546  1.1026  0.4603
  505MOL0     H68162   4.706   5.982   6.879  0.0125 -1.0230 -2.3564
  505MOL0     H68163   5.029   6.420   6.953 -0.9848  1.0102 -1.1382
  505MOL0     H68164   5.279   6.440   6.937  2.5070 -1.0956  0.2226
  505MOL0     H68165   5.454   6.194   6.906  1.4021  0.4536  1.3581
  505MOL0     H68166   5.493   6.137   6.735 -0.6483 -0.0362 -0.9247
  505MOL0     H68167   5.711   6.168   6.830 -0.6969 -1.2420 -2.0809
  505MOL0     H68168   5.672   6.338   6.873 -1.4512 -1.4452  2.4020
  505MOL0     H68169   5.792   6.368   6.674  0.0102  0.3447  2.8082
  505MOL0     H68170   5.639   6.369   6.605  2.4181  0.1602 -1.2034
  505MOL0     H68171   5.764   6.234   6.467  0.4475  0.6595  0.4332
  505MOL0     H68172   5.623   6.151   6.522 -0.8201  2.0951 -0.6074
  505MOL0     H68173   5.972   5.937   6.650  2.0988  1.6112 -1.6976
  505MOL0     H68174   5.279   6.171   6.611  0.6261  0.2564 -0.3160
  505MOL0     H68175   5.046   6.138   6.631 -5.0837  0.8584  1.1793
  506MOL0     O68176   7.945   7.845   9.148  0.1675 -0.5044  0.7200
  506MOL0     C68177   7.978   7.732   9.111  0.4380 -0.6812 -0.0128
  506MOL0     O68178   7.899   7.628   9.073 -0.5416  0.0109 -0.2217
  506MOL0     C68179   7.764   7.649   9.060  0.9398 -0.3837  0.0890
  506MOL0     C68180   7.701   7.579   8.954 -0.3094  0.4509 -0.3186
  506MOL0     C68181   7.566   7.592   8.925  1.1709  0.5293  1.3111
  506MOL0     C68182   7.484   7.684   8.990 -0.6319 -0.4133  0.5013
  506MOL0     O68183   7.349   7.697   8.970  0.4035 -0.1286  0.1148
  506MOL0     C68184   7.294   7.623   8.856 -1.1412 -0.0274 -0.4006
  506MOL0     C68185   7.140   7.615   8.876  0.2359 -0.9353 -0.5509
  506MOL0     C68186   7.097   7.500   8.782  0.3660  0.3074  0.2398
  506MOL0     C68187   6.944   7.522   8.753  0.2651 -0.1649 -0.7885
  506MOL0     C68188   6.879   7.401   8.694 -0.3342  0.1893  0.0904
  506MOL0     C68189   6.723   7.411   8.686  0.1923  0.6788  0.7479
  506MOL0     C68190   6.673   7.275   8.624  0.7090  0.0094 -1.1853
  506MOL0     C68191   6.516   7.255   8.636 -1.1421  0.0906  0.0939
  506MOL0     N68192   6.451   7.359   8.557  0.5482  0.1639 -0.3896
  506MOL0     C68193   6.352   7.434   8.615 -0.1857 -0.6736 -0.4293
  506MOL0     C68194   6.306   7.513   8.516  0.1132  0.9349  0.5867
  506MOL0     C68195   6.193   7.611   8.528 -0.0090  0.0486 -0.3461
  506MOL0     C68196   6.060   7.557   8.468 -0.1947 -0.3418  1.2451
  506MOL0     C68197   5.990   7.438   8.548 -0.5053 -0.0023  0.3142
  506MOL0     C68198   5.856   7.394   8.495 -0.4165 -0.3283 -0.5537
  506MOL0     O68199   5.752   7.485   8.545 -0.3004  1.7419  0.2707
  506MOL0     C68200   5.624   7.446   8.503  0.5654 -0.3094  0.3138
  506MOL0     C68201   5.588   7.324   8.446  0.7734 -0.9028  0.0445
  506MOL0     C68202   5.459   7.286   8.402  1.2205  0.0037 -0.4314
  506MOL0     C68203   5.437   7.150   8.334  0.8919  0.8401  0.1869
  506MOL0     C68204   5.352   7.383   8.426  0.2913  0.2834 -0.5870
  506MOL0     C68205   5.206   7.369   8.388  0.6453  0.2238 -0.7096
  506MOL0     O68206   5.129   7.472   8.414  0.0436 -0.0651 -0.2730
  506MOL0     C68207   4.995   7.478   8.381  0.4249 -0.3571 -0.5611
  506MOL0     C68208   4.914   7.362   8.361 -0.2229 -0.3889 -0.0347
  506MOL0     C68209   4.779   7.378   8.324 -0.4392 -0.3940 -0.3165
  506MOL0     C68210   4.721   7.501   8.308 -0.5545  0.3955 -0.3901
  506MOL0     O68211   4.588   7.496   8.263 -0.1363  0.5446 -0.3026
  506MOL0     C68212   4.511   7.622   8.259  0.0027  0.2594  0.1105
  506MOL0     C68213   4.367   7.615   8.207 -0.3509  0.2726  0.5047
  506MOL0     C68214   4.291   7.739   8.245  0.9596  0.1772 -0.0299
  506MOL0     C68215   4.211   7.800   8.136  1.1004 -0.0639 -0.1719
  506MOL0     C68216   4.079   7.866   8.172  0.7397  0.2976 -0.5430
  506MOL0     C68217   3.967   7.757   8.167 -0.9397  0.0110 -0.6565
  506MOL0     C68218   3.868   7.776   8.283  0.5547 -0.8997  0.3775
  506MOL0     C68219   3.924   7.769   8.421  0.9040 -0.9094 -0.0786
  506MOL0    Cl68220   3.797   7.797   8.538  0.0071 -0.0953  0.0471
  506MOL0     C68221   4.798   7.615   8.344 -0.5126  0.3346 -0.0581
  506MOL0     C68222   4.933   7.599   8.381 -0.7828  0.3254 -0.4011
  506MOL0     O68223   5.181   7.276   8.311 -0.4281  0.0560  0.3644
  506MOL0     C68224   5.388   7.505   8.495 -0.2025  0.3709  0.8578
  506MOL0     C68225   5.525   7.538   8.529  0.2951  0.7754 -0.2882
  506MOL0     N68226   6.385   7.496   8.405 -0.3047  0.3900  0.6896
  506MOL0     N68227   6.471   7.400   8.430 -0.1811 -0.4406  0.2796
  506MOL0     C68228   7.546   7.758   9.089  0.7401 -0.8206  0.1094
  506MOL0     C68229   7.672   7.738   9.129  0.3879 -0.8244  0.6264
  506MOL0     C68230   8.122   7.714   9.107  0.2221 -0.2600  0.8482
  506MOL0     C68231   8.217   7.824   9.133  1.1935  0.5144  0.2111
  506MOL0     C68232   8.356   7.797   9.125  0.0398 -0.3039  0.0585
  506MOL0     C68233   8.400   7.667   9.092  0.2766  0.0082  0.2107
  506MOL0     O68234   8.529   7.631   9.086 -0.3379  0.0292 -0.1359
  506MOL0     C68235   8.629   7.739   9.100  0.6504 -0.4705  0.4690
  506MOL0     C68236   8.674   7.769   9.241  0.4352 -0.3198 -0.8342
  506MOL0     C68237   8.746   7.653   9.311  0.6418 -0.2021 -0.6737
  506MOL0     C68238   8.794   7.698   9.454  0.1391 -0.5652 -0.2558
  506MOL0     C68239   8.893   7.611   9.520 -0.6544  0.5805 -0.3157
  506MOL0     C68240   8.961   7.521   9.562 -0.6350 -0.3615 -0.2683
  506MOL0     C68241   8.312   7.564   9.064  0.5495  0.4370  0.2727
  506MOL0     C68242   8.172   7.591   9.066 -0.2866  0.3198  0.0072
  506MOL0     H68243   7.753   7.502   8.897 -2.4066 -0.3616 -1.2524
  506MOL0     H68244   7.536   7.539   8.835  2.4769 -0.7910  1.6231
  506MOL0     H68245   7.311   7.675   8.762 -2.2312 -0.3480 -0.7843
  506MOL0     H68246   7.337   7.523   8.859 -0.2132  0.3489 -0.8349
  506MOL0     H68247   7.103   7.595   8.977 -0.7908 -2.3839 -1.1709
  506MOL0     H68248   7.100   7.708   8.835 -0.7583 -1.5141 -0.9568
  506MOL0     H68249   7.144   7.480   8.685 -1.1961 -3.5381  0.0955
  506MOL0     H68250   7.105   7.408   8.840  2.8030 -0.2455 -0.8127
  506MOL0     H68251   6.906   7.552   8.852 -1.9976 -2.7825 -0.7547
  506MOL0     H68252   6.929   7.604   8.682 -0.6672 -0.2535 -0.7095
  506MOL0     H68253   6.915   7.378   8.593 -0.6334 -1.3358  0.2998
  506MOL0     H68254   6.902   7.316   8.760  1.4360  1.0524  0.6410
  506MOL0     H68255   6.667   7.431   8.778 -2.3470 -0.8808 -0.3219
  506MOL0     H68256   6.695   7.487   8.612  1.4054 -0.3643 -0.8384
  506MOL0     H68257   6.704   7.272   8.519  0.2548 -1.0333 -1.3111
  506MOL0     H68258   6.725   7.192   8.672  3.3726  1.7502 -0.8621
  506MOL0     H68259   6.484   7.274   8.739  0.6104  1.3955  0.4500
  506MOL0     H68260   6.494   7.153   8.603  0.5203 -0.9273  1.9030
  506MOL0     H68261   6.315   7.437   8.717 -2.4101  2.0598 -1.2039
  506MOL0     H68262   6.173   7.644   8.630  0.5228  1.3554 -0.6524
  506MOL0     H68263   6.233   7.700   8.479  0.7111 -0.3734 -0.5448
  506MOL0     H68264   6.084   7.521   8.368 -0.3125  0.6206  0.8617
  506MOL0     H68265   5.990   7.638   8.447 -2.1292 -1.4544  3.0406
  506MOL0     H68266   5.985   7.458   8.655  1.1809  0.3182  0.3635
  506MOL0     H68267   6.058   7.353   8.541 -0.8622 -0.2181 -0.7483
  506MOL0     H68268   5.835   7.291   8.526  1.0960 -0.1173  1.3511
  506MOL0     H68269   5.856   7.388   8.385  0.6477  1.3142 -0.6796
  506MOL0     H68270   5.666   7.255   8.416  2.0316  1.3773 -2.3646
  506MOL0     H68271   5.361   7.092   8.388  1.1874  0.7270  0.4884
  506MOL0     H68272   5.400   7.154   8.231 -1.2292 -0.9096  0.8005
  506MOL0     H68273   5.536   7.104   8.326  1.2563  1.8685 -1.8939
  506MOL0     H68274   4.951   7.261   8.373 -1.8218 -0.9637  0.3054
  506MOL0     H68275   4.726   7.289   8.292  0.3310 -0.5773 -1.1209
  506MOL0     H68276   4.519   7.661   8.361  3.2453 -0.9372  0.4649
  506MOL0     H68277   4.565   7.692   8.195  1.5965  0.6949  1.8339
  506MOL0     H68278   4.390   7.614   8.100  1.8955 -1.3037  0.9256
  506MOL0     H68279   4.320   7.520   8.232  0.3566 -0.5944 -1.2990
  506MOL0     H68280   4.360   7.822   8.263 -1.3581  2.7293 -2.1090
  506MOL0     H68281   4.225   7.723   8.331  0.1166  1.3623 -0.4396
  506MOL0     H68282   4.280   7.880   8.104  2.3660 -0.5917  1.1313
  506MOL0     H68283   4.190   7.725   8.060  4.0139  0.1420 -1.3186
  506MOL0     H68284   4.047   7.944   8.102 -2.8512  0.6061  1.2280
  506MOL0     H68285   4.089   7.921   8.266 -0.0757 -0.2663 -0.1176
  506MOL0     H68286   3.928   7.763   8.065  2.0179  2.1603 -1.8052
  506MOL0     H68287   4.004   7.656   8.188  0.2123  0.6199  0.3448
  506MOL0     H68288   3.792   7.698   8.274 -0.6241  0.1192  1.2619
  506MOL0     H68289   3.830   7.876   8.260 -0.2724 -1.2173  0.3431
  506MOL0     H68290   4.009   7.837   8.436 -1.2315  1.8623  0.2378
  506MOL0     H68291   3.963   7.669   8.442 -1.4637 -1.6747  1.0527
  506MOL0     H68292   4.755   7.715   8.353 -0.0813  0.4573  0.7356
  506MOL0     H68293   4.971   7.696   8.411 -2.3630  0.8803 -0.0922
  506MOL0     H68294   5.325   7.585   8.530  2.3035  2.4704  0.8478
  506MOL0     H68295   5.536   7.626   8.592 -0.8176  0.8557 -0.1752
  506MOL0     H68296   7.489   7.823   9.154  0.7768 -0.6417 -0.0354
  506MOL0     H68297   7.708   7.798   9.212 -0.8640  2.9638 -1.3167
  506MOL0     H68298   8.179   7.922   9.160  0.1857 -0.2755  1.8402
  506MOL0     H68299   8.426   7.874   9.158  0.3999 -1.1254  1.2570
  506MOL0     H68300   8.721   7.706   9.051 -0.6811 -0.3756 -2.2464
  506MOL0     H68301   8.601   7.823   9.036  0.2464 -1.2681 -0.4252
  506MOL0     H68302   8.589   7.810   9.296  0.8566 -1.0761  0.4281
  506MOL0     H68303   8.750   7.848   9.235  0.9815 -0.8488 -0.9858
  506MOL0     H68304   8.840   7.623   9.265  0.7309  1.8105 -1.9676
  506MOL0     H68305   8.685   7.562   9.311 -0.9237  0.7894 -1.2844
  506MOL0     H68306   8.707   7.707   9.521  0.3159  1.5145 -0.2379
  506MOL0     H68307   8.842   7.794   9.432 -0.6714 -0.5270 -1.9947
  506MOL0     H68308   9.008   7.434   9.602  1.5184  1.4322  1.3719
  506MOL0     H68309   8.346   7.463   9.042  2.6821  1.1680 -0.0092
  506MOL0     H68310   8.111   7.508   9.033 -0.0540  0.6803 -1.4161
  507MOL0     O68311   2.314   0.262   7.175  0.2970  0.1412 -0.3128
  507MOL0     C68312   2.339   0.374   7.224 -0.4195 -0.3449  0.5535
  507MOL0     O68313   2.254   0.483   7.230 -0.5819 -0.5633  0.0739
  507MOL0     C68314   2.121   0.481   7.191 -0.2260  1.2854 -0.1850
  507MOL0     C68315   2.042   0.584   7.241 -0.6745  0.2913  0.4504
  507MOL0     C68316   1.904   0.588   7.214 -1.0689 -0.5846  0.5136
  507MOL0     C68317   1.843   0.484   7.142 -0.5415 -0.0033  0.0349
  507MOL0     O68318   1.712   0.484   7.096  0.0868  0.4186  0.8375
  507MOL0     C68319   1.618   0.580   7.159 -0.5326 -0.0764 -0.1156
  507MOL0     C68320   1.476   0.545   7.122  1.2214  0.4324 -0.6877
  507MOL0     C68321   1.376   0.617   7.212 -0.2310  0.4478 -0.5390
  507MOL0     C68322   1.237   0.571   7.175  0.0024 -0.2952 -0.5684
  507MOL0     C68323   1.129   0.660   7.253  0.1846 -0.4256 -0.1246
  507MOL0     C68324   0.993   0.616   7.212 -0.3702  0.6846  0.5321
  507MOL0     C68325   0.896   0.721   7.266  0.1692  0.5013  0.2225
  507MOL0     C68326   0.760   0.715   7.199 -0.0662 -0.9957 -0.7061
  507MOL0     N68327   0.676   0.601   7.204 -0.6138  0.2592 -0.1808
  507MOL0     C68328   0.697   0.480   7.267 -0.4583 -1.4323 -0.9306
  507MOL0     C68329   0.600   0.394   7.225 -0.5288 -0.4962  1.1838
  507MOL0     C68330   0.584   0.256   7.280  0.0354 -0.3419  0.0612
  507MOL0     C68331   0.436   0.209   7.287  0.0318  0.1139 -0.6698
  507MOL0     C68332   0.386   0.145   7.156 -0.7781  0.5097 -0.5537
  507MOL0     C68333   0.235   0.125   7.153 -0.1464 -0.0359 -0.0835
  507MOL0     O68334   0.203   0.034   7.041  0.5537 -0.1574 -0.0732
  507MOL0     C68335   0.082   0.040   6.987  1.3745 -0.0445  0.0588
  507MOL0     C68336   0.073   0.033   6.851 -0.1894 -0.3983  0.6409
  507MOL0     C68337  -0.051   0.014   6.785  0.2981  0.2352  0.2507
  507MOL0     C68338  -0.040  -0.000   6.631 -0.1868  0.3235  0.2657
  507MOL0     C68339  -0.172   0.025   6.863 -0.2090  0.7668  0.6582
  507MOL0     C68340  -0.315   0.018   6.805  0.7193 -0.0626  0.1987
  507MOL0     O68341  -0.403  -0.003   6.902  0.2831  0.0143  0.1289
  507MOL0     C68342  -0.536   0.006   6.869  0.0706 -0.3228  0.1764
  507MOL0     C68343  -0.614   0.123   6.883  0.1627 -0.2174  0.0111
  507MOL0     C68344  -0.745   0.120   6.849  0.3292 -0.2755  0.2438
  507MOL0     C68345  -0.806   0.010   6.804  0.0646 -0.2963  0.2642
  507MOL0     O68346  -0.943   0.020   6.774  0.7823  0.2533 -0.0333
  507MOL0     C68347  -1.031  -0.094   6.775  0.6632  0.5974  0.1800
  507MOL0     C68348  -1.171  -0.046   6.721  1.3379  0.2264 -0.0647
  507MOL0     C68349  -1.243   0.049   6.813 -0.2652  0.1076 -1.2248
  507MOL0     C68350  -1.379   0.109   6.778 -0.5807  0.3790 -0.3052
  507MOL0     C68351  -1.431   0.216   6.867  0.1396  0.1469 -0.4040
  507MOL0     C68352  -1.573   0.261   6.820 -0.9156  0.9286 -0.6753
  507MOL0     C68353  -1.636   0.387   6.885  0.4678  0.0318  0.0460
  507MOL0     C68354  -1.769   0.433   6.819  0.2999  0.3865 -0.3179
  507MOL0    Cl68355  -1.742   0.491   6.655 -0.5038 -0.3240  0.3651
  507MOL0     C68356  -0.730  -0.102   6.783 -0.1334  0.7766 -0.2034
  507MOL0     C68357  -0.600  -0.105   6.822  0.4212  0.9477  0.4470
  507MOL0     O68358  -0.336   0.020   6.686 -0.0619  0.4479  0.4694
  507MOL0     C68359  -0.159   0.042   6.997  0.1489  0.5397 -0.0376
  507MOL0     C68360  -0.034   0.048   7.063 -0.1708 -1.0095  0.5037
  507MOL0     N68361   0.514   0.465   7.148 -1.1331 -0.4581  0.6411
  507MOL0     N68362   0.564   0.590   7.129 -0.8169 -0.0434 -0.0210
  507MOL0     C68363   1.917   0.379   7.093 -0.9017  0.4773 -0.1723
  507MOL0     C68364   2.055   0.378   7.113 -0.7590  0.5334  0.4810
  507MOL0     C68365   2.479   0.395   7.271 -0.2963 -0.2404 -0.7846
  507MOL0     C68366   2.572   0.279   7.284  0.1037 -0.6194 -0.0907
  507MOL0     C68367   2.706   0.294   7.302 -0.4695 -0.9052 -0.6146
  507MOL0     C68368   2.756   0.417   7.333  0.3296 -0.7778  0.1596
  507MOL0     O68369   2.888   0.426   7.361  0.1204 -0.3521  0.2744
  507MOL0     C68370   2.945   0.554   7.368  0.0439 -0.2693 -0.2112
  507MOL0     C68371   3.100   0.550   7.393  0.8830 -0.0041  0.4158
  507MOL0     C68372   3.160   0.681   7.371  0.1074 -0.4331 -0.1125
  507MOL0     C68373   3.307   0.701   7.394 -1.0228  0.0821 -0.5355
  507MOL0     C68374   3.394   0.603   7.337 -0.0791  0.5066 -0.3378
  507MOL0     C68375   3.461   0.520   7.280 -0.1706 -0.2504 -0.1667
  507MOL0     C68376   2.661   0.529   7.333 -0.7373  1.3104 -0.0725
  507MOL0     C68377   2.527   0.520   7.303  0.1202 -0.6579 -0.9389
  507MOL0     H68378   2.096   0.659   7.297 -0.9821 -1.0295  2.6560
  507MOL0     H68379   1.852   0.676   7.250 -0.6078 -0.5994  1.2386
  507MOL0     H68380   1.623   0.586   7.268  0.7917  2.2303 -0.2479
  507MOL0     H68381   1.632   0.686   7.135 -0.3883  0.2425  1.3139
  507MOL0     H68382   1.461   0.573   7.017  0.9253 -0.4265 -0.8795
  507MOL0     H68383   1.460   0.438   7.136  1.3918  0.6505  1.4951
  507MOL0     H68384   1.391   0.588   7.316 -0.6050 -0.8146 -0.8237
  507MOL0     H68385   1.382   0.725   7.196  1.8891  0.5298  0.5123
  507MOL0     H68386   1.215   0.588   7.069  0.6941  0.2846 -0.6201
  507MOL0     H68387   1.221   0.464   7.194  0.5850  0.1446  3.1419
  507MOL0     H68388   1.139   0.662   7.362 -0.1159  2.8596 -0.0412
  507MOL0     H68389   1.143   0.764   7.222  2.3632 -0.8998 -0.8990
  507MOL0     H68390   0.998   0.604   7.103  1.3625  0.5767  0.5966
  507MOL0     H68391   0.972   0.518   7.256 -0.9686 -0.6555 -2.4604
  507MOL0     H68392   0.879   0.699   7.372  0.8973  1.2040  0.4915
  507MOL0     H68393   0.929   0.825   7.264  1.4471  0.1648  1.9066
  507MOL0     H68394   0.781   0.752   7.098  0.8335 -1.6286 -0.7574
  507MOL0     H68395   0.700   0.796   7.241  0.4157  0.1287 -2.1138
  507MOL0     H68396   0.766   0.462   7.348 -2.2570  0.2022  1.1087
  507MOL0     H68397   0.641   0.178   7.227 -1.1724 -0.2160 -1.5019
  507MOL0     H68398   0.626   0.250   7.381  2.1622  4.2281 -0.3004
  507MOL0     H68399   0.373   0.296   7.308 -0.9653  0.0483 -3.0325
  507MOL0     H68400   0.415   0.153   7.379  0.4571 -0.1950 -0.7587
  507MOL0     H68401   0.446   0.054   7.155 -0.1611  0.9117 -0.6956
  507MOL0     H68402   0.412   0.210   7.072 -1.3574  1.2317 -0.1788
  507MOL0     H68403   0.190   0.223   7.132 -0.6134 -0.4044 -0.8492
  507MOL0     H68404   0.199   0.085   7.248  0.3506 -2.7901 -0.9658
  507MOL0     H68405   0.164   0.027   6.793 -0.6099 -4.9262  0.1050
  507MOL0     H68406  -0.054   0.097   6.583  0.4828 -0.4956 -1.7072
  507MOL0     H68407   0.061  -0.036   6.611 -0.3893 -0.1470  0.0713
  507MOL0     H68408  -0.110  -0.067   6.579  1.6894 -0.6124 -1.1620
  507MOL0     H68409  -0.568   0.214   6.920 -1.8471  1.0898 -0.5321
  507MOL0     H68410  -0.810   0.205   6.867  1.3973  0.0400  3.1696
  507MOL0     H68411  -0.993  -0.178   6.716 -3.0186 -0.0444 -1.5454
  507MOL0     H68412  -1.046  -0.132   6.876 -1.7033  1.9627  0.4121
  507MOL0     H68413  -1.159   0.006   6.626  0.2173 -0.9122 -0.8697
  507MOL0     H68414  -1.232  -0.136   6.705  2.2527 -0.1894 -1.2972
  507MOL0     H68415  -1.174   0.132   6.830 -1.7069  0.9866  0.7189
  507MOL0     H68416  -1.256   0.009   6.914  0.8332 -1.5099 -1.6768
  507MOL0     H68417  -1.380   0.135   6.672 -3.1279  1.5528 -0.0796
  507MOL0     H68418  -1.444   0.021   6.786  0.4399 -0.3724 -0.0362
  507MOL0     H68419  -1.358   0.297   6.862 -1.2581  1.6684  1.8807
  507MOL0     H68420  -1.434   0.177   6.970  1.8036  2.1361  0.4735
  507MOL0     H68421  -1.552   0.278   6.714  2.5737  1.9726  0.0426
  507MOL0     H68422  -1.642   0.177   6.822  0.2015 -0.0301 -1.2428
  507MOL0     H68423  -1.561   0.465   6.874 -1.6067  2.3730  1.5691
  507MOL0     H68424  -1.654   0.367   6.991 -0.1955  0.9549  0.1173
  507MOL0     H68425  -1.816   0.503   6.889 -0.9630 -1.1001  0.3752
  507MOL0     H68426  -1.832   0.344   6.824  0.8201  0.0412  0.2103
  507MOL0     H68427  -0.780  -0.186   6.737  0.2296  0.5314 -0.1530
  507MOL0     H68428  -0.550  -0.200   6.805  0.9495  1.5006 -1.2688
  507MOL0     H68429  -0.237   0.046   7.072  0.3948 -0.5892  0.2976
  507MOL0     H68430  -0.032   0.059   7.171 -1.8326 -0.2380  0.4889
  507MOL0     H68431   1.873   0.293   7.043 -2.5627 -0.0871  2.1207
  507MOL0     H68432   2.105   0.292   7.071 -3.4391 -1.5972  1.3100
  507MOL0     H68433   2.532   0.180   7.267 -0.0528 -0.9393  1.8536
  507MOL0     H68434   2.778   0.214   7.296  1.4215  0.6530  0.0864
  507MOL0     H68435   2.939   0.593   7.266  1.5871  0.1333 -0.1792
  507MOL0     H68436   2.897   0.621   7.440  1.5474  0.3705  0.2466
  507MOL0     H68437   3.131   0.485   7.311 -1.1499 -1.1780  0.5166
  507MOL0     H68438   3.124   0.497   7.486 -1.3997 -2.4175 -0.2412
  507MOL0     H68439   3.109   0.754   7.433 -0.4782 -0.6001 -0.3918
  507MOL0     H68440   3.137   0.714   7.269 -2.7775 -0.1044  0.5564
  507MOL0     H68441   3.317   0.709   7.503 -0.2239  0.3851 -0.6196
  507MOL0     H68442   3.344   0.798   7.361 -0.0663  0.1790  0.7272
  507MOL0     H68443   3.519   0.452   7.221  0.3893 -0.4235  0.5714
  507MOL0     H68444   2.692   0.626   7.370 -0.1354  1.0911 -0.0009
  507MOL0     H68445   2.469   0.611   7.298  0.5607 -0.2460  0.6515
  508MOL0     O68446  10.539   1.011   6.689 -0.1419  0.0087 -0.0432
  508MOL0     C68447  10.587   0.988   6.580 -0.6186 -0.1541  0.9314
  508MOL0     O68448  10.528   1.008   6.459 -0.4698 -0.3514  0.6447
  508MOL0     C68449  10.395   1.047   6.463 -0.5528 -0.8463  0.2648
  508MOL0     C68450  10.302   0.970   6.532 -1.6312 -0.8637  0.9355
  508MOL0     C68451  10.166   0.991   6.521  0.4983  0.5375  0.6309
  508MOL0     C68452  10.110   1.095   6.444 -0.7043  1.1562 -0.7535
  508MOL0     O68453   9.982   1.125   6.422  0.1397  0.5282  0.6845
  508MOL0     C68454   9.893   1.095   6.534 -0.8118  0.1530 -0.6471
  508MOL0     C68455   9.750   1.146   6.519  0.2175 -0.7445 -0.0671
  508MOL0     C68456   9.682   1.075   6.404 -0.0098 -1.2307 -0.0322
  508MOL0     C68457   9.653   0.925   6.439  0.2603 -0.7094  0.8662
  508MOL0     C68458   9.554   0.864   6.337 -0.2945  0.4588 -0.2632
  508MOL0     C68459   9.545   0.718   6.351 -0.4183  0.4626 -0.2885
  508MOL0     C68460   9.471   0.641   6.245 -0.2746 -0.9507 -0.8339
  508MOL0     C68461   9.319   0.677   6.267  0.5969 -0.4928 -0.9169
  508MOL0     N68462   9.227   0.576   6.205  0.5457 -0.0606  0.2004
  508MOL0     C68463   9.205   0.591   6.072 -0.0067  0.6765  0.4894
  508MOL0     C68464   9.149   0.470   6.050  0.3889 -0.6544  0.4706
  508MOL0     C68465   9.134   0.427   5.909  0.4381 -0.4226  1.1066
  508MOL0     C68466   9.002   0.465   5.839  0.7134  0.1517 -0.3710
  508MOL0     C68467   8.889   0.372   5.861  1.0332  0.2185  0.3640
  508MOL0     C68468   8.910   0.226   5.815  0.0403  0.1306  0.3823
  508MOL0     O68469   8.973   0.217   5.679 -0.2458 -0.4989 -0.0530
  508MOL0     C68470   9.040   0.097   5.654  0.0443 -0.2325  0.3537
  508MOL0     C68471   9.126   0.103   5.545 -0.6444  0.0952  0.0183
  508MOL0     C68472   9.187  -0.012   5.494  1.0234  0.1506 -1.0076
  508MOL0     C68473   9.292   0.004   5.380 -0.3899 -1.6215  0.7513
  508MOL0     C68474   9.149  -0.139   5.538  0.3821  0.2421 -0.4735
  508MOL0     C68475   9.211  -0.258   5.492  0.9037  0.8815  0.1082
  508MOL0     O68476   9.203  -0.280   5.355  0.1379  0.3389 -0.2537
  508MOL0     C68477   9.271  -0.381   5.299 -0.2143  0.2740 -0.1014
  508MOL0     C68478   9.208  -0.498   5.260  0.6093  1.2028 -0.8907
  508MOL0     C68479   9.277  -0.601   5.193 -0.1211 -0.5896 -0.5274
  508MOL0     C68480   9.411  -0.598   5.179 -0.3496 -0.0459 -0.3447
  508MOL0     O68481   9.486  -0.702   5.132 -0.6134  0.5175  0.2650
  508MOL0     C68482   9.467  -0.739   4.993  1.0013 -1.0798  0.3992
  508MOL0     C68483   9.551  -0.652   4.895  0.1360 -0.7976  0.0204
  508MOL0     C68484   9.581  -0.701   4.750  0.0353  0.7296  0.1502
  508MOL0     C68485   9.733  -0.720   4.735  0.3663 -0.0411  0.0592
  508MOL0     C68486   9.773  -0.764   4.593 -0.5607  0.6105  0.4206
  508MOL0     C68487   9.916  -0.783   4.561 -0.6361 -0.3990  0.2912
  508MOL0     C68488   9.998  -0.670   4.626 -0.6390  0.6292 -0.3171
  508MOL0     C68489  10.139  -0.672   4.558 -0.4929  0.4122 -0.2840
  508MOL0    Cl68490  10.214  -0.827   4.612  0.8935  0.1518  0.2346
  508MOL0     C68491   9.479  -0.485   5.228 -0.3766  0.0701 -0.0732
  508MOL0     C68492   9.416  -0.374   5.288  0.6277  0.4483  0.5864
  508MOL0     O68493   9.260  -0.339   5.568 -0.0735  0.2170 -0.8916
  508MOL0     C68494   9.054  -0.147   5.641  0.7818 -0.2343  0.2390
  508MOL0     C68495   9.010  -0.032   5.705  0.4276  0.0445  0.4956
  508MOL0     N68496   9.142   0.386   6.153 -0.6403  0.1182  0.2415
  508MOL0     N68497   9.196   0.453   6.246  0.8276  0.2235  0.3806
  508MOL0     C68498  10.210   1.169   6.377 -0.1962  0.0340  0.3143
  508MOL0     C68499  10.349   1.149   6.383 -0.6777  0.2007 -0.3154
  508MOL0     C68500  10.720   0.927   6.570  0.4232 -0.1480  0.2281
  508MOL0     C68501  10.782   0.886   6.449  0.4294  0.2783 -0.2523
  508MOL0     C68502  10.924   0.851   6.441 -0.4355 -0.1122  0.0951
  508MOL0     C68503  10.998   0.846   6.553 -0.2692  0.1675 -0.0340
  508MOL0     O68504  11.128   0.799   6.561 -0.1972 -0.1874 -0.6631
  508MOL0     C68505  11.191   0.754   6.440  0.0493 -0.2982  0.2775
  508MOL0     C68506  11.343   0.720   6.478 -0.1748 -0.3973  0.0682
  508MOL0     C68507  11.407   0.846   6.532  0.2267 -0.7631 -0.7009
  508MOL0     C68508  11.545   0.828   6.603  0.4963 -0.1597  0.6360
  508MOL0     C68509  11.659   0.788   6.510 -0.3208 -0.2442  0.7230
  508MOL0     C68510  11.743   0.763   6.423 -0.3258  0.0928 -0.4659
  508MOL0     C68511  10.938   0.885   6.671  0.4815 -0.4109 -0.1671
  508MOL0     C68512  10.806   0.925   6.678 -0.1442 -1.3395 -0.5124
  508MOL0     H68513  10.329   0.887   6.595 -2.7518 -3.3479 -1.6358
  508MOL0     H68514  10.101   0.919   6.570  1.6174 -0.2229  1.0570
  508MOL0     H68515   9.886   0.986   6.541  3.5331 -0.2944 -0.6140
  508MOL0     H68516   9.949   1.127   6.622 -0.4543 -0.9033 -0.4713
  508MOL0     H68517   9.692   1.131   6.611 -1.2983  0.6533 -0.7485
  508MOL0     H68518   9.761   1.254   6.508 -0.2774 -0.5888  0.8469
  508MOL0     H68519   9.584   1.123   6.398  0.0481 -0.6674  2.2744
  508MOL0     H68520   9.730   1.098   6.309  1.4287 -2.3157  0.3914
  508MOL0     H68521   9.750   0.877   6.421  0.4385  0.3083 -1.3222
  508MOL0     H68522   9.621   0.900   6.540  1.5789 -0.4173  1.3825
  508MOL0     H68523   9.453   0.902   6.355 -0.2301 -0.2470  1.9617
  508MOL0     H68524   9.582   0.875   6.232 -0.4775 -3.6799 -0.8827
  508MOL0     H68525   9.645   0.675   6.364  1.9754  4.5913 -2.5697
  508MOL0     H68526   9.499   0.713   6.450  0.5182 -0.7450  0.1130
  508MOL0     H68527   9.505   0.663   6.144  3.4854  0.1969  0.5108
  508MOL0     H68528   9.491   0.535   6.264 -2.1804 -0.9936  1.3405
  508MOL0     H68529   9.301   0.776   6.224 -0.7351 -0.8136 -1.1351
  508MOL0     H68530   9.298   0.673   6.374 -2.4657 -0.6430 -1.4380
  508MOL0     H68531   9.239   0.669   6.005  1.1606 -0.8457 -0.7928
  508MOL0     H68532   9.212   0.474   5.848 -0.2021  2.1024  2.1381
  508MOL0     H68533   9.147   0.318   5.914 -0.2503 -0.4648  2.1983
  508MOL0     H68534   9.013   0.458   5.730 -0.7649 -1.5787 -0.4654
  508MOL0     H68535   8.971   0.562   5.878 -2.0256 -1.5346  2.0309
  508MOL0     H68536   8.803   0.409   5.806  1.2323  0.9443  0.5356
  508MOL0     H68537   8.863   0.382   5.967 -0.1863 -1.1092  0.2232
  508MOL0     H68538   8.809   0.185   5.821 -0.5056  1.1544 -1.1852
  508MOL0     H68539   8.967   0.174   5.893 -1.3821 -0.2871  1.1866
  508MOL0     H68540   9.155   0.198   5.501  0.9237  0.2847  1.3627
  508MOL0     H68541   9.250  -0.029   5.285  0.6003 -2.7925  0.6879
  508MOL0     H68542   9.317   0.110   5.370  0.3343 -1.8683 -0.1794
  508MOL0     H68543   9.388  -0.048   5.393  0.7632  0.4963  1.1435
  508MOL0     H68544   9.102  -0.484   5.275  1.1083  2.0936  2.6912
  508MOL0     H68545   9.226  -0.687   5.152  0.8174 -0.3173 -2.3793
  508MOL0     H68546   9.487  -0.846   4.981 -1.9417 -1.6258 -0.5137
  508MOL0     H68547   9.359  -0.737   4.976  0.7460 -1.9077  1.7868
  508MOL0     H68548   9.506  -0.552   4.891  1.1433 -0.3042  0.4626
  508MOL0     H68549   9.639  -0.627   4.956 -0.4617  1.4334  0.0685
  508MOL0     H68550   9.542  -0.625   4.681  0.2418 -0.4133 -1.2787
  508MOL0     H68551   9.530  -0.797   4.738  2.7267 -1.1875  2.8235
  508MOL0     H68552   9.789  -0.631   4.766  1.0973 -0.5993  0.3594
  508MOL0     H68553   9.763  -0.802   4.801  2.6250 -0.4108 -1.3095
  508MOL0     H68554   9.740  -0.682   4.529  0.5901  0.2562 -0.6638
  508MOL0     H68555   9.707  -0.849   4.572  0.6736 -0.4385  0.6424
  508MOL0     H68556   9.950  -0.881   4.596 -0.0869 -0.4143 -0.2709
  508MOL0     H68557   9.920  -0.783   4.452  0.4858  0.3795  0.3222
  508MOL0     H68558  10.013  -0.689   4.732 -0.5304 -0.2742 -0.4855
  508MOL0     H68559   9.957  -0.569   4.611 -1.4761  0.3000 -0.3083
  508MOL0     H68560  10.201  -0.588   4.589 -1.5007  0.2794  2.2635
  508MOL0     H68561  10.152  -0.686   4.450 -0.6449  1.0816 -0.3905
  508MOL0     H68562   9.586  -0.483   5.209 -0.4485  0.5009 -0.4666
  508MOL0     H68563   9.473  -0.283   5.301  2.4116  0.3672 -4.3817
  508MOL0     H68564   9.028  -0.246   5.678 -0.2279 -0.1975 -0.3234
  508MOL0     H68565   8.946  -0.041   5.792 -2.6143  1.0547 -1.5002
  508MOL0     H68566  10.177   1.255   6.319  3.0952 -0.8293 -3.1981
  508MOL0     H68567  10.409   1.220   6.328  0.3628 -1.2747 -1.1483
  508MOL0     H68568  10.720   0.897   6.360  0.3276 -1.0772 -0.3797
  508MOL0     H68569  10.964   0.829   6.342  0.3042 -0.2719  0.4251
  508MOL0     H68570  11.131   0.671   6.401 -0.3648 -0.3459  0.9907
  508MOL0     H68571  11.190   0.836   6.368 -1.4380  1.2124  1.9140
  508MOL0     H68572  11.403   0.686   6.393  1.6739  0.0311  1.1305
  508MOL0     H68573  11.341   0.654   6.566 -0.2212  1.9719  1.9366
  508MOL0     H68574  11.336   0.895   6.600  1.9283 -0.2687  0.7991
  508MOL0     H68575  11.420   0.914   6.447  0.9068  1.8973  1.3956
  508MOL0     H68576  11.533   0.757   6.685 -3.2536  0.9513  1.2594
  508MOL0     H68577  11.569   0.920   6.657  0.6502 -0.7122  1.5113
  508MOL0     H68578  11.821   0.747   6.351 -0.3973 -1.3570 -0.2646
  508MOL0     H68579  11.007   0.898   6.753  2.0194  0.4254 -1.5397
  508MOL0     H68580  10.760   0.959   6.770 -1.3597 -0.1765 -1.5118
  509MOL0     O68581   1.518   4.291   1.883 -0.2396  0.5717  0.0311
  509MOL0     C68582   1.586   4.187   1.874  0.3807  0.2443  0.3365
  509MOL0     O68583   1.538   4.054   1.857 -0.6044 -0.3226 -0.3784
  509MOL0     C68584   1.401   4.049   1.855 -1.2925  0.2434  0.3921
  509MOL0     C68585   1.329   4.090   1.969 -0.1090 -0.5180  0.1219
  509MOL0     C68586   1.195   4.084   1.970 -0.2708  0.0256  0.3506
  509MOL0     C68587   1.130   4.023   1.863 -1.0646 -0.5725  0.4486
  509MOL0     O68588   0.994   4.009   1.870  0.5462  0.1113 -0.8510
  509MOL0     C68589   0.917   3.990   1.758  1.3330 -0.3371  0.1226
  509MOL0     C68590   0.884   4.123   1.700  0.6080  0.5340  0.2263
  509MOL0     C68591   0.865   4.108   1.554 -0.1780 -0.7064  0.0938
  509MOL0     C68592   0.809   4.249   1.489  0.2123 -0.4968 -0.1597
  509MOL0     C68593   0.804   4.237   1.336 -0.3146 -0.1767 -0.3203
  509MOL0     C68594   0.752   4.360   1.257 -0.0332 -0.3479  0.1592
  509MOL0     C68595   0.601   4.364   1.277  0.8616 -0.3523  0.1913
  509MOL0     C68596   0.562   4.504   1.324  0.1617  1.0529  0.1331
  509MOL0     N68597   0.415   4.520   1.335 -0.6494 -1.2852 -0.1568
  509MOL0     C68598   0.315   4.490   1.245  0.9165  0.6702 -0.0066
  509MOL0     C68599   0.205   4.520   1.308 -0.1543  0.0188 -0.5201
  509MOL0     C68600   0.067   4.491   1.259 -0.5176 -0.7323 -1.1377
  509MOL0     C68601  -0.025   4.614   1.283 -0.2104  0.2328 -0.8257
  509MOL0     C68602  -0.065   4.614   1.433  0.4570 -1.2581  0.0261
  509MOL0     C68603  -0.200   4.693   1.451  0.3381  0.6844 -0.2588
  509MOL0     O68604  -0.314   4.598   1.425 -0.0796 -0.1980 -0.4278
  509MOL0     C68605  -0.448   4.636   1.425 -0.0060 -0.2049 -0.0610
  509MOL0     C68606  -0.482   4.766   1.436  0.6863  0.7261  0.4101
  509MOL0     C68607  -0.618   4.811   1.456  0.7596 -0.8692 -0.4622
  509MOL0     C68608  -0.639   4.963   1.475 -0.2829 -0.0385 -0.4271
  509MOL0     C68609  -0.720   4.719   1.455  0.7398  0.6401  0.1461
  509MOL0     C68610  -0.860   4.758   1.454 -0.5476  0.1739  0.4787
  509MOL0     O68611  -0.891   4.882   1.396 -0.7076  0.0768  0.0239
  509MOL0     C68612  -1.018   4.923   1.362 -0.6747  0.2682 -0.6997
  509MOL0     C68613  -1.030   5.057   1.358  0.1317 -0.5023 -0.0123
  509MOL0     C68614  -1.153   5.121   1.335 -0.0733 -0.2091  0.5981
  509MOL0     C68615  -1.263   5.038   1.310 -0.0022  0.3349 -0.3234
  509MOL0     O68616  -1.376   5.096   1.282 -0.1400 -1.0203 -0.3002
  509MOL0     C68617  -1.368   5.222   1.211  1.4519 -0.6131  0.8128
  509MOL0     C68618  -1.507   5.245   1.170 -0.4802  0.0624  0.0417
  509MOL0     C68619  -1.514   5.321   1.035  0.4396  0.6992 -0.4447
  509MOL0     C68620  -1.657   5.346   0.987  0.1771 -0.4249 -0.3667
  509MOL0     C68621  -1.674   5.447   0.866 -0.0620  0.7007  0.3222
  509MOL0     C68622  -1.812   5.449   0.824 -0.0310  0.1296  0.3496
  509MOL0     C68623  -1.907   5.489   0.933 -0.1681  0.0173 -0.5636
  509MOL0     C68624  -2.041   5.530   0.865  0.2018 -0.8458 -0.0024
  509MOL0    Cl68625  -2.171   5.515   0.981 -0.2972  0.2494 -0.4240
  509MOL0     C68626  -1.252   4.898   1.317 -0.2280  0.6303  0.3795
  509MOL0     C68627  -1.130   4.836   1.346 -0.4078 -0.5176 -0.3418
  509MOL0     O68628  -0.943   4.679   1.499  0.6701 -0.4217 -0.1329
  509MOL0     C68629  -0.685   4.577   1.450  0.0683 -0.4228  0.6625
  509MOL0     C68630  -0.550   4.542   1.425  0.5143  0.4492  0.1835
  509MOL0     N68631   0.237   4.589   1.424  0.6943  0.5265  0.2949
  509MOL0     N68632   0.360   4.583   1.440  0.3851 -0.2252  0.2948
  509MOL0     C68633   1.204   3.969   1.757 -0.4498 -0.8019  0.3795
  509MOL0     C68634   1.338   3.985   1.748 -0.6410 -0.3191 -0.8543
  509MOL0     C68635   1.735   4.198   1.888 -0.2768 -0.0954 -0.4669
  509MOL0     C68636   1.801   4.322   1.919  0.4566 -0.1314 -0.1317
  509MOL0     C68637   1.941   4.337   1.929  0.2798  0.5403  0.6175
  509MOL0     C68638   2.023   4.224   1.903 -0.1205 -0.0421 -0.2978
  509MOL0     O68639   2.157   4.241   1.917  0.1371 -0.5991  0.3578
  509MOL0     C68640   2.221   4.361   1.963  0.1140  0.3904  0.4976
  509MOL0     C68641   2.362   4.327   2.023 -0.1289 -0.9825 -0.4790
  509MOL0     C68642   2.424   4.455   2.068  0.2253  0.0853  0.1440
  509MOL0     C68643   2.564   4.426   2.107  0.0593 -0.8059  0.4680
  509MOL0     C68644   2.581   4.339   2.228  0.6545 -0.2695 -0.0015
  509MOL0     C68645   2.594   4.256   2.318 -1.4740 -0.3380  0.4837
  509MOL0     C68646   1.957   4.101   1.860 -0.2510  0.3926  0.6440
  509MOL0     C68647   1.818   4.091   1.860  0.6109  0.3432  0.8477
  509MOL0     H68648   1.388   4.134   2.048 -0.9065  1.2726 -0.2399
  509MOL0     H68649   1.155   4.122   2.063 -1.1198  0.0243 -0.0019
  509MOL0     H68650   0.970   3.933   1.681  0.9588 -0.1772 -0.2577
  509MOL0     H68651   0.822   3.941   1.782  2.1566 -1.3431  1.4244
  509MOL0     H68652   0.800   4.178   1.745 -0.1482  1.0499 -1.7009
  509MOL0     H68653   0.966   4.193   1.717  1.5270 -0.8415  1.6982
  509MOL0     H68654   0.961   4.099   1.503  0.9425 -1.3987  2.2029
  509MOL0     H68655   0.799   4.025   1.528 -0.4335 -0.4466 -0.1093
  509MOL0     H68656   0.709   4.270   1.528 -0.8562 -0.0223 -2.9718
  509MOL0     H68657   0.873   4.329   1.527  0.9198 -0.6705 -0.9382
  509MOL0     H68658   0.906   4.218   1.300 -0.1185  0.5837 -0.1912
  509MOL0     H68659   0.744   4.150   1.309  0.0381 -0.0027 -1.7393
  509MOL0     H68660   0.801   4.450   1.295  2.2708 -0.2881 -2.5464
  509MOL0     H68661   0.782   4.353   1.152 -0.4172  0.5733 -0.0193
  509MOL0     H68662   0.550   4.342   1.183 -1.5017  0.4346  1.2121
  509MOL0     H68663   0.567   4.283   1.342  0.4415 -1.4784 -1.3779
  509MOL0     H68664   0.603   4.572   1.249  0.9572 -2.3362 -2.7581
  509MOL0     H68665   0.609   4.527   1.420 -0.9984  4.4127  0.0395
  509MOL0     H68666   0.332   4.440   1.150  1.9183  2.4721 -0.8152
  509MOL0     H68667   0.086   4.462   1.155  2.1202 -1.2672 -0.5941
  509MOL0     H68668   0.022   4.404   1.307  1.5182  1.1550  5.0383
  509MOL0     H68669  -0.112   4.594   1.219 -0.0546 -1.5253 -0.5353
  509MOL0     H68670   0.017   4.708   1.246  0.4965 -0.1311 -0.9865
  509MOL0     H68671   0.016   4.652   1.495 -0.0459 -0.9966  0.5337
  509MOL0     H68672  -0.071   4.510   1.465 -0.1666 -1.5848 -1.0996
  509MOL0     H68673  -0.198   4.768   1.371 -0.6643  1.0994  0.0919
  509MOL0     H68674  -0.203   4.752   1.543 -0.4421 -1.0240  0.8416
  509MOL0     H68675  -0.405   4.843   1.436  0.2906  1.1836 -1.7076
  509MOL0     H68676  -0.687   5.004   1.385 -0.6516  0.2747 -0.0928
  509MOL0     H68677  -0.699   4.971   1.566 -0.2585 -0.9939 -0.3132
  509MOL0     H68678  -0.543   5.009   1.500 -0.4380  1.0684 -1.7647
  509MOL0     H68679  -0.937   5.109   1.378  0.6455 -0.9223 -1.2350
  509MOL0     H68680  -1.162   5.227   1.352  0.2946 -0.0423 -0.1978
  509MOL0     H68681  -1.337   5.312   1.264 -0.9224  0.1878  0.9421
  509MOL0     H68682  -1.308   5.212   1.120 -1.4383  1.9907 -1.6074
  509MOL0     H68683  -1.550   5.147   1.149 -2.4098  0.5991  1.1793
  509MOL0     H68684  -1.570   5.294   1.245 -0.9718  0.7678 -0.8207
  509MOL0     H68685  -1.454   5.283   0.952  0.6942 -0.7577  0.3632
  509MOL0     H68686  -1.463   5.417   1.049 -1.2701  1.7166 -0.9635
  509MOL0     H68687  -1.692   5.246   0.960  1.1015 -1.4665  1.9824
  509MOL0     H68688  -1.725   5.378   1.066  0.8379 -0.3806  0.1960
  509MOL0     H68689  -1.609   5.434   0.779  1.2431 -0.4277  1.4023
  509MOL0     H68690  -1.653   5.545   0.910 -0.6567  0.7746  0.4459
  509MOL0     H68691  -1.815   5.524   0.744 -1.3276  0.2193  0.4613
  509MOL0     H68692  -1.846   5.351   0.791 -1.0701 -0.7111  3.5363
  509MOL0     H68693  -1.867   5.575   0.988  0.1484  0.9745 -2.1923
  509MOL0     H68694  -1.923   5.411   1.008  1.7082 -2.4670 -2.5670
  509MOL0     H68695  -2.059   5.462   0.782  2.7336  1.3895 -2.5947
  509MOL0     H68696  -2.045   5.625   0.811 -2.2075 -1.3420 -0.8047
  509MOL0     H68697  -1.326   4.820   1.306 -1.3081  1.6767  0.0754
  509MOL0     H68698  -1.123   4.730   1.366 -0.7840 -0.0685  2.5315
  509MOL0     H68699  -0.758   4.499   1.468 -0.0489 -0.0303  1.9423
  509MOL0     H68700  -0.516   4.439   1.430  0.8743  0.4137 -1.7987
  509MOL0     H68701   1.163   3.919   1.670 -1.1595  0.8799 -0.2916
  509MOL0     H68702   1.401   3.946   1.668  0.9104 -2.5970  1.3076
  509MOL0     H68703   1.751   4.418   1.924  0.1856 -0.0348 -2.8443
  509MOL0     H68704   1.989   4.431   1.955  2.9503 -0.2691 -1.0033
  509MOL0     H68705   2.229   4.430   1.879  1.6840  1.4950  1.4898
  509MOL0     H68706   2.162   4.408   2.043 -2.4041  0.0732 -1.0625
  509MOL0     H68707   2.424   4.288   1.942  1.4119 -2.4078  1.2823
  509MOL0     H68708   2.354   4.251   2.101  4.1854  0.7547  2.0368
  509MOL0     H68709   2.363   4.511   2.139 -0.3936 -2.1447  1.4951
  509MOL0     H68710   2.428   4.521   1.982 -1.5973  0.7384  0.5166
  509MOL0     H68711   2.621   4.517   2.129 -2.3164  0.5946  1.2389
  509MOL0     H68712   2.616   4.387   2.019 -1.0713 -2.5152  0.5103
  509MOL0     H68713   2.616   4.194   2.402  0.1720  0.1203  0.4156
  509MOL0     H68714   2.012   4.010   1.839 -1.0142 -0.1562  0.9597
  509MOL0     H68715   1.788   3.987   1.846 -0.8732  0.7151  1.1143
  510MOL0     O68716   2.024   3.669   6.585 -0.4281  0.0126 -0.3040
  510MOL0     C68717   2.042   3.563   6.534  0.5281 -0.2905 -0.8945
  510MOL0     O68718   1.946   3.469   6.514 -0.1256 -0.3857 -0.1266
  510MOL0     C68719   1.808   3.500   6.519  0.2534  0.2366  0.4207
  510MOL0     C68720   1.745   3.585   6.607  0.0712  0.1321 -1.2935
  510MOL0     C68721   1.614   3.626   6.590 -0.3141 -0.4002  0.4840
  510MOL0     C68722   1.536   3.569   6.481  0.3918 -0.6132 -0.1777
  510MOL0     O68723   1.400   3.603   6.477 -0.0020  0.9317  0.2534
  510MOL0     C68724   1.318   3.504   6.409  0.0312  0.2020 -0.9751
  510MOL0     C68725   1.173   3.557   6.409 -0.2704 -0.2522  1.0709
  510MOL0     C68726   1.098   3.553   6.542 -0.4455  0.6325  0.1565
  510MOL0     C68727   1.086   3.408   6.588  0.6080 -0.1815 -0.5574
  510MOL0     C68728   1.000   3.402   6.722 -0.5192 -1.1273 -0.6571
  510MOL0     C68729   0.857   3.471   6.716  0.4906 -1.1237 -1.3158
  510MOL0     C68730   0.796   3.471   6.848  0.0124  0.2014 -0.8504
  510MOL0     C68731   0.649   3.490   6.861  0.6407  0.5130  0.4955
  510MOL0     N68732   0.595   3.487   7.001  0.8443 -0.7391  0.8379
  510MOL0     C68733   0.585   3.604   7.071  0.1454  0.0064  0.0111
  510MOL0     C68734   0.538   3.571   7.190  0.5790  0.6649  0.8082
  510MOL0     C68735   0.529   3.667   7.311  0.5137  0.2377  0.0495
  510MOL0     C68736   0.491   3.811   7.286  0.0778 -0.9412  0.2880
  510MOL0     C68737   0.462   3.889   7.413 -0.7017 -0.9390 -0.1673
  510MOL0     C68738   0.461   4.039   7.394  0.1335  0.6031  0.0473
  510MOL0     O68739   0.352   4.085   7.312 -0.2080  0.0678  0.1533
  510MOL0     C68740   0.226   4.097   7.361  0.2633  0.0677 -0.8310
  510MOL0     C68741   0.188   4.052   7.492  0.2470  0.2061  0.2231
  510MOL0     C68742   0.053   4.059   7.531  0.1306  0.2482  0.2061
  510MOL0     C68743   0.004   4.003   7.669  0.6031  0.6519  0.6583
  510MOL0     C68744  -0.042   4.121   7.445  0.0428 -0.6610 -0.1081
  510MOL0     C68745  -0.182   4.160   7.489 -0.1037 -0.1685  0.5046
  510MOL0     O68746  -0.271   4.192   7.387  0.0734  0.4717  0.2743
  510MOL0     C68747  -0.376   4.278   7.405  1.1089  0.5551  0.1186
  510MOL0     C68748  -0.496   4.240   7.338 -0.5732 -0.5116 -0.5663
  510MOL0     C68749  -0.612   4.324   7.350  1.0604  0.0279  0.1858
  510MOL0     C68750  -0.607   4.442   7.419  0.5190  0.0414 -0.0508
  510MOL0     O68751  -0.722   4.514   7.445 -0.1698  0.7430  1.3446
  510MOL0     C68752  -0.734   4.639   7.516  0.0380 -0.1386  0.2718
  510MOL0     C68753  -0.768   4.600   7.659 -0.4960  0.4451 -0.7825
  510MOL0     C68754  -0.850   4.477   7.686  0.4844 -0.8463 -0.1662
  510MOL0     C68755  -0.995   4.500   7.625  0.0247 -0.7175 -0.8102
  510MOL0     C68756  -1.074   4.368   7.638 -0.2131  0.2251 -0.3573
  510MOL0     C68757  -1.212   4.371   7.565  0.9131 -0.5262  1.1288
  510MOL0     C68758  -1.294   4.483   7.637  0.1769  0.2030 -0.5048
  510MOL0     C68759  -1.434   4.503   7.567  0.7591  0.2231  0.5217
  510MOL0    Cl68760  -1.421   4.517   7.391 -0.4018  0.1152 -0.0106
  510MOL0     C68761  -0.492   4.479   7.485 -0.0758  0.1558  0.4615
  510MOL0     C68762  -0.376   4.390   7.482  0.4986  0.2460 -0.5889
  510MOL0     O68763  -0.207   4.169   7.611  0.3956  0.1723 -0.0199
  510MOL0     C68764  -0.007   4.155   7.316 -0.6734  0.0131  0.5962
  510MOL0     C68765   0.130   4.151   7.277 -0.6132  0.2580 -0.3296
  510MOL0     N68766   0.520   3.434   7.189 -0.3424  1.1055  0.0313
  510MOL0     N68767   0.560   3.382   7.076  0.3782 -0.8556  0.4066
  510MOL0     C68768   1.592   3.475   6.402  0.1201  0.7800  0.2382
  510MOL0     C68769   1.731   3.445   6.416 -0.1596  0.6008 -0.0207
  510MOL0     C68770   2.179   3.522   6.491  0.0722  0.6434  0.4560
  510MOL0     C68771   2.271   3.610   6.438 -0.7672  1.0378 -0.1958
  510MOL0     C68772   2.401   3.560   6.402  0.1913 -0.0545  0.5063
  510MOL0     C68773   2.433   3.427   6.414 -0.1889  0.0195  0.0260
  510MOL0     O68774   2.546   3.380   6.356  0.1287 -0.3192  0.2028
  510MOL0     C68775   2.564   3.237   6.362 -0.4827  0.8604 -0.2985
  510MOL0     C68776   2.701   3.199   6.315 -0.2113 -0.3966 -0.6687
  510MOL0     C68777   2.820   3.257   6.403 -0.9885 -0.7712 -0.3846
  510MOL0     C68778   2.950   3.275   6.320  0.0797  0.3394  0.0965
  510MOL0     C68779   3.063   3.331   6.396  0.0346  0.4636  0.8271
  510MOL0     C68780   3.170   3.374   6.445 -0.1876 -0.2757  0.1102
  510MOL0     C68781   2.335   3.336   6.464 -0.5565 -0.1716 -0.9921
  510MOL0     C68782   2.214   3.385   6.506  0.3581  0.6829  0.1441
  510MOL0     H68783   1.796   3.624   6.694 -3.1887  1.0099  0.4094
  510MOL0     H68784   1.575   3.701   6.657 -3.5402 -1.7210  0.2793
  510MOL0     H68785   1.340   3.502   6.302 -2.2500 -0.4780 -1.4739
  510MOL0     H68786   1.333   3.407   6.459  1.3599  0.6591 -0.4246
  510MOL0     H68787   1.168   3.662   6.378 -0.3942 -0.5664 -0.0217
  510MOL0     H68788   1.120   3.496   6.335  1.2683 -2.4810  1.6795
  510MOL0     H68789   1.150   3.623   6.609  0.7910 -0.9590  0.9255
  510MOL0     H68790   0.997   3.592   6.528  0.3517  3.9032  2.4490
  510MOL0     H68791   1.042   3.340   6.515  0.2059 -1.3807  0.7736
  510MOL0     H68792   1.184   3.369   6.619  0.3058  0.9785  2.1967
  510MOL0     H68793   1.002   3.297   6.754  3.6460 -0.2789  2.8288
  510MOL0     H68794   1.076   3.439   6.791  1.1509 -2.1727 -1.8535
  510MOL0     H68795   0.855   3.578   6.692  3.1501 -0.0673  2.2806
  510MOL0     H68796   0.793   3.419   6.644  1.2043 -0.1007 -2.7497
  510MOL0     H68797   0.807   3.368   6.884 -3.4337  0.0429  0.1832
  510MOL0     H68798   0.839   3.542   6.919 -3.4271  0.8946  0.7606
  510MOL0     H68799   0.603   3.414   6.798 -1.8908  3.1423 -1.0845
  510MOL0     H68800   0.627   3.588   6.817 -0.1957 -0.2222 -0.7865
  510MOL0     H68801   0.624   3.701   7.042 -0.5870  0.9340  1.8664
  510MOL0     H68802   0.451   3.616   7.368 -0.5100 -0.9908 -2.2950
  510MOL0     H68803   0.618   3.676   7.373  0.6978 -1.2178  0.0193
  510MOL0     H68804   0.403   3.822   7.221  0.2189  0.6040  0.3241
  510MOL0     H68805   0.575   3.865   7.242  0.0232  1.2981  2.7137
  510MOL0     H68806   0.523   3.856   7.498  0.8281  0.0259 -0.8412
  510MOL0     H68807   0.362   3.853   7.437 -1.2115 -0.5521 -1.5987
  510MOL0     H68808   0.550   4.073   7.341 -1.0660  1.2947 -1.6355
  510MOL0     H68809   0.459   4.099   7.485  0.1759  1.6696 -0.6364
  510MOL0     H68810   0.259   4.019   7.567 -0.2948 -1.9561 -0.1610
  510MOL0     H68811  -0.083   3.938   7.656  0.7855  0.4453  0.4543
  510MOL0     H68812   0.077   3.936   7.716  0.3105  0.5919  1.0324
  510MOL0     H68813  -0.012   4.083   7.741  2.9202  1.3433  0.5021
  510MOL0     H68814  -0.504   4.151   7.277 -2.3701  0.5780 -2.0486
  510MOL0     H68815  -0.710   4.294   7.313 -0.1679 -0.3946  3.5034
  510MOL0     H68816  -0.639   4.692   7.515 -0.5603  0.9810  0.6033
  510MOL0     H68817  -0.816   4.699   7.475 -0.6126  2.6900  5.0153
  510MOL0     H68818  -0.677   4.585   7.718 -1.6926 -1.0772  0.7952
  510MOL0     H68819  -0.821   4.685   7.704 -0.1577  0.3991 -0.2870
  510MOL0     H68820  -0.851   4.457   7.793 -0.2278 -5.0647 -0.7647
  510MOL0     H68821  -0.812   4.384   7.642  1.5648 -0.7952  0.6290
  510MOL0     H68822  -1.043   4.573   7.691 -1.6229 -2.0663 -0.4445
  510MOL0     H68823  -0.998   4.536   7.522 -0.6901 -0.4011 -0.6839
  510MOL0     H68824  -1.069   4.337   7.742  0.3460 -3.9324 -1.4695
  510MOL0     H68825  -1.023   4.284   7.591 -0.0669  0.2321 -0.2117
  510MOL0     H68826  -1.206   4.388   7.458 -2.3301 -1.6092  0.6510
  510MOL0     H68827  -1.264   4.275   7.574 -1.1142 -0.0004 -2.8365
  510MOL0     H68828  -1.243   4.579   7.644 -0.9184  0.7527  0.2399
  510MOL0     H68829  -1.305   4.457   7.743 -3.1399  1.5315 -0.4179
  510MOL0     H68830  -1.467   4.594   7.617  0.4865 -0.2898  1.2906
  510MOL0     H68831  -1.514   4.434   7.595 -1.0044  1.0642 -2.0668
  510MOL0     H68832  -0.478   4.567   7.546  1.9804 -0.3790  0.8415
  510MOL0     H68833  -0.285   4.413   7.537  0.2361  0.5412 -0.2697
  510MOL0     H68834  -0.079   4.193   7.244  0.4014  0.6860 -0.1527
  510MOL0     H68835   0.161   4.174   7.176 -1.8637 -0.6461 -0.9540
  510MOL0     H68836   1.546   3.450   6.307 -0.8341  0.4022  0.7751
  510MOL0     H68837   1.770   3.400   6.325  1.2940  1.3859  0.1757
  510MOL0     H68838   2.242   3.710   6.407  0.4221  0.1504 -4.9817
  510MOL0     H68839   2.467   3.631   6.354  0.1011  0.6222  1.3723
  510MOL0     H68840   2.557   3.194   6.463  0.2691 -2.3069 -1.4655
  510MOL0     H68841   2.483   3.192   6.303  0.5861 -2.2279  0.3662
  510MOL0     H68842   2.720   3.252   6.220  1.7578  1.9879  0.9004
  510MOL0     H68843   2.715   3.092   6.302  1.4236 -0.5495  1.7703
  510MOL0     H68844   2.842   3.179   6.476  2.3241 -0.0526 -0.4783
  510MOL0     H68845   2.812   3.352   6.457  0.4721  0.0510 -1.5515
  510MOL0     H68846   2.936   3.343   6.236  0.6805  1.3061  0.7528
  510MOL0     H68847   2.968   3.171   6.291 -1.0875 -0.4938  2.1554
  510MOL0     H68848   3.272   3.391   6.471 -0.4349  1.7784 -0.1478
  510MOL0     H68849   2.337   3.228   6.471 -2.6186 -0.1296  2.1233
  510MOL0     H68850   2.140   3.313   6.538  2.3328 -2.2661 -1.4388
  511MOL0     O68851  10.301   9.771   4.666  0.4777 -0.7934  0.1558
  511MOL0     C68852  10.405   9.799   4.730  0.1624  0.9011  0.0514
  511MOL0     O68853  10.407   9.851   4.849  0.0326  0.2810 -0.1086
  511MOL0     C68854  10.282   9.884   4.899 -0.2173 -0.0216  0.5024
  511MOL0     C68855  10.206   9.787   4.960  0.3800 -0.2138 -0.0673
  511MOL0     C68856  10.079   9.817   5.020  0.2952 -1.0920  0.1622
  511MOL0     C68857  10.040   9.951   5.035 -0.0845  0.3467 -0.7055
  511MOL0     O68858   9.923  10.000   5.091  0.6330 -0.3368 -0.4099
  511MOL0     C68859   9.815   9.893   5.089  0.5629 -0.7678  0.3298
  511MOL0     C68860   9.670   9.944   5.092  0.3727 -0.5312 -0.1682
  511MOL0     C68861   9.569   9.834   5.081 -0.5318  0.7439  0.4431
  511MOL0     C68862   9.428   9.873   5.070  0.0302  0.2241  0.0137
  511MOL0     C68863   9.319   9.764   5.101 -1.3024  0.3820  0.5613
  511MOL0     C68864   9.194   9.830   5.149 -0.2601 -0.4787  0.1033
  511MOL0     C68865   9.141   9.939   5.044 -0.2505  1.0999 -0.2446
  511MOL0     C68866   8.984   9.934   5.054  0.6415 -0.8604  0.2530
  511MOL0     N68867   8.932  10.053   4.974  0.5296 -0.0592 -0.0245
  511MOL0     C68868   8.868  10.042   4.854 -0.7332 -0.0072 -0.5108
  511MOL0     C68869   8.811  10.165   4.824  0.8406  0.7847 -1.4142
  511MOL0     C68870   8.709  10.216   4.725 -1.0411 -0.0451  0.6232
  511MOL0     C68871   8.581  10.124   4.736 -0.1444 -0.1921  0.0954
  511MOL0     C68872   8.489  10.141   4.604 -0.4751  0.3844  0.2202
  511MOL0     C68873   8.361  10.058   4.623  0.3202 -0.3637 -0.7612
  511MOL0     O68874   8.276  10.077   4.511 -0.3000 -0.2774  0.9764
  511MOL0     C68875   8.168   9.998   4.497 -1.0496  0.5117 -0.5905
  511MOL0     C68876   8.132   9.889   4.584 -0.4298  0.7969  0.0935
  511MOL0     C68877   8.001   9.818   4.573 -1.8232  0.1769 -0.5226
  511MOL0     C68878   7.983   9.696   4.657  0.7240  0.7814 -0.7022
  511MOL0     C68879   7.912   9.850   4.466 -0.1960  0.3429 -0.1909
  511MOL0     C68880   7.784   9.782   4.431  0.3263 -0.4673 -0.9552
  511MOL0     O68881   7.715   9.830   4.323 -0.1653 -0.1772  0.3157
  511MOL0     C68882   7.593   9.782   4.287 -0.8915 -0.5668  0.2449
  511MOL0     C68883   7.507   9.878   4.242  0.5215  0.1785 -0.0225
  511MOL0     C68884   7.388   9.846   4.183  0.2993  1.3524 -0.6913
  511MOL0     C68885   7.362   9.714   4.149  0.0125  0.3814 -1.1642
  511MOL0     O68886   7.252   9.653   4.092 -0.5116  0.7606  0.7711
  511MOL0     C68887   7.144   9.745   4.052 -0.0387  1.3167  0.2277
  511MOL0     C68888   7.035   9.651   3.984 -0.0341  0.3997 -0.9075
  511MOL0     C68889   6.895   9.717   4.013 -0.5738 -0.1849  0.6101
  511MOL0     C68890   6.793   9.660   3.910  0.0545  0.1368  0.6597
  511MOL0     C68891   6.659   9.745   3.917 -0.6403  0.0674  0.2156
  511MOL0     C68892   6.562   9.696   3.813 -0.3159  0.1866  0.9650
  511MOL0     C68893   6.436   9.782   3.800  0.3466  0.2101  0.2659
  511MOL0     C68894   6.343   9.720   3.702 -0.9070 -0.0801 -0.3211
  511MOL0    Cl68895   6.252   9.581   3.777 -0.1386  0.0496  0.2747
  511MOL0     C68896   7.457   9.616   4.189  0.0400 -0.1046  0.2947
  511MOL0     C68897   7.570   9.646   4.267 -0.6287 -0.6883  0.2020
  511MOL0     O68898   7.737   9.700   4.509 -0.5551  0.9145  0.6945
  511MOL0     C68899   7.958   9.952   4.383 -0.1470 -0.1736 -0.2543
  511MOL0     C68900   8.076  10.022   4.403  0.0730  0.2693 -1.1573
  511MOL0     N68901   8.831  10.240   4.936 -0.0732  1.2963 -0.6040
  511MOL0     N68902   8.897  10.174   5.027  1.4569  0.2683  0.5475
  511MOL0     C68903  10.126  10.045   5.001  0.3047  0.0187  0.5327
  511MOL0     C68904  10.243  10.017   4.929 -0.4897 -0.1215 -0.5205
  511MOL0     C68905  10.534   9.761   4.668 -0.6556 -0.3883  0.5138
  511MOL0     C68906  10.535   9.660   4.575  0.3753 -0.1462  0.4228
  511MOL0     C68907  10.653   9.627   4.501  0.4181  0.0396 -0.0387
  511MOL0     C68908  10.774   9.695   4.513 -0.7235  0.1196 -0.4191
  511MOL0     O68909  10.879   9.648   4.433  0.0516 -0.8318  0.3559
  511MOL0     C68910  11.011   9.690   4.466  0.0904  0.2860 -0.2102
  511MOL0     C68911  11.112   9.600   4.387  0.0272  0.7084 -0.1647
  511MOL0     C68912  11.261   9.653   4.412 -0.0891  0.3419 -0.4015
  511MOL0     C68913  11.364   9.627   4.301  0.9782 -0.2029  0.0490
  511MOL0     C68914  11.345   9.503   4.234  0.6088 -0.4941  0.0963
  511MOL0     C68915  11.325   9.399   4.176 -0.2758  0.1772  0.1446
  511MOL0     C68916  10.768   9.795   4.610 -0.4856 -0.2394  0.1676
  511MOL0     C68917  10.655   9.824   4.693  0.4840 -0.5400  0.0387
  511MOL0     H68918  10.235   9.684   4.944 -0.3040 -0.4593  0.2547
  511MOL0     H68919  10.016   9.736   5.054 -0.3921  1.2232  5.4413
  511MOL0     H68920   9.817   9.847   4.989  1.3438  0.2283 -0.1237
  511MOL0     H68921   9.834   9.807   5.154  1.8224 -2.4352 -2.0851
  511MOL0     H68922   9.664  10.007   5.182  2.0406  0.6625 -0.8313
  511MOL0     H68923   9.652  10.001   5.000  1.5573 -2.2668 -1.5477
  511MOL0     H68924   9.597   9.778   4.991 -0.5822  2.3571 -0.6041
  511MOL0     H68925   9.581   9.762   5.163  0.9956  1.2667  0.7076
  511MOL0     H68926   9.418   9.955   5.143  3.7017 -1.4503  2.7293
  511MOL0     H68927   9.405   9.897   4.966  0.9456 -0.4825 -0.3638
  511MOL0     H68928   9.311   9.701   5.012 -0.1437 -0.3625  0.9649
  511MOL0     H68929   9.348   9.707   5.190  0.7776 -1.1009 -0.9585
  511MOL0     H68930   9.127   9.747   5.173  0.2843 -0.2563  2.6719
  511MOL0     H68931   9.217   9.883   5.241  1.3362 -1.3793  0.2522
  511MOL0     H68932   9.174  10.041   5.069  0.9770  0.2103  2.0525
  511MOL0     H68933   9.164   9.910   4.941 -1.7490  0.6286 -0.4679
  511MOL0     H68934   8.945   9.943   5.156 -2.4898 -4.3737 -0.4118
  511MOL0     H68935   8.943   9.843   5.008 -1.0715  1.1799 -2.6239
  511MOL0     H68936   8.883   9.958   4.788  0.4475  0.7129 -1.1930
  511MOL0     H68937   8.683  10.320   4.746 -1.9453 -0.7599  3.4335
  511MOL0     H68938   8.749  10.211   4.623 -0.7267 -1.8817  0.8035
  511MOL0     H68939   8.534  10.154   4.830  1.7056  3.1720  0.0918
  511MOL0     H68940   8.611  10.019   4.745 -1.1558 -0.6697 -1.8114
  511MOL0     H68941   8.542  10.101   4.517 -2.3837 -2.3396  0.1963
  511MOL0     H68942   8.469  10.246   4.582  0.0628  0.0356 -2.2777
  511MOL0     H68943   8.324  10.087   4.722  3.7810  1.1306  0.2838
  511MOL0     H68944   8.397   9.955   4.627  0.4527 -0.2932  1.9236
  511MOL0     H68945   8.204   9.853   4.658 -0.8515  1.8627  1.0408
  511MOL0     H68946   7.958   9.605   4.601  3.0162 -1.3392  1.4530
  511MOL0     H68947   8.077   9.660   4.699  0.9855  1.5338 -0.6344
  511MOL0     H68948   7.914   9.697   4.742 -1.5121  0.8178 -2.4313
  511MOL0     H68949   7.541   9.981   4.254  0.1825  0.1450  1.2766
  511MOL0     H68950   7.311   9.915   4.150 -3.0676 -1.6612  0.2683
  511MOL0     H68951   7.099   9.796   4.138 -1.2084  0.5384  0.0994
  511MOL0     H68952   7.171   9.815   3.972  1.3273 -2.6030 -3.0812
  511MOL0     H68953   7.070   9.650   3.881 -0.0184  1.9711 -0.9417
  511MOL0     H68954   7.040   9.553   4.034 -3.8074  1.0681  1.1907
  511MOL0     H68955   6.905   9.826   4.004  0.3680 -0.1972  1.3150
  511MOL0     H68956   6.868   9.705   4.118 -1.9923  2.3762  0.6105
  511MOL0     H68957   6.831   9.648   3.808 -0.7749  3.5240 -0.1594
  511MOL0     H68958   6.769   9.562   3.952 -1.3454  0.8792  1.6921
  511MOL0     H68959   6.671   9.853   3.918 -0.9181  0.1087  1.8847
  511MOL0     H68960   6.615   9.720   4.014 -0.1999 -0.2839  0.3290
  511MOL0     H68961   6.615   9.688   3.717 -2.1296  0.7847 -0.1395
  511MOL0     H68962   6.530   9.594   3.836  0.1876 -0.5528 -1.3152
  511MOL0     H68963   6.470   9.882   3.770  2.3442 -0.5224 -0.0294
  511MOL0     H68964   6.392   9.791   3.900 -0.7891 -1.1414 -0.0889
  511MOL0     H68965   6.389   9.686   3.608 -1.2288 -2.1472  0.2176
  511MOL0     H68966   6.272   9.794   3.665 -2.3451 -1.0189  0.4517
  511MOL0     H68967   7.443   9.512   4.161  0.0839  0.4393 -1.9671
  511MOL0     H68968   7.636   9.567   4.300  1.9928  0.5464 -1.6602
  511MOL0     H68969   7.904  10.004   4.304 -0.3122  1.7499  1.0363
  511MOL0     H68970   8.093  10.107   4.338  2.0405 -1.5746 -3.2299
  511MOL0     H68971  10.087  10.146   5.008 -0.6190 -0.3484  0.9292
  511MOL0     H68972  10.307  10.097   4.893  1.8354 -0.2990  2.8025
  511MOL0     H68973  10.439   9.610   4.566  0.9864 -1.1075 -1.2097
  511MOL0     H68974  10.648   9.547   4.428 -1.5595 -0.2594  0.3710
  511MOL0     H68975  11.035   9.794   4.440  0.3985  0.7762  1.8671
  511MOL0     H68976  11.036   9.689   4.572  1.2776  1.4180 -0.4594
  511MOL0     H68977  11.090   9.609   4.280 -1.8408  1.9771  0.2796
  511MOL0     H68978  11.104   9.496   4.419 -1.6987  0.7362 -0.3946
  511MOL0     H68979  11.300   9.614   4.506  2.3129  0.4026 -1.3056
  511MOL0     H68980  11.257   9.760   4.433 -1.0834  0.2657 -0.1152
  511MOL0     H68981  11.468   9.629   4.337  0.9909  0.9777  0.0030
  511MOL0     H68982  11.354   9.710   4.231 -0.4838 -0.6848 -0.3351
  511MOL0     H68983  11.305   9.305   4.129 -2.9147  1.6877 -1.9890
  511MOL0     H68984  10.862   9.849   4.625 -0.7422 -0.0236  1.0915
  511MOL0     H68985  10.664   9.906   4.764  0.0014  2.5328 -3.1354
  512MOL0     O68986   3.680   5.763   4.620  0.7172 -0.3923  0.1370
  512MOL0     C68987   3.726   5.664   4.560 -0.0614  0.4047 -0.1869
  512MOL0     O68988   3.647   5.557   4.523 -0.1231 -0.7417 -0.6881
  512MOL0     C68989   3.518   5.565   4.559  0.5416 -0.2019 -0.5822
  512MOL0     C68990   3.424   5.575   4.459  0.5910  0.8510  0.2130
  512MOL0     C68991   3.287   5.567   4.498  0.3825 -0.6476  0.5901
  512MOL0     C68992   3.250   5.550   4.635  0.1620 -0.5962 -0.3623
  512MOL0     O68993   3.114   5.539   4.645  0.6103 -0.4380 -0.4026
  512MOL0     C68994   3.069   5.430   4.729 -0.1979 -0.3597  0.4466
  512MOL0     C68995   3.134   5.295   4.683  0.0425  0.3242  0.5349
  512MOL0     C68996   3.068   5.169   4.745  0.5272 -0.0571 -0.1850
  512MOL0     C68997   3.141   5.043   4.706  0.4306  0.5343  0.0713
  512MOL0     C68998   3.066   4.920   4.746  0.2684  0.3114  0.3387
  512MOL0     C68999   2.963   4.891   4.630  0.2066  0.6583  0.0878
  512MOL0     C69000   2.885   4.764   4.662  0.6169 -0.1806 -0.4533
  512MOL0     C69001   2.765   4.751   4.562  0.6538  0.6272 -0.1386
  512MOL0     N69002   2.647   4.677   4.612 -0.2537  0.3811 -0.3871
  512MOL0     C69003   2.633   4.541   4.611 -0.4344 -0.5515  0.4752
  512MOL0     C69004   2.530   4.511   4.699  0.2466 -0.1462 -0.3947
  512MOL0     C69005   2.475   4.378   4.741 -1.2875  0.4045  0.2228
  512MOL0     C69006   2.356   4.340   4.655 -0.4345 -0.2750  0.0450
  512MOL0     C69007   2.240   4.445   4.647 -0.4228  0.1544 -0.0916
  512MOL0     C69008   2.105   4.387   4.582  0.0222 -0.5804 -0.4686
  512MOL0     O69009   2.051   4.291   4.678  0.7298 -0.6355 -0.3891
  512MOL0     C69010   1.974   4.198   4.620  0.1016  0.2640  0.1666
  512MOL0     C69011   2.026   4.102   4.531 -0.7068 -0.1633  0.3056
  512MOL0     C69012   1.940   4.012   4.471  0.3234  0.5128 -0.6857
  512MOL0     C69013   1.998   3.915   4.369  0.1862  0.2189 -0.1482
  512MOL0     C69014   1.800   4.019   4.510 -0.1971  0.5756 -0.3430
  512MOL0     C69015   1.700   3.927   4.445  0.3374 -0.8770  0.2453
  512MOL0     O69016   1.587   3.903   4.520  0.2532  0.0426  0.3712
  512MOL0     C69017   1.475   3.840   4.464  0.1382  0.1889  0.4000
  512MOL0     C69018   1.340   3.886   4.482 -0.2033  0.6114  1.2029
  512MOL0     C69019   1.229   3.817   4.429 -0.7669 -1.0143  0.7829
  512MOL0     C69020   1.257   3.693   4.367  0.3230 -0.1535  0.2486
  512MOL0     O69021   1.137   3.626   4.330 -0.2914 -0.2672  0.2382
  512MOL0     C69022   1.141   3.488   4.296 -0.2068  0.5382  1.2654
  512MOL0     C69023   0.994   3.441   4.277 -0.9190  0.0964 -1.1882
  512MOL0     C69024   0.944   3.472   4.138  0.5717 -0.7493  0.1842
  512MOL0     C69025   0.792   3.425   4.127  0.2258 -0.4784 -0.3207
  512MOL0     C69026   0.734   3.455   3.988 -0.1224  0.4067 -0.8006
  512MOL0     C69027   0.692   3.603   3.964  0.6597  1.4109  0.0902
  512MOL0     C69028   0.593   3.668   4.071  0.3127 -0.1839  0.1487
  512MOL0     C69029   0.461   3.594   4.076 -0.1743 -0.9194  0.8848
  512MOL0    Cl69030   0.335   3.683   4.173 -0.0442  0.2102 -0.0791
  512MOL0     C69031   1.387   3.640   4.356  0.1788 -0.6155  1.2408
  512MOL0     C69032   1.494   3.712   4.409 -0.3452 -0.4927  0.1226
  512MOL0     O69033   1.725   3.886   4.335 -0.2493  0.0278 -0.5830
  512MOL0     C69034   1.755   4.120   4.602  0.3380  0.1224  0.0337
  512MOL0     C69035   1.843   4.205   4.649  1.1825 -0.1708 -0.2981
  512MOL0     N69036   2.485   4.623   4.755  0.0996 -0.8594 -0.3206
  512MOL0     N69037   2.552   4.725   4.701  0.1475  0.7318 -0.2088
  512MOL0     C69038   3.343   5.548   4.737 -0.4413 -0.5891  0.2771
  512MOL0     C69039   3.469   5.553   4.701 -0.2958  0.2983  0.1598
  512MOL0     C69040   3.870   5.669   4.530  0.0026  0.2566 -0.4790
  512MOL0     C69041   3.938   5.563   4.477 -0.0480  0.1482 -0.4463
  512MOL0     C69042   4.078   5.567   4.453  0.2687  0.1577 -0.5267
  512MOL0     C69043   4.153   5.683   4.479  0.6773 -0.0528 -0.3847
  512MOL0     O69044   4.288   5.676   4.441  0.1754 -0.4295  0.0406
  512MOL0     C69045   4.372   5.781   4.484  0.6749 -0.4415 -0.1782
  512MOL0     C69046   4.513   5.734   4.508  0.2786  0.0666  0.2536
  512MOL0     C69047   4.599   5.840   4.570  0.0615  0.6424  0.6442
  512MOL0     C69048   4.729   5.759   4.632 -0.2590 -0.3376 -0.2749
  512MOL0     C69049   4.722   5.719   4.768 -0.5378 -0.0316  0.4713
  512MOL0     C69050   4.716   5.706   4.891  0.0170 -0.6377 -0.0733
  512MOL0     C69051   4.075   5.801   4.522 -0.2654  0.2663 -0.1355
  512MOL0     C69052   3.941   5.786   4.562  0.6713  0.0510  0.9995
  512MOL0     H69053   3.454   5.573   4.355 -1.4547 -2.7398 -0.5019
  512MOL0     H69054   3.209   5.578   4.423 -0.3700  4.0511  1.7624
  512MOL0     H69055   3.091   5.454   4.833  1.3276  0.8043 -0.1095
  512MOL0     H69056   2.961   5.430   4.711 -0.2292  2.6459  0.0872
  512MOL0     H69057   3.123   5.293   4.574  1.3151  1.5686  0.3641
  512MOL0     H69058   3.242   5.292   4.696  0.5378  2.9728 -1.9298
  512MOL0     H69059   3.061   5.179   4.854 -2.5854  1.4063 -0.4189
  512MOL0     H69060   2.965   5.162   4.709  1.5891  0.8177 -3.7486
  512MOL0     H69061   3.168   5.046   4.600  1.1512  3.5584  0.2418
  512MOL0     H69062   3.235   5.037   4.762  0.0317 -0.7776  0.6422
  512MOL0     H69063   3.125   4.828   4.751  0.8467  0.6295 -0.4950
  512MOL0     H69064   3.006   4.928   4.837 -0.3420 -0.6281  0.0342
  512MOL0     H69065   2.898   4.976   4.606  0.2440  0.5516 -0.4020
  512MOL0     H69066   3.025   4.863   4.545 -1.2573 -1.9212 -0.2241
  512MOL0     H69067   2.947   4.674   4.662 -1.2744 -1.6786  3.1683
  512MOL0     H69068   2.840   4.774   4.762 -1.5212 -2.0268 -1.1415
  512MOL0     H69069   2.806   4.712   4.469 -1.3024  0.9485 -1.1803
  512MOL0     H69070   2.721   4.848   4.537  1.6252  1.1192  0.0131
  512MOL0     H69071   2.704   4.478   4.556 -0.5042 -1.7525  1.7084
  512MOL0     H69072   2.554   4.305   4.723  3.0315  4.4972  0.4462
  512MOL0     H69073   2.452   4.388   4.847  1.1619  2.5379  0.6718
  512MOL0     H69074   2.325   4.243   4.694  2.6484 -0.7769  1.5169
  512MOL0     H69075   2.386   4.323   4.551 -1.8531 -1.3854 -0.2144
  512MOL0     H69076   2.259   4.538   4.591 -1.0896 -0.2977 -1.0966
  512MOL0     H69077   2.208   4.484   4.743 -1.1624  0.2859 -0.3875
  512MOL0     H69078   2.141   4.338   4.491  1.6489 -1.3332  0.5379
  512MOL0     H69079   2.039   4.470   4.556 -0.3758 -1.1998 -1.5259
  512MOL0     H69080   2.132   4.091   4.512 -0.4380 -3.0082  2.7756
  512MOL0     H69081   2.108   3.919   4.373  0.3425 -0.6040 -2.1113
  512MOL0     H69082   1.964   3.813   4.390 -0.2618  0.0542 -1.5310
  512MOL0     H69083   1.974   3.937   4.264 -2.4519  0.4772  0.4604
  512MOL0     H69084   1.336   3.977   4.539  2.6213  1.5055  0.1654
  512MOL0     H69085   1.137   3.867   4.453  0.3185  1.5869 -0.1060
  512MOL0     H69086   1.194   3.482   4.200 -0.4630 -1.4323  1.2054
  512MOL0     H69087   1.193   3.432   4.374  1.9739  1.8232  0.8284
  512MOL0     H69088   0.989   3.334   4.303  0.6539 -0.2990 -2.3519
  512MOL0     H69089   0.936   3.495   4.353 -0.3770  1.1095 -1.4932
  512MOL0     H69090   1.004   3.418   4.065  1.1178  0.8302 -0.5871
  512MOL0     H69091   0.947   3.580   4.119 -0.5689 -0.3853  1.8015
  512MOL0     H69092   0.783   3.317   4.143 -1.3060 -0.2809  0.3568
  512MOL0     H69093   0.732   3.460   4.212  0.2054 -1.5611  0.1295
  512MOL0     H69094   0.649   3.388   3.979  0.8744 -0.6796 -2.5618
  512MOL0     H69095   0.795   3.420   3.904 -0.2932  0.6617 -1.0340
  512MOL0     H69096   0.786   3.657   3.951  2.2127 -1.4358 -1.4272
  512MOL0     H69097   0.630   3.608   3.874 -2.4182  1.0890  2.0422
  512MOL0     H69098   0.572   3.771   4.043  0.3289  0.4269  2.2572
  512MOL0     H69099   0.644   3.678   4.167 -0.2752 -0.8028  0.5325
  512MOL0     H69100   0.487   3.499   4.124  3.2138 -0.5185  0.1017
  512MOL0     H69101   0.432   3.580   3.971  0.8690  0.0420  0.4428
  512MOL0     H69102   1.399   3.541   4.314  0.1933  0.6782 -2.0459
  512MOL0     H69103   1.594   3.668   4.411 -0.2085 -0.1744  0.4835
  512MOL0     H69104   1.650   4.128   4.630  0.7261 -0.3956  1.7480
  512MOL0     H69105   1.808   4.273   4.727  0.2015  0.1314 -0.9791
  512MOL0     H69106   3.311   5.538   4.840 -0.9916  0.1035  0.1819
  512MOL0     H69107   3.544   5.539   4.778 -1.8024  0.1046  1.6392
  512MOL0     H69108   3.883   5.471   4.461  1.5293 -0.6648 -1.4884
  512MOL0     H69109   4.123   5.484   4.401  0.8079  0.1375 -0.0471
  512MOL0     H69110   4.366   5.864   4.414 -0.4991 -1.3405 -1.1939
  512MOL0     H69111   4.337   5.809   4.584 -0.2446 -1.3225 -0.2334
  512MOL0     H69112   4.558   5.713   4.410 -0.4433 -1.1254  0.1549
  512MOL0     H69113   4.510   5.652   4.581  0.8079 -0.0554  0.1408
  512MOL0     H69114   4.557   5.901   4.650  2.2485  1.3312  1.3245
  512MOL0     H69115   4.632   5.912   4.495 -0.0881  0.5412  0.4801
  512MOL0     H69116   4.817   5.823   4.633  0.5765 -1.4348  0.9983
  512MOL0     H69117   4.764   5.679   4.565  0.2351  0.7618 -1.3754
  512MOL0     H69118   4.701   5.699   4.997 -4.0018 -1.2937 -0.5455
  512MOL0     H69119   4.123   5.896   4.545 -0.4629  0.6557 -1.2789
  512MOL0     H69120   3.880   5.867   4.601 -0.4880 -0.9374  1.2966
  513MOL0     O69121   4.980   7.435   1.341 -0.6799 -0.5506  0.1514
  513MOL0     C69122   4.973   7.337   1.271  0.1852 -0.2982 -0.4911
  513MOL0     O69123   4.862   7.259   1.258 -0.0466 -0.4557  0.3493
  513MOL0     C69124   4.754   7.290   1.329  0.3863  0.0389 -0.3713
  513MOL0     C69125   4.753   7.267   1.470 -0.5393 -0.4857  0.6805
  513MOL0     C69126   4.640   7.303   1.544  0.3451 -0.1575  0.3331
  513MOL0     C69127   4.525   7.355   1.478  0.3038 -0.2894 -0.0819
  513MOL0     O69128   4.436   7.413   1.559  0.0937 -0.6655 -0.6475
  513MOL0     C69129   4.298   7.432   1.522 -0.5221 -0.2557 -0.1334
  513MOL0     C69130   4.220   7.464   1.651  0.1012 -1.0825 -0.5380
  513MOL0     C69131   4.074   7.508   1.621  0.2237 -0.3418  1.0673
  513MOL0     C69132   3.986   7.392   1.596  0.9597  0.7855 -0.2876
  513MOL0     C69133   3.835   7.424   1.559 -0.1756  0.6336 -0.0173
  513MOL0     C69134   3.749   7.470   1.679 -0.9924  0.7353  0.3459
  513MOL0     C69135   3.620   7.551   1.647  0.4174 -0.3363  0.7356
  513MOL0     C69136   3.521   7.483   1.557 -0.5426  0.4442 -1.2273
  513MOL0     N69137   3.473   7.359   1.623 -0.4018  0.4073  0.7164
  513MOL0     C69138   3.389   7.355   1.728  0.2735  0.1623  0.0008
  513MOL0     C69139   3.394   7.224   1.774 -0.5785  0.4036  0.3264
  513MOL0     C69140   3.347   7.180   1.907  0.4170  0.2259 -0.0747
  513MOL0     C69141   3.197   7.124   1.902 -1.0145 -0.0207 -0.8777
  513MOL0     C69142   3.175   6.994   1.987  0.1783  0.3341 -0.1773
  513MOL0     C69143   3.025   6.944   2.004  0.1879 -0.8196 -0.4703
  513MOL0     O69144   2.952   7.005   2.115  0.2853  0.1304  0.0028
  513MOL0     C69145   2.814   6.982   2.115  0.6719 -0.4527 -0.1473
  513MOL0     C69146   2.726   6.956   2.010  0.3110  0.8428  0.9915
  513MOL0     C69147   2.588   6.937   2.027 -0.4193 -0.1032 -0.5599
  513MOL0     C69148   2.501   6.911   1.901 -0.5662 -0.1632  0.1275
  513MOL0     C69149   2.537   6.927   2.158  0.0177 -0.3418 -0.5990
  513MOL0     C69150   2.405   6.900   2.197  0.0591  1.1824  0.4611
  513MOL0     O69151   2.309   6.965   2.119  0.3475 -0.1225  0.0502
  513MOL0     C69152   2.177   6.941   2.121 -0.0129  0.3084  0.4103
  513MOL0     C69153   2.107   6.988   2.004  0.5035 -0.8492  0.0130
  513MOL0     C69154   1.972   6.966   1.982  0.1481  0.4062 -0.5952
  513MOL0     C69155   1.901   6.891   2.078  0.4992  0.1263 -0.0970
  513MOL0     O69156   1.771   6.851   2.037 -1.1821 -0.1245 -0.3622
  513MOL0     C69157   1.681   6.793   2.133 -0.2112  0.5058 -0.1947
  513MOL0     C69158   1.552   6.744   2.074 -0.5458 -0.2962 -0.4221
  513MOL0     C69159   1.474   6.682   2.189  0.2554  0.3824 -0.6814
  513MOL0     C69160   1.337   6.633   2.145  0.6999  0.2625 -0.3562
  513MOL0     C69161   1.277   6.548   2.268 -0.1239  0.5591 -1.4648
  513MOL0     C69162   1.159   6.464   2.245 -0.0184 -1.1898 -0.0853
  513MOL0     C69163   1.188   6.355   2.148  0.9447 -0.5447  0.1359
  513MOL0     C69164   1.080   6.257   2.140 -0.2403 -0.4850 -0.0122
  513MOL0    Cl69165   0.933   6.322   2.064  0.0662  0.4419 -0.4904
  513MOL0     C69166   1.963   6.849   2.192  0.2010 -0.4628 -0.1588
  513MOL0     C69167   2.102   6.875   2.219  0.0863  0.6687  0.6108
  513MOL0     O69168   2.391   6.823   2.286 -0.4426 -0.1505  0.3962
  513MOL0     C69169   2.620   6.972   2.260  0.0922 -0.0499 -0.1701
  513MOL0     C69170   2.751   6.995   2.236 -1.2103 -0.2161 -0.1503
  513MOL0     N69171   3.468   7.155   1.678 -0.0541 -0.3648 -1.5430
  513MOL0     N69172   3.505   7.232   1.582  0.4499  0.0891  0.0546
  513MOL0     C69173   4.527   7.370   1.341 -0.1514  0.7510 -0.2349
  513MOL0     C69174   4.635   7.330   1.267 -0.2837  0.1803  0.1992
  513MOL0     C69175   5.105   7.287   1.218 -0.6611  0.4773 -0.5947
  513MOL0     C69176   5.210   7.369   1.184  0.2107  1.1319  0.1079
  513MOL0     C69177   5.333   7.316   1.135  0.3797  0.3104 -0.0678
  513MOL0     C69178   5.353   7.178   1.137  0.2185  0.3422  0.1272
  513MOL0     O69179   5.477   7.128   1.091  0.1492 -0.9590 -0.1525
  513MOL0     C69180   5.502   6.988   1.083 -0.0739  0.2711 -0.7182
  513MOL0     C69181   5.655   6.944   1.069 -1.0455 -0.1531  0.8220
  513MOL0     C69182   5.748   7.020   1.159  0.0436  0.2849 -0.1983
  513MOL0     C69183   5.884   6.950   1.182 -0.5923 -0.5752  0.2629
  513MOL0     C69184   5.970   6.953   1.063  0.4974 -0.3560  0.7854
  513MOL0     C69185   6.043   6.948   0.965  0.0875  0.1261  0.8068
  513MOL0     C69186   5.243   7.092   1.174  0.0664  0.1196  0.0007
  513MOL0     C69187   5.124   7.149   1.210  0.7056  0.0050  0.1366
  513MOL0     H69188   4.842   7.222   1.514  2.4529  1.2084 -3.0360
  513MOL0     H69189   4.629   7.281   1.650 -1.8184 -0.7074  0.0369
  513MOL0     H69190   4.286   7.514   1.450 -2.2656 -0.1405  0.2358
  513MOL0     H69191   4.269   7.338   1.473  1.2703 -1.3556  0.8197
  513MOL0     H69192   4.222   7.381   1.721 -2.3720  0.4582  1.5129
  513MOL0     H69193   4.281   7.535   1.708 -1.7088  0.7052 -0.6946
  513MOL0     H69194   4.039   7.552   1.715 -1.2745 -0.4661  0.5884
  513MOL0     H69195   4.073   7.586   1.545 -0.7777  0.0661  1.4787
  513MOL0     H69196   4.036   7.336   1.516 -0.3568  2.7346 -2.6136
  513MOL0     H69197   3.983   7.337   1.690  0.4902 -0.8558 -1.2282
  513MOL0     H69198   3.822   7.481   1.467  0.6747 -0.5457 -0.9048
  513MOL0     H69199   3.796   7.325   1.533  0.9789  1.3210 -5.5296
  513MOL0     H69200   3.723   7.382   1.739  3.0355 -2.9982 -2.7244
  513MOL0     H69201   3.815   7.542   1.729 -2.5627  3.2472 -0.9726
  513MOL0     H69202   3.569   7.584   1.738 -0.1561  0.1134  0.2545
  513MOL0     H69203   3.658   7.633   1.585  0.3806 -0.8601  0.0055
  513MOL0     H69204   3.562   7.463   1.458 -0.0919 -0.3387 -0.8853
  513MOL0     H69205   3.452   7.567   1.542  1.1502  1.9064 -1.1300
  513MOL0     H69206   3.350   7.448   1.771  3.8473  0.6407  2.6181
  513MOL0     H69207   3.409   7.096   1.941 -2.2146 -1.2992  1.2953
  513MOL0     H69208   3.352   7.252   1.989  2.5414  0.9716 -0.7974
  513MOL0     H69209   3.181   7.102   1.796  0.7908 -1.7573 -0.8587
  513MOL0     H69210   3.125   7.197   1.940 -0.0006  0.3216  0.4557
  513MOL0     H69211   3.227   7.006   2.082 -0.0272  1.2699 -0.1752
  513MOL0     H69212   3.218   6.915   1.925 -2.1885  0.2792 -1.9146
  513MOL0     H69213   3.020   6.836   2.023 -0.6329 -0.7009  0.0467
  513MOL0     H69214   2.982   6.957   1.904  0.0331 -2.1226 -0.5908
  513MOL0     H69215   2.766   6.949   1.910  0.3766  0.2813  1.0510
  513MOL0     H69216   2.424   6.835   1.912 -2.9481  2.3391  2.2666
  513MOL0     H69217   2.461   7.008   1.872  1.0229  0.6233  0.4361
  513MOL0     H69218   2.567   6.884   1.818 -3.2701 -2.3679 -1.4561
  513MOL0     H69219   2.166   7.056   1.942  0.3821 -0.3147  0.4807
  513MOL0     H69220   1.926   7.013   1.895  0.2125  0.6198 -0.5161
  513MOL0     H69221   1.729   6.714   2.190 -2.1952 -1.8338 -1.5898
  513MOL0     H69222   1.652   6.875   2.200 -2.6213 -0.9724  0.7015
  513MOL0     H69223   1.499   6.837   2.051 -2.5065 -0.6542  2.1301
  513MOL0     H69224   1.576   6.675   1.993 -1.3169 -2.7435  1.2880
  513MOL0     H69225   1.473   6.757   2.268 -0.0421 -0.6558  0.3440
  513MOL0     H69226   1.527   6.591   2.219  1.1262  1.0615 -0.1346
  513MOL0     H69227   1.275   6.722   2.126 -0.2471 -0.0243  1.2183
  513MOL0     H69228   1.352   6.573   2.055  2.0886 -0.6275  0.4415
  513MOL0     H69229   1.247   6.620   2.345  1.9922 -0.3334  0.2959
  513MOL0     H69230   1.357   6.494   2.319  0.5865 -0.6031 -3.7060
  513MOL0     H69231   1.120   6.433   2.342 -1.7172 -0.7928 -0.6033
  513MOL0     H69232   1.084   6.530   2.200  3.2033  1.1763 -2.5150
  513MOL0     H69233   1.282   6.310   2.182  1.5669  0.5103 -0.1407
  513MOL0     H69234   1.195   6.402   2.049  0.1332 -0.3375  0.1747
  513MOL0     H69235   1.051   6.208   2.234 -0.4372  2.7689  1.7561
  513MOL0     H69236   1.119   6.176   2.078  0.4965  1.1217 -1.7154
  513MOL0     H69237   1.896   6.812   2.270 -1.0884  2.4680  0.2518
  513MOL0     H69238   2.154   6.837   2.306  2.2543  1.1244 -0.4187
  513MOL0     H69239   2.594   6.968   2.365  1.8596 -2.5885  0.2591
  513MOL0     H69240   2.815   7.017   2.321  0.4232  1.4781 -1.7256
  513MOL0     H69241   4.442   7.406   1.284 -0.4576  1.6881  0.7967
  513MOL0     H69242   4.627   7.349   1.161 -0.1165 -0.8638 -0.0100
  513MOL0     H69243   5.190   7.474   1.201 -0.9159  0.8717  0.4418
  513MOL0     H69244   5.419   7.375   1.104  0.8938  0.1989  1.0810
  513MOL0     H69245   5.451   6.939   1.166 -1.5207 -0.6855 -2.1081
  513MOL0     H69246   5.445   6.960   0.994  0.0411 -1.3096 -0.3204
  513MOL0     H69247   5.689   6.979   0.971  1.3334 -1.6727  1.0228
  513MOL0     H69248   5.668   6.836   1.079  1.6649 -0.2257 -1.9208
  513MOL0     H69249   5.687   7.043   1.247  0.4477  2.5767 -0.4466
  513MOL0     H69250   5.779   7.116   1.119 -2.0996  0.8720 -0.5835
  513MOL0     H69251   5.854   6.846   1.199 -0.6167 -0.9579 -1.7555
  513MOL0     H69252   5.931   6.989   1.272  1.1526  0.2181 -0.9356
  513MOL0     H69253   6.119   6.958   0.890 -0.7393  3.3742  0.2567
  513MOL0     H69254   5.269   6.987   1.177  4.5307  0.7327 -4.2359
  513MOL0     H69255   5.042   7.093   1.253 -0.4725  1.7085  0.2040
  514MOL0     O69256   3.475   3.480   8.635  0.2619 -0.3495 -0.1533
  514MOL0     C69257   3.471   3.589   8.698  0.5108  0.1368 -0.4850
  514MOL0     O69258   3.365   3.648   8.754  0.1314  0.3286 -0.2556
  514MOL0     C69259   3.245   3.587   8.730 -0.4086 -0.3583  0.8992
  514MOL0     C69260   3.150   3.651   8.659  0.1691  0.6781  0.9025
  514MOL0     C69261   3.027   3.590   8.631 -0.4222  0.0553 -1.3818
  514MOL0     C69262   2.997   3.460   8.676  1.1611  0.2553 -0.0889
  514MOL0     O69263   2.876   3.385   8.664 -0.1120 -0.1820 -0.1916
  514MOL0     C69264   2.767   3.438   8.579 -0.2264  0.2245  0.2233
  514MOL0     C69265   2.696   3.322   8.507 -0.6462 -0.4019  0.1406
  514MOL0     C69266   2.635   3.222   8.605 -0.3302  0.1103 -0.5811
  514MOL0     C69267   2.584   3.093   8.528 -0.1612  1.0591 -0.2343
  514MOL0     C69268   2.439   3.075   8.567  0.4415  0.0286  0.0275
  514MOL0     C69269   2.374   2.955   8.496 -0.2533  0.3421 -0.2939
  514MOL0     C69270   2.247   2.926   8.558  0.1520  1.0961 -0.5919
  514MOL0     C69271   2.185   2.805   8.493 -0.5187 -0.0611  0.3680
  514MOL0     N69272   2.056   2.766   8.552  0.7241  0.6300 -0.6271
  514MOL0     C69273   2.048   2.706   8.669 -0.2492  0.0542 -0.4082
  514MOL0     C69274   1.913   2.700   8.693 -0.5950 -0.4277 -0.5776
  514MOL0     C69275   1.863   2.621   8.819 -0.2998 -0.5454 -0.3411
  514MOL0     C69276   1.876   2.712   8.951  0.8824 -0.1271  0.1725
  514MOL0     C69277   1.799   2.642   9.063  0.0770  0.6022 -0.2102
  514MOL0     C69278   1.785   2.734   9.184 -0.1592  0.6664 -0.2507
  514MOL0     O69279   1.713   2.673   9.291 -0.9805 -0.1178 -0.6846
  514MOL0     C69280   1.580   2.713   9.315 -0.4226  0.7397  0.4247
  514MOL0     C69281   1.547   2.753   9.443 -0.3842  0.1176 -0.2034
  514MOL0     C69282   1.416   2.806   9.466 -0.3478  0.4378 -0.4174
  514MOL0     C69283   1.384   2.852   9.608  0.6874 -0.1100 -0.2285
  514MOL0     C69284   1.317   2.805   9.362 -1.1027 -0.6313 -0.1192
  514MOL0     C69285   1.174   2.840   9.370 -0.2978  0.1529  0.2849
  514MOL0     O69286   1.103   2.822   9.249  0.3578 -0.7816  0.0549
  514MOL0     C69287   0.987   2.895   9.222  0.5182 -0.1311  0.3299
  514MOL0     C69288   0.935   3.009   9.284  0.1204 -1.2951 -0.7156
  514MOL0     C69289   0.803   3.046   9.256 -0.9861 -0.0113  0.4600
  514MOL0     C69290   0.725   2.975   9.163  0.3298 -0.3768 -0.1167
  514MOL0     O69291   0.594   3.015   9.155  0.2556  0.3332 -0.0159
  514MOL0     C69292   0.501   2.940   9.076 -0.0869  0.4517 -0.1463
  514MOL0     C69293   0.367   3.008   9.068  0.8271  0.0966  1.0482
  514MOL0     C69294   0.365   3.125   8.969 -0.0742 -0.0734 -0.1389
  514MOL0     C69295   0.225   3.148   8.911 -0.4377  0.6904 -0.8240
  514MOL0     C69296   0.216   3.066   8.783  0.3424  0.1809  0.3807
  514MOL0     C69297   0.092   3.089   8.695  0.2245 -0.1639  0.2091
  514MOL0     C69298  -0.041   3.085   8.767  0.4062  0.1167 -0.0651
  514MOL0     C69299  -0.076   2.956   8.836  1.3674  0.6284 -0.3866
  514MOL0    Cl69300  -0.133   2.845   8.714  0.3364  0.0490  0.0834
  514MOL0     C69301   0.779   2.867   9.100 -0.5885  0.1241 -0.6081
  514MOL0     C69302   0.906   2.832   9.127 -1.1578  0.4273  0.2165
  514MOL0     O69303   1.125   2.866   9.481  0.3110  1.1791  0.1150
  514MOL0     C69304   1.359   2.746   9.240  0.4871  0.3474 -0.0030
  514MOL0     C69305   1.482   2.699   9.208 -0.0935  0.1156 -0.5551
  514MOL0     N69306   1.847   2.747   8.581  0.1894  0.4199 -0.1500
  514MOL0     N69307   1.930   2.787   8.498 -0.7186 -0.0562  0.4145
  514MOL0     C69308   3.086   3.395   8.754  0.3152  0.0820  0.2256
  514MOL0     C69309   3.206   3.460   8.783  0.0226  0.3561  0.4062
  514MOL0     C69310   3.597   3.665   8.727 -0.4187  0.6694  0.7295
  514MOL0     C69311   3.603   3.783   8.803 -1.2979 -0.5175  1.0045
  514MOL0     C69312   3.729   3.851   8.820 -0.2144 -0.6898  0.7545
  514MOL0     C69313   3.847   3.801   8.766 -1.0111 -0.0529  0.1304
  514MOL0     O69314   3.969   3.870   8.788 -0.5470 -0.1970 -0.9864
  514MOL0     C69315   4.095   3.798   8.757 -0.7663 -0.2915 -0.8220
  514MOL0     C69316   4.210   3.897   8.793  0.0560 -0.1935 -0.2975
  514MOL0     C69317   4.339   3.872   8.720  0.3878  0.1373  0.7771
  514MOL0     C69318   4.349   3.956   8.577  0.5862  0.3873  0.2551
  514MOL0     C69319   4.372   4.105   8.586  0.6148 -0.2345  1.0049
  514MOL0     C69320   4.406   4.214   8.619  0.3879 -0.3499  0.0588
  514MOL0     C69321   3.832   3.692   8.681 -0.0795  0.4495  0.4441
  514MOL0     C69322   3.717   3.618   8.662 -0.0613  0.3070  0.2881
  514MOL0     H69323   3.175   3.745   8.611  0.3565 -1.1681 -3.0229
  514MOL0     H69324   2.947   3.644   8.581 -0.7516 -2.7602 -4.2020
  514MOL0     H69325   2.699   3.495   8.643 -3.2861 -1.3309 -1.4328
  514MOL0     H69326   2.809   3.500   8.499 -0.7123 -2.0271 -1.9060
  514MOL0     H69327   2.622   3.352   8.432 -1.9717  0.5356  1.7482
  514MOL0     H69328   2.773   3.273   8.446  0.7041  3.1997 -1.3029
  514MOL0     H69329   2.716   3.187   8.670  0.5028  0.2388 -1.5212
  514MOL0     H69330   2.556   3.276   8.657 -0.7954  0.3256 -1.4830
  514MOL0     H69331   2.587   3.098   8.419 -0.6239  2.5125 -0.1981
  514MOL0     H69332   2.640   3.009   8.569 -0.4532  0.4967 -0.9755
  514MOL0     H69333   2.452   3.054   8.673  1.7206  1.5162  0.1990
  514MOL0     H69334   2.385   3.168   8.547  0.6132 -0.0319 -0.7843
  514MOL0     H69335   2.366   2.968   8.388  0.2842 -1.6469 -0.6110
  514MOL0     H69336   2.448   2.880   8.527  0.2824  1.1442  0.4071
  514MOL0     H69337   2.256   2.908   8.666  2.6586 -0.1318 -0.9358
  514MOL0     H69338   2.182   3.013   8.545 -2.3859 -0.2106  2.1381
  514MOL0     H69339   2.247   2.715   8.500  0.1977  0.4561  0.7129
  514MOL0     H69340   2.172   2.840   8.390 -2.5037 -1.3306  0.1243
  514MOL0     H69341   2.131   2.661   8.722  1.1187  2.2926 -0.5480
  514MOL0     H69342   1.760   2.585   8.806  0.2065 -2.0557 -0.3411
  514MOL0     H69343   1.915   2.526   8.832  0.0907 -0.4989 -1.4638
  514MOL0     H69344   1.829   2.811   8.941  0.0328 -0.4887  0.5398
  514MOL0     H69345   1.982   2.714   8.979  0.6600 -2.2725  1.3939
  514MOL0     H69346   1.859   2.558   9.097 -1.1697  0.9974  3.3257
  514MOL0     H69347   1.699   2.611   9.031 -1.1929  2.3605  1.8298
  514MOL0     H69348   1.737   2.830   9.169 -0.2435  0.6212 -0.2721
  514MOL0     H69349   1.886   2.763   9.217  0.0700  0.6922 -0.9528
  514MOL0     H69350   1.626   2.770   9.514  1.4615  1.9965 -2.5350
  514MOL0     H69351   1.307   2.784   9.644  0.0022  0.6942 -0.1599
  514MOL0     H69352   1.469   2.847   9.676 -0.1484 -2.8790  0.7429
  514MOL0     H69353   1.345   2.954   9.613  1.6351  0.2764 -0.3950
  514MOL0     H69354   1.000   3.052   9.360  0.4818 -1.8517 -0.7025
  514MOL0     H69355   0.750   3.123   9.310 -1.1372  0.4356 -0.3136
  514MOL0     H69356   0.538   2.919   8.975  0.6531 -3.9998  0.8336
  514MOL0     H69357   0.481   2.844   9.126  0.2339  0.1957 -0.4998
  514MOL0     H69358   0.287   2.942   9.031 -0.0011  1.0348  1.1142
  514MOL0     H69359   0.336   3.040   9.168 -1.0365 -1.9119  1.1846
  514MOL0     H69360   0.443   3.107   8.894  0.1887  1.8268 -0.3692
  514MOL0     H69361   0.391   3.212   9.030  4.4478 -1.0327 -0.3972
  514MOL0     H69362   0.147   3.112   8.978 -1.0104 -0.4118 -2.0303
  514MOL0     H69363   0.211   3.255   8.894  0.8924  1.1356  0.6405
  514MOL0     H69364   0.221   2.959   8.806 -0.7092 -0.8471 -3.5196
  514MOL0     H69365   0.295   3.086   8.711 -0.5287  0.5283 -0.4980
  514MOL0     H69366   0.111   3.186   8.648  0.1198  0.2087  0.9201
  514MOL0     H69367   0.096   3.022   8.609  2.4633  1.4071 -1.0219
  514MOL0     H69368  -0.116   3.127   8.699  1.0739  0.4455 -0.6083
  514MOL0     H69369  -0.029   3.164   8.842  1.1347  2.4740 -2.4860
  514MOL0     H69370  -0.153   2.973   8.912  0.4494 -2.8724 -0.3949
  514MOL0     H69371   0.011   2.917   8.888  2.8713  3.3107 -0.6936
  514MOL0     H69372   0.732   2.812   9.019 -0.9780  1.6765 -1.4682
  514MOL0     H69373   0.946   2.749   9.070 -2.1784 -0.2412  0.4543
  514MOL0     H69374   1.286   2.739   9.160  0.0505  0.7388  0.3588
  514MOL0     H69375   1.481   2.662   9.106 -2.0160  1.8630 -1.2308
  514MOL0     H69376   3.081   3.290   8.777  0.8307 -0.2864 -1.1989
  514MOL0     H69377   3.270   3.398   8.845 -1.4733  1.1024  2.8141
  514MOL0     H69378   3.517   3.833   8.845 -0.1835  2.2075  0.2805
  514MOL0     H69379   3.728   3.944   8.876  1.9797 -0.2381  0.1589
  514MOL0     H69380   4.110   3.718   8.830  3.8754  3.2825  2.7910
  514MOL0     H69381   4.099   3.760   8.655 -1.2617 -0.4548 -0.7840
  514MOL0     H69382   4.244   3.872   8.894 -0.5335 -3.6023 -0.8362
  514MOL0     H69383   4.191   4.005   8.792 -1.8340 -0.4994 -0.5033
  514MOL0     H69384   4.350   3.765   8.700  2.8799  0.5839 -0.6621
  514MOL0     H69385   4.425   3.895   8.784 -1.1363 -0.1484  3.0324
  514MOL0     H69386   4.258   3.936   8.520  0.8599  0.3846 -0.1914
  514MOL0     H69387   4.437   3.918   8.523  1.1939  0.6650  1.0223
  514MOL0     H69388   4.442   4.315   8.627  0.0946 -0.3076  0.9161
  514MOL0     H69389   3.918   3.637   8.642  0.1588  1.1375 -0.0176
  514MOL0     H69390   3.702   3.535   8.594 -1.4474  0.5493  0.2738
  515MOL0     O69391  10.879   3.777   7.781  0.0868  0.1122 -0.3365
  515MOL0     C69392  10.977   3.714   7.808 -0.5397 -0.7582 -0.9763
  515MOL0     O69393  11.016   3.587   7.768 -0.4596 -0.6004  1.2055
  515MOL0     C69394  10.928   3.523   7.687 -0.0137  0.3589  0.3057
  515MOL0     C69395  10.790   3.499   7.715  0.1421 -0.2581 -0.5168
  515MOL0     C69396  10.708   3.455   7.605  0.7969  0.1986 -0.0650
  515MOL0     C69397  10.757   3.422   7.478 -0.5687 -0.6604 -0.4881
  515MOL0     O69398  10.664   3.371   7.382  0.0072  0.4809  0.9610
  515MOL0     C69399  10.718   3.323   7.257 -0.8153 -0.4927 -0.0741
  515MOL0     C69400  10.602   3.255   7.178  0.5039  0.0856  0.0652
  515MOL0     C69401  10.480   3.349   7.157  0.0701  0.3765 -0.4269
  515MOL0     C69402  10.398   3.307   7.036 -0.2302  0.3053 -0.5257
  515MOL0     C69403  10.261   3.370   7.031  0.7170 -0.8937 -0.7134
  515MOL0     C69404  10.247   3.527   7.027 -0.6454 -0.8692 -0.4164
  515MOL0     C69405  10.329   3.613   6.931  0.7058  0.4581  0.0683
  515MOL0     C69406  10.246   3.645   6.806 -0.6634 -0.7864 -0.4218
  515MOL0     N69407  10.330   3.727   6.720 -0.7142 -0.2050 -0.5470
  515MOL0     C69408  10.320   3.860   6.701  0.6124 -0.4198  0.3568
  515MOL0     C69409  10.421   3.903   6.617 -0.0527  0.8947 -0.2949
  515MOL0     C69410  10.440   4.048   6.583  0.4847 -0.7607 -0.2890
  515MOL0     C69411  10.296   4.100   6.533  0.6131 -0.1805  0.5297
  515MOL0     C69412  10.280   4.045   6.380 -0.6096 -0.6135 -1.3280
  515MOL0     C69413  10.400   4.053   6.290 -0.2600  0.4887 -0.2902
  515MOL0     O69414  10.466   4.179   6.291 -0.9088  0.1949  0.7360
  515MOL0     C69415  10.386   4.293   6.277 -0.3050  0.5642  0.2526
  515MOL0     C69416  10.402   4.387   6.376  0.3661 -0.5956 -0.6890
  515MOL0     C69417  10.323   4.507   6.384  0.0515 -0.6332  0.0724
  515MOL0     C69418  10.379   4.604   6.495  0.1958 -0.1392 -0.3629
  515MOL0     C69419  10.233   4.533   6.279  0.4889 -1.0215  0.1889
  515MOL0     C69420  10.151   4.657   6.285  0.5132  0.3130  0.6855
  515MOL0     O69421  10.113   4.710   6.163 -0.1823  0.0308 -0.5564
  515MOL0     C69422  10.031   4.816   6.162 -0.0922  0.1827 -0.0949
  515MOL0     C69423   9.910   4.829   6.230  0.4247  0.5694  0.3282
  515MOL0     C69424   9.819   4.932   6.196  0.2578  0.1788  0.6486
  515MOL0     C69425   9.844   5.028   6.100  0.2286  0.0974  0.4070
  515MOL0     O69426   9.750   5.119   6.053 -0.4931 -0.6357 -0.2459
  515MOL0     C69427   9.776   5.255   6.069 -0.2270  0.1744  0.2884
  515MOL0     C69428   9.635   5.322   6.080  0.2291 -1.2905 -0.6722
  515MOL0     C69429   9.549   5.292   6.199 -0.1486  1.4152 -0.0174
  515MOL0     C69430   9.411   5.352   6.189 -0.1093 -0.0444 -0.5911
  515MOL0     C69431   9.314   5.268   6.100  0.2453 -0.5218 -0.4781
  515MOL0     C69432   9.165   5.304   6.093 -0.0343 -0.0856 -0.1367
  515MOL0     C69433   9.114   5.301   6.234  0.4562 -0.7661  0.0062
  515MOL0     C69434   8.965   5.302   6.249  0.7119 -0.0033  0.3210
  515MOL0    Cl69435   8.907   5.134   6.255 -0.3299  0.5533  0.0913
  515MOL0     C69436   9.961   5.009   6.028 -0.5389  0.5620  0.7372
  515MOL0     C69437  10.055   4.909   6.056  0.0103 -0.5389 -0.3145
  515MOL0     O69438  10.141   4.716   6.397  0.8287  0.6353 -0.1611
  515MOL0     C69439  10.230   4.449   6.168  0.8230  0.1257 -0.3695
  515MOL0     C69440  10.310   4.329   6.166  0.3105  0.5211 -0.2651
  515MOL0     N69441  10.480   3.783   6.572 -1.0082 -0.2420  0.0545
  515MOL0     N69442  10.432   3.688   6.644  0.8069 -1.2657  0.0748
  515MOL0     C69443  10.897   3.440   7.456 -0.1122 -0.6187 -0.7163
  515MOL0     C69444  10.976   3.475   7.562 -0.5057  0.3047  0.5577
  515MOL0     C69445  11.069   3.775   7.913 -0.1770  0.6635 -0.5229
  515MOL0     C69446  11.038   3.900   7.976 -1.0301 -0.3968 -0.4487
  515MOL0     C69447  11.127   3.954   8.080  0.5481  0.0786 -0.1935
  515MOL0     C69448  11.246   3.887   8.107 -0.8109 -0.2892 -0.7304
  515MOL0     O69449  11.329   3.925   8.214 -0.3364  0.0762 -0.2499
  515MOL0     C69450  11.273   3.999   8.326 -0.4279  0.5854  0.0115
  515MOL0     C69451  11.383   4.018   8.430  0.1180 -0.4425 -0.7890
  515MOL0     C69452  11.343   4.109   8.542  0.6850 -0.2657  0.2343
  515MOL0     C69453  11.468   4.134   8.628 -0.1449  0.2639 -0.3821
  515MOL0     C69454  11.439   4.234   8.730  0.3816 -0.5195  0.2700
  515MOL0     C69455  11.400   4.309   8.819  0.2340 -0.9468  0.4707
  515MOL0     C69456  11.276   3.771   8.046  0.4331 -0.1292  0.2734
  515MOL0     C69457  11.190   3.717   7.945 -0.4650  0.3147 -0.4144
  515MOL0     H69458  10.750   3.525   7.813 -0.7816  0.1830 -0.9967
  515MOL0     H69459  10.601   3.443   7.618  0.8435  0.7631  1.0018
  515MOL0     H69460  10.776   3.404   7.210  0.9055 -1.1182  0.8944
  515MOL0     H69461  10.794   3.247   7.275 -0.4482 -0.9709 -3.0380
  515MOL0     H69462  10.639   3.226   7.079  2.7030 -1.7542  1.3169
  515MOL0     H69463  10.559   3.172   7.234 -2.6463  2.1411  0.9603
  515MOL0     H69464  10.427   3.361   7.251 -1.4997  0.2662 -1.2709
  515MOL0     H69465  10.513   3.452   7.139  3.2101 -0.3423  0.6468
  515MOL0     H69466  10.451   3.330   6.942 -0.4714  1.8398 -0.3105
  515MOL0     H69467  10.390   3.199   7.049 -2.2659  0.2282 -1.9618
  515MOL0     H69468  10.207   3.334   6.943  1.6190 -1.5479 -1.0115
  515MOL0     H69469  10.214   3.340   7.125  1.9845 -3.2049 -0.7538
  515MOL0     H69470  10.144   3.549   7.000 -0.2964  1.3247 -0.1259
  515MOL0     H69471  10.268   3.564   7.128 -0.9462 -0.6201 -0.4427
  515MOL0     H69472  10.359   3.702   6.988 -0.3460 -0.0350  1.4693
  515MOL0     H69473  10.414   3.551   6.903  0.4898  0.1479  0.0919
  515MOL0     H69474  10.161   3.703   6.840  0.1525  1.2774 -1.7209
  515MOL0     H69475  10.225   3.544   6.767 -2.0759 -0.5066 -0.4229
  515MOL0     H69476  10.254   3.931   6.749  0.6012 -0.1743 -0.0157
  515MOL0     H69477  10.460   4.109   6.672  0.9503 -0.4185 -0.6226
  515MOL0     H69478  10.528   4.055   6.519  0.5304  0.5350 -0.1179
  515MOL0     H69479  10.278   4.206   6.517 -2.3493 -0.4060  1.7281
  515MOL0     H69480  10.208   4.083   6.596  0.1071  1.0704  0.1778
  515MOL0     H69481  10.198   4.099   6.332 -1.1525 -2.8458 -3.0518
  515MOL0     H69482  10.242   3.943   6.390  1.7834 -1.3566  2.5731
  515MOL0     H69483  10.368   4.027   6.188  2.4684  0.3854 -1.2040
  515MOL0     H69484  10.475   3.978   6.317 -0.3187  1.3939  2.7475
  515MOL0     H69485  10.471   4.372   6.459  0.2897 -1.3277 -0.7512
  515MOL0     H69486  10.309   4.604   6.579  1.6862 -2.7740  0.9913
  515MOL0     H69487  10.473   4.566   6.535 -0.6236 -1.5434  0.2956
  515MOL0     H69488  10.391   4.705   6.456 -1.1213  0.8965  1.7412
  515MOL0     H69489   9.872   4.761   6.306 -1.3544  4.4520  3.2499
  515MOL0     H69490   9.716   4.926   6.230 -2.1350  0.8270 -5.3523
  515MOL0     H69491   9.834   5.275   6.160 -0.9906  0.2642  0.7582
  515MOL0     H69492   9.830   5.299   5.984 -0.5667  0.1145  0.0410
  515MOL0     H69493   9.652   5.429   6.065 -0.2409 -1.1286 -0.1133
  515MOL0     H69494   9.577   5.293   5.992 -2.5617 -1.8891  1.2425
  515MOL0     H69495   9.595   5.335   6.289 -2.9575  2.5522  0.9760
  515MOL0     H69496   9.542   5.185   6.219  1.2306  1.3206  0.0611
  515MOL0     H69497   9.372   5.367   6.290 -0.4908  2.3375 -1.0309
  515MOL0     H69498   9.419   5.455   6.154 -2.4980  0.7812  1.0044
  515MOL0     H69499   9.320   5.166   6.141  1.0564 -0.2449  0.1257
  515MOL0     H69500   9.358   5.263   6.000  0.3499 -1.2252 -0.4058
  515MOL0     H69501   9.152   5.404   6.051  2.2483 -0.8424 -3.0030
  515MOL0     H69502   9.108   5.237   6.028  0.4444 -2.5523  1.8562
  515MOL0     H69503   9.144   5.396   6.279  0.1722 -0.8172  0.3059
  515MOL0     H69504   9.145   5.227   6.309  0.8291  0.7961  1.4725
  515MOL0     H69505   8.908   5.359   6.175 -1.1950 -0.0395  1.6904
  515MOL0     H69506   8.931   5.350   6.341 -3.5507 -0.0715 -1.0252
  515MOL0     H69507   9.984   5.083   5.952 -0.0033  2.2686  2.4999
  515MOL0     H69508  10.150   4.895   6.006 -0.8980 -1.5543 -1.8559
  515MOL0     H69509  10.171   4.474   6.080  0.9953 -0.4387 -0.6500
  515MOL0     H69510  10.314   4.273   6.073 -0.2387  0.3868 -0.2129
  515MOL0     H69511  10.946   3.420   7.361  2.2911 -2.0032  0.7066
  515MOL0     H69512  11.083   3.483   7.548 -0.3523 -1.2708  0.6524
  515MOL0     H69513  10.947   3.954   7.951 -1.5205 -0.3672  1.3272
  515MOL0     H69514  11.084   4.027   8.149 -2.2093  0.0211 -1.7214
  515MOL0     H69515  11.228   4.094   8.294 -2.4413 -0.5326 -0.6147
  515MOL0     H69516  11.194   3.938   8.369  2.9872 -4.5257 -0.0875
  515MOL0     H69517  11.473   4.058   8.381  0.9114 -0.5195  0.5651
  515MOL0     H69518  11.403   3.916   8.463  1.2645  0.3663  1.2383
  515MOL0     H69519  11.264   4.071   8.606  1.3883  1.3374  2.1594
  515MOL0     H69520  11.303   4.205   8.507 -3.0307 -2.2541 -1.4412
  515MOL0     H69521  11.554   4.148   8.562 -0.5034  2.0781 -0.4974
  515MOL0     H69522  11.491   4.040   8.679 -2.2130 -1.4065 -2.2983
  515MOL0     H69523  11.365   4.384   8.888 -0.6746 -0.1769 -0.7993
  515MOL0     H69524  11.370   3.729   8.080  0.6652 -1.5960 -1.9478
  515MOL0     H69525  11.217   3.629   7.887 -0.4071 -1.0737  1.6166
  516MOL0     O69526  10.485   5.211   4.344  0.0407  0.0951  0.9729
  516MOL0     C69527  10.508   5.223   4.222  0.4243  0.3665  0.5954
  516MOL0     O69528  10.436   5.291   4.128  0.1734  1.3018  0.1557
  516MOL0     C69529  10.327   5.367   4.175 -0.3870  1.0460  0.0504
  516MOL0     C69530  10.340   5.506   4.168 -0.2558 -0.1273 -0.3570
  516MOL0     C69531  10.226   5.575   4.185  0.3103 -0.2014  0.4452
  516MOL0     C69532  10.108   5.524   4.233  0.2706 -0.6437 -0.5738
  516MOL0     O69533  10.004   5.611   4.227 -0.4236 -0.7341 -0.6875
  516MOL0     C69534   9.870   5.561   4.252 -0.0316  0.6844  0.1376
  516MOL0     C69535   9.769   5.673   4.252  0.5822 -1.0443  0.1467
  516MOL0     C69536   9.615   5.621   4.247 -0.2242  0.5372 -1.0613
  516MOL0     C69537   9.518   5.733   4.280  0.6643  0.1208 -0.4666
  516MOL0     C69538   9.370   5.707   4.258  0.9909  0.1208  0.4239
  516MOL0     C69539   9.309   5.583   4.324  0.2995  0.0166  0.0713
  516MOL0     C69540   9.147   5.571   4.308  0.4280 -0.5489 -0.1747
  516MOL0     C69541   9.090   5.431   4.342  0.8860 -0.4232 -0.8568
  516MOL0     N69542   9.169   5.373   4.452  0.0549 -1.3903 -0.1447
  516MOL0     C69543   9.147   5.398   4.592 -0.6325 -0.6696 -0.3464
  516MOL0     C69544   9.228   5.315   4.659  0.3317  0.3778 -0.7208
  516MOL0     C69545   9.249   5.309   4.807  0.0827 -0.3200  0.2203
  516MOL0     C69546   9.113   5.319   4.882 -0.3253 -0.3442 -0.6894
  516MOL0     C69547   9.055   5.173   4.910 -0.1927  0.4761  0.4066
  516MOL0     C69548   8.902   5.165   4.920  0.8247  0.0055 -0.2370
  516MOL0     O69549   8.846   5.270   5.009 -0.0255 -0.6913 -0.5686
  516MOL0     C69550   8.725   5.333   4.987 -0.6620 -0.2401 -0.6831
  516MOL0     C69551   8.632   5.283   4.892  0.1375 -0.1900 -0.2600
  516MOL0     C69552   8.496   5.330   4.879 -0.4881  1.1234 -0.3961
  516MOL0     C69553   8.411   5.253   4.771  0.0373 -0.2450  0.4067
  516MOL0     C69554   8.452   5.432   4.967  1.3445  0.2081 -0.0653
  516MOL0     C69555   8.327   5.515   4.948  0.7500 -0.5963  0.3919
  516MOL0     O69556   8.305   5.615   5.041  0.2105  0.5102  0.6823
  516MOL0     C69557   8.204   5.703   5.037  1.0418  0.0904  0.5648
  516MOL0     C69558   8.090   5.692   5.115 -0.0031 -0.3477 -0.1478
  516MOL0     C69559   7.988   5.784   5.106 -0.2438  0.6560  0.1171
  516MOL0     C69560   8.008   5.900   5.023 -0.1716 -0.3750  0.5986
  516MOL0     O69561   7.917   5.998   4.995 -0.3055 -0.0205  0.4766
  516MOL0     C69562   7.784   5.947   4.958 -0.1331 -0.3889 -0.7667
  516MOL0     C69563   7.698   6.053   4.901  0.4301 -0.5352 -0.0623
  516MOL0     C69564   7.656   6.146   5.012  0.1605 -0.0941  0.8322
  516MOL0     C69565   7.552   6.268   4.971  0.0433 -0.2011  0.2859
  516MOL0     C69566   7.418   6.267   5.038 -0.4485  0.2880 -0.2964
  516MOL0     C69567   7.304   6.342   4.976  0.0396 -0.2534  0.1390
  516MOL0     C69568   7.180   6.310   5.057 -0.3285 -0.2112  0.4608
  516MOL0     C69569   7.054   6.315   4.967 -0.3040  0.2994 -0.6008
  516MOL0    Cl69570   7.046   6.155   4.891  0.1328  0.1580  0.0628
  516MOL0     C69571   8.132   5.917   4.952  0.3460  0.9630 -0.8676
  516MOL0     C69572   8.224   5.812   4.951 -0.2193  0.3411 -0.2785
  516MOL0     O69573   8.244   5.494   4.862 -0.4583 -0.1125 -0.0823
  516MOL0     C69574   8.551   5.484   5.063 -0.1746 -0.4482 -0.0621
  516MOL0     C69575   8.678   5.429   5.075  0.3236  0.2324 -0.0191
  516MOL0     N69576   9.296   5.235   4.566 -0.0498  0.7223  0.0461
  516MOL0     N69577   9.250   5.265   4.441 -0.2176  0.5597 -0.9188
  516MOL0     C69578  10.103   5.390   4.266  0.2583 -0.0006 -0.1775
  516MOL0     C69579  10.211   5.310   4.231  0.1926 -0.0375 -0.8634
  516MOL0     C69580  10.644   5.162   4.175  0.3476 -0.5921 -0.0707
  516MOL0     C69581  10.749   5.132   4.265  0.6285 -0.4345  0.9684
  516MOL0     C69582  10.868   5.063   4.217  0.1794  0.0196 -0.1210
  516MOL0     C69583  10.875   5.025   4.080 -0.1178 -0.3276  0.1214
  516MOL0     O69584  10.974   4.951   4.026 -0.0513  0.0291  0.0478
  516MOL0     C69585  11.061   4.895   4.123  0.2118  0.0144 -0.3726
  516MOL0     C69586  11.171   4.822   4.047 -0.4867 -0.2215  0.6867
  516MOL0     C69587  11.266   4.761   4.153  0.5348 -0.3514  0.7257
  516MOL0     C69588  11.402   4.737   4.087  0.2780 -0.1314 -0.2746
  516MOL0     C69589  11.489   4.671   4.194  0.9391  0.4635  0.1673
  516MOL0     C69590  11.558   4.611   4.271 -0.6385 -0.1273 -0.4391
  516MOL0     C69591  10.764   5.060   3.997 -0.5093  0.2011 -0.3792
  516MOL0     C69592  10.653   5.127   4.040  0.4167  0.0459  0.1286
  516MOL0     H69593  10.429   5.557   4.132 -1.4923  2.9588  0.6236
  516MOL0     H69594  10.227   5.680   4.157 -1.1053  0.0082  1.1070
  516MOL0     H69595   9.841   5.489   4.175 -0.8134 -0.5264  1.4924
  516MOL0     H69596   9.862   5.510   4.349  0.0862 -0.5357 -0.4730
  516MOL0     H69597   9.772   5.737   4.341  0.1068 -0.7129 -0.0664
  516MOL0     H69598   9.786   5.739   4.166  1.2693 -2.0253 -0.4839
  516MOL0     H69599   9.592   5.580   4.148  1.0898 -1.5775 -0.5572
  516MOL0     H69600   9.599   5.529   4.305  1.8211 -0.4337 -1.9467
  516MOL0     H69601   9.536   5.764   4.383 -2.0686  0.3162  0.0492
  516MOL0     H69602   9.531   5.826   4.225 -0.3916  0.8167  0.4190
  516MOL0     H69603   9.313   5.793   4.295 -0.1697 -0.5386  0.1959
  516MOL0     H69604   9.350   5.696   4.151 -1.2066  1.8574  0.5816
  516MOL0     H69605   9.352   5.495   4.276  2.1098  1.0063 -0.2495
  516MOL0     H69606   9.325   5.592   4.432 -1.6235  5.2479  0.1883
  516MOL0     H69607   9.103   5.640   4.381 -0.4965  0.4794 -1.6418
  516MOL0     H69608   9.110   5.595   4.208 -1.4075 -1.5642  0.2151
  516MOL0     H69609   9.101   5.357   4.262  0.9921 -0.3123 -0.9460
  516MOL0     H69610   8.985   5.445   4.369  1.3941  0.6999  0.6578
  516MOL0     H69611   9.082   5.470   4.640  0.0483 -0.6477  0.5589
  516MOL0     H69612   9.299   5.217   4.841 -0.9310 -0.7241  0.6628
  516MOL0     H69613   9.325   5.381   4.839  1.8668 -2.1325  0.2928
  516MOL0     H69614   9.043   5.373   4.819  0.7537  1.7358 -0.2122
  516MOL0     H69615   9.124   5.370   4.978  1.3573  0.3735 -1.2308
  516MOL0     H69616   9.101   5.136   5.002  1.7037  0.5684 -0.4609
  516MOL0     H69617   9.095   5.112   4.828  0.4256  1.5178 -0.0957
  516MOL0     H69618   8.856   5.066   4.932 -0.4368 -0.2409 -5.1309
  516MOL0     H69619   8.873   5.175   4.815 -1.7785 -4.1456 -0.1586
  516MOL0     H69620   8.665   5.199   4.831 -1.3543 -0.8278 -0.2168
  516MOL0     H69621   8.472   5.205   4.694  1.1361 -1.8454  2.2033
  516MOL0     H69622   8.343   5.184   4.822  1.3362 -0.0206  2.5928
  516MOL0     H69623   8.354   5.329   4.716  4.0094  1.0751 -2.3607
  516MOL0     H69624   8.088   5.600   5.173  1.6702 -0.7624 -0.6891
  516MOL0     H69625   7.899   5.759   5.163  0.3177  2.3715  1.8831
  516MOL0     H69626   7.796   5.872   4.879  2.2863 -1.4133  0.4548
  516MOL0     H69627   7.725   5.898   5.036 -0.5670 -1.9491 -2.0098
  516MOL0     H69628   7.744   6.112   4.821 -0.7548  0.6347  0.0666
  516MOL0     H69629   7.619   6.008   4.841  1.4480 -1.3810 -0.7838
  516MOL0     H69630   7.740   6.201   5.054  1.0369 -0.2781 -0.6183
  516MOL0     H69631   7.619   6.071   5.083  3.0717 -0.1393  2.4431
  516MOL0     H69632   7.599   6.366   4.977 -2.5226  1.3956 -2.5594
  516MOL0     H69633   7.541   6.266   4.862 -0.9313 -0.2811  0.3785
  516MOL0     H69634   7.430   6.301   5.141 -0.3501  0.6093 -0.4125
  516MOL0     H69635   7.392   6.161   5.040 -2.4551  0.7195 -1.1313
  516MOL0     H69636   7.317   6.450   4.980 -0.6640 -0.1614 -0.0733
  516MOL0     H69637   7.292   6.308   4.873  1.9777 -0.4870 -0.0472
  516MOL0     H69638   7.168   6.381   5.140 -0.4897  0.2709  0.0251
  516MOL0     H69639   7.197   6.218   5.113 -0.8860 -1.2090 -0.9818
  516MOL0     H69640   7.067   6.381   4.881  3.5951  1.1416  0.4401
  516MOL0     H69641   6.957   6.329   5.016 -0.2933 -0.8380 -0.2318
  516MOL0     H69642   8.133   6.006   4.891 -1.2326  2.8720  1.6779
  516MOL0     H69643   8.309   5.832   4.887 -1.1341 -0.2837 -1.7406
  516MOL0     H69644   8.526   5.565   5.130 -1.0748 -0.6811 -0.1013
  516MOL0     H69645   8.739   5.471   5.155 -1.3395 -1.5063  2.2846
  516MOL0     H69646  10.014   5.341   4.304 -0.9391  0.7907 -1.8064
  516MOL0     H69647  10.206   5.202   4.243  0.3337 -0.7801 -5.5264
  516MOL0     H69648  10.736   5.136   4.373  0.9099 -1.1778  1.0374
  516MOL0     H69649  10.950   5.045   4.286  0.5933  2.2782  0.0482
  516MOL0     H69650  11.109   4.971   4.186 -2.0066  0.0362  1.4309
  516MOL0     H69651  11.010   4.822   4.188  3.3020 -0.7463  1.4094
  516MOL0     H69652  11.230   4.890   3.986 -0.7852 -2.0707 -1.8060
  516MOL0     H69653  11.132   4.755   3.970  1.7142  1.0706 -1.6983
  516MOL0     H69654  11.232   4.663   4.188 -0.9050  0.3331  1.3466
  516MOL0     H69655  11.277   4.821   4.244  2.6692  0.5359 -0.0535
  516MOL0     H69656  11.444   4.829   4.046 -0.5748 -0.2834 -1.5209
  516MOL0     H69657  11.381   4.669   4.004 -2.0449  0.6686 -0.4217
  516MOL0     H69658  11.619   4.549   4.333 -2.0977 -2.2666 -1.0320
  516MOL0     H69659  10.759   5.002   3.905 -2.1333  1.1248 -0.9191
  516MOL0     H69660  10.575   5.153   3.969  1.5272 -0.1193 -1.2010
  517MOL0     O69661   8.365   6.198   9.814 -0.1777 -0.6067 -0.1756
  517MOL0     C69662   8.356   6.183   9.933 -0.2099  0.4053  0.1431
  517MOL0     O69663   8.246   6.208  10.014  0.3030 -0.2374  0.6325
  517MOL0     C69664   8.127   6.241   9.953 -0.5177 -0.5854  0.6895
  517MOL0     C69665   8.063   6.167   9.856  0.5101  0.1980 -0.7047
  517MOL0     C69666   7.942   6.213   9.803  0.0087  0.6772 -0.4706
  517MOL0     C69667   7.889   6.340   9.839  0.1418  0.5289  0.5283
  517MOL0     O69668   7.776   6.402   9.792 -0.2661 -0.4111 -0.0067
  517MOL0     C69669   7.670   6.324   9.750  0.0644  0.1108 -0.1501
  517MOL0     C69670   7.541   6.405   9.754 -0.4011  0.3484 -0.6520
  517MOL0     C69671   7.425   6.325   9.686 -0.7652  0.6936 -0.2339
  517MOL0     C69672   7.296   6.395   9.688 -0.5760 -0.3445  0.5862
  517MOL0     C69673   7.192   6.308   9.610  0.0739 -0.1440  0.0098
  517MOL0     C69674   7.059   6.375   9.618  0.0125  0.2873 -0.0872
  517MOL0     C69675   7.004   6.378   9.767  0.2671 -0.1615 -0.5983
  517MOL0     C69676   6.863   6.439   9.769 -0.5969  0.0589  0.6471
  517MOL0     N69677   6.779   6.356   9.683  0.6806 -0.2952  0.4369
  517MOL0     C69678   6.728   6.240   9.718 -0.5664  0.8154  0.2281
  517MOL0     C69679   6.633   6.218   9.625  0.5452  0.2194 -0.1171
  517MOL0     C69680   6.525   6.110   9.624 -0.3279  0.4678 -0.5867
  517MOL0     C69681   6.510   6.061   9.477 -0.2841  0.7338 -0.6190
  517MOL0     C69682   6.401   5.960   9.455 -0.3349 -0.6454 -0.1845
  517MOL0     C69683   6.269   6.015   9.512 -0.6082  0.0947 -0.0578
  517MOL0     O69684   6.230   6.140   9.462 -0.1734  0.4191  0.4764
  517MOL0     C69685   6.102   6.191   9.474 -0.6218  0.1366 -0.6679
  517MOL0     C69686   6.072   6.306   9.413 -0.5173  0.4241  0.5439
  517MOL0     C69687   5.949   6.367   9.429 -0.1797 -0.5438  0.0460
  517MOL0     C69688   5.932   6.491   9.338  0.6798 -0.5516 -0.5465
  517MOL0     C69689   5.844   6.318   9.507 -0.2989  0.4442 -0.0612
  517MOL0     C69690   5.712   6.379   9.518 -0.2884  0.5859  0.3741
  517MOL0     O69691   5.655   6.425   9.405  0.3757  0.1805  0.1598
  517MOL0     C69692   5.536   6.497   9.412 -0.2259  0.1642  0.3752
  517MOL0     C69693   5.547   6.635   9.385  0.8367 -0.0016  0.2118
  517MOL0     C69694   5.433   6.722   9.395 -0.4441 -0.2304  0.7767
  517MOL0     C69695   5.304   6.677   9.434 -0.3361  0.1265 -0.1244
  517MOL0     O69696   5.196   6.754   9.447 -0.2059  0.2738  0.4989
  517MOL0     C69697   5.207   6.892   9.427  0.6471 -0.5390 -0.6026
  517MOL0     C69698   5.078   6.968   9.408  0.1750  0.6520 -0.5679
  517MOL0     C69699   4.957   6.905   9.498  0.1200 -0.5959  0.1518
  517MOL0     C69700   4.817   6.939   9.445 -0.2381 -0.0993  0.0213
  517MOL0     C69701   4.689   6.901   9.536  0.2749  0.5737 -0.0550
  517MOL0     C69702   4.567   6.920   9.440  0.2748 -0.5446 -0.2889
  517MOL0     C69703   4.432   6.885   9.502 -0.2992  0.0213  0.3742
  517MOL0     C69704   4.319   6.919   9.404 -0.0474 -0.3033  0.2178
  517MOL0    Cl69705   4.172   6.834   9.462 -0.3124  0.0627  0.1046
  517MOL0     C69706   5.302   6.536   9.473  0.1322  0.8268 -0.1387
  517MOL0     C69707   5.417   6.444   9.462  0.3544 -0.4006 -0.4976
  517MOL0     O69708   5.665   6.389   9.633 -0.1532  0.6382  0.6568
  517MOL0     C69709   5.874   6.198   9.570 -0.7247 -0.0527  1.0531
  517MOL0     C69710   6.002   6.136   9.553  0.2130 -0.0749 -0.5400
  517MOL0     N69711   6.633   6.321   9.532  0.0817  0.3023  0.1598
  517MOL0     N69712   6.725   6.409   9.572  0.0350 -0.1961  0.4821
  517MOL0     C69713   7.965   6.410   9.933  0.9888  0.2090  1.0481
  517MOL0     C69714   8.089   6.369   9.983 -0.1720 -0.3595 -0.6705
  517MOL0     C69715   8.483   6.155  10.008  0.9777 -0.5493 -0.2703
  517MOL0     C69716   8.606   6.142   9.944 -0.0653  1.0285 -0.5111
  517MOL0     C69717   8.718   6.112  10.023 -0.2611  0.0021 -0.6298
  517MOL0     C69718   8.719   6.091  10.165  0.8835 -0.5606 -0.2576
  517MOL0     O69719   8.833   6.052  10.231 -0.2938  0.1950 -0.1058
  517MOL0     C69720   8.843   6.054  10.379 -0.5757  1.0716 -0.1530
  517MOL0     C69721   8.993   6.025  10.403 -0.3509  0.4265  0.1405
  517MOL0     C69722   9.092   6.133  10.372  0.0992  0.5451 -0.5264
  517MOL0     C69723   9.226   6.054  10.359 -0.6068 -0.1799 -0.2965
  517MOL0     C69724   9.329   6.147  10.307  0.3769 -1.1262  0.6014
  517MOL0     C69725   9.401   6.215  10.242  0.5821  0.1140  0.3967
  517MOL0     C69726   8.591   6.099  10.224  0.6040 -0.0032 -0.5947
  517MOL0     C69727   8.481   6.137  10.154  0.4722  0.3580  0.2478
  517MOL0     H69728   8.106   6.073   9.823  2.5034  1.2417 -1.2300
  517MOL0     H69729   7.899   6.142   9.732  2.3045 -0.8193 -0.4631
  517MOL0     H69730   7.677   6.274   9.653 -0.6770 -1.9366  0.7935
  517MOL0     H69731   7.647   6.243   9.820 -1.5913 -0.0208 -0.7987
  517MOL0     H69732   7.513   6.410   9.859 -0.2879 -1.7663 -0.4639
  517MOL0     H69733   7.546   6.499   9.699 -3.3476 -0.2921 -2.1840
  517MOL0     H69734   7.440   6.291   9.583 -2.7964 -0.4277 -0.2024
  517MOL0     H69735   7.407   6.233   9.742 -4.6891  0.5100 -1.5068
  517MOL0     H69736   7.269   6.420   9.791  2.1686  1.8236  0.9220
  517MOL0     H69737   7.304   6.486   9.627  2.4732 -1.3942 -0.8023
  517MOL0     H69738   7.215   6.293   9.504 -3.4306 -1.8414 -0.6730
  517MOL0     H69739   7.187   6.206   9.652 -0.0903  0.1816  0.7993
  517MOL0     H69740   7.061   6.475   9.574  0.1986 -0.1787 -1.1655
  517MOL0     H69741   6.995   6.310   9.558  0.0093 -2.0100  2.2229
  517MOL0     H69742   7.008   6.277   9.810  0.8901 -1.5221 -3.5782
  517MOL0     H69743   7.059   6.446   9.832 -1.0815  0.8837 -0.5159
  517MOL0     H69744   6.874   6.542   9.733  1.8145 -1.3215 -3.1160
  517MOL0     H69745   6.818   6.433   9.869  1.1397 -1.5648  1.3853
  517MOL0     H69746   6.732   6.188   9.814  0.2324  0.6705  0.1184
  517MOL0     H69747   6.571   6.030   9.683 -4.4023 -2.2007 -0.7020
  517MOL0     H69748   6.437   6.143   9.679  1.0282 -0.3152  2.2736
  517MOL0     H69749   6.612   6.031   9.450 -0.9917 -1.0805 -1.4365
  517MOL0     H69750   6.476   6.148   9.421 -3.2527  0.9301  1.2947
  517MOL0     H69751   6.435   5.875   9.515  1.6143  0.1773 -0.0566
  517MOL0     H69752   6.392   5.923   9.352 -1.5036 -0.4675 -0.1606
  517MOL0     H69753   6.275   6.019   9.621 -1.6823  2.1315 -0.0224
  517MOL0     H69754   6.203   5.935   9.479  0.2936 -1.0856  0.9098
  517MOL0     H69755   6.148   6.352   9.350 -0.6376  0.9992  0.8135
  517MOL0     H69756   6.032   6.535   9.337  2.5246 -4.3298  0.6109
  517MOL0     H69757   5.895   6.474   9.236 -2.2663  0.7097  0.2184
  517MOL0     H69758   5.858   6.564   9.373 -0.3882 -1.0502 -1.6904
  517MOL0     H69759   5.647   6.676   9.374  2.5006 -3.7352  0.1714
  517MOL0     H69760   5.445   6.828   9.374 -1.1055 -0.3833 -0.4890
  517MOL0     H69761   5.265   6.936   9.509 -0.1029 -1.3529  0.3909
  517MOL0     H69762   5.264   6.915   9.337  2.1286  0.4241  0.5155
  517MOL0     H69763   5.095   7.076   9.414  4.0500  0.0801  1.6823
  517MOL0     H69764   5.041   6.936   9.310 -1.6192 -4.0375  1.3291
  517MOL0     H69765   4.976   6.948   9.597  2.2125  0.4724 -0.6268
  517MOL0     H69766   4.951   6.796   9.494 -4.1458 -0.4750 -1.8129
  517MOL0     H69767   4.812   7.047   9.426 -0.8542 -0.1626 -0.1849
  517MOL0     H69768   4.797   6.893   9.348  0.6491 -0.0155 -0.2033
  517MOL0     H69769   4.676   6.957   9.629 -1.2396 -0.1888  0.2257
  517MOL0     H69770   4.690   6.795   9.564 -2.2132  0.1350 -1.3511
  517MOL0     H69771   4.554   7.023   9.403 -0.0471 -0.8605 -1.0927
  517MOL0     H69772   4.579   6.854   9.353  0.1533  2.1528 -2.5313
  517MOL0     H69773   4.408   6.944   9.591 -0.0149  1.8694 -0.7121
  517MOL0     H69774   4.424   6.777   9.513 -1.4363 -0.0472 -0.9134
  517MOL0     H69775   4.354   6.876   9.310  1.5208 -0.0770  0.6609
  517MOL0     H69776   4.302   7.026   9.391  1.9435 -0.0412 -0.6627
  517MOL0     H69777   5.213   6.504   9.526 -1.2354  2.3399 -1.4536
  517MOL0     H69778   5.407   6.340   9.491  1.4619 -0.9308 -1.8934
  517MOL0     H69779   5.792   6.150   9.622 -1.2762  1.0266  1.2243
  517MOL0     H69780   6.022   6.045   9.607  0.9674  1.1975  1.4608
  517MOL0     H69781   7.923   6.509   9.946 -1.7457 -0.5690 -0.8115
  517MOL0     H69782   8.139   6.441  10.047 -1.0287  0.9461 -1.4313
  517MOL0     H69783   8.615   6.148   9.836  0.1647  1.1659 -0.4857
  517MOL0     H69784   8.817   6.108   9.979  0.6920  2.4371  1.1080
  517MOL0     H69785   8.798   6.140  10.428  0.4731  4.1321 -4.0139
  517MOL0     H69786   8.795   5.965  10.421  1.9076  0.1281  0.8820
  517MOL0     H69787   9.009   5.928  10.355 -0.5495 -0.6016  2.0522
  517MOL0     H69788   9.007   6.004  10.509 -2.0744 -0.7577  0.1735
  517MOL0     H69789   9.104   6.220  10.438 -0.6719  0.8690 -0.7947
  517MOL0     H69790   9.063   6.179  10.277 -0.3991 -0.4919 -0.8840
  517MOL0     H69791   9.223   5.967  10.293  0.2321 -0.5789  0.1734
  517MOL0     H69792   9.258   6.021  10.458 -0.9350  0.0931 -0.0987
  517MOL0     H69793   9.465   6.270  10.176 -1.9210 -0.3703 -2.7057
  517MOL0     H69794   8.578   6.097  10.332 -0.3138 -2.9267 -0.6741
  517MOL0     H69795   8.385   6.155  10.201  0.1855 -0.3143 -0.0581
  518MOL0     O69796   0.524   8.245   7.587 -0.3315 -0.6973 -0.0819
  518MOL0     C69797   0.598   8.339   7.575  0.2129  0.4131  0.3935
  518MOL0     O69798   0.557   8.460   7.519  0.0598 -0.0414  0.0467
  518MOL0     C69799   0.429   8.479   7.470  0.3191 -0.7294 -0.1213
  518MOL0     C69800   0.323   8.463   7.560  0.0882 -0.7709 -0.0881
  518MOL0     C69801   0.196   8.475   7.516 -0.0994  0.3317 -0.6171
  518MOL0     C69802   0.167   8.494   7.380  1.8385 -0.6884  0.0716
  518MOL0     O69803   0.038   8.515   7.328 -0.0532  0.2083  0.6487
  518MOL0     C69804  -0.064   8.474   7.420 -0.3141  0.1740 -0.1452
  518MOL0     C69805  -0.198   8.458   7.361  0.2454  0.7699 -0.1794
  518MOL0     C69806  -0.304   8.424   7.460 -0.3379 -0.0042  0.7244
  518MOL0     C69807  -0.453   8.434   7.400  0.5634 -1.1342  0.6054
  518MOL0     C69808  -0.540   8.359   7.491 -0.1309  0.4551 -0.1613
  518MOL0     C69809  -0.686   8.374   7.459 -0.3730  0.2166  0.2418
  518MOL0     C69810  -0.746   8.288   7.339 -0.3063 -0.4956  0.0634
  518MOL0     C69811  -0.897   8.335   7.334 -0.2650  0.0728  0.0097
  518MOL0     N69812  -0.970   8.267   7.229  0.8253  0.3734  0.0491
  518MOL0     C69813  -0.996   8.128   7.220 -0.1436 -0.1356  0.3104
  518MOL0     C69814  -1.071   8.114   7.114  0.1156  0.0872 -0.6575
  518MOL0     C69815  -1.136   7.983   7.063 -1.0433  0.2450 -0.0488
  518MOL0     C69816  -1.286   8.008   7.035  1.0073  0.1365 -0.0047
  518MOL0     C69817  -1.364   7.885   6.973 -0.8469 -0.9857 -0.2611
  518MOL0     C69818  -1.390   7.771   7.064 -0.1551 -0.0836 -0.2624
  518MOL0     O69819  -1.451   7.816   7.192  0.3383  0.6526  0.3506
  518MOL0     C69820  -1.584   7.836   7.202 -0.0177  0.5507  0.6526
  518MOL0     C69821  -1.629   7.892   7.321 -0.5459  0.9891  0.4594
  518MOL0     C69822  -1.762   7.932   7.342 -0.4017 -0.9182 -0.0664
  518MOL0     C69823  -1.784   7.998   7.474 -0.6399  0.0379  0.3046
  518MOL0     C69824  -1.864   7.877   7.245  0.4775 -0.4734 -0.2359
  518MOL0     C69825  -2.006   7.900   7.261 -0.0792 -0.1279  0.6446
  518MOL0     O69826  -2.087   7.811   7.205 -0.0082  0.6612  1.0323
  518MOL0     C69827  -2.221   7.829   7.189 -0.5744 -0.0932 -0.8563
  518MOL0     C69828  -2.292   7.803   7.075  0.5532 -1.5917  0.0465
  518MOL0     C69829  -2.433   7.800   7.066  0.0316 -0.2204 -0.4154
  518MOL0     C69830  -2.507   7.831   7.180  0.1067 -0.1458 -0.0165
  518MOL0     O69831  -2.647   7.834   7.173 -0.4943 -0.9837  0.2007
  518MOL0     C69832  -2.719   7.877   7.294 -0.2216  0.1718 -0.4995
  518MOL0     C69833  -2.866   7.848   7.256  0.6900  0.4575  0.2389
  518MOL0     C69834  -2.954   7.874   7.370 -0.1897 -0.7627 -0.3837
  518MOL0     C69835  -3.077   7.955   7.336 -0.2107 -0.6537  0.5877
  518MOL0     C69836  -3.163   7.971   7.471 -0.0330  0.8919 -0.2276
  518MOL0     C69837  -3.310   8.019   7.454 -0.0985 -0.7888 -0.6647
  518MOL0     C69838  -3.318   8.145   7.367 -0.1790  0.2645  0.2308
  518MOL0     C69839  -3.458   8.200   7.349  0.0893  0.9201 -0.7815
  518MOL0    Cl69840  -3.572   8.074   7.290  0.7248  0.3075 -0.1512
  518MOL0     C69841  -2.438   7.872   7.299 -0.2126  0.2773 -0.3217
  518MOL0     C69842  -2.298   7.872   7.302  0.4043  0.7589 -0.5686
  518MOL0     O69843  -2.038   8.006   7.315 -0.5417  0.1960  0.4831
  518MOL0     C69844  -1.815   7.807   7.136  0.0156 -0.6175  0.5399
  518MOL0     C69845  -1.678   7.800   7.112  0.4472  0.5271 -0.0758
  518MOL0     N69846  -1.086   8.240   7.062 -1.3778  0.3827 -0.0066
  518MOL0     N69847  -1.034   8.327   7.126  0.6845 -1.1020  0.6188
  518MOL0     C69848   0.273   8.511   7.287 -0.4201  0.1541  0.9192
  518MOL0     C69849   0.406   8.516   7.336  0.1372  0.0050 -0.2707
  518MOL0     C69850   0.734   8.332   7.628  0.1919  0.4866  0.5045
  518MOL0     C69851   0.813   8.216   7.589  0.4789  0.0436  1.0402
  518MOL0     C69852   0.946   8.216   7.627 -0.6065  0.7357  0.2278
  518MOL0     C69853   1.009   8.320   7.696 -0.3349  0.1742 -0.4341
  518MOL0     O69854   1.143   8.309   7.709 -0.3803  0.4559 -0.2728
  518MOL0     C69855   1.205   8.414   7.787  0.1928  0.1785  0.5344
  518MOL0     C69856   1.349   8.389   7.803 -0.5690 -0.2203  0.1184
  518MOL0     C69857   1.418   8.377   7.663  0.8557 -0.9880 -0.0159
  518MOL0     C69858   1.567   8.332   7.651 -0.1386 -0.7734  0.2423
  518MOL0     C69859   1.574   8.185   7.654  0.1002  0.3933  0.0622
  518MOL0     C69860   1.579   8.063   7.647  0.3797 -0.3743 -0.2858
  518MOL0     C69861   0.924   8.429   7.732  0.2614 -0.0031  0.0374
  518MOL0     C69862   0.792   8.442   7.701 -0.4160  0.0144 -0.3036
  518MOL0     H69863   0.333   8.452   7.668 -0.0029  0.5793  0.0725
  518MOL0     H69864   0.118   8.466   7.591  0.6292 -2.6377 -0.1179
  518MOL0     H69865  -0.046   8.379   7.471 -0.2851 -0.6560 -1.6591
  518MOL0     H69866  -0.076   8.547   7.501  0.3243 -0.1042  0.2090
  518MOL0     H69867  -0.219   8.556   7.316 -0.2879  0.8245  0.1757
  518MOL0     H69868  -0.197   8.376   7.289  2.6805  0.5544  0.0115
  518MOL0     H69869  -0.285   8.319   7.484 -0.2180 -0.7911 -2.3738
  518MOL0     H69870  -0.297   8.487   7.550  2.0715  0.1832  0.4684
  518MOL0     H69871  -0.488   8.537   7.394  0.7654 -1.0634  0.6324
  518MOL0     H69872  -0.457   8.389   7.300 -2.7221  0.1575  0.0294
  518MOL0     H69873  -0.516   8.253   7.480 -1.4864  0.2024 -0.8901
  518MOL0     H69874  -0.527   8.380   7.598 -0.6475 -2.1270  0.4829
  518MOL0     H69875  -0.727   8.337   7.554 -0.5545  0.3859  0.2300
  518MOL0     H69876  -0.714   8.479   7.449 -0.4354 -0.0187 -2.9411
  518MOL0     H69877  -0.701   8.320   7.245  1.0570  0.3234  0.9675
  518MOL0     H69878  -0.730   8.183   7.363  0.1459 -0.4222  0.0810
  518MOL0     H69879  -0.902   8.444   7.324  2.9365  0.1388 -2.3155
  518MOL0     H69880  -0.936   8.306   7.432 -1.8799  2.7061  0.2421
  518MOL0     H69881  -0.963   8.044   7.281 -1.2287 -2.4128 -2.0457
  518MOL0     H69882  -1.078   7.950   6.977 -1.3652 -0.3533 -0.0473
  518MOL0     H69883  -1.124   7.914   7.147  1.5411  0.1954 -0.3857
  518MOL0     H69884  -1.296   8.092   6.966  0.9783  0.1629  0.0311
  518MOL0     H69885  -1.345   8.032   7.124 -1.2623  0.7285 -1.6002
  518MOL0     H69886  -1.298   7.847   6.895 -0.4876  1.0210 -0.9743
  518MOL0     H69887  -1.453   7.922   6.922 -0.6250  0.5020  0.3707
  518MOL0     H69888  -1.292   7.724   7.077  1.7721  2.3656 -4.0000
  518MOL0     H69889  -1.456   7.693   7.023 -1.0374 -0.5804  1.9576
  518MOL0     H69890  -1.557   7.918   7.397 -1.1032 -0.2013  1.4297
  518MOL0     H69891  -1.709   7.972   7.550  1.6775  0.0626 -1.8291
  518MOL0     H69892  -1.765   8.105   7.464  0.6977  0.2862  3.9729
  518MOL0     H69893  -1.885   7.980   7.512 -1.1420 -0.5117 -1.2310
  518MOL0     H69894  -2.251   7.752   6.988 -2.8842 -3.2852 -0.7574
  518MOL0     H69895  -2.490   7.780   6.976 -1.2842 -0.4190  0.4273
  518MOL0     H69896  -2.694   7.812   7.379 -1.9353  0.4868  0.2987
  518MOL0     H69897  -2.700   7.983   7.314  1.9063 -0.0685 -0.9799
  518MOL0     H69898  -2.895   7.913   7.174 -1.1898  0.8975  1.2077
  518MOL0     H69899  -2.879   7.743   7.229 -2.0242  1.2933 -2.2169
  518MOL0     H69900  -2.899   7.939   7.439 -4.5923 -0.1579  3.0406
  518MOL0     H69901  -2.974   7.785   7.432  1.5365 -0.9255 -0.0073
  518MOL0     H69902  -3.054   8.054   7.296 -1.2036 -0.6711 -0.0533
  518MOL0     H69903  -3.139   7.904   7.262  0.2164 -0.2748 -0.0401
  518MOL0     H69904  -3.101   8.027   7.541  4.6045  0.6326 -3.6486
  518MOL0     H69905  -3.164   7.874   7.520  1.1631  2.8278  4.0215
  518MOL0     H69906  -3.366   7.938   7.406  0.6690 -1.2793 -0.7493
  518MOL0     H69907  -3.361   8.028   7.550 -3.4362 -4.1776 -1.8725
  518MOL0     H69908  -3.297   8.117   7.263  3.3474  2.5242  0.1752
  518MOL0     H69909  -3.247   8.222   7.397 -2.2971  2.1886  0.5093
  518MOL0     H69910  -3.458   8.293   7.292 -2.4350  2.0339  0.8397
  518MOL0     H69911  -3.488   8.226   7.451  1.3775 -1.2373  0.2427
  518MOL0     H69912  -2.485   7.908   7.390  1.1794  0.9122  0.1723
  518MOL0     H69913  -2.253   7.910   7.393 -1.1234  1.3417 -0.0089
  518MOL0     H69914  -1.886   7.767   7.064  0.9612 -2.0680  0.3907
  518MOL0     H69915  -1.651   7.768   7.012  2.8740 -0.2692  0.7486
  518MOL0     H69916   0.251   8.525   7.182 -1.6766  1.5243  1.3288
  518MOL0     H69917   0.487   8.520   7.264 -0.7521 -0.1784 -1.3038
  518MOL0     H69918   0.776   8.129   7.535  1.4376  0.9356 -1.1788
  518MOL0     H69919   1.015   8.134   7.612  1.1857  2.3625 -0.7936
  518MOL0     H69920   1.185   8.514   7.747  3.4875  0.4633 -0.7641
  518MOL0     H69921   1.156   8.408   7.884  0.3531  0.8878  0.6666
  518MOL0     H69922   1.358   8.297   7.861  1.6793  0.3638  0.8070
  518MOL0     H69923   1.397   8.472   7.857 -0.1083  1.4761 -2.6462
  518MOL0     H69924   1.415   8.474   7.614 -2.1963  0.1145  2.0836
  518MOL0     H69925   1.356   8.303   7.611 -2.9834  1.5394  0.5852
  518MOL0     H69926   1.618   8.381   7.734  1.8234  0.1125 -1.4265
  518MOL0     H69927   1.612   8.368   7.559 -0.4226 -1.3981 -0.1499
  518MOL0     H69928   1.584   7.956   7.643 -2.0826 -0.5306 -1.0326
  518MOL0     H69929   0.967   8.507   7.793 -0.5792 -0.9409  1.8983
  518MOL0     H69930   0.723   8.524   7.720 -1.6716 -1.5732  2.6458
  519MOL0     O69931   3.939   7.958   1.629 -0.1943 -0.4714 -0.3148
  519MOL0     C69932   4.019   7.981   1.539 -0.0702  0.0415  0.1673
  519MOL0     O69933   4.019   7.920   1.420 -0.1188  0.7191  0.0473
  519MOL0     C69934   3.910   7.842   1.379 -0.1311 -0.4006 -0.3837
  519MOL0     C69935   3.779   7.897   1.395  0.1789  0.0573 -0.1087
  519MOL0     C69936   3.667   7.822   1.355 -0.1999 -0.1617 -0.1205
  519MOL0     C69937   3.689   7.700   1.283  0.3260  0.2993 -0.6376
  519MOL0     O69938   3.577   7.628   1.240 -1.0818 -0.5088 -0.6434
  519MOL0     C69939   3.581   7.508   1.168 -0.3240 -0.9343  0.4117
  519MOL0     C69940   3.450   7.468   1.109  0.5204  0.6260  0.0140
  519MOL0     C69941   3.342   7.461   1.215  0.9394 -0.2233 -0.7435
  519MOL0     C69942   3.209   7.430   1.134  0.2120 -0.4745 -0.3529
  519MOL0     C69943   3.093   7.426   1.231 -0.5182 -0.2490 -0.0490
  519MOL0     C69944   2.965   7.426   1.144  0.2676  0.2125  0.3743
  519MOL0     C69945   2.834   7.412   1.221  1.0300  0.0905  0.0815
  519MOL0     C69946   2.828   7.508   1.344 -0.3091  0.7318 -0.3532
  519MOL0     N69947   2.689   7.517   1.408  0.2512  0.1182  0.2207
  519MOL0     C69948   2.583   7.540   1.330  0.0568 -0.4138 -1.2469
  519MOL0     C69949   2.479   7.525   1.414 -0.2199 -0.4427  0.0786
  519MOL0     C69950   2.330   7.548   1.386  0.2129 -0.3206  0.1250
  519MOL0     C69951   2.238   7.446   1.455  0.0257 -0.4226  0.9476
  519MOL0     C69952   2.109   7.417   1.371 -0.2505 -0.4977  0.0938
  519MOL0     C69953   1.988   7.491   1.427  0.8715 -0.0348 -0.2646
  519MOL0     O69954   1.882   7.473   1.319  0.4259  0.2957  0.1381
  519MOL0     C69955   1.751   7.516   1.342 -0.3137  0.1717  0.0108
  519MOL0     C69956   1.662   7.505   1.225  0.3706  0.2044 -0.5752
  519MOL0     C69957   1.524   7.515   1.238 -0.3473  1.0799 -0.6257
  519MOL0     C69958   1.442   7.484   1.118 -0.3885 -0.2687  0.2445
  519MOL0     C69959   1.469   7.534   1.372  0.8697 -0.7500  1.0167
  519MOL0     C69960   1.324   7.546   1.398  0.6558  0.3456  0.5181
  519MOL0     O69961   1.256   7.443   1.337  0.4377 -0.2484  0.3085
  519MOL0     C69962   1.123   7.440   1.359  0.2668 -0.1826 -0.4388
  519MOL0     C69963   1.041   7.483   1.258 -0.2359 -0.1209 -0.5764
  519MOL0     C69964   0.907   7.479   1.270  0.3773  0.4048 -0.0860
  519MOL0     C69965   0.845   7.409   1.376 -0.2006  0.9194  0.9597
  519MOL0     O69966   0.706   7.407   1.384  0.5610 -0.1873 -0.4823
  519MOL0     C69967   0.646   7.374   1.515  0.0991 -0.2479 -0.3359
  519MOL0     C69968   0.496   7.401   1.514 -0.5582 -0.0568 -0.5358
  519MOL0     C69969   0.460   7.552   1.505 -0.3466 -0.2204 -0.7891
  519MOL0     C69970   0.326   7.572   1.585 -0.0376  0.1364  0.0234
  519MOL0     C69971   0.213   7.491   1.519  0.0002  0.1761  0.3745
  519MOL0     C69972   0.083   7.529   1.596 -0.4112  0.8570 -0.2397
  519MOL0     C69973  -0.041   7.456   1.538 -0.3212  0.0564 -0.0497
  519MOL0     C69974  -0.170   7.486   1.613  0.4222 -1.3547 -0.3255
  519MOL0    Cl69975  -0.304   7.456   1.509  0.2487 -0.2385 -0.1478
  519MOL0     C69976   0.931   7.360   1.476 -0.5231  0.6098  0.0968
  519MOL0     C69977   1.070   7.382   1.470 -0.8315  0.4205 -0.3859
  519MOL0     O69978   1.268   7.624   1.480 -0.4881  0.0699  0.3980
  519MOL0     C69979   1.560   7.558   1.478  0.1926  0.6720 -0.7594
  519MOL0     C69980   1.700   7.557   1.461 -0.1138  0.1555 -0.8268
  519MOL0     N69981   2.530   7.495   1.540  0.8884 -0.2021  0.4349
  519MOL0     N69982   2.657   7.486   1.537 -0.2864 -0.8197  0.3890
  519MOL0     C69983   3.826   7.651   1.263  0.0839 -0.2956  0.1813
  519MOL0     C69984   3.936   7.725   1.316 -0.0453  0.6702 -0.2587
  519MOL0     C69985   4.132   8.087   1.561  1.0014  0.5612 -0.6738
  519MOL0     C69986   4.237   8.089   1.469 -0.3985 -0.1108 -0.3645
  519MOL0     C69987   4.344   8.169   1.488 -0.5789  0.0968  0.1688
  519MOL0     C69988   4.362   8.248   1.603  0.5237 -0.0971 -0.8139
  519MOL0     O69989   4.479   8.323   1.611 -0.2161 -0.2696 -0.1346
  519MOL0     C69990   4.518   8.336   1.747 -0.4343 -0.2266 -0.4294
  519MOL0     C69991   4.655   8.383   1.765 -0.3454 -0.4749  0.4453
  519MOL0     C69992   4.684   8.511   1.693  0.9124  0.1783  1.4092
  519MOL0     C69993   4.795   8.586   1.763  0.3888  0.3383  0.3221
  519MOL0     C69994   4.914   8.500   1.776 -0.2475 -0.2692  0.6308
  519MOL0     C69995   5.009   8.418   1.786 -0.3926 -0.0406  0.5112
  519MOL0     C69996   4.250   8.248   1.698 -0.3104  0.4341 -0.0109
  519MOL0     C69997   4.144   8.161   1.681  0.1464  0.4096  0.0751
  519MOL0     H69998   3.766   7.996   1.437 -1.2280 -0.3857  0.5742
  519MOL0     H69999   3.561   7.840   1.370 -0.4002 -0.2033 -1.3687
  519MOL0     H70000   3.650   7.514   1.084 -0.0100 -0.0200  0.7238
  519MOL0     H70001   3.610   7.425   1.233 -0.7561 -0.9094  0.6447
  519MOL0     H70002   3.436   7.534   1.023  2.9431  0.8063 -0.3023
  519MOL0     H70003   3.454   7.367   1.067  0.4747  0.1744  1.0533
  519MOL0     H70004   3.360   7.396   1.300 -0.5004  1.1768  0.7074
  519MOL0     H70005   3.317   7.558   1.259  2.7479 -0.8997  1.9954
  519MOL0     H70006   3.185   7.513   1.067  0.7170 -1.7001 -2.1292
  519MOL0     H70007   3.208   7.340   1.072 -0.3020 -1.7367  1.3947
  519MOL0     H70008   3.101   7.333   1.288 -3.0012  0.0789  0.9579
  519MOL0     H70009   3.102   7.511   1.298 -0.0780 -0.4948  0.2111
  519MOL0     H70010   2.970   7.526   1.099  3.1234  0.5286  1.2126
  519MOL0     H70011   2.973   7.347   1.068 -0.9791  1.1979 -0.8615
  519MOL0     H70012   2.754   7.445   1.154  0.7542 -0.2175  0.2533
  519MOL0     H70013   2.822   7.311   1.263 -0.9514  0.6981  1.1391
  519MOL0     H70014   2.872   7.602   1.309  0.2553 -0.3545 -2.7798
  519MOL0     H70015   2.900   7.466   1.415  2.8219  3.9617 -1.2933
  519MOL0     H70016   2.585   7.574   1.227 -1.1012  1.5620 -0.6615
  519MOL0     H70017   2.308   7.652   1.411  2.9782  0.8830 -1.8911
  519MOL0     H70018   2.315   7.544   1.278 -0.4989 -0.8404  0.2413
  519MOL0     H70019   2.213   7.483   1.555  0.6491  0.9270  0.6292
  519MOL0     H70020   2.286   7.349   1.470  0.1670 -0.0628  3.3149
  519MOL0     H70021   2.093   7.309   1.380  1.1172 -0.7891 -0.7049
  519MOL0     H70022   2.116   7.426   1.262  1.2880 -2.6015 -0.0432
  519MOL0     H70023   2.004   7.598   1.444 -1.1682  0.0599  1.4145
  519MOL0     H70024   1.948   7.449   1.519  0.2838 -0.2690 -0.6181
  519MOL0     H70025   1.706   7.488   1.127  1.6773  2.7953 -0.5242
  519MOL0     H70026   1.399   7.383   1.107  0.4037 -0.4957 -0.9234
  519MOL0     H70027   1.363   7.559   1.112 -0.2996 -0.2940 -1.9229
  519MOL0     H70028   1.497   7.489   1.024  0.2417  1.9737  0.6774
  519MOL0     H70029   1.094   7.522   1.172  3.6144  0.3372  1.7843
  519MOL0     H70030   0.839   7.522   1.198 -3.4802 -1.2794  2.2305
  519MOL0     H70031   0.662   7.268   1.534  4.2003  0.6130  2.1108
  519MOL0     H70032   0.691   7.435   1.594  0.3735 -2.1917  1.0730
  519MOL0     H70033   0.449   7.350   1.429  1.0459 -0.6727 -1.1050
  519MOL0     H70034   0.450   7.353   1.601 -0.1116  0.7331  0.1468
  519MOL0     H70035   0.454   7.580   1.400 -2.4435 -0.7989 -0.8563
  519MOL0     H70036   0.543   7.610   1.547 -1.2776  1.1939 -0.8128
  519MOL0     H70037   0.329   7.546   1.692 -2.7228  1.0708  0.3962
  519MOL0     H70038   0.303   7.678   1.575  0.6108  0.4157  1.2348
  519MOL0     H70039   0.230   7.384   1.536 -4.3745 -1.0603 -1.6277
  519MOL0     H70040   0.207   7.488   1.410  0.3580 -1.7189  0.3625
  519MOL0     H70041   0.119   7.501   1.696  0.1529  1.5868 -0.2352
  519MOL0     H70042   0.059   7.635   1.588 -1.0478  0.9055  1.7548
  519MOL0     H70043  -0.015   7.350   1.538  0.8186  0.3248  0.3687
  519MOL0     H70044  -0.050   7.485   1.432 -2.8737  0.0729  0.1011
  519MOL0     H70045  -0.171   7.592   1.637 -2.5517 -1.2309 -0.6259
  519MOL0     H70046  -0.180   7.421   1.701  0.9294 -0.2034  0.5988
  519MOL0     H70047   0.891   7.325   1.570  0.9798 -0.5664  0.3294
  519MOL0     H70048   1.135   7.380   1.557 -2.5594 -1.4491  0.9531
  519MOL0     H70049   1.531   7.584   1.580 -1.0100  3.3928 -1.6978
  519MOL0     H70050   1.763   7.560   1.550 -0.6063 -0.8265 -0.4166
  519MOL0     H70051   3.831   7.558   1.207 -1.9892 -0.6439  0.4960
  519MOL0     H70052   4.040   7.692   1.308 -0.7459 -2.0722  0.6613
  519MOL0     H70053   4.227   8.018   1.388 -0.5371 -0.9177  0.3347
  519MOL0     H70054   4.431   8.164   1.423  2.2698 -0.8855  3.7139
  519MOL0     H70055   4.447   8.408   1.788  2.5507  1.8752  1.4539
  519MOL0     H70056   4.506   8.244   1.804 -2.1009 -0.1980 -0.6996
  519MOL0     H70057   4.719   8.303   1.728 -1.2947 -1.3407  0.6402
  519MOL0     H70058   4.672   8.403   1.871  1.8932 -1.6463  0.3568
  519MOL0     H70059   4.594   8.573   1.688 -0.8284 -2.1927  1.6760
  519MOL0     H70060   4.719   8.504   1.589  3.2490  1.4129  2.0376
  519MOL0     H70061   4.759   8.611   1.863 -1.6637  0.2081 -0.3392
  519MOL0     H70062   4.817   8.678   1.708  2.7110 -1.5372 -2.1548
  519MOL0     H70063   5.090   8.349   1.785  2.2784  2.8726 -0.6309
  519MOL0     H70064   4.249   8.318   1.781  1.4232  1.9697 -1.2106
  519MOL0     H70065   4.071   8.163   1.761 -1.1102  1.4093 -1.0418
  520MOL0     O70066  10.103   1.201   5.368  0.3208  0.4571 -0.1289
  520MOL0     C70067  10.142   1.314   5.376  0.3301 -0.7810 -0.6044
  520MOL0     O70068  10.067   1.421   5.333  0.7724  0.3404 -0.3145
  520MOL0     C70069   9.954   1.387   5.260  1.0850  1.0180  0.4253
  520MOL0     C70070   9.828   1.437   5.293  0.0619  0.2222 -0.9897
  520MOL0     C70071   9.712   1.409   5.220 -0.7792  0.3786  0.8621
  520MOL0     C70072   9.721   1.333   5.104  0.3525  0.2273 -0.0244
  520MOL0     O70073   9.604   1.304   5.038  0.8942  0.3637 -0.3072
  520MOL0     C70074   9.607   1.248   4.902 -1.2239 -0.1444 -0.2648
  520MOL0     C70075   9.487   1.281   4.811  0.4240  0.4124  0.5402
  520MOL0     C70076   9.364   1.198   4.854 -0.2266 -0.1010 -0.1964
  520MOL0     C70077   9.271   1.147   4.739 -0.3000 -0.6915 -1.0475
  520MOL0     C70078   9.212   1.264   4.664 -0.0279  0.7576 -0.2981
  520MOL0     C70079   9.141   1.201   4.545 -0.2324  0.3064  0.0218
  520MOL0     C70080   9.098   1.304   4.442  0.1256 -0.0001  1.3270
  520MOL0     C70081   9.003   1.236   4.340  0.5927 -0.7755 -0.2146
  520MOL0     N70082   8.927   1.316   4.251  0.0420  0.2014  0.3299
  520MOL0     C70083   8.807   1.372   4.282 -0.0850 -0.0158  0.3430
  520MOL0     C70084   8.745   1.386   4.161 -1.1006 -0.7517 -0.1293
  520MOL0     C70085   8.621   1.459   4.128 -0.1724 -0.6035  0.2876
  520MOL0     C70086   8.523   1.445   4.239  1.0996 -0.0729  0.2383
  520MOL0     C70087   8.396   1.524   4.211 -0.2572 -0.2804  0.1100
  520MOL0     C70088   8.296   1.444   4.134  0.3060 -0.1682 -0.2813
  520MOL0     O70089   8.174   1.530   4.134  1.0077  0.3684  0.4447
  520MOL0     C70090   8.047   1.480   4.110 -0.0050  0.7893  0.0312
  520MOL0     C70091   7.940   1.556   4.155 -0.2132  0.0227  0.1771
  520MOL0     C70092   7.816   1.506   4.137  0.1849 -0.0609 -0.8525
  520MOL0     C70093   7.701   1.572   4.205  0.3720 -0.5446 -0.0524
  520MOL0     C70094   7.794   1.395   4.055 -0.4967  0.0097 -0.4074
  520MOL0     C70095   7.659   1.358   4.007  0.5646  0.2256  0.1101
  520MOL0     O70096   7.586   1.449   3.950  0.2341  0.5411  0.6114
  520MOL0     C70097   7.445   1.441   3.937 -0.1860  1.3941 -0.9617
  520MOL0     C70098   7.391   1.528   3.837 -0.3063  0.0425 -0.1477
  520MOL0     C70099   7.253   1.533   3.819  0.4882  0.2648 -0.3619
  520MOL0     C70100   7.167   1.445   3.892  0.1342  0.5426  0.5017
  520MOL0     O70101   7.032   1.457   3.855 -0.1740 -0.5787  0.4474
  520MOL0     C70102   6.926   1.363   3.897 -0.0873  0.2911 -0.1826
  520MOL0     C70103   6.866   1.398   4.039  0.3213 -0.1368  0.5776
  520MOL0     C70104   6.816   1.545   4.046 -1.0054  0.1515 -0.8858
  520MOL0     C70105   6.768   1.584   4.192 -0.0387  0.7277  0.4767
  520MOL0     C70106   6.701   1.709   4.179  0.6890  0.1245 -0.3146
  520MOL0     C70107   6.674   1.774   4.314  0.0365 -0.8661  0.0137
  520MOL0     C70108   6.795   1.852   4.379  0.2141 -0.0519  0.9250
  520MOL0     C70109   6.750   1.901   4.518 -0.6892  0.6931  0.2787
  520MOL0    Cl70110   6.708   1.761   4.622  0.2318 -0.0069 -0.1950
  520MOL0     C70111   7.221   1.355   3.981 -0.1215  0.0055  0.3517
  520MOL0     C70112   7.360   1.348   4.003  0.0186  0.0739 -0.1630
  520MOL0     O70113   7.621   1.244   4.019 -0.0148  0.0553  0.5467
  520MOL0     C70114   7.901   1.319   4.017  0.9223  0.5202 -0.1424
  520MOL0     C70115   8.029   1.357   4.051  0.1435  0.2845 -0.0464
  520MOL0     N70116   8.838   1.355   4.060  0.5207  0.0907  0.9377
  520MOL0     N70117   8.944   1.319   4.116 -0.3567 -0.1661  0.4535
  520MOL0     C70118   9.846   1.279   5.065 -0.3727 -0.8187  0.2473
  520MOL0     C70119   9.961   1.311   5.145  0.6729  0.4473 -0.1770
  520MOL0     C70120  10.274   1.339   5.449 -0.0343 -0.9700 -0.2600
  520MOL0     C70121  10.379   1.240   5.458  0.8987  0.0831  0.1309
  520MOL0     C70122  10.507   1.273   5.511  0.6679  0.2314  0.8728
  520MOL0     C70123  10.532   1.404   5.564  0.0187  0.2897 -0.2707
  520MOL0     O70124  10.649   1.437   5.633 -0.7485  0.1072 -1.0564
  520MOL0     C70125  10.739   1.507   5.554 -0.0204 -0.0008  1.5831
  520MOL0     C70126  10.883   1.489   5.599  0.2638  0.2407  0.3449
  520MOL0     C70127  10.921   1.340   5.626 -0.0274  0.8808  0.1649
  520MOL0     C70128  11.065   1.307   5.612  0.4343  0.0321  0.5723
  520MOL0     C70129  11.101   1.302   5.468 -0.4833 -0.7486 -0.0123
  520MOL0     C70130  11.133   1.303   5.352  0.8066 -0.0610 -0.2525
  520MOL0     C70131  10.437   1.509   5.542 -0.4445 -0.1602  0.2537
  520MOL0     C70132  10.311   1.469   5.484  0.2178 -0.1450  0.9507
  520MOL0     H70133   9.822   1.486   5.389 -0.2348 -1.3194 -0.1816
  520MOL0     H70134   9.615   1.443   5.255 -0.9337 -1.1131  2.0062
  520MOL0     H70135   9.680   1.301   4.840 -1.3981 -0.8720 -1.1032
  520MOL0     H70136   9.647   1.146   4.908 -0.4186  0.1306 -0.8241
  520MOL0     H70137   9.476   1.388   4.830  0.6561  0.6982 -0.8020
  520MOL0     H70138   9.512   1.262   4.706 -0.3891  0.1076  0.3897
  520MOL0     H70139   9.386   1.120   4.927 -0.7697 -0.2204 -0.1608
  520MOL0     H70140   9.302   1.268   4.910 -1.2354 -0.2972 -1.0438
  520MOL0     H70141   9.333   1.079   4.679  2.9255  2.0275 -1.1122
  520MOL0     H70142   9.191   1.091   4.789 -1.6684  3.2222  1.6212
  520MOL0     H70143   9.145   1.327   4.722  1.4641  1.8836  0.2587
  520MOL0     H70144   9.290   1.327   4.620  0.2135  0.4335 -0.3408
  520MOL0     H70145   9.206   1.132   4.490 -0.6171  1.2403 -1.6777
  520MOL0     H70146   9.060   1.145   4.591  1.4044 -0.9063  1.5632
  520MOL0     H70147   9.041   1.388   4.482  0.5507  0.3874  1.1353
  520MOL0     H70148   9.176   1.358   4.387 -1.6354  0.1841 -1.1211
  520MOL0     H70149   8.924   1.188   4.398 -0.3727  1.5933  0.5365
  520MOL0     H70150   9.063   1.167   4.280  1.0235  0.7122 -1.5726
  520MOL0     H70151   8.755   1.387   4.376  1.4556 -1.3105  1.4395
  520MOL0     H70152   8.655   1.562   4.115  2.4398 -0.9329  3.2680
  520MOL0     H70153   8.578   1.417   4.036  2.2213 -0.7967 -0.8329
  520MOL0     H70154   8.575   1.499   4.318  4.0824 -0.3753 -1.3919
  520MOL0     H70155   8.498   1.343   4.272 -1.2654  0.4989  0.3789
  520MOL0     H70156   8.411   1.617   4.156  0.6245 -1.4890 -1.8052
  520MOL0     H70157   8.348   1.548   4.306  0.8168  0.3300  0.5138
  520MOL0     H70158   8.267   1.354   4.189 -2.4282  1.8075  1.8102
  520MOL0     H70159   8.331   1.425   4.033  1.0626  0.8655 -0.2323
  520MOL0     H70160   7.944   1.648   4.212 -1.8952 -0.2467  0.7807
  520MOL0     H70161   7.743   1.638   4.282 -0.0113 -0.2363 -0.1035
  520MOL0     H70162   7.633   1.627   4.139  1.9894  0.7405 -0.7153
  520MOL0     H70163   7.643   1.497   4.260  0.6617 -0.5266  0.2744
  520MOL0     H70164   7.466   1.597   3.802 -1.0347  1.0813  0.2941
  520MOL0     H70165   7.195   1.585   3.743 -1.3943 -1.6407 -0.3228
  520MOL0     H70166   6.849   1.372   3.820  0.6964 -2.3399 -1.4053
  520MOL0     H70167   6.960   1.259   3.903  2.8114  1.1764  0.4071
  520MOL0     H70168   6.781   1.334   4.061 -1.5049  1.7827 -0.4857
  520MOL0     H70169   6.943   1.382   4.115  0.6401  0.4757  0.3936
  520MOL0     H70170   6.725   1.560   3.987 -1.5507  0.8813  0.1192
  520MOL0     H70171   6.899   1.613   4.023  0.1697 -1.5710 -2.0079
  520MOL0     H70172   6.717   1.505   4.248 -0.6415  0.2564 -0.7008
  520MOL0     H70173   6.853   1.595   4.261 -0.4074 -2.7584  1.7189
  520MOL0     H70174   6.597   1.699   4.145  0.8481  2.2216 -1.5899
  520MOL0     H70175   6.746   1.775   4.105  0.6819 -2.1782 -2.5040
  520MOL0     H70176   6.593   1.847   4.304  1.6266  0.7720 -1.9520
  520MOL0     H70177   6.643   1.695   4.383  0.6063 -0.2015  1.0608
  520MOL0     H70178   6.826   1.935   4.316  1.8559 -0.5918  0.9886
  520MOL0     H70179   6.885   1.791   4.392 -0.1557 -1.1286 -1.2210
  520MOL0     H70180   6.670   1.975   4.529  0.6745  2.2216  0.3087
  520MOL0     H70181   6.837   1.946   4.568 -0.5885 -0.9926  1.7402
  520MOL0     H70182   7.156   1.284   4.030 -1.1746 -0.8189 -2.0917
  520MOL0     H70183   7.398   1.274   4.073 -0.1633 -0.2802 -0.4341
  520MOL0     H70184   7.879   1.225   3.968 -2.6449  1.5398 -0.7970
  520MOL0     H70185   8.099   1.277   4.031 -0.2976 -0.8693  2.6068
  520MOL0     H70186   9.862   1.226   4.971 -0.0065 -0.5146  0.1367
  520MOL0     H70187  10.058   1.278   5.110  1.3486  2.4112 -0.2351
  520MOL0     H70188  10.357   1.148   5.406  0.8247  0.6218 -0.8116
  520MOL0     H70189  10.580   1.193   5.515 -1.1336 -1.5368  0.0837
  520MOL0     H70190  10.738   1.490   5.446 -2.5679 -2.0993  1.8404
  520MOL0     H70191  10.722   1.614   5.569  0.3295  0.3716 -0.4090
  520MOL0     H70192  10.893   1.544   5.693  1.5655  1.6312 -0.5626
  520MOL0     H70193  10.941   1.548   5.528 -3.1941  1.0641 -2.0878
  520MOL0     H70194  10.872   1.280   5.549  0.0105  0.9377  0.0964
  520MOL0     H70195  10.903   1.307   5.729  3.8484 -0.0244  0.7231
  520MOL0     H70196  11.082   1.207   5.654 -1.0224 -1.1263 -1.4254
  520MOL0     H70197  11.132   1.381   5.656  0.4671 -0.1785  0.8799
  520MOL0     H70198  11.157   1.311   5.248 -3.4206  2.4856 -1.2673
  520MOL0     H70199  10.472   1.611   5.555 -0.3064 -0.0396 -0.9866
  520MOL0     H70200  10.231   1.541   5.476  0.2587 -0.2328 -0.5925
  521MOL0     O70201   7.477  11.078   1.613  0.6070 -0.3399 -0.2952
  521MOL0     C70202   7.489  11.196   1.584 -0.4967  0.1683 -0.3432
  521MOL0     O70203   7.392  11.290   1.611  0.3000 -0.3663 -0.0614
  521MOL0     C70204   7.292  11.264   1.705  0.1670 -0.2648  0.3416
  521MOL0     C70205   7.314  11.189   1.822  0.2405  0.5493 -0.3251
  521MOL0     C70206   7.218  11.184   1.927 -0.0831 -0.0650 -1.2459
  521MOL0     C70207   7.098  11.255   1.917  1.0884 -0.0113  0.1164
  521MOL0     O70208   7.021  11.260   2.032 -0.2265  0.2938 -0.3804
  521MOL0     C70209   6.885  11.279   2.024  1.1700  1.0327 -0.6834
  521MOL0     C70210   6.824  11.246   2.157  0.2593 -0.1494 -0.0624
  521MOL0     C70211   6.887  11.340   2.260 -0.8145  0.8428 -0.1137
  521MOL0     C70212   6.781  11.405   2.339  0.9354 -0.9003  0.7053
  521MOL0     C70213   6.832  11.478   2.472 -0.2417  0.5411 -0.4192
  521MOL0     C70214   6.965  11.556   2.459 -0.8327  0.7053 -0.6659
  521MOL0     C70215   7.009  11.645   2.575  0.2047  0.3837  0.1224
  521MOL0     C70216   7.021  11.579   2.705  0.2086 -0.3205 -0.2555
  521MOL0     N70217   7.092  11.663   2.800  0.3981 -1.0005 -0.1795
  521MOL0     C70218   7.225  11.635   2.841 -0.5477  0.4370 -0.4250
  521MOL0     C70219   7.242  11.729   2.942  0.8568  0.4430  0.0714
  521MOL0     C70220   7.365  11.747   3.032 -1.0024 -0.3399 -0.0619
  521MOL0     C70221   7.443  11.861   2.963 -0.5442 -0.4773 -0.3368
  521MOL0     C70222   7.564  11.903   3.053  0.2661  0.6948 -0.6394
  521MOL0     C70223   7.659  12.002   2.970  0.6892  0.5444  0.0656
  521MOL0     O70224   7.745  12.078   3.048 -0.5440  0.3482 -0.2046
  521MOL0     C70225   7.871  12.033   3.075 -0.0982 -0.1879 -0.4440
  521MOL0     C70226   7.942  12.121   3.159 -0.0263 -1.0946  1.1097
  521MOL0     C70227   8.069  12.094   3.197  0.1528 -0.0455  0.6118
  521MOL0     C70228   8.124  12.206   3.288 -0.1136  0.3099 -0.1964
  521MOL0     C70229   8.141  11.981   3.143 -0.4162 -0.6643  0.2195
  521MOL0     C70230   8.290  11.971   3.151 -0.1055  0.0168 -0.8785
  521MOL0     O70231   8.357  11.861   3.096  0.4035  0.3981  0.1543
  521MOL0     C70232   8.483  11.836   3.147 -0.5521 -0.1550  0.2520
  521MOL0     C70233   8.530  11.845   3.277  0.1914 -0.1429  0.6646
  521MOL0     C70234   8.665  11.812   3.308  0.4128  0.2670  0.3031
  521MOL0     C70235   8.744  11.756   3.211  0.2203 -0.8100  0.0081
  521MOL0     O70236   8.867  11.716   3.251  0.1139 -0.0539 -0.5060
  521MOL0     C70237   8.980  11.771   3.176 -0.2756 -0.0279 -0.1928
  521MOL0     C70238   9.027  11.876   3.266 -0.7826  0.3397 -0.0212
  521MOL0     C70239   9.157  11.945   3.214 -0.3124 -0.0473  0.8630
  521MOL0     C70240   9.285  11.860   3.233 -0.9040  0.4758 -0.5895
  521MOL0     C70241   9.411  11.942   3.212 -0.2060 -0.0242  0.7158
  521MOL0     C70242   9.539  11.862   3.215 -0.4897 -0.1682  0.7393
  521MOL0     C70243   9.660  11.958   3.189  0.2982 -0.3735 -0.5864
  521MOL0     C70244   9.772  11.876   3.127 -0.3538 -0.3826 -0.4594
  521MOL0    Cl70245   9.732  11.853   2.952  0.2662 -0.5206 -0.0391
  521MOL0     C70246   8.702  11.748   3.077  0.1184  0.3866 -0.6648
  521MOL0     C70247   8.573  11.784   3.050 -0.2686 -0.8452  0.1801
  521MOL0     O70248   8.343  12.059   3.202 -0.0621  0.0648 -0.3263
  521MOL0     C70249   8.067  11.890   3.061  0.1774 -0.0404 -0.9463
  521MOL0     C70250   7.929  11.916   3.034  0.0304  0.4526 -0.0657
  521MOL0     N70251   7.126  11.809   2.956  0.4098  0.4571 -0.2998
  521MOL0     N70252   7.037  11.763   2.873  0.4855  0.2313 -0.0868
  521MOL0     C70253   7.069  11.321   1.802  0.1992 -0.4713 -0.6480
  521MOL0     C70254   7.165  11.332   1.694  0.0893 -0.1624 -0.4032
  521MOL0     C70255   7.609  11.244   1.514 -0.9435 -0.1538  0.7208
  521MOL0     C70256   7.712  11.153   1.491  0.2352  0.0945 -0.7828
  521MOL0     C70257   7.824  11.191   1.422  0.0677 -0.1811  0.6550
  521MOL0     C70258   7.848  11.327   1.396  0.1565  0.4383 -0.3634
  521MOL0     O70259   7.965  11.368   1.328  0.5341  0.0606 -0.2418
  521MOL0     C70260   7.950  11.479   1.241  0.1662 -0.2207  0.5506
  521MOL0     C70261   8.085  11.546   1.245  0.6840  1.0788 -0.6894
  521MOL0     C70262   8.116  11.605   1.380  0.4949 -0.1951 -0.2824
  521MOL0     C70263   8.258  11.675   1.371  0.4624  0.8404 -0.7807
  521MOL0     C70264   8.304  11.748   1.489 -0.4265  1.0881  0.1245
  521MOL0     C70265   8.355  11.802   1.585  0.7337 -0.2607 -0.2631
  521MOL0     C70266   7.737  11.414   1.421 -0.4251  0.1168 -0.7370
  521MOL0     C70267   7.615  11.377   1.467 -0.0192 -0.6567  0.7466
  521MOL0     H70268   7.403  11.128   1.830  0.4269  0.7747 -0.6565
  521MOL0     H70269   7.240  11.130   2.018  0.1850  0.0642 -1.2317
  521MOL0     H70270   6.857  11.383   2.002 -0.0047  1.0352  0.6978
  521MOL0     H70271   6.856  11.218   1.938  2.2155 -0.6389  0.1023
  521MOL0     H70272   6.717  11.260   2.139  0.8538  1.5761 -2.8077
  521MOL0     H70273   6.834  11.140   2.182 -0.7545  0.1177  1.6150
  521MOL0     H70274   6.958  11.283   2.319  1.8232  0.8117 -3.0550
  521MOL0     H70275   6.946  11.419   2.212  0.8074  1.1900  2.3040
  521MOL0     H70276   6.741  11.485   2.276  2.5304 -1.2804 -0.8764
  521MOL0     H70277   6.693  11.343   2.362  0.3399 -1.0586 -1.7433
  521MOL0     H70278   6.758  11.544   2.517  0.6592  0.2044  1.6541
  521MOL0     H70279   6.840  11.406   2.554 -0.2746  1.4044  0.3609
  521MOL0     H70280   7.040  11.479   2.437  0.2618  2.2290 -2.7255
  521MOL0     H70281   6.956  11.623   2.373 -3.2403 -1.0856 -1.9672
  521MOL0     H70282   7.108  11.679   2.543  0.0962 -1.1156 -1.9960
  521MOL0     H70283   6.944  11.731   2.593  1.0923  1.0605  0.1879
  521MOL0     H70284   7.066  11.480   2.698 -1.3583 -1.2124  1.3377
  521MOL0     H70285   6.923  11.556   2.748 -0.3519  0.8304 -0.8524
  521MOL0     H70286   7.292  11.554   2.813 -0.4083  0.3366  0.1858
  521MOL0     H70287   7.333  11.773   3.133 -2.4514  1.0543 -0.8361
  521MOL0     H70288   7.421  11.654   3.042 -1.9536 -0.7912  1.3861
  521MOL0     H70289   7.376  11.946   2.950 -0.6921 -0.5198  0.1510
  521MOL0     H70290   7.473  11.833   2.861 -1.4570 -3.2584  0.0729
  521MOL0     H70291   7.631  11.818   3.066  0.1221  0.7291  0.3547
  521MOL0     H70292   7.535  11.953   3.146 -2.6879  0.2354 -1.2215
  521MOL0     H70293   7.589  12.077   2.930  0.9784  0.2383 -1.0269
  521MOL0     H70294   7.715  11.955   2.889  0.8332 -0.8843  0.9568
  521MOL0     H70295   7.893  12.216   3.177  0.1082 -1.1668  1.9218
  521MOL0     H70296   8.047  12.253   3.349 -0.3219  0.6575 -0.7216
  521MOL0     H70297   8.197  12.164   3.358 -0.7294 -0.1571  0.1762
  521MOL0     H70298   8.165  12.285   3.225  0.4009  1.6046  1.6675
  521MOL0     H70299   8.472  11.870   3.365  0.4223  0.8540  0.5469
  521MOL0     H70300   8.698  11.820   3.411  0.8481 -0.8729  0.2651
  521MOL0     H70301   9.062  11.704   3.145 -0.0621  1.4478 -3.1428
  521MOL0     H70302   8.945  11.816   3.082 -1.7667  1.7911  1.1739
  521MOL0     H70303   8.948  11.952   3.271 -1.0599 -0.0042  1.5282
  521MOL0     H70304   9.034  11.831   3.366 -2.6023 -0.5934 -0.2531
  521MOL0     H70305   9.173  12.044   3.256 -1.7256  0.5189  0.1414
  521MOL0     H70306   9.138  11.955   3.107  1.3179  3.0008  0.7474
  521MOL0     H70307   9.289  11.828   3.337  2.0573  1.8358 -0.1744
  521MOL0     H70308   9.277  11.768   3.173  1.2201 -2.0223  2.5867
  521MOL0     H70309   9.414  12.021   3.288  0.0172  1.0067 -0.3302
  521MOL0     H70310   9.391  11.988   3.114 -4.3101 -1.6317  0.5770
  521MOL0     H70311   9.549  11.805   3.308 -0.9248 -1.5616 -0.0431
  521MOL0     H70312   9.536  11.785   3.137  1.1167  0.3801  0.1070
  521MOL0     H70313   9.700  12.003   3.281  1.3942  0.4153 -1.4128
  521MOL0     H70314   9.639  12.042   3.122  1.8547  1.0710  0.6333
  521MOL0     H70315   9.794  11.775   3.163  0.2568 -0.8836 -2.1362
  521MOL0     H70316   9.866  11.932   3.129 -0.5803  0.0979 -1.9738
  521MOL0     H70317   8.764  11.708   2.997  2.6053  1.1313  0.7689
  521MOL0     H70318   8.552  11.773   2.944  1.0793  2.9098 -0.6629
  521MOL0     H70319   8.109  11.796   3.029 -0.1497 -0.9799  1.2225
  521MOL0     H70320   7.886  11.838   2.972  1.6742 -1.0850  0.6119
  521MOL0     H70321   6.972  11.368   1.791  0.3801  0.0866  0.0283
  521MOL0     H70322   7.154  11.398   1.608  3.6925  0.6584 -0.4001
  521MOL0     H70323   7.691  11.050   1.518  1.2779 -0.2446 -1.1778
  521MOL0     H70324   7.891  11.111   1.393 -1.1076 -1.8093  2.2152
  521MOL0     H70325   7.930  11.442   1.140  2.0138 -0.2725  0.1713
  521MOL0     H70326   7.868  11.549   1.256 -0.3757 -0.4913 -0.9485
  521MOL0     H70327   8.082  11.624   1.168 -2.1119 -0.5109 -2.3560
  521MOL0     H70328   8.164  11.473   1.226 -1.4779 -1.1961 -1.4768
  521MOL0     H70329   8.111  11.532   1.461  2.9985 -0.1406 -0.0205
  521MOL0     H70330   8.040  11.680   1.404  1.5644  0.8533 -0.1400
  521MOL0     H70331   8.249  11.742   1.286 -2.4381  0.1505 -1.1388
  521MOL0     H70332   8.334  11.602   1.343  1.6539  0.6296  2.5057
  521MOL0     H70333   8.401  11.845   1.671  4.9326 -0.7469 -2.0203
  521MOL0     H70334   7.748  11.522   1.416  0.6817 -0.0062 -1.3652
  521MOL0     H70335   7.551  11.452   1.510  0.5677 -0.3071  1.0230
  522MOL0     O70336   8.230   3.817   8.035  0.3356 -0.2161  0.4950
  522MOL0     C70337   8.276   3.755   8.131 -0.3164 -0.1793 -0.0323
  522MOL0     O70338   8.204   3.663   8.201 -0.0767  0.3982 -0.1004
  522MOL0     C70339   8.068   3.669   8.186  0.2814 -0.3575 -0.1237
  522MOL0     C70340   8.002   3.614   8.074 -0.3730 -0.0127 -0.1957
  522MOL0     C70341   7.859   3.623   8.065 -0.2936 -0.2323 -1.1502
  522MOL0     C70342   7.789   3.680   8.180  0.8231 -0.0695 -0.2582
  522MOL0     O70343   7.651   3.666   8.190 -0.5569  0.7724  0.1993
  522MOL0     C70344   7.586   3.554   8.124  0.4268  0.5643 -0.3422
  522MOL0     C70345   7.474   3.516   8.220 -0.1652 -0.2538  0.2016
  522MOL0     C70346   7.394   3.412   8.160 -0.6716 -0.4300 -0.3025
  522MOL0     C70347   7.292   3.366   8.269 -1.1722 -0.8705 -0.6525
  522MOL0     C70348   7.155   3.344   8.205  0.9120 -0.3365 -0.1242
  522MOL0     C70349   7.083   3.476   8.162 -0.2110  0.0391 -0.2218
  522MOL0     C70350   6.963   3.453   8.066  0.4029  0.4439  0.0426
  522MOL0     C70351   6.919   3.591   8.010  0.0509  0.1200 -0.1327
  522MOL0     N70352   6.797   3.567   7.935  0.1638  0.4047 -0.5314
  522MOL0     C70353   6.679   3.516   7.989 -0.6776  0.1646 -0.3261
  522MOL0     C70354   6.586   3.536   7.899  0.1669 -0.0306  0.7289
  522MOL0     C70355   6.433   3.498   7.917 -0.1077 -0.0643 -0.0300
  522MOL0     C70356   6.375   3.387   7.830 -0.9305  0.6478 -0.1073
  522MOL0     C70357   6.224   3.360   7.853 -0.2306 -0.4589 -1.1659
  522MOL0     C70358   6.183   3.277   7.979  0.1563 -0.7980 -0.9993
  522MOL0     O70359   6.054   3.220   7.950  0.7896 -0.4558  0.0827
  522MOL0     C70360   5.937   3.288   7.996 -0.1780  1.2065  0.4898
  522MOL0     C70361   5.830   3.203   8.010  0.2833 -0.6111 -0.2077
  522MOL0     C70362   5.706   3.245   8.051 -0.3477  0.5274 -0.1027
  522MOL0     C70363   5.602   3.131   8.063 -0.2736  1.1963 -0.5251
  522MOL0     C70364   5.688   3.388   8.083  0.0710  0.1459  0.6653
  522MOL0     C70365   5.563   3.446   8.138  0.5410 -1.0323 -0.3686
  522MOL0     O70366   5.549   3.581   8.146  0.3205  0.0384 -0.7286
  522MOL0     C70367   5.439   3.618   8.218 -0.3491 -0.6989 -0.2419
  522MOL0     C70368   5.329   3.667   8.140  0.2635  0.3644 -0.0921
  522MOL0     C70369   5.209   3.691   8.209 -0.5376  0.0105 -0.2038
  522MOL0     C70370   5.196   3.653   8.343 -0.2450  0.5878 -0.5859
  522MOL0     O70371   5.075   3.683   8.404 -0.4455 -0.2535  1.0574
  522MOL0     C70372   5.095   3.782   8.511  0.7223 -0.1204 -0.2392
  522MOL0     C70373   4.949   3.825   8.561 -0.8152 -0.7544 -0.2195
  522MOL0     C70374   4.952   3.945   8.654  0.1926 -0.4885 -0.0377
  522MOL0     C70375   4.813   3.933   8.727 -0.8603  0.5998  0.2420
  522MOL0     C70376   4.782   4.060   8.817 -0.1627  0.4872 -0.1289
  522MOL0     C70377   4.638   4.041   8.878 -0.7425  0.1335 -0.2239
  522MOL0     C70378   4.632   4.089   9.031  0.3196  0.1757  0.5508
  522MOL0     C70379   4.479   4.092   9.068 -0.0045  1.2178  0.3843
  522MOL0    Cl70380   4.469   4.118   9.244  0.0722  0.0800  0.2729
  522MOL0     C70381   5.304   3.597   8.415  0.0480 -0.1908  0.5828
  522MOL0     C70382   5.426   3.589   8.355 -0.1245  0.3809  0.3483
  522MOL0     O70383   5.483   3.366   8.181  0.4659  1.0412  0.1461
  522MOL0     C70384   5.802   3.472   8.065  0.2818  0.2103 -0.3812
  522MOL0     C70385   5.923   3.421   8.023 -0.3257  0.1394 -0.2213
  522MOL0     N70386   6.643   3.593   7.786  0.0979  0.2704 -0.0727
  522MOL0     N70387   6.773   3.598   7.804 -0.3397 -0.4188 -0.1666
  522MOL0     C70388   7.855   3.737   8.284 -0.0238 -0.6733  0.2829
  522MOL0     C70389   7.993   3.730   8.285 -0.5986 -0.3544 -0.3054
  522MOL0     C70390   8.419   3.788   8.166  0.3712 -0.3003  0.5481
  522MOL0     C70391   8.478   3.726   8.278  0.2335 -0.4424 -0.1721
  522MOL0     C70392   8.604   3.768   8.314 -0.4573  0.3426  0.6014
  522MOL0     C70393   8.673   3.866   8.249  0.2246 -0.5809 -0.2231
  522MOL0     O70394   8.797   3.899   8.290 -0.2425  0.2323 -0.1566
  522MOL0     C70395   8.836   3.872   8.437 -0.0233  1.0398 -0.0052
  522MOL0     C70396   8.974   3.929   8.460  1.2006 -0.6678  0.5067
  522MOL0     C70397   9.080   3.862   8.377  0.3090  0.4355  0.0795
  522MOL0     C70398   9.228   3.874   8.432 -0.4348 -0.7675 -0.2491
  522MOL0     C70399   9.263   4.002   8.492 -0.0951 -0.5126  0.2938
  522MOL0     C70400   9.282   4.113   8.540 -1.0149 -0.3496 -0.4417
  522MOL0     C70401   8.610   3.927   8.134 -0.2583 -0.6457 -0.9929
  522MOL0     C70402   8.487   3.889   8.089 -0.0292  0.5325 -0.3811
  522MOL0     H70403   8.068   3.555   8.012  0.5520  0.7445  0.0292
  522MOL0     H70404   7.809   3.577   7.980  0.6320 -1.5251 -1.0412
  522MOL0     H70405   7.550   3.569   8.022 -0.2740  0.3311 -0.1367
  522MOL0     H70406   7.654   3.468   8.123 -0.4154 -0.1341  0.7348
  522MOL0     H70407   7.525   3.483   8.311  1.1023  2.8846  0.7913
  522MOL0     H70408   7.416   3.605   8.248  0.7424 -0.6506  3.9012
  522MOL0     H70409   7.339   3.450   8.074  0.4620  4.1130  0.7293
  522MOL0     H70410   7.454   3.325   8.128 -1.8641 -0.7813 -1.6692
  522MOL0     H70411   7.340   3.279   8.316  1.5897  1.0781  0.3870
  522MOL0     H70412   7.291   3.441   8.348  1.0452 -1.2140 -0.2263
  522MOL0     H70413   7.167   3.279   8.118  1.4946  2.7344 -2.5113
  522MOL0     H70414   7.100   3.290   8.283  2.0108  1.1451  1.7823
  522MOL0     H70415   7.045   3.520   8.255 -0.0355  2.6457 -1.2994
  522MOL0     H70416   7.154   3.544   8.115 -1.5396  0.2558 -2.0204
  522MOL0     H70417   6.994   3.389   7.982  1.0515  0.3012  0.3789
  522MOL0     H70418   6.880   3.403   8.117  0.9359 -0.0568  0.4290
  522MOL0     H70419   6.991   3.644   7.947  0.0066 -1.3075 -1.4346
  522MOL0     H70420   6.893   3.663   8.088 -1.8427  2.1858 -2.5187
  522MOL0     H70421   6.657   3.493   8.093  1.5566 -0.9416 -0.0319
  522MOL0     H70422   6.407   3.474   8.020 -2.7819 -2.8346 -1.1767
  522MOL0     H70423   6.375   3.590   7.907 -0.6787 -0.1458  2.1783
  522MOL0     H70424   6.421   3.290   7.855 -2.2457  0.1112  0.3220
  522MOL0     H70425   6.392   3.408   7.724  0.7549 -1.9560 -0.4538
  522MOL0     H70426   6.195   3.312   7.759  2.3866  0.6568 -2.6326
  522MOL0     H70427   6.172   3.456   7.862 -0.4697 -0.8217  2.8487
  522MOL0     H70428   6.179   3.344   8.065  0.9600 -1.4706 -0.4264
  522MOL0     H70429   6.251   3.192   7.988 -0.2162 -1.2180 -1.9459
  522MOL0     H70430   5.827   3.097   7.988 -2.3503 -0.7232  0.3657
  522MOL0     H70431   5.503   3.177   8.054 -0.1174  1.3648 -1.5332
  522MOL0     H70432   5.617   3.051   7.990 -5.5550  0.3013 -1.0953
  522MOL0     H70433   5.619   3.100   8.166 -3.3002 -1.8078 -0.7480
  522MOL0     H70434   5.338   3.678   8.033  5.3341 -1.4598 -0.1433
  522MOL0     H70435   5.127   3.725   8.147 -1.7978 -1.1335  0.7755
  522MOL0     H70436   5.156   3.751   8.597 -3.6091  0.8535  3.5931
  522MOL0     H70437   5.145   3.869   8.468  0.3451  0.3907  0.3366
  522MOL0     H70438   4.901   3.851   8.466  0.4400 -1.8854 -1.1988
  522MOL0     H70439   4.891   3.742   8.602  0.2258 -0.9595  0.8808
  522MOL0     H70440   4.959   4.038   8.596 -1.6162  0.4824  1.1963
  522MOL0     H70441   5.037   3.939   8.723  1.0791 -1.8314 -1.1937
  522MOL0     H70442   4.736   3.930   8.649 -3.0971 -3.0991  2.3038
  522MOL0     H70443   4.800   3.841   8.785 -0.6997  0.9894  0.8970
  522MOL0     H70444   4.786   4.151   8.757  3.4989  2.2101  2.3782
  522MOL0     H70445   4.862   4.071   8.890 -0.1528 -0.1592 -0.0342
  522MOL0     H70446   4.559   4.095   8.825  0.2051  1.5072 -0.3031
  522MOL0     H70447   4.609   3.936   8.884 -0.2175  0.0641  1.9621
  522MOL0     H70448   4.674   4.189   9.046  1.6236 -0.5317  1.9285
  522MOL0     H70449   4.700   4.026   9.089 -0.1190 -0.9834 -0.1501
  522MOL0     H70450   4.435   3.995   9.041  3.1879 -0.8094  1.7328
  522MOL0     H70451   4.429   4.170   9.010 -0.0049  0.9481  0.0192
  522MOL0     H70452   5.285   3.576   8.520 -2.6229  0.9467  0.4077
  522MOL0     H70453   5.513   3.543   8.401 -0.7566 -1.3982 -0.1357
  522MOL0     H70454   5.798   3.581   8.067  2.3621  0.3143  1.0111
  522MOL0     H70455   5.994   3.500   8.000 -1.1056  0.9790  0.2049
  522MOL0     H70456   7.799   3.783   8.364 -0.9086 -1.0513 -0.1090
  522MOL0     H70457   8.043   3.774   8.371  0.4322  0.3083 -1.2134
  522MOL0     H70458   8.423   3.643   8.322  2.0114 -1.8491 -0.4798
  522MOL0     H70459   8.644   3.715   8.400  3.0436  1.1465 -0.3746
  522MOL0     H70460   8.760   3.919   8.500 -3.4404 -0.6363 -2.5217
  522MOL0     H70461   8.836   3.764   8.456 -0.4588  0.6675 -1.9188
  522MOL0     H70462   8.999   3.899   8.562 -1.2136 -0.3625  1.2439
  522MOL0     H70463   8.979   4.038   8.452 -0.8512 -0.5952 -0.4639
  522MOL0     H70464   9.070   3.902   8.276 -2.8103  3.4619  1.3648
  522MOL0     H70465   9.054   3.756   8.371  0.5686  0.1510  2.6433
  522MOL0     H70466   9.306   3.865   8.357 -1.1076  0.6410 -1.1611
  522MOL0     H70467   9.239   3.795   8.507 -0.1289 -0.8550 -0.3855
  522MOL0     H70468   9.289   4.202   8.599  2.8184 -1.7459  1.5775
  522MOL0     H70469   8.672   4.004   8.090  0.1374  0.6506  1.6665
  522MOL0     H70470   8.448   3.928   7.995  0.2831 -1.5439 -1.4522
  523MOL0     O70471   7.924  10.237   6.094 -0.3213  0.1584 -0.6959
  523MOL0     C70472   7.938  10.332   6.017 -0.0098  0.7407 -0.3981
  523MOL0     O70473   7.851  10.437   6.016 -0.4872  0.1370  0.0871
  523MOL0     C70474   7.733  10.439   6.090 -0.2349 -0.3768 -0.8020
  523MOL0     C70475   7.735  10.433   6.226  0.0143  0.0369 -0.4520
  523MOL0     C70476   7.613  10.445   6.307 -0.7505  0.0636 -0.1091
  523MOL0     C70477   7.495  10.457   6.229 -0.5246  0.3675  0.6216
  523MOL0     O70478   7.370  10.473   6.277 -1.0641  0.0018  1.1129
  523MOL0     C70479   7.359  10.499   6.421  0.1060 -0.5884  0.4245
  523MOL0     C70480   7.222  10.570   6.449  0.3110  0.1873  0.0737
  523MOL0     C70481   7.180  10.670   6.336 -0.3461 -0.4124  0.2410
  523MOL0     C70482   7.037  10.719   6.337  0.0134  0.1049 -0.0447
  523MOL0     C70483   7.011  10.847   6.417  0.6716  0.0880 -0.3654
  523MOL0     C70484   6.871  10.861   6.473  0.7076  1.2187 -0.3719
  523MOL0     C70485   6.771  10.897   6.361 -0.2102  0.2209  0.3049
  523MOL0     C70486   6.635  10.931   6.411 -0.5913 -0.4555  0.3704
  523MOL0     N70487   6.566  11.005   6.314  0.8127  0.7999  0.3444
  523MOL0     C70488   6.542  11.141   6.317 -0.5858  0.5689 -0.0827
  523MOL0     C70489   6.455  11.160   6.217 -0.7131 -1.0535  1.0441
  523MOL0     C70490   6.402  11.296   6.175  0.2975 -0.1457 -0.1535
  523MOL0     C70491   6.274  11.331   6.238  0.1241  0.2560  0.2735
  523MOL0     C70492   6.153  11.267   6.161  0.9390  0.0518 -0.6056
  523MOL0     C70493   6.015  11.308   6.225 -0.4533  0.4054 -0.0510
  523MOL0     O70494   6.001  11.449   6.204 -0.0821 -0.1588 -0.1205
  523MOL0     C70495   5.877  11.505   6.239  0.7715 -0.1285 -0.2419
  523MOL0     C70496   5.859  11.643   6.220 -0.2187  0.2781 -0.1213
  523MOL0     C70497   5.730  11.703   6.221  0.4772 -0.4221 -0.2050
  523MOL0     C70498   5.718  11.846   6.187  0.1432  0.9766  0.8347
  523MOL0     C70499   5.617  11.635   6.266  0.2977  1.4668 -0.2542
  523MOL0     C70500   5.487  11.691   6.302  0.7261 -0.3019  0.6355
  523MOL0     O70501   5.399  11.588   6.333 -0.0604 -0.5045  0.2050
  523MOL0     C70502   5.269  11.622   6.315 -0.4005  0.8573 -0.6086
  523MOL0     C70503   5.206  11.704   6.406 -0.6662 -0.7136 -0.2381
  523MOL0     C70504   5.076  11.738   6.404  0.1711 -0.2781  0.5264
  523MOL0     C70505   5.004  11.692   6.291  0.0259 -0.4654 -0.8947
  523MOL0     O70506   4.870  11.721   6.266 -0.1461  0.7412 -0.8649
  523MOL0     C70507   4.787  11.708   6.382  0.4925  0.0523 -0.7225
  523MOL0     C70508   4.643  11.720   6.330 -0.3216 -0.6140  0.3377
  523MOL0     C70509   4.542  11.692   6.444 -0.9809  0.0207 -0.1178
  523MOL0     C70510   4.396  11.689   6.409 -0.2151 -0.4568 -0.2221
  523MOL0     C70511   4.299  11.749   6.519 -0.4014 -0.1197 -0.2513
  523MOL0     C70512   4.302  11.659   6.638  0.1304 -0.1779 -0.1762
  523MOL0     C70513   4.209  11.721   6.749  0.3468  0.1770  0.1131
  523MOL0     C70514   4.272  11.719   6.891  0.0905 -0.3341 -0.6187
  523MOL0    Cl70515   4.170  11.796   7.013 -0.6156  0.6016  0.3720
  523MOL0     C70516   5.066  11.608   6.197 -0.3552 -0.1104 -0.2313
  523MOL0     C70517   5.194  11.564   6.212 -1.1574 -0.6125  0.0805
  523MOL0     O70518   5.471  11.807   6.326  0.3310  0.3116 -0.8694
  523MOL0     C70519   5.640  11.492   6.289  0.3603  0.7916  0.3286
  523MOL0     C70520   5.766  11.433   6.273  0.6572  1.0713 -0.0764
  523MOL0     N70521   6.442  11.041   6.143  0.0419  0.0009  0.2626
  523MOL0     N70522   6.513  10.956   6.202  0.2628 -0.0977 -0.5180
  523MOL0     C70523   7.501  10.461   6.089  0.2305 -1.0157 -0.8829
  523MOL0     C70524   7.618  10.458   6.026 -0.1420  0.7395  0.3902
  523MOL0     C70525   8.065  10.352   5.953 -0.1172 -0.6781  0.3626
  523MOL0     C70526   8.158  10.247   5.953  0.6802  0.3986  0.4218
  523MOL0     C70527   8.279  10.264   5.884  0.5670  0.2504 -0.7151
  523MOL0     C70528   8.319  10.387   5.834  0.3868  1.1484 -0.1103
  523MOL0     O70529   8.448  10.383   5.779 -0.2253  0.4096  0.3514
  523MOL0     C70530   8.514  10.505   5.748  0.0068 -0.0796 -0.5008
  523MOL0     C70531   8.656  10.466   5.705 -0.8879  0.7608  0.1835
  523MOL0     C70532   8.738  10.367   5.783  0.8184  0.3367 -0.5723
  523MOL0     C70533   8.871  10.340   5.726  0.0682 -0.0813 -0.3691
  523MOL0     C70534   8.941  10.233   5.807  0.1187  0.8069 -0.1799
  523MOL0     C70535   8.985  10.147   5.881  0.7699  0.7014 -0.7410
  523MOL0     C70536   8.233  10.494   5.833 -1.0597  0.3222 -0.4032
  523MOL0     C70537   8.104  10.476   5.889 -0.6956 -0.5806  0.6347
  523MOL0     H70538   7.830  10.417   6.276  0.3135  0.3936 -0.8974
  523MOL0     H70539   7.619  10.442   6.415  0.7236 -0.9577 -0.1989
  523MOL0     H70540   7.376  10.410   6.482  0.2309  0.1508  1.4895
  523MOL0     H70541   7.435  10.573   6.448 -0.7749  0.4284  0.2226
  523MOL0     H70542   7.146  10.492   6.451 -0.2362  0.6967  2.6483
  523MOL0     H70543   7.223  10.618   6.548 -3.3274  1.5653 -0.3827
  523MOL0     H70544   7.238  10.762   6.345 -1.1130 -0.0756  2.5653
  523MOL0     H70545   7.185  10.630   6.235 -1.5410 -1.3605  0.5311
  523MOL0     H70546   7.006  10.734   6.234  1.8005  3.9570 -0.1867
  523MOL0     H70547   6.981  10.634   6.377 -0.7795  0.5396 -0.2103
  523MOL0     H70548   7.083  10.838   6.499 -1.9366 -1.7860  1.8870
  523MOL0     H70549   7.040  10.938   6.363  2.2970  0.4559  1.0349
  523MOL0     H70550   6.849  10.766   6.523  1.8679 -0.2247 -2.4408
  523MOL0     H70551   6.868  10.945   6.542 -2.9946  0.5826  0.4288
  523MOL0     H70552   6.812  10.982   6.306 -0.8896  1.7701  2.0775
  523MOL0     H70553   6.762  10.814   6.290 -2.1407 -0.6503  1.4810
  523MOL0     H70554   6.643  10.995   6.499  1.2419  1.7389 -1.2682
  523MOL0     H70555   6.585  10.838   6.440  1.8723 -1.9381  0.2554
  523MOL0     H70556   6.587  11.215   6.382  1.7255 -1.9815  1.4390
  523MOL0     H70557   6.476  11.376   6.181  1.5428 -1.2448 -0.4352
  523MOL0     H70558   6.383  11.277   6.069  0.3283 -1.0858  0.0016
  523MOL0     H70559   6.266  11.441   6.239  1.9489  0.4630  2.7335
  523MOL0     H70560   6.263  11.296   6.341  1.4585 -1.0966 -0.0168
  523MOL0     H70561   6.161  11.158   6.159 -0.0845 -0.0274 -0.9788
  523MOL0     H70562   6.157  11.293   6.055 -1.4256  0.4693 -0.6464
  523MOL0     H70563   6.001  11.283   6.331 -0.8208  1.2106  0.1019
  523MOL0     H70564   5.941  11.256   6.163 -1.9315  2.6087 -0.2970
  523MOL0     H70565   5.944  11.704   6.193  0.8474 -0.4721  1.3911
  523MOL0     H70566   5.811  11.890   6.148 -0.4889  1.7649  0.1934
  523MOL0     H70567   5.643  11.860   6.109  0.5819  0.4355  0.3005
  523MOL0     H70568   5.686  11.912   6.268 -0.3027 -2.0827  3.3383
  523MOL0     H70569   5.274  11.742   6.482  1.4457  1.3726 -2.9250
  523MOL0     H70570   5.034  11.816   6.467  0.1494  1.1822 -1.1894
  523MOL0     H70571   4.792  11.613   6.438 -2.8039 -0.9383 -1.8894
  523MOL0     H70572   4.804  11.789   6.454 -1.5288  0.6728 -0.8790
  523MOL0     H70573   4.627  11.823   6.296  0.4891 -0.6712 -0.2400
  523MOL0     H70574   4.629  11.652   6.246  0.3783 -0.7353  0.3126
  523MOL0     H70575   4.558  11.768   6.521  2.0437 -1.0235  0.4448
  523MOL0     H70576   4.556  11.596   6.495  2.8773  1.4269  1.9482
  523MOL0     H70577   4.382  11.735   6.311  1.3936 -0.4474 -0.4660
  523MOL0     H70578   4.377  11.582   6.396  2.2443 -1.1154  1.0448
  523MOL0     H70579   4.195  11.750   6.485 -1.1553 -1.9281  1.7508
  523MOL0     H70580   4.323  11.853   6.541  1.2931 -0.0892 -1.9928
  523MOL0     H70581   4.272  11.558   6.610  1.4088 -0.8199  0.6414
  523MOL0     H70582   4.405  11.648   6.675  1.2917 -0.1598 -3.1621
  523MOL0     H70583   4.117  11.662   6.749  0.7768 -0.5161 -0.9034
  523MOL0     H70584   4.183  11.822   6.716  2.5223  0.1119 -2.0754
  523MOL0     H70585   4.371  11.766   6.883  0.2436 -0.8204 -1.7748
  523MOL0     H70586   4.295  11.620   6.933 -0.2139  0.4917  1.6205
  523MOL0     H70587   5.006  11.584   6.109 -1.9993  0.3110  0.7310
  523MOL0     H70588   5.236  11.498   6.137  1.0532  0.6231  0.1297
  523MOL0     H70589   5.561  11.418   6.299  1.4782 -0.8579 -2.0562
  523MOL0     H70590   5.759  11.325   6.284 -3.1872  1.2646  0.7358
  523MOL0     H70591   7.412  10.486   6.031  0.4187 -0.8423 -1.1005
  523MOL0     H70592   7.633  10.473   5.920  1.6496  1.2359  0.6834
  523MOL0     H70593   8.123  10.153   5.996 -0.9374  2.4323  4.0046
  523MOL0     H70594   8.340  10.177   5.860 -3.8277 -3.2572 -0.3533
  523MOL0     H70595   8.463  10.558   5.666  0.0407 -0.7922 -0.9864
  523MOL0     H70596   8.529  10.566   5.838  1.9734  2.1080 -2.1736
  523MOL0     H70597   8.723  10.553   5.700 -0.3905  0.6241  3.0655
  523MOL0     H70598   8.636  10.439   5.601  0.5980  1.1317 -0.2211
  523MOL0     H70599   8.678  10.276   5.790 -1.2852  1.3713 -3.4464
  523MOL0     H70600   8.753  10.402   5.886  0.0731  2.6093 -1.1902
  523MOL0     H70601   8.930  10.431   5.742  0.7064 -0.4139 -0.7435
  523MOL0     H70602   8.866  10.304   5.623  1.6457 -1.1603 -0.1205
  523MOL0     H70603   9.032  10.078   5.948 -0.6984  1.4412  1.1570
  523MOL0     H70604   8.255  10.591   5.789 -2.1470  0.0061 -1.6970
  523MOL0     H70605   8.043  10.566   5.880 -0.8205 -0.5846  1.3703
  524MOL0     O70606   0.712   2.860  10.200  0.1686 -0.2345  0.0543
  524MOL0     C70607   0.723   2.983  10.179 -1.0249  0.0867  0.3964
  524MOL0     O70608   0.626   3.065  10.141  0.1761  0.3138 -0.2695
  524MOL0     C70609   0.501   3.015  10.103 -0.3790 -0.2057 -0.5508
  524MOL0     C70610   0.477   2.903  10.029  0.6045  0.4007 -0.4242
  524MOL0     C70611   0.346   2.878   9.990 -0.1310 -0.3724  0.8178
  524MOL0     C70612   0.242   2.975  10.007 -0.6066  0.3638 -0.7607
  524MOL0     O70613   0.116   2.968   9.960  0.5469  0.1514 -0.6812
  524MOL0     C70614   0.089   2.851   9.871 -0.2945  0.3369  0.3935
  524MOL0     C70615  -0.046   2.858   9.812 -0.3686  0.1382 -0.9750
  524MOL0     C70616  -0.095   2.714   9.760 -0.4022  0.0818 -0.4356
  524MOL0     C70617  -0.140   2.608   9.871 -0.1403 -0.9312 -0.1516
  524MOL0     C70618  -0.289   2.623   9.893 -0.3796 -0.0496 -0.5221
  524MOL0     C70619  -0.332   2.513   9.991 -0.6170  0.0154  0.2034
  524MOL0     C70620  -0.461   2.541  10.054  0.0258 -0.8781  0.2903
  524MOL0     C70621  -0.578   2.565   9.964  0.3145  0.1944 -1.0046
  524MOL0     N70622  -0.638   2.450   9.893 -0.2776 -0.8391  0.6304
  524MOL0     C70623  -0.753   2.381   9.924  0.1390  1.2837  0.9861
  524MOL0     C70624  -0.766   2.295   9.818 -0.8342 -0.5445  0.1012
  524MOL0     C70625  -0.872   2.186   9.822 -0.3770 -0.8274 -0.3416
  524MOL0     C70626  -1.013   2.249   9.793  0.7010  0.4664 -0.0360
  524MOL0     C70627  -1.118   2.131   9.798  0.2645 -0.1526  0.3791
  524MOL0     C70628  -1.266   2.186   9.763 -0.0780  0.0323  0.2864
  524MOL0     O70629  -1.330   2.247   9.877 -0.3693 -0.4475 -0.2702
  524MOL0     C70630  -1.447   2.311   9.858  0.0601  0.2829  0.0381
  524MOL0     C70631  -1.487   2.403   9.948  0.4076  0.6510  0.5344
  524MOL0     C70632  -1.616   2.470   9.940  0.7340  0.2267 -0.5891
  524MOL0     C70633  -1.644   2.568  10.047  0.0841 -0.3652 -0.1330
  524MOL0     C70634  -1.708   2.444   9.834 -0.5251  0.1238 -0.3272
  524MOL0     C70635  -1.847   2.492   9.820 -0.0531  1.0327  0.3083
  524MOL0     O70636  -1.910   2.477   9.697  0.1047 -0.3161 -0.2263
  524MOL0     C70637  -2.007   2.563   9.666  0.6804 -0.2581  0.2567
  524MOL0     C70638  -2.136   2.510   9.657 -0.1719  0.2542 -0.8884
  524MOL0     C70639  -2.236   2.600   9.628  0.2846 -0.2573 -0.2052
  524MOL0     C70640  -2.213   2.739   9.612 -0.2704  0.6537  0.1948
  524MOL0     O70641  -2.300   2.832   9.568  1.1502  0.6152 -0.0490
  524MOL0     C70642  -2.448   2.800   9.560  0.3835  1.0662  0.9320
  524MOL0     C70643  -2.537   2.920   9.534  0.4137  0.3322 -0.1043
  524MOL0     C70644  -2.570   2.985   9.667 -0.2539 -0.1580 -0.5742
  524MOL0     C70645  -2.648   3.119   9.644  0.1402 -0.1789  0.5129
  524MOL0     C70646  -2.655   3.197   9.775  0.2969  0.2697  0.3291
  524MOL0     C70647  -2.739   3.330   9.756 -0.5444 -0.4666 -0.2147
  524MOL0     C70648  -2.658   3.430   9.681  0.2626 -0.3690 -0.5390
  524MOL0     C70649  -2.724   3.566   9.706 -0.0872 -0.4628  0.4596
  524MOL0    Cl70650  -2.897   3.575   9.658 -0.0865 -0.2404  0.0785
  524MOL0     C70651  -2.082   2.783   9.620 -0.2074  0.3179  0.0376
  524MOL0     C70652  -1.982   2.693   9.649 -0.7044  0.1643 -0.6323
  524MOL0     O70653  -1.901   2.522   9.919  1.3082 -0.0633 -0.5239
  524MOL0     C70654  -1.668   2.346   9.744 -0.6090 -0.1932  0.1948
  524MOL0     C70655  -1.538   2.285   9.755  0.4691 -0.3957  0.2700
  524MOL0     N70656  -0.668   2.316   9.726  0.0534 -0.5911  0.4617
  524MOL0     N70657  -0.587   2.405   9.775 -0.0712 -0.2788 -0.2272
  524MOL0     C70658   0.268   3.092  10.083  0.5880 -0.7071  0.6277
  524MOL0     C70659   0.402   3.112  10.123  0.0423  0.2160 -0.0438
  524MOL0     C70660   0.859   3.047  10.201 -1.0628 -0.9893 -0.1440
  524MOL0     C70661   0.981   2.977  10.217 -0.0334 -0.5201  0.7099
  524MOL0     C70662   1.099   3.047  10.236 -0.4634  0.2461  0.5073
  524MOL0     C70663   1.110   3.193  10.233 -0.0686  0.2477 -0.2936
  524MOL0     O70664   1.222   3.273  10.235  0.1081  0.1218 -0.0277
  524MOL0     C70665   1.347   3.215  10.269  0.1033  1.0191  1.0773
  524MOL0     C70666   1.443   3.321  10.253  0.6085  0.1089  0.2562
  524MOL0     C70667   1.580   3.274  10.297  0.1515  0.3340  0.9478
  524MOL0     C70668   1.700   3.378  10.290  0.0030  0.4516 -0.6316
  524MOL0     C70669   1.709   3.465  10.168  0.1141  0.2530 -0.2891
  524MOL0     C70670   1.716   3.532  10.066 -0.5117  0.1783 -0.7450
  524MOL0     C70671   0.991   3.256  10.199 -0.3042 -1.3490 -0.3130
  524MOL0     C70672   0.871   3.192  10.195 -0.7723  0.5067  0.6689
  524MOL0     H70673   0.552   2.835   9.991  1.6210 -0.0905  2.2622
  524MOL0     H70674   0.329   2.784   9.939 -0.2075  0.3269 -0.4762
  524MOL0     H70675   0.157   2.850   9.785 -0.1254 -0.4021  0.5240
  524MOL0     H70676   0.100   2.753   9.919 -2.1565 -0.2375 -0.2615
  524MOL0     H70677  -0.112   2.888   9.894  1.8550  1.0104  0.5995
  524MOL0     H70678  -0.045   2.927   9.728 -1.7438  0.9778 -0.3301
  524MOL0     H70679  -0.170   2.737   9.683 -2.6360  1.0296  1.8840
  524MOL0     H70680  -0.009   2.678   9.703 -1.8551 -0.5329 -2.3809
  524MOL0     H70681  -0.108   2.510   9.837  0.1636 -0.6995 -0.5391
  524MOL0     H70682  -0.078   2.628   9.959  0.1786 -1.5254 -0.2392
  524MOL0     H70683  -0.307   2.722   9.936 -0.7430  0.4414 -1.7800
  524MOL0     H70684  -0.344   2.620   9.799 -0.7979  1.4045 -0.3414
  524MOL0     H70685  -0.337   2.414   9.945  0.9420 -0.5786  1.2147
  524MOL0     H70686  -0.262   2.511  10.075 -2.6191  0.2132  1.9795
  524MOL0     H70687  -0.484   2.456  10.120 -2.2868 -0.3408  0.2746
  524MOL0     H70688  -0.447   2.626  10.122 -0.9116 -1.5274  1.3463
  524MOL0     H70689  -0.564   2.652   9.900 -0.9127 -0.4618 -2.2167
  524MOL0     H70690  -0.657   2.589  10.036  2.8009  2.6833  1.1014
  524MOL0     H70691  -0.809   2.384  10.017 -2.1359  0.4528 -0.2871
  524MOL0     H70692  -0.847   2.116   9.742 -2.6476 -0.3397 -1.5473
  524MOL0     H70693  -0.870   2.140   9.921  2.6634 -2.0377 -0.8564
  524MOL0     H70694  -1.027   2.303   9.699  2.5035 -1.0109 -1.2326
  524MOL0     H70695  -1.027   2.312   9.882  2.2111  0.1916  0.4374
  524MOL0     H70696  -1.122   2.086   9.898  0.2333 -0.6535  0.1523
  524MOL0     H70697  -1.089   2.062   9.718  0.0653  2.1529 -1.8243
  524MOL0     H70698  -1.322   2.092   9.755 -0.2199  0.1868 -0.5834
  524MOL0     H70699  -1.263   2.239   9.668  3.4801  1.3288  0.9908
  524MOL0     H70700  -1.419   2.421  10.031  0.8997  1.9662 -0.1309
  524MOL0     H70701  -1.710   2.526  10.124 -1.8462  0.8943 -1.0378
  524MOL0     H70702  -1.554   2.597  10.103 -1.1460  1.7023  0.8917
  524MOL0     H70703  -1.689   2.662  10.015  0.6862  0.9023  2.4107
  524MOL0     H70704  -2.150   2.404   9.680  0.0303  0.6833  1.4887
  524MOL0     H70705  -2.336   2.558   9.626  0.5621 -1.0358  1.0444
  524MOL0     H70706  -2.469   2.724   9.485 -0.1474  0.9844  1.1571
  524MOL0     H70707  -2.486   2.769   9.658  2.0332 -3.5097  0.3530
  524MOL0     H70708  -2.477   2.984   9.469  2.9347 -0.5241  1.2332
  524MOL0     H70709  -2.628   2.902   9.477  0.6287  2.2869 -1.1616
  524MOL0     H70710  -2.474   3.001   9.718 -0.7853 -2.2600  1.2583
  524MOL0     H70711  -2.629   2.923   9.735  0.9113 -1.1461 -0.4321
  524MOL0     H70712  -2.606   3.181   9.564 -0.1010  0.3346  0.7801
  524MOL0     H70713  -2.750   3.083   9.624 -1.2387  1.8503  3.2538
  524MOL0     H70714  -2.552   3.217   9.809  0.3298 -2.5371  2.2139
  524MOL0     H70715  -2.691   3.133   9.856 -1.0017 -1.8620 -1.8334
  524MOL0     H70716  -2.837   3.312   9.710 -0.4499  0.9065 -0.9925
  524MOL0     H70717  -2.765   3.368   9.855 -0.8755  0.0462 -0.4932
  524MOL0     H70718  -2.656   3.413   9.573 -1.6840 -0.4786 -0.5910
  524MOL0     H70719  -2.554   3.440   9.714  0.2256  0.6972 -0.6938
  524MOL0     H70720  -2.667   3.647   9.660 -0.9412  0.6999  1.4022
  524MOL0     H70721  -2.712   3.577   9.815 -3.2040 -3.6318  1.3079
  524MOL0     H70722  -2.065   2.890   9.605 -2.5111  1.0162  1.8039
  524MOL0     H70723  -1.876   2.714   9.657 -0.2473 -2.5669  2.0529
  524MOL0     H70724  -1.727   2.314   9.659 -0.6112  0.8625 -0.2294
  524MOL0     H70725  -1.510   2.214   9.678 -2.9108 -1.9216  0.2567
  524MOL0     H70726   0.185   3.159  10.105 -0.2743 -2.2294  2.2521
  524MOL0     H70727   0.417   3.197  10.188  1.6632 -0.9851  1.2193
  524MOL0     H70728   0.982   2.869  10.226 -2.3179 -0.5679  0.9248
  524MOL0     H70729   1.191   2.989  10.241 -1.9976 -2.7220 -2.1803
  524MOL0     H70730   1.347   3.185  10.374  0.7765  1.2062  1.1362
  524MOL0     H70731   1.373   3.131  10.204 -0.8833 -1.3057  3.5020
  524MOL0     H70732   1.411   3.403  10.318 -2.3320 -0.1804 -0.6712
  524MOL0     H70733   1.443   3.361  10.151 -2.9369 -0.1452  0.0349
  524MOL0     H70734   1.613   3.179  10.253 -0.0753  1.5692 -2.1369
  524MOL0     H70735   1.566   3.256  10.404 -3.4629  0.7713  0.6887
  524MOL0     H70736   1.790   3.325  10.322 -0.2447  1.6517  2.3977
  524MOL0     H70737   1.691   3.444  10.377 -0.2327  0.1081 -0.3918
  524MOL0     H70738   1.723   3.603   9.985  0.0270 -0.8039 -1.5893
  524MOL0     H70739   0.988   3.364  10.189 -0.4493 -0.9905  2.7128
  524MOL0     H70740   0.778   3.244  10.170 -0.8877 -0.0660 -0.1282
  525MOL0     O70741   2.960   5.231   3.515  0.3128  1.4245 -0.5465
  525MOL0     C70742   2.964   5.342   3.573  0.4677 -0.4195  0.5091
  525MOL0     O70743   2.869   5.389   3.655  0.5084 -0.6269 -0.0217
  525MOL0     C70744   2.750   5.326   3.650 -0.1913 -0.6524 -0.8326
  525MOL0     C70745   2.724   5.225   3.747  0.4722 -0.4239  0.6720
  525MOL0     C70746   2.598   5.159   3.730 -0.3289 -0.3729 -0.4735
  525MOL0     C70747   2.498   5.194   3.638  0.4906 -0.0865 -0.3432
  525MOL0     O70748   2.373   5.133   3.628 -0.6686  0.0946  0.1867
  525MOL0     C70749   2.383   4.991   3.648 -0.3297 -1.1605 -0.4389
  525MOL0     C70750   2.266   4.923   3.587 -0.0528  0.2661 -0.1860
  525MOL0     C70751   2.138   4.944   3.669 -0.0461  0.3691 -0.1662
  525MOL0     C70752   2.041   4.851   3.606  0.0886 -0.0718 -0.2881
  525MOL0     C70753   1.894   4.860   3.671 -0.3344  0.4438  0.0180
  525MOL0     C70754   1.817   4.987   3.625  0.3941 -0.5283  1.4130
  525MOL0     C70755   1.667   4.979   3.674  0.2113 -0.1813 -0.4360
  525MOL0     C70756   1.619   5.133   3.673  1.2042 -0.1195  0.1545
  525MOL0     N70757   1.475   5.152   3.681  0.5871  0.7165 -0.7323
  525MOL0     C70758   1.395   5.143   3.795 -0.0292  0.2902  0.1703
  525MOL0     C70759   1.269   5.138   3.746 -0.7196 -0.0895 -1.2011
  525MOL0     C70760   1.148   5.108   3.835 -0.7389 -1.1404  0.4573
  525MOL0     C70761   1.014   5.188   3.802 -0.2717 -0.0364  0.5064
  525MOL0     C70762   0.908   5.142   3.901 -0.4768  0.1314 -0.2127
  525MOL0     C70763   0.777   5.224   3.906 -0.1012 -0.0394  0.2016
  525MOL0     O70764   0.695   5.173   3.806  0.4426 -0.4939  0.2141
  525MOL0     C70765   0.561   5.189   3.811  0.3012 -0.8095 -0.7008
  525MOL0     C70766   0.505   5.311   3.835 -0.2910 -0.3360 -0.2923
  525MOL0     C70767   0.371   5.338   3.815  0.0250 -0.0906 -0.3560
  525MOL0     C70768   0.335   5.489   3.822 -0.2561  0.4194  0.0710
  525MOL0     C70769   0.286   5.231   3.768 -1.3447  0.1807  0.0004
  525MOL0     C70770   0.148   5.243   3.748 -1.4994  0.3999 -0.2952
  525MOL0     O70771   0.081   5.126   3.725  0.3371 -0.1317  0.6415
  525MOL0     C70772  -0.051   5.131   3.681 -0.6644  0.0517 -0.3978
  525MOL0     C70773  -0.162   5.119   3.769  0.0727 -0.3220  0.7371
  525MOL0     C70774  -0.295   5.104   3.716 -0.1540 -0.2966  0.7889
  525MOL0     C70775  -0.319   5.087   3.581 -0.7967 -0.4389  0.6535
  525MOL0     O70776  -0.442   5.053   3.529 -0.1115 -0.3806 -0.2670
  525MOL0     C70777  -0.500   5.144   3.436  0.3355  0.2251  0.0615
  525MOL0     C70778  -0.628   5.070   3.403  0.3048 -0.3977 -0.3719
  525MOL0     C70779  -0.739   5.084   3.510  0.1750 -0.7810  0.1963
  525MOL0     C70780  -0.859   5.003   3.491  1.0598 -0.0462 -0.3708
  525MOL0     C70781  -0.971   5.036   3.593  0.2362 -0.2576 -0.1389
  525MOL0     C70782  -1.092   4.949   3.566  0.3665  0.4669  0.3265
  525MOL0     C70783  -1.211   5.004   3.647  0.4538  0.3847 -0.0121
  525MOL0     C70784  -1.303   5.102   3.582 -1.0267  0.4039  0.8498
  525MOL0    Cl70785  -1.363   5.031   3.430  0.0033 -0.1959  0.0356
  525MOL0     C70786  -0.210   5.091   3.495  0.4278  0.4515  0.6903
  525MOL0     C70787  -0.075   5.107   3.545 -0.4426  0.5546  0.1049
  525MOL0     O70788   0.110   5.355   3.717 -0.5089  0.7763  0.2203
  525MOL0     C70789   0.343   5.104   3.759  0.4922  0.1424  0.2850
  525MOL0     C70790   0.481   5.090   3.760 -0.1331 -0.4301 -0.6049
  525MOL0     N70791   1.277   5.127   3.606  0.9417  0.1935  0.2730
  525MOL0     N70792   1.396   5.148   3.567 -0.1833  0.0493  0.1701
  525MOL0     C70793   2.528   5.298   3.549 -1.1378 -0.0131  0.7473
  525MOL0     C70794   2.658   5.361   3.550 -0.3989  0.2524 -0.4241
  525MOL0     C70795   3.084   5.425   3.551  1.0977  0.3151 -0.2986
  525MOL0     C70796   3.176   5.400   3.444  0.3468 -0.0898 -0.1680
  525MOL0     C70797   3.283   5.495   3.426 -0.0452 -0.2730 -0.3271
  525MOL0     C70798   3.306   5.596   3.516  0.7508  0.5824 -0.0941
  525MOL0     O70799   3.408   5.686   3.524 -0.4917 -0.2323  0.0855
  525MOL0     C70800   3.506   5.697   3.421  0.2127  0.6963  0.7225
  525MOL0     C70801   3.621   5.605   3.468 -0.0278  0.3716  0.2651
  525MOL0     C70802   3.714   5.671   3.573 -0.3188  0.1403  0.1624
  525MOL0     C70803   3.813   5.561   3.626 -0.3765  1.1157  0.7276
  525MOL0     C70804   3.926   5.548   3.532  0.5655 -0.6898 -0.1306
  525MOL0     C70805   4.031   5.534   3.475 -0.1277  0.2377  0.8580
  525MOL0     C70806   3.218   5.621   3.628 -0.0697 -0.2259  0.4396
  525MOL0     C70807   3.106   5.532   3.634 -0.3678 -0.0687 -0.6376
  525MOL0     H70808   2.789   5.199   3.830  0.8414  0.7508  0.7723
  525MOL0     H70809   2.579   5.081   3.802 -0.0425  1.7787  2.0869
  525MOL0     H70810   2.472   4.955   3.596 -0.1777 -0.6639 -0.5336
  525MOL0     H70811   2.380   4.963   3.754 -2.2778 -2.9915 -0.9179
  525MOL0     H70812   2.238   4.948   3.485 -4.0812  1.7859  1.0758
  525MOL0     H70813   2.300   4.820   3.591 -3.3412 -1.0489 -2.2265
  525MOL0     H70814   2.164   4.917   3.771  4.0607 -2.1934 -1.6339
  525MOL0     H70815   2.098   5.045   3.665 -1.2107  0.0278  1.7930
  525MOL0     H70816   2.035   4.874   3.499 -0.7352  1.6944  0.1159
  525MOL0     H70817   2.074   4.747   3.613 -0.4399 -0.1068  2.7232
  525MOL0     H70818   1.841   4.767   3.645  1.9102 -1.0991  0.6108
  525MOL0     H70819   1.908   4.879   3.778  1.0764 -1.4072  0.2106
  525MOL0     H70820   1.865   5.076   3.667 -0.9926  0.7657  0.3447
  525MOL0     H70821   1.819   4.988   3.516  1.7203  0.9672  1.4263
  525MOL0     H70822   1.603   4.907   3.623 -1.8836  0.0950  1.6515
  525MOL0     H70823   1.663   4.950   3.780 -2.7460 -0.6473 -0.5929
  525MOL0     H70824   1.648   5.170   3.575  0.8298 -3.0447 -1.1533
  525MOL0     H70825   1.667   5.184   3.757  1.1778 -0.1996  0.2184
  525MOL0     H70826   1.428   5.141   3.899 -1.9110  0.6340  0.7995
  525MOL0     H70827   1.137   4.999   3.837 -0.9594 -1.2225  4.8805
  525MOL0     H70828   1.171   5.146   3.935 -1.4895 -0.0032  0.2148
  525MOL0     H70829   0.984   5.171   3.698  0.6143  2.8336 -0.2935
  525MOL0     H70830   1.034   5.292   3.826  0.6374  0.0686 -0.6853
  525MOL0     H70831   0.951   5.154   4.000 -1.4886  1.5591  0.0871
  525MOL0     H70832   0.883   5.037   3.880  0.1482  0.0848 -0.7812
  525MOL0     H70833   0.795   5.328   3.876  0.9295 -0.3323 -0.2350
  525MOL0     H70834   0.724   5.223   4.002  0.9379 -0.4359  0.7794
  525MOL0     H70835   0.573   5.387   3.871  1.8180 -2.6587  0.9687
  525MOL0     H70836   0.390   5.549   3.895  2.7424  1.8570 -3.0730
  525MOL0     H70837   0.353   5.532   3.723  1.1389  2.4380  1.1418
  525MOL0     H70838   0.230   5.503   3.850 -0.0400  0.7445  0.7182
  525MOL0     H70839  -0.150   5.125   3.877  1.8527 -0.7768  0.5869
  525MOL0     H70840  -0.375   5.107   3.790 -1.0641  0.9121 -0.1894
  525MOL0     H70841  -0.518   5.243   3.481 -0.2830  1.8223 -3.3535
  525MOL0     H70842  -0.436   5.150   3.348 -0.1292 -1.2392 -0.4031
  525MOL0     H70843  -0.664   5.118   3.312 -1.9486  1.6534  1.4831
  525MOL0     H70844  -0.613   4.963   3.385 -2.7162 -0.6702 -1.8697
  525MOL0     H70845  -0.781   5.185   3.522  0.1169 -1.1046  3.6058
  525MOL0     H70846  -0.692   5.064   3.607 -2.0799  1.5696  1.9112
  525MOL0     H70847  -0.897   5.023   3.390  1.0335  3.6552  0.2305
  525MOL0     H70848  -0.831   4.898   3.491 -1.9493 -0.9438 -1.2047
  525MOL0     H70849  -0.998   5.140   3.573 -0.7698 -0.5840 -0.5447
  525MOL0     H70850  -0.935   5.017   3.695 -1.6630 -2.4193  0.2073
  525MOL0     H70851  -1.128   4.974   3.465 -1.9631  1.0367  1.2349
  525MOL0     H70852  -1.077   4.842   3.576 -1.7594 -0.2572 -2.6738
  525MOL0     H70853  -1.174   5.057   3.735  3.7483 -0.4033 -0.7582
  525MOL0     H70854  -1.277   4.924   3.681  0.9654  0.0454  0.1909
  525MOL0     H70855  -1.255   5.200   3.576 -0.0578 -0.1012  0.0437
  525MOL0     H70856  -1.381   5.118   3.657 -0.6132 -0.7050  1.5350
  525MOL0     H70857  -0.210   5.056   3.392 -1.9236  2.3968 -0.0643
  525MOL0     H70858   0.007   5.100   3.474  1.0178  0.5852  1.6956
  525MOL0     H70859   0.293   5.009   3.740  0.4635  0.2262 -0.0667
  525MOL0     H70860   0.516   4.987   3.761 -1.5121 -0.9273 -0.6616
  525MOL0     H70861   2.458   5.315   3.467 -0.3845  0.4509  0.1904
  525MOL0     H70862   2.685   5.423   3.465 -2.7419 -0.8670 -2.1086
  525MOL0     H70863   3.154   5.321   3.373 -2.6494  1.6001 -1.3025
  525MOL0     H70864   3.347   5.484   3.339  0.3992 -0.8151  0.0600
  525MOL0     H70865   3.455   5.665   3.329  0.2379 -0.3268  1.0481
  525MOL0     H70866   3.546   5.798   3.408 -1.9797  1.4434 -0.9956
  525MOL0     H70867   3.687   5.589   3.382 -0.0215  2.8950 -0.2595
  525MOL0     H70868   3.578   5.511   3.507 -0.4221  0.8653  1.0462
  525MOL0     H70869   3.654   5.713   3.654 -1.1683  0.8905 -0.8288
  525MOL0     H70870   3.767   5.759   3.536  1.1375 -1.0371 -0.6382
  525MOL0     H70871   3.775   5.462   3.655  3.3180 -0.9198 -0.6933
  525MOL0     H70872   3.868   5.590   3.716  2.3263 -1.3514  0.0483
  525MOL0     H70873   4.117   5.536   3.412 -0.3936  0.9656  0.4982
  525MOL0     H70874   3.233   5.710   3.688 -2.0025  0.9680 -0.7261
  525MOL0     H70875   3.034   5.553   3.712 -4.4326  2.5637 -4.6526
  526MOL0     O70876   8.638   4.319   4.560  0.4129 -0.3580  0.6117
  526MOL0     C70877   8.732   4.394   4.588 -0.0139 -0.2932 -0.0919
  526MOL0     O70878   8.750   4.529   4.553 -0.0698 -0.2563  0.3982
  526MOL0     C70879   8.663   4.591   4.462  0.1310  0.0673  0.0269
  526MOL0     C70880   8.718   4.657   4.344 -0.1587 -0.3006  0.0641
  526MOL0     C70881   8.633   4.726   4.260  0.3786 -0.8515 -0.3271
  526MOL0     C70882   8.492   4.726   4.284  0.0171  0.2401 -0.8470
  526MOL0     O70883   8.402   4.779   4.191  0.2242 -0.1090 -0.8724
  526MOL0     C70884   8.457   4.851   4.089 -0.7399  0.3839  1.2647
  526MOL0     C70885   8.348   4.886   3.987  1.4693  0.2232 -0.0544
  526MOL0     C70886   8.240   4.986   4.030 -0.7858 -0.0478 -0.7301
  526MOL0     C70887   8.169   5.043   3.918 -0.0989  0.2191 -0.0957
  526MOL0     C70888   8.064   5.136   3.972  0.7223  0.2823 -0.1912
  526MOL0     C70889   7.977   5.181   3.848  0.2516  0.4735  0.5567
  526MOL0     C70890   7.869   5.279   3.889  0.3445  0.5530 -0.3740
  526MOL0     C70891   7.775   5.302   3.771 -1.0615 -0.2112 -0.3730
  526MOL0     N70892   7.729   5.446   3.782 -0.2138 -0.9814  0.5148
  526MOL0     C70893   7.767   5.551   3.704  0.1284  0.2504  0.1478
  526MOL0     C70894   7.689   5.653   3.738 -0.8172  0.2908  0.4431
  526MOL0     C70895   7.730   5.786   3.686 -0.3361  0.4026 -0.3707
  526MOL0     C70896   7.619   5.862   3.610 -0.3241  0.2334 -0.8358
  526MOL0     C70897   7.511   5.902   3.710 -0.3213  0.2140 -0.1768
  526MOL0     C70898   7.434   6.018   3.648  1.0839  0.6829 -0.6758
  526MOL0     O70899   7.300   6.017   3.711 -0.0353  0.2285 -0.0051
  526MOL0     C70900   7.224   6.132   3.716 -0.6584 -0.1297  0.2485
  526MOL0     C70901   7.272   6.262   3.696 -0.1165 -0.1061 -0.5545
  526MOL0     C70902   7.187   6.374   3.712  0.6328  0.0622 -0.2768
  526MOL0     C70903   7.252   6.512   3.684 -0.1463 -0.3333 -0.4418
  526MOL0     C70904   7.046   6.351   3.729 -0.3667  0.0480  0.2360
  526MOL0     C70905   6.949   6.468   3.739  0.0237  0.4671 -0.0818
  526MOL0     O70906   6.991   6.595   3.772  0.0416 -0.9825 -0.0851
  526MOL0     C70907   6.897   6.699   3.756  0.0441 -0.1855 -0.3613
  526MOL0     C70908   6.856   6.788   3.859  0.3186  0.1235 -0.6357
  526MOL0     C70909   6.764   6.896   3.829 -0.4376  0.6757 -0.5863
  526MOL0     C70910   6.728   6.916   3.694  1.2215 -0.4759 -0.2155
  526MOL0     O70911   6.646   7.011   3.648  0.3283 -0.5613  0.1883
  526MOL0     C70912   6.566   7.077   3.745 -0.5078  0.5828  0.4769
  526MOL0     C70913   6.457   7.165   3.674 -0.8694  0.2451 -0.1600
  526MOL0     C70914   6.415   7.264   3.785 -0.2482  0.4945 -0.5453
  526MOL0     C70915   6.295   7.343   3.730  0.4863  0.5139 -0.2648
  526MOL0     C70916   6.245   7.446   3.827 -0.3007 -0.6090 -1.1860
  526MOL0     C70917   6.130   7.530   3.773  0.2401  0.2846 -0.3643
  526MOL0     C70918   6.081   7.640   3.867 -0.0877 -0.0722 -0.7420
  526MOL0     C70919   5.932   7.667   3.839 -0.2597  1.0734 -0.4166
  526MOL0    Cl70920   5.876   7.795   3.949  0.2928 -0.1682 -0.0370
  526MOL0     C70921   6.789   6.836   3.593 -0.1903  0.2365  0.5272
  526MOL0     C70922   6.863   6.727   3.626  0.0243 -0.1308 -0.8859
  526MOL0     O70923   6.832   6.431   3.712 -0.2120 -0.0100  0.2946
  526MOL0     C70924   7.004   6.209   3.758  0.0226  0.0768  0.1397
  526MOL0     C70925   7.090   6.107   3.739  0.1645  0.0883 -0.2286
  526MOL0     N70926   7.607   5.613   3.844  0.8217  0.3069  0.0505
  526MOL0     N70927   7.633   5.484   3.864 -0.1419 -0.2284 -0.1317
  526MOL0     C70928   8.439   4.659   4.402  0.6443  0.8039 -0.4766
  526MOL0     C70929   8.522   4.585   4.489  0.0606  0.7942 -0.5160
  526MOL0     C70930   8.846   4.341   4.676  0.4888  0.8265  0.4293
  526MOL0     C70931   8.834   4.210   4.726 -0.4043 -0.1796 -0.2755
  526MOL0     C70932   8.926   4.152   4.801 -0.3668  0.0756 -0.5008
  526MOL0     C70933   9.046   4.216   4.825 -0.3711 -0.2049 -0.0345
  526MOL0     O70934   9.147   4.174   4.901 -0.4261 -0.4292  0.5246
  526MOL0     C70935   9.127   4.066   4.990 -1.1331 -0.0800  0.7748
  526MOL0     C70936   9.241   4.069   5.089  0.1367 -0.1003 -0.5204
  526MOL0     C70937   9.222   3.964   5.205  0.0581 -0.2565  0.4856
  526MOL0     C70938   9.328   3.965   5.307  0.0924 -0.0407  0.0516
  526MOL0     C70939   9.302   3.877   5.428  0.0184  0.1927 -0.3770
  526MOL0     C70940   9.282   3.804   5.517  0.7123  0.5253  0.5629
  526MOL0     C70941   9.061   4.347   4.767 -0.1879 -0.2869 -0.5723
  526MOL0     C70942   8.964   4.408   4.698  0.3274 -0.6189 -0.3523
  526MOL0     H70943   8.822   4.655   4.314  0.6968 -0.8233  2.8081
  526MOL0     H70944   8.672   4.782   4.175 -0.6854  1.5845  0.6919
  526MOL0     H70945   8.504   4.940   4.131  1.0987  0.5390 -0.9154
  526MOL0     H70946   8.529   4.786   4.038 -2.2828 -0.0889 -0.4598
  526MOL0     H70947   8.392   4.929   3.896 -1.0239 -1.2471 -2.0728
  526MOL0     H70948   8.315   4.791   3.944  0.5124  1.0167 -1.1578
  526MOL0     H70949   8.164   4.935   4.089 -1.2061  0.4797 -0.8194
  526MOL0     H70950   8.278   5.070   4.089 -0.9666  0.4748 -1.3515
  526MOL0     H70951   8.234   5.104   3.856 -0.4471  1.6018  0.8361
  526MOL0     H70952   8.128   4.967   3.851  0.7834  2.6424 -3.6236
  526MOL0     H70953   8.000   5.087   4.046 -1.0776  1.6522 -0.7884
  526MOL0     H70954   8.115   5.221   4.017  0.5985  1.2062 -1.7219
  526MOL0     H70955   8.024   5.223   3.758 -2.1073 -1.4859 -1.7679
  526MOL0     H70956   7.920   5.093   3.818  0.2119  0.5238  0.4852
  526MOL0     H70957   7.814   5.244   3.977  1.1020 -0.8890 -0.4416
  526MOL0     H70958   7.919   5.368   3.928 -0.2526  0.8598 -0.3054
  526MOL0     H70959   7.694   5.229   3.779 -1.6552  0.2336 -1.9476
  526MOL0     H70960   7.823   5.291   3.673 -0.5466  1.0549 -0.2836
  526MOL0     H70961   7.852   5.539   3.638  2.4212 -0.8074  3.0467
  526MOL0     H70962   7.762   5.851   3.769  1.2626  0.7480 -1.2160
  526MOL0     H70963   7.817   5.769   3.622 -1.6827  0.3156 -2.2620
  526MOL0     H70964   7.590   5.795   3.528  2.7535 -0.4434 -1.4847
  526MOL0     H70965   7.657   5.952   3.561 -2.5024  0.0658 -3.0989
  526MOL0     H70966   7.548   5.938   3.807 -1.8736  2.0782 -0.1957
  526MOL0     H70967   7.440   5.820   3.723 -0.2029 -0.3845 -2.8658
  526MOL0     H70968   7.413   6.008   3.541 -2.9872  1.1013 -0.0986
  526MOL0     H70969   7.487   6.110   3.675  1.8963  0.2617 -0.8072
  526MOL0     H70970   7.375   6.288   3.676 -0.3353  1.3025 -0.0104
  526MOL0     H70971   7.252   6.565   3.779 -0.2765  0.4722 -0.8859
  526MOL0     H70972   7.352   6.505   3.639 -0.0444 -0.3640 -0.2150
  526MOL0     H70973   7.190   6.577   3.622  0.0476  0.9475  0.6734
  526MOL0     H70974   6.901   6.778   3.957 -0.4472  0.8162 -0.1941
  526MOL0     H70975   6.737   6.960   3.913  0.2896 -0.0711  0.2275
  526MOL0     H70976   6.520   7.003   3.811  1.0639 -3.1813 -2.3481
  526MOL0     H70977   6.634   7.148   3.794  2.1688 -0.1516 -1.9053
  526MOL0     H70978   6.500   7.209   3.584 -1.6660  2.1440  0.3489
  526MOL0     H70979   6.368   7.110   3.643  0.1984 -1.0649 -1.0435
  526MOL0     H70980   6.498   7.332   3.803 -0.7190  0.6146  1.4064
  526MOL0     H70981   6.389   7.225   3.883  0.2291  2.0895  0.2481
  526MOL0     H70982   6.326   7.393   3.638 -1.4413  0.2677 -1.1002
  526MOL0     H70983   6.210   7.279   3.704 -0.7200  1.8230  0.2726
  526MOL0     H70984   6.326   7.511   3.865  0.5033 -1.0439 -2.1173
  526MOL0     H70985   6.213   7.390   3.915  0.8793 -1.6271 -1.3737
  526MOL0     H70986   6.161   7.580   3.680 -0.3076 -0.2390 -0.8390
  526MOL0     H70987   6.047   7.463   3.750  1.2284 -0.7646 -0.9658
  526MOL0     H70988   6.135   7.734   3.849 -1.0774  0.7929  0.5991
  526MOL0     H70989   6.091   7.602   3.968 -1.0832 -0.4433 -0.7677
  526MOL0     H70990   5.872   7.580   3.865  0.2201  1.7246  3.3531
  526MOL0     H70991   5.906   7.701   3.738  1.2376  4.6141  0.2098
  526MOL0     H70992   6.766   6.860   3.490 -0.6060 -1.4212  0.1896
  526MOL0     H70993   6.899   6.652   3.555 -0.0465 -1.1691  0.1432
  526MOL0     H70994   6.903   6.188   3.791 -0.6298 -1.0073 -2.3180
  526MOL0     H70995   7.065   6.003   3.756  2.8021 -0.5059  0.4346
  526MOL0     H70996   8.332   4.658   4.421  0.9493  1.8075  1.6003
  526MOL0     H70997   8.495   4.524   4.574  1.0184 -1.0510 -1.4775
  526MOL0     H70998   8.740   4.159   4.707 -0.3930  0.1625 -1.2883
  526MOL0     H70999   8.919   4.051   4.840 -1.3583 -0.5296 -2.1613
  526MOL0     H71000   9.034   4.078   5.046 -2.0523 -0.4470 -0.6208
  526MOL0     H71001   9.133   3.967   4.943 -0.9949 -1.1947  3.0258
  526MOL0     H71002   9.247   4.166   5.139  0.3650 -0.0119 -0.7152
  526MOL0     H71003   9.333   4.058   5.032  0.6862 -0.2396  0.3898
  526MOL0     H71004   9.201   3.871   5.152 -1.2137  0.4230 -0.2381
  526MOL0     H71005   9.130   4.001   5.250  0.2943 -2.2839  2.8717
  526MOL0     H71006   9.339   4.069   5.340 -1.1082 -0.4600  1.9582
  526MOL0     H71007   9.422   3.923   5.271 -0.6939 -0.5218 -1.5647
  526MOL0     H71008   9.266   3.744   5.604  0.4437  1.0899  0.9118
  526MOL0     H71009   9.163   4.383   4.777  1.2131 -3.8919 -0.2204
  526MOL0     H71010   8.985   4.502   4.650  0.8382 -0.5677 -0.0364
  527MOL0     O71011   5.630   9.757   6.759  1.0603 -0.4914  0.3131
  527MOL0     C71012   5.642   9.776   6.877 -0.1711  1.3452  0.1189
  527MOL0     O71013   5.555   9.832   6.961  0.1328  0.7387  0.2352
  527MOL0     C71014   5.422   9.850   6.952  0.2231  0.2666 -0.4076
  527MOL0     C71015   5.338   9.820   6.842 -0.0959 -0.8763 -0.4824
  527MOL0     C71016   5.202   9.856   6.838 -0.3615 -0.7367 -0.5509
  527MOL0     C71017   5.140   9.916   6.947  0.5910 -0.7688  0.1458
  527MOL0     O71018   5.010   9.948   6.970 -0.2416  0.6076 -0.9281
  527MOL0     C71019   4.929   9.954   6.855 -0.5643 -0.0407 -0.4780
  527MOL0     C71020   4.779   9.940   6.907  0.0232  0.2064 -0.7477
  527MOL0     C71021   4.677   9.939   6.788 -0.5239  0.4516  0.0389
  527MOL0     C71022   4.540   9.903   6.842 -0.0613  0.6431  0.0260
  527MOL0     C71023   4.432   9.866   6.738  0.0726 -0.5122 -0.7097
  527MOL0     C71024   4.310   9.831   6.818  0.5142  0.3788 -0.2315
  527MOL0     C71025   4.194   9.781   6.717 -0.3381 -0.0360 -0.6560
  527MOL0     C71026   4.050   9.799   6.764 -0.4799 -0.0692 -1.7459
  527MOL0     N71027   3.992   9.715   6.884  0.0458 -0.9618  0.1811
  527MOL0     C71028   3.871   9.730   6.938 -0.1914  0.6431  0.6093
  527MOL0     C71029   3.861   9.641   7.035 -0.2008  0.5554  0.6075
  527MOL0     C71030   3.748   9.627   7.126 -0.2492  0.2677  0.7034
  527MOL0     C71031   3.644   9.534   7.065  0.2842  0.2543 -0.2417
  527MOL0     C71032   3.571   9.590   6.936 -0.3768  0.4109 -0.1054
  527MOL0     C71033   3.424   9.541   6.939 -0.4517  0.1180  0.6595
  527MOL0     O71034   3.340   9.619   7.027  0.2339 -0.3293 -0.2599
  527MOL0     C71035   3.214   9.576   7.054 -0.1861  0.9815 -0.3205
  527MOL0     C71036   3.128   9.521   6.960 -1.3902  0.5534  0.1269
  527MOL0     C71037   3.005   9.481   7.011  0.7141 -0.8549  0.3909
  527MOL0     C71038   2.910   9.414   6.921 -0.3381  0.1097  0.1501
  527MOL0     C71039   2.948   9.495   7.145 -0.4991 -0.2362  0.3220
  527MOL0     C71040   2.823   9.449   7.208  0.9309  0.4185  0.7399
  527MOL0     O71041   2.776   9.511   7.320  1.1092 -0.1542 -0.7094
  527MOL0     C71042   2.639   9.502   7.349 -0.5802 -0.3612  0.8830
  527MOL0     C71043   2.532   9.511   7.255  0.0103  0.1706 -1.0091
  527MOL0     C71044   2.401   9.524   7.295  0.0546 -0.6331 -0.1141
  527MOL0     C71045   2.365   9.520   7.428  0.7255  0.3940 -1.1193
  527MOL0     O71046   2.225   9.536   7.444 -0.2383  0.1645 -0.0699
  527MOL0     C71047   2.182   9.598   7.571 -0.1927 -0.5293 -0.7292
  527MOL0     C71048   2.034   9.625   7.580 -0.4840 -0.2210 -0.6254
  527MOL0     C71049   1.993   9.690   7.704 -0.1111  0.5324 -0.2573
  527MOL0     C71050   1.858   9.640   7.754  0.1796 -0.1771 -0.4029
  527MOL0     C71051   1.734   9.695   7.668  0.3494 -0.0237 -0.9255
  527MOL0     C71052   1.603   9.659   7.745 -0.1181 -0.4569  0.1517
  527MOL0     C71053   1.473   9.673   7.654 -0.4534 -0.2300 -0.1095
  527MOL0     C71054   1.468   9.787   7.549  0.0239 -0.3902 -1.2196
  527MOL0    Cl71055   1.447   9.932   7.645  0.2516 -0.0897  0.1410
  527MOL0     C71056   2.466   9.508   7.529 -0.0707 -0.5111 -0.8672
  527MOL0     C71057   2.598   9.489   7.489 -0.8853 -0.1975  0.0723
  527MOL0     O71058   2.775   9.343   7.158 -0.1711 -0.6249 -0.0883
  527MOL0     C71059   3.043   9.550   7.226 -0.5937 -0.2280  0.1331
  527MOL0     C71060   3.174   9.593   7.186  0.8633 -0.1176  0.0944
  527MOL0     N71061   3.987   9.575   7.048  0.2972 -1.1670  0.4062
  527MOL0     N71062   4.054   9.618   6.950  0.4105 -0.3942 -0.3469
  527MOL0     C71063   5.223   9.927   7.062  0.2263  1.0060  0.1606
  527MOL0     C71064   5.360   9.902   7.067  0.3192 -0.2798  0.9321
  527MOL0     C71065   5.757   9.734   6.946 -0.6447  0.0543  0.2106
  527MOL0     C71066   5.802   9.790   7.067 -0.7176 -0.6344 -0.0286
  527MOL0     C71067   5.924   9.752   7.124  0.1685 -0.4885 -0.4099
  527MOL0     C71068   6.012   9.671   7.059  0.5758 -0.3379  0.1023
  527MOL0     O71069   6.130   9.649   7.119  0.0076  0.1127  0.3603
  527MOL0     C71070   6.243   9.581   7.061 -0.7093  0.5270 -0.3377
  527MOL0     C71071   6.327   9.508   7.173  0.3329 -0.0651  0.4183
  527MOL0     C71072   6.436   9.424   7.109 -1.1284 -0.0436  0.0251
  527MOL0     C71073   6.486   9.332   7.216  0.5907  0.2429  0.5090
  527MOL0     C71074   6.614   9.249   7.195  0.8678 -0.9243 -0.8098
  527MOL0     C71075   6.711   9.186   7.160 -0.4759  0.9640 -0.5261
  527MOL0     C71076   5.959   9.595   6.950 -0.5382 -0.3234  0.3130
  527MOL0     C71077   5.839   9.626   6.897 -0.0152 -0.2664  0.1683
  527MOL0     H71078   5.367   9.769   6.750 -1.5523 -2.7444  0.0206
  527MOL0     H71079   5.144   9.828   6.751  0.5058  1.8341 -2.0622
  527MOL0     H71080   4.944  10.049   6.804 -0.1680  1.4211  2.1407
  527MOL0     H71081   4.934   9.864   6.793  1.5244 -1.3477  1.4165
  527MOL0     H71082   4.781   9.840   6.950  0.2021 -0.0057 -1.2396
  527MOL0     H71083   4.752  10.021   6.976 -0.2083 -0.5563  0.0763
  527MOL0     H71084   4.665  10.040   6.748 -1.0901  0.7365  0.8897
  527MOL0     H71085   4.703   9.876   6.703 -4.6489 -0.1472 -0.9945
  527MOL0     H71086   4.566   9.820   6.909  0.5124  1.1023  0.3775
  527MOL0     H71087   4.497   9.987   6.896 -0.7976  0.2721  0.0339
  527MOL0     H71088   4.410   9.941   6.661  0.7061  1.3104  0.8011
  527MOL0     H71089   4.464   9.775   6.687  1.0697  0.5798 -2.1332
  527MOL0     H71090   4.324   9.740   6.877 -0.9108 -1.2299 -2.2316
  527MOL0     H71091   4.272   9.920   6.870 -1.7466  1.2250 -3.0577
  527MOL0     H71092   4.212   9.850   6.633  2.5106  0.7456  0.4745
  527MOL0     H71093   4.209   9.675   6.694 -0.8573  0.0685 -1.5467
  527MOL0     H71094   3.983   9.760   6.687 -0.8824 -3.0343 -0.0428
  527MOL0     H71095   4.041   9.908   6.774 -0.2359 -0.1223 -0.9549
  527MOL0     H71096   3.798   9.802   6.902 -1.4520 -0.7810  0.2156
  527MOL0     H71097   3.782   9.585   7.221 -0.4609 -2.0548 -0.1857
  527MOL0     H71098   3.707   9.727   7.144 -1.0488 -0.0690  0.8180
  527MOL0     H71099   3.585   9.494   7.148  1.0994 -1.5399 -0.4785
  527MOL0     H71100   3.700   9.445   7.035 -1.3268 -0.1492 -2.2042
  527MOL0     H71101   3.617   9.561   6.841 -0.3271  1.2142 -0.3263
  527MOL0     H71102   3.571   9.699   6.942 -0.7958  0.4109 -0.0348
  527MOL0     H71103   3.411   9.435   6.960 -3.3000  0.5631  1.5495
  527MOL0     H71104   3.381   9.559   6.840  3.3500 -1.0911 -1.4310
  527MOL0     H71105   3.171   9.517   6.860  0.9890 -0.9689  1.1085
  527MOL0     H71106   2.815   9.469   6.918  0.9021  2.3642 -0.1978
  527MOL0     H71107   2.945   9.403   6.818  2.2633 -0.9058  1.0490
  527MOL0     H71108   2.907   9.313   6.962  1.3047  0.4072  1.0776
  527MOL0     H71109   2.552   9.513   7.148 -1.4475 -2.2309 -1.4143
  527MOL0     H71110   2.326   9.537   7.218 -0.1006 -0.2450  0.0975
  527MOL0     H71111   2.212   9.534   7.654  2.0048 -0.0966 -1.1175
  527MOL0     H71112   2.230   9.695   7.592 -0.7457 -0.4405  0.2065
  527MOL0     H71113   2.003   9.703   7.510 -1.4829 -1.5410 -1.7134
  527MOL0     H71114   1.984   9.527   7.575 -1.9236  0.5307 -2.8980
  527MOL0     H71115   1.999   9.799   7.694 -0.8384  0.5793 -0.2146
  527MOL0     H71116   2.070   9.663   7.777  0.7349 -1.4801 -1.8083
  527MOL0     H71117   1.854   9.535   7.783  2.0463 -0.0417  0.4551
  527MOL0     H71118   1.843   9.688   7.851 -0.3715  0.5588 -0.8326
  527MOL0     H71119   1.736   9.658   7.565 -1.4361 -2.0397 -0.3165
  527MOL0     H71120   1.737   9.804   7.659 -2.8035  0.0177 -2.9405
  527MOL0     H71121   1.609   9.552   7.768  1.5022 -0.7750 -1.5087
  527MOL0     H71122   1.605   9.712   7.841  2.1509 -1.0347  0.4856
  527MOL0     H71123   1.386   9.666   7.720  0.4411 -2.6273  0.9258
  527MOL0     H71124   1.473   9.584   7.591  0.2765  0.3636 -0.9705
  527MOL0     H71125   1.381   9.786   7.483 -1.3287  2.3560  0.3360
  527MOL0     H71126   1.561   9.808   7.494 -0.2153  2.8805 -0.6193
  527MOL0     H71127   2.440   9.505   7.635  0.1562 -0.2940 -0.8074
  527MOL0     H71128   2.673   9.458   7.562 -0.2838 -0.1760 -0.5248
  527MOL0     H71129   3.022   9.579   7.329 -1.8566  1.1539 -0.4689
  527MOL0     H71130   3.235   9.644   7.260 -0.2631  1.8825 -0.2871
  527MOL0     H71131   5.162   9.968   7.143 -3.1041 -0.3263 -1.4736
  527MOL0     H71132   5.422   9.927   7.152  0.2076  2.2194  0.3649
  527MOL0     H71133   5.747   9.869   7.117 -0.8559 -1.8570  1.8641
  527MOL0     H71134   5.954   9.804   7.215 -0.9840  0.2714 -0.4419
  527MOL0     H71135   6.216   9.505   6.987 -0.0781  0.4215 -0.4707
  527MOL0     H71136   6.309   9.654   7.014  0.4556 -0.7198 -0.7109
  527MOL0     H71137   6.253   9.442   7.218 -0.4455 -0.5763 -1.5169
  527MOL0     H71138   6.365   9.590   7.235  1.1072  1.6340 -2.1230
  527MOL0     H71139   6.509   9.498   7.073 -0.5174 -1.1839 -1.1480
  527MOL0     H71140   6.413   9.371   7.016  1.1611 -1.8746  0.4182
  527MOL0     H71141   6.406   9.259   7.234  0.0321  0.6407 -0.3045
  527MOL0     H71142   6.499   9.383   7.312 -0.7890  0.6657  0.4931
  527MOL0     H71143   6.802   9.138   7.132 -1.6210 -0.9412 -1.2093
  527MOL0     H71144   6.029   9.526   6.904  2.5839  1.8654  1.4369
  527MOL0     H71145   5.796   9.562   6.821  0.4552 -0.1060 -0.2360
  528MOL0     O71146   9.470   9.766   4.307  0.5583 -0.1652  0.7878
  528MOL0     C71147   9.462   9.733   4.188 -0.3686 -0.2779 -0.1556
  528MOL0     O71148   9.345   9.714   4.117 -0.3104  0.0097 -0.7444
  528MOL0     C71149   9.225   9.713   4.185  0.4222 -0.3863  0.2536
  528MOL0     C71150   9.115   9.760   4.106  0.2075  0.2515 -0.0585
  528MOL0     C71151   8.987   9.741   4.150 -0.3225  0.4838 -0.1884
  528MOL0     C71152   8.965   9.693   4.283  0.5715  0.1385  0.4416
  528MOL0     O71153   8.830   9.687   4.325 -0.2967 -0.5203 -0.1692
  528MOL0     C71154   8.815   9.735   4.459  0.6892 -0.4302  1.0155
  528MOL0     C71155   8.670   9.753   4.477  0.4142 -0.3767 -0.3690
  528MOL0     C71156   8.584   9.629   4.493  0.3808 -0.1526 -0.2224
  528MOL0     C71157   8.435   9.668   4.462  0.9215 -0.3137 -0.7820
  528MOL0     C71158   8.356   9.538   4.436  0.1183  0.2659 -0.2024
  528MOL0     C71159   8.213   9.553   4.405 -0.6882 -0.7854 -0.0331
  528MOL0     C71160   8.190   9.608   4.262 -0.5523  0.0316  0.0040
  528MOL0     C71161   8.045   9.606   4.216  0.1955 -0.2712 -0.7710
  528MOL0     N71162   7.994   9.467   4.194  0.9175 -0.0166  0.0033
  528MOL0     C71163   8.040   9.387   4.095  0.0247  1.2872 -0.1339
  528MOL0     C71164   7.990   9.262   4.119 -0.6861  0.1960 -0.2056
  528MOL0     C71165   8.013   9.138   4.038  0.7528 -0.1226 -0.2981
  528MOL0     C71166   7.906   9.142   3.924  0.5546 -0.2850  0.0290
  528MOL0     C71167   7.759   9.165   3.967 -0.1119 -0.2048 -0.0190
  528MOL0     C71168   7.657   9.158   3.869  0.2448  0.0904  0.3447
  528MOL0     O71169   7.675   9.032   3.791 -0.5882 -0.9644  0.2440
  528MOL0     C71170   7.594   9.014   3.683  0.0188 -0.2285  0.2896
  528MOL0     C71171   7.503   9.116   3.638 -0.1846  0.6801  0.4633
  528MOL0     C71172   7.437   9.100   3.522 -0.3273  0.3444  0.8453
  528MOL0     C71173   7.352   9.219   3.480 -0.1109 -0.1782  0.4047
  528MOL0     C71174   7.463   8.982   3.446  0.4021 -0.4811 -0.1026
  528MOL0     C71175   7.378   8.952   3.327 -0.3018 -0.4270 -0.5461
  528MOL0     O71176   7.248   8.977   3.340 -0.7960  0.3287 -0.0015
  528MOL0     C71177   7.165   8.980   3.233 -0.5843  0.0419  0.2589
  528MOL0     C71178   7.053   9.045   3.256  1.1040  0.5405 -0.5335
  528MOL0     C71179   6.958   9.077   3.160 -0.2549 -0.9819  0.3950
  528MOL0     C71180   6.983   9.033   3.030  0.6542  0.0799  0.9013
  528MOL0     O71181   6.887   9.079   2.938 -0.2127 -0.5213 -1.0881
  528MOL0     C71182   6.903   9.036   2.805  0.1658 -0.4136 -0.1854
  528MOL0     C71183   6.806   9.114   2.708  1.0008  0.0201  0.2518
  528MOL0     C71184   6.664   9.055   2.729 -1.0116  0.1433  0.1969
  528MOL0     C71185   6.561   9.116   2.647 -0.4994 -0.2287  0.2263
  528MOL0     C71186   6.432   9.034   2.667 -0.2507 -0.7637 -1.0555
  528MOL0     C71187   6.304   9.064   2.587 -0.2384 -0.2172 -0.2757
  528MOL0     C71188   6.193   8.973   2.621  0.2511  0.1496 -0.6745
  528MOL0     C71189   6.070   8.981   2.528  0.4384 -1.1692 -0.1165
  528MOL0    Cl71190   5.931   8.936   2.620  0.2110 -0.3620  0.4322
  528MOL0     C71191   7.090   8.948   2.999  0.6115 -0.3794  0.6702
  528MOL0     C71192   7.178   8.921   3.102  0.0461  0.5394  0.0092
  528MOL0     O71193   7.435   8.923   3.220  0.0402  0.3532  0.4710
  528MOL0     C71194   7.550   8.883   3.488 -0.8354  1.2651 -0.4110
  528MOL0     C71195   7.610   8.897   3.613  0.0680  0.4531  0.3314
  528MOL0     N71196   7.909   9.275   4.236  0.4224 -0.0353  0.1973
  528MOL0     N71197   7.921   9.399   4.284 -0.4716  0.2619  0.6343
  528MOL0     C71198   9.073   9.649   4.366  0.0505 -0.5006 -0.0242
  528MOL0     C71199   9.205   9.671   4.316  0.5595  0.2049  0.1017
  528MOL0     C71200   9.589   9.694   4.116 -1.0684  0.1257  0.8591
  528MOL0     C71201   9.717   9.711   4.180  0.6698 -0.0389  0.1971
  528MOL0     C71202   9.829   9.684   4.108 -0.4976 -0.7498  0.7121
  528MOL0     C71203   9.817   9.627   3.981 -0.3134 -0.3936  0.4758
  528MOL0     O71204   9.935   9.598   3.916  0.0249 -0.2543 -0.6610
  528MOL0     C71205  10.033   9.521   3.980  0.2904  0.1960 -0.2705
  528MOL0     C71206  10.168   9.543   3.912 -0.0047  0.1820 -0.7598
  528MOL0     C71207  10.164   9.516   3.758 -0.7396  0.2738 -0.6563
  528MOL0     C71208  10.199   9.649   3.679  0.8156  0.0813  0.1444
  528MOL0     C71209  10.203   9.616   3.537  0.2294  0.3352 -0.9705
  528MOL0     C71210  10.234   9.612   3.421  0.0205  0.2799 -0.0424
  528MOL0     C71211   9.698   9.613   3.917 -0.1603 -0.2772 -0.0704
  528MOL0     C71212   9.579   9.635   3.987 -0.0981  0.5783 -0.3564
  528MOL0     H71213   9.148   9.799   4.011  2.4687 -2.3158 -0.4705
  528MOL0     H71214   8.903   9.777   4.093 -1.5181  3.6788  3.1459
  528MOL0     H71215   8.863   9.664   4.527  0.3961 -0.2305  1.4376
  528MOL0     H71216   8.868   9.830   4.463  0.5533 -0.2688 -0.6466
  528MOL0     H71217   8.664   9.820   4.564  2.1741  0.6190 -0.9535
  528MOL0     H71218   8.641   9.806   4.386  1.5222  1.4986  0.3052
  528MOL0     H71219   8.611   9.554   4.419 -0.9402  0.6518 -1.5548
  528MOL0     H71220   8.599   9.581   4.590 -1.0142 -1.4555 -0.6162
  528MOL0     H71221   8.388   9.713   4.550 -0.9991 -3.0361 -0.2670
  528MOL0     H71222   8.424   9.726   4.371 -2.9206 -1.7163 -1.4130
  528MOL0     H71223   8.409   9.476   4.363 -1.1534 -0.5953 -0.4252
  528MOL0     H71224   8.366   9.474   4.525  2.8280 -1.5929 -1.6725
  528MOL0     H71225   8.167   9.455   4.418 -0.5925 -0.8007  0.2052
  528MOL0     H71226   8.167   9.624   4.474  2.2106  0.6047  0.6312
  528MOL0     H71227   8.220   9.713   4.256 -0.1259 -0.0603  0.4350
  528MOL0     H71228   8.242   9.547   4.188 -1.4027  0.2086 -0.7600
  528MOL0     H71229   8.031   9.650   4.117  0.1019  1.5958  0.0331
  528MOL0     H71230   7.982   9.663   4.285 -0.7749  1.6189 -3.0818
  528MOL0     H71231   8.104   9.426   4.016  1.6191 -0.9103 -0.0370
  528MOL0     H71232   8.114   9.128   3.995  2.2053  3.2310  1.8772
  528MOL0     H71233   7.991   9.047   4.095 -1.9993 -0.5855 -1.9440
  528MOL0     H71234   7.899   9.041   3.882 -0.1123  0.6349 -2.2246
  528MOL0     H71235   7.940   9.206   3.842 -0.0811  1.8459  1.3394
  528MOL0     H71236   7.756   9.268   4.005  0.4367 -0.1100 -0.2265
  528MOL0     H71237   7.741   9.092   4.047  1.3436 -0.0865  0.4463
  528MOL0     H71238   7.657   9.250   3.810 -3.0684  0.9247  1.4285
  528MOL0     H71239   7.557   9.164   3.913 -0.5623  3.5457 -1.6257
  528MOL0     H71240   7.486   9.208   3.694 -1.3405  0.9258 -0.2646
  528MOL0     H71241   7.405   9.312   3.503 -0.0445 -0.3746  1.0788
  528MOL0     H71242   7.328   9.215   3.373 -3.0185  4.3453  0.5738
  528MOL0     H71243   7.255   9.205   3.530 -0.4714 -2.4512 -0.8302
  528MOL0     H71244   7.029   9.079   3.356  0.1578 -0.0469 -0.5483
  528MOL0     H71245   6.859   9.117   3.177 -1.3545 -2.7964 -1.3776
  528MOL0     H71246   7.004   9.050   2.766 -0.5056 -0.2889 -1.9860
  528MOL0     H71247   6.887   8.928   2.803  1.5113 -0.6251 -0.4610
  528MOL0     H71248   6.805   9.223   2.716 -1.2875  0.2601 -1.9959
  528MOL0     H71249   6.832   9.097   2.603  2.9951  2.5185  0.2508
  528MOL0     H71250   6.620   9.070   2.828 -1.9337 -3.6290  0.5064
  528MOL0     H71251   6.661   8.946   2.721 -2.3413  0.1861 -0.0047
  528MOL0     H71252   6.546   9.217   2.684  1.7970  0.0122  0.6283
  528MOL0     H71253   6.593   9.111   2.542  3.6773 -2.0459  1.4022
  528MOL0     H71254   6.399   9.050   2.770 -1.7292 -2.2110 -1.2515
  528MOL0     H71255   6.455   8.927   2.661 -1.2071 -1.0752  0.3482
  528MOL0     H71256   6.279   9.165   2.620 -1.8035 -0.6358 -0.0870
  528MOL0     H71257   6.335   9.067   2.483  1.8536  3.0974  0.2928
  528MOL0     H71258   6.170   8.990   2.726  0.0370 -1.0644 -0.5165
  528MOL0     H71259   6.232   8.871   2.622  1.6638  0.6113  2.5080
  528MOL0     H71260   6.087   8.918   2.440  0.8075  0.8072 -1.5477
  528MOL0     H71261   6.068   9.082   2.487  0.3616 -0.6693  1.0874
  528MOL0     H71262   7.115   8.895   2.908  2.6039 -3.0380  2.5970
  528MOL0     H71263   7.262   8.860   3.070 -1.0786 -1.6667  1.0525
  528MOL0     H71264   7.567   8.799   3.421  0.3678 -0.2067  1.6126
  528MOL0     H71265   7.685   8.831   3.657  2.3628  2.4995 -0.2613
  528MOL0     H71266   9.068   9.601   4.463  1.1682 -1.7054 -0.5407
  528MOL0     H71267   9.280   9.635   4.386 -1.6909 -1.2615  1.9211
  528MOL0     H71268   9.724   9.744   4.283 -0.9837  2.5047 -0.3923
  528MOL0     H71269   9.928   9.700   4.149  0.3822  2.0054 -2.1149
  528MOL0     H71270  10.036   9.542   4.087 -2.6364 -3.1389  0.6550
  528MOL0     H71271  10.011   9.414   3.978  0.7371  0.0726  0.8231
  528MOL0     H71272  10.239   9.477   3.963 -0.3552  1.3117  1.2976
  528MOL0     H71273  10.210   9.641   3.934 -2.1894  0.8790  0.6561
  528MOL0     H71274  10.065   9.479   3.729 -0.0168 -0.3758 -2.4026
  528MOL0     H71275  10.235   9.439   3.727 -2.4628 -2.0100  0.6827
  528MOL0     H71276  10.295   9.698   3.695 -0.1700  1.7503  1.2023
  528MOL0     H71277  10.121   9.723   3.697 -2.1825 -2.0169 -2.8509
  528MOL0     H71278  10.252   9.614   3.315 -3.0190  2.3370 -0.6513
  528MOL0     H71279   9.692   9.575   3.815 -3.1930  1.5669 -0.6971
  528MOL0     H71280   9.487   9.611   3.935 -1.2633  1.9714  0.9870
  529MOL0     O71281  11.104   5.722   2.808 -0.2060  0.0395  0.0984
  529MOL0     C71282  11.107   5.769   2.702 -0.2871 -0.8671  0.3840
  529MOL0     O71283  11.004   5.821   2.638  0.3974  0.2780  0.4639
  529MOL0     C71284  10.880   5.843   2.688 -0.1203 -1.1509  0.6869
  529MOL0     C71285  10.820   5.800   2.812 -0.5244 -0.9491 -0.0753
  529MOL0     C71286  10.702   5.843   2.859  1.0271  0.0275  0.0959
  529MOL0     C71287  10.621   5.931   2.775  0.9502 -0.0047  0.2244
  529MOL0     O71288  10.495   5.967   2.812  0.6113  0.0914 -1.4585
  529MOL0     C71289  10.493   6.057   2.917  0.4333  0.1573  0.3215
  529MOL0     C71290  10.363   6.153   2.905  0.1724 -1.1909  0.3011
  529MOL0     C71291  10.238   6.096   2.963 -0.7302 -0.4594 -0.6210
  529MOL0     C71292  10.111   6.172   2.901 -0.4730  1.1004  1.2333
  529MOL0     C71293   9.973   6.113   2.940 -0.9857 -0.5529  0.4259
  529MOL0     C71294   9.856   6.206   2.932 -0.0833 -0.9059 -0.6704
  529MOL0     C71295   9.724   6.138   2.965 -0.0666 -0.1144  0.6221
  529MOL0     C71296   9.598   6.213   2.929 -0.5160  0.2955  0.4510
  529MOL0     N71297   9.576   6.322   3.020 -0.0749  0.4563 -0.0431
  529MOL0     C71298   9.497   6.319   3.131  0.5839  0.1622  0.4548
  529MOL0     C71299   9.512   6.440   3.177  0.4418 -0.7729 -0.3493
  529MOL0     C71300   9.411   6.496   3.278  1.1951  0.2973  0.6494
  529MOL0     C71301   9.317   6.602   3.219 -0.0193  0.0522  0.0849
  529MOL0     C71302   9.215   6.648   3.323  0.0193 -0.2800 -0.1527
  529MOL0     C71303   9.144   6.773   3.299 -0.1410  1.0185  0.3347
  529MOL0     O71304   9.039   6.776   3.385  0.6576  0.6407  0.6544
  529MOL0     C71305   8.945   6.875   3.367 -0.2944  0.6709 -0.3156
  529MOL0     C71306   8.838   6.874   3.452 -0.0752 -0.1738  0.0566
  529MOL0     C71307   8.732   6.963   3.442 -0.2274 -0.0689 -0.4194
  529MOL0     C71308   8.629   6.957   3.552 -0.3212  0.4124  0.1610
  529MOL0     C71309   8.728   7.065   3.337  0.5678  0.4196 -0.7828
  529MOL0     C71310   8.618   7.158   3.310  0.2708 -1.0746 -0.1418
  529MOL0     O71311   8.565   7.214   3.417 -0.4447 -0.2020  0.2687
  529MOL0     C71312   8.463   7.311   3.408 -0.6298 -0.8168 -0.0013
  529MOL0     C71313   8.339   7.264   3.404  0.3498  0.1384 -0.3591
  529MOL0     C71314   8.232   7.352   3.410 -0.1408 -0.8068  0.5987
  529MOL0     C71315   8.243   7.490   3.424 -0.6117 -0.1633  0.3624
  529MOL0     O71316   8.127   7.560   3.420 -0.1509 -0.0958 -0.9163
  529MOL0     C71317   8.140   7.706   3.436 -1.3062 -0.5233  0.0945
  529MOL0     C71318   8.004   7.770   3.404  0.4578  0.0867  0.4823
  529MOL0     C71319   7.955   7.711   3.268 -0.7672  0.1884  0.5458
  529MOL0     C71320   7.828   7.774   3.212  0.1390 -0.2949  0.4538
  529MOL0     C71321   7.723   7.669   3.180  0.5867  0.5472  0.7687
  529MOL0     C71322   7.610   7.721   3.092 -0.2214 -0.4622  0.6344
  529MOL0     C71323   7.528   7.606   3.036 -0.1686  0.9244  0.6935
  529MOL0     C71324   7.407   7.661   2.961  0.1883  0.2469  0.2190
  529MOL0    Cl71325   7.311   7.554   2.853  0.3571  0.0216 -0.4278
  529MOL0     C71326   8.372   7.540   3.430 -0.1493 -0.0074  0.0360
  529MOL0     C71327   8.482   7.448   3.421 -0.3882  0.0339 -0.3866
  529MOL0     O71328   8.617   7.202   3.196  0.1023 -0.0181  0.1461
  529MOL0     C71329   8.839   7.059   3.243 -0.3715  0.2555  0.4413
  529MOL0     C71330   8.944   6.967   3.260  0.4827  0.0736  0.2907
  529MOL0     N71331   9.612   6.514   3.122 -0.5298  0.0376  0.8028
  529MOL0     N71332   9.647   6.439   3.022  0.3017 -0.4253  0.0087
  529MOL0     C71333  10.665   5.952   2.651 -0.5189 -0.7239  0.7198
  529MOL0     C71334  10.792   5.915   2.607  0.0439 -0.0535  0.0359
  529MOL0     C71335  11.233   5.741   2.627  0.4257 -0.7593  0.8126
  529MOL0     C71336  11.236   5.748   2.488 -0.8286 -0.3040  0.2798
  529MOL0     C71337  11.354   5.720   2.418  0.6043 -0.1703 -0.5027
  529MOL0     C71338  11.471   5.687   2.494  0.1956 -0.4929  0.2764
  529MOL0     O71339  11.592   5.663   2.438  0.1357  0.6426 -0.0870
  529MOL0     C71340  11.592   5.639   2.288 -0.2945 -0.4481 -0.1094
  529MOL0     C71341  11.607   5.771   2.220 -0.2982 -0.3929 -0.1621
  529MOL0     C71342  11.585   5.758   2.067 -1.4901 -0.8649 -0.3375
  529MOL0     C71343  11.450   5.706   2.008 -0.7535 -0.3899 -0.2209
  529MOL0     C71344  11.354   5.805   2.044  0.4007 -0.0102  0.7977
  529MOL0     C71345  11.270   5.894   2.068  0.0262  0.1021 -0.3037
  529MOL0     C71346  11.465   5.678   2.628  0.2926  0.9513  0.2139
  529MOL0     C71347  11.350   5.709   2.702  0.3425  0.8162 -0.5846
  529MOL0     H71348  10.873   5.732   2.878  0.8690 -0.5636 -0.7668
  529MOL0     H71349  10.663   5.798   2.950 -0.2720  0.4002 -0.2549
  529MOL0     H71350  10.489   6.005   3.013  3.0409 -1.4631 -0.3483
  529MOL0     H71351  10.575   6.129   2.912  2.0901 -1.6925 -0.3220
  529MOL0     H71352  10.382   6.247   2.958 -2.1052 -0.3289 -0.3035
  529MOL0     H71353  10.360   6.174   2.798 -0.9441 -1.5868  0.2420
  529MOL0     H71354  10.231   5.989   2.939  3.0992 -1.4844  1.9722
  529MOL0     H71355  10.240   6.116   3.070  0.8539 -1.9777 -0.3083
  529MOL0     H71356  10.131   6.278   2.923 -0.7694  1.0340  1.8448
  529MOL0     H71357  10.108   6.176   2.792 -3.3595 -3.3531  0.9377
  529MOL0     H71358   9.959   6.031   2.869 -0.1795  0.3128 -0.7735
  529MOL0     H71359   9.976   6.072   3.041 -1.5474  0.9102  1.0562
  529MOL0     H71360   9.867   6.297   2.993  0.5805 -2.1324  1.1465
  529MOL0     H71361   9.854   6.241   2.829  1.7274  2.6423  0.3336
  529MOL0     H71362   9.721   6.038   2.921  1.5018 -0.3730  1.0358
  529MOL0     H71363   9.713   6.119   3.072 -0.4865  1.1731  0.8294
  529MOL0     H71364   9.513   6.146   2.941  0.3745 -0.4391  3.3692
  529MOL0     H71365   9.606   6.254   2.828  1.8101 -2.3487 -0.5551
  529MOL0     H71366   9.422   6.252   3.171 -0.0582  2.2761  3.1222
  529MOL0     H71367   9.360   6.415   3.329  2.4473 -1.7795 -1.2225
  529MOL0     H71368   9.475   6.540   3.356  2.5620  1.3057 -0.9572
  529MOL0     H71369   9.257   6.564   3.135  0.3972 -0.3874 -0.0172
  529MOL0     H71370   9.378   6.686   3.184 -3.1993  2.4922 -0.1088
  529MOL0     H71371   9.270   6.669   3.416 -0.0992  1.8518 -0.5171
  529MOL0     H71372   9.158   6.555   3.322 -0.2443 -0.1481  1.1020
  529MOL0     H71373   9.123   6.782   3.192  0.0127 -3.3499 -0.2540
  529MOL0     H71374   9.197   6.865   3.325 -0.5112  1.7628 -1.3652
  529MOL0     H71375   8.839   6.803   3.533  1.3961  1.4374  1.5371
  529MOL0     H71376   8.621   6.858   3.598  1.1824 -0.4070 -1.2175
  529MOL0     H71377   8.656   7.036   3.623 -2.0723  1.5451 -0.3597
  529MOL0     H71378   8.527   6.982   3.523 -0.6863  0.9925  1.8333
  529MOL0     H71379   8.315   7.160   3.385  0.8113  0.1993 -1.3725
  529MOL0     H71380   8.134   7.307   3.405 -0.0858 -0.7893 -2.2613
  529MOL0     H71381   8.154   7.728   3.542 -2.9866 -3.5144  1.0492
  529MOL0     H71382   8.222   7.744   3.374 -0.3780 -1.7804  0.4925
  529MOL0     H71383   7.934   7.754   3.487  0.8187  0.5578  0.8859
  529MOL0     H71384   8.016   7.879   3.401 -1.4692  0.3244 -0.0443
  529MOL0     H71385   7.920   7.611   3.295  0.4167  0.3061  2.7754
  529MOL0     H71386   8.037   7.699   3.196 -0.4237 -0.5848  1.0444
  529MOL0     H71387   7.784   7.854   3.272  1.3106  1.8922 -1.4528
  529MOL0     H71388   7.857   7.824   3.120 -1.3333 -0.8515 -0.3396
  529MOL0     H71389   7.686   7.640   3.279  2.1360 -2.3557  0.6033
  529MOL0     H71390   7.766   7.578   3.136  2.8917  0.6631  2.5503
  529MOL0     H71391   7.547   7.794   3.143  0.2183 -0.4582  1.1795
  529MOL0     H71392   7.647   7.762   2.997 -0.7110  1.4808  1.2242
  529MOL0     H71393   7.496   7.538   3.116  0.3029  0.1711  0.2487
  529MOL0     H71394   7.592   7.556   2.963  1.2932  1.4703  1.5452
  529MOL0     H71395   7.448   7.737   2.893  0.0796 -0.2551 -0.4175
  529MOL0     H71396   7.348   7.712   3.038  3.3011  2.6228  1.2318
  529MOL0     H71397   8.397   7.645   3.436 -3.3340  0.7904  1.1204
  529MOL0     H71398   8.585   7.479   3.420 -0.8351  1.6312 -2.0365
  529MOL0     H71399   8.847   7.120   3.154  1.0579 -1.4342 -0.6612
  529MOL0     H71400   9.020   6.958   3.184 -0.5676 -1.5249 -0.6420
  529MOL0     H71401  10.606   6.008   2.579  2.9832 -3.1598 -4.7055
  529MOL0     H71402  10.826   5.949   2.510  0.3593  1.8288  0.7672
  529MOL0     H71403  11.148   5.770   2.429 -0.8691 -1.5461 -0.1619
  529MOL0     H71404  11.352   5.733   2.310 -1.2258  2.5670 -0.2322
  529MOL0     H71405  11.680   5.584   2.254 -0.0729  0.7331 -1.5201
  529MOL0     H71406  11.506   5.577   2.260 -1.3724  1.0257 -0.1457
  529MOL0     H71407  11.703   5.819   2.238 -0.0728 -0.3890 -1.2809
  529MOL0     H71408  11.534   5.840   2.262 -0.7945 -0.1769 -1.3513
  529MOL0     H71409  11.666   5.706   2.014 -3.5626  0.1197 -5.0090
  529MOL0     H71410  11.596   5.860   2.029  1.8507  0.9302  4.4118
  529MOL0     H71411  11.431   5.606   2.048  0.6051 -0.4913  0.2477
  529MOL0     H71412  11.454   5.709   1.898 -3.2976  3.7471 -0.4426
  529MOL0     H71413  11.205   5.976   2.092 -2.8697 -1.9781 -0.5146
  529MOL0     H71414  11.556   5.658   2.683  2.0066  0.5592 -2.5925
  529MOL0     H71415  11.358   5.732   2.808 -1.3233 -0.3473 -0.1806
  530MOL0     O71416   3.487   9.791   4.501 -0.2626  0.3721 -0.3632
  530MOL0     C71417   3.482   9.897   4.557 -0.3599 -0.4099 -0.1380
  530MOL0     O71418   3.373   9.953   4.602  0.5544 -0.4551  0.0991
  530MOL0     C71419   3.259   9.879   4.603 -0.5526 -0.5924 -0.3037
  530MOL0     C71420   3.236   9.770   4.688 -0.8970  0.8239 -0.5783
  530MOL0     C71421   3.115   9.695   4.671  0.2691 -0.6574 -0.1740
  530MOL0     C71422   3.033   9.718   4.564  0.3989  0.1781  0.3742
  530MOL0     O71423   2.915   9.640   4.560  0.1697 -0.3225  0.5701
  530MOL0     C71424   2.827   9.662   4.453 -1.2199  0.0685  0.2050
  530MOL0     C71425   2.718   9.548   4.451  0.0811 -0.4093  0.0003
  530MOL0     C71426   2.767   9.398   4.471 -0.4421 -1.1392  0.0905
  530MOL0     C71427   2.886   9.365   4.373 -0.0591  0.1003  0.0049
  530MOL0     C71428   2.844   9.369   4.225 -0.0147 -0.7988 -0.1793
  530MOL0     C71429   2.966   9.385   4.137  0.2367 -0.4147  0.0607
  530MOL0     C71430   2.933   9.370   3.986 -0.6979  0.4240  0.1368
  530MOL0     C71431   3.058   9.420   3.913  0.1919  0.3407 -0.1239
  530MOL0     N71432   3.019   9.431   3.770  0.4073 -0.0553  0.2079
  530MOL0     C71433   2.960   9.546   3.701 -0.4280 -0.0647  0.7439
  530MOL0     C71434   2.921   9.501   3.576  1.3123 -0.8126  0.0072
  530MOL0     C71435   2.849   9.586   3.464 -0.2048 -0.2508 -1.0419
  530MOL0     C71436   2.702   9.565   3.471 -0.1306  0.0602  0.3096
  530MOL0     C71437   2.621   9.677   3.546 -0.5946  0.2755  0.0764
  530MOL0     C71438   2.475   9.656   3.534 -0.1156  0.3771 -0.5108
  530MOL0     O71439   2.405   9.747   3.618  0.2212 -0.1364  0.3375
  530MOL0     C71440   2.277   9.719   3.673 -0.5400  0.7514 -0.2681
  530MOL0     C71441   2.248   9.785   3.792 -0.3871  0.6710 -0.9481
  530MOL0     C71442   2.133   9.765   3.866 -0.1197  0.8846  0.7172
  530MOL0     C71443   2.120   9.863   3.970  0.5742 -0.6796 -0.6715
  530MOL0     C71444   2.040   9.667   3.827  0.8260  0.2366  0.4099
  530MOL0     C71445   1.912   9.638   3.900 -0.4328  0.3841  0.2049
  530MOL0     O71446   1.835   9.559   3.827  0.5290  0.4323 -0.1743
  530MOL0     C71447   1.712   9.533   3.893 -0.1020 -0.1934  0.4011
  530MOL0     C71448   1.694   9.478   4.019 -0.1405  0.0225  0.3480
  530MOL0     C71449   1.562   9.466   4.074 -0.4537  0.6801  0.2442
  530MOL0     C71450   1.451   9.497   3.996  0.7537 -0.5086 -0.2786
  530MOL0     O71451   1.329   9.473   4.048 -0.2431 -0.4596  0.9075
  530MOL0     C71452   1.301   9.333   4.053  0.8711  0.2575 -0.3713
  530MOL0     C71453   1.201   9.302   4.166  0.4930 -0.9061  0.2933
  530MOL0     C71454   1.075   9.384   4.131 -0.0986  0.7063 -0.1685
  530MOL0     C71455   0.962   9.354   4.228 -0.6238 -0.6907  0.2506
  530MOL0     C71456   0.820   9.394   4.167 -0.1315 -0.1828 -0.6018
  530MOL0     C71457   0.708   9.381   4.260 -0.3593 -0.6031  0.7753
  530MOL0     C71458   0.573   9.419   4.187 -0.3519  0.0976  0.3692
  530MOL0     C71459   0.459   9.350   4.260  0.2407  0.2376  1.0015
  530MOL0    Cl71460   0.409   9.455   4.400  0.4488  0.7260  0.5941
  530MOL0     C71461   1.465   9.548   3.864  0.0055  0.1089 -0.4842
  530MOL0     C71462   1.600   9.556   3.810 -0.7068  0.2085  0.3801
  530MOL0     O71463   1.893   9.680   4.019 -0.1589  0.0820 -0.0137
  530MOL0     C71464   2.064   9.602   3.701 -0.5859 -0.0625 -0.8459
  530MOL0     C71465   2.176   9.632   3.624 -0.9347 -0.4745  0.1334
  530MOL0     N71466   2.970   9.375   3.558 -0.5175 -0.1814 -0.1102
  530MOL0     N71467   3.024   9.336   3.675 -0.1073  0.6079 -0.0299
  530MOL0     C71468   3.057   9.832   4.474 -0.5805 -0.1851 -0.1453
  530MOL0     C71469   3.177   9.904   4.493 -0.8146  0.6105  0.2758
  530MOL0     C71470   3.606   9.967   4.586  1.3761  0.3268  0.2049
  530MOL0     C71471   3.612  10.091   4.657 -0.0722 -0.4332 -0.2309
  530MOL0     C71472   3.728  10.167   4.661 -1.0415  0.0588  0.0494
  530MOL0     C71473   3.846  10.118   4.597 -0.0035  0.5981  0.8415
  530MOL0     O71474   3.962  10.195   4.604 -0.7834  0.0669 -0.4984
  530MOL0     C71475   4.073  10.137   4.675 -0.1127 -0.1601 -0.2814
  530MOL0     C71476   4.192  10.216   4.636  1.0641 -0.0172 -0.4438
  530MOL0     C71477   4.224  10.191   4.489 -0.2431  0.1545  0.5325
  530MOL0     C71478   4.349  10.264   4.453 -0.1607 -0.3451  0.1153
  530MOL0     C71479   4.323  10.411   4.448  0.0901 -0.1539  0.2575
  530MOL0     C71480   4.298  10.529   4.440 -0.3013 -0.1822 -0.3560
  530MOL0     C71481   3.845   9.988   4.549 -0.5844 -0.1128 -0.0259
  530MOL0     C71482   3.722   9.914   4.536  0.5940 -0.8744  0.1472
  530MOL0     H71483   3.316   9.752   4.759  0.5288  1.5669 -1.9400
  530MOL0     H71484   3.090   9.621   4.746  0.8329  0.4054  1.0888
  530MOL0     H71485   2.789   9.765   4.452  3.8824  2.2695  1.5536
  530MOL0     H71486   2.881   9.657   4.358 -0.2341 -2.5946  0.8250
  530MOL0     H71487   2.654   9.576   4.535  0.8856  0.6000  0.3009
  530MOL0     H71488   2.661   9.554   4.357  0.5071 -0.4478 -0.2627
  530MOL0     H71489   2.786   9.376   4.576 -0.4393 -0.8889  0.1423
  530MOL0     H71490   2.683   9.332   4.445  0.6561 -1.9172 -1.6828
  530MOL0     H71491   2.969   9.435   4.384 -1.0424  1.5900 -1.4393
  530MOL0     H71492   2.914   9.264   4.403 -3.0996 -0.8238  0.1454
  530MOL0     H71493   2.784   9.283   4.193 -0.5372  0.4312 -2.7909
  530MOL0     H71494   2.783   9.456   4.199  0.5247 -0.7336 -1.2951
  530MOL0     H71495   3.018   9.477   4.164  0.2226 -0.7808  1.3892
  530MOL0     H71496   3.032   9.304   4.168  1.8762  1.6751  2.4973
  530MOL0     H71497   2.922   9.266   3.953  0.6295  0.0307  0.8557
  530MOL0     H71498   2.841   9.420   3.955 -0.2916  1.8946  1.1975
  530MOL0     H71499   3.123   9.332   3.918 -1.5510 -0.9161  2.7916
  530MOL0     H71500   3.105   9.512   3.949  1.1697  0.0110 -0.5271
  530MOL0     H71501   2.934   9.642   3.745 -0.9933  0.7408 -1.2501
  530MOL0     H71502   2.874   9.691   3.480  0.0644 -0.5211  0.4741
  530MOL0     H71503   2.894   9.555   3.369 -0.4503  0.5610 -1.4262
  530MOL0     H71504   2.686   9.465   3.511  1.7638 -0.7116 -0.7644
  530MOL0     H71505   2.657   9.562   3.371 -0.9248  0.4428  0.6441
  530MOL0     H71506   2.651   9.778   3.515  1.1580 -0.4035 -0.6036
  530MOL0     H71507   2.646   9.667   3.652 -0.1279 -3.0128 -0.2430
  530MOL0     H71508   2.447   9.555   3.566 -0.4633  0.8494  0.7009
  530MOL0     H71509   2.442   9.673   3.431  0.2646 -2.9877 -1.3057
  530MOL0     H71510   2.318   9.861   3.825  0.5220 -1.3736  2.2986
  530MOL0     H71511   2.155   9.830   4.069  1.8342  1.3001 -0.3895
  530MOL0     H71512   2.182   9.952   3.958  0.8187 -0.5972  0.9356
  530MOL0     H71513   2.016   9.895   3.974  0.9248  1.4930 -4.3139
  530MOL0     H71514   1.777   9.443   4.080  0.2024  0.0872 -0.0780
  530MOL0     H71515   1.547   9.429   4.175 -2.4782  3.8322  1.2698
  530MOL0     H71516   1.261   9.306   3.955 -3.3791 -2.7495  1.8893
  530MOL0     H71517   1.386   9.265   4.064 -0.3195 -0.8655  3.0785
  530MOL0     H71518   1.169   9.198   4.165 -0.8217 -0.5480 -1.8115
  530MOL0     H71519   1.247   9.335   4.260  2.1667 -1.2283 -0.3764
  530MOL0     H71520   1.035   9.368   4.030 -2.5372 -0.2934  0.8778
  530MOL0     H71521   1.094   9.491   4.140 -1.1223  1.2314 -3.0106
  530MOL0     H71522   0.972   9.251   4.264  0.4348 -0.6628  0.0603
  530MOL0     H71523   0.982   9.418   4.315 -0.4457  0.4060 -0.5906
  530MOL0     H71524   0.809   9.328   4.081 -2.0403  1.1942 -1.5121
  530MOL0     H71525   0.823   9.500   4.138  0.5298 -0.3977 -1.3524
  530MOL0     H71526   0.711   9.275   4.288  2.4309 -1.4656 -2.1368
  530MOL0     H71527   0.724   9.450   4.343  1.5400  0.2074 -0.2115
  530MOL0     H71528   0.574   9.411   4.078  0.7499  2.1966  0.1706
  530MOL0     H71529   0.550   9.526   4.196 -5.1947 -0.5205 -1.3300
  530MOL0     H71530   0.491   9.250   4.290 -1.0591 -1.3311 -2.3630
  530MOL0     H71531   0.370   9.338   4.198  0.8298 -2.5909  0.5567
  530MOL0     H71532   1.383   9.583   3.803  0.6069  2.3605 -0.1081
  530MOL0     H71533   1.613   9.594   3.709 -2.0774 -0.4156 -0.0682
  530MOL0     H71534   1.994   9.532   3.656 -2.6551  0.3619  1.5435
  530MOL0     H71535   2.182   9.578   3.530  0.4863  0.3778 -0.3018
  530MOL0     H71536   3.003   9.865   4.385  1.8169  1.5570 -1.0623
  530MOL0     H71537   3.193   9.996   4.438  0.1558  0.0918 -0.3324
  530MOL0     H71538   3.521  10.130   4.702 -0.0868 -0.1440 -0.5047
  530MOL0     H71539   3.738  10.265   4.707  0.5491  0.0013 -0.1278
  530MOL0     H71540   4.045  10.165   4.777  4.0568  2.5337  0.3592
  530MOL0     H71541   4.079  10.029   4.663 -2.5092 -0.3476 -0.2120
  530MOL0     H71542   4.272  10.190   4.706  0.7704  0.1499 -0.0417
  530MOL0     H71543   4.172  10.323   4.641  0.6749 -0.1313  2.0003
  530MOL0     H71544   4.139  10.227   4.430  0.0487 -0.9778 -0.6264
  530MOL0     H71545   4.237  10.085   4.468  1.5807  0.7352 -1.6127
  530MOL0     H71546   4.369  10.228   4.351  0.1498 -0.9034  0.3713
  530MOL0     H71547   4.435  10.238   4.515 -1.2897 -0.1885  1.8110
  530MOL0     H71548   4.267  10.632   4.436 -1.2006 -0.3683  1.1474
  530MOL0     H71549   3.936   9.932   4.528  0.4538  1.6813 -0.5820
  530MOL0     H71550   3.735   9.818   4.486  2.0257 -0.6382  0.0213
  531MOL0     O71551   9.715   8.557   6.510  0.0764 -0.2137  0.4752
  531MOL0     C71552   9.783   8.509   6.420  0.1044  0.0870 -0.1075
  531MOL0     O71553   9.743   8.487   6.291 -0.5401  0.0201 -0.7429
  531MOL0     C71554   9.630   8.542   6.239  0.6028  0.0752 -0.0549
  531MOL0     C71555   9.561   8.451   6.151 -0.1597  0.7420  0.4366
  531MOL0     C71556   9.450   8.498   6.077  0.3768  0.2079 -0.5823
  531MOL0     C71557   9.403   8.626   6.102 -0.3624  0.2909 -0.0806
  531MOL0     O71558   9.293   8.662   6.038  0.8216  0.0772 -0.0576
  531MOL0     C71559   9.230   8.792   6.045  0.3965  0.7374 -0.5588
  531MOL0     C71560   9.089   8.811   5.975 -0.2014 -0.2167  0.9776
  531MOL0     C71561   8.981   8.727   6.030  0.1127 -0.6466  0.2985
  531MOL0     C71562   8.837   8.766   5.977 -0.0046 -0.0018  0.2626
  531MOL0     C71563   8.762   8.842   6.079  0.5068 -0.5711  0.0289
  531MOL0     C71564   8.813   8.976   6.129  0.1268  0.5196  0.0558
  531MOL0     C71565   8.817   9.092   6.021  0.0331  0.1765  0.0208
  531MOL0     C71566   8.839   9.219   6.100 -0.2698  0.0743 -0.1313
  531MOL0     N71567   8.855   9.342   6.021  0.4043 -0.1531 -0.3182
  531MOL0     C71568   8.975   9.397   5.987 -0.7178 -0.1257 -0.2180
  531MOL0     C71569   8.941   9.521   5.955 -0.1856 -0.9638  0.4653
  531MOL0     C71570   9.033   9.630   5.904  0.3912  0.9079  0.5185
  531MOL0     C71571   9.016   9.764   5.975  0.0590  0.1958 -0.5987
  531MOL0     C71572   9.043   9.764   6.127  0.9444  0.0021  0.1595
  531MOL0     C71573   9.045   9.903   6.185 -0.4103  0.8098 -0.1976
  531MOL0     O71574   8.922   9.962   6.176 -1.3905 -0.2419  0.4331
  531MOL0     C71575   8.864   9.994   6.298 -0.4737  1.4580  0.4478
  531MOL0     C71576   8.932  10.072   6.397  0.7953 -0.0710 -0.5260
  531MOL0     C71577   8.882  10.089   6.530 -0.3395  0.4823  0.4293
  531MOL0     C71578   8.969  10.186   6.618  0.7830  0.3902  0.4643
  531MOL0     C71579   8.779   9.999   6.575  0.0580 -0.2624  0.6056
  531MOL0     C71580   8.743   9.983   6.716  0.2939 -0.2654 -0.5158
  531MOL0     O71581   8.612   9.959   6.732 -0.6867  0.0786  0.5759
  531MOL0     C71582   8.559   9.881   6.831 -0.5324  0.7488 -0.0389
  531MOL0     C71583   8.450   9.801   6.789  0.9276 -0.1382  0.2768
  531MOL0     C71584   8.387   9.726   6.890  0.0927  0.3088  0.6450
  531MOL0     C71585   8.423   9.734   7.026 -0.1764  0.1160  0.4112
  531MOL0     O71586   8.356   9.665   7.125 -0.4269  0.5026 -0.6502
  531MOL0     C71587   8.231   9.600   7.105  0.3568  0.1127  0.5825
  531MOL0     C71588   8.154   9.554   7.231 -0.1834 -0.5520  0.0328
  531MOL0     C71589   8.200   9.417   7.286 -0.3329 -0.8963 -0.6857
  531MOL0     C71590   8.095   9.356   7.379  0.0837 -0.1883 -0.6567
  531MOL0     C71591   8.079   9.439   7.511  0.0000  0.7047  0.5670
  531MOL0     C71592   7.962   9.390   7.601 -0.3496 -0.3695  1.4282
  531MOL0     C71593   7.929   9.475   7.721 -0.8118 -0.4610 -0.4352
  531MOL0     C71594   8.048   9.471   7.822 -0.8624 -0.0008  0.3695
  531MOL0    Cl71595   8.096   9.624   7.896 -0.0192  0.1798 -0.7747
  531MOL0     C71596   8.531   9.810   7.072 -0.3497 -0.3318 -0.9615
  531MOL0     C71597   8.602   9.880   6.970  0.4141  0.3506 -0.3370
  531MOL0     O71598   8.829   9.973   6.799 -0.8388  0.0955 -0.6190
  531MOL0     C71599   8.720   9.916   6.477 -0.7828  0.4165 -0.1033
  531MOL0     C71600   8.771   9.904   6.352  0.8844  0.3385  0.0219
  531MOL0     N71601   8.805   9.537   5.974 -0.1871  0.9209 -0.0412
  531MOL0     N71602   8.753   9.429   6.010  0.2242  0.1050  0.3095
  531MOL0     C71603   9.463   8.709   6.200 -0.2327  0.3284  0.0763
  531MOL0     C71604   9.579   8.670   6.266 -0.0213 -0.1749  0.4564
  531MOL0     C71605   9.900   8.420   6.460 -0.3794  0.5627 -0.3341
  531MOL0     C71606   9.991   8.356   6.368  0.1104 -0.7365 -0.0064
  531MOL0     C71607  10.088   8.260   6.409 -0.2388 -1.0325 -0.5175
  531MOL0     C71608  10.111   8.239   6.546 -0.4672  0.1653 -0.2698
  531MOL0     O71609  10.215   8.159   6.579 -0.7872 -0.0091 -0.8794
  531MOL0     C71610  10.273   8.176   6.704  0.2628 -0.1960 -0.9653
  531MOL0     C71611  10.407   8.113   6.720 -1.0671  0.4041  0.8085
  531MOL0     C71612  10.475   8.142   6.857 -0.2643  0.0184  0.5666
  531MOL0     C71613  10.638   8.145   6.856 -0.3085 -0.6895  0.1304
  531MOL0     C71614  10.684   8.019   6.818 -0.5990  0.1778  0.1027
  531MOL0     C71615  10.723   7.915   6.765 -0.0095  0.1265 -0.5545
  531MOL0     C71616  10.037   8.317   6.634 -0.2697 -0.0074 -0.4270
  531MOL0     C71617   9.936   8.403   6.593 -0.1364  0.2728  0.6888
  531MOL0     H71618   9.590   8.347   6.141 -0.1810  0.9053 -1.7137
  531MOL0     H71619   9.388   8.446   6.005  0.8249  0.4937 -1.1832
  531MOL0     H71620   9.212   8.816   6.150 -0.4905  0.1704 -0.5665
  531MOL0     H71621   9.296   8.866   5.999  2.5247 -0.8768 -0.2210
  531MOL0     H71622   9.074   8.917   5.993  2.4040 -0.0451  2.5886
  531MOL0     H71623   9.101   8.772   5.873 -0.1112 -1.8119  1.5709
  531MOL0     H71624   8.998   8.624   6.000  5.1075 -0.1889  0.6965
  531MOL0     H71625   8.983   8.737   6.139 -1.9777  0.2869  0.3072
  531MOL0     H71626   8.838   8.808   5.875 -0.3578 -0.5022  0.0509
  531MOL0     H71627   8.785   8.671   5.959 -0.1884  0.7634 -4.5543
  531MOL0     H71628   8.663   8.856   6.034  1.0511  3.8958 -0.2102
  531MOL0     H71629   8.750   8.777   6.167  0.5823  1.3082  1.4844
  531MOL0     H71630   8.761   9.009   6.219 -0.5504  2.8845 -1.1159
  531MOL0     H71631   8.917   8.968   6.161  0.0105  1.3219  0.6616
  531MOL0     H71632   8.907   9.078   5.959  1.6961  1.3560  2.0658
  531MOL0     H71633   8.729   9.105   5.957  0.8480  2.1430 -0.7755
  531MOL0     H71634   8.927   9.201   6.162 -0.8521 -1.0821  0.3974
  531MOL0     H71635   8.752   9.227   6.167 -0.7100 -0.0876 -0.6728
  531MOL0     H71636   9.075   9.356   5.983 -1.2855 -1.8919  1.7920
  531MOL0     H71637   9.135   9.593   5.914  0.0108 -0.0403  1.0501
  531MOL0     H71638   9.002   9.648   5.801  1.8175  0.0608 -0.0853
  531MOL0     H71639   8.912   9.793   5.960 -0.6345 -0.7397  1.8814
  531MOL0     H71640   9.082   9.835   5.925 -1.2430  1.6599 -0.3198
  531MOL0     H71641   9.136   9.714   6.156 -0.5047 -1.8006  1.9433
  531MOL0     H71642   8.962   9.711   6.176  0.2490 -0.4246 -1.3823
  531MOL0     H71643   9.127   9.954   6.133  1.3908 -1.0083  0.7015
  531MOL0     H71644   9.073   9.884   6.289  1.6083 -1.0065 -0.9892
  531MOL0     H71645   9.012  10.139   6.369 -0.4359  0.3555 -3.3217
  531MOL0     H71646   8.996  10.270   6.553  0.0691  0.8196  0.7062
  531MOL0     H71647   8.913  10.219   6.706  0.5223  2.2176 -0.3237
  531MOL0     H71648   9.058  10.145   6.666  0.8922  1.6821  1.4205
  531MOL0     H71649   8.405   9.802   6.690 -0.4925  2.8768  0.8129
  531MOL0     H71650   8.301   9.660   6.880 -1.4479  2.5343 -2.1879
  531MOL0     H71651   8.168   9.667   7.046 -0.4638 -1.4177 -0.3262
  531MOL0     H71652   8.243   9.514   7.038 -1.2751  0.9385 -0.8421
  531MOL0     H71653   8.177   9.629   7.308  0.2701 -0.4738 -0.1743
  531MOL0     H71654   8.046   9.547   7.215 -0.0012 -2.2131 -0.6441
  531MOL0     H71655   8.293   9.420   7.344 -0.6106  0.4447 -0.2747
  531MOL0     H71656   8.213   9.346   7.204  1.0352  0.2387 -1.5207
  531MOL0     H71657   8.001   9.340   7.325  0.3291 -2.8344 -0.4337
  531MOL0     H71658   8.138   9.260   7.410  4.5000  2.0900  1.1091
  531MOL0     H71659   8.068   9.545   7.484  2.6687  0.6599 -1.0511
  531MOL0     H71660   8.171   9.438   7.569 -0.6070 -0.0231  1.5555
  531MOL0     H71661   7.880   9.387   7.529  1.0553  0.9830 -0.2936
  531MOL0     H71662   7.971   9.285   7.634 -3.8198 -0.8905  1.0687
  531MOL0     H71663   7.837   9.448   7.772 -0.0365 -0.5881  0.9608
  531MOL0     H71664   7.906   9.578   7.693  0.5896 -0.4826 -1.8798
  531MOL0     H71665   8.140   9.435   7.776  0.5307  2.6173  0.8695
  531MOL0     H71666   8.013   9.404   7.902  0.3610 -1.1025  0.0121
  531MOL0     H71667   8.565   9.804   7.175 -0.4805  1.0366 -0.8238
  531MOL0     H71668   8.680   9.950   6.998  1.5139  0.2021 -2.7619
  531MOL0     H71669   8.645   9.846   6.512 -0.4241  0.0958  0.0358
  531MOL0     H71670   8.732   9.824   6.291 -2.0049 -0.2107  2.3520
  531MOL0     H71671   9.425   8.807   6.228  1.5011  1.1657 -0.3671
  531MOL0     H71672   9.621   8.727   6.348  0.3647 -3.7362  2.9587
  531MOL0     H71673   9.980   8.365   6.260  2.0578  0.8824 -0.1408
  531MOL0     H71674  10.163   8.215   6.344  1.8027  1.2329  0.1307
  531MOL0     H71675  10.274   8.283   6.727  0.8019  0.3011 -3.0819
  531MOL0     H71676  10.204   8.131   6.777  1.6296 -0.4226  0.2472
  531MOL0     H71677  10.472   8.144   6.638  0.1732 -4.1201 -0.1996
  531MOL0     H71678  10.391   8.004   6.716  1.5263 -0.0542  1.3723
  531MOL0     H71679  10.449   8.069   6.934  3.2710  1.0415  3.0064
  531MOL0     H71680  10.435   8.239   6.889 -0.6840  0.3834 -0.9728
  531MOL0     H71681  10.669   8.179   6.955 -0.0831 -0.6228  0.0391
  531MOL0     H71682  10.668   8.220   6.782  0.4353 -0.7299  0.3794
  531MOL0     H71683  10.771   7.830   6.720  1.2061  2.2070 -3.5569
  531MOL0     H71684  10.052   8.305   6.741  0.5497  1.7252 -0.3054
  531MOL0     H71685   9.881   8.460   6.667 -0.5522 -0.0971  0.6691
  532MOL0     O71686   4.073  11.232   3.134  0.3516  0.2863 -0.2416
  532MOL0     C71687   4.056  11.121   3.183 -0.2468 -0.4386  0.0971
  532MOL0     O71688   3.936  11.074   3.232 -0.2187 -0.0719 -0.2395
  532MOL0     C71689   3.809  11.143   3.228 -0.0403  0.1540 -0.2144
  532MOL0     C71690   3.805  11.282   3.233  0.6269  0.3548 -0.5643
  532MOL0     C71691   3.681  11.342   3.227  0.9100  0.0080  0.4904
  532MOL0     C71692   3.562  11.270   3.197  0.4690  0.6594  0.2998
  532MOL0     O71693   3.441  11.329   3.180 -0.2127 -0.1543 -0.5450
  532MOL0     C71694   3.345  11.269   3.091 -0.3630  0.6700  0.4709
  532MOL0     C71695   3.212  11.253   3.160  0.1617  0.8374  0.1182
  532MOL0     C71696   3.111  11.201   3.062 -0.6919 -0.4545  0.9732
  532MOL0     C71697   2.978  11.184   3.137 -0.4678  0.3309  0.1858
  532MOL0     C71698   2.862  11.135   3.056 -0.7956  0.1675 -0.4100
  532MOL0     C71699   2.728  11.159   3.126 -0.0481  0.4210  0.0492
  532MOL0     C71700   2.612  11.095   3.055 -0.4469  0.2428 -0.1926
  532MOL0     C71701   2.484  11.075   3.139 -0.4405 -0.1429 -0.3279
  532MOL0     N71702   2.385  11.026   3.051 -0.0639  0.2140 -0.4162
  532MOL0     C71703   2.307  10.918   3.057  0.3223  0.5368  0.0907
  532MOL0     C71704   2.248  10.906   2.935  0.3288  0.1921  0.0414
  532MOL0     C71705   2.149  10.802   2.902  0.2670  0.5241 -0.2483
  532MOL0     C71706   1.998  10.845   2.915  0.2378 -0.7883 -0.1530
  532MOL0     C71707   1.963  10.888   3.060  0.0075 -1.3221  0.4164
  532MOL0     C71708   1.812  10.942   3.062 -0.5770  0.4870 -0.6472
  532MOL0     O71709   1.730  10.832   3.094 -0.2959 -0.4256  0.5714
  532MOL0     C71710   1.600  10.871   3.109 -0.8639 -0.2448  0.3248
  532MOL0     C71711   1.545  10.980   3.183  0.6549 -0.1385  0.7591
  532MOL0     C71712   1.403  10.992   3.192 -0.8522  0.7072 -0.7632
  532MOL0     C71713   1.358  11.102   3.280  1.1828  0.1903 -0.2887
  532MOL0     C71714   1.320  10.894   3.138 -0.1296 -0.8401  1.1955
  532MOL0     C71715   1.174  10.888   3.149  0.4138  0.1554  0.3474
  532MOL0     O71716   1.113  10.800   3.072 -0.4142  0.0090  0.0056
  532MOL0     C71717   0.978  10.804   3.053  0.2554  0.1104  0.1136
  532MOL0     C71718   0.886  10.750   3.142  0.0410 -0.3945  0.0946
  532MOL0     C71719   0.751  10.767   3.136  0.2410 -0.6621 -0.0875
  532MOL0     C71720   0.703  10.824   3.011  0.5078  0.5960 -0.4079
  532MOL0     O71721   0.568  10.847   2.997 -0.0875  0.2181 -0.1011
  532MOL0     C71722   0.518  10.980   2.992  0.9106 -0.5031  0.1427
  532MOL0     C71723   0.401  10.975   2.896 -0.1764 -0.1447  0.1698
  532MOL0     C71724   0.304  11.091   2.924 -0.0569  0.5119 -0.0618
  532MOL0     C71725   0.203  11.104   2.806  0.4030 -0.1073 -0.6945
  532MOL0     C71726   0.097  11.207   2.834 -0.0832  0.0604  0.1875
  532MOL0     C71727   0.008  11.209   2.711 -0.1481 -0.3461  0.9564
  532MOL0     C71728  -0.113  11.296   2.728 -0.4229 -0.3846 -0.4370
  532MOL0     C71729  -0.211  11.266   2.614 -0.4119 -0.6479 -0.6288
  532MOL0    Cl71730  -0.336  11.385   2.579 -0.3794  0.1183  0.3130
  532MOL0     C71731   0.787  10.874   2.909 -0.3045 -0.1413  0.4369
  532MOL0     C71732   0.931  10.864   2.942  0.1808  0.3696  0.1210
  532MOL0     O71733   1.113  10.953   3.238  0.2262  0.6553 -0.2177
  532MOL0     C71734   1.384  10.787   3.066  0.4493  0.9951 -0.5445
  532MOL0     C71735   1.515  10.780   3.052 -0.3255 -0.0899 -0.0675
  532MOL0     N71736   2.292  11.010   2.853 -0.4225  0.0595 -0.1728
  532MOL0     N71737   2.374  11.082   2.930  0.0251 -0.1053 -0.0893
  532MOL0     C71738   3.575  11.126   3.202  0.3773  0.3881  0.1206
  532MOL0     C71739   3.689  11.062   3.218 -0.4843  0.4372  0.2896
  532MOL0     C71740   4.183  11.038   3.194  0.2449  0.3296 -0.5951
  532MOL0     C71741   4.310  11.094   3.191 -1.1773 -0.3749 -0.1885
  532MOL0     C71742   4.418  11.014   3.185 -0.0613  0.2762 -0.0039
  532MOL0     C71743   4.415  10.871   3.209 -0.1429  0.5792  0.8812
  532MOL0     O71744   4.519  10.782   3.197  0.1176 -0.3175  0.6942
  532MOL0     C71745   4.644  10.831   3.134 -0.2321  0.8012  0.1106
  532MOL0     C71746   4.633  10.850   2.983 -1.0890  0.2907  0.0250
  532MOL0     C71747   4.775  10.852   2.923 -0.9498 -0.2909  0.4763
  532MOL0     C71748   4.859  10.729   2.931  0.4565  0.4143 -0.5268
  532MOL0     C71749   4.991  10.742   2.869  0.2636 -0.0458 -0.1510
  532MOL0     C71750   5.106  10.741   2.825  0.3310 -0.5671 -0.0695
  532MOL0     C71751   4.291  10.816   3.221 -0.1215 -0.1260  0.1326
  532MOL0     C71752   4.178  10.903   3.226  0.3549  0.0660 -0.8050
  532MOL0     H71753   3.900  11.333   3.238  2.8429 -3.4854  2.5327
  532MOL0     H71754   3.678  11.450   3.216  0.3764 -0.2254 -2.6262
  532MOL0     H71755   3.340  11.336   3.005 -2.3566 -0.3617 -0.2850
  532MOL0     H71756   3.375  11.175   3.044 -0.9401  1.6577 -2.0212
  532MOL0     H71757   3.227  11.186   3.246  3.1441  2.9274  1.4058
  532MOL0     H71758   3.174  11.350   3.194 -1.6995  0.7655 -1.5754
  532MOL0     H71759   3.115  11.267   2.975 -1.8821 -2.5091 -0.7408
  532MOL0     H71760   3.151  11.108   3.020 -0.6663  0.4610 -1.1639
  532MOL0     H71761   2.995  11.114   3.220  0.2547  1.8826  1.3954
  532MOL0     H71762   2.958  11.277   3.191 -2.2567 -1.2390  2.4163
  532MOL0     H71763   2.858  11.187   2.960 -0.1225  1.2959  0.1652
  532MOL0     H71764   2.883  11.031   3.027 -0.0017  0.1810  0.0842
  532MOL0     H71765   2.726  11.124   3.230 -1.4932  1.6022  0.4624
  532MOL0     H71766   2.713  11.267   3.132 -0.8497  0.6463 -3.5773
  532MOL0     H71767   2.596  11.150   2.962 -0.1366  0.1287 -0.3147
  532MOL0     H71768   2.638  10.994   3.021  0.7462  0.1408  0.9282
  532MOL0     H71769   2.456  11.170   3.185  2.1455  0.7469 -0.4489
  532MOL0     H71770   2.505  11.002   3.218  2.6720 -0.5952 -1.4051
  532MOL0     H71771   2.290  10.852   3.141  1.0287 -2.4354 -1.9448
  532MOL0     H71772   2.168  10.759   2.803 -2.4660 -2.5118  0.3975
  532MOL0     H71773   2.152  10.719   2.973 -0.1055 -1.5028 -2.4824
  532MOL0     H71774   1.928  10.767   2.884  3.2444 -3.1222 -1.6744
  532MOL0     H71775   1.986  10.930   2.847  1.3177 -0.6999 -0.2649
  532MOL0     H71776   2.038  10.963   3.087 -0.5694  0.6480 -2.8767
  532MOL0     H71777   1.982  10.815   3.139 -2.5365  0.9373  3.3924
  532MOL0     H71778   1.796  10.984   2.962 -1.6939  1.3149 -0.1418
  532MOL0     H71779   1.800  11.016   3.141 -0.9550 -1.0597  0.8019
  532MOL0     H71780   1.609  11.052   3.232 -0.5882  1.2695  0.3966
  532MOL0     H71781   1.434  11.150   3.342  1.1851 -0.0346 -0.1176
  532MOL0     H71782   1.298  11.168   3.216  1.2116  0.3971 -0.1022
  532MOL0     H71783   1.284  11.066   3.352 -0.6222  1.4266 -1.4401
  532MOL0     H71784   0.927  10.706   3.233 -1.5218  1.9166  2.0475
  532MOL0     H71785   0.687  10.749   3.221  1.6394  0.1037  1.1825
  532MOL0     H71786   0.486  11.017   3.090  2.1152  1.4583 -0.1517
  532MOL0     H71787   0.594  11.052   2.959  1.4719 -1.0310  0.2704
  532MOL0     H71788   0.432  10.981   2.792 -1.1018 -0.6554 -0.1536
  532MOL0     H71789   0.346  10.882   2.914 -1.8568  1.2119  2.6824
  532MOL0     H71790   0.358  11.186   2.930 -1.0999  1.0823  0.6525
  532MOL0     H71791   0.246  11.076   3.016  0.3422 -1.1935 -0.0650
  532MOL0     H71792   0.254  11.122   2.711  1.8942 -0.3617  0.0268
  532MOL0     H71793   0.149  11.010   2.797 -0.5904  0.3631  0.0694
  532MOL0     H71794   0.144  11.304   2.855  1.9281 -0.4615 -1.5669
  532MOL0     H71795   0.041  11.171   2.921 -1.6703  2.2843  0.1725
  532MOL0     H71796   0.056  11.239   2.617 -2.9236 -2.1328 -1.1839
  532MOL0     H71797  -0.032  11.107   2.704 -0.1610 -0.2342 -1.3198
  532MOL0     H71798  -0.080  11.400   2.733  1.6436 -1.0167 -0.2662
  532MOL0     H71799  -0.162  11.285   2.825  1.3104  2.6897  0.9236
  532MOL0     H71800  -0.257  11.173   2.649  0.6472 -0.2252  2.2054
  532MOL0     H71801  -0.162  11.258   2.517 -2.1356 -0.8439 -1.5216
  532MOL0     H71802   0.751  10.928   2.823  0.4640 -1.0514 -0.4843
  532MOL0     H71803   0.999  10.909   2.870 -0.9015 -1.9432 -2.5136
  532MOL0     H71804   1.330  10.703   3.025 -0.4976  3.0591 -3.8836
  532MOL0     H71805   1.564  10.705   2.990  2.0444  1.2782  0.0038
  532MOL0     H71806   3.492  11.056   3.194 -1.0465  1.7888  1.9332
  532MOL0     H71807   3.685  10.954   3.208 -4.3104  0.5474 -1.0137
  532MOL0     H71808   4.328  11.201   3.183  0.6332 -0.6796 -0.5527
  532MOL0     H71809   4.508  11.075   3.174 -0.9872  2.2778  2.5572
  532MOL0     H71810   4.673  10.927   3.179 -1.7488  0.7235  1.3191
  532MOL0     H71811   4.718  10.754   3.158 -0.9296  0.3456  0.8420
  532MOL0     H71812   4.576  10.941   2.965 -0.0687  0.4866 -2.6836
  532MOL0     H71813   4.582  10.768   2.932  0.0353 -0.1028 -0.5079
  532MOL0     H71814   4.831  10.941   2.952  0.1503 -0.0636 -2.0489
  532MOL0     H71815   4.755  10.865   2.816  1.9344  1.0469  0.0070
  532MOL0     H71816   4.816  10.641   2.882  0.9023  1.2129 -2.4480
  532MOL0     H71817   4.885  10.706   3.035  0.2678 -0.9877 -0.7642
  532MOL0     H71818   5.209  10.742   2.797  0.3130  0.9125 -0.1514
  532MOL0     H71819   4.287  10.708   3.229  2.1187 -0.5543 -2.9137
  532MOL0     H71820   4.081  10.854   3.231  1.3865 -2.0471  0.0518
  533MOL0     O71821   1.982  11.121   3.747  0.4510  0.2692 -0.5756
  533MOL0     C71822   2.103  11.111   3.712 -0.1489  0.4290 -0.0027
  533MOL0     O71823   2.153  11.101   3.583 -0.4833 -0.4505  0.2699
  533MOL0     C71824   2.080  11.143   3.468 -0.0353  0.9640 -0.6985
  533MOL0     C71825   2.141  11.110   3.349 -0.0489  0.2823  0.7214
  533MOL0     C71826   2.089  11.154   3.233  0.1384  0.0030  0.1727
  533MOL0     C71827   1.975  11.240   3.231  0.7285 -0.1371  0.0212
  533MOL0     O71828   1.914  11.294   3.119  0.5112 -0.1987  0.4098
  533MOL0     C71829   1.976  11.265   2.989 -0.3075  0.0416 -0.5293
  533MOL0     C71830   1.900  11.321   2.868  0.3244  0.1485  0.1617
  533MOL0     C71831   1.754  11.274   2.848 -0.5984  0.0292 -0.4119
  533MOL0     C71832   1.652  11.355   2.927 -0.1802  0.5512 -0.7706
  533MOL0     C71833   1.508  11.306   2.890  0.0486  0.3686 -0.2794
  533MOL0     C71834   1.406  11.376   2.983 -0.4912 -0.1663 -0.1290
  533MOL0     C71835   1.263  11.337   2.956 -0.0034 -0.1125  0.6131
  533MOL0     C71836   1.166  11.424   3.036  0.6132  0.3502 -0.8592
  533MOL0     N71837   1.035  11.365   3.031  0.4728  0.0341  0.1004
  533MOL0     C71838   0.996  11.258   3.102  0.6594  1.1333 -0.3258
  533MOL0     C71839   0.863  11.267   3.117 -0.3105  0.1955  0.7451
  533MOL0     C71840   0.778  11.159   3.186 -0.5084  0.0117  0.3167
  533MOL0     C71841   0.726  11.202   3.323  0.0998  0.7311  0.0058
  533MOL0     C71842   0.623  11.313   3.329  0.3813 -0.0728 -0.4408
  533MOL0     C71843   0.494  11.298   3.251 -0.7315 -0.4364  0.2072
  533MOL0     O71844   0.427  11.187   3.306  0.5166  0.4391  0.4619
  533MOL0     C71845   0.300  11.164   3.267  0.6031  1.3111  0.5244
  533MOL0     C71846   0.251  11.037   3.307 -0.0609 -0.1953  0.5652
  533MOL0     C71847   0.114  11.007   3.291 -1.0193  1.1860 -0.3299
  533MOL0     C71848   0.060  10.867   3.316  0.6426 -0.0047 -0.0053
  533MOL0     C71849   0.022  11.097   3.228  0.3237 -1.0588 -0.9880
  533MOL0     C71850  -0.124  11.077   3.192 -0.5280 -0.1663 -0.0834
  533MOL0     O71851  -0.190  10.968   3.236  0.2727 -0.9989 -0.1375
  533MOL0     C71852  -0.328  10.978   3.268  0.4950 -0.4099 -0.3614
  533MOL0     C71853  -0.393  11.096   3.312 -0.1283  0.3530  0.1318
  533MOL0     C71854  -0.535  11.095   3.312  0.2874  0.6887 -1.0992
  533MOL0     C71855  -0.610  10.977   3.286 -0.4365 -0.4379 -0.0032
  533MOL0     O71856  -0.746  10.953   3.298 -0.8248 -0.0296  0.4344
  533MOL0     C71857  -0.833  11.029   3.384 -0.4127 -0.2447 -0.7371
  533MOL0     C71858  -0.955  10.942   3.390 -0.1752 -0.0056 -0.1858
  533MOL0     C71859  -1.089  11.013   3.437 -0.4492 -0.6810  0.4698
  533MOL0     C71860  -1.161  11.065   3.318 -0.4335  0.5723  0.3292
  533MOL0     C71861  -1.292  11.122   3.350 -0.2424 -0.1983  0.2766
  533MOL0     C71862  -1.370  11.119   3.217  0.1813 -0.5489 -0.3151
  533MOL0     C71863  -1.507  11.176   3.235 -0.1718  0.2710  0.1162
  533MOL0     C71864  -1.597  11.169   3.115  1.5163  0.2851 -0.0574
  533MOL0    Cl71865  -1.765  11.225   3.169  0.2860 -0.3055  0.0400
  533MOL0     C71866  -0.538  10.869   3.248 -0.6424  0.0260  0.2449
  533MOL0     C71867  -0.405  10.865   3.247 -0.4184  0.1881 -0.4902
  533MOL0     O71868  -0.173  11.173   3.134 -0.0814 -0.3567  0.6445
  533MOL0     C71869   0.076  11.223   3.178  0.5821  0.6900  0.2889
  533MOL0     C71870   0.213  11.261   3.203  0.1842  0.8559  0.3731
  533MOL0     N71871   0.816  11.375   3.048 -0.4620  0.1872 -0.3054
  533MOL0     N71872   0.919  11.431   2.992 -0.2843  1.4654 -0.1538
  533MOL0     C71873   1.921  11.276   3.351 -0.2396  0.8888  0.3846
  533MOL0     C71874   1.970  11.226   3.469  0.0857  0.1041  0.2186
  533MOL0     C71875   2.191  11.135   3.822  0.2836  0.1571  0.4228
  533MOL0     C71876   2.147  11.169   3.949 -0.9950  0.0126 -0.1318
  533MOL0     C71877   2.234  11.185   4.057  0.7588 -0.3957  0.1258
  533MOL0     C71878   2.373  11.185   4.030  0.1985  0.9734  0.1710
  533MOL0     O71879   2.459  11.205   4.139 -0.6520 -0.1025  0.0423
  533MOL0     C71880   2.600  11.242   4.121  0.6421  1.0191 -0.5270
  533MOL0     C71881   2.680  11.116   4.148 -0.2020  0.9815 -0.1561
  533MOL0     C71882   2.825  11.132   4.104 -0.3122  0.4996  0.0583
  533MOL0     C71883   2.905  11.001   4.139  0.2916 -0.0904 -0.3967
  533MOL0     C71884   3.016  10.982   4.039 -0.1980 -0.6896  0.3048
  533MOL0     C71885   3.102  10.950   3.953  0.9736 -0.1117 -0.0904
  533MOL0     C71886   2.415  11.156   3.902 -0.1515  0.3999 -1.0393
  533MOL0     C71887   2.327  11.135   3.799 -0.5801  0.8645  0.7693
  533MOL0     H71888   2.223  11.038   3.350 -0.3518 -0.0689  1.0058
  533MOL0     H71889   2.133  11.147   3.134  2.2908  2.2769  0.8686
  533MOL0     H71890   2.071  11.318   2.995 -0.2825 -0.0455 -0.0498
  533MOL0     H71891   2.001  11.159   2.977  3.6869  0.5363  1.6738
  533MOL0     H71892   1.898  11.429   2.883  3.4932  0.1348  1.4486
  533MOL0     H71893   1.950  11.288   2.777  0.7582 -2.5711  1.2911
  533MOL0     H71894   1.736  11.282   2.740 -0.8454  2.4129 -0.2469
  533MOL0     H71895   1.755  11.165   2.857  2.1823 -0.0628 -0.7978
  533MOL0     H71896   1.658  11.345   3.036 -1.0054 -1.1642 -0.8519
  533MOL0     H71897   1.662  11.463   2.914  0.9776  0.1929 -3.5553
  533MOL0     H71898   1.490  11.334   2.786  1.2375  0.4403 -0.4843
  533MOL0     H71899   1.500  11.198   2.907 -1.5361  0.2832 -1.2836
  533MOL0     H71900   1.427  11.352   3.088 -0.4185  1.2027  0.1862
  533MOL0     H71901   1.421  11.483   2.972  1.8499  0.1698  4.0790
  533MOL0     H71902   1.229  11.333   2.852  1.6049 -0.1515  0.0696
  533MOL0     H71903   1.258  11.234   2.992  3.1046  0.2040  2.2608
  533MOL0     H71904   1.157  11.525   2.994 -1.1306  1.0859  1.0762
  533MOL0     H71905   1.201  11.440   3.138  1.0926  0.4967 -1.0408
  533MOL0     H71906   1.055  11.179   3.146  2.2146  0.9765 -2.5495
  533MOL0     H71907   0.698  11.125   3.118 -1.1874  2.8108 -0.4093
  533MOL0     H71908   0.854  11.081   3.193  0.9913  1.1891 -1.5919
  533MOL0     H71909   0.805  11.240   3.389  0.3465 -0.2913  0.3215
  533MOL0     H71910   0.683  11.115   3.373 -1.0883 -0.2157 -2.5193
  533MOL0     H71911   0.663  11.404   3.282  0.5018 -0.0025 -0.2058
  533MOL0     H71912   0.599  11.327   3.435 -0.9122 -3.3876 -0.1907
  533MOL0     H71913   0.516  11.280   3.145  0.4589  0.9108  0.2029
  533MOL0     H71914   0.443  11.394   3.260 -0.8034  0.0030 -3.3649
  533MOL0     H71915   0.319  10.971   3.360 -0.2196  0.6469  1.8759
  533MOL0     H71916   0.138  10.795   3.341 -0.4509 -1.3892 -0.4141
  533MOL0     H71917  -0.010  10.870   3.400  0.5416 -1.0963 -0.0387
  533MOL0     H71918   0.006  10.824   3.231 -1.7274 -0.5257  1.6416
  533MOL0     H71919  -0.359  11.196   3.337  0.5326 -0.3913  2.4140
  533MOL0     H71920  -0.590  11.187   3.328 -0.9927  0.1125 -2.0768
  533MOL0     H71921  -0.781  11.043   3.479  0.6458 -1.7641 -1.0492
  533MOL0     H71922  -0.873  11.124   3.347 -1.0531  0.7805  2.3030
  533MOL0     H71923  -0.979  10.881   3.302 -0.9472 -1.7411  1.1575
  533MOL0     H71924  -0.943  10.881   3.480  0.3441  1.6074  0.8860
  533MOL0     H71925  -1.067  11.095   3.507  1.9352  2.2676 -3.2801
  533MOL0     H71926  -1.154  10.933   3.473  1.5721 -2.4351  0.4318
  533MOL0     H71927  -1.093  11.139   3.276  0.2530 -0.4900 -0.4984
  533MOL0     H71928  -1.173  10.982   3.247 -0.8289 -2.6982  3.8807
  533MOL0     H71929  -1.283  11.216   3.404  0.2389  1.1015 -1.9329
  533MOL0     H71930  -1.351  11.061   3.419  0.3116  0.4372  1.3415
  533MOL0     H71931  -1.310  11.181   3.149  1.8798 -0.1367  1.4868
  533MOL0     H71932  -1.385  11.018   3.178 -0.2305 -1.0530  1.1116
  533MOL0     H71933  -1.505  11.277   3.276 -0.7105 -1.1978  4.2933
  533MOL0     H71934  -1.555  11.108   3.306  2.5686 -4.2320 -1.9008
  533MOL0     H71935  -1.606  11.068   3.074 -1.5946  0.4434  0.0029
  533MOL0     H71936  -1.567  11.239   3.036 -1.1757  0.6808 -0.8237
  533MOL0     H71937  -0.580  10.774   3.215 -0.2333 -0.4086  0.9530
  533MOL0     H71938  -0.357  10.770   3.224  2.1572  0.4464  2.9656
  533MOL0     H71939   0.012  11.303   3.140 -0.6331  0.0448  0.9051
  533MOL0     H71940   0.252  11.354   3.162  0.5587 -0.3822 -2.2710
  533MOL0     H71941   1.837  11.344   3.349 -0.8965  0.3957 -5.2911
  533MOL0     H71942   1.909  11.254   3.554 -0.8174  3.1793 -1.3177
  533MOL0     H71943   2.039  11.167   3.967 -1.1476  1.8825 -0.6572
  533MOL0     H71944   2.193  11.191   4.158 -0.5150 -0.3213 -0.3761
  533MOL0     H71945   2.615  11.285   4.021  2.0559  0.6933 -0.4816
  533MOL0     H71946   2.627  11.318   4.195  1.9649  0.0464  0.0406
  533MOL0     H71947   2.637  11.030   4.095 -3.0838  3.4319 -2.1444
  533MOL0     H71948   2.678  11.081   4.251 -1.7594 -1.1541 -0.8346
  533MOL0     H71949   2.876  11.212   4.160  0.0388 -0.9016  1.8230
  533MOL0     H71950   2.837  11.147   3.996  1.3151 -2.2212 -0.2390
  533MOL0     H71951   2.842  10.912   4.147  4.8612 -3.5000  1.7516
  533MOL0     H71952   2.948  11.001   4.239  0.0828 -0.1710 -0.3049
  533MOL0     H71953   3.178  10.918   3.884 -0.9761 -2.3148 -1.3657
  533MOL0     H71954   2.521  11.148   3.879  0.3859  1.7607  0.7874
  533MOL0     H71955   2.378  11.111   3.706 -2.7498 -0.2194 -0.2053
  534MOL0     O71956   8.619   5.415   5.594  0.3239 -0.0706 -0.0764
  534MOL0     C71957   8.643   5.340   5.501 -0.4523  0.0195 -0.0617
  534MOL0     O71958   8.555   5.275   5.419  0.4522  0.1741 -0.1252
  534MOL0     C71959   8.423   5.281   5.455  0.6483 -0.0549 -0.4082
  534MOL0     C71960   8.372   5.209   5.565  0.6013  0.6485 -0.0656
  534MOL0     C71961   8.233   5.201   5.586  0.3017  0.8386  0.7554
  534MOL0     C71962   8.141   5.261   5.508 -0.0337  0.2674  0.2340
  534MOL0     O71963   8.010   5.228   5.519  0.5378 -0.7733  0.1404
  534MOL0     C71964   7.986   5.088   5.506  0.3622  0.2555  0.6749
  534MOL0     C71965   7.836   5.084   5.471  0.0687  0.3377  0.1470
  534MOL0     C71966   7.772   4.941   5.460 -0.8129 -1.5664 -0.2238
  534MOL0     C71967   7.647   4.950   5.386  0.1692 -0.0137 -0.6158
  534MOL0     C71968   7.593   4.811   5.345  0.7727 -0.4135  0.7896
  534MOL0     C71969   7.489   4.816   5.232 -0.2350  0.1398 -0.0125
  534MOL0     C71970   7.438   4.672   5.199  0.2578  0.3842  0.2992
  534MOL0     C71971   7.291   4.666   5.149 -1.2475  0.1322  0.0654
  534MOL0     N71972   7.191   4.710   5.251  0.0111  0.6416  0.4356
  534MOL0     C71973   7.159   4.635   5.364  0.8876  0.3985  0.2898
  534MOL0     C71974   7.086   4.726   5.428 -0.6701 -0.4200 -1.8837
  534MOL0     C71975   7.020   4.689   5.555 -0.3108 -0.3293 -0.2112
  534MOL0     C71976   6.880   4.643   5.523  0.9806  0.9554  1.3957
  534MOL0     C71977   6.790   4.613   5.640  0.7277  0.2960 -0.3937
  534MOL0     C71978   6.643   4.605   5.600  0.0035  0.2406  0.6237
  534MOL0     O71979   6.619   4.552   5.470  0.8509 -0.1490 -0.3753
  534MOL0     C71980   6.492   4.541   5.427  0.0076 -0.2767  0.7312
  534MOL0     C71981   6.475   4.515   5.285 -0.5241  0.4377  0.1628
  534MOL0     C71982   6.348   4.506   5.224 -0.1089 -0.2286 -0.1773
  534MOL0     C71983   6.332   4.477   5.077 -0.2744  0.4221 -0.2014
  534MOL0     C71984   6.233   4.527   5.308 -0.2941 -0.1792  0.6277
  534MOL0     C71985   6.089   4.516   5.264 -0.2395 -1.0459 -0.3272
  534MOL0     O71986   6.005   4.576   5.348 -0.0503  0.3943 -0.5505
  534MOL0     C71987   5.871   4.572   5.322 -0.6752 -0.8903 -0.8452
  534MOL0     C71988   5.791   4.511   5.425 -0.9860 -0.3122 -0.1214
  534MOL0     C71989   5.662   4.530   5.418  0.1901 -0.0686  1.2874
  534MOL0     C71990   5.593   4.605   5.315  0.5824  0.1202 -0.7729
  534MOL0     O71991   5.456   4.610   5.309 -0.2866 -0.3162 -0.1468
  534MOL0     C71992   5.387   4.718   5.251  0.5003  0.7857  0.0557
  534MOL0     C71993   5.245   4.691   5.287  0.6466  0.2406 -0.2683
  534MOL0     C71994   5.154   4.820   5.318 -0.2147  0.0679  0.4445
  534MOL0     C71995   5.002   4.798   5.317  0.2013  0.2532  0.0379
  534MOL0     C71996   4.910   4.909   5.366 -0.0760  0.1843  0.2251
  534MOL0     C71997   4.941   5.039   5.287 -0.5573  0.2186 -0.0790
  534MOL0     C71998   4.818   5.123   5.301  0.1236 -0.1663  0.4096
  534MOL0     C71999   4.842   5.271   5.276 -1.0317  0.3554  0.9314
  534MOL0    Cl72000   4.964   5.342   5.375  0.1683  0.0437 -0.2814
  534MOL0     C72001   5.680   4.660   5.211  0.8769  0.2209 -0.8850
  534MOL0     C72002   5.815   4.638   5.215  0.0440  0.7232  0.5361
  534MOL0     O72003   6.052   4.451   5.165 -0.3488 -0.7353  0.4140
  534MOL0     C72004   6.254   4.540   5.446  0.4156  0.8891  0.0290
  534MOL0     C72005   6.378   4.550   5.508  0.3082 -0.3636 -0.4003
  534MOL0     N72006   7.056   4.837   5.360 -0.5809 -0.7864  0.2073
  534MOL0     N72007   7.124   4.827   5.250 -0.6654  0.3025 -0.5443
  534MOL0     C72008   8.190   5.337   5.409  0.3875  0.1501  0.0361
  534MOL0     C72009   8.327   5.345   5.376  0.2166  0.5425  0.2496
  534MOL0     C72010   8.787   5.311   5.473  0.0659  0.0985 -1.1280
  534MOL0     C72011   8.826   5.249   5.353  0.4496 -0.1243  0.0009
  534MOL0     C72012   8.955   5.196   5.330  0.7604 -0.8919  0.0345
  534MOL0     C72013   9.049   5.202   5.440  0.2097  1.2342 -0.4532
  534MOL0     O72014   9.183   5.154   5.433  0.2670  0.2911 -0.5495
  534MOL0     C72015   9.246   5.126   5.302  0.2030  0.0341  0.2794
  534MOL0     C72016   9.287   5.254   5.240  0.0221  0.2977  0.3587
  534MOL0     C72017   9.424   5.301   5.291  0.8919 -0.6419  0.0613
  534MOL0     C72018   9.466   5.427   5.214 -0.4820 -0.5045 -0.3941
  534MOL0     C72019   9.534   5.389   5.094  0.8409 -0.2040  0.4179
  534MOL0     C72020   9.570   5.355   4.984  0.4681  1.1197  0.1529
  534MOL0     C72021   9.012   5.259   5.560 -0.7888  0.1150  0.6373
  534MOL0     C72022   8.884   5.312   5.573  0.3949 -0.4524 -0.4944
  534MOL0     H72023   8.445   5.152   5.622  0.2361  0.6998  0.4582
  534MOL0     H72024   8.195   5.136   5.664  1.7695 -1.6152 -0.4407
  534MOL0     H72025   8.044   5.044   5.424 -0.9455 -1.6026  0.6834
  534MOL0     H72026   8.011   5.036   5.599  0.2269 -1.7489 -0.3444
  534MOL0     H72027   7.784   5.141   5.548 -3.9966 -3.4254  0.5967
  534MOL0     H72028   7.825   5.138   5.377  0.1504  2.5999  1.3840
  534MOL0     H72029   7.843   4.881   5.402  1.3606  0.3234  0.3192
  534MOL0     H72030   7.757   4.895   5.558 -0.1034 -1.3837 -0.0183
  534MOL0     H72031   7.568   4.999   5.444 -3.8721 -3.5139 -2.5969
  534MOL0     H72032   7.670   5.010   5.298  1.5082 -0.8373 -0.8464
  534MOL0     H72033   7.674   4.746   5.311  0.8707 -0.1036  0.4212
  534MOL0     H72034   7.542   4.764   5.430  0.7108 -2.3758 -0.2728
  534MOL0     H72035   7.408   4.878   5.271  0.7909  1.5940 -0.1256
  534MOL0     H72036   7.530   4.863   5.142 -1.5574 -0.6413 -1.0631
  534MOL0     H72037   7.511   4.624   5.134  0.3109  1.3183 -0.3407
  534MOL0     H72038   7.448   4.604   5.285  0.5082 -1.0100 -0.7959
  534MOL0     H72039   7.271   4.563   5.117 -0.5548 -0.5031  1.5712
  534MOL0     H72040   7.283   4.719   5.054  0.6153 -0.1594 -0.2870
  534MOL0     H72041   7.199   4.544   5.407 -1.5824 -1.7450 -1.6150
  534MOL0     H72042   7.088   4.626   5.614 -0.0491  0.3175  0.1938
  534MOL0     H72043   7.000   4.781   5.610 -2.4763 -1.4268  1.0188
  534MOL0     H72044   6.878   4.552   5.462  0.0802  0.9417  1.4329
  534MOL0     H72045   6.827   4.718   5.463 -0.5037  0.0476  1.5243
  534MOL0     H72046   6.813   4.690   5.715 -3.2120  2.3086 -0.9214
  534MOL0     H72047   6.817   4.518   5.687  0.6787  0.7160  0.5120
  534MOL0     H72048   6.593   4.703   5.598  0.1467  0.3249  1.1324
  534MOL0     H72049   6.587   4.544   5.672 -0.5954  2.2995  1.9962
  534MOL0     H72050   6.567   4.502   5.229 -0.5055 -2.7910  0.7542
  534MOL0     H72051   6.286   4.560   5.023  0.0595  0.6539 -0.1346
  534MOL0     H72052   6.431   4.456   5.034 -0.7691 -0.8036 -0.7619
  534MOL0     H72053   6.266   4.394   5.056 -2.3888  2.5474 -2.5755
  534MOL0     H72054   5.837   4.457   5.507 -1.1664  0.3419  0.4206
  534MOL0     H72055   5.601   4.482   5.494 -0.5792  0.0981  0.7908
  534MOL0     H72056   5.413   4.814   5.296  2.2563  0.3982 -0.0450
  534MOL0     H72057   5.407   4.718   5.144  0.6386  1.6481  0.0734
  534MOL0     H72058   5.193   4.641   5.206  2.1568 -5.8375  2.0098
  534MOL0     H72059   5.232   4.625   5.373  1.7972  0.0248 -0.2389
  534MOL0     H72060   5.171   4.900   5.245 -2.2371 -0.6728 -0.9208
  534MOL0     H72061   5.193   4.866   5.410 -0.1717  0.9935 -0.0268
  534MOL0     H72062   4.968   4.783   5.214  0.7944 -0.7373 -0.0232
  534MOL0     H72063   4.991   4.706   5.376  2.8132  0.5030  1.0779
  534MOL0     H72064   4.922   4.932   5.472  1.0981  0.0700  0.1358
  534MOL0     H72065   4.806   4.889   5.338 -1.0770  1.2282  2.9394
  534MOL0     H72066   5.033   5.086   5.322  0.5622  1.5277 -4.2301
  534MOL0     H72067   4.966   5.021   5.182  0.0930 -0.5921  0.2009
  534MOL0     H72068   4.778   5.119   5.403 -1.6477 -2.0248 -0.2759
  534MOL0     H72069   4.755   5.068   5.230  1.7151 -2.2866  0.5418
  534MOL0     H72070   4.750   5.330   5.277 -0.6517  1.0265  3.5988
  534MOL0     H72071   4.871   5.280   5.171 -1.6997 -1.5521  0.5423
  534MOL0     H72072   5.637   4.727   5.138  1.4028  1.0954 -0.4135
  534MOL0     H72073   5.882   4.686   5.145 -0.4099  2.7698  1.4505
  534MOL0     H72074   6.172   4.549   5.517  0.2411  0.5426 -0.1278
  534MOL0     H72075   6.392   4.550   5.616 -0.9829  1.1606 -0.1993
  534MOL0     H72076   8.110   5.382   5.352 -2.2864  0.8864  3.9796
  534MOL0     H72077   8.361   5.401   5.290 -1.0391  0.4578 -0.3302
  534MOL0     H72078   8.757   5.228   5.271 -0.9851 -3.2706  1.8512
  534MOL0     H72079   8.966   5.140   5.237 -3.6155 -1.5641 -0.2729
  534MOL0     H72080   9.326   5.052   5.302 -1.4949 -1.9973 -2.8050
  534MOL0     H72081   9.176   5.076   5.235  1.6313 -0.9893 -0.4946
  534MOL0     H72082   9.214   5.332   5.262 -0.0606  0.3659 -0.1294
  534MOL0     H72083   9.297   5.238   5.132  0.0003  1.5273  0.1602
  534MOL0     H72084   9.505   5.228   5.300  2.0356  0.6802  0.8039
  534MOL0     H72085   9.390   5.331   5.391 -1.7327  0.0071 -0.9349
  534MOL0     H72086   9.533   5.486   5.277 -1.4652 -1.4595  1.6430
  534MOL0     H72087   9.386   5.497   5.185  0.0162  0.4774  0.5053
  534MOL0     H72088   9.590   5.324   4.883 -0.3655  0.0583  0.3012
  534MOL0     H72089   9.083   5.261   5.643 -0.3630 -0.9669  0.3292
  534MOL0     H72090   8.853   5.349   5.671 -1.6573 -1.0784 -0.8586
  535MOL0     O72091   9.820   9.263   7.645  0.8378  0.3865 -0.0238
  535MOL0     C72092   9.872   9.152   7.625  0.1369  0.2164 -0.9709
  535MOL0     O72093   9.814   9.053   7.555 -0.2762 -0.0152 -0.1239
  535MOL0     C72094   9.695   9.078   7.485  0.0745  0.1542  0.7319
  535MOL0     C72095   9.701   9.145   7.360 -0.0198 -0.2247 -0.3999
  535MOL0     C72096   9.584   9.177   7.281 -0.6655 -0.2674 -0.4152
  535MOL0     C72097   9.464   9.144   7.346 -0.5567 -0.7363  0.5570
  535MOL0     O72098   9.350   9.184   7.285 -0.0124 -0.0734 -0.1462
  535MOL0     C72099   9.225   9.190   7.357  0.0596 -0.4243  0.3467
  535MOL0     C72100   9.120   9.233   7.252  0.9613 -0.2787  0.5888
  535MOL0     C72101   8.978   9.229   7.291 -0.0454 -0.2677 -0.8394
  535MOL0     C72102   8.959   9.352   7.380  0.5382 -0.8759 -0.2001
  535MOL0     C72103   8.829   9.346   7.464  0.0059  0.3432 -0.1035
  535MOL0     C72104   8.705   9.333   7.371 -0.2629  1.4019 -0.7335
  535MOL0     C72105   8.582   9.370   7.445 -0.2357 -1.2643  0.5690
  535MOL0     C72106   8.552   9.519   7.415  0.1793  0.7559 -0.1378
  535MOL0     N72107   8.659   9.616   7.452  0.6896  0.9402  0.2129
  535MOL0     C72108   8.676   9.649   7.582  0.1427  0.5537  0.4762
  535MOL0     C72109   8.758   9.762   7.569  1.1415  0.1466 -0.3714
  535MOL0     C72110   8.808   9.842   7.685 -0.0852  0.7650  0.3507
  535MOL0     C72111   8.749   9.980   7.684 -0.2757 -0.5595  0.5457
  535MOL0     C72112   8.715  10.046   7.822 -0.4204 -0.3104  0.7538
  535MOL0     C72113   8.608   9.965   7.887 -0.6805 -0.1213 -0.5255
  535MOL0     O72114   8.558  10.057   7.979  0.2225  0.0905  0.2460
  535MOL0     C72115   8.443  10.036   8.053  0.6125 -0.0537  0.1587
  535MOL0     C72116   8.406  10.125   8.151  0.6104 -0.4394 -0.9400
  535MOL0     C72117   8.288  10.119   8.222 -0.2690 -0.6625 -0.7215
  535MOL0     C72118   8.286  10.181   8.353 -0.6311  0.2825 -0.3679
  535MOL0     C72119   8.198  10.017   8.197  0.6913  0.6311 -0.4181
  535MOL0     C72120   8.064  10.002   8.261  0.2157 -0.1807 -0.3866
  535MOL0     O72121   8.031   9.892   8.345  0.0644 -0.7592 -0.2938
  535MOL0     C72122   7.897   9.882   8.384  1.0722  0.5100 -0.7294
  535MOL0     C72123   7.785   9.870   8.305  0.5005 -0.2431 -0.6035
  535MOL0     C72124   7.655   9.866   8.353 -0.4648 -0.4085 -0.5074
  535MOL0     C72125   7.629   9.873   8.488 -0.9141 -0.0139  0.0904
  535MOL0     O72126   7.502   9.853   8.524  0.0033  0.0822 -0.1877
  535MOL0     C72127   7.458   9.910   8.648  0.4040 -0.1588  0.8467
  535MOL0     C72128   7.314   9.936   8.636  0.4135  0.0731  0.3887
  535MOL0     C72129   7.258  10.018   8.754 -0.2841 -0.4309 -0.2373
  535MOL0     C72130   7.124  10.090   8.714  0.0587  0.1629 -0.1052
  535MOL0     C72131   7.063  10.159   8.839  0.0950 -0.7110  0.0287
  535MOL0     C72132   6.929  10.225   8.802 -0.4539  0.0727  0.1820
  535MOL0     C72133   6.882  10.301   8.923 -0.0047  0.0974  0.0333
  535MOL0     C72134   6.757  10.372   8.886 -0.4841  0.4143  0.4693
  535MOL0    Cl72135   6.617  10.253   8.873 -0.4505 -0.3290 -0.4630
  535MOL0     C72136   7.740   9.884   8.578  0.8165 -0.0110  0.3907
  535MOL0     C72137   7.872   9.890   8.519  0.1828  0.1126 -0.3186
  535MOL0     O72138   7.996  10.099   8.233  0.0868  0.6578  0.7870
  535MOL0     C72139   8.235   9.926   8.098  0.2846 -0.0773  0.9749
  535MOL0     C72140   8.352   9.938   8.023  0.1133 -0.4034 -0.1041
  535MOL0     N72141   8.801   9.769   7.439 -0.1151  0.1033 -0.1725
  535MOL0     N72142   8.734   9.690   7.370  0.6959 -0.2917  0.9503
  535MOL0     C72143   9.464   9.073   7.467 -0.1805  0.3593  0.5899
  535MOL0     C72144   9.582   9.040   7.536  0.2074  0.8433  0.1095
  535MOL0     C72145  10.012   9.139   7.666  0.9944  0.5477 -0.3141
  535MOL0     C72146  10.059   9.223   7.771 -0.5597  0.1655  0.2554
  535MOL0     C72147  10.190   9.228   7.813 -0.4037  0.0579  0.1839
  535MOL0     C72148  10.278   9.133   7.753 -0.3946 -0.4312 -0.5311
  535MOL0     O72149  10.409   9.136   7.805  0.6651 -0.5595  1.0139
  535MOL0     C72150  10.506   9.044   7.756 -0.5477 -0.3805  0.1856
  535MOL0     C72151  10.578   9.089   7.626  0.0008  0.3441 -0.4017
  535MOL0     C72152  10.721   9.040   7.619  0.3557  0.1123  0.7468
  535MOL0     C72153  10.786   9.092   7.487  0.5890  0.8237  0.7364
  535MOL0     C72154  10.921   9.032   7.481  0.0073  0.3068  0.5530
  535MOL0     C72155  11.028   8.981   7.443  0.2601  0.2718 -0.5765
  535MOL0     C72156  10.233   9.056   7.651  0.3673  0.1508  1.1993
  535MOL0     C72157  10.106   9.057   7.603  1.3418 -0.2153 -1.1091
  535MOL0     H72158   9.796   9.170   7.314  1.7942 -0.9307  2.6808
  535MOL0     H72159   9.578   9.233   7.188  3.7614 -0.5814 -1.0691
  535MOL0     H72160   9.193   9.093   7.395 -3.7606  1.3899  2.3433
  535MOL0     H72161   9.226   9.260   7.441 -3.6169  1.3541 -0.8765
  535MOL0     H72162   9.136   9.331   7.207 -1.9612 -0.5155 -1.2645
  535MOL0     H72163   9.123   9.164   7.167 -1.0437  0.7702 -0.4008
  535MOL0     H72164   8.918   9.248   7.202 -0.1977  0.6985 -0.5424
  535MOL0     H72165   8.938   9.142   7.343  0.2375 -0.0015 -0.1576
  535MOL0     H72166   9.038   9.364   7.454  0.0378 -0.6098  0.3076
  535MOL0     H72167   8.945   9.442   7.319 -0.7099  1.1708  2.8415
  535MOL0     H72168   8.825   9.263   7.535 -0.0958 -1.8150 -2.5204
  535MOL0     H72169   8.835   9.438   7.523 -1.4433  1.0856 -1.0574
  535MOL0     H72170   8.711   9.393   7.280  0.8495  3.1297  0.4221
  535MOL0     H72171   8.708   9.230   7.336  2.3869  1.3357 -0.5029
  535MOL0     H72172   8.503   9.305   7.405 -1.6482  0.9671 -0.5297
  535MOL0     H72173   8.582   9.354   7.553 -1.7817 -0.7566  0.6785
  535MOL0     H72174   8.457   9.544   7.462  2.3355  2.0911  4.0261
  535MOL0     H72175   8.543   9.529   7.306 -1.1083 -0.8562 -0.2160
  535MOL0     H72176   8.636   9.602   7.671  1.9357 -1.0359  0.5190
  535MOL0     H72177   8.791   9.785   7.777 -4.1733  1.4064  0.1839
  535MOL0     H72178   8.916   9.855   7.674  0.0504 -0.3155  0.3090
  535MOL0     H72179   8.657   9.966   7.627 -0.0323 -2.5084  0.5433
  535MOL0     H72180   8.816  10.046   7.628  0.3457 -1.0718  0.6638
  535MOL0     H72181   8.680  10.147   7.798  1.5877  0.1542 -0.4708
  535MOL0     H72182   8.803  10.049   7.888 -0.4745 -1.7191  0.9246
  535MOL0     H72183   8.646   9.871   7.927  0.6921  0.7619  0.3133
  535MOL0     H72184   8.532   9.935   7.813  0.0244  0.8940 -1.6962
  535MOL0     H72185   8.482  10.190   8.194  0.4424  0.5171 -2.0549
  535MOL0     H72186   8.211  10.260   8.351 -0.4913  0.4270 -3.2934
  535MOL0     H72187   8.267  10.103   8.428 -1.6260 -0.7401 -1.6387
  535MOL0     H72188   8.383  10.226   8.376 -0.3837 -0.5931  0.4015
  535MOL0     H72189   7.804   9.865   8.198  3.1664 -1.3755 -0.1680
  535MOL0     H72190   7.573   9.857   8.282  0.3992 -1.1165 -1.4392
  535MOL0     H72191   7.482   9.846   8.733  1.8962  0.5840  1.0139
  535MOL0     H72192   7.505  10.008   8.660 -0.7114  0.3598  1.1145
  535MOL0     H72193   7.302   9.995   8.545  5.8095  2.6318  0.9496
  535MOL0     H72194   7.255   9.844   8.633  0.2672  0.1733  0.1578
  535MOL0     H72195   7.329  10.087   8.800 -0.0348 -0.2632 -0.8675
  535MOL0     H72196   7.241   9.949   8.838 -0.8904  1.0290  0.8933
  535MOL0     H72197   7.135  10.166   8.636  1.0491 -0.0713 -0.2154
  535MOL0     H72198   7.046  10.025   8.674  0.1551 -0.4582  0.7036
  535MOL0     H72199   7.123  10.231   8.896 -2.2861  1.2207  0.2671
  535MOL0     H72200   7.040  10.073   8.902  1.4988 -1.2701 -0.1934
  535MOL0     H72201   6.945  10.282   8.710 -2.5272  0.5374  0.0762
  535MOL0     H72202   6.859  10.142   8.791 -1.1084  0.1025  3.2820
  535MOL0     H72203   6.954  10.380   8.947 -0.6410  0.0025  2.6015
  535MOL0     H72204   6.863  10.234   9.008 -0.9303 -0.8417 -0.8785
  535MOL0     H72205   6.773  10.422   8.790  1.2225  1.7158  1.3795
  535MOL0     H72206   6.722  10.444   8.960  0.2241  2.7461 -1.3281
  535MOL0     H72207   7.725   9.865   8.684 -0.4352 -0.6825  0.1142
  535MOL0     H72208   7.962   9.896   8.580 -0.9871 -0.3620  1.5391
  535MOL0     H72209   8.165   9.846   8.076  0.0109 -0.4210  2.8776
  535MOL0     H72210   8.372   9.852   7.960  1.3733 -0.1591 -0.0592
  535MOL0     H72211   9.376   9.054   7.528  0.4577 -2.3824  0.7753
  535MOL0     H72212   9.587   8.990   7.632 -0.2985  2.1598  0.8495
  535MOL0     H72213   9.989   9.289   7.820 -2.2062 -0.7053 -0.8366
  535MOL0     H72214  10.225   9.307   7.878 -2.2216  1.6464 -0.6837
  535MOL0     H72215  10.581   9.035   7.835  0.8269 -1.0630 -1.1399
  535MOL0     H72216  10.468   8.943   7.741 -1.1794 -0.7801  3.5514
  535MOL0     H72217  10.573   9.199   7.623  0.1583  0.3497 -0.4650
  535MOL0     H72218  10.518   9.045   7.546  1.0620 -1.4452 -0.2708
  535MOL0     H72219  10.716   8.931   7.615  0.2305  0.0976  1.2636
  535MOL0     H72220  10.781   9.060   7.708  1.8114 -2.1271  0.3244
  535MOL0     H72221  10.793   9.201   7.496 -1.8038  1.0954 -0.0812
  535MOL0     H72222  10.731   9.062   7.398  1.1674 -0.3659  0.7555
  535MOL0     H72223  11.121   8.931   7.426 -0.3047  0.0606 -3.5223
  535MOL0     H72224  10.297   8.982   7.603 -1.5008  1.3989 -3.9574
  535MOL0     H72225  10.078   8.994   7.518  0.5330 -1.3261 -0.0512
  536MOL0     O72226   4.550   5.695  10.763 -0.9923  0.2885  0.6157
  536MOL0     C72227   4.649   5.724  10.695 -0.7602 -0.0321  0.0353
  536MOL0     O72228   4.662   5.833  10.619  0.5184  0.3190  0.6097
  536MOL0     C72229   4.566   5.929  10.646 -0.6192 -0.1736 -0.3128
  536MOL0     C72230   4.582   6.039  10.736 -0.1701 -0.1221  0.4869
  536MOL0     C72231   4.480   6.130  10.754  0.3386 -0.0975 -0.1657
  536MOL0     C72232   4.353   6.106  10.692  0.3001 -0.1788 -0.1251
  536MOL0     O72233   4.243   6.188  10.707 -0.7238  0.2358  0.1953
  536MOL0     C72234   4.260   6.332  10.735 -0.3534  0.4008 -0.7214
  536MOL0     C72235   4.128   6.405  10.740  0.0559  0.5801  0.0906
  536MOL0     C72236   4.042   6.353  10.851  0.0099  0.4071 -0.3731
  536MOL0     C72237   3.917   6.436  10.853  0.2771  0.4848 -0.4459
  536MOL0     C72238   3.836   6.416  10.992 -0.4061  0.4236  0.6777
  536MOL0     C72239   3.896   6.502  11.101  0.6601  1.0401 -0.0833
  536MOL0     C72240   3.802   6.494  11.222 -0.4386  0.1253 -0.1426
  536MOL0     C72241   3.886   6.539  11.343 -0.7702  0.2195 -0.2439
  536MOL0     N72242   3.825   6.527  11.473  0.4186 -0.8988  0.8975
  536MOL0     C72243   3.740   6.429  11.521 -0.3896 -0.6925 -0.3231
  536MOL0     C72244   3.731   6.453  11.656  0.3641  0.6631  0.3815
  536MOL0     C72245   3.651   6.369  11.751  0.7275 -0.3318  0.6500
  536MOL0     C72246   3.530   6.441  11.814  0.6430 -0.4370 -0.1570
  536MOL0     C72247   3.440   6.335  11.882 -0.4602 -0.1520 -0.0783
  536MOL0     C72248   3.330   6.386  11.976 -0.1480  0.4639  0.7323
  536MOL0     O72249   3.246   6.480  11.914 -0.1804  0.4305  0.1151
  536MOL0     C72250   3.112   6.460  11.909 -0.1723 -0.3695 -1.3061
  536MOL0     C72251   3.040   6.403  12.015  0.8266  0.1492  0.1650
  536MOL0     C72252   2.900   6.420  12.016  0.6061 -0.7533 -0.3173
  536MOL0     C72253   2.837   6.354  12.142  0.3186 -1.2012  0.0276
  536MOL0     C72254   2.825   6.474  11.905  0.0471 -0.2140 -0.3102
  536MOL0     C72255   2.674   6.486  11.894 -0.6845  0.3062  0.7742
  536MOL0     O72256   2.629   6.574  11.806 -0.2014  0.0666  0.4608
  536MOL0     C72257   2.506   6.561  11.744  0.7026  0.0787  0.2044
  536MOL0     C72258   2.390   6.585  11.811 -0.5033  0.6639 -0.6812
  536MOL0     C72259   2.268   6.580  11.746  0.0988  0.7460  0.1120
  536MOL0     C72260   2.254   6.544  11.610 -0.5072  0.4569 -0.4075
  536MOL0     O72261   2.137   6.520  11.544  0.0622 -0.1765  0.0044
  536MOL0     C72262   2.026   6.467  11.620  0.7332  0.2515 -0.3891
  536MOL0     C72263   1.928   6.440  11.513  0.8911 -0.6434  1.1754
  536MOL0     C72264   1.794   6.380  11.569 -0.5413 -0.0479  0.9844
  536MOL0     C72265   1.702   6.340  11.453  0.7283 -0.8810  0.2175
  536MOL0     C72266   1.554   6.318  11.496 -0.7687  0.3711 -0.3456
  536MOL0     C72267   1.472   6.264  11.380 -0.1636 -0.0502  0.2978
  536MOL0     C72268   1.330   6.233  11.413  0.4179  0.2251  0.8753
  536MOL0     C72269   1.235   6.200  11.293 -0.0903  0.2650  0.0348
  536MOL0    Cl72270   1.264   6.313  11.159 -0.2655 -0.3518 -0.6812
  536MOL0     C72271   2.368   6.527  11.540  0.0145 -1.5353 -0.8875
  536MOL0     C72272   2.494   6.525  11.608  0.4376  0.0480 -0.6227
  536MOL0     O72273   2.610   6.402  11.960 -0.1874 -0.7092  0.1231
  536MOL0     C72274   2.906   6.526  11.796 -0.7492  0.8315  0.2297
  536MOL0     C72275   3.047   6.520  11.802 -0.8543 -0.2253 -0.7004
  536MOL0     N72276   3.797   6.576  11.684 -0.0611  0.7624 -0.4583
  536MOL0     N72277   3.846   6.615  11.570 -0.9870 -0.1590 -0.5139
  536MOL0     C72278   4.336   5.989  10.618 -0.5756 -0.3588 -0.4442
  536MOL0     C72279   4.439   5.902  10.598  0.8018  0.2878  0.2087
  536MOL0     C72280   4.758   5.634  10.694  0.7396 -0.7947 -0.7803
  536MOL0     C72281   4.892   5.687  10.681  0.1610  0.7069 -0.2496
  536MOL0     C72282   4.997   5.603  10.712 -0.1182  0.9173  0.1631
  536MOL0     C72283   4.978   5.466  10.739  0.1964 -0.0729 -1.2657
  536MOL0     O72284   5.079   5.374  10.753  0.8391 -0.0031  0.2722
  536MOL0     C72285   5.220   5.412  10.739  0.7670  1.1708  0.4774
  536MOL0     C72286   5.311   5.293  10.796  0.5760  0.1398  0.0844
  536MOL0     C72287   5.459   5.335  10.813 -0.8230  0.4488 -0.3449
  536MOL0     C72288   5.559   5.215  10.768 -0.3599  0.6210 -0.6208
  536MOL0     C72289   5.563   5.113  10.879  0.3594 -0.1582 -0.2149
  536MOL0     C72290   5.552   5.028  10.964 -0.2878  0.0936 -0.3957
  536MOL0     C72291   4.851   5.406  10.730 -0.6066 -0.2773 -0.2073
  536MOL0     C72292   4.743   5.492  10.712  0.4305  0.7188 -0.2858
  536MOL0     H72293   4.682   6.054  10.776 -0.7288  0.6992  1.6116
  536MOL0     H72294   4.507   6.205  10.828  2.3864 -1.0336  0.1045
  536MOL0     H72295   4.303   6.337  10.836 -1.3298  0.3936 -0.2888
  536MOL0     H72296   4.324   6.379  10.660  0.1984 -0.3988 -0.7684
  536MOL0     H72297   4.157   6.511  10.745 -0.2740  0.6145  2.0098
  536MOL0     H72298   4.084   6.391  10.640  0.4187 -0.9792  0.1322
  536MOL0     H72299   4.012   6.251  10.824 -3.9045  0.8403  1.5308
  536MOL0     H72300   4.087   6.351  10.951 -0.4778 -0.1701 -0.1597
  536MOL0     H72301   3.944   6.540  10.831 -0.5883  0.5529 -1.2193
  536MOL0     H72302   3.852   6.392  10.777  0.8140  0.4915 -0.9112
  536MOL0     H72303   3.741   6.458  10.959 -0.4716  0.4574  0.9117
  536MOL0     H72304   3.828   6.309  11.014 -2.6519  0.5435  0.7148
  536MOL0     H72305   3.998   6.467  11.120  0.7490  0.2144 -1.8847
  536MOL0     H72306   3.908   6.604  11.064  1.0962  0.8855 -0.3722
  536MOL0     H72307   3.712   6.551  11.198  1.0625  2.0932 -1.4662
  536MOL0     H72308   3.779   6.390  11.246 -0.2942 -0.0319 -0.6642
  536MOL0     H72309   3.917   6.640  11.318  0.7152 -0.6026 -1.9831
  536MOL0     H72310   3.981   6.484  11.340 -0.6723  0.0615  2.8296
  536MOL0     H72311   3.702   6.343  11.467 -0.0363 -0.4996 -0.8817
  536MOL0     H72312   3.624   6.271  11.712  1.9869 -1.5373  2.6174
  536MOL0     H72313   3.712   6.345  11.839 -0.3469 -0.5826  1.3417
  536MOL0     H72314   3.463   6.493  11.745  0.7842 -2.8441 -2.2747
  536MOL0     H72315   3.575   6.515  11.881 -1.0150 -0.1566  0.6993
  536MOL0     H72316   3.493   6.259  11.941  0.5042 -0.1358 -0.9090
  536MOL0     H72317   3.387   6.288  11.798 -0.4025  3.1016 -2.0873
  536MOL0     H72318   3.369   6.419  12.073  0.0223 -1.2774  1.2881
  536MOL0     H72319   3.271   6.296  11.998  0.0399  0.3188  0.6439
  536MOL0     H72320   3.081   6.359  12.105 -0.3528 -1.3490  0.0151
  536MOL0     H72321   2.736   6.394  12.153  0.1737 -1.5790  0.0673
  536MOL0     H72322   2.816   6.250  12.114 -2.5083 -2.0175  4.2476
  536MOL0     H72323   2.897   6.356  12.234 -0.8101 -1.6675  0.8016
  536MOL0     H72324   2.395   6.623  11.912 -0.0468  0.9424 -0.8032
  536MOL0     H72325   2.176   6.599  11.801  0.8614  1.9752  1.0005
  536MOL0     H72326   2.043   6.376  11.678 -1.6483  1.3250  2.2491
  536MOL0     H72327   1.979   6.544  11.682 -1.5061 -2.1150  1.0334
  536MOL0     H72328   1.915   6.535  11.461  1.4762  0.5967  3.1874
  536MOL0     H72329   1.979   6.378  11.438 -1.4159 -0.7725 -0.3889
  536MOL0     H72330   1.739   6.451  11.632 -2.1489 -0.3416 -0.0440
  536MOL0     H72331   1.825   6.293  11.626 -0.7269 -0.5848  0.2813
  536MOL0     H72332   1.693   6.422  11.381 -3.2627  0.2782  1.7750
  536MOL0     H72333   1.732   6.248  11.402  0.0714 -1.7256  1.2986
  536MOL0     H72334   1.522   6.416  11.532 -1.8511 -0.7115  1.8396
  536MOL0     H72335   1.544   6.257  11.587 -0.4400 -0.2273 -0.7011
  536MOL0     H72336   1.469   6.336  11.297 -1.0151  2.6751  2.5268
  536MOL0     H72337   1.537   6.180  11.354  1.4170  1.3692 -0.5289
  536MOL0     H72338   1.287   6.316  11.469  0.7239  0.5143  0.6889
  536MOL0     H72339   1.334   6.149  11.483  1.2704  2.2740  3.4476
  536MOL0     H72340   1.129   6.190  11.315  0.0119 -2.2747 -0.3286
  536MOL0     H72341   1.259   6.099  11.259  2.3635  0.4342  0.9911
  536MOL0     H72342   2.360   6.498  11.436 -1.7514  0.1820 -1.2863
  536MOL0     H72343   2.583   6.511  11.547 -0.1190 -0.7062 -1.2741
  536MOL0     H72344   2.860   6.580  11.714 -0.1516 -0.5882 -1.0881
  536MOL0     H72345   3.102   6.570  11.723  0.2367  4.3116  2.5199
  536MOL0     H72346   4.246   5.960  10.564 -0.5938 -1.1691 -0.0000
  536MOL0     H72347   4.419   5.826  10.524  3.2145  0.4049 -0.6360
  536MOL0     H72348   4.921   5.788  10.651 -0.4299  0.6821 -0.9418
  536MOL0     H72349   5.095   5.647  10.721 -0.3572  1.2806  1.1722
  536MOL0     H72350   5.240   5.435  10.634  0.0323  0.1219  0.0887
  536MOL0     H72351   5.230   5.506  10.795  0.4399  2.6351 -1.7612
  536MOL0     H72352   5.301   5.211  10.724 -3.9062  0.3054  0.2631
  536MOL0     H72353   5.266   5.264  10.891 -0.1678 -2.0003 -0.8550
  536MOL0     H72354   5.487   5.374  10.911  1.5654  0.5978 -1.0380
  536MOL0     H72355   5.476   5.417  10.742  1.8310  1.4357  1.2681
  536MOL0     H72356   5.662   5.248  10.753  0.2895 -1.3929 -0.8840
  536MOL0     H72357   5.524   5.165  10.677 -1.3346 -1.1288  0.6600
  536MOL0     H72358   5.545   4.951  11.038  1.4032 -1.4365 -1.7161
  536MOL0     H72359   4.832   5.302  10.753 -0.2358 -0.2706  0.1442
  536MOL0     H72360   4.641   5.456  10.710  0.2866  1.1093 -2.7996
  537MOL0     O72361   4.152   2.847   2.709  0.2631 -0.6320  0.0256
  537MOL0     C72362   4.209   2.811   2.806  0.0576 -0.0001  0.4691
  537MOL0     O72363   4.167   2.809   2.938  0.5352 -0.3940 -0.1692
  537MOL0     C72364   4.035   2.828   2.956 -0.5909  0.0708  0.3308
  537MOL0     C72365   3.984   2.921   3.047  0.7630 -0.1122  0.2010
  537MOL0     C72366   3.851   2.943   3.063  0.1738  0.4671  0.1751
  537MOL0     C72367   3.755   2.865   2.999  0.2236  0.1310  0.5887
  537MOL0     O72368   3.624   2.875   3.022  0.3482  0.1581  0.3255
  537MOL0     C72369   3.576   2.869   3.156 -1.1697  0.0009  0.5958
  537MOL0     C72370   3.480   2.755   3.157 -0.5313 -0.7860  0.6022
  537MOL0     C72371   3.353   2.793   3.083  0.0214  0.5249 -0.7425
  537MOL0     C72372   3.247   2.685   3.056 -0.6432 -0.4210 -0.4459
  537MOL0     C72373   3.130   2.737   2.985 -0.3410  0.2196  0.4110
  537MOL0     C72374   3.148   2.745   2.823 -0.1679 -0.0161 -0.7796
  537MOL0     C72375   3.060   2.840   2.739 -0.3658 -0.2022 -0.8516
  537MOL0     C72376   3.059   2.790   2.589 -0.1524  1.1610  0.2623
  537MOL0     N72377   3.021   2.894   2.494  0.4771  0.4239 -0.2275
  537MOL0     C72378   3.076   3.020   2.478  0.8575 -0.1310 -0.0627
  537MOL0     C72379   3.008   3.076   2.372  1.2356  0.1199  0.8716
  537MOL0     C72380   3.027   3.217   2.312  0.6414  0.2459  0.5531
  537MOL0     C72381   3.126   3.211   2.192 -0.2976 -0.3085  0.2320
  537MOL0     C72382   3.281   3.182   2.228  0.2915  0.2645  0.0293
  537MOL0     C72383   3.376   3.216   2.119 -0.8295 -0.0241  0.0632
  537MOL0     O72384   3.512   3.210   2.163  0.2388 -0.8419  0.1253
  537MOL0     C72385   3.609   3.279   2.098 -0.2325  0.0376  0.1922
  537MOL0     C72386   3.607   3.335   1.972 -0.4863 -0.0972  0.7530
  537MOL0     C72387   3.726   3.387   1.910 -0.3674 -0.9224 -0.2506
  537MOL0     C72388   3.715   3.423   1.764 -0.9230  0.7977  0.3170
  537MOL0     C72389   3.846   3.401   1.987 -0.0209  0.3072  0.4111
  537MOL0     C72390   3.968   3.468   1.942  0.4540 -0.0948  0.0052
  537MOL0     O72391   4.080   3.453   2.031 -0.4239  0.9451 -0.6013
  537MOL0     C72392   4.184   3.529   1.987 -0.6593 -0.8040  1.4961
  537MOL0     C72393   4.300   3.466   1.940  0.3633  0.0765  1.1313
  537MOL0     C72394   4.407   3.537   1.898 -0.0154  0.3918  0.0035
  537MOL0     C72395   4.406   3.674   1.901 -0.0701  0.7588 -0.8903
  537MOL0     O72396   4.515   3.735   1.840 -0.3743 -0.6865 -0.2773
  537MOL0     C72397   4.553   3.850   1.911 -0.1863  0.4352 -0.4012
  537MOL0     C72398   4.684   3.907   1.861  0.3116 -0.3737 -0.6957
  537MOL0     C72399   4.799   3.798   1.876 -0.2277  0.0346  0.3315
  537MOL0     C72400   4.926   3.835   1.798  0.1943  0.8448  0.3235
  537MOL0     C72401   5.041   3.735   1.825 -0.7479  0.4059  0.0785
  537MOL0     C72402   5.125   3.738   1.698  0.2498 -0.2845 -0.2417
  537MOL0     C72403   5.262   3.667   1.711 -0.3977 -0.5419  0.9023
  537MOL0     C72404   5.332   3.643   1.569 -0.4477 -0.3404  0.4474
  537MOL0    Cl72405   5.231   3.549   1.443 -0.1115 -0.4135  0.5641
  537MOL0     C72406   4.290   3.740   1.942 -0.4936  0.2596 -0.7868
  537MOL0     C72407   4.183   3.666   1.996  0.0211 -0.7601  0.0507
  537MOL0     O72408   3.964   3.539   1.842  0.3569  0.0771 -0.3675
  537MOL0     C72409   3.839   3.349   2.115 -0.2445  0.2553 -0.2186
  537MOL0     C72410   3.728   3.292   2.162 -0.2759  0.0495  0.4323
  537MOL0     N72411   2.907   2.981   2.335  0.8617  0.0722 -0.1797
  537MOL0     N72412   2.914   2.881   2.409  0.9594  0.2695  0.3763
  537MOL0     C72413   3.805   2.769   2.907 -0.1221 -0.3906  0.4677
  537MOL0     C72414   3.941   2.749   2.888  0.0522  0.1401  0.1122
  537MOL0     C72415   4.352   2.768   2.797 -0.5015 -0.0447 -0.0306
  537MOL0     C72416   4.429   2.817   2.688  0.6194 -0.3561 -0.5640
  537MOL0     C72417   4.558   2.773   2.680 -0.3525  0.4330  0.6205
  537MOL0     C72418   4.616   2.674   2.760 -0.4860  0.2851  0.2354
  537MOL0     O72419   4.752   2.631   2.755  0.3942 -0.0624  0.5843
  537MOL0     C72420   4.851   2.730   2.796  0.2166 -0.2800  0.5190
  537MOL0     C72421   4.847   2.755   2.951  0.3343 -0.0026  0.1291
  537MOL0     C72422   4.878   2.627   3.039 -0.0493 -0.2996 -0.4713
  537MOL0     C72423   4.953   2.646   3.164  0.8460  0.5698 -0.1047
  537MOL0     C72424   4.894   2.748   3.248  0.4431  0.0697 -0.5769
  537MOL0     C72425   4.839   2.828   3.316  0.3196 -0.2580  0.5872
  537MOL0     C72426   4.530   2.617   2.861 -0.1644  0.5051  0.1445
  537MOL0     C72427   4.405   2.674   2.886  0.3652 -0.4210  0.1729
  537MOL0     H72428   4.073   2.966   3.090  2.6106 -2.6952 -0.6664
  537MOL0     H72429   3.808   3.014   3.134  1.5946 -0.7176  2.3175
  537MOL0     H72430   3.655   2.850   3.229 -2.5576 -2.6704  1.5448
  537MOL0     H72431   3.528   2.963   3.185 -1.7884 -0.3095  0.5905
  537MOL0     H72432   3.518   2.663   3.111  1.0224  0.4451 -0.7049
  537MOL0     H72433   3.459   2.733   3.262  0.3745 -0.4198  0.8644
  537MOL0     H72434   3.304   2.869   3.145 -0.7532  0.1226 -0.8487
  537MOL0     H72435   3.384   2.844   2.992  3.9840  0.2517  0.2842
  537MOL0     H72436   3.296   2.598   3.012 -0.4374 -0.9837  0.8377
  537MOL0     H72437   3.216   2.641   3.151  0.6569 -1.0864 -0.3050
  537MOL0     H72438   3.047   2.675   3.018  0.2292  0.3558  2.1841
  537MOL0     H72439   3.112   2.839   3.018  0.5407  0.9232 -1.1266
  537MOL0     H72440   3.254   2.772   2.813 -0.9715  3.6690 -0.6116
  537MOL0     H72441   3.137   2.642   2.788 -0.1519  0.1714 -1.3426
  537MOL0     H72442   2.961   2.852   2.784 -0.0692 -2.7283  0.6746
  537MOL0     H72443   3.119   2.932   2.739  1.0429 -1.0620 -1.8683
  537MOL0     H72444   3.004   2.697   2.580  1.3066  0.0091  2.3386
  537MOL0     H72445   3.161   2.764   2.559 -0.5572 -0.5470  0.2836
  537MOL0     H72446   3.149   3.066   2.543 -0.2257  0.2339  0.9327
  537MOL0     H72447   2.927   3.246   2.279  1.1837  0.6045 -0.8615
  537MOL0     H72448   3.059   3.293   2.383 -2.5803  0.5092  1.9156
  537MOL0     H72449   3.123   3.308   2.143  1.0063 -0.9757 -1.2656
  537MOL0     H72450   3.078   3.137   2.127 -1.3613 -0.0558  0.7058
  537MOL0     H72451   3.300   3.080   2.264 -1.2665  0.7117  2.4042
  537MOL0     H72452   3.295   3.258   2.306 -0.1665  0.2462  0.1336
  537MOL0     H72453   3.355   3.317   2.083  2.7232  1.0536  0.5899
  537MOL0     H72454   3.367   3.145   2.036  1.9559  3.4442 -3.6308
  537MOL0     H72455   3.521   3.320   1.907  1.0654  1.6705 -1.9143
  537MOL0     H72456   3.715   3.532   1.749  2.0953  0.5935 -2.0395
  537MOL0     H72457   3.805   3.387   1.714 -2.6592 -2.1368 -0.9481
  537MOL0     H72458   3.625   3.376   1.724 -1.2712 -0.8572  2.8092
  537MOL0     H72459   4.290   3.359   1.925 -1.8196  0.6877 -4.1075
  537MOL0     H72460   4.485   3.476   1.854 -1.9942 -1.0126 -1.7757
  537MOL0     H72461   4.481   3.931   1.904 -0.2822  0.2233 -4.3449
  537MOL0     H72462   4.578   3.817   2.012 -1.6568 -0.1583 -0.2142
  537MOL0     H72463   4.669   3.925   1.754 -3.0580  0.0333 -0.2603
  537MOL0     H72464   4.714   3.999   1.912 -0.4886  0.5736 -1.8642
  537MOL0     H72465   4.770   3.696   1.851 -2.1881 -0.0795  2.7468
  537MOL0     H72466   4.814   3.799   1.984 -4.0476  1.3696  1.0156
  537MOL0     H72467   4.894   3.833   1.694 -0.0830  3.4280  0.3043
  537MOL0     H72468   4.957   3.934   1.832 -0.2190  0.2928  2.4735
  537MOL0     H72469   5.003   3.637   1.856 -2.3101  1.2032  0.7587
  537MOL0     H72470   5.111   3.776   1.899  1.2582 -0.1445 -1.4107
  537MOL0     H72471   5.070   3.683   1.620 -1.5974 -0.8398  1.3623
  537MOL0     H72472   5.123   3.839   1.657 -0.6345  0.9801  2.6526
  537MOL0     H72473   5.260   3.566   1.752  0.7466 -1.4321 -1.0929
  537MOL0     H72474   5.327   3.720   1.782 -1.1894  0.9886  0.5247
  537MOL0     H72475   5.418   3.578   1.589 -0.1053 -0.7636 -2.0100
  537MOL0     H72476   5.379   3.732   1.527 -1.3186 -0.3498 -0.5673
  537MOL0     H72477   4.275   3.847   1.933  2.5642  0.9703  1.1458
  537MOL0     H72478   4.093   3.722   2.020  1.2626  0.6567  1.6928
  537MOL0     H72479   3.922   3.351   2.184 -0.3934 -0.7433  0.0029
  537MOL0     H72480   3.733   3.259   2.265 -0.6903  1.1422  0.8234
  537MOL0     H72481   3.734   2.706   2.854 -1.5540  0.9982  0.6494
  537MOL0     H72482   3.966   2.671   2.816  0.5547  0.9948 -0.6476
  537MOL0     H72483   4.393   2.901   2.628 -1.7707  1.4108  2.9876
  537MOL0     H72484   4.633   2.805   2.608  0.0730 -2.3835 -0.3356
  537MOL0     H72485   4.944   2.689   2.756 -1.3302 -2.2016 -1.3676
  537MOL0     H72486   4.843   2.824   2.740  3.3685  0.4210  1.0541
  537MOL0     H72487   4.747   2.797   2.967 -0.3038 -0.6196 -1.8598
  537MOL0     H72488   4.923   2.831   2.971  2.0010 -0.9057 -2.2697
  537MOL0     H72489   4.932   2.556   2.975  3.8240  1.7983  0.1385
  537MOL0     H72490   4.779   2.582   3.054 -1.1198  1.4207 -1.9412
  537MOL0     H72491   5.057   2.664   3.136  0.5690  0.3666 -1.3317
  537MOL0     H72492   4.930   2.552   3.215 -4.4976  1.2527 -0.6819
  537MOL0     H72493   4.787   2.901   3.374 -1.3182  1.1938 -2.4384
  537MOL0     H72494   4.569   2.538   2.924  0.7967  2.1497  1.7253
  537MOL0     H72495   4.341   2.639   2.967 -1.3946 -3.6286 -2.3817
  538MOL0     O72496   4.345   6.068   0.661 -0.1510  0.6576 -0.0115
  538MOL0     C72497   4.419   5.980   0.699  0.3085  0.1002 -0.8854
  538MOL0     O72498   4.381   5.864   0.785 -0.0021  0.1557  0.3479
  538MOL0     C72499   4.249   5.855   0.820 -0.0211 -0.4343 -0.7486
  538MOL0     C72500   4.185   5.737   0.775 -0.1382 -0.3724  0.0656
  538MOL0     C72501   4.063   5.706   0.806 -0.1348  0.3396 -0.1246
  538MOL0     C72502   4.001   5.774   0.910  0.7201 -0.6294  0.5143
  538MOL0     O72503   3.878   5.725   0.947 -0.3528  0.1731 -0.4300
  538MOL0     C72504   3.856   5.744   1.091  0.0790  0.7479  0.2005
  538MOL0     C72505   3.731   5.658   1.131  0.1009  0.3059  0.3357
  538MOL0     C72506   3.774   5.510   1.149  0.2568 -0.6642  0.3795
  538MOL0     C72507   3.656   5.423   1.195 -0.1902  0.8732  0.6546
  538MOL0     C72508   3.661   5.287   1.124  0.2160  0.1586 -0.3003
  538MOL0     C72509   3.778   5.200   1.158  0.2849 -0.3251 -0.4408
  538MOL0     C72510   3.804   5.096   1.050 -0.2197  0.1437 -0.2459
  538MOL0     C72511   3.677   5.015   1.016 -0.3966  0.2726  0.0889
  538MOL0     N72512   3.731   4.885   0.962 -0.0131 -0.5153 -0.2607
  538MOL0     C72513   3.793   4.782   1.026 -0.1738  0.1682  0.1559
  538MOL0     C72514   3.837   4.701   0.924  0.6873 -0.3181  0.3192
  538MOL0     C72515   3.909   4.571   0.943 -0.3081  0.2664  0.2007
  538MOL0     C72516   3.993   4.586   1.074 -0.0167 -0.1168  0.2423
  538MOL0     C72517   4.095   4.468   1.058 -0.1562  0.9997  0.7539
  538MOL0     C72518   4.205   4.495   1.162 -0.4175  0.0214 -1.0052
  538MOL0     O72519   4.272   4.614   1.122  0.2992 -0.5041  0.0918
  538MOL0     C72520   4.397   4.610   1.076  0.4076 -0.7811  0.1782
  538MOL0     C72521   4.478   4.720   1.111  0.7964  0.5103 -0.2205
  538MOL0     C72522   4.610   4.725   1.079  0.8996  0.1296 -1.5410
  538MOL0     C72523   4.686   4.847   1.124  0.5135 -1.3681 -0.1345
  538MOL0     C72524   4.666   4.632   0.990 -0.3475 -0.0597 -0.0736
  538MOL0     C72525   4.789   4.642   0.907  1.3678  0.0997 -0.3681
  538MOL0     O72526   4.860   4.533   0.868 -0.0276 -0.5355  0.3622
  538MOL0     C72527   4.965   4.536   0.781 -0.7886  0.5023  0.4833
  538MOL0     C72528   4.958   4.618   0.660  0.0360 -0.3193 -0.1298
  538MOL0     C72529   5.070   4.624   0.578  0.0718 -0.4177 -0.0128
  538MOL0     C72530   5.186   4.549   0.598  0.8445  0.1167 -0.6838
  538MOL0     O72531   5.286   4.572   0.509  0.6343  0.0132  0.7860
  538MOL0     C72532   5.418   4.537   0.538  0.0283  0.4737 -0.3034
  538MOL0     C72533   5.500   4.612   0.431 -0.5478 -0.2750 -0.7568
  538MOL0     C72534   5.648   4.588   0.447  0.4971  0.3213  0.3268
  538MOL0     C72535   5.719   4.614   0.316  0.4074 -0.3762 -0.5318
  538MOL0     C72536   5.873   4.580   0.320  1.1912 -0.4636  0.4428
  538MOL0     C72537   5.926   4.552   0.173  0.2351  0.0435 -0.2431
  538MOL0     C72538   6.073   4.525   0.173 -0.3103  0.5100 -0.3146
  538MOL0     C72539   6.101   4.383   0.202  0.2428  0.2610 -0.3484
  538MOL0    Cl72540   6.265   4.365   0.150  0.0332  0.0129  0.1120
  538MOL0     C72541   5.186   4.453   0.704 -0.2021 -0.5067 -0.5408
  538MOL0     C72542   5.078   4.458   0.799 -0.4605  0.1311  0.0635
  538MOL0     O72543   4.825   4.758   0.894 -0.4939 -0.6615  0.7639
  538MOL0     C72544   4.588   4.526   0.954  0.0052 -0.0277  0.5221
  538MOL0     C72545   4.454   4.506   0.998  0.5972 -0.2746  0.3634
  538MOL0     N72546   3.820   4.779   0.804 -0.2075 -0.3318 -0.1339
  538MOL0     N72547   3.739   4.878   0.829 -0.1714  0.1398 -0.4878
  538MOL0     C72548   4.056   5.895   0.950 -0.9995 -1.0193  0.3594
  538MOL0     C72549   4.183   5.937   0.910 -0.3217  0.2033 -0.8147
  538MOL0     C72550   4.563   6.005   0.680  0.2588  0.1465  0.1140
  538MOL0     C72551   4.626   6.134   0.686 -0.6665  1.1802 -0.5327
  538MOL0     C72552   4.757   6.156   0.650 -0.3302 -0.2576  0.3546
  538MOL0     C72553   4.843   6.052   0.618 -0.8513  0.0855 -0.4988
  538MOL0     O72554   4.965   6.066   0.565 -0.1317  0.1990  0.3015
  538MOL0     C72555   5.062   6.127   0.652  0.0315  0.0737 -0.7532
  538MOL0     C72556   5.099   6.268   0.607  0.6245 -0.6045 -0.1025
  538MOL0     C72557   5.192   6.349   0.709 -0.0278 -0.1613  0.4609
  538MOL0     C72558   5.336   6.371   0.655 -0.9274  0.3902  0.2708
  538MOL0     C72559   5.402   6.250   0.605  0.3849  0.3816  1.3320
  538MOL0     C72560   5.449   6.143   0.560  0.2935  0.0556 -1.2865
  538MOL0     C72561   4.790   5.923   0.627 -1.0611 -0.2983 -0.2332
  538MOL0     C72562   4.660   5.899   0.659  0.6915  0.4920 -0.0745
  538MOL0     H72563   4.238   5.673   0.705  1.9919  0.9937  0.3182
  538MOL0     H72564   4.023   5.618   0.757  0.9095  1.2980 -2.9094
  538MOL0     H72565   3.950   5.713   1.137  0.6287 -2.0426 -2.4513
  538MOL0     H72566   3.839   5.847   1.123 -0.1906  0.1923  1.9569
  538MOL0     H72567   3.697   5.700   1.227  2.9477  0.2109  1.4998
  538MOL0     H72568   3.656   5.673   1.054 -2.2721  1.7465  2.7602
  538MOL0     H72569   3.819   5.473   1.057  0.6813 -0.7928  0.6357
  538MOL0     H72570   3.861   5.497   1.214  0.7848 -4.0999 -0.8094
  538MOL0     H72571   3.668   5.413   1.303  2.1748 -2.3832  0.2225
  538MOL0     H72572   3.563   5.477   1.176  0.0377  1.4578  1.1599
  538MOL0     H72573   3.570   5.239   1.162  0.4150 -1.6651 -1.9931
  538MOL0     H72574   3.646   5.302   1.017 -1.7646 -0.9428 -0.2335
  538MOL0     H72575   3.865   5.267   1.153 -0.0325  0.0605 -4.4903
  538MOL0     H72576   3.769   5.164   1.261  1.8434  0.0949 -0.1257
  538MOL0     H72577   3.847   5.135   0.958 -1.9003 -0.6641 -1.4257
  538MOL0     H72578   3.885   5.037   1.094 -2.6266  0.0446  4.7687
  538MOL0     H72579   3.612   5.061   0.941  0.0591 -1.3541 -1.3511
  538MOL0     H72580   3.622   4.991   1.107  3.0743 -2.1681  1.7403
  538MOL0     H72581   3.789   4.755   1.131 -0.2983 -0.7453 -0.0713
  538MOL0     H72582   3.847   4.481   0.947  0.5141 -0.3016  0.5325
  538MOL0     H72583   3.975   4.557   0.857 -1.1877  0.3793 -0.5011
  538MOL0     H72584   3.933   4.555   1.160  1.5121  0.4293  1.5635
  538MOL0     H72585   4.046   4.682   1.077  4.4094 -2.1104 -3.1140
  538MOL0     H72586   4.133   4.445   0.958  1.2496  0.4172  1.3946
  538MOL0     H72587   4.043   4.381   1.097 -0.2524  1.5260  1.8415
  538MOL0     H72588   4.267   4.405   1.163 -0.1617  0.1874  0.8896
  538MOL0     H72589   4.166   4.516   1.262  3.9685 -1.1627  1.2224
  538MOL0     H72590   4.430   4.798   1.170 -2.4992 -1.9210  0.6031
  538MOL0     H72591   4.784   4.810   1.156  1.3079 -0.1253 -1.0437
  538MOL0     H72592   4.703   4.918   1.043  1.7867 -2.5006 -0.9127
  538MOL0     H72593   4.642   4.907   1.204  0.7562  0.4782 -1.3432
  538MOL0     H72594   4.861   4.663   0.644  0.7635  0.2802 -3.4416
  538MOL0     H72595   5.070   4.698   0.499 -1.0921  0.3853  0.7079
  538MOL0     H72596   5.439   4.570   0.640  0.0564  0.8370 -0.4229
  538MOL0     H72597   5.441   4.431   0.531  1.3250  0.6781  0.6658
  538MOL0     H72598   5.470   4.572   0.333 -1.0082 -0.2596 -0.6263
  538MOL0     H72599   5.485   4.719   0.448 -0.0895 -0.5502  1.6559
  538MOL0     H72600   5.664   4.482   0.472  1.4656 -0.8149 -4.1508
  538MOL0     H72601   5.687   4.646   0.531 -0.4420 -0.6790  1.4866
  538MOL0     H72602   5.669   4.549   0.242 -1.1296  1.3539 -1.0990
  538MOL0     H72603   5.708   4.718   0.285  1.4090 -0.0038  0.3218
  538MOL0     H72604   5.885   4.495   0.387 -0.7918  0.0646  1.5563
  538MOL0     H72605   5.917   4.671   0.362 -2.9420  0.9643  2.1928
  538MOL0     H72606   5.868   4.476   0.119 -0.4658  0.1694  0.3175
  538MOL0     H72607   5.915   4.642   0.111  1.6738 -0.0573 -0.6939
  538MOL0     H72608   6.123   4.588   0.247  2.4145  0.0672 -1.6330
  538MOL0     H72609   6.121   4.560   0.081 -0.2257  2.2726  0.3602
  538MOL0     H72610   6.029   4.319   0.150 -1.7476  2.4864 -0.4809
  538MOL0     H72611   6.091   4.367   0.310  1.5505 -1.7623 -0.4647
  538MOL0     H72612   5.263   4.378   0.720 -0.3138 -0.1646  1.8930
  538MOL0     H72613   5.079   4.398   0.890  2.3592  0.0570  0.0938
  538MOL0     H72614   4.633   4.442   0.901  0.0476 -0.9033  1.8832
  538MOL0     H72615   4.400   4.415   0.975 -2.3360  1.8269 -1.7482
  538MOL0     H72616   3.998   5.956   1.019 -1.3727 -1.6673  0.6303
  538MOL0     H72617   4.214   6.039   0.931  4.6940 -1.4801  1.5203
  538MOL0     H72618   4.556   6.214   0.710 -0.8016  0.3296  2.2408
  538MOL0     H72619   4.795   6.257   0.650  4.1531 -1.7066  0.2233
  538MOL0     H72620   5.021   6.137   0.753  2.0982 -0.5802  0.2087
  538MOL0     H72621   5.149   6.062   0.662  0.6659  1.1666  1.9573
  538MOL0     H72622   5.011   6.333   0.604  1.1477  0.0714 -1.8108
  538MOL0     H72623   5.135   6.268   0.504 -3.8163 -0.1667 -1.8664
  538MOL0     H72624   5.192   6.305   0.809 -4.0600  1.5265  1.3979
  538MOL0     H72625   5.159   6.453   0.721  1.4391  0.3308  0.5065
  538MOL0     H72626   5.403   6.418   0.728  0.2069  0.4902 -0.8090
  538MOL0     H72627   5.339   6.443   0.573 -0.2941  1.1089  0.9018
  538MOL0     H72628   5.475   6.042   0.536  0.7915  0.0473 -0.7515
  538MOL0     H72629   4.858   5.839   0.613 -2.0416 -1.1938  0.2175
  538MOL0     H72630   4.610   5.803   0.668  1.3129  0.3528  3.4129
  539MOL0     O72631   0.852  11.026   6.942  0.4753 -0.4550  0.0168
  539MOL0     C72632   0.893  11.087   7.038  0.0526 -0.4133 -0.3369
  539MOL0     O72633   0.875  11.217   7.061 -0.6046  0.1722 -0.3948
  539MOL0     C72634   0.766  11.278   7.007 -0.5011  0.2818  0.6203
  539MOL0     C72635   0.778  11.414   6.980  0.4202  0.1826 -0.6207
  539MOL0     C72636   0.673  11.480   6.914 -0.5889  0.2858  0.2696
  539MOL0     C72637   0.550  11.416   6.875 -0.4693 -0.2214  0.4062
  539MOL0     O72638   0.444  11.466   6.807  0.0328 -0.6668 -0.3100
  539MOL0     C72639   0.471  11.570   6.711 -1.0753  0.5314  0.3407
  539MOL0     C72640   0.435  11.710   6.762 -0.3662 -0.6039 -0.2652
  539MOL0     C72641   0.296  11.714   6.824  0.4348  0.2963 -0.4710
  539MOL0     C72642   0.248  11.852   6.874  0.1788  0.1050  0.6782
  539MOL0     C72643   0.120  11.851   6.950  0.9052  0.1384 -0.8155
  539MOL0     C72644  -0.009  11.772   6.899 -0.1444 -0.2301  1.1674
  539MOL0     C72645  -0.062  11.812   6.763  0.0393  0.0103  0.0032
  539MOL0     C72646  -0.174  11.712   6.718  0.3076  0.4487  0.4085
  539MOL0     N72647  -0.287  11.741   6.802  0.3122  0.1741  0.7641
  539MOL0     C72648  -0.363  11.854   6.802  0.6401  0.9722  0.2024
  539MOL0     C72649  -0.448  11.850   6.910 -0.3096  0.5139 -1.0571
  539MOL0     C72650  -0.532  11.964   6.965  0.1264 -0.2031  0.1434
  539MOL0     C72651  -0.677  11.934   6.929 -0.0520 -0.6956 -0.5616
  539MOL0     C72652  -0.771  12.058   6.971 -0.3026  0.2563  0.0029
  539MOL0     C72653  -0.904  12.035   6.899  0.1396 -0.1722  0.3355
  539MOL0     O72654  -0.970  12.160   6.888 -0.7621  0.0659  0.1826
  539MOL0     C72655  -1.106  12.153   6.885  0.7936  0.1874 -0.0477
  539MOL0     C72656  -1.175  12.268   6.904 -0.5206  0.3620 -0.3103
  539MOL0     C72657  -1.316  12.279   6.915  0.8629 -0.1596  0.0279
  539MOL0     C72658  -1.376  12.414   6.938  0.4016  0.0220 -0.9495
  539MOL0     C72659  -1.393  12.167   6.897  0.1500 -0.2846 -0.1572
  539MOL0     C72660  -1.538  12.169   6.895  0.1917 -0.8820 -0.7847
  539MOL0     O72661  -1.596  12.257   6.807 -0.1981 -0.4483 -0.2628
  539MOL0     C72662  -1.737  12.270   6.806 -0.1731 -1.4209  0.0025
  539MOL0     C72663  -1.796  12.397   6.835 -0.3009 -0.0762 -0.1959
  539MOL0     C72664  -1.938  12.415   6.851  0.7303  0.5896 -0.1103
  539MOL0     C72665  -2.022  12.297   6.821 -0.0894  0.3770 -0.1128
  539MOL0     O72666  -2.157  12.305   6.835 -0.4647 -0.0652  0.3717
  539MOL0     C72667  -2.227  12.391   6.929  0.1759  0.1988 -0.0736
  539MOL0     C72668  -2.365  12.337   6.950  0.1654 -0.1497  0.0473
  539MOL0     C72669  -2.464  12.407   6.859 -0.5522  1.1332  0.7329
  539MOL0     C72670  -2.599  12.345   6.832  0.0097  0.0623 -0.3060
  539MOL0     C72671  -2.679  12.433   6.738  0.1076  0.7021 -0.4846
  539MOL0     C72672  -2.824  12.395   6.750 -0.1237 -0.0870  0.2867
  539MOL0     C72673  -2.911  12.462   6.644 -1.7937 -0.0461 -0.6994
  539MOL0     C72674  -2.937  12.606   6.665 -0.1304 -0.7390 -0.2438
  539MOL0    Cl72675  -3.029  12.674   6.534  0.1830 -0.6803 -0.2546
  539MOL0     C72676  -1.960  12.179   6.777 -0.4986  0.1557 -0.2865
  539MOL0     C72677  -1.823  12.161   6.774 -0.3051 -0.1092 -0.2800
  539MOL0     O72678  -1.595  12.075   6.945 -0.5717  0.5698 -0.3700
  539MOL0     C72679  -1.326  12.046   6.862  0.2507 -1.4034  0.4151
  539MOL0     C72680  -1.185  12.039   6.867  0.7086 -0.2524 -0.2868
  539MOL0     N72681  -0.413  11.735   6.986 -0.0526  0.2102  0.4687
  539MOL0     N72682  -0.325  11.671   6.915 -0.3137 -0.2228 -0.3556
  539MOL0     C72683   0.539  11.286   6.913  0.0677 -0.5112 -0.0425
  539MOL0     C72684   0.635  11.220   6.989  0.3973 -0.8755 -0.3247
  539MOL0     C72685   0.997  11.029   7.119  0.1952  0.3715 -0.4329
  539MOL0     C72686   1.002  10.895   7.126 -0.7885  0.2351 -1.0484
  539MOL0     C72687   1.096  10.833   7.207 -0.8250 -0.0032  0.2347
  539MOL0     C72688   1.183  10.901   7.298  0.7654 -0.1187  0.5669
  539MOL0     O72689   1.268  10.824   7.384  0.5285 -0.8256  0.2498
  539MOL0     C72690   1.391  10.888   7.427  0.1500 -0.2564 -0.5757
  539MOL0     C72691   1.472  10.944   7.309  0.2324 -0.1187 -0.1372
  539MOL0     C72692   1.618  10.981   7.348  0.2964 -1.0123  0.2297
  539MOL0     C72693   1.631  11.122   7.417 -0.4480 -0.4536 -0.3670
  539MOL0     C72694   1.768  11.146   7.470  0.6224  0.2901  0.3683
  539MOL0     C72695   1.879  11.162   7.506 -0.0496  0.1924 -0.7102
  539MOL0     C72696   1.162  11.037   7.304  0.0433 -0.0759  0.3533
  539MOL0     C72697   1.071  11.101   7.215 -1.0921 -0.4043  0.4858
  539MOL0     H72698   0.871  11.467   6.994  0.3438  0.2166 -0.2225
  539MOL0     H72699   0.700  11.578   6.876 -3.0505 -0.2952 -3.6598
  539MOL0     H72700   0.574  11.570   6.674  0.3938  1.2909  3.9431
  539MOL0     H72701   0.408  11.555   6.623 -0.1871  1.4545 -0.4565
  539MOL0     H72702   0.507  11.745   6.837  0.7290 -2.2083 -0.5230
  539MOL0     H72703   0.429  11.784   6.682 -1.2445 -0.4629 -0.0767
  539MOL0     H72704   0.233  11.657   6.755  3.3149 -3.8774 -0.0672
  539MOL0     H72705   0.295  11.651   6.913 -2.8357  0.3664 -0.3593
  539MOL0     H72706   0.319  11.906   6.937  1.6285 -1.5690  0.5395
  539MOL0     H72707   0.248  11.910   6.781 -1.1066 -0.4961  0.2830
  539MOL0     H72708   0.144  11.808   7.048 -0.9518 -0.1690 -0.4492
  539MOL0     H72709   0.083  11.952   6.972  1.5007  0.1551  0.1731
  539MOL0     H72710   0.022  11.666   6.897 -0.3974 -0.3148  1.6711
  539MOL0     H72711  -0.086  11.788   6.974  0.1074  2.7304  0.9159
  539MOL0     H72712  -0.078  11.919   6.775 -0.6442 -0.0965  0.1132
  539MOL0     H72713   0.025  11.802   6.697  0.8274  1.6675  0.7559
  539MOL0     H72714  -0.148  11.609   6.743 -0.1790  0.8161  2.5717
  539MOL0     H72715  -0.200  11.720   6.612 -1.0017  1.5625  0.7835
  539MOL0     H72716  -0.362  11.934   6.728  0.9295  2.2197  1.5161
  539MOL0     H72717  -0.505  11.979   7.070  2.2538  0.1005 -0.3941
  539MOL0     H72718  -0.505  12.053   6.908 -0.8721  0.0889  0.1128
  539MOL0     H72719  -0.716  11.845   6.980 -1.7775  0.0086 -0.5884
  539MOL0     H72720  -0.692  11.917   6.822 -2.3099 -0.4280 -0.3547
  539MOL0     H72721  -0.728  12.149   6.928  3.3636 -1.5255 -0.5319
  539MOL0     H72722  -0.776  12.076   7.079  1.0494 -1.2393  0.3637
  539MOL0     H72723  -0.960  11.955   6.950  0.1003  0.5768  1.5197
  539MOL0     H72724  -0.883  11.996   6.799 -1.8202  0.1371 -0.2406
  539MOL0     H72725  -1.099  12.344   6.923 -1.8919  1.8055 -0.4283
  539MOL0     H72726  -1.446  12.421   7.022  1.6310  0.8509  0.0361
  539MOL0     H72727  -1.295  12.482   6.965  0.2701 -0.2843  0.2801
  539MOL0     H72728  -1.436  12.445   6.852 -1.2480 -1.9311 -0.5864
  539MOL0     H72729  -1.724  12.474   6.863  1.2483 -2.1276  1.9238
  539MOL0     H72730  -1.991  12.497   6.897 -1.7624 -1.4856  0.9929
  539MOL0     H72731  -2.180  12.389   7.028  0.0032 -1.2127  0.0044
  539MOL0     H72732  -2.241  12.495   6.901 -1.5856  0.0775  0.2314
  539MOL0     H72733  -2.364  12.229   6.936 -1.4466 -0.3248  0.9860
  539MOL0     H72734  -2.410  12.349   7.049 -0.8981  0.5575 -0.5049
  539MOL0     H72735  -2.421  12.405   6.758 -1.1251 -2.4959  0.4269
  539MOL0     H72736  -2.473  12.510   6.895  0.9555  0.8691  1.9604
  539MOL0     H72737  -2.593  12.242   6.794  2.5388  0.5427 -1.3760
  539MOL0     H72738  -2.653  12.345   6.927  2.7662  1.1293  1.3618
  539MOL0     H72739  -2.649  12.422   6.633 -2.7547  0.5402 -1.3879
  539MOL0     H72740  -2.668  12.535   6.776  1.8741 -0.1787  1.5233
  539MOL0     H72741  -2.835  12.286   6.742  2.2328 -0.4854  1.4846
  539MOL0     H72742  -2.864  12.432   6.845 -0.0291  1.7280 -0.3454
  539MOL0     H72743  -2.998  12.397   6.638  0.2541 -2.9132 -1.9455
  539MOL0     H72744  -2.855  12.438   6.553 -1.2525 -0.8682 -0.1702
  539MOL0     H72745  -2.842  12.660   6.666  1.0042 -2.6190  1.1642
  539MOL0     H72746  -2.983  12.635   6.760  2.1615  0.1213  0.6967
  539MOL0     H72747  -2.030  12.105   6.739 -0.0116 -2.0783  2.8633
  539MOL0     H72748  -1.787  12.070   6.727  1.1880  1.6069 -2.6487
  539MOL0     H72749  -1.396  11.965   6.845  0.2624 -1.3908  0.3058
  539MOL0     H72750  -1.127  11.948   6.855  3.0772  0.8904  1.5090
  539MOL0     H72751   0.445  11.231   6.908 -0.6110  0.5533  0.7059
  539MOL0     H72752   0.618  11.115   7.011 -0.6567 -0.6670 -0.1054
  539MOL0     H72753   0.935  10.838   7.063  0.1170  0.0874 -1.9165
  539MOL0     H72754   1.106  10.725   7.207 -0.5209 -0.1862 -4.2717
  539MOL0     H72755   1.371  10.962   7.505 -1.9829 -1.7908  0.4162
  539MOL0     H72756   1.457  10.813   7.471 -0.2971 -1.9565 -2.6022
  539MOL0     H72757   1.420  11.028   7.262 -0.7827 -0.8835 -0.4231
  539MOL0     H72758   1.459  10.866   7.233  0.3181 -1.8156  1.5057
  539MOL0     H72759   1.686  10.977   7.262 -0.5769 -1.9099 -0.4448
  539MOL0     H72760   1.664  10.912   7.419  2.4376  0.1332  0.0297
  539MOL0     H72761   1.566  11.133   7.504 -0.5535  0.8596 -0.5864
  539MOL0     H72762   1.609  11.206   7.350  0.5009 -0.9996 -1.4106
  539MOL0     H72763   1.981  11.183   7.529  0.5595  0.0600 -3.0241
  539MOL0     H72764   1.225  11.100   7.366 -0.0015  0.1097  0.2148
  539MOL0     H72765   1.055  11.209   7.217  2.9629  0.3500  0.7256
  540MOL0     O72766   2.332   3.329   5.901  0.4739  0.3156  0.5035
  540MOL0     C72767   2.385   3.432   5.936 -0.9424 -0.2253  0.7468
  540MOL0     O72768   2.326   3.555   5.963  0.0581 -0.0692 -0.1941
  540MOL0     C72769   2.188   3.554   5.949 -0.3762 -1.4654 -0.8155
  540MOL0     C72770   2.127   3.569   5.826 -0.0035 -0.0734  0.5257
  540MOL0     C72771   1.995   3.560   5.804 -0.0471  0.6932  0.4173
  540MOL0     C72772   1.910   3.541   5.915  0.2920 -0.4601 -0.1778
  540MOL0     O72773   1.775   3.531   5.905  0.2772 -0.4130  0.7374
  540MOL0     C72774   1.723   3.451   5.797 -0.5454 -0.0758  0.0793
  540MOL0     C72775   1.660   3.546   5.690 -0.0331 -0.1020 -0.2888
  540MOL0     C72776   1.508   3.556   5.699  0.5823 -0.6441 -0.6419
  540MOL0     C72777   1.447   3.651   5.597  0.2017  0.6775 -0.6422
  540MOL0     C72778   1.294   3.650   5.583  0.3195 -0.5509  0.0944
  540MOL0     C72779   1.260   3.740   5.465 -0.1211  0.2031  0.6684
  540MOL0     C72780   1.115   3.720   5.426 -0.4269 -0.4239  0.1469
  540MOL0     C72781   1.090   3.800   5.305 -0.2752 -0.0134 -0.4792
  540MOL0     N72782   0.945   3.799   5.280  0.5640 -0.4170  0.5908
  540MOL0     C72783   0.878   3.720   5.191 -0.3433  0.2856 -0.1376
  540MOL0     C72784   0.746   3.749   5.195 -0.1332  0.4789 -0.2185
  540MOL0     C72785   0.638   3.686   5.115  0.0593  0.8440 -1.0210
  540MOL0     C72786   0.633   3.533   5.142 -0.0809 -0.3862  0.4809
  540MOL0     C72787   0.517   3.475   5.058 -0.6814 -0.3999  0.0273
  540MOL0     C72788   0.374   3.528   5.090 -0.0317 -0.1510 -0.8438
  540MOL0     O72789   0.292   3.438   5.020 -0.2430  0.5113  0.0358
  540MOL0     C72790   0.157   3.442   5.036 -0.0041 -0.5922  0.8614
  540MOL0     C72791   0.089   3.345   4.963 -0.1640 -0.3976  0.0525
  540MOL0     C72792  -0.049   3.335   4.967  0.0421  0.6302 -0.2875
  540MOL0     C72793  -0.100   3.209   4.895 -0.0406  0.3421 -0.8686
  540MOL0     C72794  -0.121   3.438   5.033 -0.0956  0.5127 -0.1212
  540MOL0     C72795  -0.270   3.458   5.017  0.2282  0.2171  0.4704
  540MOL0     O72796  -0.315   3.575   5.071  0.2938 -0.5566  0.6877
  540MOL0     C72797  -0.448   3.608   5.067 -0.7324 -0.5059  1.2234
  540MOL0     C72798  -0.515   3.648   5.183 -0.1906 -0.8836 -0.7695
  540MOL0     C72799  -0.646   3.687   5.185  0.7718  0.1679  0.3168
  540MOL0     C72800  -0.720   3.680   5.067 -0.1573 -0.5309 -0.4882
  540MOL0     O72801  -0.854   3.714   5.085  0.0944 -0.6426  0.3070
  540MOL0     C72802  -0.912   3.758   4.967  0.4935  0.7112  0.7891
  540MOL0     C72803  -1.052   3.803   5.000 -0.1305  1.0024  0.3994
  540MOL0     C72804  -1.134   3.683   5.069 -0.9515 -0.4435 -0.4044
  540MOL0     C72805  -1.277   3.730   5.079  0.1147  0.8646  0.2427
  540MOL0     C72806  -1.347   3.630   5.174 -0.6100 -0.4427  1.2777
  540MOL0     C72807  -1.493   3.659   5.172 -0.9100 -0.2368  0.2687
  540MOL0     C72808  -1.578   3.554   5.250 -0.0402 -0.5631 -0.6122
  540MOL0     C72809  -1.718   3.615   5.290  0.8695 -0.1531  0.2142
  540MOL0    Cl72810  -1.819   3.688   5.165 -0.1335 -0.1849 -0.1703
  540MOL0     C72811  -0.660   3.644   4.942 -0.6131 -0.5104  0.3173
  540MOL0     C72812  -0.527   3.603   4.943  0.3242  0.5049 -0.1061
  540MOL0     O72813  -0.344   3.376   4.964 -0.4740  0.5433  0.1283
  540MOL0     C72814  -0.049   3.521   5.121 -0.3688 -0.7902  0.1412
  540MOL0     C72815   0.087   3.527   5.128 -0.4607  0.7283  0.4557
  540MOL0     N72816   0.733   3.852   5.285  0.4147  0.6735  0.5629
  540MOL0     N72817   0.851   3.881   5.335  0.3140  0.3656  0.2091
  540MOL0     C72818   1.960   3.540   6.042 -0.6525  0.8184  0.1024
  540MOL0     C72819   2.102   3.550   6.059  0.6760 -0.1439 -0.4568
  540MOL0     C72820   2.530   3.433   5.956  0.2432 -0.6421  0.4184
  540MOL0     C72821   2.610   3.370   5.852  0.4278 -0.6249 -0.2419
  540MOL0     C72822   2.746   3.370   5.866 -0.3948 -0.4742 -0.4668
  540MOL0     C72823   2.807   3.425   5.982 -0.4745  0.4316 -0.3137
  540MOL0     O72824   2.936   3.393   6.012 -0.1587 -0.3049  0.5050
  540MOL0     C72825   3.030   3.324   5.924 -0.9575 -0.0906  0.1062
  540MOL0     C72826   3.161   3.290   5.992 -0.6589 -0.3172 -0.6049
  540MOL0     C72827   3.249   3.406   6.047  0.1488  0.0875  0.2483
  540MOL0     C72828   3.376   3.351   6.090 -0.0106  0.0727 -0.1096
  540MOL0     C72829   3.452   3.468   6.129  0.0388 -0.1717  0.0098
  540MOL0     C72830   3.527   3.562   6.162 -0.1971 -0.1057 -0.2392
  540MOL0     C72831   2.735   3.489   6.079 -0.2417 -0.7975 -0.6464
  540MOL0     C72832   2.593   3.495   6.065  0.0870  0.0801  0.5323
  540MOL0     H72833   2.195   3.602   5.748 -1.8818  4.5445  0.5361
  540MOL0     H72834   1.957   3.572   5.703 -0.6101 -0.5815  0.4627
  540MOL0     H72835   1.807   3.397   5.751  0.5397  1.9051 -0.4122
  540MOL0     H72836   1.651   3.378   5.835  1.1719 -0.9798  1.7658
  540MOL0     H72837   1.714   3.640   5.690  1.6010 -0.9630 -2.1316
  540MOL0     H72838   1.678   3.517   5.585 -1.8188 -0.8080 -0.4418
  540MOL0     H72839   1.462   3.457   5.697 -0.5887 -0.1247 -0.4136
  540MOL0     H72840   1.477   3.596   5.796  0.4702  0.2616 -1.0399
  540MOL0     H72841   1.484   3.749   5.630 -1.7275  0.7277  1.6081
  540MOL0     H72842   1.486   3.631   5.497  1.2200  2.3625 -0.6176
  540MOL0     H72843   1.268   3.544   5.568  0.0329 -0.4901  0.1485
  540MOL0     H72844   1.241   3.680   5.674 -0.9166 -4.0340  0.6817
  540MOL0     H72845   1.275   3.843   5.498 -0.1533  0.7479 -0.9212
  540MOL0     H72846   1.324   3.728   5.377 -1.6148  0.3698 -0.4822
  540MOL0     H72847   1.098   3.615   5.398  0.3874 -0.4735 -0.1725
  540MOL0     H72848   1.043   3.760   5.498 -1.9020  0.7383 -1.8515
  540MOL0     H72849   1.149   3.755   5.225  0.4604 -2.4225  1.3026
  540MOL0     H72850   1.131   3.901   5.312 -0.1101 -0.1688  1.6436
  540MOL0     H72851   0.928   3.646   5.130 -0.8047 -1.2209  1.2427
  540MOL0     H72852   0.546   3.739   5.143 -1.0438 -1.1480 -0.6780
  540MOL0     H72853   0.665   3.709   5.011 -0.2839  0.5563 -1.1753
  540MOL0     H72854   0.601   3.513   5.245 -0.6232 -1.5050  0.1140
  540MOL0     H72855   0.723   3.478   5.113 -0.4949 -0.2370 -1.1441
  540MOL0     H72856   0.526   3.369   5.083 -2.2460 -0.0097  2.5785
  540MOL0     H72857   0.536   3.481   4.950  0.9776 -2.0038  0.1700
  540MOL0     H72858   0.356   3.625   5.043  2.2953  0.1161 -1.2984
  540MOL0     H72859   0.354   3.520   5.197  3.5649  0.2727 -0.0118
  540MOL0     H72860   0.147   3.281   4.897 -1.1496 -0.7435 -0.5010
  540MOL0     H72861  -0.190   3.176   4.948  1.2358 -0.4548  0.9007
  540MOL0     H72862  -0.127   3.226   4.791  0.6880 -0.0567 -1.1289
  540MOL0     H72863  -0.027   3.129   4.907 -0.2244  0.4482  1.3874
  540MOL0     H72864  -0.473   3.647   5.283  0.4598 -1.8184 -1.0319
  540MOL0     H72865  -0.687   3.722   5.279 -2.3293 -0.1909 -0.8166
  540MOL0     H72866  -0.855   3.845   4.933  0.2377 -0.1615 -2.2162
  540MOL0     H72867  -0.915   3.677   4.893  0.7784 -0.2992  1.8523
  540MOL0     H72868  -1.047   3.893   5.061  1.2279 -0.8407  3.2555
  540MOL0     H72869  -1.104   3.824   4.907 -2.4706  1.3801  1.7137
  540MOL0     H72870  -1.096   3.671   5.171 -1.3172  2.0866  0.0855
  540MOL0     H72871  -1.127   3.587   5.016 -1.2654 -0.2969 -0.7150
  540MOL0     H72872  -1.279   3.824   5.136  3.4650 -0.9733  3.8203
  540MOL0     H72873  -1.324   3.727   4.980  2.2438 -0.4490 -0.7904
  540MOL0     H72874  -1.296   3.653   5.268  0.7468 -1.3228  0.7840
  540MOL0     H72875  -1.323   3.527   5.147 -1.8119 -0.8062  1.5613
  540MOL0     H72876  -1.506   3.760   5.210  2.1201 -0.7266  3.0103
  540MOL0     H72877  -1.532   3.662   5.070 -1.0501  3.2342  0.3145
  540MOL0     H72878  -1.522   3.526   5.340 -0.0346  1.8952  0.2416
  540MOL0     H72879  -1.593   3.466   5.188 -2.9905  0.0024 -0.8302
  540MOL0     H72880  -1.703   3.683   5.375  1.1454  0.3825 -0.2528
  540MOL0     H72881  -1.793   3.545   5.328  1.3105 -0.3232  0.7807
  540MOL0     H72882  -0.706   3.631   4.844  1.2457 -1.9012 -0.4395
  540MOL0     H72883  -0.494   3.562   4.848  0.1150  1.6695 -0.7005
  540MOL0     H72884  -0.107   3.598   5.171 -0.1266 -0.1116 -0.6171
  540MOL0     H72885   0.133   3.601   5.192  0.1765  1.7760 -1.1426
  540MOL0     H72886   1.897   3.519   6.127 -0.9620  0.4214 -0.2212
  540MOL0     H72887   2.144   3.548   6.159  0.0259  2.0355 -0.0878
  540MOL0     H72888   2.555   3.316   5.776 -1.5027 -1.1053  1.4202
  540MOL0     H72889   2.809   3.323   5.791  2.4380  0.5466  1.1173
  540MOL0     H72890   2.994   3.224   5.897 -0.7502  0.4073 -2.2101
  540MOL0     H72891   3.047   3.385   5.834  0.2929  0.8814  0.9694
  540MOL0     H72892   3.219   3.227   5.924  1.6451 -1.9643  2.6364
  540MOL0     H72893   3.140   3.234   6.084 -3.0286 -2.3464 -2.2582
  540MOL0     H72894   3.195   3.451   6.131 -1.7579  0.1501 -0.9577
  540MOL0     H72895   3.269   3.472   5.963  0.5724 -0.7911 -0.3628
  540MOL0     H72896   3.426   3.296   6.010 -0.5688  0.0019 -0.4142
  540MOL0     H72897   3.359   3.289   6.179 -1.9919  1.7229  0.7347
  540MOL0     H72898   3.593   3.639   6.196 -1.8995  0.6910  1.4722
  540MOL0     H72899   2.791   3.526   6.164  1.1331 -3.4708 -0.2982
  540MOL0     H72900   2.538   3.533   6.151  3.0000 -1.1617  3.1422
  541MOL0     O72901   5.147   5.790   7.293  0.5552 -0.5650  0.3873
  541MOL0     C72902   5.134   5.721   7.395 -0.4780  0.3967  0.1493
  541MOL0     O72903   5.018   5.692   7.458  0.7849 -0.0915  0.0662
  541MOL0     C72904   4.897   5.722   7.399  0.7524  0.2451  0.0841
  541MOL0     C72905   4.836   5.844   7.387 -0.2134 -0.5322 -0.0701
  541MOL0     C72906   4.708   5.858   7.335 -0.4819  0.4054 -0.1898
  541MOL0     C72907   4.636   5.748   7.272 -0.0150 -0.4873  0.3711
  541MOL0     O72908   4.507   5.765   7.237  0.4878 -0.5567 -0.1833
  541MOL0     C72909   4.417   5.658   7.283 -0.4330 -0.9888  0.3958
  541MOL0     C72910   4.274   5.689   7.248 -0.7967  0.1970 -0.6935
  541MOL0     C72911   4.234   5.680   7.103 -0.5295 -0.0397 -0.4783
  541MOL0     C72912   4.091   5.718   7.070  0.6324 -0.2574 -0.9887
  541MOL0     C72913   3.987   5.610   7.087  0.6655 -0.5922 -0.0350
  541MOL0     C72914   3.861   5.642   7.007 -0.4389 -0.0641 -0.7113
  541MOL0     C72915   3.849   5.583   6.871 -0.8987 -0.2014  0.0489
  541MOL0     C72916   3.981   5.611   6.787 -0.4504  0.2626  0.0394
  541MOL0     N72917   3.971   5.557   6.653  0.2651  0.3735  0.2272
  541MOL0     C72918   3.879   5.601   6.560 -0.0366 -0.4296 -0.9618
  541MOL0     C72919   3.898   5.528   6.451 -0.5059 -0.3132 -0.1689
  541MOL0     C72920   3.804   5.543   6.333 -0.2311  0.0232  0.4909
  541MOL0     C72921   3.704   5.425   6.344 -0.4265 -0.2667  0.0984
  541MOL0     C72922   3.623   5.403   6.217 -0.5501  0.3896 -0.3278
  541MOL0     C72923   3.519   5.293   6.232  0.0073  0.0066  0.7059
  541MOL0     O72924   3.421   5.341   6.325 -0.0914  0.1555 -0.3276
  541MOL0     C72925   3.324   5.253   6.371 -0.1921 -0.2637  0.0646
  541MOL0     C72926   3.204   5.303   6.433 -0.1887 -0.0662 -0.3480
  541MOL0     C72927   3.095   5.220   6.464 -0.4911  0.3110  0.1275
  541MOL0     C72928   2.964   5.291   6.491 -0.0330 -0.2579  0.1903
  541MOL0     C72929   3.100   5.078   6.457  0.9352 -0.0986  0.3706
  541MOL0     C72930   2.988   4.992   6.494 -0.2200 -0.4752  0.2926
  541MOL0     O72931   2.982   4.867   6.437 -0.0663 -0.2053 -0.7935
  541MOL0     C72932   2.890   4.783   6.487  0.7917  0.6941 -0.3572
  541MOL0     C72933   2.778   4.754   6.406  0.0533  0.7271 -0.6019
  541MOL0     C72934   2.671   4.672   6.442  0.9155  0.1093  0.0025
  541MOL0     C72935   2.679   4.602   6.566 -0.7608 -0.1498  0.4693
  541MOL0     O72936   2.585   4.514   6.615 -0.6895 -0.1572  0.0881
  541MOL0     C72937   2.490   4.468   6.520  0.9341  0.4451 -0.1174
  541MOL0     C72938   2.360   4.439   6.594 -0.2074 -0.4486  0.0971
  541MOL0     C72939   2.269   4.347   6.528  0.7542  1.0217 -0.2571
  541MOL0     C72940   2.230   4.410   6.393  0.2830 -0.2996  0.3276
  541MOL0     C72941   2.117   4.329   6.326  0.8001 -0.4990 -0.5711
  541MOL0     C72942   2.081   4.381   6.189  0.1546 -0.4434  0.3466
  541MOL0     C72943   1.941   4.353   6.152 -0.1969 -0.9917  0.1161
  541MOL0     C72944   1.908   4.391   6.011 -0.5248  0.0125 -0.1936
  541MOL0    Cl72945   1.733   4.367   5.958 -0.5265  0.2418 -0.3289
  541MOL0     C72946   2.796   4.624   6.650  0.2581  0.8090  0.5314
  541MOL0     C72947   2.889   4.715   6.615 -0.7980  0.1694 -0.5335
  541MOL0     O72948   2.915   5.027   6.585 -0.1966  0.2460  0.1957
  541MOL0     C72949   3.217   5.023   6.393  0.0571  0.0904 -0.3536
  541MOL0     C72950   3.318   5.108   6.351 -0.3740 -0.2613 -0.5023
  541MOL0     N72951   4.013   5.453   6.474 -0.3081  0.5231 -0.1018
  541MOL0     N72952   4.047   5.460   6.592  0.0978  0.4611 -0.7530
  541MOL0     C72953   4.706   5.627   7.272 -0.0337 -0.1203 -0.6057
  541MOL0     C72954   4.831   5.608   7.341  0.3959 -0.6411 -0.0581
  541MOL0     C72955   5.261   5.674   7.455  0.3850 -0.8164 -0.0009
  541MOL0     C72956   5.268   5.618   7.587 -0.3456  0.2225 -0.1703
  541MOL0     C72957   5.397   5.571   7.639 -0.6444  0.2238  0.4412
  541MOL0     C72958   5.513   5.574   7.559  0.4127 -0.3493 -0.4569
  541MOL0     O72959   5.632   5.525   7.614 -0.1962  0.7459  0.8536
  541MOL0     C72960   5.737   5.498   7.522  0.9621 -0.0901  0.1627
  541MOL0     C72961   5.839   5.417   7.587  0.2068  0.6608 -0.4427
  541MOL0     C72962   5.962   5.400   7.502  0.7079 -0.4804  1.1242
  541MOL0     C72963   6.087   5.341   7.564 -0.0565 -0.0215 -0.3506
  541MOL0     C72964   6.061   5.205   7.630 -0.4677 -1.3655 -0.5790
  541MOL0     C72965   6.041   5.101   7.692  0.6478  0.7675  0.0645
  541MOL0     C72966   5.505   5.634   7.431 -0.3848 -0.1981 -0.3026
  541MOL0     C72967   5.381   5.694   7.383 -0.4519 -0.6834  0.0335
  541MOL0     H72968   4.882   5.934   7.426 -0.3691  1.0774 -3.2478
  541MOL0     H72969   4.640   5.943   7.334 -0.2308  0.6114 -1.4316
  541MOL0     H72970   4.448   5.563   7.238 -1.3806 -0.8312 -0.6253
  541MOL0     H72971   4.423   5.655   7.392 -1.0639 -0.3213  0.4542
  541MOL0     H72972   4.207   5.618   7.299 -0.9508 -0.6010 -1.9708
  541MOL0     H72973   4.275   5.791   7.287  3.8735 -0.7431  2.5609
  541MOL0     H72974   4.300   5.737   7.038 -0.8519 -0.1514 -0.9038
  541MOL0     H72975   4.241   5.574   7.074 -1.8323 -0.3163  0.1297
  541MOL0     H72976   4.065   5.805   7.132 -0.2915 -0.3494 -1.2291
  541MOL0     H72977   4.089   5.758   6.969  2.7315  1.8831 -0.2655
  541MOL0     H72978   4.027   5.516   7.050 -0.6024 -1.1699  0.0209
  541MOL0     H72979   3.960   5.602   7.193  2.5767 -2.0692  0.3920
  541MOL0     H72980   3.777   5.601   7.062 -0.4051  1.2452  0.3803
  541MOL0     H72981   3.853   5.751   7.004  1.4758  0.1664  0.3871
  541MOL0     H72982   3.827   5.476   6.878 -2.5772  0.0128 -1.4053
  541MOL0     H72983   3.772   5.627   6.807  0.3071 -3.0509 -3.7509
  541MOL0     H72984   4.071   5.574   6.837  0.6438 -0.8070 -2.5166
  541MOL0     H72985   3.995   5.719   6.776  0.6796  0.0757 -0.5743
  541MOL0     H72986   3.792   5.661   6.585 -0.3974 -0.8584 -1.1747
  541MOL0     H72987   3.757   5.642   6.341 -1.6978 -0.7206  1.7079
  541MOL0     H72988   3.860   5.541   6.240  1.6772 -0.6181  1.5971
  541MOL0     H72989   3.648   5.434   6.437 -1.0951 -1.3993 -0.1688
  541MOL0     H72990   3.762   5.332   6.355 -1.0837 -0.6525  0.3468
  541MOL0     H72991   3.679   5.376   6.127 -0.4863  0.0750 -0.1933
  541MOL0     H72992   3.564   5.495   6.204 -2.1294 -0.7613 -1.7441
  541MOL0     H72993   3.571   5.202   6.266  3.0679 -0.0995 -3.5408
  541MOL0     H72994   3.480   5.268   6.133  1.7484 -1.5033  0.3359
  541MOL0     H72995   3.195   5.411   6.439 -1.9054 -0.1652 -0.6729
  541MOL0     H72996   2.944   5.364   6.411 -1.8237  1.0264  1.7270
  541MOL0     H72997   2.870   5.238   6.509 -1.1035  1.8978  1.3671
  541MOL0     H72998   2.972   5.342   6.587  1.3512 -1.5480  0.7935
  541MOL0     H72999   2.760   4.814   6.317 -0.8182 -0.3511 -1.1769
  541MOL0     H73000   2.580   4.679   6.383  1.2319  0.3790 -0.4645
  541MOL0     H73001   2.455   4.534   6.441 -1.6618  0.7900  1.1978
  541MOL0     H73002   2.533   4.380   6.471  1.6165  1.0724 -0.6483
  541MOL0     H73003   2.379   4.391   6.690  1.9140  0.8440  0.3886
  541MOL0     H73004   2.318   4.539   6.610  0.3494 -0.1215 -0.4013
  541MOL0     H73005   2.180   4.324   6.587 -0.7100 -1.1354 -3.0748
  541MOL0     H73006   2.321   4.255   6.500 -1.4637 -1.3614  2.7134
  541MOL0     H73007   2.203   4.516   6.403  1.3175  0.6650 -4.4467
  541MOL0     H73008   2.314   4.409   6.324 -2.4912  1.1012 -3.4454
  541MOL0     H73009   2.031   4.332   6.394  0.4603 -1.5886 -0.9257
  541MOL0     H73010   2.144   4.224   6.310  3.2016 -0.0814  0.3339
  541MOL0     H73011   2.096   4.489   6.177  0.5460 -0.6411 -1.0389
  541MOL0     H73012   2.144   4.328   6.117 -2.9109 -1.2320 -1.9349
  541MOL0     H73013   1.872   4.401   6.223 -0.5147 -2.9813  1.2648
  541MOL0     H73014   1.912   4.247   6.163 -2.0276 -0.4372  1.1599
  541MOL0     H73015   1.968   4.331   5.942  1.3004  0.2495  1.1138
  541MOL0     H73016   1.934   4.496   5.993  0.1871  0.0533  0.9459
  541MOL0     H73017   2.797   4.566   6.742 -1.6864  0.7966  0.5877
  541MOL0     H73018   2.967   4.720   6.691 -1.5310  0.3420  0.2144
  541MOL0     H73019   3.238   4.917   6.383 -2.0801 -0.1852 -4.1693
  541MOL0     H73020   3.405   5.069   6.298 -1.2854 -0.8962 -1.5757
  541MOL0     H73021   4.658   5.543   7.223  0.5974  0.6484 -2.6183
  541MOL0     H73022   4.875   5.510   7.355  0.2270 -0.8259 -0.7897
  541MOL0     H73023   5.187   5.628   7.658  0.3343 -0.5593  0.7603
  541MOL0     H73024   5.393   5.543   7.744  1.0959 -0.3135  0.3927
  541MOL0     H73025   5.696   5.443   7.436 -1.3967  0.8089  0.6470
  541MOL0     H73026   5.780   5.589   7.479  0.6535 -1.7940 -4.3113
  541MOL0     H73027   5.798   5.317   7.600  0.0576  0.3286 -3.0900
  541MOL0     H73028   5.866   5.471   7.679 -0.7323 -0.1782  0.3403
  541MOL0     H73029   5.986   5.501   7.468 -0.6445  0.5150  2.8958
  541MOL0     H73030   5.932   5.343   7.414 -0.2532  0.4439  0.8249
  541MOL0     H73031   6.121   5.404   7.647  3.4397 -2.5877  0.4074
  541MOL0     H73032   6.169   5.330   7.492  1.6392  1.9139  1.1555
  541MOL0     H73033   6.015   5.007   7.737  0.1076  1.3467  1.0016
  541MOL0     H73034   5.589   5.630   7.363 -1.7722  2.1810 -2.3455
  541MOL0     H73035   5.390   5.753   7.292  2.4517  1.2039  1.3904
  542MOL0     O73036   5.897  10.961   4.234  0.2818 -0.0279  0.2863
  542MOL0     C73037   5.888  10.841   4.233  0.1862  0.2450 -0.0128
  542MOL0     O73038   5.775  10.770   4.203 -0.1658 -0.5771  0.3590
  542MOL0     C73039   5.651  10.833   4.183  0.0031 -0.1400  0.2461
  542MOL0     C73040   5.596  10.931   4.271  1.1519 -0.2845 -0.0416
  542MOL0     C73041   5.491  11.011   4.220  0.9286  0.0926  0.2980
  542MOL0     C73042   5.430  10.991   4.096  0.4489  1.2205 -0.1829
  542MOL0     O73043   5.330  11.071   4.073  0.9523  0.1594 -0.0733
  542MOL0     C73044   5.255  11.066   3.953 -0.2512  0.0686 -0.7348
  542MOL0     C73045   5.138  11.163   3.963 -0.2947 -0.1763  0.2161
  542MOL0     C73046   5.037  11.134   4.067  0.4901 -0.2020  0.3635
  542MOL0     C73047   4.947  11.252   4.088  0.2604  0.1149 -0.7125
  542MOL0     C73048   4.841  11.220   4.192 -0.6268 -0.2399  1.0669
  542MOL0     C73049   4.731  11.327   4.188  0.6313  0.3768  0.3437
  542MOL0     C73050   4.623  11.308   4.291  0.8336  0.7325  0.0328
  542MOL0     C73051   4.531  11.431   4.299 -0.1081 -0.1173 -0.2088
  542MOL0     N73052   4.446  11.432   4.419  0.2910 -0.3104 -0.2460
  542MOL0     C73053   4.376  11.325   4.471 -0.3352  0.4302 -0.2485
  542MOL0     C73054   4.319  11.360   4.587  1.1773 -0.4268 -0.9386
  542MOL0     C73055   4.237  11.273   4.671 -0.3534 -0.4127 -0.6044
  542MOL0     C73056   4.117  11.213   4.602  0.4424  0.0702 -0.2268
  542MOL0     C73057   3.984  11.251   4.656 -0.5172  1.3826  0.2771
  542MOL0     C73058   3.951  11.393   4.650 -0.1052  0.6466  0.1280
  542MOL0     O73059   3.875  11.429   4.530  0.4832  0.2803 -0.2023
  542MOL0     C73060   3.754  11.496   4.546 -0.1711  0.2668 -0.5660
  542MOL0     C73061   3.709  11.558   4.661  0.4196 -0.2360  0.2442
  542MOL0     C73062   3.588  11.631   4.662  0.5168 -0.1651 -0.5529
  542MOL0     C73063   3.540  11.683   4.792  0.1938  0.7419 -0.2756
  542MOL0     C73064   3.508  11.643   4.543 -0.8785 -0.1751 -0.7938
  542MOL0     C73065   3.382  11.722   4.536 -0.6179 -0.0280  0.3579
  542MOL0     O73066   3.302  11.698   4.426 -0.3825  0.1609  0.4717
  542MOL0     C73067   3.174  11.729   4.418  0.4225  0.0195  0.2950
  542MOL0     C73068   3.116  11.710   4.290  0.6790 -0.1445 -0.1659
  542MOL0     C73069   2.986  11.732   4.266 -0.2420  0.1914  0.3501
  542MOL0     C73070   2.900  11.745   4.371  0.2068 -0.6486 -0.0318
  542MOL0     O73071   2.766  11.771   4.349 -0.3901  0.2475  0.1177
  542MOL0     C73072   2.722  11.813   4.217 -0.4059 -0.0226  0.1591
  542MOL0     C73073   2.587  11.875   4.206  0.4072  0.0058  0.4243
  542MOL0     C73074   2.482  11.802   4.295 -0.8270 -0.6834 -0.4693
  542MOL0     C73075   2.419  11.678   4.229  0.0296  0.8467 -0.3294
  542MOL0     C73076   2.310  11.624   4.323 -0.4561 -0.1308 -0.0907
  542MOL0     C73077   2.171  11.692   4.323 -0.1794 -0.3045 -0.1061
  542MOL0     C73078   2.068  11.632   4.405  0.4279  0.7393  0.0514
  542MOL0     C73079   1.997  11.508   4.345 -0.5075  0.4095 -0.9435
  542MOL0    Cl73080   1.943  11.524   4.180 -0.1103 -0.1167  0.2131
  542MOL0     C73081   2.953  11.759   4.500  0.9266 -0.7965  0.8485
  542MOL0     C73082   3.088  11.755   4.522  0.0744  0.0415  0.3526
  542MOL0     O73083   3.360  11.817   4.609  0.1980 -0.5862 -0.5140
  542MOL0     C73084   3.548  11.572   4.431 -0.4086 -0.6434 -0.2694
  542MOL0     C73085   3.675  11.502   4.431  0.7263  0.6175  0.0710
  542MOL0     N73086   4.331  11.503   4.598  0.1648 -0.0546  0.2758
  542MOL0     N73087   4.407  11.542   4.495  0.4363  0.5792  0.0166
  542MOL0     C73088   5.482  10.888   4.015  0.7326  0.3520 -0.4888
  542MOL0     C73089   5.593  10.816   4.049  0.4629 -0.4963 -0.3182
  542MOL0     C73090   6.023  10.774   4.228  0.3865 -0.1603 -0.0048
  542MOL0     C73091   6.029  10.631   4.199 -1.5463 -0.3157  0.8251
  542MOL0     C73092   6.152  10.569   4.206 -0.2267  0.7673  0.4338
  542MOL0     C73093   6.275  10.642   4.229  0.8677 -0.0922 -0.1372
  542MOL0     O73094   6.393  10.580   4.221  0.1675  0.4060 -0.0298
  542MOL0     C73095   6.518  10.646   4.254 -0.5443 -0.2557 -0.1893
  542MOL0     C73096   6.633  10.563   4.189  0.0338  0.7038  0.0440
  542MOL0     C73097   6.779  10.617   4.213  0.3379  0.5068 -0.1426
  542MOL0     C73098   6.789  10.776   4.206 -0.1294  0.2653 -0.0374
  542MOL0     C73099   6.928  10.812   4.209  0.1776 -0.3737  0.1051
  542MOL0     C73100   7.046  10.822   4.217 -0.6113 -0.1075  0.4596
  542MOL0     C73101   6.263  10.771   4.266  0.0738 -0.7800 -0.4090
  542MOL0     C73102   6.146  10.846   4.253 -0.4596 -0.2574 -0.0886
  542MOL0     H73103   5.640  10.948   4.368  1.1850 -0.0014 -0.1055
  542MOL0     H73104   5.449  11.086   4.287 -2.4331 -0.3375 -1.1402
  542MOL0     H73105   5.319  11.110   3.875  1.4679 -0.2786  0.4245
  542MOL0     H73106   5.240  10.962   3.924  0.8592 -0.8535  1.7534
  542MOL0     H73107   5.185  11.262   3.971  2.3918 -1.0545 -2.5679
  542MOL0     H73108   5.096  11.162   3.862 -1.0623  0.1505  0.5297
  542MOL0     H73109   4.989  11.036   4.063  0.8982 -0.4904  1.8262
  542MOL0     H73110   5.093  11.121   4.160 -0.9702 -0.8548  1.1803
  542MOL0     H73111   5.005  11.336   4.126 -1.5993  0.4821  1.5520
  542MOL0     H73112   4.906  11.282   3.991 -0.9107  1.0831  0.0464
  542MOL0     H73113   4.801  11.122   4.166  0.0444 -0.9249  2.4967
  542MOL0     H73114   4.894  11.219   4.288  3.9264 -1.1820 -1.1383
  542MOL0     H73115   4.766  11.426   4.219  0.8510  0.4254 -0.0564
  542MOL0     H73116   4.693  11.338   4.086  0.8906 -0.0099  0.2051
  542MOL0     H73117   4.563  11.224   4.256 -0.3297  0.7187  1.9547
  542MOL0     H73118   4.664  11.277   4.387  0.1985 -0.6966 -0.1409
  542MOL0     H73119   4.472  11.436   4.207  0.7615  0.7091 -0.7359
  542MOL0     H73120   4.592  11.521   4.308  1.2514 -1.1138  0.9288
  542MOL0     H73121   4.379  11.226   4.427  2.1247 -0.1510  1.0283
  542MOL0     H73122   4.294  11.184   4.699 -1.5099 -0.6497  1.1810
  542MOL0     H73123   4.212  11.329   4.762  2.0021  0.2201 -0.2790
  542MOL0     H73124   4.120  11.104   4.610 -0.0739  0.0353 -0.4243
  542MOL0     H73125   4.119  11.226   4.493 -1.6918 -0.8077 -0.4280
  542MOL0     H73126   3.978  11.229   4.763 -2.1166 -0.0391 -0.0714
  542MOL0     H73127   3.904  11.195   4.606  0.7533 -0.3160  0.0753
  542MOL0     H73128   4.044  11.450   4.662  1.1219 -1.3096  0.3497
  542MOL0     H73129   3.892  11.410   4.741 -0.4341 -2.4189  0.5817
  542MOL0     H73130   3.752  11.544   4.760 -0.3915 -2.3574  0.3434
  542MOL0     H73131   3.539  11.793   4.794  0.9526  0.7516  0.3685
  542MOL0     H73132   3.442  11.645   4.822  1.0671  0.6284  2.7900
  542MOL0     H73133   3.603  11.648   4.875 -0.4012 -0.6874 -0.4065
  542MOL0     H73134   3.183  11.686   4.208  2.2440 -0.3529  1.1111
  542MOL0     H73135   2.952  11.701   4.167  1.4045  1.1144 -0.5444
  542MOL0     H73136   2.797  11.884   4.179 -1.7875  1.2774 -0.2407
  542MOL0     H73137   2.708  11.726   4.152  0.8866  0.0864 -0.3092
  542MOL0     H73138   2.596  11.981   4.234 -1.6222  0.7362 -1.3859
  542MOL0     H73139   2.557  11.879   4.101  0.2125  3.3018  0.5023
  542MOL0     H73140   2.399  11.869   4.317 -2.1603 -1.9359 -1.5341
  542MOL0     H73141   2.524  11.787   4.395  1.5685  1.3572 -1.0354
  542MOL0     H73142   2.378  11.687   4.128 -0.5341 -1.7472 -0.4143
  542MOL0     H73143   2.498  11.602   4.235  0.0433  0.9232  0.6746
  542MOL0     H73144   2.352  11.619   4.424  1.2627 -1.5098 -0.8060
  542MOL0     H73145   2.292  11.521   4.289  2.9157 -1.2925  1.2149
  542MOL0     H73146   2.196  11.791   4.362  0.5028 -0.5248  0.0278
  542MOL0     H73147   2.131  11.710   4.222 -0.5764  1.6720  0.3480
  542MOL0     H73148   1.992  11.710   4.415 -2.5411 -2.0140  0.9029
  542MOL0     H73149   2.104  11.605   4.505 -2.9957 -0.3932  1.1255
  542MOL0     H73150   1.914  11.476   4.409  1.5080 -1.9529  0.6519
  542MOL0     H73151   2.064  11.422   4.350 -1.2889 -0.1862 -0.4164
  542MOL0     H73152   2.890  11.776   4.587 -0.4809 -1.7484  0.0450
  542MOL0     H73153   3.126  11.763   4.623 -1.2613  3.3691  0.7357
  542MOL0     H73154   3.486  11.577   4.342  0.6064 -2.4857 -1.1581
  542MOL0     H73155   3.708  11.455   4.339  2.4966 -1.1641  1.5314
  542MOL0     H73156   5.436  10.865   3.919 -1.7031 -1.0584  0.9437
  542MOL0     H73157   5.635  10.745   3.978  0.0835 -0.9284 -0.1072
  542MOL0     H73158   5.938  10.584   4.163 -0.4401 -0.0660 -2.6840
  542MOL0     H73159   6.159  10.464   4.182  0.8430  0.3342  2.4064
  542MOL0     H73160   6.525  10.740   4.199  1.2841  0.6524  1.5044
  542MOL0     H73161   6.526  10.655   4.362 -0.7870 -2.2962  0.0373
  542MOL0     H73162   6.616  10.558   4.081  1.6836 -3.3890 -0.1894
  542MOL0     H73163   6.632  10.461   4.227 -1.6711  0.5302 -0.4094
  542MOL0     H73164   6.839  10.568   4.137  0.9332  0.8823  0.0819
  542MOL0     H73165   6.811  10.577   4.310  0.0097 -1.5275 -0.8351
  542MOL0     H73166   6.735  10.817   4.291  0.4588  2.3235 -0.5989
  542MOL0     H73167   6.749  10.806   4.108  3.9392 -1.3545 -2.4904
  542MOL0     H73168   7.150  10.837   4.239  0.3099 -2.6611 -1.7372
  542MOL0     H73169   6.354  10.824   4.292 -0.3162 -1.6982  3.5022
  542MOL0     H73170   6.150  10.951   4.280  0.5236 -0.2897 -0.0745
  543MOL0     O73171   1.968   5.710   9.980 -0.6257 -0.5754  0.5014
  543MOL0     C73172   2.025   5.740  10.089  0.3305 -0.0383  0.8636
  543MOL0     O73173   1.956   5.822  10.183 -0.8434  0.4161  0.3259
  543MOL0     C73174   1.836   5.889  10.148  0.0605  0.7172 -0.3831
  543MOL0     C73175   1.825   6.028  10.149  0.2260  0.1368 -0.1769
  543MOL0     C73176   1.698   6.096  10.147 -0.7253  0.0737 -0.7553
  543MOL0     C73177   1.580   6.021  10.141 -0.0820  0.2779  0.6579
  543MOL0     O73178   1.457   6.082  10.143  0.1736  0.1672 -0.2591
  543MOL0     C73179   1.440   6.192  10.243  0.2970 -0.3833 -0.0478
  543MOL0     C73180   1.293   6.234  10.242  0.9427  0.1448 -0.0189
  543MOL0     C73181   1.259   6.294  10.104 -0.3803 -0.2058 -0.1407
  543MOL0     C73182   1.127   6.373  10.093  0.7270  0.4079  0.2401
  543MOL0     C73183   1.099   6.389   9.950 -0.1688 -0.1657  0.2059
  543MOL0     C73184   0.958   6.421   9.922 -0.3300  0.1664  0.7005
  543MOL0     C73185   0.933   6.417   9.772 -0.3302  0.0037 -0.7175
  543MOL0     C73186   0.880   6.277   9.732  0.4187 -0.1783 -1.1617
  543MOL0     N73187   0.838   6.259   9.593 -0.4501 -0.3940 -0.2097
  543MOL0     C73188   0.731   6.328   9.534  0.4969 -0.3844 -1.2642
  543MOL0     C73189   0.738   6.304   9.403 -0.6670 -0.8930 -0.7405
  543MOL0     C73190   0.634   6.339   9.294  0.8042  0.1079  0.1514
  543MOL0     C73191   0.503   6.257   9.303 -0.5340  0.3386  0.0709
  543MOL0     C73192   0.415   6.278   9.184 -0.4280 -0.5410 -0.2610
  543MOL0     C73193   0.281   6.224   9.202  0.4628 -0.2642 -0.3922
  543MOL0     O73194   0.198   6.277   9.308  0.3702 -0.2265 -0.2205
  543MOL0     C73195   0.066   6.255   9.306  1.2694 -0.3273  0.2128
  543MOL0     C73196  -0.005   6.206   9.192 -1.0987 -0.0404  0.2493
  543MOL0     C73197  -0.147   6.199   9.195 -0.6463  0.2815 -0.1239
  543MOL0     C73198  -0.211   6.144   9.073  1.0878  0.2296  0.2095
  543MOL0     C73199  -0.219   6.235   9.309 -1.3793 -0.1488  0.4484
  543MOL0     C73200  -0.370   6.224   9.315  0.7483 -0.1641  0.0280
  543MOL0     O73201  -0.432   6.254   9.441  0.0103  0.2329 -0.0586
  543MOL0     C73202  -0.565   6.277   9.439  0.2483  0.0024 -0.5704
  543MOL0     C73203  -0.615   6.374   9.353 -0.5324  0.7448 -0.4418
  543MOL0     C73204  -0.760   6.396   9.348 -0.3286 -0.7505  0.2830
  543MOL0     C73205  -0.838   6.305   9.420 -1.1027  0.6438  0.1193
  543MOL0     O73206  -0.975   6.299   9.422 -0.4153  0.0588  0.1726
  543MOL0     C73207  -1.063   6.354   9.325  1.0333 -0.1229  1.0132
  543MOL0     C73208  -1.204   6.308   9.353 -0.0056 -0.5528 -0.1275
  543MOL0     C73209  -1.293   6.383   9.252 -0.0027 -0.5681 -0.4677
  543MOL0     C73210  -1.436   6.329   9.248 -0.3439 -0.2707 -0.0990
  543MOL0     C73211  -1.534   6.408   9.155 -0.1191  0.6194  0.0355
  543MOL0     C73212  -1.650   6.319   9.120  0.1796  0.4657 -0.8119
  543MOL0     C73213  -1.738   6.388   9.017 -0.0906  0.6249  0.5380
  543MOL0     C73214  -1.869   6.432   9.070 -0.0351 -0.2070  0.1564
  543MOL0    Cl73215  -1.970   6.297   9.130 -0.2656  0.1318 -0.1214
  543MOL0     C73216  -0.786   6.212   9.513 -0.7719 -2.0345  0.0633
  543MOL0     C73217  -0.648   6.194   9.514 -1.1987  0.2538  0.0463
  543MOL0     O73218  -0.440   6.195   9.217  0.2814 -0.6667  0.1439
  543MOL0     C73219  -0.144   6.285   9.415 -0.1537  0.0552 -0.1014
  543MOL0     C73220  -0.009   6.301   9.417 -0.0055  0.4902  0.4121
  543MOL0     N73221   0.856   6.236   9.375 -0.2119 -0.4169  0.1893
  543MOL0     N73222   0.907   6.204   9.494 -0.6617  0.0631  0.0019
  543MOL0     C73223   1.595   5.889  10.139 -0.5266 -0.1228 -0.2029
  543MOL0     C73224   1.717   5.820  10.128 -0.5817  0.2587  0.3444
  543MOL0     C73225   2.158   5.691  10.117  0.3548  0.9899 -0.0918
  543MOL0     C73226   2.203   5.696  10.248 -0.2693 -0.2072  0.7423
  543MOL0     C73227   2.333   5.651  10.277  0.8686 -0.8089 -0.2204
  543MOL0     C73228   2.422   5.600  10.184  0.9555  0.4416  0.0420
  543MOL0     O73229   2.541   5.573  10.241 -0.2868  0.0305  0.8001
  543MOL0     C73230   2.649   5.537  10.156  0.4799  0.0880  0.6621
  543MOL0     C73231   2.789   5.546  10.225  0.9045  0.0803 -0.4606
  543MOL0     C73232   2.902   5.532  10.123  0.4408 -0.0302  0.9808
  543MOL0     C73233   3.037   5.545  10.194 -0.1665  0.9189 -0.1125
  543MOL0     C73234   3.140   5.538  10.086  0.1390  0.3113 -0.2664
  543MOL0     C73235   3.240   5.534  10.022  1.3834 -0.8485  0.0791
  543MOL0     C73236   2.372   5.587  10.056 -0.3292 -0.5432 -0.0107
  543MOL0     C73237   2.241   5.633  10.020  0.0082 -0.3691 -0.5882
  543MOL0     H73238   1.923   6.073  10.159  0.8028 -1.3157  1.1093
  543MOL0     H73239   1.702   6.202  10.167  1.9756 -0.3316  1.4375
  543MOL0     H73240   1.471   6.176  10.346 -0.7446 -0.0900  0.3261
  543MOL0     H73241   1.495   6.284  10.223  0.9114 -0.5231  0.9351
  543MOL0     H73242   1.235   6.142  10.248  1.4977 -0.1851  0.2964
  543MOL0     H73243   1.274   6.306  10.323  0.5541  1.4676 -1.2438
  543MOL0     H73244   1.335   6.365  10.069 -0.9886  0.2072 -0.6370
  543MOL0     H73245   1.257   6.213  10.031  0.7997 -0.3990  0.0088
  543MOL0     H73246   1.051   6.318  10.150  3.5708 -0.5110  3.5212
  543MOL0     H73247   1.142   6.472  10.137  0.9994  0.6365 -0.3620
  543MOL0     H73248   1.165   6.470   9.916  1.4158 -1.9850 -1.2780
  543MOL0     H73249   1.126   6.304   9.887  1.7880  0.3137  0.3170
  543MOL0     H73250   0.890   6.350   9.968  2.1943 -3.6456 -0.9416
  543MOL0     H73251   0.932   6.519   9.962  1.2266  0.9676 -0.1118
  543MOL0     H73252   0.854   6.487   9.745  0.4800  1.8403  1.3505
  543MOL0     H73253   1.016   6.447   9.707 -1.4570  0.7133 -1.8623
  543MOL0     H73254   0.790   6.259   9.791  2.3932 -3.0320  1.2826
  543MOL0     H73255   0.948   6.202   9.773 -1.0602  1.3040  4.9704
  543MOL0     H73256   0.644   6.378   9.576 -0.2690 -1.5556 -1.4089
  543MOL0     H73257   0.611   6.446   9.302  2.4989  0.5132  0.0267
  543MOL0     H73258   0.683   6.323   9.198 -0.8941  1.6652 -1.0511
  543MOL0     H73259   0.442   6.295   9.385 -1.6046  1.5383 -1.2412
  543MOL0     H73260   0.527   6.151   9.313  1.1072  0.5433 -1.1682
  543MOL0     H73261   0.454   6.230   9.094 -0.1826  0.5645 -0.7634
  543MOL0     H73262   0.405   6.386   9.167 -1.6959 -0.8591 -1.6800
  543MOL0     H73263   0.285   6.117   9.223  2.4104 -0.6508 -2.4153
  543MOL0     H73264   0.247   6.243   9.100  2.7382  1.4079 -0.9139
  543MOL0     H73265   0.051   6.184   9.102 -0.2631 -0.3977  0.8363
  543MOL0     H73266  -0.280   6.215   9.028 -1.7739 -1.2245  2.0040
  543MOL0     H73267  -0.140   6.110   8.996  0.1715 -1.3992  0.0274
  543MOL0     H73268  -0.269   6.060   9.112 -0.4550  0.6236 -1.1550
  543MOL0     H73269  -0.547   6.439   9.298 -0.6338  0.0197 -1.4452
  543MOL0     H73270  -0.802   6.483   9.299 -0.3214 -0.9453 -0.0694
  543MOL0     H73271  -1.054   6.463   9.318  0.4444 -0.1931 -1.7384
  543MOL0     H73272  -1.046   6.310   9.227  0.9917  1.8108  0.1040
  543MOL0     H73273  -1.229   6.203   9.332 -1.5318  0.1704 -2.2385
  543MOL0     H73274  -1.228   6.330   9.457  0.7198 -0.7103  0.0825
  543MOL0     H73275  -1.247   6.357   9.156  0.7880 -0.6783 -0.0715
  543MOL0     H73276  -1.283   6.490   9.268  1.5789 -1.0250  2.3467
  543MOL0     H73277  -1.423   6.227   9.211 -3.2741 -0.9347  0.4388
  543MOL0     H73278  -1.487   6.325   9.345  1.7682 -0.1674  1.0746
  543MOL0     H73279  -1.486   6.420   9.057  1.5760  0.3114  0.7793
  543MOL0     H73280  -1.564   6.505   9.197 -2.3956  0.5581 -1.3229
  543MOL0     H73281  -1.611   6.224   9.082  0.2795  0.7583 -1.4532
  543MOL0     H73282  -1.710   6.303   9.210  0.3111  0.4053 -0.7334
  543MOL0     H73283  -1.778   6.311   8.950  0.9717 -1.7200  2.4254
  543MOL0     H73284  -1.691   6.471   8.964 -0.2321  0.7566  0.6190
  543MOL0     H73285  -1.920   6.482   8.987  1.3676 -0.7597 -1.0854
  543MOL0     H73286  -1.865   6.504   9.152 -2.3115  0.9858 -0.6811
  543MOL0     H73287  -0.848   6.140   9.565 -0.7547 -2.0974 -0.0054
  543MOL0     H73288  -0.599   6.115   9.570 -2.0346 -2.6968 -3.0305
  543MOL0     H73289  -0.196   6.305   9.509 -2.6921 -1.1927 -1.1281
  543MOL0     H73290   0.041   6.354   9.497 -0.8405  1.7349  0.1511
  543MOL0     H73291   1.511   5.821  10.131 -0.4960 -0.2412  0.4047
  543MOL0     H73292   1.732   5.712  10.128  0.3069  0.3763  1.0588
  543MOL0     H73293   2.146   5.748  10.324  0.9720 -0.6097  1.9926
  543MOL0     H73294   2.376   5.671  10.375  0.8694  1.0845 -0.5723
  543MOL0     H73295   2.637   5.436  10.115  0.5200  0.1848  0.4062
  543MOL0     H73296   2.649   5.601  10.067 -1.2450 -1.3824 -0.4464
  543MOL0     H73297   2.787   5.465  10.298 -5.2922 -0.9078 -1.1803
  543MOL0     H73298   2.798   5.644  10.273  1.5488 -0.2352  0.0841
  543MOL0     H73299   2.895   5.600  10.038 -1.1990 -0.4245  0.7711
  543MOL0     H73300   2.892   5.432  10.078 -2.6753 -0.2152  1.8439
  543MOL0     H73301   3.035   5.464  10.269 -4.7656  2.7144  2.1064
  543MOL0     H73302   3.041   5.641  10.247 -0.6639  0.1454  1.4057
  543MOL0     H73303   3.326   5.531   9.958 -0.3104  0.0882 -2.4585
  543MOL0     H73304   2.440   5.547   9.981  1.8774  0.8983  1.1279
  543MOL0     H73305   2.205   5.627   9.918  0.8394 -0.7266 -0.8622
  544MOL0     O73306   2.317   6.954   8.001 -0.4451 -0.8053  0.0662
  544MOL0     C73307   2.425   6.893   8.009  0.4119  0.3098  0.2127
  544MOL0     O73308   2.442   6.767   8.062  0.3800 -0.2637  0.2900
  544MOL0     C73309   2.331   6.711   8.116 -0.1088  0.3665  0.2032
  544MOL0     C73310   2.295   6.742   8.244 -0.2188  0.8447  0.1131
  544MOL0     C73311   2.187   6.675   8.300  0.6327 -0.2569  0.6573
  544MOL0     C73312   2.109   6.578   8.232 -0.2249  0.0767  0.4883
  544MOL0     O73313   2.008   6.495   8.277 -0.2012 -0.3399  0.6341
  544MOL0     C73314   1.940   6.539   8.398  0.1521 -0.3607  0.3715
  544MOL0     C73315   1.839   6.437   8.446  0.0793 -0.0805  0.1996
  544MOL0     C73316   1.772   6.501   8.566  0.5249  0.1527 -0.7096
  544MOL0     C73317   1.695   6.383   8.651  0.0524 -0.2074 -0.1325
  544MOL0     C73318   1.566   6.443   8.722 -0.6471  0.3686 -0.1458
  544MOL0     C73319   1.454   6.444   8.622 -0.0755 -0.6016 -0.1815
  544MOL0     C73320   1.326   6.471   8.700  0.2725  0.2802  0.1105
  544MOL0     C73321   1.214   6.516   8.604 -0.1020  0.2053 -0.7266
  544MOL0     N73322   1.081   6.513   8.667 -0.1448  0.5022  0.0043
  544MOL0     C73323   0.999   6.400   8.668  0.0081 -0.1214  1.0087
  544MOL0     C73324   0.902   6.425   8.763  0.2774 -0.0256  0.6752
  544MOL0     C73325   0.798   6.342   8.819 -0.7601  0.1641  0.0362
  544MOL0     C73326   0.668   6.369   8.735 -0.5406  0.5805 -0.0969
  544MOL0     C73327   0.562   6.248   8.749 -0.6819 -0.5691  0.5919
  544MOL0     C73328   0.442   6.269   8.664  0.0054  0.3829  0.2256
  544MOL0     O73329   0.316   6.237   8.736 -0.8705 -0.4390  0.1270
  544MOL0     C73330   0.196   6.264   8.681  0.0897  0.4713  0.8489
  544MOL0     C73331   0.166   6.272   8.546  0.6244 -0.0403 -0.3799
  544MOL0     C73332   0.035   6.265   8.491  0.5267  0.1004 -0.7078
  544MOL0     C73333   0.034   6.252   8.341  0.5926 -0.9597  1.1015
  544MOL0     C73334  -0.071   6.291   8.581  0.1730 -0.7450 -0.0441
  544MOL0     C73335  -0.212   6.319   8.535  0.5838  0.3063  1.3203
  544MOL0     O73336  -0.288   6.375   8.632 -0.1806 -0.2110 -0.2245
  544MOL0     C73337  -0.424   6.384   8.602  0.4308  0.0521 -0.2809
  544MOL0     C73338  -0.505   6.321   8.693  0.3382  0.3151 -0.1042
  544MOL0     C73339  -0.639   6.314   8.669 -0.7023  0.3446 -1.0322
  544MOL0     C73340  -0.696   6.384   8.565 -0.0953 -0.8942 -0.1175
  544MOL0     O73341  -0.831   6.388   8.529 -0.0401  0.0371  0.3101
  544MOL0     C73342  -0.921   6.292   8.582 -0.4022  0.4647  0.3215
  544MOL0     C73343  -1.045   6.304   8.500 -0.0068  0.0947  0.2059
  544MOL0     C73344  -1.127   6.174   8.511 -0.0488  0.4874  0.3501
  544MOL0     C73345  -1.249   6.174   8.433  0.3553  0.7556  0.7200
  544MOL0     C73346  -1.357   6.279   8.477  0.7514 -0.2643  0.4111
  544MOL0     C73347  -1.434   6.319   8.355  0.3667  0.6162 -0.6399
  544MOL0     C73348  -1.360   6.412   8.261  0.2981 -0.4104  0.2705
  544MOL0     C73349  -1.448   6.450   8.137 -0.1704 -0.2987  0.0289
  544MOL0    Cl73350  -1.416   6.322   8.015  0.1732 -0.1040  0.6685
  544MOL0     C73351  -0.610   6.458   8.480 -0.2067  0.5351  0.0160
  544MOL0     C73352  -0.477   6.449   8.492  0.2674  0.0354 -0.2919
  544MOL0     O73353  -0.244   6.302   8.418  0.7937  0.7835  0.6732
  544MOL0     C73354  -0.040   6.304   8.712  0.3046 -0.4627 -0.6002
  544MOL0     C73355   0.085   6.285   8.767  1.0703 -0.4081 -0.3653
  544MOL0     N73356   0.924   6.555   8.805  0.2983 -0.4675 -0.6407
  544MOL0     N73357   1.034   6.599   8.750  0.3900 -0.3414 -0.7408
  544MOL0     C73358   2.134   6.562   8.092  0.2622  0.1021  0.1019
  544MOL0     C73359   2.251   6.624   8.040  0.0749  0.5518  0.0598
  544MOL0     C73360   2.552   6.956   7.957 -0.7699 -0.2732 -0.3105
  544MOL0     C73361   2.675   6.886   7.962  0.4916 -0.6316  1.1420
  544MOL0     C73362   2.796   6.930   7.913  0.6144 -0.8906 -0.1743
  544MOL0     C73363   2.796   7.065   7.861 -0.5420  0.6222 -0.1723
  544MOL0     O73364   2.920   7.114   7.833  0.1281 -0.4781  0.0269
  544MOL0     C73365   2.941   7.257   7.823  0.4541  0.3795 -0.9963
  544MOL0     C73366   3.057   7.295   7.908  0.0259 -0.6638  0.4813
  544MOL0     C73367   3.189   7.227   7.861  0.6709 -0.4387 -0.8691
  544MOL0     C73368   3.323   7.301   7.910  0.2224 -0.1565  0.9929
  544MOL0     C73369   3.320   7.310   8.050  0.5743 -0.0253  0.0097
  544MOL0     C73370   3.332   7.323   8.174  0.8822  0.6698  0.8133
  544MOL0     C73371   2.674   7.139   7.848  0.0061  0.5578  0.2686
  544MOL0     C73372   2.548   7.087   7.896 -0.4045  0.1929  0.0775
  544MOL0     H73373   2.351   6.813   8.303  1.2647 -1.5207  1.7248
  544MOL0     H73374   2.180   6.714   8.401  0.6825  1.7162 -0.0714
  544MOL0     H73375   2.007   6.537   8.485 -0.6101 -3.5239  1.0178
  544MOL0     H73376   1.905   6.642   8.390  1.7267  0.1715 -0.0070
  544MOL0     H73377   1.768   6.412   8.366 -0.8509  0.2436  0.9072
  544MOL0     H73378   1.895   6.346   8.469  0.5523  0.6224  1.9715
  544MOL0     H73379   1.851   6.546   8.628 -1.4166  1.1580  1.1445
  544MOL0     H73380   1.696   6.573   8.536  0.2846  0.9641  1.6732
  544MOL0     H73381   1.681   6.292   8.592  2.8739  0.6252 -2.3111
  544MOL0     H73382   1.765   6.359   8.732  0.2362  1.4263  0.2154
  544MOL0     H73383   1.534   6.364   8.791  2.1334 -1.3224 -0.6183
  544MOL0     H73384   1.577   6.543   8.765 -1.2840  0.1260  0.5978
  544MOL0     H73385   1.467   6.523   8.548 -0.3372  0.5163  0.9205
  544MOL0     H73386   1.448   6.350   8.567 -1.9964  1.1785 -3.3242
  544MOL0     H73387   1.301   6.378   8.752  2.4819 -0.7281 -0.5292
  544MOL0     H73388   1.334   6.550   8.776  1.5334  1.1722 -0.9010
  544MOL0     H73389   1.213   6.462   8.509 -0.9362  0.9199 -1.1392
  544MOL0     H73390   1.230   6.618   8.568  1.1636 -0.4237 -2.0434
  544MOL0     H73391   0.987   6.327   8.589 -0.0600  2.5554 -1.6378
  544MOL0     H73392   0.825   6.236   8.820  0.6624  0.5137  0.3929
  544MOL0     H73393   0.796   6.362   8.927  0.2373  1.7891 -0.2186
  544MOL0     H73394   0.691   6.378   8.628 -0.9843  0.3248 -0.2164
  544MOL0     H73395   0.623   6.467   8.753 -0.8793  0.1993  1.2242
  544MOL0     H73396   0.530   6.245   8.854  1.0789  1.9685  1.2946
  544MOL0     H73397   0.606   6.155   8.712  3.2464  1.8745 -1.5217
  544MOL0     H73398   0.446   6.201   8.578 -2.0614  0.4495  0.0220
  544MOL0     H73399   0.450   6.371   8.624  0.6487 -0.4962 -2.0492
  544MOL0     H73400   0.252   6.262   8.480  2.2249 -1.9703  1.8252
  544MOL0     H73401   0.004   6.347   8.298 -0.7555 -1.3972  1.0316
  544MOL0     H73402   0.121   6.200   8.299  0.2213 -1.7296  1.2537
  544MOL0     H73403  -0.052   6.191   8.313 -0.5859  0.5287  1.3867
  544MOL0     H73404  -0.462   6.280   8.784 -2.5876 -1.2114  0.7238
  544MOL0     H73405  -0.691   6.251   8.741 -0.6246  0.7154 -0.6491
  544MOL0     H73406  -0.877   6.192   8.568 -0.5342  0.5331 -0.7045
  544MOL0     H73407  -0.927   6.310   8.689  0.4721  1.0163  0.2935
  544MOL0     H73408  -1.117   6.379   8.533 -1.9532 -1.5153 -0.1987
  544MOL0     H73409  -1.022   6.329   8.396  0.6741 -0.5224  0.2015
  544MOL0     H73410  -1.152   6.154   8.615 -2.0027 -0.6338 -0.2783
  544MOL0     H73411  -1.056   6.103   8.467  1.6506  1.7021  0.9936
  544MOL0     H73412  -1.221   6.179   8.327  3.1372  0.8599  1.3821
  544MOL0     H73413  -1.279   6.070   8.446  6.0407 -1.1566  1.2434
  544MOL0     H73414  -1.311   6.369   8.519 -2.2133  0.4309  2.5279
  544MOL0     H73415  -1.433   6.238   8.544 -0.6973  0.5616 -0.6623
  544MOL0     H73416  -1.467   6.231   8.299 -0.2662 -0.9672  2.0485
  544MOL0     H73417  -1.522   6.371   8.394 -0.9975 -3.2621  2.0123
  544MOL0     H73418  -1.261   6.374   8.236  1.0165  2.6185 -2.1064
  544MOL0     H73419  -1.333   6.509   8.303  1.1784  0.2135 -1.6078
  544MOL0     H73420  -1.407   6.535   8.082  1.1582 -1.6524 -1.1763
  544MOL0     H73421  -1.555   6.462   8.155 -0.6722 -0.8527 -2.2303
  544MOL0     H73422  -0.658   6.517   8.402 -1.7002 -1.0144 -0.2887
  544MOL0     H73423  -0.409   6.501   8.426 -0.5513  0.0327 -1.1540
  544MOL0     H73424  -0.129   6.310   8.774 -0.3563  0.4808 -1.6095
  544MOL0     H73425   0.088   6.288   8.875 -2.1702 -1.0194 -0.1702
  544MOL0     H73426   2.077   6.489   8.036  2.1565  1.2472 -3.6837
  544MOL0     H73427   2.276   6.612   7.935 -2.6128  1.0353 -0.7113
  544MOL0     H73428   2.673   6.789   8.010 -1.1053 -1.1939  0.0209
  544MOL0     H73429   2.887   6.874   7.929  1.0472  0.4706  2.8551
  544MOL0     H73430   2.958   7.268   7.716 -1.0851  1.1078 -1.1831
  544MOL0     H73431   2.851   7.311   7.854  0.4713  0.2615 -0.7322
  544MOL0     H73432   3.031   7.271   8.011  2.0772  0.0407  1.2038
  544MOL0     H73433   3.079   7.402   7.903  1.0218 -0.7412  2.5676
  544MOL0     H73434   3.200   7.224   7.752 -1.1690 -1.3849 -1.0688
  544MOL0     H73435   3.193   7.125   7.899  1.6829  0.1505  0.6906
  544MOL0     H73436   3.340   7.401   7.869  1.4563 -0.9455 -0.5385
  544MOL0     H73437   3.397   7.224   7.885 -0.8948 -1.6759  2.1285
  544MOL0     H73438   3.334   7.326   8.281  2.4033 -0.5912  0.8511
  544MOL0     H73439   2.673   7.233   7.795  1.9607 -0.7940 -2.4057
  544MOL0     H73440   2.448   7.127   7.883 -0.0605  0.9555 -0.3252
  545MOL0     O73441   6.871   5.221   9.683 -0.2663  0.0496  0.3229
  545MOL0     C73442   6.910   5.111   9.662 -0.3271  0.9184 -0.1717
  545MOL0     O73443   6.836   4.995   9.646  0.0837  0.0447  0.3716
  545MOL0     C73444   6.703   4.997   9.684  0.4775 -0.1087 -0.3193
  545MOL0     C73445   6.617   4.918   9.622  0.1751  0.1690 -0.2875
  545MOL0     C73446   6.484   4.901   9.667  0.2969 -0.4019 -0.4969
  545MOL0     C73447   6.432   4.975   9.778  0.4506  0.6198 -0.2056
  545MOL0     O73448   6.298   4.948   9.817 -0.4404 -0.1027 -0.0186
  545MOL0     C73449   6.266   4.963   9.952  0.4903  0.2161 -0.9768
  545MOL0     C73450   6.111   4.934   9.968 -0.0235  0.8106 -0.2738
  545MOL0     C73451   6.021   5.027   9.875 -0.5925 -0.0291  0.4695
  545MOL0     C73452   5.879   4.981   9.910  0.0360 -0.0894  0.1798
  545MOL0     C73453   5.777   5.076   9.837 -0.4293  0.2811 -0.2729
  545MOL0     C73454   5.639   5.015   9.845  0.7379  0.4881  0.1542
  545MOL0     C73455   5.546   5.129   9.783 -0.0025  0.2349  0.2642
  545MOL0     C73456   5.395   5.093   9.805 -1.2183  0.4656  0.5240
  545MOL0     N73457   5.340   5.012   9.704  0.4323  0.5383  0.1451
  545MOL0     C73458   5.280   5.062   9.589  0.3784 -0.0577 -0.3629
  545MOL0     C73459   5.263   4.947   9.509 -0.0445 -0.0732  0.1014
  545MOL0     C73460   5.214   4.943   9.358 -0.1108 -0.0258 -0.9413
  545MOL0     C73461   5.056   4.924   9.359 -0.2726 -0.0361  0.1470
  545MOL0     C73462   5.000   4.894   9.217  0.6391  0.3662  0.2360
  545MOL0     C73463   4.852   4.925   9.205  0.4472 -0.1159 -0.1510
  545MOL0     O73464   4.768   4.819   9.269  0.2074 -0.5193 -0.7880
  545MOL0     C73465   4.630   4.851   9.281 -0.4671  0.6333 -0.0076
  545MOL0     C73466   4.554   4.788   9.374  0.8503  1.0502 -0.2762
  545MOL0     C73467   4.417   4.804   9.386 -0.4967  0.1552  0.0650
  545MOL0     C73468   4.349   4.734   9.500 -0.4702 -0.1566 -0.6096
  545MOL0     C73469   4.350   4.878   9.286 -0.2275 -0.3040  0.2868
  545MOL0     C73470   4.205   4.897   9.283 -0.4231 -0.1208  0.2612
  545MOL0     O73471   4.159   4.921   9.161  0.7472  0.2910  0.0109
  545MOL0     C73472   4.030   4.970   9.159  0.6659  0.4244  0.5267
  545MOL0     C73473   3.923   4.878   9.133  0.2068 -0.4574 -0.3453
  545MOL0     C73474   3.797   4.933   9.122 -0.3401  0.0615  0.0205
  545MOL0     C73475   3.771   5.069   9.143 -0.0357 -0.5667  0.7501
  545MOL0     O73476   3.643   5.110   9.114 -0.6744  0.7871  0.3703
  545MOL0     C73477   3.578   5.227   9.176 -0.5358  0.1019 -1.0898
  545MOL0     C73478   3.444   5.178   9.222  0.4991 -0.7581  0.6151
  545MOL0     C73479   3.343   5.155   9.107 -0.9394  0.0832 -0.0325
  545MOL0     C73480   3.216   5.104   9.165  0.8619  0.6710  0.5018
  545MOL0     C73481   3.095   5.120   9.074 -0.1760  0.2979  0.5467
  545MOL0     C73482   3.111   5.095   8.925 -0.5834  0.7273 -0.7930
  545MOL0     C73483   2.969   5.082   8.850 -0.5089 -0.5672  0.2515
  545MOL0     C73484   2.988   5.090   8.708 -0.2748  0.4465 -0.3415
  545MOL0    Cl73485   3.065   5.240   8.645 -0.0949  0.1848  0.0897
  545MOL0     C73486   3.875   5.159   9.172  0.2205  0.0499 -0.1272
  545MOL0     C73487   4.002   5.107   9.171  0.2104 -0.0917 -0.3525
  545MOL0     O73488   4.137   4.889   9.382  0.0505  0.6151 -0.6552
  545MOL0     C73489   4.422   4.950   9.188  0.8115 -0.0129  0.8424
  545MOL0     C73490   4.559   4.934   9.183 -0.3077  0.1965 -0.3336
  545MOL0     N73491   5.303   4.839   9.584 -0.0344 -0.0529  0.2105
  545MOL0     N73492   5.361   4.871   9.693  0.3068 -0.4863 -0.0605
  545MOL0     C73493   6.524   5.062   9.844 -0.1355  0.6795  0.4332
  545MOL0     C73494   6.661   5.066   9.801  0.1264 -0.1131  0.1298
  545MOL0     C73495   7.056   5.092   9.654 -0.2385 -0.9710  0.8722
  545MOL0     C73496   7.114   4.972   9.627 -0.1788  0.3673 -0.4104
  545MOL0     C73497   7.254   4.952   9.625  0.0381 -0.1246 -0.4211
  545MOL0     C73498   7.334   5.065   9.643  0.1167  0.1855  0.4679
  545MOL0     O73499   7.464   5.031   9.641 -0.5678 -0.3440  0.9500
  545MOL0     C73500   7.554   5.132   9.692  0.0446  0.2364 -0.4784
  545MOL0     C73501   7.694   5.085   9.703 -0.3285  0.1973 -0.4652
  545MOL0     C73502   7.801   5.170   9.767 -0.4072 -0.1642  0.5272
  545MOL0     C73503   7.944   5.119   9.757 -0.2334 -0.1755 -0.5326
  545MOL0     C73504   8.033   5.203   9.842  0.4046  0.6566  0.1952
  545MOL0     C73505   8.097   5.288   9.903 -0.3870  0.3114  0.7238
  545MOL0     C73506   7.271   5.192   9.663 -0.3641  0.1231  0.2298
  545MOL0     C73507   7.129   5.212   9.666 -0.8100  0.2203 -0.5580
  545MOL0     H73508   6.658   4.860   9.540  1.2934 -0.5806  0.7539
  545MOL0     H73509   6.422   4.834   9.609  0.5843  0.0073 -1.2820
  545MOL0     H73510   6.326   4.899  10.018 -2.7948  0.8231  2.9337
  545MOL0     H73511   6.280   5.065   9.989  2.2133 -0.6034  0.8454
  545MOL0     H73512   6.079   4.832   9.943 -3.1975  1.6351  0.0222
  545MOL0     H73513   6.093   4.942  10.076  2.9803 -0.8073  0.4593
  545MOL0     H73514   6.030   5.131   9.907  2.5363  0.1884 -0.7000
  545MOL0     H73515   6.040   5.007   9.769  4.3535 -0.7717  1.2289
  545MOL0     H73516   5.858   4.877   9.882  0.0151  0.1037 -0.5208
  545MOL0     H73517   5.866   4.987  10.019 -1.8269  2.7357 -0.1014
  545MOL0     H73518   5.786   5.170   9.892  0.9255  0.5684 -0.9377
  545MOL0     H73519   5.810   5.089   9.733 -1.9751 -0.8685 -0.9536
  545MOL0     H73520   5.620   4.928   9.782  0.1930  1.2679 -0.7914
  545MOL0     H73521   5.626   4.999   9.952 -0.3568  3.2086  0.5002
  545MOL0     H73522   5.570   5.226   9.827  2.2244 -0.3134  0.4037
  545MOL0     H73523   5.566   5.130   9.675 -0.2435  1.1506  0.2225
  545MOL0     H73524   5.330   5.180   9.817  0.4132  1.6099  1.4796
  545MOL0     H73525   5.384   5.029   9.893 -2.9897 -0.5728 -0.4068
  545MOL0     H73526   5.258   5.167   9.575  2.4511  0.2213 -2.0134
  545MOL0     H73527   5.226   5.043   9.315 -0.3638 -0.0464 -1.0588
  545MOL0     H73528   5.260   4.861   9.301 -1.7312 -2.3354  0.8960
  545MOL0     H73529   5.003   5.011   9.399 -0.2280  1.0613 -2.0252
  545MOL0     H73530   5.029   4.838   9.421 -0.7545 -0.6188 -0.8279
  545MOL0     H73531   5.019   4.791   9.188 -3.0397 -0.7977  1.4321
  545MOL0     H73532   5.055   4.949   9.140  1.7890 -1.4785 -0.3247
  545MOL0     H73533   4.819   4.933   9.101 -1.2229  2.0440  0.4733
  545MOL0     H73534   4.817   5.023   9.238 -2.3485 -0.3027 -2.2236
  545MOL0     H73535   4.608   4.719   9.438  0.8072  0.4021 -0.9207
  545MOL0     H73536   4.254   4.694   9.465  0.4838 -3.1790 -0.0458
  545MOL0     H73537   4.410   4.657   9.550  0.7571  1.0603 -0.1437
  545MOL0     H73538   4.345   4.812   9.577  1.7900  0.8935 -1.4766
  545MOL0     H73539   3.939   4.771   9.135 -0.3117 -0.5354 -0.4721
  545MOL0     H73540   3.710   4.877   9.088 -0.3219  1.5737 -2.8173
  545MOL0     H73541   3.632   5.263   9.263 -1.6049 -1.2937  0.2120
  545MOL0     H73542   3.572   5.313   9.108 -2.1963  1.1848  0.3523
  545MOL0     H73543   3.452   5.081   9.272 -0.1935 -0.4863  1.2675
  545MOL0     H73544   3.398   5.258   9.280  0.1541  1.4595 -2.4307
  545MOL0     H73545   3.380   5.088   9.029  0.1650  0.8248 -0.1698
  545MOL0     H73546   3.325   5.244   9.046 -2.4847  1.4096  2.2004
  545MOL0     H73547   3.225   5.001   9.200 -2.4720 -0.2696 -1.0635
  545MOL0     H73548   3.197   5.153   9.261  1.3511  0.5089  0.6863
  545MOL0     H73549   3.071   5.225   9.092  0.8557  0.9624 -1.5968
  545MOL0     H73550   3.007   5.065   9.106  0.2727 -0.5844  0.3017
  545MOL0     H73551   3.177   5.165   8.874 -1.2020  0.9637 -1.2865
  545MOL0     H73552   3.154   4.995   8.918 -1.8566  0.0520  0.3640
  545MOL0     H73553   2.918   5.173   8.880  0.9209  0.3381  0.0323
  545MOL0     H73554   2.910   4.994   8.879  0.2504 -0.5195  2.1001
  545MOL0     H73555   2.888   5.090   8.663 -0.0969  1.5677 -0.7735
  545MOL0     H73556   3.037   5.004   8.661  0.4851  2.5990 -3.9038
  545MOL0     H73557   3.856   5.266   9.174 -1.3400 -0.1265 -1.8941
  545MOL0     H73558   4.084   5.174   9.195 -1.5591  1.0357  3.1849
  545MOL0     H73559   4.371   5.001   9.107 -1.6394 -4.8251 -1.0223
  545MOL0     H73560   4.621   4.968   9.101  3.2634 -0.8023  1.7237
  545MOL0     H73561   6.491   5.127   9.925 -1.9841  1.6614 -1.0062
  545MOL0     H73562   6.731   5.117   9.866  0.0798  0.0084  0.0868
  545MOL0     H73563   7.068   4.876   9.606 -0.3690  0.1545  0.8939
  545MOL0     H73564   7.293   4.853   9.600 -4.1027 -1.7887 -1.1720
  545MOL0     H73565   7.569   5.216   9.624  2.2195 -0.7992 -1.3548
  545MOL0     H73566   7.528   5.164   9.794 -0.5176 -1.9965  0.1260
  545MOL0     H73567   7.737   5.063   9.605 -0.2337  1.2424 -0.6679
  545MOL0     H73568   7.683   4.987   9.750 -0.9532  1.4582  2.2335
  545MOL0     H73569   7.786   5.171   9.875  0.2729 -4.2838  0.8263
  545MOL0     H73570   7.784   5.271   9.728 -1.0971 -0.3847  0.2167
  545MOL0     H73571   7.991   5.130   9.659  2.0077 -1.1532  0.3600
  545MOL0     H73572   7.938   5.016   9.794 -3.0650 -0.7731 -2.2751
  545MOL0     H73573   8.145   5.369   9.954  0.2242 -0.1442  0.8865
  545MOL0     H73574   7.338   5.277   9.673  1.3312 -1.2927  1.7696
  545MOL0     H73575   7.091   5.312   9.686  1.5349  0.9173  0.8050
  546MOL0     O73576   3.165  10.211   3.541 -0.7560  0.3528 -0.5221
  546MOL0     C73577   3.175  10.093   3.495  0.4131 -0.4418 -0.5655
  546MOL0     O73578   3.078   9.999   3.502 -0.5502 -0.0617  0.4778
  546MOL0     C73579   2.955  10.038   3.561  0.5928 -0.3942 -0.7571
  546MOL0     C73580   2.853  10.079   3.477 -0.4619  0.3012  0.4781
  546MOL0     C73581   2.733  10.137   3.527 -0.7540  0.6969  0.0273
  546MOL0     C73582   2.719  10.140   3.660  0.1114  0.2084 -0.7292
  546MOL0     O73583   2.616  10.212   3.714  0.2841 -0.0838 -0.8230
  546MOL0     C73584   2.559  10.325   3.651  0.4473 -0.9918  0.4455
  546MOL0     C73585   2.449  10.397   3.741 -0.3431 -0.4781  0.6202
  546MOL0     C73586   2.322  10.319   3.755 -0.0325 -0.0912 -0.0579
  546MOL0     C73587   2.217  10.404   3.824 -0.2635 -0.7455  0.3767
  546MOL0     C73588   2.072  10.341   3.794 -0.5197  0.3011 -0.6537
  546MOL0     C73589   1.961  10.412   3.871  0.7488  0.0668  0.1502
  546MOL0     C73590   1.823  10.349   3.834  1.2181  0.4248  0.0102
  546MOL0     C73591   1.719  10.415   3.927  0.2350  0.0602 -0.4013
  546MOL0     N73592   1.578  10.400   3.879 -1.3945  0.0490 -0.6151
  546MOL0     C73593   1.532  10.283   3.839 -0.8954  0.2590  0.9631
  546MOL0     C73594   1.411  10.316   3.773  0.4905  0.0493 -0.2623
  546MOL0     C73595   1.306  10.223   3.719  0.1429 -1.4792  0.4607
  546MOL0     C73596   1.209  10.207   3.836 -0.2399  0.4516 -0.3402
  546MOL0     C73597   1.118  10.079   3.823 -0.0195 -0.1262 -0.5672
  546MOL0     C73598   1.009  10.097   3.718 -0.0603  0.0790  0.2158
  546MOL0     O73599   0.904  10.163   3.791 -0.5526  0.1326  0.1931
  546MOL0     C73600   0.776  10.158   3.737 -0.3845  0.3427  0.0212
  546MOL0     C73601   0.677  10.229   3.797 -0.5418 -0.7486  0.1908
  546MOL0     C73602   0.540  10.232   3.749 -0.6529  0.4393 -1.0865
  546MOL0     C73603   0.450  10.340   3.799 -0.7205  0.6391  0.9104
  546MOL0     C73604   0.502  10.128   3.657  0.4971  0.0371 -0.3733
  546MOL0     C73605   0.361  10.088   3.620 -0.2555 -0.2085 -1.1202
  546MOL0     O73606   0.336  10.026   3.504 -0.0766 -0.4579 -0.1733
  546MOL0     C73607   0.211   9.980   3.464  0.1329  0.2144  0.3089
  546MOL0     C73608   0.090  10.021   3.518 -0.1518  0.4504  0.0484
  546MOL0     C73609  -0.025   9.975   3.475 -0.3135  0.6841  0.2721
  546MOL0     C73610  -0.025   9.877   3.370  0.4555 -0.0927  0.0982
  546MOL0     O73611  -0.152   9.840   3.337  0.0698 -0.2419  0.3259
  546MOL0     C73612  -0.160   9.718   3.255 -1.1703 -1.2589 -1.7331
  546MOL0     C73613  -0.303   9.688   3.249 -0.3763 -0.0803 -0.4722
  546MOL0     C73614  -0.394   9.673   3.375 -0.7422 -0.7848 -0.4679
  546MOL0     C73615  -0.547   9.671   3.335 -0.6525  0.5570  0.5221
  546MOL0     C73616  -0.628   9.636   3.461  0.6848  0.4444 -0.8159
  546MOL0     C73617  -0.630   9.491   3.493 -0.2774 -0.4935  0.4412
  546MOL0     C73618  -0.727   9.481   3.617 -0.5567 -0.7993  0.4369
  546MOL0     C73619  -0.671   9.493   3.757 -0.5414 -1.1777 -0.5480
  546MOL0    Cl73620  -0.808   9.494   3.872 -0.3825  0.1570 -0.2259
  546MOL0     C73621   0.095   9.826   3.310  0.1609 -0.2542 -0.4062
  546MOL0     C73622   0.209   9.881   3.367 -0.2680  1.1231 -0.5462
  546MOL0     O73623   0.275  10.131   3.701 -0.3231 -0.7625 -0.1903
  546MOL0     C73624   0.602  10.062   3.596 -0.1939 -0.9234  0.3508
  546MOL0     C73625   0.740  10.083   3.620 -0.0014 -0.2597 -0.1889
  546MOL0     N73626   1.386  10.450   3.793  0.6158 -0.0767  0.1858
  546MOL0     N73627   1.496  10.499   3.848 -0.5307 -0.4024 -0.1730
  546MOL0     C73628   2.815  10.087   3.750 -0.2286 -0.8926  0.1886
  546MOL0     C73629   2.930  10.024   3.701 -0.3489  0.0130 -0.4647
  546MOL0     C73630   3.294  10.049   3.428 -0.4146 -0.4203 -1.5795
  546MOL0     C73631   3.289   9.939   3.335 -0.2588  0.6954 -1.2929
  546MOL0     C73632   3.418   9.895   3.287  0.3563  0.3061 -0.9443
  546MOL0     C73633   3.545   9.955   3.332  0.2566 -0.1103  0.2393
  546MOL0     O73634   3.658   9.892   3.292  0.3443  1.0849 -0.4679
  546MOL0     C73635   3.788   9.939   3.325 -0.1972  0.0464  0.2115
  546MOL0     C73636   3.819   9.922   3.478 -0.8715 -0.9260 -0.3107
  546MOL0     C73637   3.951   9.987   3.513 -0.6293 -1.1652 -0.0936
  546MOL0     C73638   4.061   9.909   3.441  0.2692  0.3365 -0.3282
  546MOL0     C73639   4.187   9.955   3.494  1.8611 -0.3621  0.2724
  546MOL0     C73640   4.295   9.985   3.537 -0.0431  1.0530 -0.0104
  546MOL0     C73641   3.532  10.059   3.425 -0.0670 -0.5122  0.2533
  546MOL0     C73642   3.416  10.114   3.464 -0.9787 -0.4345 -0.3587
  546MOL0     H73643   2.849  10.075   3.368 -2.0903  1.6113  0.4383
  546MOL0     H73644   2.656  10.164   3.455  0.0017  0.4560 -0.8849
  546MOL0     H73645   2.634  10.402   3.630 -1.9416  0.3059 -5.6067
  546MOL0     H73646   2.506  10.313   3.556 -0.7489  3.7292  0.2402
  546MOL0     H73647   2.500  10.402   3.838  1.6674 -0.7485 -0.3626
  546MOL0     H73648   2.428  10.497   3.702 -0.7338 -0.8200 -0.0752
  546MOL0     H73649   2.295  10.300   3.651 -0.2518 -2.1250  0.3448
  546MOL0     H73650   2.341  10.232   3.818  0.6488 -0.1665 -0.3616
  546MOL0     H73651   2.233  10.434   3.928  0.8546 -0.7381  0.2185
  546MOL0     H73652   2.211  10.502   3.776 -3.4362 -1.3158 -0.6357
  546MOL0     H73653   2.060  10.342   3.685  1.9064  1.1963 -0.9693
  546MOL0     H73654   2.070  10.240   3.836 -1.8901  1.1802  1.6063
  546MOL0     H73655   1.984  10.417   3.977  1.0630  0.8036  0.0496
  546MOL0     H73656   1.952  10.519   3.852  0.5911 -0.1296 -1.0116
  546MOL0     H73657   1.795  10.363   3.729  0.6487 -0.1695  0.0732
  546MOL0     H73658   1.809  10.242   3.852 -0.5794  0.9604  2.2295
  546MOL0     H73659   1.738  10.522   3.921  1.2887 -0.0604  0.3557
  546MOL0     H73660   1.722  10.370   4.027 -1.3997 -4.5021 -2.1047
  546MOL0     H73661   1.569  10.182   3.848  0.4383  0.4604 -1.4389
  546MOL0     H73662   1.264  10.268   3.629  1.6027  1.9638  1.3291
  546MOL0     H73663   1.350  10.126   3.697 -0.5116 -1.8757  0.8532
  546MOL0     H73664   1.144  10.294   3.849 -2.3603 -0.5785 -3.1150
  546MOL0     H73665   1.267  10.193   3.928  0.6062 -1.8974 -1.1560
  546MOL0     H73666   1.076  10.056   3.922 -0.3657 -1.0520 -0.9208
  546MOL0     H73667   1.174   9.990   3.794  1.2066  1.2731 -2.7878
  546MOL0     H73668   0.992   9.998   3.673  1.5747  0.6857 -1.8843
  546MOL0     H73669   1.038  10.163   3.636  0.2454  0.2288  0.4418
  546MOL0     H73670   0.709  10.296   3.876 -0.4011  0.2386 -0.6757
  546MOL0     H73671   0.407  10.403   3.721  1.9645  1.1502 -0.2807
  546MOL0     H73672   0.384  10.303   3.878  1.0935 -0.1266  2.1518
  546MOL0     H73673   0.524  10.404   3.848  1.1393 -1.4067  0.9251
  546MOL0     H73674   0.068  10.100   3.589 -1.0008  2.5830 -2.4487
  546MOL0     H73675  -0.120  10.010   3.514 -0.7843 -0.9442  0.6467
  546MOL0     H73676  -0.126   9.720   3.151  0.8362 -4.4266 -1.2698
  546MOL0     H73677  -0.107   9.636   3.303 -0.3416  1.2101  1.9190
  546MOL0     H73678  -0.353   9.761   3.184 -3.0206 -0.5545  0.8853
  546MOL0     H73679  -0.311   9.589   3.202  0.9400 -0.8459  0.8423
  546MOL0     H73680  -0.372   9.745   3.454  0.3826 -0.6104 -0.9234
  546MOL0     H73681  -0.353   9.587   3.429  1.2509  0.5606  0.2762
  546MOL0     H73682  -0.590   9.766   3.305 -1.4202 -0.0795 -0.4344
  546MOL0     H73683  -0.549   9.602   3.250  0.5472  0.8578  0.2213
  546MOL0     H73684  -0.726   9.681   3.439  0.8091  1.3799  0.4359
  546MOL0     H73685  -0.585   9.683   3.550  0.2644  0.6030 -0.6937
  546MOL0     H73686  -0.675   9.442   3.407 -2.3223  0.9904  0.5964
  546MOL0     H73687  -0.531   9.456   3.526 -0.3724 -1.0507  0.1331
  546MOL0     H73688  -0.768   9.380   3.611 -1.1907 -0.5798  0.9735
  546MOL0     H73689  -0.801   9.561   3.615 -0.1479 -0.2943  2.6232
  546MOL0     H73690  -0.620   9.590   3.767  0.2246 -1.8266  2.9248
  546MOL0     H73691  -0.608   9.408   3.783 -0.1261 -0.2625  1.6442
  546MOL0     H73692   0.101   9.755   3.229 -0.3562 -1.0684  0.2477
  546MOL0     H73693   0.307   9.862   3.324  1.4917 -0.5959  3.6902
  546MOL0     H73694   0.573   9.994   3.517 -2.5263 -1.8553  1.8882
  546MOL0     H73695   0.810  10.037   3.551 -1.0321  0.1437 -1.5661
  546MOL0     H73696   2.781  10.080   3.853  0.2832  0.5040  0.4760
  546MOL0     H73697   2.993   9.970   3.770  0.6262 -2.1198 -2.8765
  546MOL0     H73698   3.207   9.880   3.295 -0.7172  0.3278  0.1266
  546MOL0     H73699   3.431   9.807   3.225  1.3456 -2.0411  2.3130
  546MOL0     H73700   3.860   9.885   3.262  1.2263 -1.7111  3.1406
  546MOL0     H73701   3.794  10.042   3.289  1.9285  1.0882  3.1585
  546MOL0     H73702   3.832   9.817   3.503  3.6016 -0.4171  0.3205
  546MOL0     H73703   3.741   9.965   3.543 -0.6179 -1.8561  0.6303
  546MOL0     H73704   3.965   9.990   3.622  1.1946 -1.8577 -0.2652
  546MOL0     H73705   3.934  10.089   3.477  0.4881 -1.2632 -0.9579
  546MOL0     H73706   4.058   9.946   3.339  2.0956 -0.1165 -0.5969
  546MOL0     H73707   4.045   9.801   3.454  0.4748  0.4224  0.8143
  546MOL0     H73708   4.384  10.003   3.593 -1.1459 -1.3559  2.7569
  546MOL0     H73709   3.620  10.116   3.453 -0.5932  0.3510  0.1968
  546MOL0     H73710   3.422  10.202   3.527  2.0351  0.0619 -1.1741
  547MOL0     O73711   6.933   2.163   0.383 -0.5204  0.1994  0.7787
  547MOL0     C73712   7.002   2.145   0.481  0.0704  0.0381 -1.1205
  547MOL0     O73713   6.964   2.075   0.594  0.9215  0.6721  0.1133
  547MOL0     C73714   6.826   2.073   0.608 -0.0781 -0.0374  0.0367
  547MOL0     C73715   6.766   2.173   0.685 -0.2716  0.8958  0.7245
  547MOL0     C73716   6.632   2.162   0.711  0.0804  0.4024 -0.4892
  547MOL0     C73717   6.552   2.049   0.684 -0.0504  0.4120 -0.0575
  547MOL0     O73718   6.419   2.023   0.722 -0.5243 -0.6212 -0.7163
  547MOL0     C73719   6.356   2.139   0.783  0.6984  0.3087 -0.2858
  547MOL0     C73720   6.272   2.218   0.689 -0.6841 -0.0779 -0.7557
  547MOL0     C73721   6.143   2.147   0.637  0.5581  1.4497  0.7004
  547MOL0     C73722   6.083   2.226   0.523 -0.2717  0.1618  0.4944
  547MOL0     C73723   5.951   2.176   0.466  0.5255  0.0145  0.0648
  547MOL0     C73724   5.836   2.232   0.553  0.0555  0.1689 -0.1353
  547MOL0     C73725   5.703   2.182   0.489 -0.4279  1.1070 -0.3342
  547MOL0     C73726   5.592   2.166   0.589  0.2637 -0.6357  0.5847
  547MOL0     N73727   5.472   2.098   0.533 -0.0513  0.3717  0.6931
  547MOL0     C73728   5.397   2.140   0.428  0.4092 -0.5632 -0.2467
  547MOL0     C73729   5.285   2.054   0.435 -0.1040  0.2975  0.0993
  547MOL0     C73730   5.158   2.071   0.360 -0.5007 -0.5289  0.2454
  547MOL0     C73731   5.033   2.115   0.450 -0.2801  0.3729  0.2799
  547MOL0     C73732   4.917   2.170   0.367  0.0737  0.4707 -0.2896
  547MOL0     C73733   4.813   2.241   0.459  0.0098 -0.3150 -0.6078
  547MOL0     O73734   4.748   2.148   0.543 -0.3905  0.2063  0.0689
  547MOL0     C73735   4.620   2.166   0.586 -0.1578 -0.2008 -0.1787
  547MOL0     C73736   4.558   2.291   0.599  0.7233  0.3929 -0.8282
  547MOL0     C73737   4.425   2.299   0.654 -0.3635 -0.4409 -0.2740
  547MOL0     C73738   4.375   2.442   0.650  0.0684 -0.6575 -0.1042
  547MOL0     C73739   4.355   2.185   0.701 -0.1639  0.0402 -0.1789
  547MOL0     C73740   4.216   2.181   0.742  0.9862  0.2105  0.3838
  547MOL0     O73741   4.160   2.058   0.776 -1.3416  0.2261  0.1515
  547MOL0     C73742   4.030   2.040   0.811 -0.5390 -0.7157  0.5074
  547MOL0     C73743   3.951   1.945   0.748 -0.7691 -0.4124 -0.4054
  547MOL0     C73744   3.816   1.933   0.771  0.1655  0.2955 -0.0302
  547MOL0     C73745   3.763   1.994   0.884  0.3058  0.5935  0.0686
  547MOL0     O73746   3.629   1.985   0.918 -0.0915  0.5846 -0.2282
  547MOL0     C73747   3.557   2.054   0.820 -0.0457 -0.6893  0.0701
  547MOL0     C73748   3.425   2.093   0.890  0.3231  0.3777  0.6491
  547MOL0     C73749   3.446   2.213   0.983  0.1748 -0.1207 -0.8920
  547MOL0     C73750   3.440   2.349   0.910 -0.3064  0.3175  0.0851
  547MOL0     C73751   3.421   2.476   0.999 -0.3043 -0.3517 -0.3825
  547MOL0     C73752   3.419   2.606   0.908  0.5366  0.0898  0.3989
  547MOL0     C73753   3.434   2.733   0.994 -0.2273 -0.7432 -0.1640
  547MOL0     C73754   3.582   2.752   1.021  0.3182 -0.0334  0.2390
  547MOL0    Cl73755   3.627   2.920   1.074 -0.1999  0.1662  0.0867
  547MOL0     C73756   3.846   2.084   0.955  0.7446 -0.3922 -0.5192
  547MOL0     C73757   3.981   2.113   0.916  0.2154 -0.1665 -0.1906
  547MOL0     O73758   4.155   2.284   0.728 -0.4077 -0.2627 -0.7723
  547MOL0     C73759   4.416   2.061   0.679  0.2423 -0.9034 -0.0522
  547MOL0     C73760   4.548   2.052   0.636 -0.1950 -0.0404 -0.5464
  547MOL0     N73761   5.315   1.957   0.527  0.8875  0.3412  0.4071
  547MOL0     N73762   5.415   1.985   0.585  0.1487 -0.4549 -0.5059
  547MOL0     C73763   6.615   1.947   0.614  0.2060  0.0721  1.3017
  547MOL0     C73764   6.750   1.960   0.571  1.5309 -0.2018  0.8421
  547MOL0     C73765   7.141   2.188   0.488  0.0127  0.4601  0.1012
  547MOL0     C73766   7.191   2.255   0.373  0.3219  0.0056  0.1477
  547MOL0     C73767   7.320   2.295   0.368 -0.5379 -0.5762 -0.3508
  547MOL0     C73768   7.406   2.261   0.474  0.3054 -0.6468 -0.1000
  547MOL0     O73769   7.536   2.298   0.444 -0.3363 -0.2240 -0.6650
  547MOL0     C73770   7.640   2.255   0.533  0.1698  0.1517  0.7247
  547MOL0     C73771   7.661   2.106   0.524 -0.1619 -0.6694  0.2431
  547MOL0     C73772   7.709   2.068   0.387  0.2165 -0.4250 -0.9664
  547MOL0     C73773   7.764   1.925   0.393 -0.2641 -0.4469  0.6173
  547MOL0     C73774   7.832   1.900   0.266  0.0419  0.4280  0.1804
  547MOL0     C73775   7.875   1.866   0.161  0.1174  0.7349 -0.5435
  547MOL0     C73776   7.360   2.194   0.587 -0.0299 -0.0598 -0.3522
  547MOL0     C73777   7.224   2.170   0.599 -0.0878 -0.5513 -0.6779
  547MOL0     H73778   6.824   2.260   0.715 -0.1892  1.8015 -1.7986
  547MOL0     H73779   6.586   2.246   0.763  0.2548  0.3276 -0.2108
  547MOL0     H73780   6.278   2.101   0.849  1.0587 -0.0086 -0.0387
  547MOL0     H73781   6.413   2.209   0.845  1.3340  2.0251 -2.6295
  547MOL0     H73782   6.251   2.309   0.746  1.9239 -0.9060  1.7330
  547MOL0     H73783   6.339   2.249   0.608 -1.0579  0.3351 -0.9125
  547MOL0     H73784   6.163   2.047   0.596  0.7350  2.2189 -1.1882
  547MOL0     H73785   6.071   2.142   0.719 -0.3565  0.0584 -0.1521
  547MOL0     H73786   6.072   2.332   0.547 -3.2051 -0.0245  0.3483
  547MOL0     H73787   6.155   2.215   0.441 -0.3752 -2.4892  0.6700
  547MOL0     H73788   5.927   2.212   0.366  2.6541 -0.4279 -0.6324
  547MOL0     H73789   5.955   2.067   0.457  1.9718  0.1399 -1.0342
  547MOL0     H73790   5.837   2.186   0.652 -0.3511 -1.7704 -0.9717
  547MOL0     H73791   5.831   2.341   0.550 -2.1018  0.1109 -1.9757
  547MOL0     H73792   5.686   2.255   0.409 -0.1933  2.9124  1.1971
  547MOL0     H73793   5.730   2.083   0.451 -1.1062  0.6073  0.4414
  547MOL0     H73794   5.548   2.260   0.622 -0.7941 -0.7210 -0.5204
  547MOL0     H73795   5.630   2.113   0.676 -0.1208 -1.9109  0.0036
  547MOL0     H73796   5.401   2.228   0.365 -0.1616 -0.4028 -0.0618
  547MOL0     H73797   5.177   2.149   0.286 -2.0349  1.3228  1.6979
  547MOL0     H73798   5.126   1.987   0.298 -0.4603  1.2316 -2.3169
  547MOL0     H73799   5.067   2.194   0.516 -1.2794  0.9597  0.1080
  547MOL0     H73800   4.995   2.039   0.518 -3.0133  2.0544  0.7668
  547MOL0     H73801   4.885   2.081   0.311  2.2505  0.5174 -1.7379
  547MOL0     H73802   4.960   2.238   0.294  0.1340 -0.5392 -1.2173
  547MOL0     H73803   4.739   2.280   0.389 -0.6644 -1.2588 -0.4395
  547MOL0     H73804   4.859   2.316   0.525 -1.1324 -0.0368 -0.1020
  547MOL0     H73805   4.609   2.387   0.595 -1.3509  1.5629 -0.6586
  547MOL0     H73806   4.331   2.470   0.747 -0.6748  1.4651 -0.9946
  547MOL0     H73807   4.457   2.514   0.642 -1.0702  0.5616 -1.4492
  547MOL0     H73808   4.288   2.450   0.584 -3.3721  0.1667  4.0403
  547MOL0     H73809   4.002   1.889   0.670  1.2199  2.5807 -1.4328
  547MOL0     H73810   3.748   1.884   0.702  0.5014  0.9072 -0.8046
  547MOL0     H73811   3.612   2.144   0.792 -1.0227 -0.1507 -0.1527
  547MOL0     H73812   3.534   1.992   0.732 -0.0212  0.4715 -0.7714
  547MOL0     H73813   3.347   2.115   0.816  2.0559  0.0262 -1.3583
  547MOL0     H73814   3.395   2.005   0.947 -1.7652 -1.1812 -2.5713
  547MOL0     H73815   3.539   2.208   1.040 -1.1594  3.3649  2.0082
  547MOL0     H73816   3.367   2.208   1.059  0.9344  0.6216 -0.0302
  547MOL0     H73817   3.533   2.357   0.853 -0.1974  0.2460  0.2533
  547MOL0     H73818   3.358   2.357   0.839  0.7846  1.5207 -1.0928
  547MOL0     H73819   3.503   2.479   1.072 -1.0349  0.7953  0.4362
  547MOL0     H73820   3.336   2.471   1.067  1.2021 -1.1333  1.5481
  547MOL0     H73821   3.502   2.585   0.839  0.5249  1.1161  0.0628
  547MOL0     H73822   3.325   2.602   0.853  1.3077  1.6887 -1.1224
  547MOL0     H73823   3.388   2.728   1.093 -1.0297 -0.1914 -0.4979
  547MOL0     H73824   3.383   2.812   0.937  1.3390  1.7812  1.7471
  547MOL0     H73825   3.647   2.739   0.934  1.9882  2.5960  0.9884
  547MOL0     H73826   3.612   2.676   1.093  0.3423 -1.2399 -0.9951
  547MOL0     H73827   3.808   2.145   1.036 -1.3183 -2.1315 -0.0698
  547MOL0     H73828   4.034   2.197   0.961 -2.0432  1.7645 -0.8931
  547MOL0     H73829   4.358   1.970   0.690 -0.5729 -0.4543 -0.6370
  547MOL0     H73830   4.583   1.950   0.625  0.6324  0.3664 -1.8355
  547MOL0     H73831   6.561   1.856   0.588  0.6228 -0.7492  3.1748
  547MOL0     H73832   6.807   1.885   0.518 -0.2989 -0.6076 -0.6153
  547MOL0     H73833   7.122   2.298   0.300 -0.3278  0.0014  0.7423
  547MOL0     H73834   7.362   2.354   0.287 -1.9306 -0.4871 -1.0487
  547MOL0     H73835   7.736   2.305   0.517  1.6400 -2.7296 -0.2927
  547MOL0     H73836   7.615   2.266   0.639 -2.4943  0.1236  0.1694
  547MOL0     H73837   7.565   2.058   0.546  0.6816 -1.0553  3.5877
  547MOL0     H73838   7.739   2.078   0.595  0.1448 -0.2457  0.0758
  547MOL0     H73839   7.794   2.136   0.371 -0.0495  0.6994  1.8118
  547MOL0     H73840   7.629   2.087   0.316  0.2498 -1.0595 -1.1804
  547MOL0     H73841   7.678   1.858   0.384 -1.2791  1.0027 -1.2364
  547MOL0     H73842   7.813   1.901   0.488 -2.7915  0.3610  2.2289
  547MOL0     H73843   7.902   1.830   0.063 -3.4519 -2.7707 -0.5051
  547MOL0     H73844   7.427   2.175   0.671  0.8504 -0.3759 -1.1059
  547MOL0     H73845   7.194   2.118   0.690  1.9112 -1.1801 -0.3238
  548MOL0     O73846   1.873   0.481  11.139  0.4647 -0.3183 -0.3649
  548MOL0     C73847   1.905   0.474  11.261  0.4837 -0.2680  0.5384
  548MOL0     O73848   1.833   0.528  11.362  0.0576 -0.6617 -0.7069
  548MOL0     C73849   1.708   0.587  11.330 -0.4456  0.8648  1.1008
  548MOL0     C73850   1.589   0.515  11.354 -0.3069 -0.7627  0.8328
  548MOL0     C73851   1.470   0.575  11.309  0.0767 -0.2918  0.4093
  548MOL0     C73852   1.464   0.710  11.265  0.8326 -0.3134 -0.3541
  548MOL0     O73853   1.353   0.786  11.245 -0.2052 -0.4051 -0.0004
  548MOL0     C73854   1.230   0.703  11.257  0.0137  0.1594  0.3457
  548MOL0     C73855   1.110   0.779  11.203 -0.3341  0.1327  0.0729
  548MOL0     C73856   0.977   0.729  11.264 -0.0968  0.1620 -0.4628
  548MOL0     C73857   0.868   0.808  11.205  0.6753  0.2592 -0.8814
  548MOL0     C73858   0.726   0.766  11.255 -0.5600  0.2721  0.0086
  548MOL0     C73859   0.616   0.830  11.176  0.6842  0.8502  0.0087
  548MOL0     C73860   0.474   0.789  11.234  0.5707 -0.3186 -0.7872
  548MOL0     C73861   0.351   0.845  11.160  0.3706  0.1536 -0.1816
  548MOL0     N73862   0.218   0.845  11.213  1.2307  0.8005  0.2395
  548MOL0     C73863   0.108   0.775  11.171 -0.8679  0.4397 -0.5074
  548MOL0     C73864  -0.001   0.814  11.231 -0.3718 -0.2132 -0.1644
  548MOL0     C73865  -0.137   0.746  11.235 -0.4433 -0.5552  0.4064
  548MOL0     C73866  -0.232   0.829  11.142  0.4615 -0.3366 -0.0359
  548MOL0     C73867  -0.373   0.782  11.164  0.0915 -0.1652 -0.3164
  548MOL0     C73868  -0.467   0.895  11.104  0.5241 -1.1536  0.8229
  548MOL0     O73869  -0.477   1.008  11.194 -0.7459 -0.6597 -0.3458
  548MOL0     C73870  -0.595   1.071  11.214  0.4732  0.0777 -0.3389
  548MOL0     C73871  -0.606   1.154  11.327 -0.4503  0.2429  0.1049
  548MOL0     C73872  -0.719   1.226  11.357 -0.1395  0.4494 -0.5060
  548MOL0     C73873  -0.724   1.303  11.488 -0.7940  0.1375 -0.1398
  548MOL0     C73874  -0.823   1.221  11.273 -0.5406  0.1458  0.3082
  548MOL0     C73875  -0.951   1.304  11.297 -1.7044 -0.5881 -0.1581
  548MOL0     O73876  -1.067   1.241  11.296 -0.3797  0.2512  0.0189
  548MOL0     C73877  -1.169   1.315  11.251  0.3977  0.0661 -0.2449
  548MOL0     C73878  -1.201   1.327  11.116 -0.2060 -0.0309  0.1511
  548MOL0     C73879  -1.306   1.415  11.079 -0.1373  0.3757 -0.2209
  548MOL0     C73880  -1.367   1.497  11.166  0.7601 -0.1957 -0.0781
  548MOL0     O73881  -1.464   1.591  11.126 -0.5639  0.7991  0.3032
  548MOL0     C73882  -1.527   1.675  11.219 -0.1986  0.2589 -0.2901
  548MOL0     C73883  -1.611   1.773  11.146  0.2774 -0.1591 -0.8602
  548MOL0     C73884  -1.735   1.699  11.090 -0.5454  0.4623  0.1827
  548MOL0     C73885  -1.815   1.787  11.001 -0.5023 -0.4333  0.1527
  548MOL0     C73886  -1.953   1.739  10.976 -0.4429  0.7598  0.7935
  548MOL0     C73887  -2.020   1.830  10.887 -0.3472  1.3171 -0.0102
  548MOL0     C73888  -2.166   1.790  10.857  0.0852  0.4206  0.0551
  548MOL0     C73889  -2.251   1.772  10.987 -0.2713 -0.2991 -0.7580
  548MOL0    Cl73890  -2.413   1.786  10.937  0.5189  0.2565  0.0018
  548MOL0     C73891  -1.344   1.469  11.303  0.3060 -0.6936 -0.1863
  548MOL0     C73892  -1.244   1.380  11.349 -0.0867 -0.4862  0.1325
  548MOL0     O73893  -0.932   1.428  11.321 -0.1330  0.4858 -0.0256
  548MOL0     C73894  -0.818   1.137  11.157  0.5597 -0.1832 -0.7193
  548MOL0     C73895  -0.703   1.060  11.126  0.5916  0.2790 -0.0812
  548MOL0     N73896   0.038   0.916  11.315  0.5137  0.2559  0.8481
  548MOL0     N73897   0.165   0.942  11.301  0.1957 -0.3046 -0.1673
  548MOL0     C73898   1.585   0.781  11.248  0.5987 -0.0200  0.3502
  548MOL0     C73899   1.707   0.714  11.278  0.8011 -0.8625 -0.7200
  548MOL0     C73900   2.019   0.385  11.284  0.0726 -1.1337  0.2276
  548MOL0     C73901   2.078   0.387  11.411  0.7845  0.2089  0.8013
  548MOL0     C73902   2.193   0.308  11.430  0.2655 -0.5207  0.7197
  548MOL0     C73903   2.259   0.245  11.320 -0.0528 -0.7818 -1.3270
  548MOL0     O73904   2.377   0.179  11.345 -0.6753 -0.1235  0.0688
  548MOL0     C73905   2.448   0.133  11.230 -0.7482  0.5951  0.0640
  548MOL0     C73906   2.597   0.121  11.280 -0.2373  0.4200  0.7829
  548MOL0     C73907   2.664   0.250  11.329 -0.1727  0.7000 -0.4707
  548MOL0     C73908   2.794   0.220  11.414  0.9824 -0.3859  0.6007
  548MOL0     C73909   2.859   0.345  11.456  0.5093 -0.1435 -0.1485
  548MOL0     C73910   2.912   0.448  11.484 -0.6691 -0.0019 -0.0770
  548MOL0     C73911   2.201   0.259  11.196  0.6064  0.3748 -0.3638
  548MOL0     C73912   2.088   0.328  11.178 -0.1379 -0.5998 -0.5312
  548MOL0     H73913   1.582   0.415  11.397 -1.0791  0.6076  4.2034
  548MOL0     H73914   1.395   0.498  11.323  1.2238 -1.2560  1.5563
  548MOL0     H73915   1.240   0.613  11.196 -1.1450 -0.6382  1.2748
  548MOL0     H73916   1.216   0.685  11.364 -2.6815 -1.2050 -0.1530
  548MOL0     H73917   1.123   0.885  11.226  2.4137  0.0647 -0.8144
  548MOL0     H73918   1.118   0.775  11.094 -0.1868  1.7547  0.0002
  548MOL0     H73919   0.964   0.622  11.245 -0.4614 -0.0120  0.6962
  548MOL0     H73920   0.983   0.750  11.371 -0.4952  0.1623 -0.4379
  548MOL0     H73921   0.890   0.911  11.232  1.2210  0.3757 -1.7248
  548MOL0     H73922   0.868   0.800  11.096 -0.9988 -2.4459 -0.7759
  548MOL0     H73923   0.709   0.658  11.250 -1.1552  0.2924  1.2167
  548MOL0     H73924   0.719   0.778  11.363 -3.5514  0.4940 -0.1294
  548MOL0     H73925   0.616   0.939  11.184  3.4608  1.1351 -2.2172
  548MOL0     H73926   0.620   0.784  11.076  1.4919  0.1831  0.3367
  548MOL0     H73927   0.473   0.680  11.241 -0.3990 -0.3521 -1.2740
  548MOL0     H73928   0.462   0.819  11.338 -1.3871 -0.1365 -1.0218
  548MOL0     H73929   0.346   0.778  11.073 -1.2667 -1.3366  0.9846
  548MOL0     H73930   0.373   0.948  11.130  0.5016  0.5122  1.0986
  548MOL0     H73931   0.114   0.697  11.096  3.9226  1.7601 -1.8243
  548MOL0     H73932  -0.140   0.646  11.193 -0.1010  0.8532 -3.3723
  548MOL0     H73933  -0.180   0.747  11.336 -2.0688 -0.0116 -0.2672
  548MOL0     H73934  -0.202   0.800  11.040  1.2188  0.4045 -0.0348
  548MOL0     H73935  -0.218   0.936  11.157 -1.8918 -0.1867  1.6953
  548MOL0     H73936  -0.399   0.772  11.270 -1.4671 -0.6162 -0.7082
  548MOL0     H73937  -0.398   0.684  11.121 -3.6524 -0.1395  1.3450
  548MOL0     H73938  -0.567   0.852  11.096  0.6420 -1.5576  1.4077
  548MOL0     H73939  -0.443   0.921  11.001  1.1389 -0.2950  1.1688
  548MOL0     H73940  -0.518   1.158  11.389 -0.3669  1.1482 -0.0667
  548MOL0     H73941  -0.705   1.406  11.456  1.0546 -0.4403 -1.0675
  548MOL0     H73942  -0.812   1.283  11.549 -1.2501  0.6445 -0.6321
  548MOL0     H73943  -0.638   1.272  11.549 -0.2641 -0.0161 -0.9546
  548MOL0     H73944  -1.157   1.261  11.042 -1.2383  0.7384 -1.1960
  548MOL0     H73945  -1.346   1.425  10.979  1.3737  2.0584 -0.7099
  548MOL0     H73946  -1.586   1.621  11.294 -4.1630  3.9188 -0.3180
  548MOL0     H73947  -1.450   1.735  11.269 -0.8873  1.7434 -0.9516
  548MOL0     H73948  -1.652   1.844  11.219  1.2034 -0.6467  0.1580
  548MOL0     H73949  -1.558   1.818  11.062  1.8834 -2.7349 -1.3393
  548MOL0     H73950  -1.789   1.671  11.181  1.8245  2.6174  2.4372
  548MOL0     H73951  -1.704   1.612  11.032 -1.3504  0.3822 -0.1378
  548MOL0     H73952  -1.817   1.889  11.039  4.3948 -0.7193  1.9122
  548MOL0     H73953  -1.757   1.796  10.909  0.9498  0.3121  1.1020
  548MOL0     H73954  -2.007   1.739  11.071 -2.0108  0.1085 -0.0588
  548MOL0     H73955  -1.950   1.639  10.932 -0.6488  0.5357  1.2901
  548MOL0     H73956  -2.021   1.931  10.931 -0.5657  0.0741  3.0851
  548MOL0     H73957  -1.965   1.810  10.794 -3.5578 -1.6097 -1.4825
  548MOL0     H73958  -2.170   1.703  10.790  1.1761 -0.0807  0.6156
  548MOL0     H73959  -2.214   1.868  10.798 -0.3220 -1.4762 -2.2853
  548MOL0     H73960  -2.227   1.855  11.054  1.6363 -0.0340 -1.7150
  548MOL0     H73961  -2.233   1.673  11.030  0.8346 -0.2943 -1.1829
  548MOL0     H73962  -1.403   1.523  11.377  0.0199 -0.7202 -0.3943
  548MOL0     H73963  -1.227   1.359  11.454  1.0386 -0.0730  0.0454
  548MOL0     H73964  -0.903   1.133  11.091  0.1272  1.4246 -0.2927
  548MOL0     H73965  -0.712   0.998  11.037 -4.8808  2.9929 -1.8704
  548MOL0     H73966   1.597   0.887  11.226  0.0599  0.4042  1.9743
  548MOL0     H73967   1.796   0.775  11.269 -1.0936  1.8376 -2.5096
  548MOL0     H73968   2.025   0.437  11.492  0.0411 -0.8388  0.9903
  548MOL0     H73969   2.247   0.302  11.524  1.2049 -1.2039  0.1526
  548MOL0     H73970   2.401   0.038  11.203  0.0166  0.4673 -0.8756
  548MOL0     H73971   2.464   0.203  11.148  2.1583  1.2690  1.1032
  548MOL0     H73972   2.664   0.078  11.205 -1.1440 -1.4462  0.9800
  548MOL0     H73973   2.593   0.046  11.359  0.6823  1.5995  2.0015
  548MOL0     H73974   2.594   0.314  11.384 -1.2695  1.5371 -2.7274
  548MOL0     H73975   2.683   0.299  11.234 -0.2611  1.4550 -0.1022
  548MOL0     H73976   2.861   0.162  11.350 -0.8278 -2.8548  0.7761
  548MOL0     H73977   2.765   0.161  11.502  0.4734 -1.4164 -0.2365
  548MOL0     H73978   2.957   0.541  11.515 -3.8185  1.5726  0.1736
  548MOL0     H73979   2.239   0.208  11.108 -2.5544 -0.3595 -1.4245
  548MOL0     H73980   2.066   0.345  11.074 -1.9238 -2.6761 -0.5408
  549MOL0     O73981   3.494   5.021  10.815  0.1566  0.1239 -0.0910
  549MOL0     C73982   3.414   4.931  10.802  0.1414 -0.0346  0.2862
  549MOL0     O73983   3.443   4.812  10.760  0.4524 -0.0232 -0.5570
  549MOL0     C73984   3.570   4.785  10.726  0.1840 -0.4166 -0.6975
  549MOL0     C73985   3.618   4.781  10.592 -0.0282  0.2104  0.3132
  549MOL0     C73986   3.748   4.750  10.575 -0.6307  0.1758  0.0620
  549MOL0     C73987   3.836   4.724  10.684  0.2266  0.7108 -0.3666
  549MOL0     O73988   3.961   4.691  10.652  1.2063 -0.2789 -0.3445
  549MOL0     C73989   4.067   4.753  10.724 -0.8282  0.4325 -0.0965
  549MOL0     C73990   4.133   4.881  10.669  0.8501  0.6379  0.1713
  549MOL0     C73991   4.018   4.990  10.659 -0.3900 -0.7799 -0.1945
  549MOL0     C73992   3.999   5.058  10.792  0.7811  0.3570 -0.0285
  549MOL0     C73993   3.868   5.132  10.796 -0.0308  0.0605 -0.7508
  549MOL0     C73994   3.865   5.260  10.711 -0.3280 -0.1496  0.2163
  549MOL0     C73995   3.733   5.334  10.711  0.2432  0.3636  0.4833
  549MOL0     C73996   3.715   5.411  10.845  0.1827 -0.1322  0.4132
  549MOL0     N73997   3.580   5.466  10.853  0.0264  0.4262  0.5051
  549MOL0     C73998   3.545   5.593  10.807 -0.0917 -0.5976  0.4441
  549MOL0     C73999   3.434   5.625  10.866  0.7908 -0.5676 -0.8508
  549MOL0     C74000   3.355   5.747  10.864 -0.6027 -0.2895 -0.0375
  549MOL0     C74001   3.205   5.738  10.901 -0.1094 -0.3594 -0.1748
  549MOL0     C74002   3.146   5.878  10.921 -0.1774  0.3237  0.7092
  549MOL0     C74003   3.009   5.889  10.981 -0.3205 -0.0661  0.4318
  549MOL0     O74004   2.911   5.840  10.895  0.1361  0.4431  0.4185
  549MOL0     C74005   2.782   5.818  10.929 -0.1064 -0.2166 -0.2456
  549MOL0     C74006   2.739   5.850  11.061  0.2459 -0.7193  0.2979
  549MOL0     C74007   2.604   5.824  11.100 -0.3670 -0.8900 -0.8141
  549MOL0     C74008   2.582   5.842  11.249  0.8447  0.4313  0.0017
  549MOL0     C74009   2.505   5.778  11.007 -0.5489 -0.6266 -0.2323
  549MOL0     C74010   2.364   5.726  11.031 -0.3316  0.4974  0.5049
  549MOL0     O74011   2.300   5.658  10.927 -0.6846 -0.2964  0.4498
  549MOL0     C74012   2.170   5.625  10.948 -0.0706  0.6549  0.1566
  549MOL0     C74013   2.151   5.492  10.994 -0.2395 -0.0562 -0.0787
  549MOL0     C74014   2.024   5.431  10.998 -0.5291 -0.3934 -0.0784
  549MOL0     C74015   1.908   5.510  10.969 -0.9914  0.2058 -0.0668
  549MOL0     O74016   1.778   5.456  10.976  0.1375 -0.4341  0.0498
  549MOL0     C74017   1.765   5.316  11.004 -0.3378  0.3630  0.1479
  549MOL0     C74018   1.623   5.280  11.041 -0.2125 -0.2605  0.2332
  549MOL0     C74019   1.589   5.130  11.021  0.0917  0.2908  0.2598
  549MOL0     C74020   1.467   5.088  11.094  0.0832  0.0939  0.0953
  549MOL0     C74021   1.348   5.147  11.023 -0.5863  0.4262 -0.4484
  549MOL0     C74022   1.227   5.145  11.117 -0.7229  0.5286 -0.3594
  549MOL0     C74023   1.112   5.147  11.014 -0.5074 -0.1371 -0.7016
  549MOL0     C74024   0.984   5.185  11.085  0.3436  1.0195  0.4531
  549MOL0    Cl74025   0.900   5.042  11.164 -0.5332  0.1692  0.0402
  549MOL0     C74026   1.929   5.642  10.934  0.9113  0.2315 -0.4062
  549MOL0     C74027   2.054   5.696  10.932  0.6904 -0.1313  0.7872
  549MOL0     O74028   2.327   5.740  11.149 -0.1122  0.1716 -0.2229
  549MOL0     C74029   2.553   5.752  10.874 -0.9482 -0.5763 -0.2581
  549MOL0     C74030   2.689   5.775  10.838  0.3847 -0.3273  0.3954
  549MOL0     N74031   3.398   5.517  10.949  0.6061 -0.2833  0.2349
  549MOL0     N74032   3.482   5.418  10.931 -0.4492 -0.1630 -0.4114
  549MOL0     C74033   3.784   4.719  10.813 -0.3689 -0.1147  0.1050
  549MOL0     C74034   3.648   4.749  10.836  0.4943 -0.2547  0.4486
  549MOL0     C74035   3.268   4.943  10.844 -0.0439 -0.1264  0.6588
  549MOL0     C74036   3.222   5.058  10.908 -0.6207 -0.0061  0.4702
  549MOL0     C74037   3.096   5.070  10.954  0.7712 -0.8356  0.0656
  549MOL0     C74038   3.005   4.970  10.928 -0.2315  0.6094 -0.2655
  549MOL0     O74039   2.885   4.992  10.986 -0.7310 -0.5010 -0.1811
  549MOL0     C74040   2.776   4.920  10.946 -0.2109 -0.1009 -0.1962
  549MOL0     C74041   2.670   4.951  11.056  0.2204  0.6149 -0.0188
  549MOL0     C74042   2.675   4.835  11.165 -0.1004 -0.1793 -0.0624
  549MOL0     C74043   2.613   4.874  11.304  0.7247 -1.0063  0.4009
  549MOL0     C74044   2.659   4.783  11.409 -0.1814 -0.4191 -0.7050
  549MOL0     C74045   2.694   4.691  11.480  0.3131  0.3456  0.4944
  549MOL0     C74046   3.045   4.861  10.847  0.0757 -1.4632  0.6181
  549MOL0     C74047   3.176   4.850  10.804 -0.3908  0.4998 -0.4007
  549MOL0     H74048   3.542   4.794  10.515 -0.5827 -2.1726  0.3901
  549MOL0     H74049   3.782   4.749  10.472  0.1790  0.5112  0.3208
  549MOL0     H74050   4.034   4.772  10.826  0.6046  1.6439  0.1785
  549MOL0     H74051   4.145   4.676  10.724 -1.7357 -0.5085 -0.3933
  549MOL0     H74052   4.218   4.913  10.730 -0.1134  2.0641  0.8027
  549MOL0     H74053   4.181   4.857  10.574 -0.3078 -0.7870 -0.0955
  549MOL0     H74054   4.053   5.066  10.588 -0.2366 -1.6455 -1.0676
  549MOL0     H74055   3.924   4.947  10.623 -1.5777  1.6589 -0.2377
  549MOL0     H74056   4.008   4.987  10.875 -1.1625  1.2666  1.0452
  549MOL0     H74057   4.076   5.136  10.796 -0.0900  1.3650 -1.7617
  549MOL0     H74058   3.786   5.063  10.776 -0.0127 -0.2120  0.0916
  549MOL0     H74059   3.867   5.164  10.900  2.8531  1.8223 -1.1551
  549MOL0     H74060   3.946   5.331  10.731 -2.1432  2.4168 -0.8969
  549MOL0     H74061   3.895   5.225  10.612 -0.6687 -4.8050  1.5362
  549MOL0     H74062   3.736   5.404  10.627 -1.1216  1.1172  1.0447
  549MOL0     H74063   3.654   5.260  10.696 -0.3924  1.2621 -0.7597
  549MOL0     H74064   3.788   5.493  10.838 -0.3611  0.2764 -0.5949
  549MOL0     H74065   3.739   5.357  10.937  1.7789  2.0593  1.3821
  549MOL0     H74066   3.604   5.648  10.735 -1.1761  1.0764  0.7678
  549MOL0     H74067   3.408   5.812  10.935 -1.7789 -0.2844  0.8642
  549MOL0     H74068   3.366   5.792  10.765  1.0373 -0.7674 -0.1024
  549MOL0     H74069   3.187   5.690  10.998 -1.3884  0.9476  0.2838
  549MOL0     H74070   3.142   5.702  10.819 -1.2853 -1.8895  1.3129
  549MOL0     H74071   3.145   5.927  10.824 -0.5626 -0.2321  0.4268
  549MOL0     H74072   3.224   5.933  10.975 -0.0689  0.8737 -0.0084
  549MOL0     H74073   2.982   5.993  10.998  0.7823  0.6748 -1.8922
  549MOL0     H74074   3.017   5.824  11.069 -0.8959 -3.2472 -1.6905
  549MOL0     H74075   2.808   5.888  11.136  1.7447  0.9213 -1.7854
  549MOL0     H74076   2.503   5.915  11.265 -0.2324 -0.4203 -1.2104
  549MOL0     H74077   2.550   5.749  11.297 -1.3881  0.5437 -1.1644
  549MOL0     H74078   2.668   5.879  11.306 -0.3498  0.7070  1.6925
  549MOL0     H74079   2.235   5.437  11.034 -0.0890 -0.1606 -0.5274
  549MOL0     H74080   2.027   5.328  11.030  2.9195 -0.5612 -0.6021
  549MOL0     H74081   1.784   5.271  10.906 -1.1404  0.0934  0.1083
  549MOL0     H74082   1.833   5.282  11.083 -1.9150  0.3894  1.5612
  549MOL0     H74083   1.597   5.319  11.140 -1.3764 -2.3655  0.8207
  549MOL0     H74084   1.562   5.335  10.968 -1.8455  2.5489  3.4212
  549MOL0     H74085   1.676   5.077  11.063 -1.4202  0.1555  3.5117
  549MOL0     H74086   1.609   5.095  10.919  0.9073 -0.1048  0.5428
  549MOL0     H74087   1.462   4.979  11.087  0.5851 -0.2471  3.4054
  549MOL0     H74088   1.479   5.115  11.200  1.6664 -1.0374  0.2318
  549MOL0     H74089   1.339   5.105  10.922  0.3033  0.1675 -0.4315
  549MOL0     H74090   1.365   5.254  11.003 -3.4637  0.8092 -1.1924
  549MOL0     H74091   1.225   5.068  11.194 -0.9856  2.5691  1.8049
  549MOL0     H74092   1.213   5.230  11.185  1.6669 -0.1637  1.1298
  549MOL0     H74093   1.103   5.049  10.967  2.4504 -0.6406 -0.4058
  549MOL0     H74094   1.136   5.221  10.937  0.3622 -0.7670 -1.0577
  549MOL0     H74095   0.906   5.219  11.017 -1.4286 -3.4651 -0.1031
  549MOL0     H74096   0.997   5.271  11.152  1.0445  0.5700  0.9040
  549MOL0     H74097   1.836   5.694  10.912  0.3339 -0.0318  1.2296
  549MOL0     H74098   2.054   5.800  10.899 -2.4258 -0.0422  0.8137
  549MOL0     H74099   2.490   5.716  10.794  1.8731 -0.1699 -2.8414
  549MOL0     H74100   2.710   5.763  10.732  3.2457  1.8217  0.5950
  549MOL0     H74101   3.854   4.698  10.894  1.3010 -1.2588 -1.5624
  549MOL0     H74102   3.610   4.748  10.938 -2.6189 -1.1279 -0.5975
  549MOL0     H74103   3.294   5.137  10.928 -1.7669  1.3382 -0.4351
  549MOL0     H74104   3.060   5.159  11.006 -2.2190 -1.6148 -0.4666
  549MOL0     H74105   2.749   4.955  10.846  2.0159  2.3724 -0.0526
  549MOL0     H74106   2.789   4.811  10.948 -0.5590 -0.1569 -0.8074
  549MOL0     H74107   2.572   4.940  11.008  1.0445  0.2967 -1.6840
  549MOL0     H74108   2.681   5.054  11.091 -2.6781  0.7830  0.6726
  549MOL0     H74109   2.781   4.809  11.175  0.3751  1.0739 -1.3780
  549MOL0     H74110   2.612   4.752  11.132 -0.9407  0.8238 -1.1004
  549MOL0     H74111   2.504   4.867  11.309  0.7115 -0.8155  0.3837
  549MOL0     H74112   2.638   4.979  11.322  0.4956  0.1130 -4.5254
  549MOL0     H74113   2.718   4.609  11.543 -0.6242  0.4126  0.9492
  549MOL0     H74114   2.974   4.786  10.813 -1.2026 -1.3840  2.8526
  549MOL0     H74115   3.212   4.769  10.741  0.6959 -0.3034  1.1734
  550MOL0     O74116   2.310   3.940   9.002  0.4674 -0.5079 -0.4048
  550MOL0     C74117   2.290   3.935   8.880 -0.3330 -0.4131 -0.2307
  550MOL0     O74118   2.175   3.977   8.812  0.0336  0.2680  0.2370
  550MOL0     C74119   2.064   4.036   8.867  0.7573  0.3511 -0.8294
  550MOL0     C74120   1.975   4.105   8.783 -0.8532  0.4253 -0.1803
  550MOL0     C74121   1.866   4.172   8.830 -0.0264  0.3087  0.0171
  550MOL0     C74122   1.839   4.167   8.966  0.9227 -0.5396  0.2407
  550MOL0     O74123   1.737   4.237   9.029  0.7225 -0.7072 -0.0108
  550MOL0     C74124   1.609   4.257   8.958  0.0742 -0.7204 -0.2985
  550MOL0     C74125   1.513   4.309   9.057  0.3458 -0.8693 -0.5426
  550MOL0     C74126   1.541   4.455   9.099 -1.5053  1.0587  0.4930
  550MOL0     C74127   1.469   4.505   9.219  0.2941 -0.5033  0.2144
  550MOL0     C74128   1.310   4.493   9.207  0.5801 -0.4715  0.4618
  550MOL0     C74129   1.244   4.570   9.085 -0.3765  0.3158 -1.3651
  550MOL0     C74130   1.104   4.507   9.061  0.4556  0.7699  0.4963
  550MOL0     C74131   1.033   4.598   8.965 -0.5784  0.4671  0.2693
  550MOL0     N74132   0.886   4.582   8.959 -0.4337  0.3216 -0.5651
  550MOL0     C74133   0.808   4.544   9.068 -0.4622  0.1130 -0.5252
  550MOL0     C74134   0.682   4.520   9.019 -0.3392 -0.5255 -0.3809
  550MOL0     C74135   0.576   4.459   9.107 -0.0379 -0.0437  0.5639
  550MOL0     C74136   0.452   4.542   9.102  0.4150  0.2521 -0.1300
  550MOL0     C74137   0.360   4.501   8.982 -0.0955 -0.9256  0.4365
  550MOL0     C74138   0.259   4.610   8.954  0.4185 -0.2538  0.2696
  550MOL0     O74139   0.192   4.591   8.826  0.7666  0.5769  0.6391
  550MOL0     C74140   0.229   4.626   8.699  0.2225 -0.2995  0.4438
  550MOL0     C74141   0.145   4.585   8.591  0.2373  0.7601 -0.2725
  550MOL0     C74142   0.181   4.603   8.456  0.1079  0.1234 -0.2080
  550MOL0     C74143   0.088   4.534   8.357 -0.6768  0.9706 -0.7410
  550MOL0     C74144   0.299   4.675   8.433 -0.0237  0.1191 -0.0329
  550MOL0     C74145   0.344   4.708   8.294  0.0278 -0.5046  0.1279
  550MOL0     O74146   0.256   4.707   8.189 -0.0585 -0.6059  0.0894
  550MOL0     C74147   0.298   4.789   8.084 -0.0545 -0.3736 -0.5585
  550MOL0     C74148   0.289   4.932   8.096 -0.9006  0.3655 -0.2361
  550MOL0     C74149   0.332   5.008   7.984 -0.5123  0.3162 -0.2258
  550MOL0     C74150   0.370   4.949   7.858 -0.0678 -0.4008 -0.8623
  550MOL0     O74151   0.413   5.029   7.753  0.5361 -0.5941 -0.1244
  550MOL0     C74152   0.394   5.177   7.763 -0.1236  0.2127  0.9478
  550MOL0     C74153   0.409   5.230   7.620 -0.1082  0.7220 -0.9645
  550MOL0     C74154   0.375   5.384   7.638 -0.3165  0.3554  0.2474
  550MOL0     C74155   0.370   5.479   7.520 -0.0406  0.2073  0.7748
  550MOL0     C74156   0.511   5.485   7.448 -0.2561  0.2050 -0.3771
  550MOL0     C74157   0.502   5.570   7.322  0.2996  0.0861  0.1247
  550MOL0     C74158   0.622   5.565   7.233  0.6693  0.0135  0.6200
  550MOL0     C74159   0.627   5.679   7.144  0.6620  0.7467  0.3651
  550MOL0    Cl74160   0.747   5.642   7.012 -0.2616 -0.3594  0.1006
  550MOL0     C74161   0.369   4.811   7.853 -0.4913  0.1217 -0.0583
  550MOL0     C74162   0.341   4.733   7.963  0.1865  0.4044 -0.0104
  550MOL0     O74163   0.462   4.740   8.291 -1.0604 -0.2545 -0.0528
  550MOL0     C74164   0.376   4.726   8.542  0.5365 -1.2838  0.4282
  550MOL0     C74165   0.344   4.692   8.674 -0.5336  0.1011 -0.5172
  550MOL0     N74166   0.683   4.545   8.885 -0.8892 -0.0246 -0.2672
  550MOL0     N74167   0.809   4.567   8.853  0.0484  0.2379  0.3148
  550MOL0     C74168   1.925   4.104   9.055 -0.2343 -0.6132 -0.2074
  550MOL0     C74169   2.032   4.034   9.011 -0.4546 -0.1522  0.4093
  550MOL0     C74170   2.407   3.915   8.793 -0.1346  0.6098  0.4554
  550MOL0     C74171   2.542   3.932   8.847  0.6443 -0.1887  0.6144
  550MOL0     C74172   2.641   3.939   8.754 -0.2136 -0.6473 -0.2031
  550MOL0     C74173   2.630   3.919   8.621  0.1563 -0.2497 -0.1260
  550MOL0     O74174   2.744   3.923   8.554 -0.3967  0.2526 -0.4341
  550MOL0     C74175   2.740   3.915   8.412  0.8734 -0.2825  0.0639
  550MOL0     C74176   2.875   3.903   8.357 -0.2231  0.4548 -0.2975
  550MOL0     C74177   2.956   4.032   8.377  0.5365 -0.1666  0.3692
  550MOL0     C74178   3.096   4.008   8.331 -0.4908  0.2169  0.4841
  550MOL0     C74179   3.100   3.991   8.186 -0.9912 -0.2797  0.8720
  550MOL0     C74180   3.108   3.980   8.062 -0.0565  0.1142 -0.0465
  550MOL0     C74181   2.500   3.871   8.573  0.2726 -0.9971  0.4817
  550MOL0     C74182   2.382   3.882   8.655 -0.7411  0.2989  0.8862
  550MOL0     H74183   1.993   4.128   8.678  0.8574  0.9933  0.2047
  550MOL0     H74184   1.806   4.239   8.769  0.9117 -0.7981 -2.2194
  550MOL0     H74185   1.617   4.326   8.873  0.8612 -2.2758 -1.5233
  550MOL0     H74186   1.571   4.161   8.924  0.4933 -0.6441 -1.0069
  550MOL0     H74187   1.407   4.310   9.031  0.0882  2.2202  0.3320
  550MOL0     H74188   1.522   4.243   9.144  2.6520 -1.5165 -1.1929
  550MOL0     H74189   1.646   4.476   9.119 -1.8251  0.5706  2.9526
  550MOL0     H74190   1.504   4.515   9.015  3.2674  2.3806 -0.9733
  550MOL0     H74191   1.498   4.448   9.308 -0.1647 -1.8315 -0.4641
  550MOL0     H74192   1.499   4.610   9.231 -1.5226  0.3889 -2.2324
  550MOL0     H74193   1.293   4.385   9.214 -0.9009 -0.1692  2.7788
  550MOL0     H74194   1.265   4.533   9.298  0.4562  1.3558 -0.3696
  550MOL0     H74195   1.242   4.678   9.104 -0.5756  0.5808 -2.7314
  550MOL0     H74196   1.306   4.571   8.994  0.0072  0.3250 -1.1042
  550MOL0     H74197   1.121   4.402   9.036  1.7855  0.7101  1.5170
  550MOL0     H74198   1.053   4.523   9.156  0.7011  0.7524  0.6305
  550MOL0     H74199   1.059   4.581   8.860 -1.7865 -1.6577  0.2556
  550MOL0     H74200   1.046   4.703   8.995 -0.9094 -0.5280  4.4752
  550MOL0     H74201   0.840   4.536   9.172  1.8243 -0.4576 -1.2248
  550MOL0     H74202   0.553   4.357   9.072 -0.7554 -0.6258  2.5895
  550MOL0     H74203   0.617   4.464   9.208  0.5224  2.0494  0.2623
  550MOL0     H74204   0.470   4.650   9.113  0.2236  0.1282  1.6924
  550MOL0     H74205   0.390   4.521   9.189 -2.0507  1.7284 -1.4150
  550MOL0     H74206   0.313   4.407   9.010  1.4440 -1.3390  1.7933
  550MOL0     H74207   0.418   4.494   8.889 -5.6523 -0.3200 -3.5659
  550MOL0     H74208   0.327   4.696   8.963  2.0216 -1.3592 -0.7559
  550MOL0     H74209   0.187   4.619   9.036  2.7671 -1.1118  2.6096
  550MOL0     H74210   0.062   4.522   8.621 -0.4537 -0.6330 -4.5335
  550MOL0     H74211   0.039   4.607   8.291 -0.1795 -0.1281 -2.3806
  550MOL0     H74212   0.133   4.449   8.305  0.5501 -0.0875  1.8809
  550MOL0     H74213   0.010   4.477   8.410  2.2298 -1.8211  0.9359
  550MOL0     H74214   0.237   4.977   8.180  0.7567  2.1463 -0.0868
  550MOL0     H74215   0.344   5.115   7.996 -0.5684  0.2505  0.4257
  550MOL0     H74216   0.289   5.192   7.790 -0.8612 -1.8128 -0.5632
  550MOL0     H74217   0.468   5.235   7.818 -0.3715  3.0426 -1.4682
  550MOL0     H74218   0.510   5.210   7.583  0.6622  2.6425 -0.0146
  550MOL0     H74219   0.345   5.179   7.547 -3.4326  3.3996 -0.1543
  550MOL0     H74220   0.455   5.429   7.697 -1.2272  1.1103  0.9379
  550MOL0     H74221   0.283   5.399   7.696 -0.2220 -0.9086  0.7517
  550MOL0     H74222   0.291   5.446   7.452 -1.3384  3.5840  0.4865
  550MOL0     H74223   0.356   5.581   7.556  2.2573  0.9957 -0.2888
  550MOL0     H74224   0.539   5.381   7.426 -1.1359  0.5661 -3.8126
  550MOL0     H74225   0.584   5.534   7.513 -0.4691  2.4467 -1.7513
  550MOL0     H74226   0.419   5.530   7.262  0.8783 -0.8977 -0.0545
  550MOL0     H74227   0.486   5.677   7.338 -1.1982  0.0046 -0.6607
  550MOL0     H74228   0.616   5.469   7.180  2.3155 -0.6732  1.5886
  550MOL0     H74229   0.712   5.560   7.294  1.5736 -0.8448 -0.7081
  550MOL0     H74230   0.656   5.767   7.202  0.0880  1.0055  0.2621
  550MOL0     H74231   0.530   5.710   7.105  1.0408 -0.6179 -1.9155
  550MOL0     H74232   0.401   4.759   7.763  0.0704 -2.6738  1.6265
  550MOL0     H74233   0.333   4.625   7.955  0.3201  0.3371  0.7450
  550MOL0     H74234   0.469   4.779   8.523 -1.1261  1.5861 -0.4263
  550MOL0     H74235   0.410   4.716   8.756 -0.5325  0.3120 -0.5801
  550MOL0     H74236   1.905   4.091   9.161  0.3094  0.1113 -0.0092
  550MOL0     H74237   2.092   3.998   9.093  0.1647  1.4470  0.6965
  550MOL0     H74238   2.555   3.944   8.954 -1.0427 -1.4680  1.0113
  550MOL0     H74239   2.744   3.949   8.787 -0.8469 -2.2325  2.5642
  550MOL0     H74240   2.687   3.822   8.389  2.3209 -0.8377 -1.2071
  550MOL0     H74241   2.679   4.000   8.381 -0.5375 -1.5531 -0.7576
  550MOL0     H74242   2.868   3.865   8.254  0.3050 -1.8187  0.4430
  550MOL0     H74243   2.919   3.822   8.415 -0.7840  1.2072  1.2160
  550MOL0     H74244   2.947   4.072   8.478 -1.3596  4.2887 -1.3023
  550MOL0     H74245   2.910   4.117   8.325  3.0962  1.1721  0.1473
  550MOL0     H74246   3.128   3.916   8.382 -1.8796 -0.2815  0.4990
  550MOL0     H74247   3.150   4.097   8.363  1.3761 -0.9241  0.6908
  550MOL0     H74248   3.127   3.979   7.956  3.8419  0.4767  0.4922
  550MOL0     H74249   2.487   3.849   8.468 -0.1191  1.0376  0.0635
  550MOL0     H74250   2.280   3.865   8.620 -0.2140 -0.1189 -0.5282
  551MOL0     O74251  10.725   3.033   2.943  0.1367 -0.1544  0.0475
  551MOL0     C74252  10.809   3.122   2.940 -0.3051  0.3868 -0.0633
  551MOL0     O74253  10.785   3.257   2.923  0.7790 -0.0988  0.1333
  551MOL0     C74254  10.647   3.286   2.929 -0.3909 -0.5486  1.1686
  551MOL0     C74255  10.615   3.375   2.822  0.3852  0.0793  0.8192
  551MOL0     C74256  10.485   3.423   2.799 -0.0986  1.0219  0.1939
  551MOL0     C74257  10.384   3.395   2.890  0.0794  0.0634  0.7652
  551MOL0     O74258  10.245   3.424   2.883  0.2613 -0.1846  0.3465
  551MOL0     C74259  10.183   3.463   2.752 -0.2788 -0.3113 -0.3916
  551MOL0     C74260  10.056   3.556   2.775  0.3800 -0.0761  0.3934
  551MOL0     C74261  10.013   3.608   2.633 -1.0361  0.0666  0.1210
  551MOL0     C74262   9.882   3.678   2.642 -0.3917  1.3393  0.4103
  551MOL0     C74263   9.762   3.580   2.642  0.1630  0.0511  0.0319
  551MOL0     C74264   9.629   3.643   2.605  0.9236 -0.2561 -0.0332
  551MOL0     C74265   9.510   3.540   2.594  0.1326 -0.4500  0.7093
  551MOL0     C74266   9.511   3.472   2.449 -0.3943 -0.6499 -0.5716
  551MOL0     N74267   9.382   3.398   2.433  0.2073 -0.9365  0.0843
  551MOL0     C74268   9.370   3.265   2.446 -1.1785  0.3746  0.1201
  551MOL0     C74269   9.245   3.244   2.397 -0.2214 -0.8704 -0.0640
  551MOL0     C74270   9.185   3.110   2.403 -0.7211 -0.2200 -0.0406
  551MOL0     C74271   9.065   3.097   2.492 -0.7739 -0.6653  0.6077
  551MOL0     C74272   8.936   3.121   2.408  0.5885 -0.0184 -0.4896
  551MOL0     C74273   8.818   3.099   2.498  0.3549 -0.0053 -0.0318
  551MOL0     O74274   8.809   2.962   2.546 -0.6278  0.2303  0.5722
  551MOL0     C74275   8.682   2.929   2.579 -0.3621 -0.5849  0.3432
  551MOL0     C74276   8.656   2.796   2.588 -0.4019 -0.5775  0.2739
  551MOL0     C74277   8.530   2.734   2.622 -0.3179 -0.2554 -0.5523
  551MOL0     C74278   8.528   2.582   2.624 -0.4201  0.2864 -0.1068
  551MOL0     C74279   8.418   2.816   2.652 -0.2990 -0.0764  0.2081
  551MOL0     C74280   8.282   2.775   2.693 -0.3287  0.3803  0.2204
  551MOL0     O74281   8.196   2.874   2.729 -0.1238  0.3486  0.2739
  551MOL0     C74282   8.071   2.834   2.784  0.2094 -0.7845 -0.0653
  551MOL0     C74283   8.062   2.765   2.902  0.6381 -0.2247 -1.0313
  551MOL0     C74284   7.938   2.741   2.961 -0.8367 -0.3675 -0.4374
  551MOL0     C74285   7.823   2.782   2.888  0.0113  0.0186  0.1664
  551MOL0     O74286   7.699   2.752   2.939 -1.2818  0.9420  0.3600
  551MOL0     C74287   7.589   2.844   2.931  0.2093 -0.3092 -0.4386
  551MOL0     C74288   7.480   2.819   3.040  0.0080 -0.8970 -0.1000
  551MOL0     C74289   7.385   2.704   3.010  0.2210  0.4486 -0.0258
  551MOL0     C74290   7.277   2.693   3.118  0.4737  0.4904  0.6158
  551MOL0     C74291   7.182   2.577   3.089  0.8601 -0.0080  0.3938
  551MOL0     C74292   7.049   2.597   3.165  0.0854 -0.5980 -0.3214
  551MOL0     C74293   6.948   2.489   3.127  0.4858 -0.0257 -0.8635
  551MOL0     C74294   6.855   2.455   3.247  0.0189  0.8676  0.1809
  551MOL0    Cl74295   6.771   2.600   3.307  0.0129  0.0115  0.0226
  551MOL0     C74296   7.834   2.859   2.771 -0.1950  0.3032  0.1763
  551MOL0     C74297   7.960   2.888   2.717 -0.8949 -0.0424  0.5284
  551MOL0     O74298   8.259   2.655   2.710  0.9802  0.6510  0.0947
  551MOL0     C74299   8.450   2.956   2.641  0.2668  0.2304  0.1315
  551MOL0     C74300   8.575   3.008   2.612 -0.1033  0.4833  0.0706
  551MOL0     N74301   9.190   3.372   2.365 -0.0372  0.5294 -0.0059
  551MOL0     N74302   9.278   3.463   2.374  0.3196  0.3572 -0.1390
  551MOL0     C74303  10.424   3.313   3.004  0.5471  0.0671  0.4942
  551MOL0     C74304  10.552   3.257   3.018  0.5450 -0.3222  0.0826
  551MOL0     C74305  10.949   3.083   2.942  0.2245 -0.2228 -0.7141
  551MOL0     C74306  10.976   2.972   3.022 -0.1448  0.1555  0.2207
  551MOL0     C74307  11.109   2.928   3.032  0.1726 -0.2112 -0.5034
  551MOL0     C74308  11.214   3.008   2.980 -0.5474  0.0527 -0.3966
  551MOL0     O74309  11.343   2.961   3.001 -0.5666  1.0600  0.0937
  551MOL0     C74310  11.449   3.045   2.943 -0.0961 -0.0342  0.3618
  551MOL0     C74311  11.575   2.960   2.989  0.8658  0.2630  0.2399
  551MOL0     C74312  11.695   3.043   2.953 -0.5626 -0.4549  0.5452
  551MOL0     C74313  11.830   2.962   2.956 -0.5723  0.0211  0.0900
  551MOL0     C74314  11.939   3.036   2.903 -0.4411 -0.2614  0.5304
  551MOL0     C74315  12.009   3.120   2.853 -0.5951  0.4828  0.3160
  551MOL0     C74316  11.183   3.123   2.905 -0.1481 -0.4331  0.0988
  551MOL0     C74317  11.053   3.153   2.884 -0.2299 -0.6156 -0.7482
  551MOL0     H74318  10.696   3.400   2.755  1.4605 -1.0537  1.6510
  551MOL0     H74319  10.459   3.490   2.717  0.1870  0.6285 -0.2214
  551MOL0     H74320  10.253   3.517   2.687  0.9663  1.4694  2.2101
  551MOL0     H74321  10.159   3.369   2.701  0.3475 -0.7124  0.0334
  551MOL0     H74322   9.979   3.492   2.820  0.2363 -0.6789 -0.6684
  551MOL0     H74323  10.075   3.630   2.853  2.8009  1.1971 -1.2702
  551MOL0     H74324  10.078   3.688   2.596 -1.5841 -0.3037 -1.7986
  551MOL0     H74325  10.005   3.529   2.558  0.7005 -0.9216  0.9451
  551MOL0     H74326   9.888   3.745   2.728  1.1636  0.7250  0.8157
  551MOL0     H74327   9.873   3.748   2.558 -3.4370 -0.5515 -0.9966
  551MOL0     H74328   9.774   3.499   2.569  0.9599  1.7664 -1.8527
  551MOL0     H74329   9.743   3.531   2.738 -1.4415 -1.6794 -1.0969
  551MOL0     H74330   9.612   3.708   2.691 -0.0176 -1.2570  0.5741
  551MOL0     H74331   9.640   3.706   2.516  0.8465 -1.3356 -0.8309
  551MOL0     H74332   9.502   3.471   2.679 -2.3933 -0.3782  0.5826
  551MOL0     H74333   9.419   3.599   2.602  0.8225  0.6505  0.6001
  551MOL0     H74334   9.603   3.413   2.448  0.5080  0.7089  0.1402
  551MOL0     H74335   9.518   3.554   2.377  3.1523 -0.0096  0.3199
  551MOL0     H74336   9.439   3.195   2.493 -0.2015  0.5876 -0.9561
  551MOL0     H74337   9.164   3.082   2.299 -0.3434 -1.9952  0.3336
  551MOL0     H74338   9.268   3.044   2.430  0.1993  0.6217 -0.7324
  551MOL0     H74339   9.068   3.178   2.565  1.9237  1.3086 -1.4795
  551MOL0     H74340   9.070   2.996   2.535  0.6952 -0.5279  0.8294
  551MOL0     H74341   8.926   3.056   2.320 -0.9932  0.2435 -0.5443
  551MOL0     H74342   8.936   3.222   2.366 -0.4619  0.2662  0.1714
  551MOL0     H74343   8.727   3.123   2.442 -0.0001  3.2139  1.6546
  551MOL0     H74344   8.826   3.158   2.590  0.4981 -2.1255  1.4034
  551MOL0     H74345   8.735   2.730   2.555  0.6286  2.2988 -3.7467
  551MOL0     H74346   8.517   2.539   2.724 -0.4043 -1.9959 -1.0185
  551MOL0     H74347   8.446   2.551   2.559 -1.8316  4.0719 -0.3746
  551MOL0     H74348   8.624   2.549   2.582  0.2864  0.3171  1.4183
  551MOL0     H74349   8.157   2.732   2.944  1.0859 -0.6838 -2.3635
  551MOL0     H74350   7.932   2.680   3.050  1.5661  1.8229  1.3930
  551MOL0     H74351   7.626   2.946   2.943  0.2111 -0.3750  0.1289
  551MOL0     H74352   7.522   2.822   2.847  0.1003 -1.7359 -0.0088
  551MOL0     H74353   7.525   2.800   3.138 -1.2913  1.4542  1.0389
  551MOL0     H74354   7.413   2.904   3.059 -0.7724 -2.0391  2.8628
  551MOL0     H74355   7.446   2.613   3.011 -0.9072 -0.3342  0.7240
  551MOL0     H74356   7.337   2.726   2.914 -0.9557 -0.1184  0.4023
  551MOL0     H74357   7.322   2.683   3.218 -3.8300  1.9217  2.9477
  551MOL0     H74358   7.222   2.787   3.108  0.0878  0.0714 -1.8068
  551MOL0     H74359   7.219   2.478   3.117  0.3853  0.0758  1.3668
  551MOL0     H74360   7.157   2.577   2.982 -2.9625  0.6618  1.1384
  551MOL0     H74361   7.068   2.576   3.271  0.0366 -1.5020 -0.4839
  551MOL0     H74362   7.018   2.699   3.143 -0.0021 -0.1342  1.6790
  551MOL0     H74363   7.000   2.398   3.095  0.4316  0.1815 -1.5732
  551MOL0     H74364   6.896   2.525   3.037 -0.1539  0.1444 -0.4382
  551MOL0     H74365   6.912   2.408   3.328 -0.2700 -0.3758 -0.3156
  551MOL0     H74366   6.782   2.379   3.217 -1.8400  2.2044  1.0714
  551MOL0     H74367   7.743   2.897   2.724 -0.8291  0.0378  1.1479
  551MOL0     H74368   7.963   2.954   2.631 -0.2376 -3.2952 -2.1543
  551MOL0     H74369   8.373   3.027   2.670  0.1954  1.0820 -1.9480
  551MOL0     H74370   8.579   3.116   2.619  1.5227  0.5010 -0.7645
  551MOL0     H74371  10.345   3.297   3.076  2.5546 -0.4238  2.7037
  551MOL0     H74372  10.558   3.178   3.093 -1.6726 -1.6803 -1.0638
  551MOL0     H74373  10.904   2.910   3.073 -1.2968  2.0438  0.9857
  551MOL0     H74374  11.134   2.843   3.095 -1.8776 -0.7924 -0.4051
  551MOL0     H74375  11.446   3.062   2.835  0.1171 -1.8617  0.0423
  551MOL0     H74376  11.451   3.147   2.982  0.8721  0.5512 -1.1504
  551MOL0     H74377  11.570   2.857   2.952 -3.2405  0.0188  0.9751
  551MOL0     H74378  11.574   2.946   3.097 -1.3805  0.3573  0.2806
  551MOL0     H74379  11.696   3.130   3.020 -2.3248 -0.3926  0.5518
  551MOL0     H74380  11.678   3.083   2.853  2.2605 -2.1797 -0.7466
  551MOL0     H74381  11.825   2.866   2.904  1.5539 -0.9911  1.6054
  551MOL0     H74382  11.861   2.947   3.060 -0.2992  1.8818  0.2996
  551MOL0     H74383  12.057   3.202   2.803 -1.5769  2.0654  1.8620
  551MOL0     H74384  11.255   3.194   2.867 -0.8217  0.5316  0.5947
  551MOL0     H74385  11.034   3.243   2.826  0.2953  1.3173  1.8883
  552MOL0     O74386  10.671   5.221   5.916 -0.0811  0.6391  0.4191
  552MOL0     C74387  10.730   5.317   5.877  0.0138  1.1158  0.5291
  552MOL0     O74388  10.672   5.418   5.816  0.8193 -0.0454  0.8763
  552MOL0     C74389  10.535   5.423   5.795 -0.1353 -0.1082 -0.1332
  552MOL0     C74390  10.488   5.461   5.665  0.0875  0.4004 -0.0743
  552MOL0     C74391  10.356   5.468   5.638  0.4156 -0.7063 -0.0545
  552MOL0     C74392  10.268   5.450   5.742  0.2988  0.5260 -0.3475
  552MOL0     O74393  10.136   5.455   5.726 -1.5080  0.5032  0.8854
  552MOL0     C74394  10.078   5.427   5.599  1.1337  0.8683  0.2087
  552MOL0     C74395   9.923   5.408   5.601  0.7684  0.3089 -0.1341
  552MOL0     C74396   9.867   5.272   5.644 -0.0509 -0.0685 -0.5400
  552MOL0     C74397   9.715   5.271   5.615 -0.0573  0.3513 -0.1898
  552MOL0     C74398   9.646   5.157   5.694  0.5006  0.2230  0.0416
  552MOL0     C74399   9.496   5.185   5.705  0.1928 -0.3965 -0.2842
  552MOL0     C74400   9.412   5.063   5.735  0.0823 -0.0331 -0.0072
  552MOL0     C74401   9.405   4.963   5.619 -0.1310  0.4131 -0.4155
  552MOL0     N74402   9.326   4.842   5.643 -0.5221 -0.0255 -0.2128
  552MOL0     C74403   9.244   4.794   5.545  0.0760  0.4704  0.8830
  552MOL0     C74404   9.164   4.699   5.604  0.1695  0.7224 -0.6348
  552MOL0     C74405   9.035   4.633   5.549 -0.9586 -1.0349 -0.2338
  552MOL0     C74406   8.910   4.730   5.570 -0.2109 -0.2436 -0.7318
  552MOL0     C74407   8.925   4.860   5.492  0.0794 -0.6609 -0.1332
  552MOL0     C74408   8.783   4.904   5.459 -1.5118  0.1398  0.1418
  552MOL0     O74409   8.719   4.924   5.590 -0.0398  0.1780  0.1569
  552MOL0     C74410   8.593   4.871   5.592  0.3421 -0.3640 -0.1535
  552MOL0     C74411   8.574   4.776   5.684  1.0243 -0.2156  0.3981
  552MOL0     C74412   8.456   4.702   5.685 -0.3227  0.3827  0.6155
  552MOL0     C74413   8.446   4.594   5.795  0.5475 -0.0512  0.7000
  552MOL0     C74414   8.348   4.732   5.597  0.4487 -0.2298  0.3982
  552MOL0     C74415   8.221   4.652   5.595 -0.6405  0.3434  0.3880
  552MOL0     O74416   8.115   4.721   5.542 -0.0319  0.0223  0.5548
  552MOL0     C74417   7.998   4.653   5.517 -0.2195  0.4462  1.1812
  552MOL0     C74418   7.889   4.653   5.600  0.2458  0.1103  0.0878
  552MOL0     C74419   7.772   4.587   5.575 -0.7120  0.1311  0.8796
  552MOL0     C74420   7.765   4.506   5.459 -0.4312  0.1055 -0.5999
  552MOL0     O74421   7.650   4.429   5.470  0.0871 -0.9487  0.6393
  552MOL0     C74422   7.628   4.333   5.362  0.1638  0.3895  0.5281
  552MOL0     C74423   7.476   4.305   5.365 -1.2019  0.2758 -0.2168
  552MOL0     C74424   7.413   4.194   5.279  0.8640 -0.3871  0.2631
  552MOL0     C74425   7.259   4.187   5.325 -0.7127 -0.8661  0.2693
  552MOL0     C74426   7.173   4.287   5.237  0.3499 -1.3902 -0.1751
  552MOL0     C74427   7.022   4.284   5.277 -1.0103  0.1716  0.0290
  552MOL0     C74428   6.926   4.367   5.194 -0.8287 -0.0063  0.0428
  552MOL0     C74429   6.892   4.313   5.054  0.1608 -0.4613 -0.3386
  552MOL0    Cl74430   6.725   4.358   5.002  0.0585 -0.8070  0.0802
  552MOL0     C74431   7.879   4.485   5.379  0.0242 -1.0789  0.0426
  552MOL0     C74432   7.994   4.563   5.410 -0.6249 -0.3022 -0.5280
  552MOL0     O74433   8.211   4.533   5.632 -0.5517  0.4133  0.5343
  552MOL0     C74434   8.372   4.837   5.499  0.3855  0.5555 -0.4611
  552MOL0     C74435   8.489   4.905   5.506  0.5616  0.0623 -0.3138
  552MOL0     N74436   9.201   4.684   5.735  0.2052  0.0230 -0.2949
  552MOL0     N74437   9.296   4.767   5.756 -0.0231 -0.3281  0.1764
  552MOL0     C74438  10.307   5.415   5.866  0.3501  0.3380 -0.4499
  552MOL0     C74439  10.441   5.407   5.895  0.1167  0.0857 -0.2110
  552MOL0     C74440  10.877   5.301   5.872  0.1306  0.0426  0.4608
  552MOL0     C74441  10.952   5.406   5.827 -0.0670 -0.7954  0.5400
  552MOL0     C74442  11.085   5.392   5.800  0.0956  0.7386 -0.9378
  552MOL0     C74443  11.161   5.281   5.838  0.1535 -0.3604 -0.2543
  552MOL0     O74444  11.300   5.267   5.834 -0.4189 -0.2096 -0.6842
  552MOL0     C74445  11.390   5.369   5.791 -0.0608  0.1369 -0.1859
  552MOL0     C74446  11.528   5.319   5.821 -0.0293 -0.3801 -0.2054
  552MOL0     C74447  11.538   5.198   5.924 -0.0059  0.9782 -0.5964
  552MOL0     C74448  11.684   5.182   5.989 -0.1246  0.7839  0.2462
  552MOL0     C74449  11.790   5.183   5.895  0.3848 -0.5533  0.8625
  552MOL0     C74450  11.875   5.193   5.805  0.5014  0.2266 -0.4193
  552MOL0     C74451  11.083   5.184   5.909 -0.3215  0.1287 -0.2450
  552MOL0     C74452  10.945   5.186   5.919 -0.5231  0.2539 -0.4263
  552MOL0     H74453  10.568   5.465   5.592 -1.0233 -2.1236 -1.5599
  552MOL0     H74454  10.326   5.495   5.538  1.7334  0.0841 -0.2671
  552MOL0     H74455  10.082   5.521   5.542 -0.9594  0.1953 -1.1687
  552MOL0     H74456  10.120   5.355   5.528 -2.7350 -1.8164  0.3322
  552MOL0     H74457   9.886   5.473   5.680  2.9410 -0.0848  1.2998
  552MOL0     H74458   9.868   5.443   5.513 -2.9229 -1.6550  1.1727
  552MOL0     H74459   9.924   5.190   5.600 -0.4610 -0.3155 -0.6211
  552MOL0     H74460   9.876   5.261   5.752 -0.0015 -0.0829 -0.5461
  552MOL0     H74461   9.687   5.369   5.653 -0.3862  0.0848  0.2708
  552MOL0     H74462   9.694   5.267   5.508  1.4750  2.3754 -0.6260
  552MOL0     H74463   9.665   5.058   5.649 -3.2420 -1.9092  2.6185
  552MOL0     H74464   9.692   5.150   5.793 -1.4082  0.0752  0.9623
  552MOL0     H74465   9.471   5.255   5.785  0.2131  0.2299 -0.8215
  552MOL0     H74466   9.471   5.240   5.614  1.5275  0.1445 -0.3338
  552MOL0     H74467   9.444   5.001   5.820  2.6536 -1.6914 -2.0450
  552MOL0     H74468   9.308   5.088   5.758 -1.5241 -1.5708 -4.5467
  552MOL0     H74469   9.509   4.933   5.601  0.3396  1.8843 -0.2825
  552MOL0     H74470   9.369   5.013   5.529 -0.6370  0.3240 -0.2643
  552MOL0     H74471   9.234   4.834   5.444 -1.0068 -0.5519  0.5605
  552MOL0     H74472   9.060   4.603   5.447  1.5259 -2.4985  0.7119
  552MOL0     H74473   9.013   4.537   5.595 -1.0149 -1.5765 -1.3567
  552MOL0     H74474   8.890   4.760   5.673 -0.6526  2.0485 -1.4224
  552MOL0     H74475   8.835   4.664   5.526 -1.2173  1.2238 -1.2591
  552MOL0     H74476   8.988   4.846   5.403 -1.4414 -1.4968 -1.1202
  552MOL0     H74477   8.981   4.934   5.550 -2.2326  0.0581  1.3138
  552MOL0     H74478   8.733   4.828   5.399 -1.1067 -0.6442  0.7816
  552MOL0     H74479   8.786   4.998   5.403 -0.2406  0.4764  0.7398
  552MOL0     H74480   8.652   4.744   5.753 -0.9191 -1.0416  2.3124
  552MOL0     H74481   8.538   4.598   5.854  0.2374  2.2427  1.1144
  552MOL0     H74482   8.359   4.620   5.855  1.6532  2.2434  1.4358
  552MOL0     H74483   8.441   4.496   5.747  1.6787  0.6608 -0.9758
  552MOL0     H74484   7.893   4.711   5.692 -1.3356  0.6403 -0.1412
  552MOL0     H74485   7.690   4.589   5.646 -3.0144  1.4955 -1.6494
  552MOL0     H74486   7.664   4.382   5.271  0.3049  0.0880  0.4195
  552MOL0     H74487   7.684   4.244   5.394  1.1809  1.3592  1.5689
  552MOL0     H74488   7.453   4.275   5.468 -1.0809 -1.5106 -0.6807
  552MOL0     H74489   7.418   4.396   5.343 -0.1189  0.9046 -0.5443
  552MOL0     H74490   7.454   4.093   5.290  4.4153  0.3803 -3.3185
  552MOL0     H74491   7.409   4.219   5.172 -0.0750  0.6820  0.5247
  552MOL0     H74492   7.219   4.089   5.300  1.3944 -1.7433  0.1661
  552MOL0     H74493   7.254   4.205   5.433  4.2393 -1.9444  0.9206
  552MOL0     H74494   7.196   4.267   5.131  2.7409  0.7759 -0.1713
  552MOL0     H74495   7.204   4.391   5.253  1.3284 -1.7382  0.2831
  552MOL0     H74496   6.984   4.182   5.287 -1.8600  0.5765  1.0967
  552MOL0     H74497   7.014   4.309   5.383 -2.1691  0.3590 -0.0961
  552MOL0     H74498   6.963   4.469   5.182  0.9071 -0.3984  1.5409
  552MOL0     H74499   6.831   4.379   5.248 -0.7443  1.9910 -0.1874
  552MOL0     H74500   6.913   4.206   5.042  3.2400  0.2509 -2.4539
  552MOL0     H74501   6.957   4.357   4.978  0.3797  1.0125  0.6592
  552MOL0     H74502   7.879   4.416   5.296  0.2411  2.9987 -3.7119
  552MOL0     H74503   8.083   4.538   5.353 -0.1364 -1.1741  0.5948
  552MOL0     H74504   8.293   4.868   5.431 -0.1458 -0.5707 -0.3699
  552MOL0     H74505   8.503   4.987   5.436  3.0955 -0.7730 -0.8577
  552MOL0     H74506  10.229   5.397   5.940  0.7174  0.6027  0.0072
  552MOL0     H74507  10.479   5.375   5.991 -1.3402 -0.4018  0.2383
  552MOL0     H74508  10.917   5.503   5.792 -0.8270 -1.4957 -0.6906
  552MOL0     H74509  11.120   5.476   5.742 -0.4913  2.7450  1.4357
  552MOL0     H74510  11.382   5.392   5.684 -0.8862 -2.7004 -0.8194
  552MOL0     H74511  11.370   5.454   5.857  0.2990  1.0636 -1.2396
  552MOL0     H74512  11.577   5.404   5.870 -2.3130  0.7135  0.3608
  552MOL0     H74513  11.585   5.284   5.735  0.9825  1.0522 -0.1505
  552MOL0     H74514  11.502   5.104   5.882  0.7120  1.0490 -1.3837
  552MOL0     H74515  11.475   5.219   6.011 -0.2384 -1.0355 -0.2269
  552MOL0     H74516  11.679   5.085   6.040  0.1962  1.2916  1.2493
  552MOL0     H74517  11.703   5.257   6.065  1.3952  1.7753 -1.0487
  552MOL0     H74518  11.966   5.195   5.747  1.9837  2.1443  1.7963
  552MOL0     H74519  11.131   5.096   5.949  0.0312  1.3188  2.1328
  552MOL0     H74520  10.888   5.101   5.955 -1.0588  1.1564  0.9594
  553MOL0     O74521   4.931   6.306   8.388  0.5102  0.2872 -0.5201
  553MOL0     C74522   4.973   6.331   8.275 -0.4464  0.1860  0.1829
  553MOL0     O74523   4.912   6.418   8.190 -0.0014  0.3856 -0.0226
  553MOL0     C74524   4.781   6.450   8.189  0.0550  0.5965 -0.4388
  553MOL0     C74525   4.670   6.369   8.240 -0.0919 -0.2746  0.0097
  553MOL0     C74526   4.540   6.423   8.241  0.1360  0.7467 -0.3310
  553MOL0     C74527   4.519   6.553   8.197 -0.4370  0.6464  0.0612
  553MOL0     O74528   4.385   6.585   8.202 -0.0979 -0.3825  0.1697
  553MOL0     C74529   4.349   6.723   8.210  0.1807  0.5305 -0.9380
  553MOL0     C74530   4.326   6.783   8.068  0.4717  0.9547  0.2492
  553MOL0     C74531   4.203   6.719   8.007  0.4918  0.2282 -0.0800
  553MOL0     C74532   4.197   6.707   7.859  0.0531 -0.0457  0.2827
  553MOL0     C74533   4.083   6.619   7.805 -0.1149  0.2262 -0.2228
  553MOL0     C74534   3.957   6.699   7.790 -0.0380 -0.1930  0.1812
  553MOL0     C74535   3.832   6.604   7.804  0.5036  0.5996 -0.3020
  553MOL0     C74536   3.793   6.541   7.672  0.4388 -0.1626  0.5730
  553MOL0     N74537   3.683   6.446   7.691  0.0134 -0.4672  0.2679
  553MOL0     C74538   3.555   6.489   7.713  0.6789  0.0443 -0.2234
  553MOL0     C74539   3.476   6.375   7.698  0.1500 -0.7572 -1.0202
  553MOL0     C74540   3.321   6.382   7.699  0.7645  0.0105 -0.6632
  553MOL0     C74541   3.267   6.334   7.562 -0.1394 -0.2833 -0.5402
  553MOL0     C74542   3.335   6.401   7.443 -0.2922  0.1505  0.0335
  553MOL0     C74543   3.307   6.323   7.312 -0.4929  0.0201  0.5729
  553MOL0     O74544   3.349   6.399   7.191 -0.3471  0.4665  0.1402
  553MOL0     C74545   3.295   6.370   7.068  1.2616 -0.2508 -0.0505
  553MOL0     C74546   3.226   6.250   7.042 -0.7599 -0.2348  0.0403
  553MOL0     C74547   3.174   6.222   6.910  0.4462 -0.0704  0.0538
  553MOL0     C74548   3.090   6.093   6.893  0.6081 -1.5235 -0.4219
  553MOL0     C74549   3.195   6.313   6.804  0.2617  0.8921 -0.7382
  553MOL0     C74550   3.111   6.295   6.678 -0.4909 -0.1307 -0.3569
  553MOL0     O74551   3.198   6.307   6.568  0.4018  0.6062  0.8458
  553MOL0     C74552   3.147   6.262   6.450  0.5699 -1.0708  0.8648
  553MOL0     C74553   3.052   6.344   6.379  0.2286  0.2705 -0.2503
  553MOL0     C74554   2.990   6.305   6.260 -0.0837  0.7135  0.3943
  553MOL0     C74555   3.035   6.184   6.203 -0.0177  0.5648 -0.2264
  553MOL0     O74556   2.992   6.121   6.082  0.8650 -0.0540  0.4083
  553MOL0     C74557   2.926   6.204   5.987 -0.2456  0.6512  0.6937
  553MOL0     C74558   2.843   6.110   5.897 -0.7485 -0.6274  0.2125
  553MOL0     C74559   2.713   6.067   5.973  0.9570 -0.2422 -0.2743
  553MOL0     C74560   2.595   6.024   5.884 -0.0958  0.6844  0.1978
  553MOL0     C74561   2.643   5.934   5.776 -0.8087  0.7429  0.4357
  553MOL0     C74562   2.540   5.886   5.682 -0.6169 -0.3033 -0.8721
  553MOL0     C74563   2.420   5.824   5.762 -0.0562 -0.2671  0.5074
  553MOL0     C74564   2.336   5.744   5.652  0.8063 -0.6150 -0.9084
  553MOL0    Cl74565   2.227   5.852   5.555  0.2865 -0.0362 -0.4650
  553MOL0     C74566   3.116   6.103   6.274  0.4083  0.5658  0.5367
  553MOL0     C74567   3.189   6.140   6.386  0.1490 -0.2910 -0.1066
  553MOL0     O74568   2.985   6.281   6.680 -0.0049 -0.5156 -0.9784
  553MOL0     C74569   3.279   6.416   6.830 -0.5651 -0.6802  0.5382
  553MOL0     C74570   3.328   6.445   6.952 -0.0305  0.5584  0.0044
  553MOL0     N74571   3.559   6.274   7.661  0.0506  0.6569 -0.0417
  553MOL0     N74572   3.680   6.315   7.647  0.7468 -0.1259 -0.4961
  553MOL0     C74573   4.624   6.627   8.152  0.6728  0.4283 -0.4186
  553MOL0     C74574   4.757   6.582   8.157 -0.4335  0.5017 -0.4790
  553MOL0     C74575   5.108   6.289   8.245  0.4739 -0.6332  0.4737
  553MOL0     C74576   5.181   6.216   8.342  0.9017  0.4505  0.8871
  553MOL0     C74577   5.303   6.161   8.305 -0.4128 -0.3422  0.6043
  553MOL0     C74578   5.361   6.180   8.181  1.1629  0.2760 -0.1814
  553MOL0     O74579   5.490   6.134   8.146  0.9247  0.2104 -0.8479
  553MOL0     C74580   5.597   6.223   8.168  0.4608 -0.3288 -1.0721
  553MOL0     C74581   5.723   6.181   8.085  0.8021 -0.5251  0.8707
  553MOL0     C74582   5.764   6.040   8.116 -1.0994  0.4281 -0.0455
  553MOL0     C74583   5.912   6.010   8.077  0.1274 -0.9187  0.4532
  553MOL0     C74584   6.020   6.104   8.136 -0.2616  0.7921 -0.3166
  553MOL0     C74585   6.103   6.181   8.185  0.6071  0.2050 -0.6163
  553MOL0     C74586   5.291   6.251   8.082  0.9265  1.0466 -0.4431
  553MOL0     C74587   5.160   6.309   8.116 -0.1876 -0.1729  0.3282
  553MOL0     H74588   4.679   6.265   8.270 -0.1994 -0.1769  0.3879
  553MOL0     H74589   4.455   6.361   8.269  0.5616  0.2417 -0.1492
  553MOL0     H74590   4.261   6.732   8.273  2.0422  2.3545  1.5898
  553MOL0     H74591   4.424   6.782   8.263 -0.2834  2.1277 -1.9893
  553MOL0     H74592   4.322   6.892   8.066 -0.5983  0.9444  1.3226
  553MOL0     H74593   4.411   6.752   8.005  0.7612  0.3096  0.9330
  553MOL0     H74594   4.185   6.621   8.053 -0.0355  0.2246 -0.2835
  553MOL0     H74595   4.123   6.786   8.040  0.0863 -0.0155 -0.5370
  553MOL0     H74596   4.190   6.804   7.809  0.0960 -0.5571 -0.7290
  553MOL0     H74597   4.290   6.657   7.832  0.9440  1.8600 -0.3412
  553MOL0     H74598   4.108   6.585   7.704 -2.1771  3.0698 -1.8102
  553MOL0     H74599   4.066   6.531   7.868 -1.4489 -1.2190 -2.4674
  553MOL0     H74600   3.962   6.776   7.868  0.2446 -0.0109 -0.0134
  553MOL0     H74601   3.952   6.763   7.701 -0.4182  0.9593  0.9980
  553MOL0     H74602   3.848   6.531   7.884  0.1281  1.0493  0.2001
  553MOL0     H74603   3.755   6.666   7.852  1.4300  0.3157  1.6491
  553MOL0     H74604   3.881   6.485   7.640  0.5564 -0.4050  1.2996
  553MOL0     H74605   3.764   6.623   7.605  2.9685  0.4376  0.1138
  553MOL0     H74606   3.508   6.585   7.731  1.6108  0.6871 -1.0920
  553MOL0     H74607   3.281   6.320   7.779  1.1124  1.2766  0.5459
  553MOL0     H74608   3.288   6.484   7.721  2.4161  0.7504 -1.4332
  553MOL0     H74609   3.161   6.357   7.547  0.1940  0.9455 -1.1225
  553MOL0     H74610   3.282   6.226   7.561 -0.2804 -0.3958  1.8406
  553MOL0     H74611   3.443   6.421   7.453 -0.1066 -0.4306 -0.7185
  553MOL0     H74612   3.286   6.496   7.420 -1.2772 -0.4173 -0.2573
  553MOL0     H74613   3.199   6.313   7.319 -0.4836 -1.6334 -0.8114
  553MOL0     H74614   3.360   6.229   7.330 -1.8055 -0.1692  4.2729
  553MOL0     H74615   3.193   6.178   7.116  0.3109 -0.9380 -0.1470
  553MOL0     H74616   2.982   6.111   6.899  0.6334 -1.7669  2.0284
  553MOL0     H74617   3.107   6.039   6.800 -0.0193 -4.2669  0.9250
  553MOL0     H74618   3.123   6.028   6.975  1.7688 -1.6489 -0.9825
  553MOL0     H74619   3.032   6.442   6.421  1.5371  0.0937  0.8660
  553MOL0     H74620   2.926   6.378   6.212  3.0514  3.3017 -0.2025
  553MOL0     H74621   2.861   6.278   6.036 -0.7046 -0.3986  1.7305
  553MOL0     H74622   2.996   6.257   5.922  1.9937 -0.7907  1.7815
  553MOL0     H74623   2.813   6.161   5.805  0.0884  0.3863  0.4844
  553MOL0     H74624   2.910   6.026   5.878 -0.3012 -0.3591  0.5836
  553MOL0     H74625   2.674   6.148   6.035  0.3136 -0.6914 -0.0942
  553MOL0     H74626   2.747   5.991   6.044  0.5117 -2.1207 -1.9779
  553MOL0     H74627   2.535   5.967   5.955 -1.4553  1.3601 -0.3731
  553MOL0     H74628   2.555   6.116   5.839  2.3475  0.1692 -3.5359
  553MOL0     H74629   2.698   5.847   5.813 -0.0392  0.2762 -1.6619
  553MOL0     H74630   2.722   5.980   5.716 -1.1586  0.6852 -0.0790
  553MOL0     H74631   2.493   5.968   5.626  0.4992  1.8442  1.1769
  553MOL0     H74632   2.571   5.810   5.609 -3.1263 -0.2790 -2.0715
  553MOL0     H74633   2.351   5.888   5.818 -0.6692  1.6634 -2.2522
  553MOL0     H74634   2.481   5.752   5.817  1.7946  0.4238 -0.5737
  553MOL0     H74635   2.264   5.675   5.696  1.5496  0.6101  2.5593
  553MOL0     H74636   2.396   5.681   5.585  1.0454  0.9449 -2.2383
  553MOL0     H74637   3.134   6.005   6.230  1.4650  0.3346  1.4361
  553MOL0     H74638   3.274   6.084   6.425 -0.0217 -1.7558 -1.7207
  553MOL0     H74639   3.298   6.486   6.749 -0.8144  1.7831  2.4992
  553MOL0     H74640   3.374   6.541   6.971 -2.2145  1.4768  0.8870
  553MOL0     H74641   4.602   6.728   8.118  1.5306  0.3858 -1.1278
  553MOL0     H74642   4.843   6.645   8.138 -0.3128  0.8951  1.1936
  553MOL0     H74643   5.145   6.208   8.444  1.2039 -0.9853  0.8990
  553MOL0     H74644   5.368   6.127   8.385  0.3831 -0.6154 -0.1439
  553MOL0     H74645   5.565   6.321   8.129  1.3612  1.0229  1.3843
  553MOL0     H74646   5.626   6.231   8.273 -1.5516 -0.4189 -0.4680
  553MOL0     H74647   5.805   6.254   8.089 -1.3134  2.1942 -1.4830
  553MOL0     H74648   5.696   6.183   7.979  1.2125  2.8671  0.7205
  553MOL0     H74649   5.703   5.974   8.053 -0.2444  1.1727 -1.7331
  553MOL0     H74650   5.745   6.022   8.222 -3.4498 -1.1037 -0.6359
  553MOL0     H74651   5.913   6.012   7.967  0.5960 -1.1203  0.4487
  553MOL0     H74652   5.952   5.914   8.111  0.5353 -0.7755  0.3848
  553MOL0     H74653   6.172   6.244   8.236  2.2161 -1.2122 -0.9659
  553MOL0     H74654   5.333   6.277   7.986  1.1599  0.4303 -0.5090
  553MOL0     H74655   5.114   6.372   8.041  0.2753 -2.2284 -1.7987
  554MOL0     O74656   5.798   7.961   2.142 -0.4275  0.6235  0.2040
  554MOL0     C74657   5.711   8.020   2.090 -0.0765 -0.9250  1.1049
  554MOL0     O74658   5.714   8.070   1.955  0.5728 -0.0541 -0.9754
  554MOL0     C74659   5.835   8.121   1.922 -0.4846 -0.9047  0.5475
  554MOL0     C74660   5.907   8.201   2.006 -0.1258 -0.6748 -1.1015
  554MOL0     C74661   6.033   8.261   1.956 -0.3711 -0.4056 -0.5847
  554MOL0     C74662   6.084   8.233   1.826  0.2976 -0.0198  0.2337
  554MOL0     O74663   6.200   8.289   1.770 -0.1984 -0.4914  0.2098
  554MOL0     C74664   6.249   8.239   1.642 -0.4823  0.2269 -0.8075
  554MOL0     C74665   6.392   8.280   1.616  0.9373 -0.0764 -0.3824
  554MOL0     C74666   6.393   8.421   1.538  0.4278 -0.1603  0.1639
  554MOL0     C74667   6.531   8.472   1.503  0.9895 -0.2594  0.0328
  554MOL0     C74668   6.530   8.623   1.470  0.0262  0.4402 -0.4325
  554MOL0     C74669   6.673   8.682   1.443  0.1241 -0.8445 -1.0094
  554MOL0     C74670   6.660   8.826   1.400 -0.1925 -1.1901  0.1728
  554MOL0     C74671   6.783   8.896   1.357 -0.4539 -0.0407  0.7937
  554MOL0     N74672   6.750   9.043   1.353 -0.0221  0.1724  0.4243
  554MOL0     C74673   6.805   9.143   1.436  0.6443 -0.7137  0.4207
  554MOL0     C74674   6.761   9.254   1.370 -0.0901 -0.1059  0.3121
  554MOL0     C74675   6.797   9.391   1.412  0.1573  0.1259  0.0783
  554MOL0     C74676   6.708   9.438   1.526 -0.4172  0.4318  0.4221
  554MOL0     C74677   6.779   9.557   1.595  0.6548 -0.3099 -0.5872
  554MOL0     C74678   6.680   9.634   1.686 -0.7627 -0.1041 -0.7927
  554MOL0     O74679   6.609   9.556   1.781 -0.4594 -0.6633 -0.1319
  554MOL0     C74680   6.503   9.617   1.849 -0.8296  0.1315  0.4778
  554MOL0     C74681   6.478   9.751   1.848 -0.2317 -0.4981 -0.4797
  554MOL0     C74682   6.360   9.802   1.914 -0.6107  0.0723  0.4298
  554MOL0     C74683   6.353   9.957   1.917 -0.7240 -0.8120 -0.7059
  554MOL0     C74684   6.262   9.714   1.980 -1.1267  0.0174  0.0486
  554MOL0     C74685   6.143   9.755   2.043 -0.1918  0.6630 -0.1003
  554MOL0     O74686   6.057   9.653   2.083 -0.6362  0.3879  0.1108
  554MOL0     C74687   5.939   9.678   2.147  0.7404 -0.1879  0.1353
  554MOL0     C74688   5.833   9.595   2.112 -0.3968 -0.7322 -0.3156
  554MOL0     C74689   5.706   9.609   2.179 -0.5465 -0.5280  0.5142
  554MOL0     C74690   5.696   9.702   2.281  0.2831  0.8368  0.0879
  554MOL0     O74691   5.575   9.703   2.352 -0.2013 -1.2467  0.3106
  554MOL0     C74692   5.454   9.648   2.296  0.1437  0.2336 -0.1297
  554MOL0     C74693   5.336   9.746   2.334  0.1229 -0.3765 -0.1644
  554MOL0     C74694   5.193   9.671   2.329 -0.3598 -1.1186  0.3915
  554MOL0     C74695   5.157   9.630   2.184  0.0757 -0.7494 -0.2505
  554MOL0     C74696   5.011   9.637   2.167  0.3459  0.5453 -0.2333
  554MOL0     C74697   4.961   9.575   2.031  0.2142 -0.5237 -0.2002
  554MOL0     C74698   4.818   9.617   1.999  0.0584  0.0014 -0.4071
  554MOL0     C74699   4.712   9.589   2.106  0.1778  0.0196  0.3920
  554MOL0    Cl74700   4.557   9.657   2.057  0.4501 -0.0933 -0.3698
  554MOL0     C74701   5.805   9.784   2.314 -1.3590 -0.3952 -0.4142
  554MOL0     C74702   5.928   9.767   2.255  0.2576 -0.1745  1.1398
  554MOL0     O74703   6.114   9.874   2.049 -0.5627  0.6114  0.4581
  554MOL0     C74704   6.301   9.574   1.976 -0.0777  0.1604  0.1736
  554MOL0     C74705   6.409   9.528   1.903 -0.0293  0.2571  0.2906
  554MOL0     N74706   6.682   9.226   1.254 -0.0738 -0.0070  0.3392
  554MOL0     N74707   6.677   9.097   1.251 -0.0804 -0.2198  0.0029
  554MOL0     C74708   6.011   8.143   1.742  1.0089 -0.1204 -1.1130
  554MOL0     C74709   5.886   8.094   1.792  0.1044  0.2848 -0.2690
  554MOL0     C74710   5.585   8.027   2.168  1.1346 -0.3413  0.2557
  554MOL0     C74711   5.465   8.079   2.098 -0.8542  0.1401 -1.3116
  554MOL0     C74712   5.350   8.112   2.177 -0.1024 -0.5861 -0.1388
  554MOL0     C74713   5.350   8.088   2.314 -0.0014 -0.5567  0.0732
  554MOL0     O74714   5.242   8.103   2.398 -0.2669 -0.1874  0.2447
  554MOL0     C74715   5.106   8.097   2.343 -0.1239 -1.1678 -0.7572
  554MOL0     C74716   5.002   8.128   2.451 -0.8184 -0.2005  0.0952
  554MOL0     C74717   4.862   8.138   2.387 -0.1381  0.1112  0.2044
  554MOL0     C74718   4.785   8.009   2.353  0.0690  0.2916 -0.7977
  554MOL0     C74719   4.785   7.911   2.464  1.0670 -0.2598  0.8231
  554MOL0     C74720   4.769   7.825   2.547  0.4293  0.0914 -0.1609
  554MOL0     C74721   5.461   8.040   2.375  0.5197 -0.3983 -0.6191
  554MOL0     C74722   5.577   8.007   2.304  0.3304  0.0737  0.6273
  554MOL0     H74723   5.875   8.223   2.107  0.0524  0.8187 -1.3403
  554MOL0     H74724   6.095   8.330   2.012  0.3834 -1.1893 -0.4410
  554MOL0     H74725   6.257   8.130   1.651 -0.6903  0.3016  0.4469
  554MOL0     H74726   6.182   8.280   1.565  0.2703 -0.9156 -2.1144
  554MOL0     H74727   6.446   8.277   1.711  2.3999 -0.5070 -1.2028
  554MOL0     H74728   6.444   8.205   1.554 -0.9648 -1.5391 -0.3034
  554MOL0     H74729   6.337   8.407   1.445  0.2600  0.3158  0.1881
  554MOL0     H74730   6.343   8.502   1.593  0.6709 -1.3538  2.2175
  554MOL0     H74731   6.600   8.451   1.586 -1.1436 -0.0318  1.9528
  554MOL0     H74732   6.556   8.413   1.414  0.2807  0.3932 -0.6141
  554MOL0     H74733   6.448   8.640   1.399 -0.8042  2.3061  0.8773
  554MOL0     H74734   6.495   8.677   1.558 -3.1500 -2.3785  0.2445
  554MOL0     H74735   6.724   8.680   1.540 -2.2522 -2.5877  0.3297
  554MOL0     H74736   6.729   8.619   1.373  2.2438 -0.9263  0.6608
  554MOL0     H74737   6.585   8.843   1.322 -0.2679 -0.2773  0.4303
  554MOL0     H74738   6.612   8.881   1.482 -4.3337 -1.2987 -1.8936
  554MOL0     H74739   6.813   8.869   1.256  3.2820 -1.7889  2.1829
  554MOL0     H74740   6.860   8.864   1.428 -1.1806 -0.8207  1.2571
  554MOL0     H74741   6.875   9.122   1.516  3.3190 -2.4469 -2.1504
  554MOL0     H74742   6.902   9.395   1.443  0.3945  0.8343 -0.7749
  554MOL0     H74743   6.782   9.460   1.328 -1.2856 -0.0986  0.1360
  554MOL0     H74744   6.691   9.358   1.599  2.0556 -0.1301  0.4649
  554MOL0     H74745   6.611   9.469   1.486 -0.0106  2.1941  0.7165
  554MOL0     H74746   6.818   9.634   1.528  1.6037  0.4963  0.8360
  554MOL0     H74747   6.864   9.518   1.652  2.2506  0.8106 -2.0964
  554MOL0     H74748   6.611   9.695   1.628 -1.8331 -2.1756 -1.8066
  554MOL0     H74749   6.740   9.706   1.742 -0.7242 -1.5530  1.1350
  554MOL0     H74750   6.550   9.819   1.804  1.2793 -1.3128  0.6365
  554MOL0     H74751   6.327   9.995   2.016 -1.7386  1.1788 -1.6814
  554MOL0     H74752   6.444  10.009   1.886 -0.8870  1.8677  2.7067
  554MOL0     H74753   6.268   9.998   1.862 -1.6238 -0.3281  0.9654
  554MOL0     H74754   5.837   9.512   2.043 -1.8131 -1.5252  0.5124
  554MOL0     H74755   5.624   9.548   2.143 -0.3430 -0.4500 -0.0770
  554MOL0     H74756   5.450   9.643   2.186 -1.0563 -3.8113 -0.0777
  554MOL0     H74757   5.431   9.552   2.344 -0.5518  0.3429 -0.2404
  554MOL0     H74758   5.336   9.790   2.434 -2.7130 -1.3943  0.3831
  554MOL0     H74759   5.328   9.832   2.267  1.9775 -0.0230  0.0121
  554MOL0     H74760   5.120   9.742   2.368  1.9191  2.8620 -1.8346
  554MOL0     H74761   5.206   9.585   2.395  1.5307 -1.1051  0.0768
  554MOL0     H74762   5.203   9.699   2.112 -1.7497  1.0805  0.2044
  554MOL0     H74763   5.190   9.528   2.164  2.7547  0.2367 -1.4089
  554MOL0     H74764   4.989   9.743   2.174  0.4217  0.5097  0.6782
  554MOL0     H74765   4.963   9.573   2.242  1.5313 -1.0823 -0.7863
  554MOL0     H74766   5.024   9.616   1.952  0.8278  0.8144  0.9335
  554MOL0     H74767   4.966   9.468   2.054 -1.9549 -0.2884  1.7121
  554MOL0     H74768   4.789   9.555   1.914  0.7780 -2.4261  1.0205
  554MOL0     H74769   4.813   9.723   1.971  0.1973 -0.2490 -1.4348
  554MOL0     H74770   4.741   9.636   2.200 -2.2975  0.3932  1.0415
  554MOL0     H74771   4.705   9.481   2.126 -1.0806 -0.1795 -0.9282
  554MOL0     H74772   5.800   9.850   2.400 -1.5685 -2.1200  0.9455
  554MOL0     H74773   6.013   9.824   2.292  1.2814 -1.5822  1.0180
  554MOL0     H74774   6.236   9.496   2.013 -0.7615 -0.5512 -2.3425
  554MOL0     H74775   6.422   9.421   1.891 -0.5457  0.2463 -0.2241
  554MOL0     H74776   6.041   8.110   1.643 -0.9695 -0.2992 -1.7068
  554MOL0     H74777   5.817   8.041   1.726  1.7648 -0.2792 -1.6406
  554MOL0     H74778   5.481   8.092   1.992  3.0508 -0.8139 -0.9814
  554MOL0     H74779   5.273   8.158   2.117 -0.4343  2.4969  2.3897
  554MOL0     H74780   5.094   8.176   2.267 -0.4068 -1.3532 -0.9056
  554MOL0     H74781   5.077   7.999   2.305 -1.6694  0.0070 -2.8145
  554MOL0     H74782   5.022   8.224   2.498  0.4503 -0.5225  0.2555
  554MOL0     H74783   5.005   8.047   2.525  0.1602  1.4129  1.9003
  554MOL0     H74784   4.868   8.205   2.302 -3.1381  1.2944  0.7841
  554MOL0     H74785   4.808   8.183   2.471  1.0579 -1.9241  2.1868
  554MOL0     H74786   4.836   7.949   2.276 -0.2808 -2.0126  0.6755
  554MOL0     H74787   4.685   8.039   2.319 -0.7020 -1.4679 -0.1721
  554MOL0     H74788   4.745   7.750   2.619 -1.0930 -0.2920 -1.0222
  554MOL0     H74789   5.447   8.015   2.479 -1.6131  2.4754 -0.1128
  554MOL0     H74790   5.659   7.964   2.361 -0.0068  1.6918  2.4292
  555MOL0     O74791   5.373   8.544   0.804  0.0583  0.1128 -0.1027
  555MOL0     C74792   5.436   8.478   0.728  0.4031  0.8393 -0.2456
  555MOL0     O74793   5.384   8.425   0.610  0.2207  0.0697 -0.0508
  555MOL0     C74794   5.252   8.454   0.569  0.0643 -0.4793 -1.1455
  555MOL0     C74795   5.236   8.459   0.432  1.1871 -0.7287  0.7686
  555MOL0     C74796   5.114   8.494   0.375 -0.0254 -0.0182  0.0849
  555MOL0     C74797   5.008   8.539   0.458  0.1739 -0.0187 -0.9174
  555MOL0     O74798   4.896   8.578   0.388  0.8757  1.0455 -0.3319
  555MOL0     C74799   4.792   8.647   0.468 -0.4157 -0.8314  0.3904
  555MOL0     C74800   4.689   8.718   0.377 -0.3665 -0.6515 -0.2368
  555MOL0     C74801   4.601   8.822   0.454  1.2096 -0.0508  0.7207
  555MOL0     C74802   4.463   8.773   0.506 -0.1380  0.6816  0.1102
  555MOL0     C74803   4.409   8.841   0.628 -0.7464  0.4020 -0.2241
  555MOL0     C74804   4.282   8.767   0.672  0.4349  0.3155 -0.3117
  555MOL0     C74805   4.200   8.838   0.786 -0.7138 -0.3529  0.6643
  555MOL0     C74806   4.062   8.774   0.793  0.1170  0.1078 -0.5824
  555MOL0     N74807   4.016   8.757   0.928  0.3028  0.1730 -0.2695
  555MOL0     C74808   3.979   8.852   1.017 -0.1912  0.5611  0.0919
  555MOL0     C74809   3.967   8.783   1.137  0.2872  0.3233  0.5623
  555MOL0     C74810   3.918   8.836   1.266  0.1715 -0.0677  0.5350
  555MOL0     C74811   3.771   8.871   1.242 -0.1739  0.1929 -0.9259
  555MOL0     C74812   3.715   8.943   1.359 -0.4914  0.4212 -1.0774
  555MOL0     C74813   3.562   8.947   1.362 -1.3903 -0.2654 -0.0780
  555MOL0     O74814   3.530   9.009   1.493 -0.6121  0.8642  0.2899
  555MOL0     C74815   3.398   8.974   1.536 -0.0884  0.0287  1.1136
  555MOL0     C74816   3.379   8.931   1.659 -0.2926  0.3866 -0.4635
  555MOL0     C74817   3.255   8.898   1.710  0.4209  0.5615  0.3967
  555MOL0     C74818   3.268   8.843   1.842 -0.7348 -0.5949  0.4884
  555MOL0     C74819   3.146   8.890   1.624 -0.1189  0.5048  0.2813
  555MOL0     C74820   3.023   8.833   1.651 -0.3302 -0.0425 -0.4073
  555MOL0     O74821   2.919   8.866   1.570 -0.3670 -0.2367  0.2941
  555MOL0     C74822   2.792   8.824   1.600  0.6487 -0.3422 -0.0241
  555MOL0     C74823   2.723   8.868   1.717  0.8925  0.4283 -0.1199
  555MOL0     C74824   2.587   8.851   1.726 -0.1216 -0.0621 -0.6306
  555MOL0     C74825   2.522   8.767   1.640  0.5436 -0.0349  0.4412
  555MOL0     O74826   2.386   8.738   1.645  0.5252 -0.0045  0.1087
  555MOL0     C74827   2.297   8.809   1.739  0.4257 -1.0119 -0.2152
  555MOL0     C74828   2.153   8.757   1.713 -0.8990 -0.4879  0.2808
  555MOL0     C74829   2.064   8.817   1.829 -0.3860  0.8343 -0.1783
  555MOL0     C74830   1.913   8.817   1.791  0.3835 -0.4696 -0.1837
  555MOL0     C74831   1.843   8.687   1.841  0.3256  0.9581  0.0068
  555MOL0     C74832   1.693   8.672   1.801 -0.2534  0.3882  0.1490
  555MOL0     C74833   1.666   8.643   1.657  0.0857 -0.0657  0.3049
  555MOL0     C74834   1.515   8.613   1.636 -0.2827 -0.9433  0.3846
  555MOL0    Cl74835   1.428   8.771   1.660 -0.6824  0.2528 -0.0022
  555MOL0     C74836   2.587   8.726   1.524  0.3766 -0.1984 -0.6190
  555MOL0     C74837   2.719   8.748   1.503 -0.1700 -0.0588  0.6453
  555MOL0     O74838   3.023   8.748   1.740 -0.2708  0.3466 -0.7859
  555MOL0     C74839   3.155   8.955   1.497 -0.4643  0.3695 -1.0637
  555MOL0     C74840   3.283   8.998   1.454  0.7814  0.5277  0.2641
  555MOL0     N74841   4.006   8.653   1.117  0.8561  0.3203 -0.3697
  555MOL0     N74842   4.030   8.637   0.988 -0.2411 -0.0609  0.3222
  555MOL0     C74843   5.025   8.545   0.595  0.0612  0.2087 -0.5894
  555MOL0     C74844   5.142   8.490   0.650 -0.0001  0.1990  0.3160
  555MOL0     C74845   5.577   8.441   0.758 -0.9404 -0.6325  1.1449
  555MOL0     C74846   5.658   8.374   0.659 -0.2233  0.8247 -0.5171
  555MOL0     C74847   5.792   8.356   0.679 -0.9690 -0.3434 -0.0238
  555MOL0     C74848   5.857   8.387   0.802  0.2388  0.2980  0.6757
  555MOL0     O74849   5.987   8.365   0.832 -0.9162  0.3868  0.4261
  555MOL0     C74850   6.056   8.271   0.753  0.9229  0.8263 -0.2433
  555MOL0     C74851   6.173   8.216   0.832 -0.6751  0.3829 -0.4138
  555MOL0     C74852   6.243   8.101   0.762 -0.7868 -0.8369 -0.3235
  555MOL0     C74853   6.389   8.077   0.824  0.2451  0.1972  0.5499
  555MOL0     C74854   6.470   8.002   0.729 -0.3983 -0.1710  0.2563
  555MOL0     C74855   6.548   7.963   0.651  0.1630 -0.8399  0.2385
  555MOL0     C74856   5.778   8.460   0.896  0.7472 -0.1490  0.0027
  555MOL0     C74857   5.646   8.494   0.871 -0.1737  0.0156  1.0392
  555MOL0     H74858   5.316   8.440   0.362  0.0746 -0.4424 -0.6257
  555MOL0     H74859   5.094   8.499   0.268  1.1316 -1.3863 -0.2168
  555MOL0     H74860   4.741   8.571   0.527  0.2603 -3.2611 -1.9502
  555MOL0     H74861   4.853   8.718   0.526  1.4608 -0.5997 -1.7190
  555MOL0     H74862   4.748   8.768   0.299 -1.0921 -2.7359 -2.2199
  555MOL0     H74863   4.632   8.642   0.324  0.0514 -0.8285 -0.4430
  555MOL0     H74864   4.662   8.854   0.539  0.6685  2.2903  0.2773
  555MOL0     H74865   4.588   8.915   0.400 -0.0153 -1.0985 -0.8601
  555MOL0     H74866   4.392   8.775   0.423 -1.0015 -4.1954  0.4242
  555MOL0     H74867   4.464   8.670   0.542 -2.2057 -0.3180 -2.3744
  555MOL0     H74868   4.492   8.858   0.697  1.0941  0.7965 -2.4081
  555MOL0     H74869   4.390   8.944   0.596  1.3266  0.1833 -2.5394
  555MOL0     H74870   4.221   8.763   0.582 -0.9309  0.0451  0.5907
  555MOL0     H74871   4.300   8.663   0.699  3.5185  0.1800 -2.4021
  555MOL0     H74872   4.257   8.813   0.875 -1.0792 -3.5201  0.1328
  555MOL0     H74873   4.206   8.945   0.763  0.2851 -1.0635 -3.1809
  555MOL0     H74874   4.064   8.672   0.754  2.0000 -1.0210  2.1536
  555MOL0     H74875   3.994   8.832   0.729 -0.1497  1.2860  0.7117
  555MOL0     H74876   3.956   8.957   1.001 -1.6212  0.4380  1.1529
  555MOL0     H74877   3.919   8.756   1.340 -0.9240 -3.3551 -2.7268
  555MOL0     H74878   3.971   8.929   1.291 -5.1384  4.2570 -2.0950
  555MOL0     H74879   3.725   8.771   1.242 -0.8546  0.2688  3.7288
  555MOL0     H74880   3.751   8.931   1.153  2.9264  1.0694 -1.1224
  555MOL0     H74881   3.736   9.050   1.348 -3.7060  1.2309 -0.5290
  555MOL0     H74882   3.749   8.896   1.451 -1.4834  1.9878  0.1422
  555MOL0     H74883   3.523   8.845   1.358 -0.2958 -0.6892 -0.5943
  555MOL0     H74884   3.534   9.006   1.274 -0.1122 -0.6367 -0.7755
  555MOL0     H74885   3.471   8.926   1.716 -0.1397  0.4531 -0.7065
  555MOL0     H74886   3.277   8.737   1.815 -3.8741 -0.3683 -2.0256
  555MOL0     H74887   3.355   8.875   1.900  0.0168 -0.5929 -0.6021
  555MOL0     H74888   3.188   8.865   1.913  0.9067  0.1420  2.1923
  555MOL0     H74889   2.783   8.915   1.794  2.1103 -2.7944  1.0781
  555MOL0     H74890   2.545   8.890   1.819  0.4529 -1.0146  0.0456
  555MOL0     H74891   2.327   8.799   1.844 -0.0969 -2.2179 -0.1724
  555MOL0     H74892   2.313   8.915   1.714 -0.3977 -1.3412 -2.3025
  555MOL0     H74893   2.117   8.800   1.619  0.5903  0.2331  0.0163
  555MOL0     H74894   2.149   8.648   1.708 -1.0376 -0.5546  1.5022
  555MOL0     H74895   2.091   8.915   1.869 -2.3351  1.0626  0.6839
  555MOL0     H74896   2.081   8.765   1.924 -1.0420 -1.0429 -1.0392
  555MOL0     H74897   1.865   8.899   1.844 -0.5823 -0.9787 -0.2525
  555MOL0     H74898   1.888   8.826   1.685 -0.6642  1.6558  0.2002
  555MOL0     H74899   1.848   8.692   1.950 -0.4300 -2.4630  0.2884
  555MOL0     H74900   1.890   8.592   1.816 -1.4171  0.0758 -0.1168
  555MOL0     H74901   1.645   8.597   1.864 -1.3883  1.2380  0.3387
  555MOL0     H74902   1.640   8.766   1.822  0.8960  0.8945  0.8260
  555MOL0     H74903   1.717   8.551   1.626  0.7219  0.6245 -0.7749
  555MOL0     H74904   1.703   8.726   1.595  0.0368 -1.0809 -1.1528
  555MOL0     H74905   1.487   8.531   1.704 -0.0881 -0.2355  1.3380
  555MOL0     H74906   1.503   8.579   1.533 -0.5934  1.7715 -0.5534
  555MOL0     H74907   2.531   8.666   1.451 -0.3548 -0.4503  0.1296
  555MOL0     H74908   2.752   8.710   1.407  0.1996 -1.0147  1.1403
  555MOL0     H74909   3.073   8.970   1.426  0.2478  1.7744 -1.6270
  555MOL0     H74910   3.283   9.049   1.358  1.2607 -1.7053 -0.9880
  555MOL0     H74911   4.953   8.587   0.664  1.2752 -2.9624  2.9575
  555MOL0     H74912   5.148   8.498   0.758  0.7407  2.5478  0.1498
  555MOL0     H74913   5.612   8.331   0.570 -1.0254  0.2710  0.1543
  555MOL0     H74914   5.842   8.304   0.598 -0.9810  0.0469 -0.2884
  555MOL0     H74915   5.994   8.184   0.727  4.0783 -1.2157 -1.6157
  555MOL0     H74916   6.094   8.317   0.661  3.6582 -1.3354 -0.3614
  555MOL0     H74917   6.148   8.187   0.934  1.0194  0.9390  0.1924
  555MOL0     H74918   6.245   8.299   0.837  1.3889 -1.1214 -2.6509
  555MOL0     H74919   6.254   8.133   0.658  1.6674  2.0609  0.6913
  555MOL0     H74920   6.180   8.014   0.783 -0.7533 -1.1071 -1.2608
  555MOL0     H74921   6.369   8.020   0.915 -1.3216 -1.0109 -0.5011
  555MOL0     H74922   6.439   8.170   0.853 -2.4068  1.9474 -0.1167
  555MOL0     H74923   6.616   7.908   0.589 -1.0102 -2.7075  0.5317
  555MOL0     H74924   5.832   8.501   0.980  1.2273  0.1231 -0.4329
  555MOL0     H74925   5.583   8.558   0.931 -0.2439  1.4775 -0.4954
  556MOL0     O74926   8.133   1.609   5.632 -0.3179 -0.8978  0.3633
  556MOL0     C74927   8.185   1.714   5.670  0.7424 -0.0565  0.0295
  556MOL0     O74928   8.119   1.835   5.666  0.0337 -0.2329 -0.1315
  556MOL0     C74929   8.010   1.835   5.589 -0.1665  0.1883 -0.0625
  556MOL0     C74930   7.887   1.850   5.651  0.0101  0.1937 -0.2987
  556MOL0     C74931   7.775   1.866   5.571  0.3301  0.1176 -0.3736
  556MOL0     C74932   7.784   1.852   5.432  0.6043  0.7812 -0.0507
  556MOL0     O74933   7.658   1.853   5.371  0.4375  0.4183 -0.2723
  556MOL0     C74934   7.653   1.805   5.244  0.3221 -0.3781 -0.6838
  556MOL0     C74935   7.517   1.763   5.210  0.6903 -0.1919  0.0691
  556MOL0     C74936   7.488   1.651   5.311 -0.3474  0.3929 -0.3624
  556MOL0     C74937   7.348   1.591   5.299  0.2110 -0.0833 -0.3160
  556MOL0     C74938   7.331   1.503   5.421  0.4932 -1.5589  0.1050
  556MOL0     C74939   7.188   1.434   5.433 -0.6486  0.0521  0.6876
  556MOL0     C74940   7.074   1.532   5.407  0.0275 -0.8583 -0.0632
  556MOL0     C74941   6.945   1.470   5.455  1.3393  0.3759 -0.4645
  556MOL0     N74942   6.825   1.553   5.443 -0.8060  0.6879  0.0901
  556MOL0     C74943   6.790   1.653   5.521 -0.6232 -0.3884  0.4356
  556MOL0     C74944   6.668   1.689   5.495  0.8526 -0.4735  0.2855
  556MOL0     C74945   6.584   1.780   5.580  0.1345 -1.0656 -0.8630
  556MOL0     C74946   6.633   1.927   5.546  0.1011 -0.7711 -0.1147
  556MOL0     C74947   6.556   2.039   5.620  0.8782  0.4264  0.5073
  556MOL0     C74948   6.453   2.095   5.522  0.2855 -0.2173  0.1727
  556MOL0     O74949   6.339   2.014   5.526  0.6104 -0.5081  0.1752
  556MOL0     C74950   6.226   2.068   5.468  0.0365  0.7633  0.5188
  556MOL0     C74951   6.121   1.980   5.444  0.4158  0.1501  0.2712
  556MOL0     C74952   5.997   2.015   5.390 -0.8807  0.1735 -0.1853
  556MOL0     C74953   5.891   1.906   5.391  0.0571  0.8789  0.0709
  556MOL0     C74954   5.978   2.143   5.339 -0.2335 -0.2123  0.8154
  556MOL0     C74955   5.854   2.196   5.275  0.1606 -0.8143 -0.5053
  556MOL0     O74956   5.787   2.113   5.190  0.0084  0.3358  0.1216
  556MOL0     C74957   5.665   2.153   5.138 -0.1135 -0.4036 -0.0373
  556MOL0     C74958   5.570   2.214   5.213  0.6804 -0.6667 -0.4948
  556MOL0     C74959   5.440   2.253   5.154 -0.0327 -0.0640 -0.5748
  556MOL0     C74960   5.414   2.227   5.021  0.6497  0.0593 -0.3432
  556MOL0     O74961   5.300   2.267   4.953 -0.3256 -0.1113 -0.0918
  556MOL0     C74962   5.229   2.389   4.995 -0.4561  0.4116  0.5390
  556MOL0     C74963   5.117   2.411   4.896 -0.0657 -0.1506 -0.5784
  556MOL0     C74964   5.018   2.515   4.938  0.8399  0.5239 -1.1059
  556MOL0     C74965   4.921   2.529   4.817 -0.5876 -0.6751  0.2278
  556MOL0     C74966   4.829   2.644   4.820 -0.3724 -0.4778 -0.2600
  556MOL0     C74967   4.699   2.626   4.903  0.1314 -0.2801 -0.5523
  556MOL0     C74968   4.596   2.741   4.870  0.3377 -0.6640 -0.7841
  556MOL0     C74969   4.593   2.856   4.969 -0.1247 -0.0587  0.3363
  556MOL0    Cl74970   4.449   2.948   4.949  0.2783 -0.3551 -0.1541
  556MOL0     C74971   5.507   2.157   4.947  0.5829  0.4975 -0.1581
  556MOL0     C74972   5.620   2.110   5.016  0.5610 -0.4234 -0.1144
  556MOL0     O74973   5.822   2.312   5.295 -0.9519 -0.7194  0.2891
  556MOL0     C74974   6.092   2.229   5.345  0.7931  0.5105 -0.1007
  556MOL0     C74975   6.209   2.196   5.407 -0.7563 -0.1915  0.2846
  556MOL0     N74976   6.621   1.606   5.392 -0.8614  0.3991 -0.5383
  556MOL0     N74977   6.722   1.522   5.365 -0.6762  0.2232  0.3046
  556MOL0     C74978   7.908   1.849   5.375 -0.4179 -0.5682  0.1416
  556MOL0     C74979   8.024   1.841   5.446  0.7045 -0.3346  0.5431
  556MOL0     C74980   8.319   1.708   5.726 -0.1269  0.4526  0.0768
  556MOL0     C74981   8.421   1.802   5.701  0.1073  0.6349 -0.2300
  556MOL0     C74982   8.541   1.801   5.760 -0.0556 -0.4653 -0.3583
  556MOL0     C74983   8.581   1.695   5.849  0.2252 -0.2054 -0.3942
  556MOL0     O74984   8.707   1.670   5.901 -0.4541  0.2067  0.7445
  556MOL0     C74985   8.786   1.790   5.932 -0.1347 -0.3777 -0.2209
  556MOL0     C74986   8.906   1.748   6.029  0.3460  0.8856  0.1879
  556MOL0     C74987   9.014   1.677   5.944  0.4306 -0.2151  0.4732
  556MOL0     C74988   9.118   1.623   6.041 -0.1993 -0.2521  0.8476
  556MOL0     C74989   9.240   1.594   5.966  0.0215  0.0656 -0.4872
  556MOL0     C74990   9.324   1.555   5.894  0.1792 -0.2248  0.1116
  556MOL0     C74991   8.475   1.603   5.877  0.1723 -0.2704  0.3610
  556MOL0     C74992   8.349   1.608   5.819 -0.6203 -0.1759 -0.9103
  556MOL0     H74993   7.886   1.852   5.759 -2.7675  3.3160 -0.2406
  556MOL0     H74994   7.684   1.892   5.623  0.4732  0.9269 -0.5164
  556MOL0     H74995   7.679   1.886   5.174 -1.7443 -0.8439 -2.0899
  556MOL0     H74996   7.726   1.724   5.231  1.6977  0.3900  1.6259
  556MOL0     H74997   7.449   1.847   5.227  1.9768  0.9222 -0.1009
  556MOL0     H74998   7.520   1.732   5.105  0.2159  1.3189 -0.4179
  556MOL0     H74999   7.560   1.572   5.286 -2.4757 -1.4738 -0.8561
  556MOL0     H75000   7.491   1.692   5.412  1.2448 -1.5940  0.4649
  556MOL0     H75001   7.277   1.674   5.303  0.1562 -0.1776  0.7243
  556MOL0     H75002   7.336   1.535   5.206  0.4893  1.9668 -1.6653
  556MOL0     H75003   7.405   1.423   5.430  0.5780 -1.6803 -1.4017
  556MOL0     H75004   7.348   1.575   5.502  1.7401  0.0388 -1.5002
  556MOL0     H75005   7.172   1.356   5.359 -0.7787  0.3270  0.4276
  556MOL0     H75006   7.184   1.397   5.536  2.7142 -1.5448  0.3517
  556MOL0     H75007   7.080   1.630   5.456 -1.0301 -2.0704  2.7017
  556MOL0     H75008   7.058   1.540   5.299  1.7573 -0.2446 -0.3058
  556MOL0     H75009   6.938   1.449   5.562 -0.5605  1.0305 -0.4383
  556MOL0     H75010   6.929   1.373   5.408 -1.3325 -1.7547  4.1486
  556MOL0     H75011   6.860   1.689   5.596 -1.8082  2.5449  0.2814
  556MOL0     H75012   6.477   1.774   5.559 -0.2556  2.2525 -0.4194
  556MOL0     H75013   6.606   1.758   5.685 -0.0130 -0.1084 -0.6141
  556MOL0     H75014   6.642   1.945   5.439 -3.9228 -1.1211 -0.6529
  556MOL0     H75015   6.736   1.939   5.582  0.1756  1.4717 -0.9350
  556MOL0     H75016   6.626   2.120   5.638 -0.4957  2.0921 -1.2633
  556MOL0     H75017   6.520   2.008   5.719 -1.0042 -0.3777 -0.3730
  556MOL0     H75018   6.488   2.102   5.419 -0.3358  0.3823 -0.0095
  556MOL0     H75019   6.428   2.196   5.555  0.3155  0.6052 -2.1692
  556MOL0     H75020   6.136   1.875   5.468  0.2320 -0.0499 -0.4608
  556MOL0     H75021   5.891   1.844   5.301  3.1640  0.3235  0.3434
  556MOL0     H75022   5.904   1.839   5.476 -3.0944 -4.1506 -2.9208
  556MOL0     H75023   5.791   1.948   5.401  0.0832  1.9976 -3.1580
  556MOL0     H75024   5.600   2.226   5.317  1.4269  1.3004 -0.8904
  556MOL0     H75025   5.365   2.293   5.222  0.8681 -1.2480  1.1888
  556MOL0     H75026   5.193   2.381   5.098 -0.5517 -0.2242  0.4580
  556MOL0     H75027   5.299   2.474   4.991  0.4454 -0.2302  1.8235
  556MOL0     H75028   5.145   2.453   4.799 -1.5418  3.0871  0.2667
  556MOL0     H75029   5.058   2.319   4.885 -0.2705 -0.2792  1.2176
  556MOL0     H75030   5.069   2.610   4.955  1.5216  0.0647 -0.5489
  556MOL0     H75031   4.960   2.502   5.030  1.0547  4.2133 -0.2898
  556MOL0     H75032   4.980   2.555   4.729 -1.8793 -0.0329 -0.4734
  556MOL0     H75033   4.854   2.444   4.807 -1.7015  0.4588 -3.1158
  556MOL0     H75034   4.807   2.665   4.715  2.8739  2.4859 -0.5462
  556MOL0     H75035   4.880   2.736   4.851 -2.4879  0.8219 -0.4086
  556MOL0     H75036   4.645   2.533   4.882 -1.5602  0.5318 -0.0370
  556MOL0     H75037   4.722   2.626   5.010  0.8209 -4.0072 -0.5495
  556MOL0     H75038   4.495   2.700   4.874  0.3081 -0.5508 -0.2683
  556MOL0     H75039   4.611   2.785   4.771 -0.0329  1.4643  0.0345
  556MOL0     H75040   4.685   2.912   4.950 -1.4427  1.7649 -1.1243
  556MOL0     H75041   4.589   2.818   5.071 -1.4049 -2.5697 -0.5523
  556MOL0     H75042   5.490   2.130   4.843 -2.5521 -0.6605  0.5187
  556MOL0     H75043   5.683   2.044   4.957  0.9326 -0.7013  0.5760
  556MOL0     H75044   6.081   2.327   5.300 -2.6887  0.1171 -0.3374
  556MOL0     H75045   6.284   2.273   5.422  0.3902 -1.3328  0.5707
  556MOL0     H75046   7.914   1.851   5.266  0.9452 -1.5070  0.1844
  556MOL0     H75047   8.117   1.826   5.393 -0.2274 -0.7339 -1.0527
  556MOL0     H75048   8.403   1.881   5.630 -0.5984 -0.2192 -1.0333
  556MOL0     H75049   8.617   1.873   5.731 -0.1730 -0.2031 -0.0105
  556MOL0     H75050   8.834   1.839   5.847  1.2786  1.0964  1.3456
  556MOL0     H75051   8.720   1.861   5.982 -0.1307  0.2148 -1.0332
  556MOL0     H75052   8.860   1.685   6.107 -0.1755  1.7156  0.5659
  556MOL0     H75053   8.954   1.837   6.070  3.8175  0.1746 -1.9521
  556MOL0     H75054   9.067   1.749   5.881  0.5444 -0.1503  0.6406
  556MOL0     H75055   8.972   1.599   5.880  0.5153 -1.3203  1.7101
  556MOL0     H75056   9.077   1.533   6.087 -1.1629  0.5023  1.5086
  556MOL0     H75057   9.157   1.698   6.111  0.7389  0.9550 -0.8883
  556MOL0     H75058   9.407   1.514   5.839 -0.1491  0.3430 -0.8171
  556MOL0     H75059   8.500   1.507   5.922 -2.4807 -0.8455  0.7834
  556MOL0     H75060   8.281   1.524   5.831  0.3982 -1.0743 -1.2587
  557MOL0     O75061   4.023   5.879  10.368  0.0176 -0.0785  0.7233
  557MOL0     C75062   4.105   5.928  10.290  1.0494 -1.4756  0.0357
  557MOL0     O75063   4.089   6.053  10.242  0.5218  0.0082  0.5053
  557MOL0     C75064   3.988   6.130  10.295  0.6766 -0.3605 -0.5667
  557MOL0     C75065   3.897   6.199  10.213 -0.1688  0.1768 -0.0236
  557MOL0     C75066   3.801   6.279  10.257 -0.1229 -0.1232 -0.2734
  557MOL0     C75067   3.784   6.297  10.394  0.1791  0.1518  0.0567
  557MOL0     O75068   3.710   6.384  10.462 -0.2569 -0.2503  0.6692
  557MOL0     C75069   3.685   6.506  10.397 -0.4340 -0.1887  0.4281
  557MOL0     C75070   3.669   6.618  10.496  0.8601  0.1359 -0.8503
  557MOL0     C75071   3.525   6.612  10.558 -0.1268  0.9159  1.5484
  557MOL0     C75072   3.514   6.612  10.711 -1.5280 -0.8693 -0.0601
  557MOL0     C75073   3.377   6.600  10.753  0.3372 -0.7572  0.8931
  557MOL0     C75074   3.288   6.721  10.727 -0.5369 -0.0952 -1.0927
  557MOL0     C75075   3.133   6.695  10.762 -1.0551  0.4187  0.6439
  557MOL0     C75076   3.053   6.813  10.700  0.0378  0.3556  0.7632
  557MOL0     N75077   2.994   6.894  10.804 -0.2595 -0.2827 -0.1205
  557MOL0     C75078   2.900   6.993  10.780  0.0583 -0.1534  0.3525
  557MOL0     C75079   2.899   7.066  10.891 -0.7146  1.1093 -0.1613
  557MOL0     C75080   2.826   7.194  10.896  0.3129  0.2511 -0.2722
  557MOL0     C75081   2.685   7.150  10.942  0.8674  0.8389  0.4101
  557MOL0     C75082   2.573   7.250  10.900 -0.7828  0.4061 -0.8023
  557MOL0     C75083   2.436   7.197  10.950 -0.0890  0.0141 -0.4236
  557MOL0     O75084   2.361   7.318  10.979  0.6655  0.5911  0.7810
  557MOL0     C75085   2.228   7.316  10.997 -0.0935  0.2128  0.4189
  557MOL0     C75086   2.158   7.195  11.015 -0.3917  0.2710  0.1859
  557MOL0     C75087   2.023   7.198  11.024 -0.6374  0.4035  0.8727
  557MOL0     C75088   1.968   7.060  11.022  0.7732 -0.5326  0.1249
  557MOL0     C75089   1.955   7.317  11.031 -0.2522 -0.9358 -0.1159
  557MOL0     C75090   1.806   7.335  11.035  0.3663  0.3498 -0.0337
  557MOL0     O75091   1.758   7.463  11.025 -0.2555  0.1477  0.2746
  557MOL0     C75092   1.635   7.476  11.094  0.2134  0.3799  1.7088
  557MOL0     C75093   1.618   7.450  11.228 -0.2692 -0.1820  0.1444
  557MOL0     C75094   1.488   7.474  11.287 -0.3448  0.1622 -0.0277
  557MOL0     C75095   1.385   7.519  11.215  0.4487  0.2535  0.5161
  557MOL0     O75096   1.252   7.523  11.255 -0.1439 -0.1198  0.6095
  557MOL0     C75097   1.211   7.499  11.393  0.2413 -0.3222 -0.2279
  557MOL0     C75098   1.072   7.539  11.422  0.6324  0.2183 -0.5563
  557MOL0     C75099   1.028   7.473  11.555  0.8063  0.4317  0.1909
  557MOL0     C75100   1.050   7.574  11.671 -0.5534  0.2347  0.2029
  557MOL0     C75101   0.970   7.527  11.795  0.1111  0.0811  0.1212
  557MOL0     C75102   0.818   7.562  11.764 -0.9451  0.3226 -0.3301
  557MOL0     C75103   0.743   7.578  11.900 -0.6184  0.2813 -0.2687
  557MOL0     C75104   0.584   7.584  11.878  0.2583  0.3436 -0.0858
  557MOL0    Cl75105   0.510   7.426  11.844  0.0853 -0.6010  0.3023
  557MOL0     C75106   1.408   7.556  11.083 -0.2223 -0.4484  0.5329
  557MOL0     C75107   1.532   7.525  11.017 -0.0144 -0.2159 -0.1215
  557MOL0     O75108   1.736   7.235  11.060 -0.5362  0.5200 -0.6218
  557MOL0     C75109   2.027   7.440  11.030 -0.7049  0.2380 -0.3926
  557MOL0     C75110   2.163   7.442  11.010  0.5848 -0.4408 -0.9649
  557MOL0     N75111   2.977   7.008  10.992  0.0583  0.1321  0.6240
  557MOL0     N75112   3.035   6.909  10.935 -0.0040 -0.2273 -0.0042
  557MOL0     C75113   3.860   6.221  10.484 -0.2369 -0.5499  0.5393
  557MOL0     C75114   3.967   6.148  10.435 -1.2377 -0.8436  0.9414
  557MOL0     C75115   4.231   5.864  10.258  1.0107 -0.1942 -0.4609
  557MOL0     C75116   4.262   5.742  10.325  0.0665 -0.1729 -0.2525
  557MOL0     C75117   4.372   5.672  10.297 -1.0409 -0.1673  0.4525
  557MOL0     C75118   4.471   5.729  10.209 -0.3972  0.4296  0.2416
  557MOL0     O75119   4.593   5.650  10.186 -0.1864 -0.4324 -0.9345
  557MOL0     C75120   4.676   5.631  10.307 -0.2079  0.2036  0.6864
  557MOL0     C75121   4.824   5.587  10.265  0.1959  0.6896  0.0136
  557MOL0     C75122   4.906   5.708  10.223 -0.5369  0.2917  1.0626
  557MOL0     C75123   4.864   5.752  10.078 -0.0678 -0.1022  0.7703
  557MOL0     C75124   4.935   5.869  10.033  0.7431 -0.4770 -0.0402
  557MOL0     C75125   5.004   5.953   9.985 -0.0279 -0.6476 -0.8800
  557MOL0     C75126   4.448   5.853  10.160  0.4272 -0.3127  0.8234
  557MOL0     C75127   4.330   5.921  10.180 -0.2729 -0.0925 -0.0129
  557MOL0     H75128   3.918   6.187  10.107 -1.6093 -0.3081 -0.2765
  557MOL0     H75129   3.749   6.345  10.188  1.1157  3.3609  1.8254
  557MOL0     H75130   3.769   6.533  10.333 -0.8826 -1.3206 -0.6739
  557MOL0     H75131   3.593   6.500  10.338 -0.7580 -0.7062  0.9785
  557MOL0     H75132   3.750   6.616  10.569 -2.2144 -1.1444  2.8788
  557MOL0     H75133   3.653   6.714  10.445 -0.3706 -0.2084 -1.1378
  557MOL0     H75134   3.471   6.691  10.505 -1.1567  0.1290  1.3981
  557MOL0     H75135   3.470   6.529  10.511  0.9906  2.2733 -2.5759
  557MOL0     H75136   3.572   6.527  10.749 -0.1901 -0.7272 -1.6554
  557MOL0     H75137   3.558   6.706  10.745  1.2060 -1.1207 -2.5335
  557MOL0     H75138   3.330   6.514  10.704 -1.2231  0.3724  0.3485
  557MOL0     H75139   3.377   6.575  10.860  1.6012 -1.4565  0.7500
  557MOL0     H75140   3.326   6.806  10.784 -0.0438 -0.3033 -1.1098
  557MOL0     H75141   3.288   6.749  10.621 -0.4415  1.1532 -0.7808
  557MOL0     H75142   3.101   6.602  10.715 -1.4246  1.3687 -1.1014
  557MOL0     H75143   3.137   6.708  10.871 -0.5600 -1.9259  0.9438
  557MOL0     H75144   2.982   6.765  10.632  2.2203  1.4886 -2.5589
  557MOL0     H75145   3.123   6.870  10.639  1.6840  0.1049  2.3031
  557MOL0     H75146   2.838   7.014  10.693 -1.0217 -1.4572  0.7635
  557MOL0     H75147   2.873   7.257  10.972  0.4899 -2.1034  1.6868
  557MOL0     H75148   2.830   7.252  10.803 -0.4282  2.0204  0.7370
  557MOL0     H75149   2.683   7.129  11.049 -1.1405  0.3755  0.3082
  557MOL0     H75150   2.657   7.056  10.895  3.2212  0.5872 -0.6403
  557MOL0     H75151   2.573   7.256  10.791 -1.6812  1.5872 -0.7555
  557MOL0     H75152   2.594   7.348  10.944 -3.2010  0.9461 -0.7272
  557MOL0     H75153   2.455   7.137  11.039  1.1753 -0.2917 -0.8726
  557MOL0     H75154   2.389   7.137  10.872  0.7894 -2.6192  0.9765
  557MOL0     H75155   2.207   7.099  11.006 -1.5667 -0.3709  0.3807
  557MOL0     H75156   1.882   7.042  10.958  0.3980 -2.8984  1.1833
  557MOL0     H75157   2.038   6.979  10.997  0.3044 -0.7555 -0.5046
  557MOL0     H75158   1.923   7.036  11.119 -0.3848 -2.1272 -0.7526
  557MOL0     H75159   1.709   7.414  11.275  0.5322  1.9875  0.3883
  557MOL0     H75160   1.462   7.445  11.389  0.7362 -1.2066 -0.1027
  557MOL0     H75161   1.220   7.392  11.414  0.7365 -0.6085 -1.7544
  557MOL0     H75162   1.270   7.566  11.456 -0.1380 -0.2739  0.0771
  557MOL0     H75163   1.058   7.647  11.421  1.6946  0.4096 -3.1395
  557MOL0     H75164   1.006   7.512  11.339 -0.3035 -1.1862  0.6083
  557MOL0     H75165   1.078   7.378  11.575  0.9780  0.7636  1.4490
  557MOL0     H75166   0.921   7.455  11.541  0.8551 -2.8856  2.8775
  557MOL0     H75167   1.152   7.574  11.712 -0.3939 -1.6623 -0.0887
  557MOL0     H75168   1.024   7.675  11.638 -2.6891 -0.1146  0.6632
  557MOL0     H75169   1.003   7.562  11.893  0.9439  0.9938 -0.4707
  557MOL0     H75170   0.981   7.418  11.797 -1.2738 -0.1447 -1.7362
  557MOL0     H75171   0.803   7.647  11.697 -0.5397  0.3868 -0.3421
  557MOL0     H75172   0.760   7.482  11.718 -1.7771  0.0092  1.2154
  557MOL0     H75173   0.784   7.661  11.958 -0.6114 -1.5591  2.5316
  557MOL0     H75174   0.752   7.479  11.946 -1.0196 -0.3667 -1.5136
  557MOL0     H75175   0.552   7.649  11.796  1.8100 -0.4896 -1.4108
  557MOL0     H75176   0.539   7.619  11.971 -1.3337  0.9979 -1.0483
  557MOL0     H75177   1.327   7.590  11.020 -0.0418  0.2647  0.6844
  557MOL0     H75178   1.540   7.555  10.913 -0.1421 -0.8711 -0.3250
  557MOL0     H75179   1.973   7.534  11.031 -1.1556  0.0312  2.1497
  557MOL0     H75180   2.221   7.534  11.012 -0.0978 -0.0139  0.1615
  557MOL0     H75181   3.839   6.226  10.590 -5.5200  0.3646 -0.2710
  557MOL0     H75182   4.031   6.105  10.510  2.5390 -0.0950 -1.5727
  557MOL0     H75183   4.188   5.697  10.390 -2.7311  1.9852 -1.7485
  557MOL0     H75184   4.400   5.578  10.345 -1.7890 -0.7028 -0.1436
  557MOL0     H75185   4.669   5.722  10.367  0.7941  0.7186  0.0373
  557MOL0     H75186   4.631   5.548  10.363 -0.0110 -0.6059 -0.3145
  557MOL0     H75187   4.816   5.508  10.190 -2.7931  1.1605 -0.3197
  557MOL0     H75188   4.864   5.532  10.351 -0.3681 -0.3189 -0.3503
  557MOL0     H75189   5.012   5.683  10.228 -0.0605  1.4695 -1.5078
  557MOL0     H75190   4.890   5.796  10.286 -0.6759  2.9044 -2.3626
  557MOL0     H75191   4.762   5.792  10.088 -0.5833 -1.5671  1.7569
  557MOL0     H75192   4.854   5.662  10.016  1.6908  0.2057  0.0016
  557MOL0     H75193   5.073   6.024   9.944 -1.1073  0.6715 -0.4870
  557MOL0     H75194   4.525   5.910  10.109 -1.1851  1.7163  0.4997
  557MOL0     H75195   4.329   6.011  10.120  4.2801  1.4013  1.7701
  558MOL0     O75196   0.441   2.183   8.924 -0.1887  0.3067  0.1222
  558MOL0     C75197   0.379   2.139   8.827  0.4432 -0.2973 -0.1302
  558MOL0     O75198   0.311   2.025   8.830  0.0118 -0.5912 -0.4136
  558MOL0     C75199   0.192   2.029   8.889  0.3416 -0.3255 -0.5668
  558MOL0     C75200   0.126   1.906   8.897  0.1046 -1.2921 -0.4375
  558MOL0     C75201  -0.003   1.894   8.952  0.2753  0.0701 -0.6339
  558MOL0     C75202  -0.077   2.005   8.998 -0.3883  0.3691  0.7120
  558MOL0     O75203  -0.203   2.008   9.041 -0.5595 -0.2130  0.4918
  558MOL0     C75204  -0.291   1.910   8.979  0.6688 -0.0361 -0.1838
  558MOL0     C75205  -0.416   1.893   9.060  0.1568 -0.0703  0.7465
  558MOL0     C75206  -0.524   1.797   8.988 -0.2072 -0.3383  0.6054
  558MOL0     C75207  -0.620   1.740   9.099 -0.0865  0.2277 -0.4039
  558MOL0     C75208  -0.762   1.723   9.045 -0.2454  0.2299 -0.0188
  558MOL0     C75209  -0.863   1.658   9.142 -0.0686 -0.4790  0.7574
  558MOL0     C75210  -1.010   1.676   9.098 -0.2692  0.7849 -0.1383
  558MOL0     C75211  -1.056   1.585   8.988 -0.0454 -0.2726  0.1494
  558MOL0     N75212  -1.195   1.604   8.953  0.5817  0.5539  0.2360
  558MOL0     C75213  -1.240   1.692   8.859  0.4531  0.4303  0.7706
  558MOL0     C75214  -1.377   1.664   8.855  0.1259 -0.4979  0.9573
  558MOL0     C75215  -1.483   1.728   8.766 -0.0968  0.1105  0.4116
  558MOL0     C75216  -1.624   1.695   8.791  0.9987 -0.2088  0.0346
  558MOL0     C75217  -1.726   1.792   8.716 -0.1397  0.8972  0.0744
  558MOL0     C75218  -1.868   1.738   8.707 -0.5088 -0.6160 -0.3171
  558MOL0     O75219  -1.930   1.761   8.836  0.1957  1.5814 -0.0029
  558MOL0     C75220  -2.064   1.759   8.831 -0.2036  0.0447 -0.2939
  558MOL0     C75221  -2.148   1.661   8.889 -0.1180 -0.7000 -0.6552
  558MOL0     C75222  -2.285   1.674   8.894  0.2932  0.1689  0.9352
  558MOL0     C75223  -2.361   1.565   8.967 -0.2516 -0.1154  0.8237
  558MOL0     C75224  -2.351   1.781   8.820  0.2801  1.0667  0.5942
  558MOL0     C75225  -2.499   1.796   8.813 -0.0530  0.7156 -0.7206
  558MOL0     O75226  -2.530   1.894   8.722 -0.7689  0.2007  0.8378
  558MOL0     C75227  -2.670   1.918   8.694 -0.4043 -0.6530  1.2219
  558MOL0     C75228  -2.760   1.814   8.662  0.7849  0.7444  0.5440
  558MOL0     C75229  -2.898   1.841   8.656 -0.4824  0.4717  0.7687
  558MOL0     C75230  -2.942   1.970   8.667 -0.1846 -0.0206  0.1357
  558MOL0     O75231  -3.073   1.984   8.627  0.0764  0.4813  0.0582
  558MOL0     C75232  -3.157   2.092   8.670  0.8504 -0.7416  0.0806
  558MOL0     C75233  -3.220   2.177   8.563 -0.0849 -0.2253 -0.7628
  558MOL0     C75234  -3.278   2.090   8.453  0.3658  0.6282 -0.2375
  558MOL0     C75235  -3.362   2.172   8.354 -0.1580 -0.1384  0.1090
  558MOL0     C75236  -3.439   2.077   8.267  0.3155  0.1237  0.5654
  558MOL0     C75237  -3.354   1.999   8.165  0.0518 -0.9889  0.1829
  558MOL0     C75238  -3.331   1.852   8.194  0.6465  0.0524 -0.0198
  558MOL0     C75239  -3.290   1.768   8.067  0.4536 -1.2783  0.4977
  558MOL0    Cl75240  -3.337   1.599   8.104 -0.2446  0.1239 -0.0145
  558MOL0     C75241  -2.847   2.075   8.707 -0.8755 -0.5802 -0.7925
  558MOL0     C75242  -2.718   2.039   8.725  0.3332  0.0789 -0.4791
  558MOL0     O75243  -2.575   1.748   8.898 -0.2525  0.1118  0.2230
  558MOL0     C75244  -2.265   1.879   8.763  0.1288  0.5176 -0.0460
  558MOL0     C75245  -2.127   1.874   8.774  0.3826 -0.3665  0.0740
  558MOL0     N75246  -1.407   1.562   8.942 -1.0410 -0.3131  0.2855
  558MOL0     N75247  -1.297   1.529   8.998 -0.2270  0.1572 -0.5878
  558MOL0     C75248  -0.002   2.126   9.000  0.0388 -0.8161 -0.7404
  558MOL0     C75249   0.126   2.137   8.941 -0.4109 -0.2345  0.3005
  558MOL0     C75250   0.396   2.196   8.686  0.8525 -0.3363 -0.1991
  558MOL0     C75251   0.508   2.274   8.656 -0.6544  0.2671  0.6635
  558MOL0     C75252   0.536   2.314   8.523  0.1938  0.1603  0.3703
  558MOL0     C75253   0.455   2.265   8.422 -0.2540 -0.1773  0.7341
  558MOL0     O75254   0.487   2.317   8.302 -0.0548 -0.1627 -0.0117
  558MOL0     C75255   0.438   2.262   8.174 -0.2602 -0.7458 -0.8217
  558MOL0     C75256   0.500   2.336   8.055  0.2358 -0.1390 -0.0357
  558MOL0     C75257   0.501   2.485   8.071 -0.7947 -0.6053 -0.5477
  558MOL0     C75258   0.512   2.575   7.943 -0.7979 -0.5099  0.5683
  558MOL0     C75259   0.620   2.537   7.850 -0.4675  0.0132  0.2857
  558MOL0     C75260   0.711   2.503   7.771  0.2860  0.0807  0.6511
  558MOL0     C75261   0.350   2.176   8.444  0.0413  0.1754  0.5947
  558MOL0     C75262   0.326   2.143   8.578 -0.0207 -0.1638 -0.3036
  558MOL0     H75263   0.176   1.831   8.836  2.2137  0.5112 -1.0444
  558MOL0     H75264  -0.048   1.796   8.958  0.6800 -0.1661 -1.3343
  558MOL0     H75265  -0.307   1.947   8.877 -1.0244  0.8645  0.3781
  558MOL0     H75266  -0.250   1.812   8.954 -2.2353 -0.4383 -4.4826
  558MOL0     H75267  -0.394   1.843   9.154 -3.5046 -1.5102  1.0051
  558MOL0     H75268  -0.463   1.986   9.095  1.8343  1.8574 -1.7565
  558MOL0     H75269  -0.585   1.865   8.929  0.5976 -0.3836 -0.3175
  558MOL0     H75270  -0.486   1.713   8.929 -3.2719 -3.2889  2.4695
  558MOL0     H75271  -0.575   1.645   9.132 -1.8265 -1.1331 -1.7720
  558MOL0     H75272  -0.622   1.812   9.181 -3.5152 -0.9084  0.6689
  558MOL0     H75273  -0.805   1.820   9.018 -1.4539 -0.2727  0.0061
  558MOL0     H75274  -0.756   1.668   8.951 -0.2335  1.6853 -0.8964
  558MOL0     H75275  -0.854   1.549   9.150 -2.3590 -0.6579  1.8655
  558MOL0     H75276  -0.853   1.696   9.244  0.3266 -1.3626  1.0523
  558MOL0     H75277  -1.073   1.667   9.187  0.7157  1.8850  0.6997
  558MOL0     H75278  -1.028   1.774   9.053 -3.1779 -0.4094 -1.8525
  558MOL0     H75279  -1.034   1.485   9.028 -0.7003 -0.8900 -0.9813
  558MOL0     H75280  -0.996   1.601   8.898  2.1042  1.5588  1.7990
  558MOL0     H75281  -1.182   1.742   8.783  0.1785 -1.1583 -0.5398
  558MOL0     H75282  -1.474   1.836   8.780 -1.8250  0.2476  0.6890
  558MOL0     H75283  -1.456   1.708   8.662 -0.2606  1.5350  0.0818
  558MOL0     H75284  -1.644   1.711   8.897  0.7717  0.8155 -0.1523
  558MOL0     H75285  -1.646   1.591   8.765  1.4494 -0.0703 -0.9378
  558MOL0     H75286  -1.685   1.782   8.615  2.1092 -3.2595  1.1515
  558MOL0     H75287  -1.714   1.889   8.764  2.0138 -0.5274  2.6886
  558MOL0     H75288  -1.854   1.633   8.680  1.5528  0.1566 -2.6714
  558MOL0     H75289  -1.915   1.796   8.627 -0.7447  0.4214  0.5528
  558MOL0     H75290  -2.110   1.566   8.926 -0.2247 -0.3696  0.3257
  558MOL0     H75291  -2.300   1.482   9.004 -0.6406 -0.2657  1.1339
  558MOL0     H75292  -2.422   1.594   9.053  0.1916  0.1391  1.0495
  558MOL0     H75293  -2.433   1.525   8.894  0.6096 -0.5016  0.1624
  558MOL0     H75294  -2.722   1.714   8.645  1.6534  1.0064  0.8592
  558MOL0     H75295  -2.968   1.761   8.635  1.1580 -0.5459 -1.1131
  558MOL0     H75296  -3.242   2.045   8.718  0.3492 -0.5246 -0.5738
  558MOL0     H75297  -3.113   2.166   8.738  1.4782  3.4617 -4.2739
  558MOL0     H75298  -3.300   2.239   8.605 -0.6427 -1.4079 -0.0515
  558MOL0     H75299  -3.135   2.237   8.529  0.1224 -0.1992 -0.1969
  558MOL0     H75300  -3.328   2.006   8.503  4.0723 -2.2609 -0.8638
  558MOL0     H75301  -3.201   2.039   8.394 -1.7526 -2.2054 -0.7564
  558MOL0     H75302  -3.436   2.229   8.411 -0.1674 -1.4131  1.4118
  558MOL0     H75303  -3.297   2.236   8.294 -0.7152  0.5309  0.2049
  558MOL0     H75304  -3.519   2.132   8.215 -0.7545 -2.7550 -1.1268
  558MOL0     H75305  -3.486   2.006   8.336 -0.4776  1.0335  0.9708
  558MOL0     H75306  -3.418   1.999   8.076 -1.0865 -0.8592  0.9730
  558MOL0     H75307  -3.258   2.048   8.149 -0.4566  0.5648  1.5658
  558MOL0     H75308  -3.431   1.819   8.223 -0.4765  2.4919 -0.8094
  558MOL0     H75309  -3.261   1.832   8.276  0.1367  2.6102  1.1359
  558MOL0     H75310  -3.184   1.784   8.045  0.0126  2.5880  0.6111
  558MOL0     H75311  -3.344   1.802   7.979 -1.4154  3.3226  3.0628
  558MOL0     H75312  -2.881   2.176   8.728 -1.8996 -1.2255  0.8802
  558MOL0     H75313  -2.646   2.107   8.769 -0.3321  0.7589 -0.4275
  558MOL0     H75314  -2.292   1.978   8.727  0.4404  0.7382  0.3064
  558MOL0     H75315  -2.063   1.957   8.747 -0.2308  0.5260  1.2807
  558MOL0     H75316  -0.055   2.218   9.024 -2.5147 -1.5130 -3.2006
  558MOL0     H75317   0.161   2.236   8.913 -0.7395 -0.6499 -1.7435
  558MOL0     H75318   0.580   2.294   8.734  1.0787 -1.9636 -0.2330
  558MOL0     H75319   0.617   2.379   8.494  1.4814 -2.4523 -2.3719
  558MOL0     H75320   0.467   2.156   8.165  0.9954 -0.3771 -1.3100
  558MOL0     H75321   0.329   2.264   8.164 -0.8518 -0.5622  3.6390
  558MOL0     H75322   0.435   2.321   7.968  0.1556 -0.2029  0.0358
  558MOL0     H75323   0.601   2.296   8.038 -0.0663 -2.6323  3.1470
  558MOL0     H75324   0.590   2.503   8.131 -0.8089 -0.1145 -0.6703
  558MOL0     H75325   0.416   2.523   8.129 -0.4583 -0.3752 -0.2013
  558MOL0     H75326   0.527   2.682   7.957 -2.1445  0.1077 -2.0756
  558MOL0     H75327   0.415   2.554   7.896 -1.3613 -0.9702  1.8893
  558MOL0     H75328   0.781   2.481   7.692  1.1442  0.6175  1.2403
  558MOL0     H75329   0.289   2.134   8.364  0.8548  0.6169 -0.2791
  558MOL0     H75330   0.234   2.090   8.602  0.0162  0.4051  1.1997
  559MOL0     O75331   3.511   8.551   3.090 -0.9358  0.0844 -0.6455
  559MOL0     C75332   3.513   8.446   3.155  0.2437 -0.6829 -0.2161
  559MOL0     O75333   3.394   8.380   3.197 -0.7830 -0.5576 -0.2768
  559MOL0     C75334   3.263   8.428   3.180 -0.1171 -0.6598  0.4052
  559MOL0     C75335   3.215   8.541   3.109 -0.1384  0.1343 -0.0937
  559MOL0     C75336   3.079   8.575   3.109  0.6596  0.5709  0.1640
  559MOL0     C75337   2.985   8.484   3.167 -0.0019 -0.5941  0.0685
  559MOL0     O75338   2.843   8.504   3.160  0.4525  0.8533 -0.2305
  559MOL0     C75339   2.789   8.632   3.176  0.0233 -0.2577 -0.4612
  559MOL0     C75340   2.633   8.623   3.151  0.4407  1.0224 -0.2915
  559MOL0     C75341   2.553   8.749   3.205  0.3572 -0.1831 -0.4093
  559MOL0     C75342   2.429   8.788   3.123 -0.0014  0.0996 -0.4624
  559MOL0     C75343   2.356   8.906   3.192  0.7476  0.2159  0.2081
  559MOL0     C75344   2.246   8.956   3.094 -0.7008 -0.6398  0.4923
  559MOL0     C75345   2.207   9.091   3.136 -0.0510 -1.1711  0.4652
  559MOL0     C75346   2.168   9.087   3.283 -1.1582  0.1046 -0.1564
  559MOL0     N75347   2.102   9.206   3.316 -0.4099 -0.5672  0.4660
  559MOL0     C75348   1.964   9.216   3.324  0.5356 -0.2854  0.4687
  559MOL0     C75349   1.946   9.346   3.350  0.0361  0.1670  0.2939
  559MOL0     C75350   1.817   9.410   3.397  0.0093 -0.1837 -0.0983
  559MOL0     C75351   1.789   9.538   3.310 -0.0016 -0.2371 -0.2505
  559MOL0     C75352   1.692   9.641   3.359 -0.1337  0.1543 -0.5800
  559MOL0     C75353   1.546   9.594   3.339  0.1809 -0.1336 -0.5058
  559MOL0     O75354   1.508   9.485   3.424 -0.0435 -0.3482  0.3511
  559MOL0     C75355   1.377   9.458   3.408 -0.4780  0.2752 -1.2827
  559MOL0     C75356   1.332   9.348   3.333 -0.3161 -0.2140  0.2181
  559MOL0     C75357   1.201   9.306   3.348  0.8166  0.1345  0.4107
  559MOL0     C75358   1.169   9.175   3.278  0.1463 -0.2448 -0.6386
  559MOL0     C75359   1.106   9.377   3.423  0.0654  0.3904  0.1532
  559MOL0     C75360   0.964   9.329   3.429  0.2319  0.5358 -0.9301
  559MOL0     O75361   0.893   9.402   3.516 -0.4980  0.1063 -0.7349
  559MOL0     C75362   0.765   9.374   3.546  0.8926 -0.3508  0.3929
  559MOL0     C75363   0.715   9.368   3.673  0.1324  0.1181 -0.2804
  559MOL0     C75364   0.583   9.342   3.703 -0.8354 -0.3985 -0.6097
  559MOL0     C75365   0.485   9.333   3.604 -0.3529 -0.0943  1.2293
  559MOL0     O75366   0.353   9.304   3.619  0.6366  0.1698  0.0773
  559MOL0     C75367   0.281   9.363   3.729  0.2269  0.2904 -0.0526
  559MOL0     C75368   0.175   9.266   3.780  0.3395  0.2657  0.0392
  559MOL0     C75369   0.236   9.131   3.819  0.3702 -0.4068  0.3259
  559MOL0     C75370   0.294   9.137   3.957 -0.6440 -1.1066 -0.0989
  559MOL0     C75371   0.340   9.004   4.010  0.0110 -0.4485 -0.0198
  559MOL0     C75372   0.237   8.899   4.031 -0.8398  0.0801 -0.1379
  559MOL0     C75373   0.125   8.956   4.118  0.2282 -0.0958  0.4571
  559MOL0     C75374   0.070   8.845   4.207  1.4674  0.4940 -0.2073
  559MOL0    Cl75375   0.005   8.713   4.100  0.2047 -0.1053  0.5520
  559MOL0     C75376   0.535   9.337   3.476  0.4860 -1.0189  0.6331
  559MOL0     C75377   0.664   9.354   3.448 -0.2342 -0.0369 -0.7715
  559MOL0     O75378   0.916   9.229   3.377 -0.0483  1.0799  0.4439
  559MOL0     C75379   1.148   9.496   3.484 -0.1563 -1.0558  0.4878
  559MOL0     C75380   1.286   9.529   3.479 -0.2776 -0.5441 -0.0672
  559MOL0     N75381   2.073   9.401   3.358 -0.5703 -0.1343 -0.1076
  559MOL0     N75382   2.165   9.319   3.333  0.0469  0.3819  0.8009
  559MOL0     C75383   3.029   8.361   3.215 -0.2820  0.1211  0.1315
  559MOL0     C75384   3.168   8.340   3.231  0.7396  0.3933 -0.0250
  559MOL0     C75385   3.647   8.382   3.184 -0.2339  0.1931 -0.3735
  559MOL0     C75386   3.772   8.436   3.145  0.4757  0.8016  0.2803
  559MOL0     C75387   3.890   8.379   3.177  0.4208  0.3765 -0.1981
  559MOL0     C75388   3.892   8.266   3.262 -1.1258 -1.1205 -0.5343
  559MOL0     O75389   3.999   8.197   3.303  1.1921 -0.0247 -0.7110
  559MOL0     C75390   4.136   8.231   3.264  0.2796  0.4058 -0.2439
  559MOL0     C75391   4.233   8.136   3.345  0.1275 -0.9224 -0.6411
  559MOL0     C75392   4.385   8.143   3.307 -0.5095 -0.6667 -0.3460
  559MOL0     C75393   4.463   8.112   3.435 -0.1466 -0.1344 -0.6769
  559MOL0     C75394   4.444   7.991   3.518  0.3271  0.0293 -0.0226
  559MOL0     C75395   4.467   7.896   3.589  0.6674 -0.3756  0.3724
  559MOL0     C75396   3.773   8.224   3.320 -0.7907 -0.0814 -0.2779
  559MOL0     C75397   3.652   8.275   3.272 -0.7419 -0.1545 -0.0640
  559MOL0     H75398   3.291   8.608   3.071  2.4692 -2.9892 -0.8593
  559MOL0     H75399   3.042   8.664   3.059 -2.2934 -0.4908  0.2648
  559MOL0     H75400   2.815   8.671   3.275  1.1157  0.6604 -1.0854
  559MOL0     H75401   2.822   8.698   3.095  0.7257 -1.0827 -0.8682
  559MOL0     H75402   2.619   8.618   3.042  0.5755  2.1860 -0.3783
  559MOL0     H75403   2.583   8.538   3.198 -1.7827  0.6087 -3.1115
  559MOL0     H75404   2.533   8.731   3.311  0.4497 -0.5873 -0.4588
  559MOL0     H75405   2.622   8.833   3.191 -1.4375  1.3863 -0.2636
  559MOL0     H75406   2.448   8.819   3.020 -1.3605  3.3090  0.1518
  559MOL0     H75407   2.359   8.705   3.123  0.0611  0.0142  1.1650
  559MOL0     H75408   2.324   8.855   3.283 -0.2705 -0.3450 -0.4442
  559MOL0     H75409   2.436   8.978   3.213  1.8980  0.0960 -3.0699
  559MOL0     H75410   2.286   8.959   2.992  1.1967 -2.2908  1.1247
  559MOL0     H75411   2.162   8.886   3.095  1.2486 -3.0959  0.3419
  559MOL0     H75412   2.291   9.159   3.118 -0.1629 -1.2592 -0.4612
  559MOL0     H75413   2.121   9.133   3.084 -0.9582 -0.4063  2.4841
  559MOL0     H75414   2.254   9.088   3.349 -0.9475 -0.6475 -0.4081
  559MOL0     H75415   2.115   8.994   3.304  2.2706 -1.9816 -0.1303
  559MOL0     H75416   1.881   9.146   3.318  0.8807 -0.6382 -0.3628
  559MOL0     H75417   1.735   9.338   3.391 -0.2789  0.0907  0.5789
  559MOL0     H75418   1.831   9.431   3.503  0.5627 -1.2641  0.0665
  559MOL0     H75419   1.767   9.507   3.208 -4.5324 -1.8738  0.9873
  559MOL0     H75420   1.884   9.591   3.300 -1.4740  2.5891 -0.4416
  559MOL0     H75421   1.700   9.736   3.306 -2.6592  1.3337  0.9457
  559MOL0     H75422   1.711   9.662   3.465 -0.7741 -0.3174 -0.3662
  559MOL0     H75423   1.512   9.578   3.236 -1.7720 -0.1955  0.1077
  559MOL0     H75424   1.491   9.684   3.369  1.5553  1.8787 -3.5277
  559MOL0     H75425   1.402   9.302   3.265 -0.7056 -0.6311  0.0919
  559MOL0     H75426   1.086   9.188   3.208 -1.0754  1.0120  0.9440
  559MOL0     H75427   1.240   9.147   3.200  1.4861 -1.5047  0.9455
  559MOL0     H75428   1.144   9.095   3.349 -0.8502 -0.8460 -1.6471
  559MOL0     H75429   0.789   9.392   3.748  1.7735  2.9163 -2.5903
  559MOL0     H75430   0.559   9.325   3.808  0.9492  2.5071  0.4165
  559MOL0     H75431   0.342   9.398   3.813 -1.4142  1.5634  0.6449
  559MOL0     H75432   0.231   9.449   3.684  1.0687  2.1872  2.4035
  559MOL0     H75433   0.121   9.310   3.865  3.0122 -0.7427  2.4380
  559MOL0     H75434   0.101   9.243   3.702 -1.5527  1.8547  1.2693
  559MOL0     H75435   0.312   9.099   3.747 -2.1180 -0.4667 -2.4727
  559MOL0     H75436   0.161   9.052   3.813 -2.4247  1.8602  2.5754
  559MOL0     H75437   0.384   9.198   3.948 -0.2878 -1.4908  0.7781
  559MOL0     H75438   0.231   9.187   4.032 -0.2830  1.1424 -1.2014
  559MOL0     H75439   0.383   9.032   4.107 -0.9788  2.4994 -0.3220
  559MOL0     H75440   0.419   8.967   3.944 -1.1081 -0.7012 -1.2376
  559MOL0     H75441   0.198   8.853   3.940 -2.9980  0.7645  0.3978
  559MOL0     H75442   0.287   8.821   4.090 -1.4592  0.3521  0.7722
  559MOL0     H75443   0.049   8.995   4.051  0.2373  1.3122  1.2408
  559MOL0     H75444   0.161   9.045   4.170  4.3278  0.8274 -3.2693
  559MOL0     H75445  -0.013   8.887   4.263  1.5037  1.5816 -0.9355
  559MOL0     H75446   0.138   8.804   4.282  0.5635  0.2798  0.5125
  559MOL0     H75447   0.465   9.339   3.393  1.8549  0.4617 -0.5554
  559MOL0     H75448   0.690   9.354   3.343  1.2425 -1.2874 -0.4426
  559MOL0     H75449   1.084   9.567   3.535  1.4727 -0.2809  1.5570
  559MOL0     H75450   1.312   9.627   3.519 -1.7113  0.4096 -1.3460
  559MOL0     H75451   2.968   8.290   3.271 -0.1020  2.3356  3.4248
  559MOL0     H75452   3.203   8.247   3.275  0.8725 -0.6393 -2.1673
  559MOL0     H75453   3.772   8.532   3.093  1.9880  0.9581  0.5188
  559MOL0     H75454   3.982   8.425   3.144  0.6489  0.2634  0.2692
  559MOL0     H75455   4.150   8.228   3.156  1.6325 -1.1653 -0.0736
  559MOL0     H75456   4.162   8.332   3.295 -1.6702 -0.4021  5.1294
  559MOL0     H75457   4.195   8.034   3.329 -0.0252 -1.2184  1.3516
  559MOL0     H75458   4.225   8.171   3.448  2.1112  0.4934 -0.9312
  559MOL0     H75459   4.417   8.243   3.276 -0.3347  0.1094  2.0923
  559MOL0     H75460   4.405   8.066   3.231  2.1823 -1.8549  1.4134
  559MOL0     H75461   4.453   8.202   3.496 -1.5546 -0.7562  0.0374
  559MOL0     H75462   4.570   8.099   3.413 -0.0567 -0.5900 -0.0109
  559MOL0     H75463   4.460   7.802   3.640 -0.1451 -1.1968 -1.1941
  559MOL0     H75464   3.765   8.141   3.390  1.4851 -0.6501 -0.6273
  559MOL0     H75465   3.563   8.237   3.320  1.0689 -1.7600  2.2569
  560MOL0     O75466  11.192   6.830   9.672 -0.4068  0.6553 -0.0201
  560MOL0     C75467  11.236   6.791   9.562  0.1424 -0.5175  0.0917
  560MOL0     O75468  11.163   6.764   9.456  0.4982 -0.3827  0.3163
  560MOL0     C75469  11.031   6.741   9.477  0.4884  0.2848 -0.3604
  560MOL0     C75470  10.986   6.613   9.515 -1.2045 -0.1823  0.6050
  560MOL0     C75471  10.849   6.607   9.560  0.8528  0.3077 -0.8281
  560MOL0     C75472  10.774   6.726   9.569 -0.2480 -1.1200 -0.5359
  560MOL0     O75473  10.643   6.739   9.616  0.4221  0.0967 -0.3202
  560MOL0     C75474  10.564   6.619   9.638 -0.2019 -0.7419  0.4115
  560MOL0     C75475  10.420   6.672   9.659 -0.2962 -0.0568  0.2119
  560MOL0     C75476  10.364   6.742   9.534  0.6670  0.1528 -0.5541
  560MOL0     C75477  10.212   6.776   9.549  0.3621  0.2551 -0.3831
  560MOL0     C75478  10.128   6.642   9.550 -0.2821 -0.8341 -0.5436
  560MOL0     C75479   9.975   6.668   9.564 -0.1507  0.2721  1.0787
  560MOL0     C75480   9.907   6.533   9.567 -0.1616  0.2167  0.4630
  560MOL0     C75481   9.753   6.552   9.539 -0.5025  1.0593 -0.4389
  560MOL0     N75482   9.688   6.629   9.644 -0.2694 -0.4085 -0.9536
  560MOL0     C75483   9.647   6.575   9.764 -0.6595  0.1262 -0.3392
  560MOL0     C75484   9.607   6.686   9.828  0.2060  1.1588  0.7005
  560MOL0     C75485   9.548   6.695   9.961  0.7261 -0.1746 -0.0096
  560MOL0     C75486   9.397   6.657   9.966  0.0774  0.0650  0.4888
  560MOL0     C75487   9.376   6.506   9.908 -0.0760 -0.6131 -0.6742
  560MOL0     C75488   9.255   6.434   9.964  0.5490 -0.3235  0.1112
  560MOL0     O75489   9.160   6.523  10.034  0.1195 -0.0028 -0.1185
  560MOL0     C75490   9.046   6.538   9.967  0.2617  0.6615 -0.7160
  560MOL0     C75491   9.042   6.568   9.830 -0.9475 -0.1259  0.8328
  560MOL0     C75492   8.933   6.625   9.772  0.1084 -1.0449 -0.3312
  560MOL0     C75493   8.962   6.651   9.620  0.8585  0.0296 -0.6383
  560MOL0     C75494   8.809   6.648   9.841 -0.2826 -0.0619  0.6254
  560MOL0     C75495   8.682   6.693   9.779  0.0565  0.1178  0.2668
  560MOL0     O75496   8.568   6.662   9.845  0.2410  0.8708  0.0940
  560MOL0     C75497   8.438   6.700   9.795 -0.3247 -0.2442  0.5224
  560MOL0     C75498   8.340   6.604   9.791  0.0105 -0.1422 -0.5837
  560MOL0     C75499   8.216   6.645   9.737 -0.0574  0.0487  0.8609
  560MOL0     C75500   8.178   6.779   9.707  0.0540  0.0500  0.0850
  560MOL0     O75501   8.055   6.834   9.669  0.0903  0.6008  0.1325
  560MOL0     C75502   7.947   6.743   9.643  0.5371 -0.3460 -0.1326
  560MOL0     C75503   7.815   6.821   9.623  0.3369 -0.2568 -0.2713
  560MOL0     C75504   7.711   6.727   9.565  0.7382 -0.1149  0.4085
  560MOL0     C75505   7.579   6.809   9.533  0.4952 -0.4219 -1.2391
  560MOL0     C75506   7.464   6.713   9.490 -0.0035 -0.0624 -0.7486
  560MOL0     C75507   7.348   6.788   9.437  0.5665 -0.4505  0.1014
  560MOL0     C75508   7.227   6.695   9.415 -0.1313 -0.1640  0.1865
  560MOL0     C75509   7.111   6.756   9.344  0.4338  0.2219  0.7075
  560MOL0    Cl75510   7.039   6.904   9.412 -0.2647 -0.0958 -0.1740
  560MOL0     C75511   8.283   6.870   9.711  1.4595 -0.9566 -0.9737
  560MOL0     C75512   8.409   6.829   9.750  0.4238 -0.5233  0.7834
  560MOL0     O75513   8.685   6.754   9.668  0.3807 -0.4666  0.4055
  560MOL0     C75514   8.802   6.600   9.974 -0.5628 -0.3630 -0.6049
  560MOL0     C75515   8.921   6.549  10.031 -0.3564  0.1229 -0.1258
  560MOL0     N75516   9.618   6.796   9.744 -0.4132 -0.0284 -0.3496
  560MOL0     N75517   9.664   6.759   9.635  0.0719  0.1075  0.0213
  560MOL0     C75518  10.831   6.844   9.539 -0.1923 -0.7703 -0.9157
  560MOL0     C75519  10.956   6.853   9.486 -0.3556 -0.3893 -0.5265
  560MOL0     C75520  11.391   6.778   9.555 -0.1863  0.0210 -0.5491
  560MOL0     C75521  11.476   6.866   9.616 -1.0557 -0.2238  1.3361
  560MOL0     C75522  11.617   6.846   9.612  0.2071 -0.5065  0.8179
  560MOL0     C75523  11.673   6.738   9.534  0.3723  0.4471  0.1822
  560MOL0     O75524  11.803   6.720   9.508  0.0125 -0.0919 -0.1455
  560MOL0     C75525  11.886   6.836   9.528  0.6287  0.2910 -1.0062
  560MOL0     C75526  12.026   6.804   9.493 -0.3590 -0.2990  0.5254
  560MOL0     C75527  12.051   6.777   9.350 -0.3002 -0.6158 -0.0657
  560MOL0     C75528  12.202   6.746   9.333 -0.1745  0.8109 -0.7119
  560MOL0     C75529  12.221   6.643   9.237 -0.6974  0.0250 -0.0125
  560MOL0     C75530  12.261   6.559   9.165  0.1112  0.0395 -0.5890
  560MOL0     C75531  11.582   6.639   9.494 -0.0902  0.0645 -0.2841
  560MOL0     C75532  11.441   6.662   9.495 -0.1088  0.3548 -0.0242
  560MOL0     H75533  11.051   6.526   9.510  0.8155  1.3264 -0.9317
  560MOL0     H75534  10.809   6.510   9.589  2.1836  0.3356  1.2830
  560MOL0     H75535  10.572   6.554   9.550 -0.2378  0.1430 -0.2639
  560MOL0     H75536  10.605   6.569   9.726  0.2799  1.0068  1.2110
  560MOL0     H75537  10.353   6.590   9.688 -0.7820 -0.0133 -0.7586
  560MOL0     H75538  10.425   6.746   9.740  0.6471 -0.1816  0.2827
  560MOL0     H75539  10.405   6.842   9.519  1.1314 -0.0245 -0.4758
  560MOL0     H75540  10.384   6.689   9.440 -0.9199  2.3850 -2.2385
  560MOL0     H75541  10.194   6.841   9.635  0.8652  1.4558 -1.1696
  560MOL0     H75542  10.189   6.834   9.459 -1.7946  1.1857  0.6748
  560MOL0     H75543  10.152   6.587   9.458  1.5049  1.0828 -1.3092
  560MOL0     H75544  10.153   6.582   9.637 -1.6207  0.3197  0.6893
  560MOL0     H75545   9.947   6.733   9.648 -1.4595 -1.4592  2.0299
  560MOL0     H75546   9.931   6.712   9.474 -0.2170 -2.2061 -0.1644
  560MOL0     H75547   9.929   6.472   9.478 -1.6761  0.2043  0.0617
  560MOL0     H75548   9.923   6.481   9.662 -0.0458 -1.5125 -0.4628
  560MOL0     H75549   9.705   6.454   9.549  1.1170  0.2779  0.0784
  560MOL0     H75550   9.747   6.587   9.435  1.3613 -1.7583 -1.6375
  560MOL0     H75551   9.644   6.468   9.783  2.3397 -0.2725 -1.5313
  560MOL0     H75552   9.597   6.639  10.041  0.2448  1.8044  1.7772
  560MOL0     H75553   9.553   6.800   9.991  3.1409  0.1633 -1.3213
  560MOL0     H75554   9.334   6.727   9.909  2.3108 -0.1683 -2.5681
  560MOL0     H75555   9.362   6.654  10.069 -0.1849 -0.7703  0.3793
  560MOL0     H75556   9.460   6.441   9.934 -1.3980 -1.2764  2.4093
  560MOL0     H75557   9.360   6.505   9.800 -1.8788  0.0571 -0.4416
  560MOL0     H75558   9.297   6.360  10.033  3.4382 -1.9541 -3.0524
  560MOL0     H75559   9.214   6.367   9.887 -1.2675 -0.2828  0.9900
  560MOL0     H75560   9.134   6.568   9.772 -0.9563 -0.1901  0.8194
  560MOL0     H75561   8.998   6.753   9.602 -2.6393  1.4754 -0.3886
  560MOL0     H75562   9.030   6.576   9.581 -0.0061  0.5133 -3.2832
  560MOL0     H75563   8.874   6.635   9.557  0.2200  0.0652  0.2323
  560MOL0     H75564   8.353   6.504   9.832 -0.2036  0.7170  1.7367
  560MOL0     H75565   8.140   6.567   9.740 -0.0537  0.0116  0.2230
  560MOL0     H75566   7.961   6.687   9.550 -0.0022 -1.3770  0.3857
  560MOL0     H75567   7.924   6.679   9.729 -1.3605 -4.2050 -3.1719
  560MOL0     H75568   7.780   6.862   9.718  0.1131  1.2405 -0.9582
  560MOL0     H75569   7.841   6.908   9.562 -0.0564  0.5049  0.6201
  560MOL0     H75570   7.687   6.642   9.629 -0.4099 -0.8564 -0.9555
  560MOL0     H75571   7.736   6.696   9.463 -1.8530  1.4887 -0.8315
  560MOL0     H75572   7.560   6.876   9.617 -0.1542 -0.5863 -1.2434
  560MOL0     H75573   7.597   6.875   9.448 -2.9232  2.5660  0.0682
  560MOL0     H75574   7.432   6.663   9.582  1.1493  1.4144  0.5195
  560MOL0     H75575   7.492   6.640   9.413  2.3854 -1.6573  1.4572
  560MOL0     H75576   7.323   6.875   9.499  2.0987  0.8489 -1.0264
  560MOL0     H75577   7.363   6.841   9.343  0.8073 -0.7423 -0.0276
  560MOL0     H75578   7.186   6.663   9.511 -0.0187  1.8576  0.9559
  560MOL0     H75579   7.265   6.610   9.357  0.5211 -2.2008  3.3258
  560MOL0     H75580   7.045   6.668   9.345  0.5759  0.0868 -0.4637
  560MOL0     H75581   7.143   6.779   9.242  0.9921 -0.1323  0.8024
  560MOL0     H75582   8.283   6.975   9.683  3.3775 -0.4329  0.8014
  560MOL0     H75583   8.483   6.908   9.741 -0.3794  0.1567 -0.0149
  560MOL0     H75584   8.714   6.595  10.038  0.7343  0.7039  1.3577
  560MOL0     H75585   8.909   6.533  10.138 -2.3415  3.7654  0.3739
  560MOL0     H75586  10.784   6.939   9.563 -0.3213 -1.2917  1.0182
  560MOL0     H75587  10.993   6.946   9.446 -2.9437  1.5616  1.2634
  560MOL0     H75588  11.432   6.943   9.679 -0.8235  0.8090  0.2785
  560MOL0     H75589  11.672   6.925   9.661  0.1666 -0.4408  0.7587
  560MOL0     H75590  11.854   6.921   9.467  2.5848  1.7647 -0.0822
  560MOL0     H75591  11.880   6.872   9.632 -2.6602  0.1556 -1.0375
  560MOL0     H75592  12.071   6.729   9.558  2.5652 -0.0239 -1.0293
  560MOL0     H75593  12.081   6.896   9.514 -3.5828  1.6783  1.0179
  560MOL0     H75594  12.017   6.861   9.288  2.6151 -0.2013 -1.2410
  560MOL0     H75595  11.992   6.689   9.322  1.7270 -1.7873 -0.8956
  560MOL0     H75596  12.246   6.711   9.427 -2.4007  0.2602  0.1846
  560MOL0     H75597  12.262   6.832   9.303  2.8072 -0.7817  0.2511
  560MOL0     H75598  12.306   6.493   9.094 -0.4301 -0.3214 -0.6023
  560MOL0     H75599  11.630   6.552   9.450 -1.7919 -1.3688  0.5874
  560MOL0     H75600  11.374   6.587   9.454  0.9626  0.3663 -1.9508
  561MOL0     O75601   3.175   1.482   6.710  0.7775 -0.4119  0.1471
  561MOL0     C75602   3.223   1.595   6.676  0.9331  0.0032  0.5220
  561MOL0     O75603   3.148   1.706   6.638 -0.2934 -0.6665  0.0951
  561MOL0     C75604   3.020   1.687   6.589 -0.4087 -0.5621  0.4786
  561MOL0     C75605   2.989   1.734   6.466 -0.0615 -0.5749 -0.7664
  561MOL0     C75606   2.857   1.733   6.410 -0.3385  0.4210  0.4289
  561MOL0     C75607   2.753   1.684   6.476  0.4011  0.2949 -1.2420
  561MOL0     O75608   2.636   1.682   6.411  0.3050  0.2495  0.3209
  561MOL0     C75609   2.517   1.641   6.492  0.1704  0.0930 -0.4125
  561MOL0     C75610   2.396   1.633   6.402  0.1034 -1.3300 -0.3631
  561MOL0     C75611   2.391   1.509   6.318  0.0103  0.0803 -0.1771
  561MOL0     C75612   2.251   1.498   6.250 -0.8890 -0.2511  0.4423
  561MOL0     C75613   2.141   1.438   6.345  0.7685 -0.4594 -0.1770
  561MOL0     C75614   2.010   1.436   6.268 -0.3321 -1.0566  0.0052
  561MOL0     C75615   1.893   1.372   6.348 -0.7947  0.6921  0.5925
  561MOL0     C75616   1.789   1.471   6.388 -0.2996 -0.1658  0.0186
  561MOL0     N75617   1.729   1.532   6.274  0.1818 -1.1181  1.0018
  561MOL0     C75618   1.631   1.476   6.198  0.9976 -0.6436 -0.3314
  561MOL0     C75619   1.599   1.576   6.106 -0.1628 -0.0701 -0.2294
  561MOL0     C75620   1.502   1.554   5.994  0.2898  0.2273  0.2330
  561MOL0     C75621   1.561   1.521   5.867  0.8117 -0.3965  1.1425
  561MOL0     C75622   1.463   1.559   5.748  0.5027 -0.5808 -0.0138
  561MOL0     C75623   1.323   1.491   5.757  0.1683  0.4654 -0.1587
  561MOL0     O75624   1.271   1.501   5.632  0.1192  0.5548  0.4702
  561MOL0     C75625   1.139   1.507   5.600 -0.3218 -1.2629  0.8191
  561MOL0     C75626   1.036   1.490   5.690  0.1641 -0.2205 -0.0973
  561MOL0     C75627   0.896   1.489   5.654 -0.1895 -0.0999 -0.2102
  561MOL0     C75628   0.792   1.487   5.763  0.4434  0.1419  0.2048
  561MOL0     C75629   0.853   1.513   5.518 -1.0129 -0.2835 -0.8432
  561MOL0     C75630   0.714   1.523   5.467 -0.8126 -0.2480 -0.0133
  561MOL0     O75631   0.690   1.635   5.387 -0.0310 -0.2856 -0.8257
  561MOL0     C75632   0.581   1.635   5.311  0.2952  0.3097  0.0976
  561MOL0     C75633   0.538   1.527   5.229  0.0885  0.6624 -0.1766
  561MOL0     C75634   0.414   1.516   5.184  0.2075 -0.8937  0.0692
  561MOL0     C75635   0.322   1.620   5.211 -0.2451 -0.0523 -0.5392
  561MOL0     O75636   0.195   1.622   5.165  0.7031 -0.1035  0.2977
  561MOL0     C75637   0.141   1.503   5.094 -0.6247 -1.2389 -0.9950
  561MOL0     C75638  -0.009   1.509   5.079 -0.2907 -0.9404  0.5482
  561MOL0     C75639  -0.044   1.625   4.980  1.3977 -0.3622 -0.1998
  561MOL0     C75640  -0.196   1.627   4.952 -0.5280  0.9896  0.0967
  561MOL0     C75641  -0.233   1.719   4.831 -0.2549 -0.9047 -0.2765
  561MOL0     C75642  -0.381   1.747   4.819 -0.8358  0.8055 -0.5168
  561MOL0     C75643  -0.437   1.676   4.702  1.0512  0.0869 -0.1297
  561MOL0     C75644  -0.585   1.691   4.685  0.0015 -0.6352 -0.0651
  561MOL0    Cl75645  -0.692   1.637   4.815  0.2281  0.0016 -0.1456
  561MOL0     C75646   0.363   1.736   5.286  0.3377  0.7310  0.3668
  561MOL0     C75647   0.493   1.735   5.336  0.5446  0.1458 -0.3255
  561MOL0     O75648   0.631   1.449   5.513  0.5008  0.4242  0.2469
  561MOL0     C75649   0.960   1.537   5.429 -0.0752  0.1599 -0.9398
  561MOL0     C75650   1.098   1.536   5.468  0.2269 -0.4031  0.1698
  561MOL0     N75651   1.684   1.685   6.137  0.0137 -0.8490  0.7278
  561MOL0     N75652   1.751   1.662   6.243  0.3201  0.5627  0.2782
  561MOL0     C75653   2.778   1.632   6.605  0.2250  0.8081  0.8059
  561MOL0     C75654   2.911   1.635   6.656  0.4463  0.5461 -0.5253
  561MOL0     C75655   3.364   1.608   6.666 -0.3628  0.1378 -0.6254
  561MOL0     C75656   3.443   1.502   6.725 -0.5619 -0.4931  0.0177
  561MOL0     C75657   3.578   1.524   6.738 -0.5022  0.2820  0.1757
  561MOL0     C75658   3.638   1.646   6.696  0.5319 -0.2254  0.1171
  561MOL0     O75659   3.774   1.666   6.718  0.8193 -0.1211 -0.0254
  561MOL0     C75660   3.811   1.798   6.749 -0.1533  0.3308  0.4305
  561MOL0     C75661   3.958   1.793   6.806 -0.1458  0.6516  0.5617
  561MOL0     C75662   4.051   1.715   6.725 -0.2398  0.3426 -0.4232
  561MOL0     C75663   4.059   1.744   6.569 -0.6976  0.7750 -0.0840
  561MOL0     C75664   4.160   1.847   6.558 -0.5654 -0.7761  0.6335
  561MOL0     C75665   4.252   1.928   6.550  0.0686 -0.0976 -0.7374
  561MOL0     C75666   3.555   1.741   6.630 -0.3596  0.4873  0.3725
  561MOL0     C75667   3.424   1.721   6.614  0.0145 -0.4125  0.2387
  561MOL0     H75668   3.073   1.774   6.411  1.9279 -0.7017  1.9696
  561MOL0     H75669   2.834   1.771   6.311 -1.2587 -0.0384  0.4523
  561MOL0     H75670   2.532   1.559   6.563  2.1495  2.1507  1.7051
  561MOL0     H75671   2.489   1.719   6.563  1.7328 -0.9549  1.4620
  561MOL0     H75672   2.316   1.631   6.477  0.4397 -3.0696 -0.0084
  561MOL0     H75673   2.378   1.720   6.338 -1.0851 -0.8406  0.5845
  561MOL0     H75674   2.473   1.517   6.246  0.9316  1.0605  0.9405
  561MOL0     H75675   2.404   1.422   6.383  2.1035 -1.6600 -2.6976
  561MOL0     H75676   2.227   1.601   6.225  0.1916 -0.0563  0.1589
  561MOL0     H75677   2.253   1.446   6.154  0.4811  0.1379  0.2409
  561MOL0     H75678   2.168   1.334   6.367 -1.9548 -2.1289 -3.6685
  561MOL0     H75679   2.136   1.498   6.436  1.1929 -3.7249  2.1755
  561MOL0     H75680   1.992   1.538   6.232  2.4253 -1.3281 -2.4545
  561MOL0     H75681   2.023   1.375   6.179 -0.4815  0.1230 -0.8485
  561MOL0     H75682   1.845   1.308   6.274  0.6124 -1.9059  1.7609
  561MOL0     H75683   1.921   1.311   6.435 -0.5126  2.0030  1.4486
  561MOL0     H75684   1.828   1.550   6.451  1.1635 -0.9993  0.2129
  561MOL0     H75685   1.696   1.427   6.427 -0.7230  0.7329  0.0315
  561MOL0     H75686   1.597   1.373   6.207  0.0144 -0.2130  1.6673
  561MOL0     H75687   1.435   1.469   6.015  1.2640 -0.9179 -1.1625
  561MOL0     H75688   1.455   1.652   5.983  0.0413  0.3899  2.2386
  561MOL0     H75689   1.560   1.412   5.877 -1.1069 -0.4261  0.9772
  561MOL0     H75690   1.663   1.555   5.846 -0.5918  2.7040 -1.5219
  561MOL0     H75691   1.503   1.531   5.651 -0.2272 -0.0937 -0.4662
  561MOL0     H75692   1.444   1.666   5.739 -4.1773 -1.1071  1.0163
  561MOL0     H75693   1.258   1.550   5.823 -2.5633 -1.3370 -1.0431
  561MOL0     H75694   1.324   1.386   5.787 -1.8488 -0.2664 -2.3726
  561MOL0     H75695   1.055   1.486   5.797  0.8564  1.5316 -0.1238
  561MOL0     H75696   0.697   1.525   5.725  0.4166 -1.3327 -1.3083
  561MOL0     H75697   0.787   1.384   5.800 -0.7396  1.0329  2.7586
  561MOL0     H75698   0.830   1.549   5.844  2.4007  0.7052 -1.0750
  561MOL0     H75699   0.608   1.452   5.193  0.1326  0.9371 -0.6759
  561MOL0     H75700   0.385   1.432   5.122 -0.9926  1.0501 -2.1694
  561MOL0     H75701   0.195   1.487   5.001  3.2366  0.3371  0.7687
  561MOL0     H75702   0.172   1.418   5.156  4.4634  3.8571  4.8135
  561MOL0     H75703  -0.035   1.417   5.024 -1.3011 -0.3266 -0.0276
  561MOL0     H75704  -0.052   1.508   5.179 -0.9667  0.3154  0.2822
  561MOL0     H75705   0.010   1.612   4.885 -1.4025  0.3830 -2.0183
  561MOL0     H75706  -0.021   1.721   5.027  0.3454 -0.6249  0.8853
  561MOL0     H75707  -0.242   1.529   4.933 -3.1635  1.6068  2.5615
  561MOL0     H75708  -0.242   1.673   5.040 -0.3307  0.9317  0.2291
  561MOL0     H75709  -0.194   1.678   4.738 -0.1973 -1.5424  0.0207
  561MOL0     H75710  -0.179   1.811   4.854  2.1129 -2.0534 -0.9828
  561MOL0     H75711  -0.436   1.715   4.908  2.8491 -2.7631  0.7836
  561MOL0     H75712  -0.405   1.853   4.808 -0.5788  1.0180  0.8421
  561MOL0     H75713  -0.427   1.567   4.712 -1.2792 -0.1373  0.1614
  561MOL0     H75714  -0.392   1.722   4.613 -0.6227 -1.8453 -2.1068
  561MOL0     H75715  -0.623   1.647   4.592 -2.1549 -0.5872  0.7329
  561MOL0     H75716  -0.607   1.799   4.680  0.0662 -0.5387  1.4484
  561MOL0     H75717   0.295   1.816   5.312  1.1498  2.0841 -1.3976
  561MOL0     H75718   0.523   1.815   5.402 -3.0153  1.5369 -0.1734
  561MOL0     H75719   0.934   1.552   5.325 -0.0653 -4.2914 -1.7904
  561MOL0     H75720   1.180   1.551   5.398  0.1190 -1.5954 -0.2362
  561MOL0     H75721   2.697   1.591   6.665  0.3950  0.7895  1.0227
  561MOL0     H75722   2.929   1.597   6.757 -1.6215  3.0369  0.9238
  561MOL0     H75723   3.396   1.416   6.770  0.0460 -0.2345  1.1937
  561MOL0     H75724   3.650   1.449   6.769  1.6842  2.9256  1.9936
  561MOL0     H75725   3.800   1.864   6.662  0.4975 -2.5567 -1.9934
  561MOL0     H75726   3.749   1.840   6.829  0.0036  0.8762  0.2701
  561MOL0     H75727   3.955   1.749   6.906 -4.7978  0.4302  0.5344
  561MOL0     H75728   3.995   1.894   6.824 -1.8666  1.0770  1.8954
  561MOL0     H75729   4.000   1.619   6.740 -1.9095  1.4475  1.5134
  561MOL0     H75730   4.151   1.721   6.766 -0.8575  0.9846  1.0484
  561MOL0     H75731   3.967   1.770   6.516 -1.1121 -1.2655 -0.4272
  561MOL0     H75732   4.088   1.656   6.511 -1.4450  0.9333 -0.7169
  561MOL0     H75733   4.309   2.018   6.540 -0.1290  0.0127 -0.8912
  561MOL0     H75734   3.593   1.831   6.584 -0.0800 -0.8464 -2.2452
  561MOL0     H75735   3.368   1.800   6.564 -1.8783 -1.0242  1.3139
  562MOL0     O75736  11.064   9.255   3.468  0.9137  0.1253 -0.0044
  562MOL0     C75737  11.075   9.289   3.350  0.6305 -0.4030  0.5079
  562MOL0     O75738  10.977   9.292   3.251  0.6950  0.1125 -0.5199
  562MOL0     C75739  10.850   9.240   3.272 -0.1421 -0.3050 -0.7020
  562MOL0     C75740  10.814   9.144   3.368 -0.3445  0.4184  0.3442
  562MOL0     C75741  10.676   9.099   3.384 -0.0680  0.4066 -0.3081
  562MOL0     C75742  10.572   9.150   3.303  0.0256  0.2434  0.0635
  562MOL0     O75743  10.438   9.131   3.304 -0.6858  0.0921  0.0117
  562MOL0     C75744  10.374   9.008   3.339  0.1795  0.4356 -0.3853
  562MOL0     C75745  10.313   9.030   3.483 -0.4491 -0.1909  0.0101
  562MOL0     C75746  10.201   9.125   3.501  0.0487 -1.1894 -0.8286
  562MOL0     C75747  10.147   9.116   3.642  0.2998 -1.3639  0.1482
  562MOL0     C75748  10.023   9.203   3.669  0.6349 -0.5161 -0.1205
  562MOL0     C75749   9.895   9.151   3.615 -0.2487  0.6658  0.5792
  562MOL0     C75750   9.785   9.257   3.636 -0.0941  0.0497  0.3466
  562MOL0     C75751   9.655   9.207   3.589 -0.5004  0.5094  0.4371
  562MOL0     N75752   9.544   9.291   3.626  0.0433  0.4108  0.3426
  562MOL0     C75753   9.520   9.418   3.595 -0.0641  0.1195 -0.5750
  562MOL0     C75754   9.417   9.464   3.663  0.1729  0.8696 -0.5591
  562MOL0     C75755   9.349   9.596   3.662 -0.5713  0.0343 -0.0713
  562MOL0     C75756   9.376   9.661   3.519  0.4528  0.4443 -0.0693
  562MOL0     C75757   9.280   9.781   3.490  0.1232  0.8154 -0.3758
  562MOL0     C75758   9.287   9.888   3.602  0.6238  0.4114 -0.3327
  562MOL0     O75759   9.198   9.987   3.559 -0.6522  0.3957  0.2926
  562MOL0     C75760   9.064   9.986   3.579  0.1854 -0.0784 -0.3333
  562MOL0     C75761   8.989  10.084   3.517 -0.1890 -0.3036 -0.9519
  562MOL0     C75762   8.851  10.087   3.541  0.1481 -0.4032  0.5069
  562MOL0     C75763   8.787  10.201   3.462 -0.8783  1.3230 -0.5204
  562MOL0     C75764   8.780   9.994   3.614 -0.6303  0.8168  0.1040
  562MOL0     C75765   8.632   9.997   3.634 -0.2992 -0.1763  0.8267
  562MOL0     O75766   8.564  10.116   3.674 -0.5377  0.0491 -0.2569
  562MOL0     C75767   8.428  10.143   3.668 -1.4296  0.2066  0.7091
  562MOL0     C75768   8.375  10.225   3.767  0.4486 -0.4874  0.4120
  562MOL0     C75769   8.247  10.271   3.769  0.3874  0.5316 -0.2465
  562MOL0     C75770   8.162  10.233   3.663 -0.1714  0.0198  0.1430
  562MOL0     O75771   8.027  10.273   3.641 -0.1349 -0.1691  0.2467
  562MOL0     C75772   7.973  10.365   3.727 -0.9838 -0.4915 -0.1055
  562MOL0     C75773   7.842  10.400   3.663 -0.0067 -0.8661  0.2529
  562MOL0     C75774   7.783  10.520   3.737 -0.2485 -1.0632  0.0843
  562MOL0     C75775   7.634  10.538   3.721  0.0653 -0.3076 -0.0785
  562MOL0     C75776   7.598  10.587   3.582  0.4429  0.1445  0.0638
  562MOL0     C75777   7.454  10.578   3.534  0.1295  0.8404  0.4939
  562MOL0     C75778   7.417  10.435   3.497  0.2765  0.1758  0.7511
  562MOL0     C75779   7.268  10.437   3.458  0.8179 -0.2354 -0.6756
  562MOL0    Cl75780   7.166  10.379   3.601  0.0736 -0.3146 -0.2805
  562MOL0     C75781   8.219  10.150   3.561  0.3650 -0.2352 -0.0483
  562MOL0     C75782   8.349  10.107   3.562 -0.3506 -0.1411  0.3753
  562MOL0     O75783   8.578   9.890   3.625  0.7046  0.5031  0.1856
  562MOL0     C75784   8.855   9.881   3.665  0.0499 -0.5551  0.4909
  562MOL0     C75785   9.000   9.884   3.656  0.7194 -0.4207  0.1494
  562MOL0     N75786   9.366   9.358   3.731  0.3600  0.3115  0.0530
  562MOL0     N75787   9.446   9.255   3.711  0.3445 -0.5927 -0.4878
  562MOL0     C75788  10.618   9.235   3.192 -0.2248  1.1088 -0.2447
  562MOL0     C75789  10.750   9.283   3.184  0.0603 -0.4474 -0.3901
  562MOL0     C75790  11.208   9.341   3.300  0.3119  1.1703 -0.5238
  562MOL0     C75791  11.318   9.351   3.391 -0.2065 -0.4021 -0.1041
  562MOL0     C75792  11.443   9.404   3.342  0.0555 -0.5396 -0.0004
  562MOL0     C75793  11.461   9.425   3.206 -0.8496 -0.8781 -0.1966
  562MOL0     O75794  11.587   9.446   3.150  0.0942 -0.4319  0.3416
  562MOL0     C75795  11.650   9.341   3.077  0.1182 -0.0407  0.4141
  562MOL0     C75796  11.755   9.259   3.141 -0.6040  0.5470 -0.4331
  562MOL0     C75797  11.818   9.157   3.046 -1.3240 -1.0334 -0.0071
  562MOL0     C75798  11.907   9.066   3.117  0.0542  0.0817  1.7329
  562MOL0     C75799  11.967   8.971   3.019  0.2326 -0.2649  0.3148
  562MOL0     C75800  12.027   8.909   2.935 -0.0680 -0.3123 -0.0258
  562MOL0     C75801  11.349   9.421   3.124 -0.9098  0.5055 -0.7808
  562MOL0     C75802  11.223   9.377   3.169 -0.0997 -0.2469 -0.2487
  562MOL0     H75803  10.887   9.095   3.432  0.4480  0.2455 -0.6695
  562MOL0     H75804  10.646   9.033   3.465 -1.4460  3.1213  1.5491
  562MOL0     H75805  10.290   8.992   3.271  0.9204  0.1406 -1.2490
  562MOL0     H75806  10.436   8.917   3.339  1.6809  1.4300 -0.9654
  562MOL0     H75807  10.282   8.934   3.526 -0.6042 -0.0449  0.2240
  562MOL0     H75808  10.395   9.070   3.544 -1.2781  0.2205  0.8820
  562MOL0     H75809  10.226   9.229   3.479 -1.2871 -1.1157 -2.2015
  562MOL0     H75810  10.128   9.088   3.428  2.9674 -3.2041 -2.9219
  562MOL0     H75811  10.140   9.012   3.675 -1.9859 -0.8320  1.5746
  562MOL0     H75812  10.225   9.163   3.703 -1.2564  1.5770  0.0780
  562MOL0     H75813  10.006   9.230   3.773 -0.5465  0.0552 -0.4398
  562MOL0     H75814  10.029   9.297   3.614 -3.0693  1.2794  2.1782
  562MOL0     H75815   9.903   9.139   3.507  2.4889  0.7107  0.6996
  562MOL0     H75816   9.859   9.063   3.668 -3.1661  2.0784  1.1775
  562MOL0     H75817   9.779   9.262   3.745  1.8029  0.0069  0.4875
  562MOL0     H75818   9.811   9.355   3.597  0.4333 -0.6775 -1.1907
  562MOL0     H75819   9.640   9.114   3.643  1.2258 -0.3441 -0.4716
  562MOL0     H75820   9.655   9.193   3.481  1.5241 -1.9096  0.6653
  562MOL0     H75821   9.572   9.461   3.510  3.8748  0.4604  1.7725
  562MOL0     H75822   9.242   9.590   3.682 -0.0886  1.0241  3.3892
  562MOL0     H75823   9.401   9.664   3.730 -0.8657  0.6293 -0.4340
  562MOL0     H75824   9.357   9.586   3.442  0.7385  2.4421 -2.1816
  562MOL0     H75825   9.476   9.706   3.526 -0.2409  2.0793 -0.0976
  562MOL0     H75826   9.177   9.744   3.484  0.6910 -1.8669  3.2783
  562MOL0     H75827   9.310   9.827   3.395 -2.3421 -0.7211 -2.0216
  562MOL0     H75828   9.383   9.940   3.601  0.5549  0.6060 -2.5590
  562MOL0     H75829   9.267   9.852   3.703  1.2501 -0.1781 -0.4115
  562MOL0     H75830   9.040  10.157   3.455  0.4663 -0.2377 -0.3411
  562MOL0     H75831   8.807  10.283   3.531 -0.7948 -0.4307  1.6469
  562MOL0     H75832   8.829  10.228   3.365 -0.6008 -0.5887 -0.9703
  562MOL0     H75833   8.680  10.179   3.456 -0.4520 -1.2394  0.0944
  562MOL0     H75834   8.437  10.268   3.845 -1.2517 -0.6919  1.9298
  562MOL0     H75835   8.218  10.346   3.841 -1.8341 -0.8658  0.4010
  562MOL0     H75836   7.962  10.319   3.826 -0.1184 -1.2933 -0.3581
  562MOL0     H75837   8.036  10.453   3.715  0.0564 -0.9112  1.8661
  562MOL0     H75838   7.853  10.426   3.558 -0.9984 -2.0478 -0.1674
  562MOL0     H75839   7.772  10.315   3.674  0.3110 -0.9038  2.4900
  562MOL0     H75840   7.836  10.612   3.709 -1.2142 -0.2084  0.9933
  562MOL0     H75841   7.790  10.508   3.846 -0.0656  1.4530  0.3967
  562MOL0     H75842   7.592  10.445   3.761  0.6241 -0.2897  0.5788
  562MOL0     H75843   7.599  10.617   3.788  2.1444  2.7807 -2.3673
  562MOL0     H75844   7.663  10.545   3.505  0.5697  1.0756 -0.3452
  562MOL0     H75845   7.610  10.696   3.585  0.6407  0.1102  1.6846
  562MOL0     H75846   7.387  10.616   3.612 -3.9423 -0.6160 -2.0003
  562MOL0     H75847   7.446  10.643   3.446  3.1299 -0.5723 -0.9913
  562MOL0     H75848   7.437  10.370   3.583 -1.2266 -2.1571 -0.5785
  562MOL0     H75849   7.480  10.400   3.415 -1.1622 -0.2165 -0.2112
  562MOL0     H75850   7.253  10.362   3.380  0.2679 -0.9514  0.1027
  562MOL0     H75851   7.232  10.536   3.426 -0.2576 -0.0026  1.1581
  562MOL0     H75852   8.155  10.126   3.477 -0.1087  1.7873 -0.3211
  562MOL0     H75853   8.384  10.029   3.495  1.1724 -1.6456  2.7651
  562MOL0     H75854   8.801   9.797   3.707  1.9971 -3.6623 -2.7671
  562MOL0     H75855   9.048   9.796   3.699 -0.4632 -0.6799  1.0077
  562MOL0     H75856  10.557   9.270   3.110 -0.4945  0.1145 -0.4812
  562MOL0     H75857  10.778   9.335   3.093 -2.7443  2.8980  0.4123
  562MOL0     H75858  11.315   9.329   3.497  0.3351  1.3051  0.2977
  562MOL0     H75859  11.522   9.422   3.415 -1.3166 -0.4436  1.5069
  562MOL0     H75860  11.573   9.269   3.048  0.4355  0.7293 -2.7282
  562MOL0     H75861  11.691   9.386   2.986  0.0991 -0.1965  0.3278
  562MOL0     H75862  11.712   9.208   3.228  1.7451  0.7115  0.9102
  562MOL0     H75863  11.830   9.330   3.177 -0.0040  0.5285 -1.5981
  562MOL0     H75864  11.873   9.205   2.964 -2.6298  0.3328 -0.1187
  562MOL0     H75865  11.740   9.097   2.998 -1.9506 -0.2385 -0.0072
  562MOL0     H75866  11.849   9.012   3.192 -2.6656 -0.3121 -0.4996
  562MOL0     H75867  11.980   9.129   3.170  0.2921  1.5583 -0.2547
  562MOL0     H75868  12.073   8.845   2.863 -0.3216  0.2211 -0.6803
  562MOL0     H75869  11.354   9.457   3.022 -1.9563 -0.0387 -1.0417
  562MOL0     H75870  11.147   9.372   3.093 -0.6890  3.5909 -0.0704
  563MOL0     O75871   0.492   7.743   2.981  0.3516 -0.5172 -0.8117
  563MOL0     C75872   0.567   7.640   2.958  1.3862  0.4205  0.1110
  563MOL0     O75873   0.519   7.513   2.922 -0.1478 -0.3683 -0.2532
  563MOL0     C75874   0.389   7.506   2.876 -0.4636  0.1562 -0.0914
  563MOL0     C75875   0.363   7.515   2.740 -0.2630  0.0240 -0.3346
  563MOL0     C75876   0.228   7.511   2.689 -0.3545  0.0956 -0.6030
  563MOL0     C75877   0.126   7.481   2.775 -0.3989 -0.0467 -0.5085
  563MOL0     O75878  -0.003   7.499   2.736 -0.8714 -0.7215  0.1575
  563MOL0     C75879  -0.045   7.514   2.599  0.1119 -0.5316  0.1290
  563MOL0     C75880  -0.072   7.382   2.542  1.4482  0.0721  0.6785
  563MOL0     C75881  -0.200   7.315   2.604  0.2886  0.0263  0.5900
  563MOL0     C75882  -0.327   7.400   2.582  0.2473 -0.1472  0.6514
  563MOL0     C75883  -0.448   7.324   2.619  0.2512  0.0502 -0.1566
  563MOL0     C75884  -0.563   7.399   2.551  0.5051 -0.2373  0.2250
  563MOL0     C75885  -0.574   7.556   2.590 -0.1157 -0.0626  0.8168
  563MOL0     C75886  -0.722   7.604   2.566 -0.2144  0.4629  0.5568
  563MOL0     N75887  -0.830   7.577   2.662 -0.5514  0.0755  0.5998
  563MOL0     C75888  -0.862   7.640   2.772 -0.3890 -0.1753 -0.1730
  563MOL0     C75889  -0.982   7.579   2.813 -0.6649 -0.6502 -0.6788
  563MOL0     C75890  -1.057   7.592   2.941  0.8577 -0.1942 -0.4266
  563MOL0     C75891  -1.158   7.697   2.939  0.8452 -0.2262 -0.1174
  563MOL0     C75892  -1.259   7.691   3.056  0.8162 -0.2528  0.2136
  563MOL0     C75893  -1.374   7.791   3.034 -0.0490  0.2881  0.3308
  563MOL0     O75894  -1.326   7.929   3.051 -0.3657  0.0405  0.6520
  563MOL0     C75895  -1.431   8.024   3.062  0.0573  0.3928 -0.1698
  563MOL0     C75896  -1.546   8.014   2.989 -0.6042  0.5879  0.0766
  563MOL0     C75897  -1.632   8.117   2.989  0.4591 -0.1560 -0.2481
  563MOL0     C75898  -1.746   8.107   2.894  0.7390 -0.5398 -0.0818
  563MOL0     C75899  -1.615   8.234   3.066  0.3704  0.0061 -0.3926
  563MOL0     C75900  -1.725   8.343   3.080 -0.4872 -0.9905  0.1342
  563MOL0     O75901  -1.857   8.317   3.073 -0.2719  0.2848 -0.8127
  563MOL0     C75902  -1.953   8.390   3.128 -0.1189  0.1951 -0.0399
  563MOL0     C75903  -2.070   8.414   3.055  1.0745  1.1752 -0.4026
  563MOL0     C75904  -2.183   8.476   3.123  0.7956 -0.0585  0.8152
  563MOL0     C75905  -2.179   8.523   3.256 -0.3472  0.0194  0.4097
  563MOL0     O75906  -2.299   8.560   3.306 -0.7860  0.3572 -0.2261
  563MOL0     C75907  -2.300   8.676   3.380 -0.4266 -0.5114 -0.1478
  563MOL0     C75908  -2.433   8.748   3.395 -0.0773 -0.6797 -0.2662
  563MOL0     C75909  -2.478   8.801   3.261  0.0182  1.0580  0.7039
  563MOL0     C75910  -2.615   8.871   3.247  0.3472 -0.3611  0.1858
  563MOL0     C75911  -2.591   9.018   3.214 -0.2446 -0.1642  0.4894
  563MOL0     C75912  -2.705   9.086   3.139  0.4268 -0.4001 -0.6782
  563MOL0     C75913  -2.831   9.094   3.226  1.1492  0.0138  0.6176
  563MOL0     C75914  -2.936   9.180   3.152  0.0025  0.2864 -0.3550
  563MOL0    Cl75915  -3.042   9.268   3.271  0.4214  0.0136 -0.0400
  563MOL0     C75916  -2.059   8.510   3.322 -0.0357 -0.2194 -0.0202
  563MOL0     C75917  -1.946   8.446   3.256  0.5954 -0.7350 -0.5384
  563MOL0     O75918  -1.673   8.449   3.110  0.2731 -0.2168  0.1643
  563MOL0     C75919  -1.501   8.231   3.146  0.7831 -0.2113 -0.2545
  563MOL0     C75920  -1.402   8.135   3.130  0.5955  0.7669 -0.1346
  563MOL0     N75921  -1.026   7.500   2.703 -0.1061 -0.6179  0.3070
  563MOL0     N75922  -0.932   7.494   2.621 -0.0859  0.5739  1.0927
  563MOL0     C75923   0.156   7.468   2.915  0.5806 -0.1204  0.2507
  563MOL0     C75924   0.285   7.483   2.959 -0.4246  0.4948 -0.4718
  563MOL0     C75925   0.708   7.666   2.970  0.2569 -0.0367 -0.5805
  563MOL0     C75926   0.797   7.565   3.001  0.3353  0.1808  0.2092
  563MOL0     C75927   0.931   7.597   3.037  0.1790 -0.5228  1.2408
  563MOL0     C75928   0.982   7.727   3.025 -0.4349 -0.5423  0.0792
  563MOL0     O75929   1.112   7.756   3.050 -0.1129 -0.7323  0.7010
  563MOL0     C75930   1.203   7.687   3.132  0.6211  0.4016  0.6773
  563MOL0     C75931   1.339   7.751   3.141 -0.4212 -0.2904  0.3095
  563MOL0     C75932   1.456   7.654   3.128  0.5085  1.1379  0.5331
  563MOL0     C75933   1.593   7.714   3.125 -0.0990  0.3344 -1.2722
  563MOL0     C75934   1.612   7.791   3.008  0.2933  0.1698  0.2242
  563MOL0     C75935   1.618   7.846   2.903 -1.2702  0.2838  0.0014
  563MOL0     C75936   0.898   7.832   2.988 -0.6337 -0.8032  0.0666
  563MOL0     C75937   0.765   7.798   2.959  0.1041 -0.8926  1.4268
  563MOL0     H75938   0.434   7.539   2.662 -0.0811 -0.0022 -0.1758
  563MOL0     H75939   0.214   7.522   2.582  0.5449  1.8533 -0.5757
  563MOL0     H75940  -0.136   7.575   2.604  0.8262  0.4882  1.2020
  563MOL0     H75941   0.021   7.567   2.530  1.6951 -3.2197 -0.5763
  563MOL0     H75942  -0.077   7.399   2.434 -1.1309 -1.3938  0.4668
  563MOL0     H75943   0.015   7.317   2.552  0.2450 -2.0497 -1.4470
  563MOL0     H75944  -0.203   7.227   2.539  1.0149 -0.5654  1.3449
  563MOL0     H75945  -0.170   7.289   2.706  1.9389 -0.6994 -0.0467
  563MOL0     H75946  -0.323   7.491   2.644 -1.1200  0.2706  0.1664
  563MOL0     H75947  -0.328   7.426   2.476  1.1633 -0.8894  0.4488
  563MOL0     H75948  -0.434   7.222   2.580  1.8783  1.3525 -3.3888
  563MOL0     H75949  -0.460   7.333   2.727 -1.0790  1.9121 -0.4296
  563MOL0     H75950  -0.551   7.380   2.444  0.1296  0.8419 -0.0194
  563MOL0     H75951  -0.659   7.355   2.579  0.1930  1.0246  1.1769
  563MOL0     H75952  -0.558   7.577   2.696  4.9858  2.2061 -0.0759
  563MOL0     H75953  -0.514   7.627   2.533 -3.1515  1.8477 -0.2250
  563MOL0     H75954  -0.766   7.589   2.467 -2.4394 -2.2651  1.8515
  563MOL0     H75955  -0.700   7.711   2.574  3.2824 -0.2141  1.9833
  563MOL0     H75956  -0.809   7.718   2.825  1.3896 -0.8928 -0.8386
  563MOL0     H75957  -1.123   7.505   2.942 -1.4673  1.3211 -3.4468
  563MOL0     H75958  -0.997   7.605   3.031 -0.7000 -0.1702  0.6394
  563MOL0     H75959  -1.217   7.705   2.847 -0.2629 -0.0569  0.5831
  563MOL0     H75960  -1.104   7.792   2.947  1.4648 -0.5727 -0.1745
  563MOL0     H75961  -1.205   7.721   3.146 -0.7202  0.9793  0.7585
  563MOL0     H75962  -1.313   7.597   3.063 -2.4464  1.3412 -1.3692
  563MOL0     H75963  -1.451   7.765   3.108  2.2239 -1.4557  2.2650
  563MOL0     H75964  -1.406   7.781   2.930  2.0332 -0.4751 -0.3017
  563MOL0     H75965  -1.540   7.931   2.918 -1.2642 -1.5622  2.3735
  563MOL0     H75966  -1.791   8.203   2.865 -1.2912 -0.8492  1.7533
  563MOL0     H75967  -1.715   8.057   2.802  0.5875  0.3815 -0.6516
  563MOL0     H75968  -1.835   8.056   2.932 -1.3983  3.7138  1.3561
  563MOL0     H75969  -2.079   8.365   2.959  3.5057 -0.6503  0.2127
  563MOL0     H75970  -2.281   8.494   3.079  0.9341  1.2999  1.0178
  563MOL0     H75971  -2.276   8.641   3.480 -0.4920 -1.0208 -0.3075
  563MOL0     H75972  -2.225   8.752   3.354 -0.0840  0.5416  3.3637
  563MOL0     H75973  -2.499   8.673   3.439 -0.1446  0.2444  1.2835
  563MOL0     H75974  -2.420   8.820   3.476 -1.1724 -3.3026  2.3974
  563MOL0     H75975  -2.497   8.714   3.197  0.9698  1.8347 -0.7078
  563MOL0     H75976  -2.394   8.856   3.218  0.9158 -1.2712 -0.6839
  563MOL0     H75977  -2.672   8.815   3.172  1.8042 -1.8362  0.1260
  563MOL0     H75978  -2.671   8.864   3.341 -0.8804  1.2403 -0.3697
  563MOL0     H75979  -2.503   9.041   3.154 -1.5359 -1.8935 -2.2790
  563MOL0     H75980  -2.588   9.072   3.310 -0.3174 -1.0277  0.9854
  563MOL0     H75981  -2.686   9.189   3.109  1.8972  0.0607  1.6662
  563MOL0     H75982  -2.731   9.031   3.048 -0.1163  1.5065 -1.7285
  563MOL0     H75983  -2.814   9.151   3.318 -1.4764  0.6638  0.7817
  563MOL0     H75984  -2.864   8.994   3.257  1.9818 -0.7885 -0.9277
  563MOL0     H75985  -2.992   9.107   3.093  1.4072  0.2311 -1.6872
  563MOL0     H75986  -2.891   9.248   3.080  0.2643  1.3957  0.8304
  563MOL0     H75987  -2.064   8.536   3.427 -1.3089 -1.4949  0.2725
  563MOL0     H75988  -1.851   8.438   3.309  1.0762  2.3392 -0.7903
  563MOL0     H75989  -1.488   8.320   3.206 -0.6087  2.8971 -4.0901
  563MOL0     H75990  -1.307   8.135   3.181  0.2231  0.3889  0.5775
  563MOL0     H75991   0.075   7.469   2.987 -1.2000  1.7316 -1.6361
  563MOL0     H75992   0.309   7.485   3.065  0.5132 -0.9022 -0.6259
  563MOL0     H75993   0.766   7.461   2.997 -3.9753  1.3311 -1.1556
  563MOL0     H75994   1.006   7.525   3.067 -0.9109 -2.2763 -0.0466
  563MOL0     H75995   1.149   7.689   3.227 -3.7337  2.5814 -1.5353
  563MOL0     H75996   1.207   7.582   3.102 -0.8820 -0.0926  2.0615
  563MOL0     H75997   1.351   7.814   3.230  0.2366  2.7595 -1.7635
  563MOL0     H75998   1.348   7.812   3.051  0.6879  0.2241  0.7517
  563MOL0     H75999   1.442   7.601   3.033  4.7057  0.1883  0.2312
  563MOL0     H76000   1.464   7.590   3.217  2.7867 -0.4329 -0.6780
  563MOL0     H76001   1.665   7.632   3.116  0.4725  0.9832 -2.9957
  563MOL0     H76002   1.606   7.765   3.220  0.2831  0.7870 -1.5661
  563MOL0     H76003   1.629   7.901   2.811 -1.3801 -1.3126 -0.9933
  563MOL0     H76004   0.938   7.933   2.991 -1.0088 -0.6752  1.7500
  563MOL0     H76005   0.696   7.877   2.929  2.1949  1.5496  2.6221
  564MOL0     O76006   5.845   7.171   3.822 -0.4247 -0.3827  0.0995
  564MOL0     C76007   5.938   7.137   3.899  0.0382 -0.6340  0.1349
  564MOL0     O76008   5.950   7.165   4.035 -0.4251  0.5380 -0.6155
  564MOL0     C76009   5.846   7.246   4.084  0.1528 -0.0235 -0.5306
  564MOL0     C76010   5.777   7.208   4.203 -0.3999 -0.1524  0.3348
  564MOL0     C76011   5.695   7.292   4.262 -0.0517  0.3577 -0.2634
  564MOL0     C76012   5.670   7.414   4.210 -0.2167 -0.1106  0.4472
  564MOL0     O76013   5.583   7.499   4.277 -0.1773 -0.2828  0.3464
  564MOL0     C76014   5.497   7.573   4.192  0.2798  0.1035  0.4115
  564MOL0     C76015   5.362   7.589   4.263 -0.6985 -0.4832  0.0771
  564MOL0     C76016   5.260   7.654   4.176 -1.5066 -0.2735  0.3295
  564MOL0     C76017   5.123   7.641   4.250 -0.7898 -0.2297 -0.9629
  564MOL0     C76018   5.019   7.757   4.223  1.1513 -0.7043 -0.5721
  564MOL0     C76019   4.981   7.761   4.069 -0.7034 -0.4319 -0.5037
  564MOL0     C76020   4.869   7.870   4.048 -0.7135 -0.2932  0.2253
  564MOL0     C76021   4.867   7.896   3.901  0.5131 -0.2446 -0.9407
  564MOL0     N76022   4.758   8.001   3.880  0.4975 -0.5772 -0.4662
  564MOL0     C76023   4.618   7.974   3.875 -0.5619  0.4470 -0.3765
  564MOL0     C76024   4.561   8.095   3.905  0.6326 -0.8563 -0.5377
  564MOL0     C76025   4.412   8.130   3.901 -0.3761 -0.1214  1.2547
  564MOL0     C76026   4.335   8.005   3.931 -0.4913 -0.1075 -0.2595
  564MOL0     C76027   4.179   8.041   3.944  0.1566  0.4699 -0.1722
  564MOL0     C76028   4.103   8.028   3.811 -0.0868 -0.3275 -0.1330
  564MOL0     O76029   3.965   8.061   3.819  0.3604  0.0135  0.3386
  564MOL0     C76030   3.875   7.971   3.869  0.1512 -0.4923 -0.2357
  564MOL0     C76031   3.743   8.012   3.873  0.7579  0.0192  0.1970
  564MOL0     C76032   3.628   7.935   3.905 -0.6462 -0.0427  0.3310
  564MOL0     C76033   3.490   7.996   3.899  0.1533  0.0471  0.9859
  564MOL0     C76034   3.654   7.808   3.960 -0.8270  0.1454  0.0904
  564MOL0     C76035   3.547   7.716   4.001 -0.2467 -0.4450  0.3345
  564MOL0     O76036   3.596   7.604   4.067  0.2048  0.1612 -0.8059
  564MOL0     C76037   3.505   7.515   4.116  0.2995  0.7097  0.8143
  564MOL0     C76038   3.548   7.377   4.122 -0.0101 -0.4448 -0.2285
  564MOL0     C76039   3.461   7.276   4.152  0.7427  0.4964 -0.5361
  564MOL0     C76040   3.342   7.306   4.203  1.6212 -0.1222 -0.6553
  564MOL0     O76041   3.260   7.200   4.237  0.2720 -0.5657  0.4518
  564MOL0     C76042   3.120   7.203   4.277  0.0418  0.0984 -0.1984
  564MOL0     C76043   3.024   7.115   4.200  0.0957 -0.1863  0.6266
  564MOL0     C76044   2.890   7.106   4.280  0.6458 -1.2493  1.1241
  564MOL0     C76045   2.795   7.032   4.187 -0.2939 -0.0049  0.1402
  564MOL0     C76046   2.671   6.990   4.265 -0.1015 -0.4053  1.0575
  564MOL0     C76047   2.577   6.895   4.184  0.6267 -0.4795  0.1729
  564MOL0     C76048   2.446   6.883   4.269  0.2732 -0.0871  0.2697
  564MOL0     C76049   2.381   6.753   4.232  0.0968  0.7872 -1.1407
  564MOL0    Cl76050   2.228   6.738   4.320 -0.2026 -0.5354  0.0120
  564MOL0     C76051   3.291   7.439   4.208  0.2119 -0.1664  1.2778
  564MOL0     C76052   3.374   7.543   4.164 -0.5705  0.1820 -0.3880
  564MOL0     O76053   3.435   7.723   3.958  0.3863  0.2974 -0.0924
  564MOL0     C76054   3.799   7.766   3.961  0.1431  0.3804  0.0078
  564MOL0     C76055   3.902   7.848   3.918 -0.5438 -0.0521 -0.2715
  564MOL0     N76056   4.661   8.189   3.913 -0.3823 -0.6081 -0.1908
  564MOL0     N76057   4.768   8.136   3.896 -0.4329  0.0384  0.3607
  564MOL0     C76058   5.736   7.464   4.088 -0.3009  0.3520 -0.6287
  564MOL0     C76059   5.821   7.376   4.028  0.1392  1.5061 -0.0033
  564MOL0     C76060   6.054   7.061   3.838  0.4805  0.0955  0.3419
  564MOL0     C76061   6.162   7.016   3.912 -0.8476 -0.2110 -0.8762
  564MOL0     C76062   6.255   6.917   3.864 -0.3095 -0.7202 -0.2826
  564MOL0     C76063   6.242   6.878   3.734 -0.1768  0.7255 -0.2003
  564MOL0     O76064   6.335   6.806   3.671 -0.5974 -0.5419  0.2444
  564MOL0     C76065   6.439   6.743   3.739  0.0031 -0.2649 -0.3205
  564MOL0     C76066   6.508   6.665   3.631  0.0785  0.8678  0.1992
  564MOL0     C76067   6.416   6.563   3.567  0.5566  0.5142  0.0463
  564MOL0     C76068   6.354   6.605   3.444 -0.2597 -0.7068 -0.0248
  564MOL0     C76069   6.304   6.489   3.367 -0.2157 -0.0502  0.0675
  564MOL0     C76070   6.255   6.391   3.304 -0.7896 -0.3853  0.3783
  564MOL0     C76071   6.136   6.921   3.660  0.1386  0.7686  0.7503
  564MOL0     C76072   6.035   7.004   3.709  0.3828  0.0661  0.5100
  564MOL0     H76073   5.809   7.119   4.255 -1.4837 -0.9204 -0.2534
  564MOL0     H76074   5.648   7.263   4.356 -3.7946  1.3408 -1.6495
  564MOL0     H76075   5.538   7.673   4.176 -0.3076 -0.0090 -2.3062
  564MOL0     H76076   5.486   7.526   4.093 -1.9637 -3.0881  1.9927
  564MOL0     H76077   5.328   7.487   4.283  3.4229 -1.8066  1.3047
  564MOL0     H76078   5.380   7.636   4.360 -1.9557 -4.9444  2.7878
  564MOL0     H76079   5.277   7.762   4.173 -0.6230 -0.3774  1.1695
  564MOL0     H76080   5.248   7.615   4.075  0.6545  0.9024 -0.4663
  564MOL0     H76081   5.079   7.542   4.240  0.5042 -1.0179  0.6056
  564MOL0     H76082   5.139   7.650   4.358 -0.8589 -0.4609 -0.9336
  564MOL0     H76083   4.925   7.737   4.275  0.3727  2.0677 -0.7232
  564MOL0     H76084   5.076   7.843   4.262 -0.3062  0.1145 -0.1773
  564MOL0     H76085   5.075   7.786   4.020 -2.0719  0.7340 -2.7021
  564MOL0     H76086   4.958   7.664   4.023  0.3096 -0.0727 -1.8138
  564MOL0     H76087   4.774   7.827   4.082 -0.9622  0.3703  0.3814
  564MOL0     H76088   4.887   7.962   4.105  2.8514  0.1931 -1.4446
  564MOL0     H76089   4.870   7.807   3.837 -2.2835 -1.9090  0.9634
  564MOL0     H76090   4.963   7.943   3.880 -0.0068  1.7655  0.7981
  564MOL0     H76091   4.573   7.881   3.840  0.3529 -0.0888 -0.1455
  564MOL0     H76092   4.394   8.210   3.973  0.8935  0.1003  1.3511
  564MOL0     H76093   4.389   8.163   3.799  1.1840 -0.1618  0.8650
  564MOL0     H76094   4.385   7.981   4.025 -1.6018  0.8845  0.6100
  564MOL0     H76095   4.347   7.917   3.867  2.5673 -0.0893  0.1329
  564MOL0     H76096   4.168   8.148   3.964  1.4173  0.6134 -0.1384
  564MOL0     H76097   4.138   7.981   4.026  2.7822  0.4850  1.2765
  564MOL0     H76098   4.109   7.931   3.761  1.5709 -0.0918 -0.4712
  564MOL0     H76099   4.145   8.107   3.747 -0.5290  0.0995  0.1032
  564MOL0     H76100   3.737   8.115   3.838  0.2319 -0.0225  0.1583
  564MOL0     H76101   3.445   8.016   3.996 -3.0828 -0.2434 -0.3344
  564MOL0     H76102   3.491   8.096   3.855 -0.5156  0.9328  2.8807
  564MOL0     H76103   3.427   7.940   3.829 -0.0102  1.3258  0.0760
  564MOL0     H76104   3.645   7.355   4.078  1.6279  3.3201  1.0718
  564MOL0     H76105   3.497   7.174   4.143 -1.9497 -0.4806 -1.1036
  564MOL0     H76106   3.112   7.180   4.384  0.0665  1.7309  0.1805
  564MOL0     H76107   3.068   7.299   4.276  0.3235  0.2604  0.2507
  564MOL0     H76108   2.995   7.157   4.103  0.2471 -1.6972 -0.1149
  564MOL0     H76109   3.067   7.015   4.181  1.1751  0.1786  1.0582
  564MOL0     H76110   2.847   7.204   4.304  2.2153 -0.2553  0.0995
  564MOL0     H76111   2.917   7.052   4.370  0.9410 -1.4050  0.9443
  564MOL0     H76112   2.772   7.102   4.106 -2.2811 -0.7004  0.0452
  564MOL0     H76113   2.852   6.947   4.150  0.7110  0.9566 -0.5922
  564MOL0     H76114   2.614   7.082   4.284  0.9509  1.0829 -2.2101
  564MOL0     H76115   2.700   6.949   4.362 -3.2320 -0.0549  2.2432
  564MOL0     H76116   2.544   6.948   4.094 -3.7639  1.3314  2.5229
  564MOL0     H76117   2.628   6.803   4.153  0.2913 -0.8839  0.7721
  564MOL0     H76118   2.390   6.974   4.245  1.3365  0.7575  0.8977
  564MOL0     H76119   2.465   6.899   4.376 -0.4171  0.5008  0.3127
  564MOL0     H76120   2.450   6.676   4.267 -1.9673 -0.0741  1.3402
  564MOL0     H76121   2.368   6.749   4.123 -1.3929 -1.0363 -0.9378
  564MOL0     H76122   3.186   7.462   4.227 -0.2648 -1.5807  0.5030
  564MOL0     H76123   3.347   7.647   4.174 -0.0187  0.1632  1.7725
  564MOL0     H76124   3.822   7.664   3.989 -2.0875 -0.1914 -0.0520
  564MOL0     H76125   4.005   7.819   3.935 -1.1674 -1.7233  1.0020
  564MOL0     H76126   5.717   7.556   4.034  1.1561  0.9728 -0.1311
  564MOL0     H76127   5.870   7.410   3.938  1.8147  1.9705  1.0310
  564MOL0     H76128   6.169   7.048   4.016  0.4595 -2.8798 -0.0540
  564MOL0     H76129   6.331   6.882   3.932 -0.9734 -1.4209  0.1155
  564MOL0     H76130   6.514   6.811   3.782 -1.1163  0.8580 -0.0777
  564MOL0     H76131   6.399   6.689   3.825  0.1422  0.9949  0.5778
  564MOL0     H76132   6.590   6.616   3.683 -1.0007 -0.2555  0.9070
  564MOL0     H76133   6.554   6.738   3.564  0.0839  1.9757  1.3731
  564MOL0     H76134   6.339   6.522   3.633  0.2872  0.0840 -0.5312
  564MOL0     H76135   6.483   6.482   3.536  0.3075  0.2061  0.3139
  564MOL0     H76136   6.430   6.658   3.384  0.0275 -0.4404  0.5692
  564MOL0     H76137   6.270   6.670   3.467  0.2418 -0.3962  0.9718
  564MOL0     H76138   6.211   6.306   3.255 -2.8659  1.5989 -1.4265
  564MOL0     H76139   6.135   6.883   3.558 -1.0597  0.9375  0.6852
  564MOL0     H76140   5.960   7.038   3.638 -2.0585  0.5619  3.1776
  565MOL0     O76141   3.787   5.242   6.989  0.1368  0.3063 -0.5025
  565MOL0     C76142   3.848   5.141   7.019  0.1395  0.0320 -0.6048
  565MOL0     O76143   3.807   5.046   7.117 -0.5685 -1.0244 -0.0351
  565MOL0     C76144   3.696   5.070   7.195 -0.1427 -0.9548 -0.9859
  565MOL0     C76145   3.613   4.962   7.235 -0.2275 -0.0521 -0.8777
  565MOL0     C76146   3.500   4.986   7.318 -0.2251  0.7797 -0.5634
  565MOL0     C76147   3.450   5.115   7.349 -0.2903  0.2290  0.3860
  565MOL0     O76148   3.326   5.136   7.398 -0.2156 -0.4765 -0.2133
  565MOL0     C76149   3.248   5.021   7.416 -0.3087  0.4025 -0.4828
  565MOL0     C76150   3.101   5.049   7.441 -0.1716 -0.9363 -0.3276
  565MOL0     C76151   3.010   4.924   7.442 -0.0086  0.2514  0.0467
  565MOL0     C76152   2.867   4.950   7.485 -0.0022 -0.0875  0.4618
  565MOL0     C76153   2.782   4.829   7.445 -0.9264  0.3239  0.4922
  565MOL0     C76154   2.640   4.852   7.498  0.2820 -0.2278 -0.5215
  565MOL0     C76155   2.549   4.724   7.485 -0.4523 -0.4488  0.3301
  565MOL0     C76156   2.440   4.742   7.591 -1.1436 -0.2077 -0.3890
  565MOL0     N76157   2.320   4.675   7.536  0.5652 -0.1936  0.0482
  565MOL0     C76158   2.214   4.743   7.488  0.8067 -0.2037 -0.1596
  565MOL0     C76159   2.125   4.648   7.457  0.2125  0.3736  0.1040
  565MOL0     C76160   1.990   4.673   7.388  0.9224 -0.4481 -0.1569
  565MOL0     C76161   1.884   4.575   7.418  1.1136 -0.1501  0.4729
  565MOL0     C76162   1.757   4.618   7.339 -0.2198  0.7749  0.7081
  565MOL0     C76163   1.636   4.526   7.360  0.2561 -1.0069 -0.0818
  565MOL0     O76164   1.522   4.591   7.289  0.3771  0.0278  0.2850
  565MOL0     C76165   1.427   4.521   7.220 -0.4400 -0.0016 -0.5246
  565MOL0     C76166   1.407   4.384   7.230  0.1607 -0.4590 -0.1879
  565MOL0     C76167   1.304   4.320   7.156 -0.0633  0.7234 -0.8177
  565MOL0     C76168   1.293   4.171   7.167 -0.1254 -0.0944  0.0146
  565MOL0     C76169   1.211   4.405   7.082 -0.7948  0.3200 -0.0145
  565MOL0     C76170   1.087   4.346   7.023  0.3302 -0.1868 -0.0909
  565MOL0     O76171   1.099   4.228   6.946  0.5823  0.5384 -0.1405
  565MOL0     C76172   1.000   4.156   6.893  0.0560 -0.1273 -0.2067
  565MOL0     C76173   0.862   4.194   6.891  1.1343 -0.0170  0.4247
  565MOL0     C76174   0.757   4.117   6.833  0.5363 -0.1977  0.2842
  565MOL0     C76175   0.788   3.987   6.791 -0.6321 -0.1044  0.8651
  565MOL0     O76176   0.693   3.901   6.747  0.5044  0.2756  0.5733
  565MOL0     C76177   0.562   3.950   6.719  0.3171 -0.1028 -0.3206
  565MOL0     C76178   0.460   3.832   6.696 -0.7149  0.1517  0.1142
  565MOL0     C76179   0.486   3.758   6.563  0.4020 -0.3366  0.2148
  565MOL0     C76180   0.397   3.639   6.573  0.8491 -0.0054 -0.5382
  565MOL0     C76181   0.375   3.564   6.443  0.3397  0.1513 -0.2205
  565MOL0     C76182   0.503   3.512   6.392 -0.6023  0.2918 -0.8017
  565MOL0     C76183   0.499   3.428   6.264 -0.0276  0.1591  0.0173
  565MOL0     C76184   0.622   3.441   6.183  0.4286  0.0452  0.3176
  565MOL0    Cl76185   0.776   3.441   6.272  0.0182 -0.1218  0.5826
  565MOL0     C76186   0.925   3.940   6.800 -0.0074 -0.9769  0.1503
  565MOL0     C76187   1.033   4.033   6.840  0.9392  1.1220  0.1929
  565MOL0     O76188   0.987   4.417   7.027  0.2475 -0.0623 -0.5191
  565MOL0     C76189   1.235   4.545   7.081 -0.1450 -0.3866 -0.1946
  565MOL0     C76190   1.341   4.602   7.147  0.3119  0.3411  0.2332
  565MOL0     N76191   2.178   4.521   7.483 -0.1235 -0.6178 -0.5066
  565MOL0     N76192   2.296   4.546   7.543  0.0579  0.4582 -0.3603
  565MOL0     C76193   3.537   5.219   7.313 -0.6324  0.6887  0.4649
  565MOL0     C76194   3.658   5.197   7.245  0.1445 -0.4985  0.1064
  565MOL0     C76195   3.965   5.114   6.928 -0.5032  0.2033  0.3083
  565MOL0     C76196   4.051   5.009   6.957  0.1190 -0.0792 -0.3611
  565MOL0     C76197   4.163   4.977   6.884  1.0281 -0.3695  0.2672
  565MOL0     C76198   4.195   5.055   6.767  0.8290 -0.2171 -0.7370
  565MOL0     O76199   4.303   5.023   6.687  0.8695 -0.7830 -0.4142
  565MOL0     C76200   4.364   5.114   6.596  0.0835 -0.2822 -0.3158
  565MOL0     C76201   4.306   5.129   6.459  0.0491 -0.4675  0.2421
  565MOL0     C76202   4.365   5.248   6.384  0.4430 -0.5943  0.9796
  565MOL0     C76203   4.317   5.231   6.231 -0.5533 -0.3530  0.0459
  565MOL0     C76204   4.391   5.124   6.162  0.4174 -0.7215  0.3469
  565MOL0     C76205   4.449   5.033   6.110 -0.5043 -0.0979 -0.0170
  565MOL0     C76206   4.106   5.161   6.738  0.0707  0.9967  0.4593
  565MOL0     C76207   3.997   5.190   6.817 -0.6865 -0.5570  0.4208
  565MOL0     H76208   3.643   4.858   7.221 -0.2678  0.0288 -1.5891
  565MOL0     H76209   3.447   4.894   7.340 -2.0394  1.5803 -1.3826
  565MOL0     H76210   3.250   4.943   7.340 -2.7749 -0.0573 -0.1732
  565MOL0     H76211   3.284   4.969   7.506  1.5825  0.9243 -0.8901
  565MOL0     H76212   3.103   5.089   7.543  2.6200  0.1260 -0.6899
  565MOL0     H76213   3.062   5.116   7.364 -0.3952 -1.4131 -0.6298
  565MOL0     H76214   3.007   4.885   7.340 -0.7858 -0.9069  0.4849
  565MOL0     H76215   3.051   4.844   7.506  1.6515  1.2361  0.2868
  565MOL0     H76216   2.865   4.965   7.593 -3.5762  0.0629  0.5084
  565MOL0     H76217   2.827   5.043   7.445  0.4608 -1.0949 -2.6001
  565MOL0     H76218   2.784   4.802   7.339 -0.1257  1.9441  0.0645
  565MOL0     H76219   2.815   4.740   7.499 -1.2390 -0.5573 -0.7417
  565MOL0     H76220   2.640   4.877   7.605 -0.1482  2.0670 -1.0064
  565MOL0     H76221   2.598   4.942   7.452  0.1179 -1.0245 -1.9802
  565MOL0     H76222   2.507   4.726   7.384 -0.4092 -0.4437  0.3116
  565MOL0     H76223   2.606   4.632   7.499  0.5030  0.2065  0.9090
  565MOL0     H76224   2.424   4.847   7.615 -3.3839 -0.5633 -0.1168
  565MOL0     H76225   2.462   4.688   7.684 -0.7468  2.3306  1.0813
  565MOL0     H76226   2.220   4.849   7.467  3.4613 -0.6734 -2.4031
  565MOL0     H76227   1.954   4.771   7.420  0.5520  0.0761 -2.0345
  565MOL0     H76228   2.005   4.676   7.280 -0.0642 -0.2124 -0.2982
  565MOL0     H76229   1.863   4.576   7.526 -0.5199  0.8828  0.1760
  565MOL0     H76230   1.913   4.473   7.390  1.2281  0.0748 -0.2277
  565MOL0     H76231   1.779   4.615   7.232  0.8160 -2.1420  0.9089
  565MOL0     H76232   1.740   4.725   7.354  3.0991  2.3036 -3.9086
  565MOL0     H76233   1.595   4.538   7.461 -4.6671  1.5529 -2.0055
  565MOL0     H76234   1.658   4.422   7.332  1.7963 -1.3141  2.0591
  565MOL0     H76235   1.464   4.326   7.303  0.0902 -0.0548  0.1898
  565MOL0     H76236   1.337   4.143   7.264  0.3673  0.3263 -0.0833
  565MOL0     H76237   1.186   4.150   7.170 -0.1462 -0.9123 -3.0204
  565MOL0     H76238   1.335   4.126   7.077  1.2029  2.0514 -0.5080
  565MOL0     H76239   0.835   4.290   6.933 -0.8945 -0.2067 -0.3532
  565MOL0     H76240   0.657   4.155   6.847  0.7276  0.3610  0.1543
  565MOL0     H76241   0.517   4.008   6.801 -3.0401 -3.0935  0.1645
  565MOL0     H76242   0.568   4.005   6.625 -0.2595  0.4894 -0.0269
  565MOL0     H76243   0.467   3.759   6.778  3.1968 -0.4582 -0.5265
  565MOL0     H76244   0.365   3.886   6.692 -0.1547  1.1877  0.2291
  565MOL0     H76245   0.592   3.731   6.556  1.0299  2.0345 -0.4786
  565MOL0     H76246   0.455   3.815   6.475 -1.8977 -1.4449  0.2347
  565MOL0     H76247   0.441   3.572   6.648 -1.2380 -2.5855 -1.4384
  565MOL0     H76248   0.299   3.671   6.609  0.8943  1.3956 -1.5970
  565MOL0     H76249   0.332   3.632   6.369  1.6443 -0.8443 -1.9689
  565MOL0     H76250   0.302   3.482   6.448 -1.8165  2.0145  0.6783
  565MOL0     H76251   0.567   3.598   6.372 -0.6048  0.2640 -0.9329
  565MOL0     H76252   0.562   3.458   6.467  2.4887  2.5569 -1.3865
  565MOL0     H76253   0.416   3.463   6.201  0.2006 -0.1728 -0.4846
  565MOL0     H76254   0.460   3.326   6.275 -0.0463  0.2041  0.3585
  565MOL0     H76255   0.614   3.535   6.129  0.0634 -1.0522 -1.6203
  565MOL0     H76256   0.617   3.364   6.105 -0.1699  0.9415 -0.5490
  565MOL0     H76257   0.941   3.852   6.738  1.9801  0.5345 -1.6109
  565MOL0     H76258   1.139   4.011   6.845  0.8345  0.7413  0.7655
  565MOL0     H76259   1.171   4.608   7.020 -0.4882  1.0146  1.5198
  565MOL0     H76260   1.355   4.709   7.146 -0.8579  0.5303  1.6917
  565MOL0     H76261   3.510   5.321   7.339  2.0321  1.4599  0.4288
  565MOL0     H76262   3.724   5.274   7.204  0.9425 -2.1290 -1.8352
  565MOL0     H76263   4.035   4.952   7.048 -0.3191  0.4864 -0.0765
  565MOL0     H76264   4.230   4.893   6.903  1.5984 -0.2675 -1.2267
  565MOL0     H76265   4.386   5.211   6.643  1.2648 -0.5542 -0.2680
  565MOL0     H76266   4.470   5.092   6.582  0.5808  1.3005  0.6429
  565MOL0     H76267   4.197   5.137   6.451  0.0005 -1.2012  0.1227
  565MOL0     H76268   4.336   5.036   6.409  1.7391 -0.0331  0.4078
  565MOL0     H76269   4.475   5.251   6.390  0.4960  1.2049 -0.0559
  565MOL0     H76270   4.327   5.343   6.422 -0.4185  0.0300 -1.2704
  565MOL0     H76271   4.339   5.324   6.178  0.9078  0.1610  1.4786
  565MOL0     H76272   4.209   5.220   6.216 -0.6277  3.0167 -3.5404
  565MOL0     H76273   4.489   4.951   6.053  0.9922  0.7880 -0.3087
  565MOL0     H76274   4.114   5.218   6.646 -0.6327 -3.1000 -2.4210
  565MOL0     H76275   3.945   5.279   6.784  2.2280  1.1229 -0.0125
  566MOL0     O76276   1.014   0.919   1.890  0.6847  0.0102  0.8771
  566MOL0     C76277   1.083   0.828   1.928 -0.5347  1.8978 -0.6987
  566MOL0     O76278   1.071   0.697   1.885 -0.6369 -0.0220 -0.5265
  566MOL0     C76279   0.955   0.654   1.827  0.0140 -0.1789  0.4923
  566MOL0     C76280   0.832   0.694   1.874 -0.1712  0.7041  0.0140
  566MOL0     C76281   0.710   0.657   1.804 -0.1719 -0.2975  0.6502
  566MOL0     C76282   0.724   0.572   1.694  0.9211 -0.6069  0.4351
  566MOL0     O76283   0.612   0.536   1.631  0.8646  0.0102 -0.8250
  566MOL0     C76284   0.598   0.394   1.611 -0.0177  0.5858  0.3968
  566MOL0     C76285   0.453   0.361   1.564  0.5834  0.5998  0.8520
  566MOL0     C76286   0.404   0.448   1.448 -0.1577 -0.3219 -0.5442
  566MOL0     C76287   0.295   0.381   1.360 -0.1736  0.6187 -0.0341
  566MOL0     C76288   0.158   0.370   1.419  0.3133  0.5807  0.1112
  566MOL0     C76289   0.064   0.308   1.320 -0.9455 -0.3764  1.0258
  566MOL0     C76290  -0.009   0.404   1.224  0.1523  0.3498  0.4504
  566MOL0     C76291  -0.114   0.323   1.137 -0.5837  0.3549  0.0473
  566MOL0     N76292  -0.076   0.183   1.092 -0.2490  0.3726  0.2018
  566MOL0     C76293   0.040   0.154   1.017 -0.5824 -0.8284  0.3329
  566MOL0     C76294   0.044   0.022   1.018  0.1022 -0.3826 -0.1143
  566MOL0     C76295   0.134  -0.069   0.947 -0.1736  0.0071  0.0883
  566MOL0     C76296   0.240  -0.126   1.022  0.1714  0.2144 -0.4264
  566MOL0     C76297   0.341  -0.029   1.084  0.8896  0.2698  0.6341
  566MOL0     C76298   0.437  -0.122   1.165 -0.5996 -0.3202  0.1598
  566MOL0     O76299   0.538  -0.178   1.078  1.0241 -0.1562  0.4397
  566MOL0     C76300   0.633  -0.264   1.114 -0.4781 -0.1810 -1.2186
  566MOL0     C76301   0.744  -0.287   1.028  0.5124 -0.9518 -0.6383
  566MOL0     C76302   0.857  -0.344   1.078 -0.6874 -0.7330  0.7215
  566MOL0     C76303   0.980  -0.309   0.985  0.2292  0.6471  0.7893
  566MOL0     C76304   0.865  -0.409   1.198 -0.2577 -0.2848 -0.2630
  566MOL0     C76305   0.975  -0.502   1.248  0.5336  0.0576  0.5428
  566MOL0     O76306   1.081  -0.529   1.166  1.3822 -0.6689  1.4382
  566MOL0     C76307   1.184  -0.601   1.218 -0.1894 -0.6434 -1.4387
  566MOL0     C76308   1.202  -0.726   1.167 -0.1603  0.5779  0.0997
  566MOL0     C76309   1.302  -0.812   1.219 -0.1594  0.4334 -0.0947
  566MOL0     C76310   1.381  -0.772   1.329 -0.3953 -0.3728  0.3987
  566MOL0     O76311   1.478  -0.853   1.382  0.4269 -1.2611 -0.1441
  566MOL0     C76312   1.549  -0.939   1.296  0.2380  0.2384  0.2582
  566MOL0     C76313   1.685  -0.981   1.346  0.3520 -0.4699 -0.1251
  566MOL0     C76314   1.767  -0.862   1.386  0.0924 -0.1660 -0.7062
  566MOL0     C76315   1.806  -0.781   1.258  0.3534 -0.2584  0.3857
  566MOL0     C76316   1.890  -0.663   1.312 -0.6704  0.0685  0.6386
  566MOL0     C76317   2.040  -0.702   1.333 -0.1500  0.7434  0.4146
  566MOL0     C76318   2.135  -0.587   1.360  0.3613 -0.7052  0.6884
  566MOL0     C76319   2.283  -0.632   1.397  0.6298 -0.1103  0.2263
  566MOL0    Cl76320   2.367  -0.681   1.244 -0.0717  0.0753  0.1089
  566MOL0     C76321   1.366  -0.642   1.382 -0.1733  0.9434  0.6397
  566MOL0     C76322   1.285  -0.551   1.306 -1.1881  0.6915 -0.2180
  566MOL0     O76323   0.965  -0.534   1.367 -0.5195  0.2211  0.1451
  566MOL0     C76324   0.747  -0.385   1.281 -0.0875  0.3068 -0.0691
  566MOL0     C76325   0.638  -0.314   1.242  0.0069 -0.6799 -0.4523
  566MOL0     N76326  -0.051  -0.029   1.102 -0.2928  0.5800  0.2030
  566MOL0     N76327  -0.117   0.067   1.155 -0.1488  0.1401 -0.3505
  566MOL0     C76328   0.851   0.530   1.646 -0.5892 -0.5420 -0.8372
  566MOL0     C76329   0.962   0.574   1.713 -0.0194  0.4783 -0.5329
  566MOL0     C76330   1.182   0.857   2.041  0.4731  0.2895 -0.2852
  566MOL0     C76331   1.280   0.771   2.085 -0.2333  0.6108  0.3413
  566MOL0     C76332   1.351   0.794   2.206  0.4783 -0.4360  0.4759
  566MOL0     C76333   1.349   0.919   2.262 -1.1144  0.5502  0.1135
  566MOL0     O76334   1.428   0.953   2.372 -0.8522 -0.5772 -0.0132
  566MOL0     C76335   1.509   0.859   2.445  0.2970  0.4569 -0.2351
  566MOL0     C76336   1.645   0.885   2.391 -0.5183  0.1154  0.2482
  566MOL0     C76337   1.760   0.811   2.455 -0.4341  0.1067 -0.5197
  566MOL0     C76338   1.890   0.887   2.450  0.4654 -0.1751  0.0226
  566MOL0     C76339   1.986   0.783   2.465 -0.3140 -0.3076 -0.1699
  566MOL0     C76340   2.073   0.707   2.492 -0.6104  0.0187 -0.0973
  566MOL0     C76341   1.260   1.009   2.215  0.1142 -0.4303  0.3205
  566MOL0     C76342   1.172   0.977   2.112 -0.1896 -0.4192 -0.2351
  566MOL0     H76343   0.824   0.747   1.969  2.3963  1.5484 -0.1635
  566MOL0     H76344   0.612   0.687   1.840 -0.6392 -1.8939  0.7899
  566MOL0     H76345   0.667   0.354   1.537  0.0470  1.9045 -0.2815
  566MOL0     H76346   0.603   0.340   1.706 -1.3501 -2.4664 -1.1352
  566MOL0     H76347   0.457   0.253   1.547  1.7953  0.2622  2.8832
  566MOL0     H76348   0.379   0.367   1.645 -2.6129 -3.2992 -1.4077
  566MOL0     H76349   0.353   0.533   1.495  1.7202 -0.3461  1.6899
  566MOL0     H76350   0.485   0.492   1.390  1.3648 -1.3724  0.7155
  566MOL0     H76351   0.278   0.445   1.272  1.0040  1.0648  0.0452
  566MOL0     H76352   0.334   0.286   1.320  0.1492  1.1147 -0.9381
  566MOL0     H76353   0.162   0.289   1.492  0.3231 -0.1424 -0.6773
  566MOL0     H76354   0.112   0.459   1.464 -3.3685 -1.3537  0.5111
  566MOL0     H76355   0.125   0.251   1.250 -3.4816 -1.0665 -0.7514
  566MOL0     H76356  -0.008   0.245   1.373 -4.5947  2.0109 -0.6957
  566MOL0     H76357  -0.064   0.478   1.283 -1.0089 -0.1188 -0.0351
  566MOL0     H76358   0.073   0.446   1.164  1.1203  0.0748  1.5304
  566MOL0     H76359  -0.151   0.371   1.046  0.1478 -1.2986 -1.1735
  566MOL0     H76360  -0.197   0.299   1.204 -0.6455 -1.3960 -0.6168
  566MOL0     H76361   0.102   0.223   0.961 -3.1830  1.2899 -0.1621
  566MOL0     H76362   0.074  -0.156   0.920 -1.9942  1.3086 -0.2171
  566MOL0     H76363   0.173  -0.034   0.851  0.3774 -2.2780 -0.5719
  566MOL0     H76364   0.289  -0.193   0.950  1.8591 -1.5810  2.2180
  566MOL0     H76365   0.213  -0.189   1.107  1.9142  2.6796  2.1089
  566MOL0     H76366   0.287   0.032   1.158 -1.7799 -1.4287  0.2013
  566MOL0     H76367   0.390   0.038   1.012  0.2403 -0.8087 -0.8569
  566MOL0     H76368   0.391  -0.198   1.229  2.2902 -2.4107 -0.0675
  566MOL0     H76369   0.495  -0.058   1.231 -1.7951 -0.8239  1.7631
  566MOL0     H76370   0.740  -0.238   0.931 -4.9571 -3.1018 -1.8585
  566MOL0     H76371   1.011  -0.405   0.943 -0.3273  1.0883 -0.6919
  566MOL0     H76372   0.948  -0.255   0.896 -1.9769 -0.9768  0.5039
  566MOL0     H76373   1.062  -0.255   1.033  2.0236 -1.0483 -0.2176
  566MOL0     H76374   1.142  -0.757   1.082  1.3358  0.0631 -0.8025
  566MOL0     H76375   1.306  -0.913   1.181  1.3542 -0.1895  1.5552
  566MOL0     H76376   1.491  -1.031   1.302  3.3121 -1.7443  3.6187
  566MOL0     H76377   1.565  -0.892   1.199  2.2073 -1.4574 -0.3034
  566MOL0     H76378   1.665  -1.052   1.427  0.0478 -3.7982 -2.8706
  566MOL0     H76379   1.740  -1.032   1.266  0.6778  1.7142 -1.3542
  566MOL0     H76380   1.853  -0.903   1.441  0.5248  0.8087 -0.6259
  566MOL0     H76381   1.708  -0.793   1.447  0.5769  1.0769 -1.5877
  566MOL0     H76382   1.862  -0.847   1.190 -1.8920 -0.8376 -1.0198
  566MOL0     H76383   1.713  -0.751   1.208  0.1736 -2.6776 -0.9023
  566MOL0     H76384   1.863  -0.624   1.411 -0.9994 -0.4318  0.7491
  566MOL0     H76385   1.884  -0.574   1.248 -1.0479  0.3997  1.1283
  566MOL0     H76386   2.051  -0.773   1.416 -0.9880  0.1264  0.0224
  566MOL0     H76387   2.077  -0.749   1.241  0.5166 -1.5557  1.7577
  566MOL0     H76388   2.090  -0.531   1.443 -3.1859 -0.7631 -1.0146
  566MOL0     H76389   2.120  -0.523   1.273  1.2811  0.8617  1.6472
  566MOL0     H76390   2.281  -0.720   1.461  0.2054  0.2257  0.6866
  566MOL0     H76391   2.322  -0.543   1.447 -1.3708 -0.0788  1.8946
  566MOL0     H76392   1.422  -0.611   1.470 -0.0453 -0.4818  1.0931
  566MOL0     H76393   1.291  -0.445   1.327 -1.8976  0.6750  0.0996
  566MOL0     H76394   0.738  -0.421   1.384  0.1170 -2.5742 -0.9654
  566MOL0     H76395   0.568  -0.298   1.323  4.2550  0.2090  3.4298
  566MOL0     H76396   0.870   0.475   1.555  4.6453 -0.8037  0.0678
  566MOL0     H76397   1.062   0.549   1.678 -0.0557 -0.9384  0.2803
  566MOL0     H76398   1.279   0.672   2.041  0.1887  1.0089 -0.6134
  566MOL0     H76399   1.416   0.718   2.247 -0.7417 -0.6829  2.0627
  566MOL0     H76400   1.495   0.881   2.552 -1.0014 -1.2036 -0.0318
  566MOL0     H76401   1.484   0.755   2.426 -0.5864  1.1907 -3.7603
  566MOL0     H76402   1.664   0.992   2.407  0.6146 -0.1044  0.4203
  566MOL0     H76403   1.643   0.862   2.284  1.2583  0.6442  0.0724
  566MOL0     H76404   1.773   0.712   2.411  0.7746  0.8377 -1.8942
  566MOL0     H76405   1.732   0.785   2.558  0.0882  3.4516  0.5869
  566MOL0     H76406   1.895   0.971   2.520  0.2447 -0.4288  0.3498
  566MOL0     H76407   1.903   0.916   2.345  1.0686  0.1358  0.1810
  566MOL0     H76408   2.147   0.636   2.522 -0.5119 -0.3765 -1.2345
  566MOL0     H76409   1.252   1.102   2.271 -2.9465  0.7162 -1.7703
  566MOL0     H76410   1.104   1.053   2.077  1.5668  0.2433 -2.4038
  567MOL0     O76411   7.724   5.621   0.546  0.0304 -0.3474 -0.4267
  567MOL0     C76412   7.759   5.733   0.495 -0.2777 -0.2759 -0.0163
  567MOL0     O76413   7.689   5.792   0.399  0.6056  0.6106 -0.2031
  567MOL0     C76414   7.554   5.761   0.393 -0.2644  0.1951  0.6038
  567MOL0     C76415   7.507   5.709   0.270  0.9903  0.9889 -0.3826
  567MOL0     C76416   7.379   5.668   0.251  1.2236 -1.0280 -0.8173
  567MOL0     C76417   7.280   5.691   0.353  0.3735  0.4071 -0.1456
  567MOL0     O76418   7.144   5.652   0.342 -0.1871  0.1729  0.6917
  567MOL0     C76419   7.079   5.685   0.212 -0.2182 -0.0350  0.0484
  567MOL0     C76420   6.932   5.690   0.222 -0.1586 -0.0009  0.2446
  567MOL0     C76421   6.863   5.566   0.256  1.2831 -0.4288 -0.2478
  567MOL0     C76422   6.711   5.593   0.291 -0.4718  0.1357 -0.8699
  567MOL0     C76423   6.638   5.460   0.311  0.3012 -0.0674  0.8333
  567MOL0     C76424   6.494   5.477   0.305 -0.8085 -0.5517 -0.0320
  567MOL0     C76425   6.416   5.349   0.335  0.0080 -0.0656  0.5553
  567MOL0     C76426   6.266   5.371   0.319  0.1970 -0.6930 -0.5259
  567MOL0     N76427   6.209   5.445   0.432  0.9031  0.1016 -0.1531
  567MOL0     C76428   6.107   5.536   0.421  0.4239  0.3219 -0.1483
  567MOL0     C76429   6.106   5.589   0.541  0.2243  0.4871  0.0103
  567MOL0     C76430   6.011   5.702   0.571 -0.1681 -0.2238  0.2317
  567MOL0     C76431   5.862   5.670   0.620  0.7025 -0.8491 -0.0750
  567MOL0     C76432   5.781   5.806   0.649  0.1891  0.2746 -0.1100
  567MOL0     C76433   5.632   5.793   0.673 -0.4839  0.7646 -0.2434
  567MOL0     O76434   5.582   5.718   0.564 -0.3373  0.6520  0.3098
  567MOL0     C76435   5.456   5.659   0.596 -0.3302 -0.5554  0.4143
  567MOL0     C76436   5.347   5.742   0.632 -0.2187 -0.6671  0.2450
  567MOL0     C76437   5.230   5.685   0.676  0.4729 -0.2349  0.0577
  567MOL0     C76438   5.144   5.787   0.762 -0.5171 -0.0469  0.7467
  567MOL0     C76439   5.217   5.547   0.669 -0.2710  0.7308 -0.0965
  567MOL0     C76440   5.103   5.487   0.723 -0.1390  0.6537  0.9259
  567MOL0     O76441   5.130   5.386   0.811 -0.7412 -0.3394  0.0976
  567MOL0     C76442   5.012   5.339   0.875  0.8173 -0.4594  0.2899
  567MOL0     C76443   4.944   5.406   0.977 -0.1990  0.6973  0.1176
  567MOL0     C76444   4.827   5.344   1.035 -0.4719 -0.2869  0.5833
  567MOL0     C76445   4.788   5.208   1.007  0.1678 -0.2144 -0.6538
  567MOL0     O76446   4.670   5.164   1.063  0.1905 -0.8020  0.8963
  567MOL0     C76447   4.593   5.242   1.151  0.2887  0.0514  0.2057
  567MOL0     C76448   4.632   5.228   1.292  0.0549 -0.1721 -0.7269
  567MOL0     C76449   4.561   5.337   1.388 -0.7374  1.0878 -0.9009
  567MOL0     C76450   4.417   5.282   1.440 -0.6307  0.1819 -1.5030
  567MOL0     C76451   4.350   5.391   1.525 -0.8160 -0.8725  0.5353
  567MOL0     C76452   4.198   5.376   1.537 -0.0517 -0.3691 -0.0663
  567MOL0     C76453   4.152   5.279   1.645 -0.2161  0.3338 -0.4126
  567MOL0     C76454   3.997   5.271   1.638 -0.4658  0.4027 -0.4641
  567MOL0    Cl76455   3.952   5.178   1.502  0.0043  0.2067 -0.2224
  567MOL0     C76456   4.865   5.146   0.914 -0.5444  0.1349  0.2871
  567MOL0     C76457   4.966   5.211   0.842 -0.0477 -0.0152  0.2760
  567MOL0     O76458   4.986   5.522   0.685 -0.7887  0.2959 -0.3517
  567MOL0     C76459   5.322   5.456   0.627  0.2886  0.0381  0.4221
  567MOL0     C76460   5.436   5.524   0.587 -1.7546  0.7982 -0.5583
  567MOL0     N76461   6.191   5.524   0.630  0.2922  0.1556 -0.2596
  567MOL0     N76462   6.252   5.436   0.563 -0.8521  0.3749  0.7368
  567MOL0     C76463   7.326   5.748   0.475  0.6479 -0.1753  0.5669
  567MOL0     C76464   7.461   5.789   0.494  0.1470  0.8876  0.1755
  567MOL0     C76465   7.880   5.804   0.536 -0.7179  0.4209 -0.4556
  567MOL0     C76466   7.976   5.741   0.621 -0.2035 -0.5474  0.4444
  567MOL0     C76467   8.092   5.807   0.662  0.5423  0.3064 -0.3460
  567MOL0     C76468   8.124   5.932   0.615  0.1578 -0.5888 -0.4452
  567MOL0     O76469   8.256   5.990   0.627 -0.0454 -0.5507  0.2066
  567MOL0     C76470   8.337   5.953   0.743  0.5880  0.1324 -0.7250
  567MOL0     C76471   8.430   5.843   0.694  0.8916  0.7393 -0.1723
  567MOL0     C76472   8.529   5.788   0.801 -0.6407 -0.1121 -0.2386
  567MOL0     C76473   8.639   5.890   0.829  0.2716  1.1364  0.0922
  567MOL0     C76474   8.699   5.953   0.711 -0.1076 -0.1601 -0.5486
  567MOL0     C76475   8.757   6.000   0.614  0.0705 -0.2025 -0.2025
  567MOL0     C76476   8.032   5.990   0.526  0.0749 -0.0095 -0.2223
  567MOL0     C76477   7.910   5.937   0.490 -0.4142 -0.4735 -0.0565
  567MOL0     H76478   7.583   5.700   0.192  0.1056  2.6816 -1.5052
  567MOL0     H76479   7.348   5.602   0.170 -1.8706 -0.6423 -0.0864
  567MOL0     H76480   7.117   5.782   0.179  0.2202  0.6283  2.3197
  567MOL0     H76481   7.113   5.620   0.131 -0.1377 -1.2096  1.0097
  567MOL0     H76482   6.909   5.753   0.309 -0.1947 -0.0849  0.2958
  567MOL0     H76483   6.887   5.740   0.135 -2.5539 -0.8282  0.9235
  567MOL0     H76484   6.873   5.497   0.172 -0.5412 -2.6146  1.2145
  567MOL0     H76485   6.915   5.513   0.337  0.6671  0.7564  0.9688
  567MOL0     H76486   6.703   5.660   0.377 -0.4528  0.6828 -1.2885
  567MOL0     H76487   6.669   5.640   0.201  2.0419 -0.0910 -2.2607
  567MOL0     H76488   6.656   5.389   0.231 -1.3379 -0.9971  1.2359
  567MOL0     H76489   6.669   5.416   0.406  1.5643  0.7080  0.8061
  567MOL0     H76490   6.476   5.550   0.384  2.7438  1.8163 -1.1861
  567MOL0     H76491   6.465   5.515   0.207 -0.2909 -1.8142 -0.7052
  567MOL0     H76492   6.436   5.279   0.253 -1.7479 -0.5578  0.5191
  567MOL0     H76493   6.446   5.290   0.422  1.0990 -2.1461 -1.1163
  567MOL0     H76494   6.217   5.273   0.310 -0.7784 -0.0293 -3.2315
  567MOL0     H76495   6.236   5.430   0.232 -2.5076  1.4101  1.6673
  567MOL0     H76496   6.051   5.565   0.333 -1.8527  0.2451  1.1885
  567MOL0     H76497   6.061   5.774   0.637  0.4948  2.3750 -2.8844
  567MOL0     H76498   5.995   5.748   0.473 -2.3977 -1.9572 -0.2948
  567MOL0     H76499   5.870   5.606   0.708  1.9335 -0.7595 -0.1100
  567MOL0     H76500   5.810   5.619   0.538  1.3532  1.0935 -1.7846
  567MOL0     H76501   5.785   5.864   0.556  0.1712 -1.5946 -1.3339
  567MOL0     H76502   5.840   5.854   0.728  2.8550 -1.3273 -0.9892
  567MOL0     H76503   5.588   5.893   0.673  0.1844  1.0805 -1.7552
  567MOL0     H76504   5.613   5.738   0.766 -0.7322  2.5681  0.8198
  567MOL0     H76505   5.360   5.849   0.622 -0.0707 -0.8228 -1.7082
  567MOL0     H76506   5.098   5.732   0.845  0.2580  0.9226  1.8445
  567MOL0     H76507   5.194   5.875   0.804 -0.3630  0.5711 -0.6774
  567MOL0     H76508   5.067   5.833   0.699 -0.6962  0.4708  1.3380
  567MOL0     H76509   4.982   5.504   1.005  1.0302  0.3001 -0.1099
  567MOL0     H76510   4.775   5.399   1.113 -0.8671  0.9073 -0.4736
  567MOL0     H76511   4.590   5.345   1.117  1.1253 -0.4395 -1.4542
  567MOL0     H76512   4.488   5.211   1.154  0.2281  0.2617  0.2339
  567MOL0     H76513   4.610   5.126   1.327 -0.4354  0.4082  0.7543
  567MOL0     H76514   4.741   5.234   1.296  0.0266  0.0682 -0.2901
  567MOL0     H76515   4.540   5.433   1.341 -0.2673  0.1223 -3.2198
  567MOL0     H76516   4.624   5.351   1.476  0.2464 -0.5259 -1.3110
  567MOL0     H76517   4.367   5.249   1.348 -2.9358 -1.2056  0.1451
  567MOL0     H76518   4.421   5.199   1.511 -1.6772  3.2624  2.4999
  567MOL0     H76519   4.360   5.483   1.467 -0.5076 -0.3967  1.3332
  567MOL0     H76520   4.403   5.397   1.620 -3.5409  0.3126  2.0893
  567MOL0     H76521   4.154   5.475   1.555  1.7807  0.4051  0.3912
  567MOL0     H76522   4.164   5.345   1.438  1.2476 -3.0580  0.2430
  567MOL0     H76523   4.193   5.323   1.737  1.6413 -0.8983 -0.5822
  567MOL0     H76524   4.193   5.180   1.624  0.5743  0.4777  0.3738
  567MOL0     H76525   3.956   5.372   1.646 -0.1762  0.4143  1.4310
  567MOL0     H76526   3.963   5.212   1.724  1.2100  0.5629  0.3464
  567MOL0     H76527   4.835   5.045   0.889 -1.9735  0.8082 -0.8391
  567MOL0     H76528   5.025   5.158   0.767 -1.7149  0.1196 -1.2083
  567MOL0     H76529   5.321   5.348   0.628  0.2035  0.0404  0.9945
  567MOL0     H76530   5.528   5.469   0.569 -2.3586 -0.7993  0.9775
  567MOL0     H76531   7.262   5.758   0.562 -1.8922 -2.1719 -0.9261
  567MOL0     H76532   7.486   5.843   0.584  0.3182 -0.1118  0.7422
  567MOL0     H76533   7.952   5.648   0.670 -0.0958  1.5148  4.8574
  567MOL0     H76534   8.160   5.742   0.716  0.9384  0.9535 -0.0463
  567MOL0     H76535   8.398   6.039   0.769  1.1110  0.3831 -2.5786
  567MOL0     H76536   8.279   5.915   0.828  1.3499  0.5219 -0.0230
  567MOL0     H76537   8.475   5.883   0.602 -1.9811  1.8525 -1.2115
  567MOL0     H76538   8.376   5.755   0.659  0.6147 -1.1589  4.3718
  567MOL0     H76539   8.577   5.700   0.757  0.6348  0.2567  0.3862
  567MOL0     H76540   8.493   5.756   0.900  1.4395  0.8484  0.8817
  567MOL0     H76541   8.716   5.843   0.890 -0.3976  0.7752  0.6806
  567MOL0     H76542   8.598   5.972   0.888 -0.3412  2.2888 -1.8348
  567MOL0     H76543   8.826   6.031   0.538  1.2509 -1.1675  0.4327
  567MOL0     H76544   8.059   6.085   0.480 -2.0656  0.9863  0.4302
  567MOL0     H76545   7.841   5.995   0.429  0.4584 -0.9645 -1.5471
  568MOL0     O76546   1.416   7.160   4.234 -0.1773  0.0914 -0.9835
  568MOL0     C76547   1.436   7.218   4.341  0.6456 -0.5317 -0.8386
  568MOL0     O76548   1.341   7.260   4.427  0.4800  1.1011  0.1439
  568MOL0     C76549   1.202   7.259   4.390  0.5606 -0.1701  1.0799
  568MOL0     C76550   1.111   7.197   4.478  0.4862 -0.5376 -0.3562
  568MOL0     C76551   0.976   7.192   4.445  0.3441 -0.3958 -0.6706
  568MOL0     C76552   0.926   7.262   4.327  0.1032  0.8596  0.8270
  568MOL0     O76553   0.799   7.246   4.276 -0.2052 -0.6010 -0.4812
  568MOL0     C76554   0.697   7.222   4.378  0.0061  0.2296  0.7366
  568MOL0     C76555   0.563   7.235   4.304 -0.1211 -0.0567 -0.1198
  568MOL0     C76556   0.546   7.381   4.250  0.6367  0.1322 -1.5593
  568MOL0     C76557   0.445   7.393   4.142 -0.2141  0.7021 -0.3194
  568MOL0     C76558   0.435   7.529   4.077  0.8935 -1.1460 -0.1381
  568MOL0     C76559   0.355   7.620   4.166 -0.0076  0.1480 -1.5033
  568MOL0     C76560   0.346   7.764   4.113 -0.4972 -0.0434 -0.5110
  568MOL0     C76561   0.259   7.843   4.209  0.3944 -0.7797  0.3867
  568MOL0     N76562   0.120   7.792   4.209 -0.4197 -0.4654  0.0927
  568MOL0     C76563   0.039   7.734   4.307 -0.2135 -0.2732  0.5115
  568MOL0     C76564  -0.085   7.736   4.244 -0.8178 -1.0088 -0.3425
  568MOL0     C76565  -0.195   7.674   4.321  0.4127  0.1973  0.4220
  568MOL0     C76566  -0.277   7.762   4.413  0.2927  0.3275  0.4562
  568MOL0     C76567  -0.303   7.899   4.358  0.0565  0.1163  0.7336
  568MOL0     C76568  -0.372   7.982   4.459 -0.6454 -0.3487  0.5928
  568MOL0     O76569  -0.499   7.939   4.495  0.0853  0.0037  0.1526
  568MOL0     C76570  -0.610   7.979   4.417  1.3162  0.2359 -1.2048
  568MOL0     C76571  -0.606   8.058   4.304  0.7377 -0.1000 -0.2493
  568MOL0     C76572  -0.718   8.093   4.227  0.3752 -0.0837  0.2352
  568MOL0     C76573  -0.683   8.175   4.105 -0.2683  0.0298 -0.7027
  568MOL0     C76574  -0.845   8.053   4.268  0.9746 -0.2333 -0.6083
  568MOL0     C76575  -0.979   8.099   4.205  0.4949  0.3780  0.1713
  568MOL0     O76576  -0.979   8.163   4.089  0.0873  0.4867 -0.3565
  568MOL0     C76577  -1.098   8.212   4.031  0.4365  0.3761 -0.3713
  568MOL0     C76578  -1.111   8.356   4.011 -0.2741 -0.8122 -0.7077
  568MOL0     C76579  -1.230   8.405   3.954 -0.5131 -1.1035 -0.3950
  568MOL0     C76580  -1.337   8.326   3.916 -0.2835 -0.8158  0.5967
  568MOL0     O76581  -1.451   8.384   3.842 -0.2565  0.1443  0.1560
  568MOL0     C76582  -1.572   8.309   3.813 -0.5326  0.0308  0.2910
  568MOL0     C76583  -1.672   8.403   3.732 -0.2554 -0.0796  0.1431
  568MOL0     C76584  -1.820   8.374   3.768  0.6672 -1.4511  0.7279
  568MOL0     C76585  -1.866   8.249   3.709 -0.0550 -0.0633  0.4816
  568MOL0     C76586  -2.009   8.196   3.728  0.0096 -0.1346 -0.6611
  568MOL0     C76587  -2.110   8.248   3.623 -0.6663  0.3750  0.4065
  568MOL0     C76588  -2.254   8.180   3.636 -0.0825 -0.2450 -0.4966
  568MOL0     C76589  -2.357   8.257   3.555  0.3316  0.7457 -0.2535
  568MOL0    Cl76590  -2.514   8.190   3.603 -0.1172 -0.1012 -0.2500
  568MOL0     C76591  -1.327   8.185   3.940  0.2370  0.0370  1.1124
  568MOL0     C76592  -1.202   8.125   3.989 -0.1185  0.4922 -0.2946
  568MOL0     O76593  -1.081   8.068   4.265 -0.0326  0.4300 -0.6085
  568MOL0     C76594  -0.842   7.973   4.386  0.4737 -0.1279  0.3028
  568MOL0     C76595  -0.731   7.932   4.467 -0.6685 -0.1550 -0.3790
  568MOL0     N76596  -0.077   7.791   4.114  0.6766 -0.3725 -0.2244
  568MOL0     N76597   0.042   7.828   4.098 -0.5589 -0.9828 -0.1381
  568MOL0     C76598   1.020   7.329   4.240 -0.2229 -0.0545  0.4753
  568MOL0     C76599   1.156   7.331   4.276 -0.1386  0.4111 -0.3198
  568MOL0     C76600   1.575   7.263   4.367  0.2574 -0.3505  0.8208
  568MOL0     C76601   1.604   7.324   4.497  0.0047 -0.4523 -0.4222
  568MOL0     C76602   1.732   7.363   4.526 -0.1533 -0.0827 -0.5258
  568MOL0     C76603   1.834   7.339   4.437 -0.5098 -0.3369  0.6666
  568MOL0     O76604   1.958   7.375   4.480  0.7789  0.3717 -0.6799
  568MOL0     C76605   2.048   7.436   4.381 -0.2304 -0.2992 -0.2019
  568MOL0     C76606   2.117   7.552   4.456  0.4131 -0.2974 -0.6927
  568MOL0     C76607   2.194   7.647   4.359  0.0415 -0.3526 -0.0954
  568MOL0     C76608   2.112   7.766   4.321  0.5152  0.6707  0.3463
  568MOL0     C76609   2.109   7.866   4.428  0.4188 -0.0111  0.2938
  568MOL0     C76610   2.107   7.958   4.506  0.3049 -0.7263  0.8192
  568MOL0     C76611   1.811   7.284   4.309  0.2678  0.4317  0.5665
  568MOL0     C76612   1.676   7.244   4.280  0.1291  0.2621 -0.0345
  568MOL0     H76613   1.153   7.147   4.566 -1.3849  1.6410  1.9259
  568MOL0     H76614   0.903   7.139   4.506 -0.0860  2.6742  1.7527
  568MOL0     H76615   0.693   7.120   4.418 -2.2397 -1.3427 -2.9567
  568MOL0     H76616   0.692   7.303   4.451 -2.3333  1.0901 -0.2689
  568MOL0     H76617   0.564   7.162   4.223 -3.8616 -0.7135  0.2654
  568MOL0     H76618   0.474   7.210   4.361 -1.7608 -0.6860 -2.7673
  568MOL0     H76619   0.532   7.453   4.331  0.0911 -0.5232 -1.0652
  568MOL0     H76620   0.642   7.418   4.212  1.6741  1.9514  2.3536
  568MOL0     H76621   0.469   7.312   4.072 -0.4129 -0.8530  1.3497
  568MOL0     H76622   0.349   7.370   4.188 -0.0050  2.6037  1.2042
  568MOL0     H76623   0.533   7.572   4.055  0.6008  0.4634  1.5485
  568MOL0     H76624   0.385   7.515   3.980  3.0755  1.9518 -1.8856
  568MOL0     H76625   0.259   7.569   4.178  1.0628 -1.3937  1.7413
  568MOL0     H76626   0.402   7.627   4.265  0.3562 -1.4042 -1.5350
  568MOL0     H76627   0.445   7.812   4.111 -0.9322  0.9536  0.7566
  568MOL0     H76628   0.308   7.768   4.010  0.6083 -1.6597 -1.0210
  568MOL0     H76629   0.257   7.946   4.172 -0.8779 -1.0265 -0.3032
  568MOL0     H76630   0.301   7.844   4.310  2.7184 -1.0370 -0.5177
  568MOL0     H76631   0.062   7.701   4.407  1.3133  2.9767  1.3718
  568MOL0     H76632  -0.253   7.646   4.232  3.1228 -0.9375 -1.1187
  568MOL0     H76633  -0.179   7.580   4.374 -1.6966 -0.7216 -0.4791
  568MOL0     H76634  -0.243   7.754   4.516  0.6593  1.0398  0.4029
  568MOL0     H76635  -0.375   7.715   4.419  0.8364 -0.8549  0.2460
  568MOL0     H76636  -0.371   7.887   4.274 -1.7683 -0.1402  2.1823
  568MOL0     H76637  -0.215   7.955   4.324  0.5511 -0.6024  0.8055
  568MOL0     H76638  -0.364   8.085   4.423  1.5248 -0.6168  0.1199
  568MOL0     H76639  -0.310   7.981   4.549  0.0519  2.9616  0.2845
  568MOL0     H76640  -0.513   8.090   4.259  0.3573 -0.8498 -1.6023
  568MOL0     H76641  -0.582   8.215   4.103 -1.5838  3.6910 -0.7689
  568MOL0     H76642  -0.712   8.132   4.009 -1.2198  1.4341 -1.0707
  568MOL0     H76643  -0.738   8.270   4.102 -2.3968 -1.0925  0.1533
  568MOL0     H76644  -1.031   8.424   4.040 -1.7632  2.5861 -3.8427
  568MOL0     H76645  -1.246   8.512   3.939 -0.1665 -0.9789  0.0933
  568MOL0     H76646  -1.547   8.228   3.744  2.8563  1.2856 -0.1342
  568MOL0     H76647  -1.616   8.278   3.908  1.0999  1.8902  1.7364
  568MOL0     H76648  -1.642   8.506   3.753  0.1349 -0.3930  1.2242
  568MOL0     H76649  -1.666   8.380   3.625  0.9196  0.1920  0.1370
  568MOL0     H76650  -1.871   8.458   3.719 -1.1923 -2.8722  0.1228
  568MOL0     H76651  -1.842   8.386   3.874  0.0878  2.3723  0.3361
  568MOL0     H76652  -1.841   8.242   3.602  0.3289 -2.4203  0.6854
  568MOL0     H76653  -1.801   8.177   3.758 -1.2409 -2.7119 -1.5522
  568MOL0     H76654  -2.054   8.240   3.818 -2.0037 -0.4883 -1.4389
  568MOL0     H76655  -2.003   8.087   3.730 -2.1214 -0.2872 -0.1926
  568MOL0     H76656  -2.118   8.356   3.640 -0.9585  0.5520 -0.7681
  568MOL0     H76657  -2.069   8.235   3.522  1.4124  0.6556  1.1687
  568MOL0     H76658  -2.284   8.178   3.741 -5.0052  0.2735 -1.6445
  568MOL0     H76659  -2.244   8.078   3.596 -3.3251 -0.0211 -2.3177
  568MOL0     H76660  -2.349   8.242   3.447 -0.0116 -1.7244  0.0060
  568MOL0     H76661  -2.355   8.364   3.576 -0.1454  0.2128  3.1047
  568MOL0     H76662  -1.407   8.116   3.916 -0.4794  1.0157  0.6387
  568MOL0     H76663  -1.182   8.019   3.989  5.6085  1.1869 -2.8812
  568MOL0     H76664  -0.943   7.943   4.411 -0.8867  1.3557 -2.8778
  568MOL0     H76665  -0.726   7.876   4.560 -1.7269  0.8069  0.2892
  568MOL0     H76666   0.993   7.368   4.143  1.9018  3.9866  1.3119
  568MOL0     H76667   1.227   7.387   4.216 -1.6637  1.2810 -1.3985
  568MOL0     H76668   1.519   7.337   4.563 -0.0399  1.1991 -0.7665
  568MOL0     H76669   1.751   7.401   4.626 -0.5094  0.6459 -0.7304
  568MOL0     H76670   2.119   7.365   4.337 -1.7105 -1.9259 -0.0899
  568MOL0     H76671   1.993   7.470   4.293  0.2858 -2.0599 -1.2752
  568MOL0     H76672   2.177   7.505   4.534  0.7942 -1.1257 -1.4578
  568MOL0     H76673   2.036   7.607   4.506  0.2760 -0.0262 -1.2002
  568MOL0     H76674   2.216   7.587   4.270  1.1559 -0.6374  0.3567
  568MOL0     H76675   2.286   7.693   4.394  0.1795 -0.2993 -0.5216
  568MOL0     H76676   2.012   7.736   4.290  0.5698  0.5999  0.2401
  568MOL0     H76677   2.168   7.798   4.233  1.1023  1.2864  0.9299
  568MOL0     H76678   2.116   8.048   4.563 -0.2331 -1.0041  1.3559
  568MOL0     H76679   1.900   7.256   4.252 -0.3584  3.8805 -2.5053
  568MOL0     H76680   1.654   7.195   4.186  1.4507 -0.6693  0.1097
  569MOL0     O76681   6.232   1.750   4.039 -0.0731  0.0049  0.1971
  569MOL0     C76682   6.299   1.649   4.039  0.0111 -0.1488  0.4108
  569MOL0     O76683   6.323   1.568   4.142  0.1695 -0.2093 -0.1685
  569MOL0     C76684   6.251   1.594   4.251 -0.2145 -0.1074 -0.5382
  569MOL0     C76685   6.114   1.609   4.256 -0.6477 -0.3607 -0.5170
  569MOL0     C76686   6.049   1.650   4.376 -0.1027  0.3799  0.0158
  569MOL0     C76687   6.117   1.656   4.495 -0.1577 -0.7757 -0.0124
  569MOL0     O76688   6.059   1.679   4.622 -0.3849 -0.4384 -0.0437
  569MOL0     C76689   5.916   1.652   4.643  0.1529  0.6338 -0.4313
  569MOL0     C76690   5.818   1.773   4.618 -0.1111  0.5095 -0.5700
  569MOL0     C76691   5.663   1.718   4.617  1.3478 -0.5936  0.3024
  569MOL0     C76692   5.619   1.631   4.501  0.3077  0.8267 -0.0789
  569MOL0     C76693   5.501   1.541   4.537 -0.1944 -1.0790 -1.0617
  569MOL0     C76694   5.381   1.627   4.589  0.2051  0.0210 -0.2312
  569MOL0     C76695   5.243   1.562   4.553 -0.4122 -0.1946  0.2547
  569MOL0     C76696   5.215   1.432   4.621  0.0405 -0.1577  0.6393
  569MOL0     N76697   5.074   1.394   4.603 -0.3999  0.0887 -0.5145
  569MOL0     C76698   4.980   1.450   4.683  0.2301  0.4572  0.4509
  569MOL0     C76699   4.866   1.370   4.666  0.3304 -0.0488 -1.2440
  569MOL0     C76700   4.737   1.394   4.748 -0.9705  0.2577  0.4413
  569MOL0     C76701   4.755   1.342   4.887  0.7238 -0.0858 -0.4673
  569MOL0     C76702   4.613   1.367   4.951 -0.9935  0.0793  0.1884
  569MOL0     C76703   4.501   1.273   4.919  0.1425  0.1544  0.3284
  569MOL0     O76704   4.389   1.323   4.993  0.2323  0.2219 -0.3388
  569MOL0     C76705   4.264   1.272   4.955  0.1703 -0.0747 -0.0758
  569MOL0     C76706   4.142   1.307   5.019 -0.1286  0.0642 -0.3792
  569MOL0     C76707   4.018   1.227   5.004 -0.4051  0.2695 -0.4158
  569MOL0     C76708   3.913   1.251   5.111  0.2994 -1.0722 -0.2910
  569MOL0     C76709   4.018   1.135   4.900 -0.5850  0.4277  0.6796
  569MOL0     C76710   3.900   1.058   4.873  0.1232 -0.2703 -1.4677
  569MOL0     O76711   3.785   1.117   4.898  0.1651  0.1590 -0.5044
  569MOL0     C76712   3.677   1.038   4.909  0.0984  0.3980 -0.8982
  569MOL0     C76713   3.558   1.079   4.841 -0.0447 -0.2687 -0.8596
  569MOL0     C76714   3.439   1.003   4.843  0.3733  0.2846 -0.2124
  569MOL0     C76715   3.432   0.892   4.927 -1.0126  0.5276  0.2596
  569MOL0     O76716   3.320   0.818   4.941  1.2069  0.2950  0.7297
  569MOL0     C76717   3.325   0.679   4.974  0.0098  0.8046  0.1786
  569MOL0     C76718   3.210   0.605   4.913 -0.1800 -0.0926 -1.0204
  569MOL0     C76719   3.076   0.673   4.932  0.0743 -0.7305  0.3733
  569MOL0     C76720   2.968   0.626   4.832 -0.6871 -0.5389 -0.2501
  569MOL0     C76721   2.830   0.702   4.838  0.7903 -0.1763 -0.5043
  569MOL0     C76722   2.765   0.704   4.977  0.0991 -0.7869 -0.6661
  569MOL0     C76723   2.613   0.726   4.960 -0.3425 -0.4166 -0.4537
  569MOL0     C76724   2.545   0.658   5.079 -0.6095 -0.4068 -0.2288
  569MOL0    Cl76725   2.608   0.740   5.229 -0.2327 -0.2391 -0.0348
  569MOL0     C76726   3.549   0.855   5.000  1.0912 -0.6770 -0.2675
  569MOL0     C76727   3.671   0.920   4.987  0.0842 -0.5827  0.5267
  569MOL0     O76728   3.910   0.955   4.816  0.0623  0.0262 -0.7083
  569MOL0     C76729   4.131   1.115   4.823 -0.3605  0.0414 -0.5791
  569MOL0     C76730   4.250   1.175   4.853  1.3181 -0.5301  0.7819
  569MOL0     N76731   4.898   1.271   4.566  0.6790 -0.4455 -0.2371
  569MOL0     N76732   5.021   1.290   4.532  0.8873 -0.1360  0.2859
  569MOL0     C76733   6.255   1.636   4.491 -0.6202 -0.4072  1.2435
  569MOL0     C76734   6.327   1.610   4.370 -0.0568 -0.6912  0.4625
  569MOL0     C76735   6.386   1.625   3.923  0.8582 -0.2573 -0.0958
  569MOL0     C76736   6.367   1.705   3.802 -0.0999  0.1149 -0.6774
  569MOL0     C76737   6.438   1.677   3.684  0.1496 -0.4230 -0.2585
  569MOL0     C76738   6.532   1.577   3.680  0.1389 -0.4128 -0.9199
  569MOL0     O76739   6.615   1.581   3.572  0.8160 -0.0617 -0.2988
  569MOL0     C76740   6.748   1.528   3.592  0.5094  0.2270  0.2299
  569MOL0     C76741   6.815   1.546   3.456 -0.8739  0.8234  0.0119
  569MOL0     C76742   6.957   1.492   3.448  0.0478  0.6040  0.3386
  569MOL0     C76743   7.022   1.517   3.313  1.1589 -0.2154  0.4829
  569MOL0     C76744   7.157   1.465   3.304  0.9657 -0.9160 -0.1651
  569MOL0     C76745   7.261   1.420   3.294 -0.2403  0.0229  0.2959
  569MOL0     C76746   6.545   1.488   3.791  0.3863  0.7067  0.6119
  569MOL0     C76747   6.472   1.516   3.906 -0.6751 -0.0503  0.5085
  569MOL0     H76748   6.057   1.593   4.165 -0.9251  2.0933 -0.8354
  569MOL0     H76749   5.942   1.661   4.393 -0.0633  0.1259  0.4609
  569MOL0     H76750   5.876   1.571   4.581 -2.8837 -0.5160  2.6627
  569MOL0     H76751   5.899   1.616   4.745  0.4430 -0.8565 -0.8762
  569MOL0     H76752   5.825   1.851   4.694  1.3958  1.9857 -2.1464
  569MOL0     H76753   5.845   1.824   4.525 -1.5900  1.5175 -0.4798
  569MOL0     H76754   5.632   1.663   4.706 -2.7810 -0.2506 -0.7317
  569MOL0     H76755   5.596   1.804   4.620  1.5747 -0.3574 -1.0486
  569MOL0     H76756   5.591   1.692   4.414 -1.5041 -0.2133 -0.2736
  569MOL0     H76757   5.695   1.560   4.467 -0.5958 -0.6095  0.8129
  569MOL0     H76758   5.455   1.488   4.453 -2.7276 -0.0499 -0.3881
  569MOL0     H76759   5.528   1.474   4.619  1.0104 -0.7658 -1.1796
  569MOL0     H76760   5.385   1.632   4.698  0.0396 -0.8375 -0.1736
  569MOL0     H76761   5.382   1.723   4.537 -1.6840 -1.2808 -2.9516
  569MOL0     H76762   5.163   1.632   4.578 -1.2361 -1.4249  1.1889
  569MOL0     H76763   5.237   1.545   4.445  0.3992 -0.2403  0.2052
  569MOL0     H76764   5.237   1.436   4.728  1.0658  0.8816  0.4191
  569MOL0     H76765   5.268   1.348   4.576 -0.6512 -0.7739  0.9676
  569MOL0     H76766   4.993   1.523   4.762 -1.0022 -3.6075  4.9077
  569MOL0     H76767   4.726   1.503   4.743  1.0820  0.4565 -1.4242
  569MOL0     H76768   4.659   1.339   4.695  1.2754  1.0952 -4.2283
  569MOL0     H76769   4.826   1.397   4.949  0.1464  1.0825 -0.8168
  569MOL0     H76770   4.778   1.235   4.891  1.8717  0.1329  3.9239
  569MOL0     H76771   4.571   1.467   4.938  0.5650  1.2565  3.0939
  569MOL0     H76772   4.642   1.357   5.056  1.5112 -1.6400 -0.5737
  569MOL0     H76773   4.527   1.170   4.946  1.7057  0.9951  2.2429
  569MOL0     H76774   4.485   1.269   4.810  0.3605 -1.3163  0.3242
  569MOL0     H76775   4.156   1.375   5.101 -1.6125 -1.3010  1.0789
  569MOL0     H76776   3.846   1.325   5.066  0.0039 -0.5847  0.9088
  569MOL0     H76777   3.862   1.164   5.153 -2.1338  1.1126  1.6339
  569MOL0     H76778   3.950   1.308   5.197  0.8216  0.7717 -1.6548
  569MOL0     H76779   3.567   1.166   4.776 -3.1155  1.8179  1.2240
  569MOL0     H76780   3.349   1.037   4.793  0.0134  4.2968  2.6699
  569MOL0     H76781   3.420   0.640   4.937 -0.0835  0.4288  0.3343
  569MOL0     H76782   3.324   0.653   5.080  0.8621 -0.8355 -0.1809
  569MOL0     H76783   3.226   0.594   4.805 -0.2600  0.4673 -1.0923
  569MOL0     H76784   3.209   0.505   4.956 -1.4136  1.1237  2.0958
  569MOL0     H76785   3.087   0.781   4.915 -3.4762 -0.3534 -0.2859
  569MOL0     H76786   3.031   0.666   5.031 -0.4114  1.8289  0.4173
  569MOL0     H76787   3.017   0.634   4.735  0.1656  0.2655  0.2285
  569MOL0     H76788   2.950   0.520   4.854  0.6801 -0.5387  0.9969
  569MOL0     H76789   2.762   0.659   4.764 -1.2079 -1.4693  1.9342
  569MOL0     H76790   2.835   0.808   4.810 -0.8072 -0.2986 -1.3766
  569MOL0     H76791   2.782   0.604   5.019 -0.3414 -0.9486 -0.8674
  569MOL0     H76792   2.810   0.784   5.036 -0.2648  1.6147 -3.4111
  569MOL0     H76793   2.582   0.666   4.874 -0.5714  0.9590 -1.3712
  569MOL0     H76794   2.608   0.834   4.944  2.4252 -0.0755  0.4781
  569MOL0     H76795   2.566   0.551   5.080 -0.6656 -0.4720  2.7832
  569MOL0     H76796   2.436   0.665   5.081 -0.7403 -2.0785  1.9682
  569MOL0     H76797   3.541   0.772   5.070 -1.3081  0.3106  0.7258
  569MOL0     H76798   3.755   0.888   5.049  0.2899 -1.0654  0.0022
  569MOL0     H76799   4.137   1.050   4.736  2.3611  0.2380 -0.6299
  569MOL0     H76800   4.333   1.137   4.796  0.8586  0.5044 -0.6542
  569MOL0     H76801   6.311   1.644   4.584  1.4222 -0.3369  0.0712
  569MOL0     H76802   6.435   1.605   4.374  0.2820  2.0753 -2.2377
  569MOL0     H76803   6.290   1.782   3.807 -1.7318 -1.5441  1.1227
  569MOL0     H76804   6.413   1.739   3.598 -1.3687 -1.7576 -0.8246
  569MOL0     H76805   6.802   1.582   3.671  1.1953 -0.9299  0.5650
  569MOL0     H76806   6.738   1.424   3.622 -1.7305  0.7796  1.6466
  569MOL0     H76807   6.823   1.652   3.429 -0.6262  0.4175 -1.5829
  569MOL0     H76808   6.763   1.486   3.381  0.9171 -0.2012 -0.4456
  569MOL0     H76809   6.940   1.385   3.464  2.3499 -0.3520 -2.7596
  569MOL0     H76810   7.014   1.531   3.533 -0.9568  0.8880  0.9005
  569MOL0     H76811   7.028   1.627   3.308 -1.8832 -0.0133 -2.0296
  569MOL0     H76812   6.971   1.480   3.224 -0.0286  4.3271 -1.0314
  569MOL0     H76813   7.362   1.393   3.271 -0.3619  0.2387 -0.5230
  569MOL0     H76814   6.610   1.403   3.777  0.5037  1.0490 -1.2756
  569MOL0     H76815   6.473   1.444   3.987 -1.1450 -1.1626 -0.4419
  570MOL0     O76816   4.631  10.870   6.130  0.7109  0.1771 -0.4922
  570MOL0     C76817   4.640  10.831   6.012 -0.5380  0.4413 -0.0169
  570MOL0     O76818   4.537  10.797   5.926 -0.1018  0.6836  0.5080
  570MOL0     C76819   4.417  10.856   5.945  0.8632  0.9768  0.6967
  570MOL0     C76820   4.405  10.978   6.006 -0.1356 -0.8722 -0.5216
  570MOL0     C76821   4.282  11.049   6.022 -0.3709 -0.3330  0.3786
  570MOL0     C76822   4.167  10.991   5.971 -0.1696  0.2984  0.2039
  570MOL0     O76823   4.057  11.070   5.979  0.5617  0.1330 -0.0390
  570MOL0     C76824   3.930  11.008   5.948  0.5493  0.3686  0.7530
  570MOL0     C76825   3.828  11.106   6.001  0.0147 -0.9981  0.5489
  570MOL0     C76826   3.697  11.035   6.007  0.3276 -0.1246 -0.3605
  570MOL0     C76827   3.583  11.134   6.012 -0.6241 -0.2946 -0.5360
  570MOL0     C76828   3.453  11.060   5.978  0.2631 -0.1529 -0.5222
  570MOL0     C76829   3.422  10.942   6.077 -0.1302 -0.0004  0.2535
  570MOL0     C76830   3.299  10.866   6.030 -1.0555 -0.1111 -0.3238
  570MOL0     C76831   3.174  10.951   6.017 -0.1773 -0.1008 -0.1431
  570MOL0     N76832   3.054  10.879   6.073  0.6754 -0.7408 -0.3240
  570MOL0     C76833   2.941  10.837   6.004  0.4341 -0.0489  0.2608
  570MOL0     C76834   2.864  10.776   6.097  0.8061  1.2724 -0.2251
  570MOL0     C76835   2.727  10.715   6.087 -0.2183  0.3225 -0.5092
  570MOL0     C76836   2.717  10.586   6.002 -0.2022 -0.6564 -0.0316
  570MOL0     C76837   2.590  10.510   6.028 -0.5088 -0.2167  0.0911
  570MOL0     C76838   2.573  10.393   5.932  0.8039 -0.8315  0.9244
  570MOL0     O76839   2.438  10.344   5.948 -0.3780  0.5511  0.5062
  570MOL0     C76840   2.331  10.383   5.864  0.0770 -0.0383 -0.6165
  570MOL0     C76841   2.218  10.307   5.861  0.3289 -0.0975  0.8117
  570MOL0     C76842   2.107  10.348   5.783  0.4234  0.0393 -0.2008
  570MOL0     C76843   1.976  10.270   5.802 -0.4264 -0.2380  0.5044
  570MOL0     C76844   2.128  10.450   5.687  0.1729 -1.1212 -0.0822
  570MOL0     C76845   2.034  10.468   5.579  0.2924  0.4765  0.2332
  570MOL0     O76846   1.935  10.373   5.548 -0.0721 -0.1279 -0.8148
  570MOL0     C76847   1.870  10.376   5.433  0.4471  1.1859  0.7539
  570MOL0     C76848   1.730  10.393   5.441  0.4139  0.4780  0.8015
  570MOL0     C76849   1.655  10.393   5.330  0.7217  0.0286 -0.6195
  570MOL0     C76850   1.716  10.394   5.198 -0.7065 -0.2350  0.4661
  570MOL0     O76851   1.642  10.407   5.087 -0.2977 -0.0708  0.1949
  570MOL0     C76852   1.662  10.311   4.989  0.0947  0.1672  0.1519
  570MOL0     C76853   1.540  10.213   4.990  0.0759  0.6279  0.0233
  570MOL0     C76854   1.440  10.254   4.878  0.4033  0.6194 -0.6111
  570MOL0     C76855   1.342  10.141   4.856  0.4344  0.1961 -0.1866
  570MOL0     C76856   1.222  10.146   4.956  0.3586  0.2445  1.1663
  570MOL0     C76857   1.113  10.038   4.906 -0.0585 -0.6905  0.2326
  570MOL0     C76858   0.976  10.028   4.992  0.3445  0.3467  0.6996
  570MOL0     C76859   0.875  10.146   4.966  0.4383  0.2052  0.3651
  570MOL0    Cl76860   0.746  10.099   4.847  0.1837 -0.1882  0.1530
  570MOL0     C76861   1.859  10.382   5.195 -0.8640 -0.5701 -0.0480
  570MOL0     C76862   1.935  10.372   5.311  0.5977  0.0104  0.2602
  570MOL0     O76863   2.047  10.572   5.519  1.2083 -0.6866  0.4505
  570MOL0     C76864   2.242  10.530   5.687 -0.2867  0.4711 -0.1471
  570MOL0     C76865   2.344  10.493   5.780  0.9064 -0.8426  0.0438
  570MOL0     N76866   2.936  10.781   6.217  0.7799  0.5726  0.2899
  570MOL0     N76867   3.053  10.826   6.202  0.1171 -0.7145  0.1323
  570MOL0     C76868   4.183  10.864   5.900 -0.2473  1.2715 -0.0245
  570MOL0     C76869   4.298  10.791   5.900 -0.9409 -0.6943 -0.0809
  570MOL0     C76870   4.776  10.798   5.978 -0.6340 -0.3635  0.2915
  570MOL0     C76871   4.881  10.798   6.077 -0.2927 -0.2377  0.5470
  570MOL0     C76872   5.004  10.747   6.054 -0.1923  0.1941 -0.4903
  570MOL0     C76873   5.040  10.714   5.920 -0.3983  0.3454 -0.1795
  570MOL0     O76874   5.172  10.683   5.886 -0.2120  0.0503  0.0387
  570MOL0     C76875   5.220  10.726   5.755 -0.3735 -0.2482  0.3947
  570MOL0     C76876   5.369  10.744   5.775  0.1815  0.2236 -0.2932
  570MOL0     C76877   5.448  10.802   5.654 -0.1963 -0.3010  0.4983
  570MOL0     C76878   5.598  10.786   5.655 -0.1990 -0.4386  0.3782
  570MOL0     C76879   5.656  10.660   5.700 -0.4024  0.0016 -0.4161
  570MOL0     C76880   5.694  10.552   5.733  0.1540  0.0858  0.1941
  570MOL0     C76881   4.944  10.716   5.820  0.2179 -0.4635  0.4241
  570MOL0     C76882   4.814  10.768   5.846  0.1153  0.1290  0.2210
  570MOL0     H76883   4.493  11.031   6.043  0.6526 -1.6846 -1.1780
  570MOL0     H76884   4.279  11.150   6.061 -0.0240 -0.0502 -0.3036
  570MOL0     H76885   3.920  10.998   5.840  1.2256 -3.0891  0.9194
  570MOL0     H76886   3.922  10.911   5.997 -2.0479 -0.8994 -1.8552
  570MOL0     H76887   3.845  11.156   6.096 -2.9954  1.3621  0.0008
  570MOL0     H76888   3.812  11.194   5.938 -0.0365 -0.2514  1.5854
  570MOL0     H76889   3.696  10.964   5.925  1.5781 -0.2169 -0.3231
  570MOL0     H76890   3.685  10.976   6.098  0.3664  0.4424  0.0178
  570MOL0     H76891   3.583  11.170   6.115  0.7451 -1.2168 -0.1931
  570MOL0     H76892   3.603  11.211   5.936 -1.7788 -0.6846 -1.2746
  570MOL0     H76893   3.376  11.138   5.987  1.1315  0.5520  1.3852
  570MOL0     H76894   3.462  11.020   5.877 -0.4379 -1.8507  0.0357
  570MOL0     H76895   3.508  10.877   6.092  1.5900  2.4495  1.8930
  570MOL0     H76896   3.406  10.974   6.180 -1.0082 -2.4893  0.9545
  570MOL0     H76897   3.319  10.815   5.935 -0.9012 -1.0514  0.1957
  570MOL0     H76898   3.281  10.789   6.106 -2.5828  1.7701  1.3256
  570MOL0     H76899   3.151  10.964   5.911 -0.6097 -3.5098 -0.5839
  570MOL0     H76900   3.183  11.046   6.070  2.9600 -0.4901  0.2013
  570MOL0     H76901   2.917  10.849   5.899  3.0569 -0.8815 -0.5124
  570MOL0     H76902   2.702  10.695   6.192  0.1170 -0.1310 -0.5161
  570MOL0     H76903   2.646  10.783   6.059 -2.0691 -1.4671  0.2520
  570MOL0     H76904   2.797  10.517   6.032 -1.1911 -1.7121  0.2329
  570MOL0     H76905   2.733  10.611   5.896  1.1054  0.5118  0.4040
  570MOL0     H76906   2.505  10.578   6.021  0.3860  0.9472  0.2382
  570MOL0     H76907   2.584  10.464   6.127 -1.3155 -2.4550 -0.9358
  570MOL0     H76908   2.648  10.320   5.964  2.4340  0.3031 -0.1212
  570MOL0     H76909   2.581  10.408   5.824 -0.7964 -0.4345  0.8406
  570MOL0     H76910   2.203  10.212   5.911 -1.7709 -0.7391 -0.8678
  570MOL0     H76911   1.977  10.206   5.891 -1.6368 -0.1464  0.5918
  570MOL0     H76912   1.893  10.340   5.789 -1.6819 -1.3355  2.2753
  570MOL0     H76913   1.969  10.201   5.717 -0.5484  1.1669 -0.6795
  570MOL0     H76914   1.677  10.391   5.536 -0.5839  2.2730  0.3389
  570MOL0     H76915   1.548  10.394   5.348  0.0912  0.8379 -3.8229
  570MOL0     H76916   1.661  10.361   4.892  0.8694  0.1154  0.1104
  570MOL0     H76917   1.754  10.253   5.001  0.1168  0.2810  0.5585
  570MOL0     H76918   1.573  10.110   4.975  1.9810  1.2517 -0.3307
  570MOL0     H76919   1.501  10.228   5.091 -0.9641 -1.0113 -0.0995
  570MOL0     H76920   1.490  10.278   4.784  1.3029  0.9545 -0.0513
  570MOL0     H76921   1.396  10.349   4.909  1.7942  0.3385  2.5420
  570MOL0     H76922   1.310  10.151   4.752  2.2095  1.1343 -0.6808
  570MOL0     H76923   1.377  10.038   4.871  0.8444  0.5340  1.3960
  570MOL0     H76924   1.176  10.246   4.954  1.9118  1.0233 -1.7605
  570MOL0     H76925   1.262  10.125   5.055 -0.5677  0.6669  1.6413
  570MOL0     H76926   1.095  10.058   4.800 -1.6476 -0.6213  0.4940
  570MOL0     H76927   1.166   9.943   4.918  1.2817 -0.0589 -0.5407
  570MOL0     H76928   1.007  10.038   5.096  0.9278 -0.7757  0.6503
  570MOL0     H76929   0.920   9.937   4.970  0.6798 -0.1604  1.8531
  570MOL0     H76930   0.934  10.235   4.942  3.1641 -1.4433  0.3851
  570MOL0     H76931   0.823  10.176   5.057  0.6317 -1.0757  0.9234
  570MOL0     H76932   1.907  10.375   5.098  1.3543 -3.1894  1.1181
  570MOL0     H76933   2.042  10.373   5.296  0.5493 -2.1030 -0.5730
  570MOL0     H76934   2.262  10.617   5.626  1.7401 -0.1929 -0.5050
  570MOL0     H76935   2.422  10.566   5.798  0.1562 -0.4236  1.7539
  570MOL0     H76936   4.097  10.829   5.843  1.1827 -1.7657 -0.5703
  570MOL0     H76937   4.304  10.690   5.862 -0.5534 -0.7777  0.1886
  570MOL0     H76938   4.851  10.818   6.179  1.9830 -0.2236  1.2579
  570MOL0     H76939   5.083  10.768   6.126 -0.2591  0.9601 -0.6394
  570MOL0     H76940   5.205  10.657   5.672 -1.7966  0.1341  0.3220
  570MOL0     H76941   5.176  10.825   5.740 -1.3717 -0.6573  0.5448
  570MOL0     H76942   5.394  10.639   5.796 -4.3498 -1.0982 -0.2752
  570MOL0     H76943   5.386  10.810   5.860 -1.3627  1.1323 -0.6593
  570MOL0     H76944   5.427  10.909   5.640 -2.1277 -0.8393 -1.1885
  570MOL0     H76945   5.410  10.759   5.561  4.7167  1.9568 -3.0046
  570MOL0     H76946   5.641  10.863   5.721  1.0515  1.8818 -2.8689
  570MOL0     H76947   5.637  10.803   5.554  0.7680  0.3418  0.8554
  570MOL0     H76948   5.732  10.453   5.748 -0.5975 -0.2648 -0.1152
  570MOL0     H76949   4.962  10.678   5.720 -0.2528  1.2228 -0.3355
  570MOL0     H76950   4.744  10.770   5.763  1.5516 -1.7540 -1.1170
  571MOL0     O76951   7.931  10.003   5.760  0.0902  0.3490 -0.0280
  571MOL0     C76952   7.939   9.934   5.862 -0.1994 -0.9709  0.6527
  571MOL0     O76953   7.836   9.896   5.944 -0.6565  0.7012 -0.6659
  571MOL0     C76954   7.712   9.951   5.929 -0.4387  0.6244  0.6208
  571MOL0     C76955   7.599   9.868   5.919  0.1662 -0.2566 -0.1395
  571MOL0     C76956   7.475   9.916   5.889  0.4969 -0.5989  0.0151
  571MOL0     C76957   7.454  10.052   5.866 -0.2821  0.4789 -0.1330
  571MOL0     O76958   7.328  10.102   5.854 -0.3510 -0.9425  0.3883
  571MOL0     C76959   7.296  10.226   5.930 -0.3311  0.5592  0.7608
  571MOL0     C76960   7.177  10.270   5.847  0.6210 -0.2872 -1.0874
  571MOL0     C76961   7.116  10.392   5.922  0.6422 -0.2002  0.9745
  571MOL0     C76962   7.034  10.473   5.826  0.1767 -0.3280 -0.3537
  571MOL0     C76963   6.969  10.591   5.894  0.1649  0.1842  0.1775
  571MOL0     C76964   6.895  10.666   5.784  0.0565  0.3664 -0.9408
  571MOL0     C76965   6.863  10.805   5.839  0.2181 -0.3760 -0.0480
  571MOL0     C76966   6.791  10.880   5.721 -0.0621 -0.4725  0.0144
  571MOL0     N76967   6.649  10.844   5.703 -0.2752 -0.5611  0.4986
  571MOL0     C76968   6.548  10.860   5.796 -0.5268 -0.1031 -0.5011
  571MOL0     C76969   6.434  10.832   5.730  0.4776  1.5564 -1.1054
  571MOL0     C76970   6.302  10.826   5.794 -0.3565  1.5397 -0.4945
  571MOL0     C76971   6.255  10.967   5.812  0.3406 -1.2181  0.2680
  571MOL0     C76972   6.127  10.971   5.899  0.4668  0.1011  0.5769
  571MOL0     C76973   6.031  11.093   5.872 -0.5454  1.2704 -0.1271
  571MOL0     O76974   5.921  11.085   5.964 -0.1435  0.6282  0.7660
  571MOL0     C76975   5.797  11.102   5.922  0.6282  0.0939  0.6658
  571MOL0     C76976   5.696  11.079   6.016  0.0967  0.0860  0.1001
  571MOL0     C76977   5.564  11.093   5.984 -0.2511 -0.1181 -0.0688
  571MOL0     C76978   5.464  11.049   6.090 -0.9749  0.4211  0.7922
  571MOL0     C76979   5.519  11.146   5.860  0.3272 -0.6150  1.0450
  571MOL0     C76980   5.376  11.163   5.832 -0.2691 -0.7406 -0.0857
  571MOL0     O76981   5.291  11.224   5.923 -0.2931 -0.4279  0.3954
  571MOL0     C76982   5.160  11.249   5.887 -0.6779  0.1099  0.0343
  571MOL0     C76983   5.115  11.378   5.849 -0.5425 -0.3208  1.1593
  571MOL0     C76984   4.990  11.410   5.836 -0.1023  0.8761 -0.7311
  571MOL0     C76985   4.894  11.310   5.862 -0.3004  0.2510 -0.5726
  571MOL0     O76986   4.764  11.356   5.853 -0.3933 -0.6237  0.2116
  571MOL0     C76987   4.692  11.341   5.975  0.1782 -0.9939  0.3480
  571MOL0     C76988   4.589  11.459   5.997  0.1906  0.0936 -0.0760
  571MOL0     C76989   4.456  11.421   6.073 -0.1475  0.1384  0.2982
  571MOL0     C76990   4.354  11.532   6.056 -0.2612  0.4619  0.2103
  571MOL0     C76991   4.209  11.489   6.094 -0.4742 -0.2945  0.1641
  571MOL0     C76992   4.111  11.603   6.060  0.0359  0.1061  0.2191
  571MOL0     C76993   3.966  11.559   6.107 -0.0912 -0.5856  0.2856
  571MOL0     C76994   3.902  11.457   6.010 -0.1860 -0.2320  0.0851
  571MOL0    Cl76995   3.724  11.457   6.037 -0.0114  0.1704  0.0152
  571MOL0     C76996   4.931  11.184   5.912 -0.2812 -0.6248  0.3467
  571MOL0     C76997   5.064  11.154   5.920 -0.0434 -1.0175 -0.1247
  571MOL0     O76998   5.341  11.118   5.722  1.1504  0.0840 -0.4814
  571MOL0     C76999   5.620  11.189   5.766  0.6476  0.0665 -0.2537
  571MOL0     C77000   5.755  11.164   5.798 -0.2469  0.9126  0.1430
  571MOL0     N77001   6.471  10.799   5.604 -0.0368  0.1593 -0.1942
  571MOL0     N77002   6.593  10.808   5.588 -0.2648 -0.1609  0.1615
  571MOL0     C77003   7.567  10.137   5.864  1.1629 -0.0225  0.9652
  571MOL0     C77004   7.696  10.088   5.901 -0.3417  0.5742 -0.0790
  571MOL0     C77005   8.078   9.910   5.905 -0.2151  0.8242  0.5202
  571MOL0     C77006   8.187   9.898   5.814  0.4958  0.1049 -0.6818
  571MOL0     C77007   8.316   9.886   5.854  0.1180  0.2398 -0.6672
  571MOL0     C77008   8.342   9.855   5.988  0.3754  0.1617 -0.2060
  571MOL0     O77009   8.466   9.830   6.040  0.0699 -0.5870 -0.9107
  571MOL0     C77010   8.589   9.893   5.986  0.6616 -0.1426  0.1819
  571MOL0     C77011   8.587  10.048   5.970  0.2934 -0.3835  0.1330
  571MOL0     C77012   8.549  10.119   6.099  0.9207  0.0893  0.5064
  571MOL0     C77013   8.559  10.273   6.092 -0.0765 -0.2554 -0.0019
  571MOL0     C77014   8.692  10.312   6.130 -0.3513 -0.2283 -0.3082
  571MOL0     C77015   8.802  10.346   6.171  0.4225  0.1219  1.1120
  571MOL0     C77016   8.230   9.854   6.074 -0.3358 -0.4950 -0.9172
  571MOL0     C77017   8.105   9.882   6.034  0.8657 -1.2814 -0.1521
  571MOL0     H77018   7.620   9.764   5.939  1.2082  0.2448  1.6292
  571MOL0     H77019   7.391   9.847   5.885  0.7944 -1.0055  0.6417
  571MOL0     H77020   7.262  10.205   6.032  2.2930  1.2152  1.8387
  571MOL0     H77021   7.367  10.308   5.923 -1.8907  1.8206 -1.4442
  571MOL0     H77022   7.209  10.297   5.746 -1.1726  4.2462 -0.6682
  571MOL0     H77023   7.107  10.187   5.838 -1.1275  1.2440 -2.1233
  571MOL0     H77024   7.061  10.365   6.012 -1.9411  0.7848 -0.2141
  571MOL0     H77025   7.204  10.450   5.950  0.9078  1.4576 -2.6449
  571MOL0     H77026   7.101  10.493   5.742 -0.0026 -0.2973 -0.4907
  571MOL0     H77027   6.945  10.412   5.802 -2.0616  2.1237  1.1940
  571MOL0     H77028   6.908  10.568   5.981 -1.4022 -0.1055 -0.9699
  571MOL0     H77029   7.053  10.646   5.938  1.7049 -3.1563  1.7645
  571MOL0     H77030   6.952  10.688   5.693 -1.5191 -0.5308 -2.1961
  571MOL0     H77031   6.808  10.609   5.750  0.0480 -2.4700  3.1657
  571MOL0     H77032   6.801  10.807   5.929 -0.7112  1.3050 -0.6918
  571MOL0     H77033   6.958  10.852   5.868  1.4151 -2.3771 -0.4800
  571MOL0     H77034   6.848  10.864   5.628 -1.3200 -1.7151 -0.5752
  571MOL0     H77035   6.794  10.985   5.750  1.1221 -1.1545  2.5969
  571MOL0     H77036   6.548  10.888   5.901  1.3138  1.6501 -0.9160
  571MOL0     H77037   6.228  10.776   5.731  2.4276 -1.9633 -1.3166
  571MOL0     H77038   6.306  10.780   5.893  0.2923  0.2542 -1.0908
  571MOL0     H77039   6.223  11.010   5.716  0.2757 -2.9788 -0.5310
  571MOL0     H77040   6.329  11.031   5.861  0.1563 -1.3129  0.6733
  571MOL0     H77041   6.163  10.971   6.002  2.6263 -0.2849 -0.1261
  571MOL0     H77042   6.063  10.885   5.879 -0.6635  0.9009  0.6389
  571MOL0     H77043   6.002  11.077   5.767  3.4056 -3.2432 -0.8824
  571MOL0     H77044   6.080  11.190   5.883 -1.5212  1.8234 -0.5193
  571MOL0     H77045   5.735  11.036   6.109 -0.4417  1.5699  1.0389
  571MOL0     H77046   5.403  11.128   6.134 -0.9355 -0.1293  1.8545
  571MOL0     H77047   5.403  10.966   6.055 -0.5294  0.6280 -0.5512
  571MOL0     H77048   5.525  10.998   6.164  0.4936 -0.6912 -1.0777
  571MOL0     H77049   5.186  11.459   5.830 -0.8752 -0.6148 -1.8617
  571MOL0     H77050   4.963  11.511   5.809  1.8791  1.3938 -0.9070
  571MOL0     H77051   4.636  11.247   5.968 -1.2565 -0.1764  0.3558
  571MOL0     H77052   4.762  11.358   6.057  1.8775  2.0498 -1.5589
  571MOL0     H77053   4.637  11.538   6.055 -0.9476  1.0809 -0.4320
  571MOL0     H77054   4.563  11.500   5.899 -3.6464 -0.1785  0.6740
  571MOL0     H77055   4.471  11.407   6.180  1.5341 -0.8309 -0.0261
  571MOL0     H77056   4.424  11.327   6.025 -1.8634 -0.5749  2.6685
  571MOL0     H77057   4.380  11.632   6.091 -0.5687  0.6115  0.0216
  571MOL0     H77058   4.359  11.547   5.947 -1.8315  1.9176  0.2981
  571MOL0     H77059   4.202  11.459   6.199 -0.1536 -0.8955  0.0228
  571MOL0     H77060   4.179  11.401   6.036 -1.3876  0.1889 -0.1008
  571MOL0     H77061   4.133  11.696   6.113  1.9688 -0.5535  0.6642
  571MOL0     H77062   4.107  11.609   5.951 -1.2343 -5.0894 -0.2995
  571MOL0     H77063   3.897  11.644   6.115  1.5351  0.6973  1.2641
  571MOL0     H77064   3.971  11.519   6.209 -0.3246 -0.6366  0.2789
  571MOL0     H77065   3.952  11.361   6.018  0.0589 -0.1455 -0.3531
  571MOL0     H77066   3.918  11.497   5.909 -4.6110  0.8934 -0.4020
  571MOL0     H77067   4.850  11.118   5.941 -0.5498 -0.0661  0.8960
  571MOL0     H77068   5.087  11.060   5.968 -2.1399 -0.0276  3.1278
  571MOL0     H77069   5.593  11.246   5.677  0.3092 -1.2187 -1.0000
  571MOL0     H77070   5.835  11.210   5.741  0.5798 -0.2511  0.3338
  571MOL0     H77071   7.540  10.237   5.830  0.4124  0.0101  1.6185
  571MOL0     H77072   7.784  10.153   5.897 -2.1842  3.4216  1.8064
  571MOL0     H77073   8.173   9.897   5.706  2.8220  1.0030 -1.0457
  571MOL0     H77074   8.404   9.881   5.790  1.1643 -2.2658  0.7755
  571MOL0     H77075   8.664   9.871   6.062  0.5989  1.2686  0.6778
  571MOL0     H77076   8.616   9.841   5.893  2.3534  1.0874 -0.0574
  571MOL0     H77077   8.507  10.069   5.898  2.0780  0.0523 -1.8366
  571MOL0     H77078   8.683  10.088   5.934  1.4653 -3.2930 -0.2463
  571MOL0     H77079   8.620  10.078   6.171  0.2263 -0.0000  1.1485
  571MOL0     H77080   8.448  10.094   6.134 -0.1340  2.0348 -0.9192
  571MOL0     H77081   8.490  10.330   6.155  0.6553  2.6393 -1.6346
  571MOL0     H77082   8.557  10.312   5.990  0.8775  4.0526  1.4289
  571MOL0     H77083   8.898  10.379   6.206  1.3573  1.7510 -2.4700
  571MOL0     H77084   8.247   9.828   6.178 -1.3915 -2.3946 -1.1797
  571MOL0     H77085   8.028   9.880   6.110  0.3444  0.7905 -0.5571
  572MOL0     O77086   7.223   4.014   5.019  0.0443 -0.6505 -0.2141
  572MOL0     C77087   7.248   3.900   5.058  0.6280  0.7885  0.9813
  572MOL0     O77088   7.150   3.808   5.079  0.2801  0.1430 -0.0441
  572MOL0     C77089   7.022   3.835   5.065  0.8363 -0.2602  0.2349
  572MOL0     C77090   6.963   3.918   5.160 -0.1137  0.1132  0.5259
  572MOL0     C77091   6.829   3.949   5.139 -0.0781  0.1608 -0.0163
  572MOL0     C77092   6.754   3.902   5.016  0.5845  0.6608 -0.3568
  572MOL0     O77093   6.626   3.940   4.988 -0.4219  0.0530  0.4770
  572MOL0     C77094   6.542   4.013   5.080 -0.2363  0.8637  0.2131
  572MOL0     C77095   6.390   3.981   5.050  0.6613  1.2137 -0.6064
  572MOL0     C77096   6.368   3.975   4.894  0.7462 -0.4366 -0.2951
  572MOL0     C77097   6.215   3.982   4.884  0.1896  0.7128  0.6434
  572MOL0     C77098   6.153   3.963   4.752  0.4644  0.4516  0.3526
  572MOL0     C77099   5.995   3.984   4.772  0.1293 -0.0214  0.6271
  572MOL0     C77100   5.920   4.007   4.639 -0.3307  0.1901 -0.7252
  572MOL0     C77101   5.768   4.014   4.656  0.2300  0.1956  1.5107
  572MOL0     N77102   5.706   4.028   4.532  0.4787 -0.7784  0.5809
  572MOL0     C77103   5.668   4.153   4.471 -0.3893 -0.1461  0.3820
  572MOL0     C77104   5.581   4.125   4.366 -0.3526  0.0827 -0.1085
  572MOL0     C77105   5.532   4.224   4.268 -0.1990 -0.6136 -0.0680
  572MOL0     C77106   5.504   4.158   4.138 -0.3729 -0.5018 -0.2097
  572MOL0     C77107   5.445   4.248   4.034  0.2031  0.0559  0.4493
  572MOL0     C77108   5.313   4.314   4.086  0.6951  0.2267 -0.4056
  572MOL0     O77109   5.271   4.379   3.966 -0.8741 -0.1809  0.3425
  572MOL0     C77110   5.145   4.416   3.933 -0.8763 -0.8837 -0.3608
  572MOL0     C77111   5.119   4.471   3.811 -0.3633 -0.9794 -0.6161
  572MOL0     C77112   4.995   4.523   3.777  0.7910 -0.6195 -0.3124
  572MOL0     C77113   4.990   4.587   3.643 -0.2179  0.5933 -0.4074
  572MOL0     C77114   4.886   4.517   3.870  0.3727 -0.3593 -0.8171
  572MOL0     C77115   4.758   4.583   3.854  0.0638 -0.0999 -0.2935
  572MOL0     O77116   4.653   4.553   3.948 -0.2980 -0.2421  0.8255
  572MOL0     C77117   4.515   4.603   3.937  0.4651 -0.3920  0.0215
  572MOL0     C77118   4.410   4.529   3.998 -0.6454 -1.1636  0.1515
  572MOL0     C77119   4.284   4.588   4.018 -0.1486  0.6887  0.0069
  572MOL0     C77120   4.260   4.720   3.981 -1.2042 -0.9018  0.3270
  572MOL0     O77121   4.135   4.777   3.981  0.0695 -0.2911 -0.4002
  572MOL0     C77122   4.102   4.902   3.912  1.5129  0.1072  0.1956
  572MOL0     C77123   3.949   4.925   3.929  0.0617  0.4574 -0.8175
  572MOL0     C77124   3.895   5.050   3.862 -0.4813 -0.3437  0.1637
  572MOL0     C77125   3.770   5.095   3.920  0.8904  0.6527  0.5742
  572MOL0     C77126   3.697   5.205   3.843 -0.1018  0.4319  0.0104
  572MOL0     C77127   3.559   5.226   3.904 -0.2567  0.5676 -0.2999
  572MOL0     C77128   3.474   5.321   3.816  0.2816  0.0106  0.2242
  572MOL0     C77129   3.419   5.254   3.690  0.2072 -0.0872  0.1604
  572MOL0    Cl77130   3.304   5.119   3.744  0.0740 -0.5613 -0.1673
  572MOL0     C77131   4.368   4.790   3.923 -0.2276  0.2341  0.4711
  572MOL0     C77132   4.488   4.731   3.903 -0.9567 -0.0438  0.7731
  572MOL0     O77133   4.740   4.654   3.752 -0.0251 -0.4385  0.2799
  572MOL0     C77134   4.903   4.434   3.979  0.1589  0.0206  0.5184
  572MOL0     C77135   5.037   4.391   4.016  0.4315 -1.0104 -0.1161
  572MOL0     N77136   5.577   3.985   4.369  0.5392 -0.4879 -0.0291
  572MOL0     N77137   5.646   3.935   4.461  0.2037 -0.5483  0.3816
  572MOL0     C77138   6.823   3.805   4.940 -0.1073  0.7529  0.5329
  572MOL0     C77139   6.957   3.781   4.956  0.4673 -0.3803  0.1906
  572MOL0     C77140   7.385   3.850   5.070  0.4851 -0.0098  0.0315
  572MOL0     C77141   7.414   3.715   5.086 -0.4360 -0.7041 -0.0073
  572MOL0     C77142   7.549   3.675   5.085  1.0597 -0.4012  0.7538
  572MOL0     C77143   7.662   3.771   5.077  0.3285  0.3852 -0.0756
  572MOL0     O77144   7.795   3.741   5.064  0.2002  0.5505  0.0120
  572MOL0     C77145   7.853   3.644   5.147 -0.1320  0.4836 -0.0081
  572MOL0     C77146   8.012   3.647   5.143  0.1925 -0.0692 -0.5915
  572MOL0     C77147   8.076   3.791   5.153 -0.3700 -0.0751  0.1286
  572MOL0     C77148   8.091   3.869   5.020 -0.5692  1.1637  0.1579
  572MOL0     C77149   8.133   4.013   5.053 -0.8245  0.1013 -0.2906
  572MOL0     C77150   8.149   4.135   5.071  0.3868 -0.3232 -0.6441
  572MOL0     C77151   7.623   3.904   5.067 -0.5127 -0.4930 -0.6494
  572MOL0     C77152   7.488   3.945   5.061 -0.7109  0.5374  0.9391
  572MOL0     H77153   7.022   3.946   5.247 -0.6228  0.0368  0.9030
  572MOL0     H77154   6.785   4.015   5.213  0.8047  1.3529 -0.5355
  572MOL0     H77155   6.559   3.966   5.177 -2.0417 -2.8448 -1.0799
  572MOL0     H77156   6.567   4.119   5.071 -1.8260  1.1965 -0.8601
  572MOL0     H77157   6.381   3.878   5.084  3.6561  0.3172 -2.1874
  572MOL0     H77158   6.324   4.053   5.100  0.2303 -0.4110  1.2729
  572MOL0     H77159   6.424   4.059   4.852  3.4074 -2.1503 -0.4218
  572MOL0     H77160   6.416   3.896   4.836  0.5614 -0.8773  0.1442
  572MOL0     H77161   6.170   3.898   4.936 -1.5388  1.0943 -0.1780
  572MOL0     H77162   6.189   4.074   4.937 -1.6589  1.1042 -0.8460
  572MOL0     H77163   6.187   4.035   4.677 -3.5536  0.7141 -1.4990
  572MOL0     H77164   6.182   3.869   4.703  1.0718  0.3302  0.9285
  572MOL0     H77165   5.960   3.894   4.823 -0.3516 -0.9099 -1.1781
  572MOL0     H77166   5.975   4.071   4.835  3.0622  0.4626  1.0405
  572MOL0     H77167   5.966   4.100   4.606 -0.6312  1.5499  2.2868
  572MOL0     H77168   5.950   3.925   4.573 -1.3533 -1.5873  0.9072
  572MOL0     H77169   5.750   4.108   4.708 -1.1296  0.6219  0.3432
  572MOL0     H77170   5.735   3.927   4.714 -1.6958 -0.3618 -0.2544
  572MOL0     H77171   5.694   4.250   4.511 -2.2435 -0.2782  2.0405
  572MOL0     H77172   5.447   4.268   4.321 -1.5893 -1.0242 -1.8726
  572MOL0     H77173   5.599   4.309   4.254 -1.2138  0.2188 -0.0008
  572MOL0     H77174   5.430   4.079   4.150 -0.3745 -0.1181  3.4977
  572MOL0     H77175   5.595   4.111   4.101 -0.5850 -1.8356  0.8934
  572MOL0     H77176   5.423   4.183   3.948  3.6555 -1.0181  0.2174
  572MOL0     H77177   5.522   4.319   4.003 -0.1490 -0.4443 -1.7227
  572MOL0     H77178   5.321   4.383   4.171 -1.8771  0.0708  0.0564
  572MOL0     H77179   5.240   4.236   4.111 -0.1853  1.3211  0.5279
  572MOL0     H77180   5.211   4.477   3.753 -0.0555  2.0526  0.0306
  572MOL0     H77181   4.982   4.696   3.655 -3.8564  0.5444 -1.2609
  572MOL0     H77182   5.078   4.557   3.586  0.8403 -0.5038  1.6589
  572MOL0     H77183   4.904   4.558   3.584 -1.2236  4.4581 -1.1367
  572MOL0     H77184   4.426   4.436   4.051  1.3474  0.6156  3.0236
  572MOL0     H77185   4.212   4.528   4.072  2.5390 -1.4219  1.5085
  572MOL0     H77186   4.160   4.986   3.950 -1.1688  2.4503 -0.5534
  572MOL0     H77187   4.124   4.892   3.805  0.8735  1.6586 -0.1015
  572MOL0     H77188   3.904   4.832   3.893 -0.1696 -0.9583  2.7038
  572MOL0     H77189   3.932   4.929   4.037  1.9597  0.5462 -0.4753
  572MOL0     H77190   3.872   5.015   3.761  0.4734 -1.3189  0.2705
  572MOL0     H77191   3.960   5.138   3.865 -0.4915 -0.3745  1.7379
  572MOL0     H77192   3.703   5.010   3.938  1.6816  0.3967  2.5667
  572MOL0     H77193   3.788   5.137   4.019 -1.5103  2.1998  0.4332
  572MOL0     H77194   3.683   5.172   3.739 -3.6011  2.4104 -0.2867
  572MOL0     H77195   3.758   5.296   3.845 -0.7255  0.8461  1.9288
  572MOL0     H77196   3.510   5.129   3.908  0.2927  0.2895 -0.2199
  572MOL0     H77197   3.569   5.266   4.005 -4.1580 -0.2561  0.5606
  572MOL0     H77198   3.530   5.412   3.796 -1.2927  0.6044 -1.8657
  572MOL0     H77199   3.382   5.349   3.869  0.2486 -0.7714  0.5974
  572MOL0     H77200   3.507   5.213   3.639 -0.6063 -2.5086  0.5516
  572MOL0     H77201   3.360   5.320   3.625  0.6617  0.5063  0.3485
  572MOL0     H77202   4.348   4.893   3.894 -2.5991  0.6379  3.1602
  572MOL0     H77203   4.558   4.797   3.852 -0.5292 -0.8596  0.2804
  572MOL0     H77204   4.819   4.411   4.043  0.2208  0.4126  0.7485
  572MOL0     H77205   5.048   4.345   4.113  0.3845 -1.0151 -0.1127
  572MOL0     H77206   6.767   3.761   4.858  0.8628  2.0477 -0.8879
  572MOL0     H77207   7.015   3.711   4.897 -0.2145 -2.8519  2.2593
  572MOL0     H77208   7.339   3.636   5.089  0.4485 -1.5883 -0.5556
  572MOL0     H77209   7.571   3.569   5.083 -0.7007 -0.8002  1.4240
  572MOL0     H77210   7.821   3.652   5.251  1.4880 -3.8688  1.0147
  572MOL0     H77211   7.821   3.543   5.123 -2.2999  0.9746  0.5887
  572MOL0     H77212   8.047   3.596   5.053  1.4145  0.1292 -0.2553
  572MOL0     H77213   8.048   3.577   5.219  1.7426  0.6615 -0.6186
  572MOL0     H77214   8.179   3.774   5.185 -1.1662  0.1681  3.1227
  572MOL0     H77215   8.036   3.855   5.231  2.1178 -0.1850  1.6137
  572MOL0     H77216   8.000   3.881   4.960  1.2058  1.8253 -2.6034
  572MOL0     H77217   8.168   3.815   4.964 -0.5660 -0.1803  1.4228
  572MOL0     H77218   8.153   4.240   5.091 -1.2338 -0.0485 -1.5457
  572MOL0     H77219   7.694   3.986   5.061 -1.8537  0.8982  1.3282
  572MOL0     H77220   7.467   4.052   5.069  1.4799  0.9235  2.2872
  573MOL0     O77221   1.597   2.663   4.420 -0.3460 -0.2519  0.6195
  573MOL0     C77222   1.530   2.766   4.409 -0.0949 -0.0050  0.8466
  573MOL0     O77223   1.557   2.890   4.452 -0.0372  0.7092 -0.2223
  573MOL0     C77224   1.673   2.909   4.525 -0.3309  0.4645 -0.5658
  573MOL0     C77225   1.803   2.883   4.486 -0.2507  0.5881 -0.4834
  573MOL0     C77226   1.904   2.931   4.571  1.4807  1.0771 -0.1255
  573MOL0     C77227   1.876   2.974   4.702 -0.0570 -0.0984 -0.5585
  573MOL0     O77228   1.980   3.003   4.787 -0.4595 -0.1019 -0.9655
  573MOL0     C77229   2.019   2.891   4.868 -0.9564 -0.1209 -0.2991
  573MOL0     C77230   2.160   2.907   4.933  0.3548 -0.1025 -0.0142
  573MOL0     C77231   2.168   3.035   5.017  0.4246 -0.0373 -0.6588
  573MOL0     C77232   2.108   3.021   5.162  0.1857  0.0564 -0.6918
  573MOL0     C77233   2.115   3.162   5.221  0.3474  0.6256  0.0751
  573MOL0     C77234   2.049   3.180   5.361 -0.0266  1.2268 -1.0034
  573MOL0     C77235   1.898   3.170   5.348 -0.2055 -0.5919 -0.0205
  573MOL0     C77236   1.840   3.211   5.485  0.4311  0.0850  0.1853
  573MOL0     N77237   1.697   3.189   5.498  0.0705  0.2940 -0.2518
  573MOL0     C77238   1.645   3.135   5.615  1.0687  0.1111 -0.4591
  573MOL0     C77239   1.522   3.184   5.617  0.4918 -0.2217  0.2100
  573MOL0     C77240   1.426   3.178   5.725  0.2210  0.6028 -0.6457
  573MOL0     C77241   1.328   3.054   5.717 -0.0399  0.3838 -0.4298
  573MOL0     C77242   1.228   3.045   5.826  0.5032  0.5751 -0.1134
  573MOL0     C77243   1.079   3.087   5.786 -0.1900  0.1387 -0.4172
  573MOL0     O77244   1.006   3.038   5.907  0.9205  0.0916  0.1102
  573MOL0     C77245   0.872   3.052   5.905 -0.5914  0.8223 -0.3709
  573MOL0     C77246   0.799   3.009   6.014 -0.2226  0.7704 -0.0378
  573MOL0     C77247   0.660   3.045   6.040 -0.7567  0.0932 -0.1966
  573MOL0     C77248   0.609   3.004   6.174  0.2906 -0.1627 -0.1159
  573MOL0     C77249   0.593   3.112   5.936 -0.0055 -0.3545  0.0925
  573MOL0     C77250   0.455   3.170   5.944 -0.3440  0.7148 -0.1074
  573MOL0     O77251   0.395   3.187   6.062  1.0832 -0.5852 -0.3591
  573MOL0     C77252   0.254   3.207   6.059 -0.2144  0.1556  0.3202
  573MOL0     C77253   0.192   3.309   5.988 -0.0539 -0.0509  0.3129
  573MOL0     C77254   0.051   3.323   6.001 -0.2110 -0.6104  0.2631
  573MOL0     C77255  -0.023   3.242   6.091 -0.8627 -0.6433  0.0997
  573MOL0     O77256  -0.154   3.267   6.095 -0.6813  1.4461 -0.4664
  573MOL0     C77257  -0.226   3.207   6.205  0.8737  0.1642 -0.3615
  573MOL0     C77258  -0.195   3.278   6.335  0.1704 -0.7489 -1.0778
  573MOL0     C77259  -0.235   3.427   6.320 -0.9375  0.4145 -0.6021
  573MOL0     C77260  -0.185   3.504   6.445  0.1028 -0.0448 -0.9871
  573MOL0     C77261  -0.176   3.653   6.422  1.1668 -0.5488  0.3023
  573MOL0     C77262  -0.305   3.737   6.381  0.5094  0.3371  0.4125
  573MOL0     C77263  -0.425   3.706   6.460  0.0901  0.5668 -1.2250
  573MOL0     C77264  -0.545   3.791   6.437  0.1069  0.1606 -0.7204
  573MOL0    Cl77265  -0.629   3.753   6.282  0.3175 -0.4664 -0.1692
  573MOL0     C77266   0.052   3.149   6.169 -0.9771  0.1665 -0.2815
  573MOL0     C77267   0.183   3.129   6.142  0.9333  0.0789 -0.3928
  573MOL0     O77268   0.395   3.170   5.840 -0.7778  0.2741 -0.0081
  573MOL0     C77269   0.660   3.133   5.813  0.1728  0.2119  0.5812
  573MOL0     C77270   0.800   3.110   5.800 -0.1913  0.4027 -0.2950
  573MOL0     N77271   1.490   3.235   5.497 -0.2286  0.0798 -0.7129
  573MOL0     N77272   1.597   3.245   5.426  0.1857  0.1957 -0.0135
  573MOL0     C77273   1.748   2.991   4.742  0.0265  0.5050  0.0384
  573MOL0     C77274   1.640   2.959   4.651 -0.6649  1.0198 -0.1781
  573MOL0     C77275   1.398   2.760   4.337 -0.2991 -0.8734  0.1430
  573MOL0     C77276   1.368   2.651   4.254  0.0658  0.1409 -0.1428
  573MOL0     C77277   1.240   2.647   4.193 -0.3544  0.8925  0.4067
  573MOL0     C77278   1.138   2.729   4.236 -0.1526 -0.3647 -0.5235
  573MOL0     O77279   1.009   2.718   4.186  0.9120 -0.5551  0.2617
  573MOL0     C77280   0.908   2.805   4.235  0.4469  0.2508 -0.1008
  573MOL0     C77281   0.776   2.776   4.168  0.1685 -0.1885 -0.3665
  573MOL0     C77282   0.696   2.898   4.160 -0.6201 -0.0816 -0.0580
  573MOL0     C77283   0.546   2.873   4.114 -0.2586  0.0333 -0.2449
  573MOL0     C77284   0.543   2.805   3.987  0.3267 -0.2277 -0.2028
  573MOL0     C77285   0.530   2.746   3.884  0.1568  0.5381  1.1024
  573MOL0     C77286   1.174   2.836   4.321 -0.1767  0.0785  0.5900
  573MOL0     C77287   1.301   2.847   4.371  0.8079  0.2115  0.0348
  573MOL0     H77288   1.802   2.833   4.389 -3.4425  2.1606 -1.3866
  573MOL0     H77289   2.004   2.941   4.528  1.0500 -0.2456 -1.4868
  573MOL0     H77290   1.938   2.876   4.939  0.3703  1.5234  1.6545
  573MOL0     H77291   2.034   2.808   4.798 -0.5109 -0.0432 -0.2988
  573MOL0     H77292   2.167   2.813   4.989  1.5055 -1.0096 -1.5876
  573MOL0     H77293   2.233   2.909   4.852 -1.9776 -1.5716 -2.2997
  573MOL0     H77294   2.272   3.065   5.031  0.1759  2.3134 -2.9939
  573MOL0     H77295   2.131   3.126   4.969  0.6588  0.0894 -0.5992
  573MOL0     H77296   2.009   2.975   5.156  1.3729 -2.8206 -0.2772
  573MOL0     H77297   2.172   2.946   5.209  1.5211 -1.2600 -4.2403
  573MOL0     H77298   2.220   3.191   5.230  0.8235 -1.4804  2.4240
  573MOL0     H77299   2.074   3.229   5.145 -2.4449 -2.7574 -1.7084
  573MOL0     H77300   2.093   3.114   5.436  0.9418  0.3853 -2.2601
  573MOL0     H77301   2.065   3.281   5.400 -1.1804  0.4369  1.7202
  573MOL0     H77302   1.874   3.228   5.259  0.7886  2.4424  1.5467
  573MOL0     H77303   1.861   3.069   5.325 -2.2136  0.6435 -2.8526
  573MOL0     H77304   1.851   3.318   5.499  1.2934 -0.1753  1.6236
  573MOL0     H77305   1.900   3.156   5.558  1.4903  1.6010  0.4816
  573MOL0     H77306   1.699   3.069   5.682 -0.6913  0.1963  1.1133
  573MOL0     H77307   1.479   3.182   5.821 -1.9353  0.3869  0.6444
  573MOL0     H77308   1.365   3.268   5.739 -0.0083  0.0491  3.0126
  573MOL0     H77309   1.390   2.964   5.717 -0.9468 -0.2613  0.4898
  573MOL0     H77310   1.279   3.055   5.620  0.2286  2.0931 -0.5896
  573MOL0     H77311   1.251   3.115   5.908  0.1215  1.5932 -0.8517
  573MOL0     H77312   1.230   2.940   5.857  1.1539  0.9726  1.2811
  573MOL0     H77313   1.046   3.030   5.698 -3.4017  0.4363  0.4625
  573MOL0     H77314   1.071   3.191   5.753 -1.3444  1.4662  3.5072
  573MOL0     H77315   0.853   2.957   6.092  0.7853  3.7933  1.4433
  573MOL0     H77316   0.674   2.963   6.252  1.1339  1.2588 -0.0265
  573MOL0     H77317   0.568   3.096   6.218  0.6304  0.2340 -0.6099
  573MOL0     H77318   0.526   2.936   6.156  0.5151  0.0247 -2.0608
  573MOL0     H77319   0.248   3.372   5.920 -0.5986 -0.4174 -0.4916
  573MOL0     H77320   0.001   3.396   5.938  1.8283 -0.8699 -1.7553
  573MOL0     H77321  -0.330   3.218   6.175 -0.0664 -2.7460  1.3390
  573MOL0     H77322  -0.214   3.098   6.215 -2.1704 -0.1655  0.6521
  573MOL0     H77323  -0.249   3.243   6.423 -1.3231  0.3442 -1.5209
  573MOL0     H77324  -0.086   3.280   6.349  0.0125  1.0054  0.1957
  573MOL0     H77325  -0.344   3.435   6.311 -0.8534  0.3988 -1.8063
  573MOL0     H77326  -0.204   3.473   6.226 -1.7593  0.8244 -0.6865
  573MOL0     H77327  -0.252   3.478   6.528 -0.7375 -2.0315 -2.2161
  573MOL0     H77328  -0.085   3.465   6.467  0.4348 -0.0267 -2.3840
  573MOL0     H77329  -0.107   3.660   6.338  1.2089 -1.3247  0.2717
  573MOL0     H77330  -0.140   3.704   6.512  0.7988  0.9407 -0.3580
  573MOL0     H77331  -0.277   3.843   6.386 -0.9629  0.7040  4.2537
  573MOL0     H77332  -0.334   3.714   6.279  0.5505  1.3638  0.1531
  573MOL0     H77333  -0.400   3.709   6.566  1.2660 -0.0455 -1.4692
  573MOL0     H77334  -0.467   3.607   6.438 -1.9271  0.8989  0.7576
  573MOL0     H77335  -0.511   3.894   6.444  1.8500 -0.5184  2.0763
  573MOL0     H77336  -0.616   3.772   6.518  1.0315  1.1575  0.3425
  573MOL0     H77337   0.016   3.073   6.236 -0.5024 -1.1053 -1.4267
  573MOL0     H77338   0.234   3.043   6.185  0.5796 -0.0564 -0.2394
  573MOL0     H77339   0.599   3.166   5.729  1.5294 -0.0039 -0.5436
  573MOL0     H77340   0.854   3.126   5.707 -0.9693  0.5409 -0.7323
  573MOL0     H77341   1.726   3.016   4.846 -3.5737 -1.8046 -0.0049
  573MOL0     H77342   1.536   2.971   4.679 -0.4849 -2.5784  2.6520
  573MOL0     H77343   1.445   2.577   4.235 -0.7709 -0.7098 -0.2923
  573MOL0     H77344   1.216   2.564   4.128 -1.9172  1.4573  0.2152
  573MOL0     H77345   0.891   2.808   4.342 -0.7752  3.2136 -0.2677
  573MOL0     H77346   0.946   2.903   4.203  1.0615  0.2080  0.4845
  573MOL0     H77347   0.717   2.710   4.233 -1.0060 -1.5206 -2.6348
  573MOL0     H77348   0.786   2.731   4.069 -2.0229  0.2214 -0.8408
  573MOL0     H77349   0.747   2.966   4.090  0.7288 -0.8206  0.1658
  573MOL0     H77350   0.700   2.935   4.263  0.9003  0.0354 -0.1296
  573MOL0     H77351   0.491   2.967   4.104  0.6447  0.5973 -0.1010
  573MOL0     H77352   0.497   2.817   4.194  2.1660  2.4259  3.2425
  573MOL0     H77353   0.526   2.704   3.786 -1.9608  0.1945  1.2940
  573MOL0     H77354   1.111   2.916   4.359  0.1812 -0.2110  1.8326
  573MOL0     H77355   1.319   2.931   4.438 -0.0130 -0.6657  1.4088
  574MOL0     O77356   5.702   7.089   3.514  0.5111  0.1676 -0.7250
  574MOL0     C77357   5.719   7.153   3.413  0.8760 -0.3960  0.9585
  574MOL0     O77358   5.693   7.287   3.402 -0.9894 -0.3347  0.2027
  574MOL0     C77359   5.643   7.372   3.504 -0.3264  0.1368  0.2145
  574MOL0     C77360   5.621   7.337   3.642  0.4487  0.9791  0.3723
  574MOL0     C77361   5.568   7.428   3.733  0.2762  0.1525 -0.6218
  574MOL0     C77362   5.549   7.556   3.685  0.4705  0.2644  0.1837
  574MOL0     O77363   5.511   7.636   3.787 -0.5560 -0.2547 -0.6558
  574MOL0     C77364   5.555   7.772   3.778 -0.1188 -0.6723 -0.0350
  574MOL0     C77365   5.504   7.844   3.903 -0.4612  0.0771  0.0834
  574MOL0     C77366   5.355   7.879   3.889 -0.6114  0.9579  0.5105
  574MOL0     C77367   5.326   7.988   3.786 -0.1532 -0.3432 -0.1925
  574MOL0     C77368   5.244   8.108   3.856  0.3781 -0.7131  0.1005
  574MOL0     C77369   5.190   8.198   3.748 -0.0057 -0.4682 -0.2379
  574MOL0     C77370   5.110   8.318   3.818 -0.2902 -0.7201  0.3230
  574MOL0     C77371   5.219   8.422   3.865  0.0911  0.1573  0.0542
  574MOL0     N77372   5.233   8.524   3.762  0.5919 -0.0263  1.0298
  574MOL0     C77373   5.309   8.516   3.648  0.0412  0.2550  0.1966
  574MOL0     C77374   5.304   8.641   3.592 -0.4897  0.5308  0.7508
  574MOL0     C77375   5.362   8.669   3.454  0.7027 -0.4227 -0.1643
  574MOL0     C77376   5.243   8.700   3.361 -0.4024 -0.4739  0.3853
  574MOL0     C77377   5.190   8.575   3.315  0.2022  0.7789 -0.0283
  574MOL0     C77378   5.090   8.593   3.202  0.1765  0.6873  0.0094
  574MOL0     O77379   5.001   8.699   3.236 -0.4277  1.0023 -0.1096
  574MOL0     C77380   4.885   8.714   3.162 -0.0515  1.5805  0.0964
  574MOL0     C77381   4.792   8.809   3.188 -0.5742  0.3586 -0.2927
  574MOL0     C77382   4.681   8.840   3.118 -0.2309 -0.4107 -0.7223
  574MOL0     C77383   4.599   8.949   3.176  0.2146  0.0898  0.1232
  574MOL0     C77384   4.638   8.765   3.004 -0.4695  0.2101 -0.5439
  574MOL0     C77385   4.509   8.781   2.927 -0.4349 -0.8725 -0.3766
  574MOL0     O77386   4.497   8.704   2.814  0.6225  0.3998  0.5553
  574MOL0     C77387   4.397   8.727   2.725  0.0971 -0.2095  0.5552
  574MOL0     C77388   4.359   8.619   2.643  0.4121  0.9317 -0.3327
  574MOL0     C77389   4.257   8.635   2.550  0.1514 -0.5300  0.7142
  574MOL0     C77390   4.197   8.754   2.526 -0.2393 -0.2809 -0.5638
  574MOL0     O77391   4.109   8.768   2.422  1.3377 -1.1196  0.2632
  574MOL0     C77392   4.038   8.893   2.404  0.3787  0.8387  0.2683
  574MOL0     C77393   3.952   8.889   2.274  0.6455 -0.2664  0.3372
  574MOL0     C77394   3.841   8.775   2.275 -0.8897 -0.6434  0.6322
  574MOL0     C77395   3.723   8.813   2.367  0.5324 -0.0532  0.4781
  574MOL0     C77396   3.606   8.869   2.287  0.2566  0.5355 -0.0334
  574MOL0     C77397   3.636   8.984   2.184  1.0094 -0.0713  0.0467
  574MOL0     C77398   3.502   9.046   2.142  0.0059 -0.0415  0.1954
  574MOL0     C77399   3.521   9.137   2.016 -0.1165  0.2152 -0.1295
  574MOL0    Cl77400   3.591   9.297   2.068  0.0566 -0.3000  0.3546
  574MOL0     C77401   4.238   8.864   2.598 -0.0708 -0.0917 -0.3266
  574MOL0     C77402   4.332   8.849   2.704 -0.2706  0.4808  0.6421
  574MOL0     O77403   4.425   8.852   2.975 -0.1581 -0.2055 -0.6265
  574MOL0     C77404   4.722   8.652   2.979 -0.3070 -0.0902 -0.7232
  574MOL0     C77405   4.845   8.625   3.050  0.4426  0.4361 -1.2487
  574MOL0     N77406   5.221   8.721   3.671 -0.3566 -0.4168 -0.4099
  574MOL0     N77407   5.184   8.652   3.774  0.4242 -0.8839  0.7744
  574MOL0     C77408   5.581   7.594   3.551 -0.0405 -0.3526  0.3057
  574MOL0     C77409   5.630   7.509   3.458  0.2405  0.6411  0.7158
  574MOL0     C77410   5.797   7.101   3.304  0.5130  0.3481  0.1333
  574MOL0     C77411   5.808   7.170   3.178  0.5532 -0.8833  0.2184
  574MOL0     C77412   5.903   7.139   3.073 -0.3950  0.1383 -0.4920
  574MOL0     C77413   5.984   7.029   3.100  0.7783  0.1959  1.1375
  574MOL0     O77414   6.074   7.002   2.993  0.6432  0.0057 -0.4902
  574MOL0     C77415   6.137   6.874   2.977  0.3249  0.3143  0.3217
  574MOL0     C77416   6.055   6.760   2.920  0.5841 -0.4398  0.2540
  574MOL0     C77417   6.026   6.786   2.773 -0.4007  0.0688 -0.1626
  574MOL0     C77418   5.930   6.683   2.717 -0.2504 -0.2616  0.2461
  574MOL0     C77419   5.863   6.724   2.591  0.7198  0.0062  0.5297
  574MOL0     C77420   5.801   6.760   2.490 -0.9909  0.5648 -0.2312
  574MOL0     C77421   5.966   6.955   3.220 -0.1062 -0.2285  0.2875
  574MOL0     C77422   5.881   6.990   3.322  0.0441  0.0696  0.4093
  574MOL0     H77423   5.639   7.240   3.686  0.7777  0.7737 -0.1956
  574MOL0     H77424   5.555   7.405   3.838  2.3229  1.3239 -0.0594
  574MOL0     H77425   5.665   7.777   3.776 -0.0478 -1.7164  0.5541
  574MOL0     H77426   5.524   7.824   3.687 -2.2933  0.2373  1.1557
  574MOL0     H77427   5.518   7.769   3.981  1.7231  1.0260  0.6740
  574MOL0     H77428   5.563   7.933   3.925  2.4688 -0.6740 -3.7186
  574MOL0     H77429   5.295   7.790   3.867  2.3329 -1.0482  0.0521
  574MOL0     H77430   5.315   7.910   3.986  0.2570  1.3273  0.7606
  574MOL0     H77431   5.415   8.038   3.747  0.6331 -0.7466  1.0210
  574MOL0     H77432   5.272   7.947   3.700 -0.3498  0.8214 -0.6452
  574MOL0     H77433   5.163   8.073   3.921  0.1563  2.1619  1.4980
  574MOL0     H77434   5.320   8.155   3.918 -0.6821 -0.7953  1.5206
  574MOL0     H77435   5.273   8.237   3.688 -1.2008 -0.0537 -1.6706
  574MOL0     H77436   5.130   8.136   3.681  1.5141 -3.5648  1.0537
  574MOL0     H77437   5.046   8.360   3.740  2.3808  0.0458 -1.6166
  574MOL0     H77438   5.054   8.273   3.900  0.3798  0.0726  1.2362
  574MOL0     H77439   5.313   8.372   3.889 -1.4430 -3.1572 -0.3513
  574MOL0     H77440   5.186   8.468   3.958 -0.5113 -1.5574  0.7065
  574MOL0     H77441   5.352   8.425   3.608  1.8928 -0.4116  3.3747
  574MOL0     H77442   5.433   8.752   3.467 -0.4605  0.2604  2.3697
  574MOL0     H77443   5.416   8.579   3.424 -0.3807 -0.9973 -0.4301
  574MOL0     H77444   5.278   8.759   3.275  0.1602 -0.9162  0.3103
  574MOL0     H77445   5.169   8.757   3.418  0.7691  0.2955  1.1686
  574MOL0     H77446   5.152   8.528   3.406  1.2729  2.7382  1.5158
  574MOL0     H77447   5.271   8.513   3.276 -0.1372 -0.5625  1.3284
  574MOL0     H77448   5.029   8.505   3.180 -1.0607  1.3833  0.5678
  574MOL0     H77449   5.142   8.625   3.111  2.5013  0.8995  1.3409
  574MOL0     H77450   4.806   8.864   3.281  0.3753  3.5752 -2.1989
  574MOL0     H77451   4.514   8.907   3.231 -0.0695 -0.0773 -0.4387
  574MOL0     H77452   4.651   9.013   3.248 -0.9584 -0.4732  1.5327
  574MOL0     H77453   4.559   9.019   3.102 -0.2863 -0.5897 -0.2573
  574MOL0     H77454   4.408   8.522   2.648  0.3643  0.8423 -1.4521
  574MOL0     H77455   4.233   8.542   2.499  0.5773 -1.2299  1.7534
  574MOL0     H77456   3.961   8.913   2.478 -0.6122 -0.1503 -0.4667
  574MOL0     H77457   4.102   8.982   2.400  0.5487  0.6947 -0.4464
  574MOL0     H77458   3.907   8.989   2.266 -1.1537 -1.2120 -4.5888
  574MOL0     H77459   4.012   8.869   2.186  0.1182  0.0471 -0.1017
  574MOL0     H77460   3.890   8.681   2.304  0.5633  0.2855  1.3119
  574MOL0     H77461   3.801   8.772   2.174 -3.5024 -0.1071  1.5638
  574MOL0     H77462   3.687   8.722   2.414 -1.4808 -0.1961 -1.2129
  574MOL0     H77463   3.750   8.881   2.449  0.1218 -0.1726  0.7143
  574MOL0     H77464   3.533   8.910   2.357 -1.1236 -1.6278 -0.1340
  574MOL0     H77465   3.565   8.789   2.225  0.4377 -0.0884  0.6466
  574MOL0     H77466   3.694   9.061   2.236 -0.2136 -0.3267  1.8680
  574MOL0     H77467   3.675   8.957   2.086 -1.9500  0.2749 -1.3219
  574MOL0     H77468   3.458   9.109   2.221 -0.2650  0.4950 -0.3738
  574MOL0     H77469   3.433   8.963   2.124  1.3725 -0.9186 -1.2104
  574MOL0     H77470   3.423   9.156   1.971  0.5357 -0.6575 -1.9985
  574MOL0     H77471   3.589   9.080   1.952 -0.7126  0.7939 -1.2927
  574MOL0     H77472   4.197   8.963   2.575 -0.1956 -1.0237 -5.1890
  574MOL0     H77473   4.376   8.934   2.754  0.6530 -1.3298  3.0804
  574MOL0     H77474   4.690   8.581   2.904 -1.1432 -0.5642  0.0678
  574MOL0     H77475   4.899   8.534   3.024  0.1211 -0.9097  2.2329
  574MOL0     H77476   5.570   7.696   3.515 -0.5352 -1.3328 -2.6199
  574MOL0     H77477   5.652   7.536   3.355  0.8426 -1.4270  0.2528
  574MOL0     H77478   5.743   7.256   3.165 -0.4512 -1.7092 -0.4014
  574MOL0     H77479   5.917   7.198   2.984 -0.6912  0.6103 -0.2307
  574MOL0     H77480   6.222   6.880   2.909  0.1685 -1.1227 -0.0294
  574MOL0     H77481   6.172   6.842   3.076 -0.8928 -0.0033  0.6689
  574MOL0     H77482   5.959   6.766   2.973  0.7168  0.1919  0.4332
  574MOL0     H77483   6.112   6.667   2.928  2.3249  0.5735  0.0271
  574MOL0     H77484   6.122   6.782   2.722 -0.4609 -1.5741 -0.2220
  574MOL0     H77485   5.984   6.887   2.768  0.5890  0.5781  1.2853
  574MOL0     H77486   5.851   6.661   2.789  0.4726 -4.4760 -0.0365
  574MOL0     H77487   5.981   6.587   2.713  1.1307  0.4629 -0.3553
  574MOL0     H77488   5.740   6.780   2.405 -0.9255  1.5735 -0.0581
  574MOL0     H77489   6.039   6.877   3.238  0.6269  1.0327  3.4906
  574MOL0     H77490   5.906   6.941   3.416  1.8633 -1.6193 -0.8681
  575MOL0     O77491   6.215   7.282   7.451  0.4940 -0.2274 -0.1931
  575MOL0     C77492   6.234   7.212   7.349 -0.3297 -0.4089  0.2531
  575MOL0     O77493   6.144   7.132   7.280 -0.0753 -0.6776  0.6568
  575MOL0     C77494   6.009   7.145   7.304  0.5186 -0.5064 -0.0718
  575MOL0     C77495   5.933   7.030   7.299  0.0222 -0.2250 -1.1510
  575MOL0     C77496   5.792   7.031   7.323 -0.1662 -0.5202 -0.4082
  575MOL0     C77497   5.723   7.153   7.356 -0.6193 -0.1215 -0.5202
  575MOL0     O77498   5.588   7.144   7.392  0.0209 -0.4346  0.1675
  575MOL0     C77499   5.538   7.257   7.472 -0.0457 -0.2518 -0.5783
  575MOL0     C77500   5.431   7.201   7.559  0.8682  0.0734 -0.5854
  575MOL0     C77501   5.300   7.181   7.478 -0.6552 -0.7619 -0.3920
  575MOL0     C77502   5.191   7.172   7.585  0.3617  0.5724  0.4752
  575MOL0     C77503   5.057   7.134   7.518 -0.2375  0.5836 -0.1848
  575MOL0     C77504   4.968   7.054   7.614 -0.6645  0.4025 -0.1325
  575MOL0     C77505   4.831   7.027   7.548  0.7889  0.6816 -0.1942
  575MOL0     C77506   4.748   6.950   7.651 -0.6959  0.4276 -0.4646
  575MOL0     N77507   4.605   6.951   7.642 -0.3074  0.1838  0.2713
  575MOL0     C77508   4.522   6.952   7.530 -0.8946 -0.3917  0.8298
  575MOL0     C77509   4.396   6.952   7.576 -0.2428 -0.0659 -0.6374
  575MOL0     C77510   4.265   6.970   7.502  0.0424 -0.0904  0.7137
  575MOL0     C77511   4.206   6.842   7.430 -0.5307  0.5433  0.9313
  575MOL0     C77512   4.063   6.841   7.372 -0.0079 -0.8495 -0.4998
  575MOL0     C77513   3.997   6.697   7.382  0.7496  0.3793 -0.4955
  575MOL0     O77514   3.860   6.693   7.344  0.3299 -0.3488 -0.3728
  575MOL0     C77515   3.828   6.647   7.219  0.4181  0.0019 -0.2139
  575MOL0     C77516   3.915   6.660   7.110 -0.0724  0.2589  0.7236
  575MOL0     C77517   3.871   6.631   6.983  0.8614 -0.1675 -0.0009
  575MOL0     C77518   3.975   6.651   6.877 -0.2688 -0.2037  1.3018
  575MOL0     C77519   3.745   6.569   6.962 -0.0517  0.2522  0.0684
  575MOL0     C77520   3.705   6.530   6.820  0.7332 -0.5897 -0.7915
  575MOL0     O77521   3.786   6.449   6.753  0.4241  0.2653 -1.1811
  575MOL0     C77522   3.746   6.388   6.638  0.3697  0.5080 -0.1520
  575MOL0     C77523   3.825   6.384   6.523  0.1786 -0.0977 -0.6220
  575MOL0     C77524   3.782   6.340   6.401  0.2347  0.2529  0.1561
  575MOL0     C77525   3.658   6.283   6.379  0.1320  0.3679  0.4559
  575MOL0     O77526   3.630   6.252   6.250 -0.2479  0.4851 -0.2751
  575MOL0     C77527   3.530   6.166   6.217 -0.2873 -0.6408  0.1302
  575MOL0     C77528   3.526   6.156   6.067  0.1387  0.2319  0.6911
  575MOL0     C77529   3.399   6.086   6.034 -0.0520  0.0738 -0.3376
  575MOL0     C77530   3.400   6.031   5.888 -0.0590 -0.4472  0.3833
  575MOL0     C77531   3.268   5.984   5.842 -0.2928  0.3524  0.0686
  575MOL0     C77532   3.253   5.986   5.688  1.1291 -0.0378  0.4953
  575MOL0     C77533   3.104   5.958   5.656  0.4848 -0.6120 -0.2682
  575MOL0     C77534   3.087   5.917   5.506  0.1010  0.1903 -0.1499
  575MOL0    Cl77535   3.183   6.006   5.391  0.0093 -0.1216 -0.2330
  575MOL0     C77536   3.584   6.267   6.491 -0.1352  1.0476 -1.1373
  575MOL0     C77537   3.624   6.316   6.623 -0.0255 -0.0849  0.2620
  575MOL0     O77538   3.591   6.567   6.791  0.3185  0.0979  0.6157
  575MOL0     C77539   3.660   6.554   7.069  0.7242 -0.9538  0.2142
  575MOL0     C77540   3.700   6.597   7.190  1.1889 -0.2199 -0.8009
  575MOL0     N77541   4.403   6.955   7.716  0.0263 -0.2364 -0.1883
  575MOL0     N77542   4.530   6.955   7.752  0.5782 -0.5654 -0.7730
  575MOL0     C77543   5.806   7.268   7.360  0.3525 -0.3981 -0.6361
  575MOL0     C77544   5.943   7.266   7.332 -1.4071 -0.6790 -0.1344
  575MOL0     C77545   6.377   7.207   7.312  0.9869  0.3936  0.6088
  575MOL0     C77546   6.414   7.196   7.180  0.7553  0.2475  0.4520
  575MOL0     C77547   6.548   7.194   7.139 -0.4200  0.1385 -0.0467
  575MOL0     C77548   6.650   7.199   7.239  0.0398 -0.9552  0.7028
  575MOL0     O77549   6.782   7.188   7.215 -0.2540 -0.0716  0.2577
  575MOL0     C77550   6.829   7.268   7.101 -0.3174  0.1520 -0.0979
  575MOL0     C77551   6.974   7.284   7.124  1.0604 -0.5495 -1.0961
  575MOL0     C77552   7.007   7.389   7.241  0.5210  0.1648 -0.1450
  575MOL0     C77553   7.071   7.327   7.373 -0.0181 -0.3326 -0.0577
  575MOL0     C77554   7.207   7.285   7.327 -0.3770  0.3993 -0.4288
  575MOL0     C77555   7.312   7.233   7.301  0.2053  0.0045 -0.3225
  575MOL0     C77556   6.610   7.197   7.375 -0.1838 -0.7250  0.3202
  575MOL0     C77557   6.480   7.208   7.416 -0.1031  0.4362  0.8190
  575MOL0     H77558   5.985   6.938   7.278 -0.7706 -1.9687  3.3267
  575MOL0     H77559   5.740   6.937   7.338 -1.0040 -0.3002 -1.7883
  575MOL0     H77560   5.615   7.283   7.545  1.2489 -2.1630 -1.1583
  575MOL0     H77561   5.505   7.344   7.415  1.5929  1.2149  0.5995
  575MOL0     H77562   5.465   7.100   7.585  0.0433  0.4660  2.5504
  575MOL0     H77563   5.425   7.261   7.651 -1.5497 -2.1400  0.8577
  575MOL0     H77564   5.292   7.269   7.413  1.2164  1.0396  1.6411
  575MOL0     H77565   5.317   7.085   7.430  4.1188 -0.5167  0.3099
  575MOL0     H77566   5.207   7.096   7.661 -0.3711  1.2199  1.3098
  575MOL0     H77567   5.178   7.268   7.637 -3.7362  0.4262  0.0390
  575MOL0     H77568   5.013   7.228   7.482  0.3029  0.1164 -2.1417
  575MOL0     H77569   5.083   7.068   7.435 -3.2946 -1.6347  0.4542
  575MOL0     H77570   5.021   6.964   7.647  0.7191  1.5966  1.0260
  575MOL0     H77571   4.945   7.113   7.703  2.7888  1.6834  0.0719
  575MOL0     H77572   4.777   7.115   7.514 -1.5344 -0.3365  0.6325
  575MOL0     H77573   4.848   6.964   7.460  2.0956 -0.2467  0.6761
  575MOL0     H77574   4.774   6.994   7.748  0.3340  0.2256 -0.6394
  575MOL0     H77575   4.783   6.847   7.665  0.3944  0.8663  0.1314
  575MOL0     H77576   4.561   6.951   7.429 -2.2574 -0.7983  0.2817
  575MOL0     H77577   4.191   7.008   7.573  1.4836  2.6944  0.8676
  575MOL0     H77578   4.273   7.047   7.425 -1.4601 -2.0935 -1.5767
  575MOL0     H77579   4.210   6.773   7.514  2.7957  3.3090  3.3060
  575MOL0     H77580   4.274   6.799   7.356 -1.7616 -2.3139  1.3145
  575MOL0     H77581   4.062   6.885   7.272  0.0913 -3.9353 -1.9890
  575MOL0     H77582   3.998   6.902   7.435  1.2154 -1.0659  1.0475
  575MOL0     H77583   4.009   6.653   7.482  1.8016 -1.5241 -1.4123
  575MOL0     H77584   4.065   6.637   7.321  3.2447 -0.0198  2.4245
  575MOL0     H77585   4.016   6.698   7.112 -0.3859  1.3588 -1.2860
  575MOL0     H77586   4.049   6.719   6.920 -1.9896  1.3609  1.9230
  575MOL0     H77587   4.018   6.552   6.857 -0.8129 -0.3845  1.0235
  575MOL0     H77588   3.930   6.693   6.787  1.9053 -0.1283  0.1895
  575MOL0     H77589   3.924   6.429   6.531  0.6300 -0.9745 -1.0889
  575MOL0     H77590   3.839   6.357   6.310 -0.8005  0.6477 -0.4324
  575MOL0     H77591   3.546   6.074   6.274 -1.7317 -1.8659 -1.3340
  575MOL0     H77592   3.434   6.199   6.259  0.3694  1.1180  0.3746
  575MOL0     H77593   3.537   6.252   6.017  2.5339 -2.1599 -3.9789
  575MOL0     H77594   3.604   6.095   6.020 -0.7640  0.4511 -1.1877
  575MOL0     H77595   3.327   6.168   6.030  1.1142  1.1213 -0.4342
  575MOL0     H77596   3.373   6.011   6.110  0.8300 -1.3739 -1.4266
  575MOL0     H77597   3.440   6.104   5.817 -0.5752  1.0365  1.5530
  575MOL0     H77598   3.470   5.948   5.880 -1.3416 -1.4300 -1.1523
  575MOL0     H77599   3.190   6.052   5.876 -0.6663  0.3892 -0.8528
  575MOL0     H77600   3.246   5.884   5.879 -2.6556 -0.5419 -3.2491
  575MOL0     H77601   3.289   6.078   5.643 -0.9719  0.8555  0.5282
  575MOL0     H77602   3.312   5.903   5.648  0.2012 -1.7280  2.4218
  575MOL0     H77603   3.046   6.048   5.680 -0.5937 -0.2935 -3.5575
  575MOL0     H77604   3.078   5.873   5.720  3.0007  0.7906  2.8651
  575MOL0     H77605   2.986   5.949   5.478  0.2904 -0.4193 -1.6213
  575MOL0     H77606   3.098   5.810   5.488 -1.7053  0.3137 -2.5570
  575MOL0     H77607   3.481   6.231   6.491  0.0781  0.2452  1.5028
  575MOL0     H77608   3.566   6.294   6.712  2.1602  1.1059  2.1130
  575MOL0     H77609   3.562   6.507   7.068  2.0512 -4.2412  2.9821
  575MOL0     H77610   3.622   6.585   7.265  1.1117  0.3304 -0.7870
  575MOL0     H77611   5.766   7.367   7.379  1.0376 -0.4600  1.3860
  575MOL0     H77612   5.988   7.364   7.342 -0.4136 -1.2542  1.4761
  575MOL0     H77613   6.337   7.197   7.103  0.4140 -0.4982  0.7702
  575MOL0     H77614   6.570   7.193   7.033  3.6088  1.4426  0.6298
  575MOL0     H77615   6.811   7.201   7.017  1.9220 -1.7953  0.8525
  575MOL0     H77616   6.778   7.363   7.086 -1.5893 -0.4332  0.4262
  575MOL0     H77617   7.017   7.319   7.029  0.1353  0.2095 -1.2428
  575MOL0     H77618   7.017   7.189   7.156 -0.6313 -1.5308 -1.6260
  575MOL0     H77619   6.914   7.439   7.272 -0.9136 -2.6358  0.3765
  575MOL0     H77620   7.076   7.470   7.215 -0.9850  2.0026  1.2153
  575MOL0     H77621   7.020   7.240   7.416  1.1662 -0.4289  1.2143
  575MOL0     H77622   7.083   7.405   7.449 -0.5972 -1.5426  1.3189
  575MOL0     H77623   7.405   7.203   7.258  1.0215  0.7816  0.8516
  575MOL0     H77624   6.683   7.206   7.454 -0.2889  0.4599  0.2992
  575MOL0     H77625   6.451   7.217   7.520 -3.4598  0.0163  0.0364
  576MOL0     O77626   0.976   1.936   5.354 -0.2212  0.5734 -0.1600
  576MOL0     C77627   0.901   1.938   5.450 -0.4760 -1.0106  0.2624
  576MOL0     O77628   0.770   1.983   5.454  0.6737 -0.6301  0.4217
  576MOL0     C77629   0.730   2.059   5.344  0.7929  0.4168  0.1210
  576MOL0     C77630   0.726   2.001   5.218  0.1167  0.3540  0.0763
  576MOL0     C77631   0.696   2.073   5.104 -1.1709 -0.1344  0.4545
  576MOL0     C77632   0.653   2.205   5.112 -0.7217 -0.8923 -0.8040
  576MOL0     O77633   0.634   2.287   5.006 -0.3942  0.1535  0.4641
  576MOL0     C77634   0.735   2.277   4.907 -0.3305 -0.6241  0.7463
  576MOL0     C77635   0.745   2.413   4.830 -0.1228  0.1542 -0.6991
  576MOL0     C77636   0.646   2.416   4.699  0.5055  0.2832 -0.4105
  576MOL0     C77637   0.497   2.382   4.736  0.1946  0.1049 -0.3330
  576MOL0     C77638   0.388   2.405   4.620 -0.8654 -0.8677 -0.5702
  576MOL0     C77639   0.260   2.365   4.693  0.5382  0.5065  0.4921
  576MOL0     C77640   0.138   2.402   4.611 -0.2593 -0.0610  0.1497
  576MOL0     C77641   0.009   2.376   4.688  0.8396 -0.6274  0.5472
  576MOL0     N77642  -0.111   2.371   4.591 -0.7774  0.3193 -0.0130
  576MOL0     C77643  -0.216   2.446   4.617  0.2121 -0.5696  0.4107
  576MOL0     C77644  -0.292   2.432   4.500  0.7336 -0.0160  0.3171
  576MOL0     C77645  -0.421   2.496   4.471  0.2896 -0.5447 -0.4554
  576MOL0     C77646  -0.410   2.613   4.369 -0.0000  0.9785 -0.7699
  576MOL0     C77647  -0.480   2.743   4.418 -0.5965 -0.3796  0.1975
  576MOL0     C77648  -0.630   2.721   4.414  0.0235 -0.8983  0.0461
  576MOL0     O77649  -0.685   2.846   4.479 -0.7050  0.0392 -0.2215
  576MOL0     C77650  -0.817   2.860   4.498 -0.5239  0.0988  0.7991
  576MOL0     C77651  -0.915   2.773   4.448  0.1043  0.3098 -0.6615
  576MOL0     C77652  -1.052   2.790   4.454  0.3639 -0.0007  0.9221
  576MOL0     C77653  -1.125   2.696   4.361 -0.1437 -0.6228  0.2867
  576MOL0     C77654  -1.101   2.891   4.544 -0.0861  0.3799  0.0189
  576MOL0     C77655  -1.243   2.914   4.571  0.1094  0.4676 -0.6075
  576MOL0     O77656  -1.269   3.021   4.651 -0.2231 -0.2716  0.5699
  576MOL0     C77657  -1.392   3.055   4.689  0.5925 -0.3119 -0.4053
  576MOL0     C77658  -1.490   3.088   4.602  0.6347  0.4131 -0.4367
  576MOL0     C77659  -1.617   3.112   4.645  0.2354  0.2800  0.2906
  576MOL0     C77660  -1.661   3.090   4.772 -0.6554 -0.0722 -0.0532
  576MOL0     O77661  -1.790   3.088   4.811 -0.1137 -0.1725  0.4923
  576MOL0     C77662  -1.824   3.146   4.939  1.0505  0.2005 -0.3265
  576MOL0     C77663  -1.944   3.244   4.924 -0.4158 -0.7371 -0.3861
  576MOL0     C77664  -1.988   3.298   5.051 -0.3924  0.1822 -0.4277
  576MOL0     C77665  -2.112   3.383   5.027  0.5355 -0.3281 -0.5058
  576MOL0     C77666  -2.165   3.424   5.169  1.1382 -0.5431  0.5120
  576MOL0     C77667  -2.279   3.521   5.157  0.1088 -0.4012  0.1618
  576MOL0     C77668  -2.298   3.597   5.295  0.0714 -0.0963  0.5433
  576MOL0     C77669  -2.424   3.672   5.293 -0.2431  0.1444  0.5917
  576MOL0    Cl77670  -2.405   3.811   5.179 -0.1308  0.1254  0.2966
  576MOL0     C77671  -1.553   3.063   4.869 -0.0102  0.1402  0.6102
  576MOL0     C77672  -1.422   3.054   4.822  1.2233  0.1488  0.2182
  576MOL0     O77673  -1.328   2.836   4.523  0.5794 -0.3445 -0.4121
  576MOL0     C77674  -1.007   2.976   4.596  0.8630  0.3782  0.2033
  576MOL0     C77675  -0.868   2.969   4.567  0.5504 -0.0966  0.0633
  576MOL0     N77676  -0.227   2.344   4.411  0.1500  0.0457  0.3228
  576MOL0     N77677  -0.116   2.309   4.473  0.3464 -0.1334 -0.5996
  576MOL0     C77678   0.652   2.268   5.238  0.8198 -0.2894 -0.9686
  576MOL0     C77679   0.696   2.198   5.351 -0.5177 -0.3658  0.1288
  576MOL0     C77680   0.963   1.894   5.581 -0.2914 -0.4421 -0.3622
  576MOL0     C77681   1.096   1.877   5.594  0.2824  0.1862  0.6744
  576MOL0     C77682   1.159   1.843   5.714 -1.2604 -0.3034 -0.1793
  576MOL0     C77683   1.081   1.818   5.829  0.6490 -0.0829  0.0794
  576MOL0     O77684   1.156   1.774   5.937  0.9311 -1.0132  0.4857
  576MOL0     C77685   1.074   1.773   6.056 -0.3497  0.0721 -0.6768
  576MOL0     C77686   1.167   1.733   6.172  0.1880  1.0851 -0.5088
  576MOL0     C77687   1.259   1.851   6.206 -0.2805  0.2916 -0.5169
  576MOL0     C77688   1.355   1.826   6.321  0.0289 -0.2420 -0.1444
  576MOL0     C77689   1.280   1.798   6.437 -0.1868  0.3696 -0.6111
  576MOL0     C77690   1.216   1.757   6.537  0.5353  0.9071 -0.4669
  576MOL0     C77691   0.942   1.836   5.823 -0.0299 -0.1711  0.0754
  576MOL0     C77692   0.884   1.885   5.706 -0.4075  0.8044  0.5943
  576MOL0     H77693   0.745   1.894   5.205  0.7862  0.5879 -0.9425
  576MOL0     H77694   0.703   2.033   5.003 -4.0757  1.6731 -0.6068
  576MOL0     H77695   0.833   2.248   4.947 -0.2546 -4.8579 -1.9079
  576MOL0     H77696   0.696   2.205   4.835 -0.7971 -0.0915  0.4557
  576MOL0     H77697   0.739   2.499   4.897  1.6251 -0.4472  0.2921
  576MOL0     H77698   0.848   2.424   4.793  0.5403 -4.3238 -0.7281
  576MOL0     H77699   0.654   2.514   4.651 -2.7024  0.2872 -1.1328
  576MOL0     H77700   0.673   2.349   4.617 -0.4650 -0.1482 -0.3799
  576MOL0     H77701   0.494   2.274   4.749 -0.1302 -0.0819 -1.7434
  576MOL0     H77702   0.466   2.438   4.824  0.0839  1.7990 -1.3820
  576MOL0     H77703   0.387   2.510   4.591  1.3304 -1.1355 -1.8048
  576MOL0     H77704   0.415   2.331   4.545 -2.1784 -2.1849  0.1947
  576MOL0     H77705   0.255   2.256   4.697 -1.8588  0.5644  0.5844
  576MOL0     H77706   0.253   2.413   4.791 -1.4800  1.0302  0.1284
  576MOL0     H77707   0.139   2.509   4.589  0.7818 -0.0767  0.0502
  576MOL0     H77708   0.137   2.334   4.524 -2.2733 -0.1997  0.2371
  576MOL0     H77709  -0.014   2.454   4.761  1.3183 -0.7641  0.8548
  576MOL0     H77710   0.029   2.289   4.752  3.4544 -0.5680 -0.0707
  576MOL0     H77711  -0.244   2.505   4.704  3.5969  0.2038  1.1291
  576MOL0     H77712  -0.505   2.433   4.440 -0.4621  1.1814 -2.1404
  576MOL0     H77713  -0.457   2.536   4.566  2.2427 -3.4966  1.6938
  576MOL0     H77714  -0.422   2.577   4.267  3.8311  0.3732 -1.1564
  576MOL0     H77715  -0.302   2.631   4.364 -0.0602  1.4903 -0.2990
  576MOL0     H77716  -0.450   2.836   4.368 -0.6788  1.4168  3.1940
  576MOL0     H77717  -0.445   2.758   4.521 -1.6898  0.6770  0.4444
  576MOL0     H77718  -0.662   2.629   4.463 -0.5534 -2.4742 -3.0058
  576MOL0     H77719  -0.669   2.722   4.311 -0.9592  4.4837  0.1750
  576MOL0     H77720  -0.874   2.688   4.395  1.6866  1.6991 -1.7877
  576MOL0     H77721  -1.151   2.601   4.408  0.8158 -0.6510  0.7872
  576MOL0     H77722  -1.206   2.753   4.316 -0.9192 -1.0542  1.1206
  576MOL0     H77723  -1.063   2.675   4.273 -0.4436  1.9147 -0.6051
  576MOL0     H77724  -1.479   3.103   4.495 -2.3445  0.3411 -0.8509
  576MOL0     H77725  -1.700   3.139   4.580  0.4133  1.3589  0.4881
  576MOL0     H77726  -1.861   3.060   4.995  0.6097 -0.9218 -2.2819
  576MOL0     H77727  -1.740   3.191   4.993 -0.9748  4.4409 -0.2803
  576MOL0     H77728  -1.904   3.325   4.862 -1.4521  2.4587  2.7625
  576MOL0     H77729  -2.028   3.204   4.866  0.4714  0.6608 -2.7667
  576MOL0     H77730  -1.911   3.363   5.092 -2.2907 -0.0390  4.1231
  576MOL0     H77731  -2.016   3.226   5.129  0.7038 -0.2733 -0.4413
  576MOL0     H77732  -2.094   3.468   4.961  1.1314 -0.9061 -1.1019
  576MOL0     H77733  -2.188   3.332   4.968  1.7674  0.2386 -2.7084
  576MOL0     H77734  -2.073   3.462   5.215  1.7511  1.5763 -2.2008
  576MOL0     H77735  -2.200   3.344   5.235 -1.9958 -0.4073 -0.8245
  576MOL0     H77736  -2.250   3.597   5.084  0.2476 -0.0784  0.5473
  576MOL0     H77737  -2.369   3.464   5.132  0.2955 -0.4140 -0.4898
  576MOL0     H77738  -2.223   3.675   5.306  1.0980 -0.7419 -1.3271
  576MOL0     H77739  -2.290   3.534   5.384 -0.2118  1.3991  1.6736
  576MOL0     H77740  -2.456   3.692   5.395  0.2937 -0.9960  0.9981
  576MOL0     H77741  -2.505   3.612   5.250  0.0352 -0.5624  1.0400
  576MOL0     H77742  -1.565   3.064   4.977  1.1473 -1.0333  0.7775
  576MOL0     H77743  -1.343   3.031   4.892  0.7172  1.0448  1.1150
  576MOL0     H77744  -1.043   3.058   4.657 -0.4203  0.6078 -0.8232
  576MOL0     H77745  -0.800   3.050   4.595  0.2874  0.7760 -1.6804
  576MOL0     H77746   0.620   2.372   5.233  2.6748  0.3020 -1.8801
  576MOL0     H77747   0.691   2.229   5.455  0.7521  0.0750  0.0740
  576MOL0     H77748   1.161   1.894   5.509  0.2498  2.2669  1.0146
  576MOL0     H77749   1.267   1.827   5.709 -1.5384 -2.1922 -4.4840
  576MOL0     H77750   1.028   1.865   6.094 -1.2835 -0.9565  0.7795
  576MOL0     H77751   0.987   1.706   6.053 -2.1253  2.0087  2.1596
  576MOL0     H77752   1.214   1.636   6.156 -0.5445  0.1718  2.3422
  576MOL0     H77753   1.095   1.720   6.253  1.1228 -3.2137 -0.1358
  576MOL0     H77754   1.208   1.947   6.219 -0.4436  0.2157 -0.5893
  576MOL0     H77755   1.326   1.856   6.119  0.7482 -1.0791  0.1566
  576MOL0     H77756   1.417   1.915   6.335 -0.0348 -0.0008 -1.3402
  576MOL0     H77757   1.409   1.733   6.303 -1.1305 -0.8231 -0.6496
  576MOL0     H77758   1.163   1.739   6.628  0.9289  0.9992 -0.2183
  576MOL0     H77759   0.865   1.812   5.896 -1.4338 -1.4297 -1.7109
  576MOL0     H77760   0.777   1.897   5.722 -0.0781  1.4284  2.5745
  577MOL0     O77761   3.925   7.454   4.675 -0.3523  0.2081  0.1080
  577MOL0     C77762   3.914   7.368   4.767 -0.1476  0.1011  1.4203
  577MOL0     O77763   3.798   7.301   4.793  0.1597  0.5892  0.8631
  577MOL0     C77764   3.684   7.308   4.715  0.4260 -0.0257 -0.6216
  577MOL0     C77765   3.672   7.335   4.581 -0.1300  0.7582  0.8173
  577MOL0     C77766   3.553   7.349   4.508  0.1939  0.2438 -0.0306
  577MOL0     C77767   3.433   7.358   4.586 -1.6463  0.5826  0.1905
  577MOL0     O77768   3.312   7.390   4.524  0.3472  0.6656  0.3371
  577MOL0     C77769   3.238   7.498   4.589 -0.9157 -0.1709 -0.7286
  577MOL0     C77770   3.092   7.485   4.567 -0.3570 -0.6824 -0.4626
  577MOL0     C77771   3.022   7.370   4.644 -1.4745  0.1492  0.3010
  577MOL0     C77772   2.871   7.368   4.604  0.3196  0.1497 -0.0480
  577MOL0     C77773   2.790   7.241   4.640  0.2540  0.9483 -0.1365
  577MOL0     C77774   2.651   7.250   4.573  0.0215 -0.6906 -0.0467
  577MOL0     C77775   2.559   7.357   4.639  0.1682 -0.4082 -0.0551
  577MOL0     C77776   2.443   7.389   4.541 -0.4552 -0.3360 -0.3615
  577MOL0     N77777   2.342   7.287   4.529  0.4298 -0.2005  0.4393
  577MOL0     C77778   2.264   7.234   4.634 -0.4362  0.5674 -0.3938
  577MOL0     C77779   2.195   7.133   4.581  0.5456  0.2685  0.0751
  577MOL0     C77780   2.102   7.038   4.656 -0.3446  0.2482  0.5448
  577MOL0     C77781   1.954   7.017   4.612 -0.3498 -0.0930  0.1986
  577MOL0     C77782   1.943   6.963   4.470  0.8102 -0.2046  0.1343
  577MOL0     C77783   1.798   6.920   4.433 -0.5795  1.0006 -0.6072
  577MOL0     O77784   1.733   6.824   4.519  0.3062 -0.3470  0.2225
  577MOL0     C77785   1.597   6.823   4.511  0.3335 -0.5941  0.2626
  577MOL0     C77786   1.522   6.759   4.622 -0.4231  0.4415  0.8115
  577MOL0     C77787   1.377   6.750   4.630  0.1868 -0.0974 -0.1647
  577MOL0     C77788   1.323   6.664   4.739 -0.1263 -0.4724 -0.0290
  577MOL0     C77789   1.299   6.807   4.529 -0.8958 -1.0727 -1.5083
  577MOL0     C77790   1.153   6.800   4.516  0.2965 -0.4286 -0.2128
  577MOL0     O77791   1.094   6.812   4.392 -0.0615 -0.7143 -1.1230
  577MOL0     C77792   0.957   6.795   4.371  0.9592 -0.5668 -0.9562
  577MOL0     C77793   0.896   6.896   4.281 -0.4861  0.1458  0.0367
  577MOL0     C77794   0.766   6.884   4.241  0.4712  0.6185 -0.1181
  577MOL0     C77795   0.695   6.767   4.266 -0.6259  0.7434 -0.0149
  577MOL0     O77796   0.564   6.758   4.222  0.2947 -0.4936 -0.3273
  577MOL0     C77797   0.484   6.645   4.254 -0.0969 -1.0142  1.1535
  577MOL0     C77798   0.352   6.662   4.179 -0.1908  1.1839 -1.3354
  577MOL0     C77799   0.237   6.732   4.262  0.2779  1.3346 -0.9018
  577MOL0     C77800   0.168   6.612   4.335 -0.5229  0.5057  0.8761
  577MOL0     C77801   0.094   6.652   4.461 -0.6664  1.2874  0.6595
  577MOL0     C77802   0.004   6.777   4.466  0.0731 -0.4978  0.0256
  577MOL0     C77803  -0.125   6.743   4.377 -0.0870  0.7902 -0.0694
  577MOL0     C77804  -0.236   6.849   4.378  1.1282 -0.4191 -0.1262
  577MOL0    Cl77805  -0.357   6.792   4.265  0.2776 -0.2044  0.1891
  577MOL0     C77806   0.754   6.675   4.355  0.0866  0.1971 -0.1508
  577MOL0     C77807   0.887   6.681   4.410 -0.1661  0.1552 -0.1800
  577MOL0     O77808   1.094   6.788   4.621 -0.0715 -0.5411 -0.0734
  577MOL0     C77809   1.380   6.869   4.427  0.8573 -0.2731 -0.4544
  577MOL0     C77810   1.515   6.883   4.412 -0.0884  0.1845 -0.0666
  577MOL0     N77811   2.226   7.116   4.447 -0.2073 -0.3664  0.3587
  577MOL0     N77812   2.321   7.205   4.418  0.1493 -0.1007 -0.0886
  577MOL0     C77813   3.437   7.326   4.722  0.0144 -1.1158  0.0239
  577MOL0     C77814   3.563   7.299   4.785 -0.6285 -0.6476 -0.5214
  577MOL0     C77815   4.036   7.345   4.849 -0.3902 -0.3541 -0.1054
  577MOL0     C77816   4.158   7.417   4.826  0.9486  0.3149 -0.1745
  577MOL0     C77817   4.267   7.395   4.910  0.8130  0.9384 -0.0260
  577MOL0     C77818   4.259   7.294   5.013  0.7801  0.6654 -0.2529
  577MOL0     O77819   4.369   7.280   5.089 -0.0606  0.5660 -0.6650
  577MOL0     C77820   4.370   7.222   5.218  0.0126 -0.5852 -0.5512
  577MOL0     C77821   4.407   7.078   5.212 -0.6034  0.5519 -0.0432
  577MOL0     C77822   4.562   7.050   5.222  0.0436  0.7598  0.1903
  577MOL0     C77823   4.566   6.898   5.208 -0.2284 -0.7043  0.7942
  577MOL0     C77824   4.698   6.855   5.194 -0.6435 -0.9574  0.3320
  577MOL0     C77825   4.812   6.827   5.194 -0.4651  0.5296 -0.9386
  577MOL0     C77826   4.152   7.207   5.016 -0.4434 -0.2802 -0.6728
  577MOL0     C77827   4.037   7.242   4.939  0.4560 -0.0598 -0.6826
  577MOL0     H77828   3.766   7.332   4.527 -1.1684 -1.2591 -1.0349
  577MOL0     H77829   3.539   7.377   4.404  0.6518  1.9000  0.3138
  577MOL0     H77830   3.262   7.506   4.696 -0.2764 -0.8063 -0.8157
  577MOL0     H77831   3.269   7.594   4.548  0.0669  0.0583  0.4845
  577MOL0     H77832   3.046   7.583   4.579  0.9406  0.0495 -1.1811
  577MOL0     H77833   3.078   7.460   4.461 -1.7864 -2.0872  0.0263
  577MOL0     H77834   3.065   7.273   4.617 -2.2317 -0.4812  1.2826
  577MOL0     H77835   3.028   7.396   4.750 -1.5986 -1.0953  0.6258
  577MOL0     H77836   2.838   7.457   4.657 -1.3171  0.3652 -1.3403
  577MOL0     H77837   2.875   7.390   4.497 -1.3645  3.4307  0.4446
  577MOL0     H77838   2.841   7.148   4.612  1.6977  1.0728  1.8433
  577MOL0     H77839   2.789   7.235   4.749  1.4592  1.5023 -0.0798
  577MOL0     H77840   2.668   7.278   4.468  2.5391 -1.1659  0.1719
  577MOL0     H77841   2.598   7.154   4.572 -2.2095  0.4200  1.3664
  577MOL0     H77842   2.508   7.326   4.731 -0.8702  0.8593 -0.1744
  577MOL0     H77843   2.619   7.448   4.647  0.0249 -0.1821 -1.4262
  577MOL0     H77844   2.486   7.409   4.442 -0.5455 -0.2870 -0.3906
  577MOL0     H77845   2.387   7.474   4.581 -1.4896 -1.1463 -0.0572
  577MOL0     H77846   2.270   7.267   4.738 -0.9618 -0.1347 -0.1360
  577MOL0     H77847   2.148   6.940   4.645  2.6670  1.7746 -1.6304
  577MOL0     H77848   2.089   7.068   4.761 -1.0562  0.7550  0.3230
  577MOL0     H77849   1.905   7.115   4.616  1.7014  0.9286  2.1665
  577MOL0     H77850   1.914   6.941   4.679  2.1080 -0.6539  1.1051
  577MOL0     H77851   2.003   6.873   4.455  1.0973 -0.3214  1.7989
  577MOL0     H77852   1.977   7.043   4.404  1.4780 -0.8096 -0.2709
  577MOL0     H77853   1.804   6.893   4.327  0.9768  1.0849 -0.5704
  577MOL0     H77854   1.744   7.015   4.445 -2.0639  0.1661 -0.4569
  577MOL0     H77855   1.574   6.706   4.701 -2.0848 -0.4368  1.3664
  577MOL0     H77856   1.407   6.633   4.803  0.1042  1.0496  0.4466
  577MOL0     H77857   1.254   6.721   4.801  1.1613 -1.8956  2.9012
  577MOL0     H77858   1.270   6.581   4.691 -1.2122 -1.5928  2.8657
  577MOL0     H77859   0.952   6.984   4.251  1.0061 -0.5675  0.6519
  577MOL0     H77860   0.719   6.951   4.169  2.4472  1.2552 -0.8675
  577MOL0     H77861   0.535   6.564   4.201  3.3467  0.3952  2.0286
  577MOL0     H77862   0.479   6.634   4.362  0.5521  0.1942  1.3262
  577MOL0     H77863   0.367   6.716   4.085 -2.4474  0.1210 -2.3669
  577MOL0     H77864   0.318   6.561   4.154 -0.6403  1.4956 -2.0037
  577MOL0     H77865   0.164   6.791   4.207 -0.9183  0.3875 -0.3887
  577MOL0     H77866   0.273   6.800   4.340  0.5534  0.8112 -0.5683
  577MOL0     H77867   0.094   6.566   4.269 -0.2917 -0.9228  1.5695
  577MOL0     H77868   0.254   6.548   4.354  1.5822  2.5429 -1.0999
  577MOL0     H77869   0.170   6.661   4.538 -1.2482  0.6870  1.3188
  577MOL0     H77870   0.035   6.571   4.503  0.0272 -0.6875 -1.8941
  577MOL0     H77871  -0.026   6.808   4.566 -1.2947 -1.5415 -0.0337
  577MOL0     H77872   0.066   6.856   4.423  1.1457 -0.0755  2.2187
  577MOL0     H77873  -0.176   6.653   4.412  0.2780  1.1228  1.3884
  577MOL0     H77874  -0.094   6.741   4.272 -1.0512  0.2205 -0.3530
  577MOL0     H77875  -0.198   6.944   4.342 -0.4026 -0.4699 -2.0353
  577MOL0     H77876  -0.271   6.873   4.479 -1.2873  4.6472 -1.8451
  577MOL0     H77877   0.686   6.595   4.384 -0.0189 -0.4329 -2.0184
  577MOL0     H77878   0.924   6.595   4.465 -1.0319  0.7502  1.4252
  577MOL0     H77879   1.323   6.908   4.343  0.9699  1.6866  0.3407
  577MOL0     H77880   1.551   6.937   4.325 -2.8124  1.5680 -0.4386
  577MOL0     H77881   3.350   7.326   4.786 -2.6653 -1.5966 -3.3336
  577MOL0     H77882   3.579   7.273   4.889 -2.0518  1.5382  0.3254
  577MOL0     H77883   4.166   7.484   4.741  1.3082  1.3231  0.6290
  577MOL0     H77884   4.352   7.458   4.889  0.4222  0.9980 -1.5176
  577MOL0     H77885   4.443   7.282   5.274 -2.8354  0.6891  2.0515
  577MOL0     H77886   4.275   7.225   5.271  1.2741  2.2559  1.8191
  577MOL0     H77887   4.353   7.039   5.126  1.0174  0.4626 -1.0584
  577MOL0     H77888   4.368   7.042   5.308  0.9464  0.8994  0.7559
  577MOL0     H77889   4.607   7.092   5.312 -2.2820  4.0889  0.0050
  577MOL0     H77890   4.608   7.101   5.137 -2.2351  1.7986 -0.5124
  577MOL0     H77891   4.505   6.874   5.120  0.1978  1.1953 -0.0823
  577MOL0     H77892   4.525   6.852   5.299 -1.4922 -0.9519  0.1277
  577MOL0     H77893   4.911   6.789   5.180 -0.7426  0.3114 -2.5694
  577MOL0     H77894   4.142   7.122   5.083 -1.7072  1.0435  0.9006
  577MOL0     H77895   3.950   7.180   4.957  0.4932  0.6551  2.5229
  578MOL0     O77896   0.711  10.995   5.102  0.0440 -0.0541  0.0110
  578MOL0     C77897   0.746  11.063   5.006 -0.0454 -0.4839  0.2738
  578MOL0     O77898   0.832  11.168   5.009 -0.1567  0.2421 -0.1673
  578MOL0     C77899   0.951  11.165   5.087 -0.3969 -0.3554 -0.0418
  578MOL0     C77900   1.009  11.285   5.133  0.0820  1.0960  0.0399
  578MOL0     C77901   1.136  11.291   5.201  0.4228  0.6905  0.1826
  578MOL0     C77902   1.198  11.172   5.241 -0.6073 -0.3123  0.0820
  578MOL0     O77903   1.317  11.175   5.312  0.1349 -0.0178 -0.0209
  578MOL0     C77904   1.406  11.071   5.297  0.1051  0.1644  0.1115
  578MOL0     C77905   1.536  11.107   5.371  1.2580  0.5501 -0.0076
  578MOL0     C77906   1.619  11.211   5.305 -0.1201 -0.1480  0.1453
  578MOL0     C77907   1.733  11.258   5.392  0.1203  0.6453  0.5906
  578MOL0     C77908   1.835  11.150   5.411  0.1357  0.3241 -0.4758
  578MOL0     C77909   1.947  11.219   5.492  0.3273  0.8444 -0.9128
  578MOL0     C77910   2.058  11.285   5.407 -0.6721  0.2721  0.1837
  578MOL0     C77911   2.195  11.204   5.407 -1.2151  0.0475 -0.4278
  578MOL0     N77912   2.187  11.078   5.318 -0.5386 -0.2628  0.6961
  578MOL0     C77913   2.106  10.966   5.332 -0.7231 -0.2620 -0.2686
  578MOL0     C77914   2.154  10.875   5.243 -0.0480  1.2448  0.2656
  578MOL0     C77915   2.098  10.729   5.248 -0.5764  0.2014 -0.1324
  578MOL0     C77916   1.994  10.709   5.134  0.6568 -0.7793 -0.5543
  578MOL0     C77917   1.853  10.755   5.203 -0.0922  0.4442 -0.0338
  578MOL0     C77918   1.751  10.793   5.098 -0.6967 -0.0703  0.0976
  578MOL0     O77919   1.625  10.833   5.160 -0.0109 -0.0546  0.4360
  578MOL0     C77920   1.513  10.780   5.108  0.3364 -1.0333  0.2145
  578MOL0     C77921   1.442  10.687   5.172 -0.5213 -0.1297 -0.0039
  578MOL0     C77922   1.320  10.645   5.137  0.0502  0.7695 -0.5605
  578MOL0     C77923   1.258  10.533   5.225 -0.2452 -0.4229 -0.4566
  578MOL0     C77924   1.256  10.699   5.023  0.1062 -0.6233 -0.3784
  578MOL0     C77925   1.118  10.665   4.970  0.2725  0.0384  0.4889
  578MOL0     O77926   1.100  10.696   4.836 -0.1641  0.8004 -0.7519
  578MOL0     C77927   0.979  10.645   4.789  0.0599 -0.1155  0.9465
  578MOL0     C77928   0.862  10.718   4.805  0.1999 -0.0499 -0.4362
  578MOL0     C77929   0.748  10.674   4.744 -0.5059 -0.3714  0.9429
  578MOL0     C77930   0.737  10.550   4.681  0.1441  0.1226  0.4963
  578MOL0     O77931   0.615  10.517   4.634 -0.3406 -0.3511  0.7214
  578MOL0     C77932   0.589  10.379   4.601 -0.5669  0.8738  0.9697
  578MOL0     C77933   0.444  10.355   4.588 -0.5817 -0.1737 -0.5074
  578MOL0     C77934   0.414  10.207   4.564  0.2891  0.4812  0.5031
  578MOL0     C77935   0.265  10.187   4.521  0.3972 -0.5195 -0.5061
  578MOL0     C77936   0.233  10.042   4.486 -0.1516 -0.1497  0.1105
  578MOL0     C77937   0.102  10.024   4.406 -0.2392  0.3143  0.1734
  578MOL0     C77938  -0.025  10.069   4.483 -0.9318 -0.4122  0.7445
  578MOL0     C77939  -0.145  10.073   4.406  0.5326 -0.5204  0.3141
  578MOL0    Cl77940  -0.283  10.085   4.514 -0.2519  0.1719  0.1785
  578MOL0     C77941   0.851  10.473   4.663 -0.4061 -0.5668 -0.8143
  578MOL0     C77942   0.976  10.521   4.729  0.3910  0.9577  0.2568
  578MOL0     O77943   1.033  10.607   5.040 -0.0051  0.2027  0.5701
  578MOL0     C77944   1.334  10.786   4.944  0.1586 -0.2451  0.2926
  578MOL0     C77945   1.456  10.834   4.989 -0.6604  0.9392 -1.0358
  578MOL0     N77946   2.268  10.936   5.177  0.0364 -0.2333  1.0711
  578MOL0     N77947   2.285  11.047   5.238  0.2532  0.2298  0.3291
  578MOL0     C77948   1.132  11.056   5.197 -0.1288 -0.6391 -1.5387
  578MOL0     C77949   1.018  11.050   5.124  0.2262  0.0444 -0.2544
  578MOL0     C77950   0.671  11.045   4.880  0.2943  0.3997  0.2272
  578MOL0     C77951   0.721  11.097   4.761 -0.1561  0.2998  0.2840
  578MOL0     C77952   0.650  11.071   4.647  1.4087  0.3311 -0.5714
  578MOL0     C77953   0.532  10.993   4.639  0.9800 -0.7691  1.0529
  578MOL0     O77954   0.485  10.968   4.516  0.0237 -0.1125 -0.0483
  578MOL0     C77955   0.437  10.835   4.501  0.1622 -0.0701 -0.4292
  578MOL0     C77956   0.384  10.820   4.357 -0.1142  0.2172  0.4625
  578MOL0     C77957   0.514  10.826   4.262  0.4260  0.4610 -0.2266
  578MOL0     C77958   0.472  10.755   4.127  0.2171 -0.0861 -0.1570
  578MOL0     C77959   0.505  10.610   4.146 -0.5519  0.2661  0.5335
  578MOL0     C77960   0.515  10.483   4.167  0.3630  0.3147 -0.1876
  578MOL0     C77961   0.478  10.950   4.757  0.0765  0.2023  0.1960
  578MOL0     C77962   0.549  10.970   4.880  0.1883  0.9247 -0.4978
  578MOL0     H77963   0.956  11.376   5.106 -1.0160  0.4626  0.0257
  578MOL0     H77964   1.167  11.389   5.233  0.7140  0.4294  0.7093
  578MOL0     H77965   1.370  10.980   5.346 -0.3711  0.8304  1.0345
  578MOL0     H77966   1.438  11.059   5.193  1.3601  0.1357  0.4844
  578MOL0     H77967   1.508  11.151   5.467  3.4432 -0.5009  1.1912
  578MOL0     H77968   1.590  11.014   5.389  2.1853  1.4697  2.2845
  578MOL0     H77969   1.657  11.178   5.208 -1.6190  0.9501 -0.8654
  578MOL0     H77970   1.554  11.293   5.273 -0.5851 -1.4233 -2.4543
  578MOL0     H77971   1.783  11.343   5.344  3.2501 -1.5922 -0.4491
  578MOL0     H77972   1.696  11.294   5.488 -0.1955  0.4901  0.5277
  578MOL0     H77973   1.787  11.063   5.456  0.8379 -2.1589 -4.1310
  578MOL0     H77974   1.879  11.111   5.318  1.3493  2.8556 -1.0505
  578MOL0     H77975   1.909  11.285   5.571  3.3013 -0.7083  2.0992
  578MOL0     H77976   1.997  11.144   5.555  0.8568  1.3811 -0.6817
  578MOL0     H77977   2.028  11.304   5.304 -2.0182 -0.7223  0.3660
  578MOL0     H77978   2.079  11.382   5.454 -1.1107  0.7823 -0.6461
  578MOL0     H77979   2.217  11.165   5.507  3.0336 -0.8391 -1.4958
  578MOL0     H77980   2.278  11.267   5.373  0.3109 -2.7964 -2.4798
  578MOL0     H77981   2.025  10.956   5.404 -2.4281  4.1496 -1.1989
  578MOL0     H77982   2.183  10.660   5.246  0.5005  1.4107  1.5417
  578MOL0     H77983   2.036  10.716   5.337  0.6796 -2.4878  0.4337
  578MOL0     H77984   1.996  10.604   5.104  1.5499 -0.5636 -1.2788
  578MOL0     H77985   2.012  10.765   5.042 -3.8452 -1.4570 -2.1419
  578MOL0     H77986   1.864  10.840   5.271 -4.2572  0.9955  0.1740
  578MOL0     H77987   1.800  10.677   5.258 -1.1982  0.9607 -0.3283
  578MOL0     H77988   1.740  10.706   5.032  0.9951  0.3394 -0.7736
  578MOL0     H77989   1.786  10.872   5.032 -3.3146 -0.4947 -1.9730
  578MOL0     H77990   1.498  10.640   5.252  0.8075 -0.1453 -0.9162
  578MOL0     H77991   1.252  10.440   5.168 -2.5247 -0.3467 -0.4150
  578MOL0     H77992   1.335  10.519   5.302  1.3194 -0.0829 -1.8960
  578MOL0     H77993   1.158  10.560   5.258  0.2711  1.2731 -0.1836
  578MOL0     H77994   0.860  10.808   4.866  1.8487 -1.4391  1.8578
  578MOL0     H77995   0.654  10.727   4.759 -1.2429  0.0035 -3.6675
  578MOL0     H77996   0.633  10.343   4.508 -2.4232 -1.9695  1.0650
  578MOL0     H77997   0.628  10.314   4.681 -0.8983 -3.3391 -1.9877
  578MOL0     H77998   0.398  10.380   4.684 -0.7892 -1.6167 -0.2027
  578MOL0     H77999   0.399  10.409   4.504  1.6946  1.2904 -0.8732
  578MOL0     H78000   0.430  10.151   4.657  1.0021 -2.4182 -1.2274
  578MOL0     H78001   0.476  10.174   4.479 -0.5305  0.4912 -0.1060
  578MOL0     H78002   0.201  10.215   4.606 -0.9296  0.1408 -1.6896
  578MOL0     H78003   0.237  10.249   4.435 -1.2473 -0.3814  0.0898
  578MOL0     H78004   0.224   9.983   4.577 -1.6318  0.5006  0.4241
  578MOL0     H78005   0.313  10.008   4.420  0.2791 -0.9956  1.0542
  578MOL0     H78006   0.099  10.084   4.314  0.7500 -0.3444 -0.3167
  578MOL0     H78007   0.095   9.921   4.372  0.3980  0.9752 -2.1857
  578MOL0     H78008  -0.003  10.165   4.529 -1.2074 -0.0234  0.0811
  578MOL0     H78009  -0.039  10.001   4.567  2.2401 -1.4317  0.5859
  578MOL0     H78010  -0.151   9.984   4.343  2.5132 -0.1577 -0.4673
  578MOL0     H78011  -0.158  10.154   4.334  1.7116  1.5461  2.2852
  578MOL0     H78012   0.861  10.375   4.618  2.8716 -0.3273 -0.8246
  578MOL0     H78013   1.073  10.471   4.731 -0.5975 -1.1119  2.4106
  578MOL0     H78014   1.300  10.833   4.852 -0.5865 -2.0078 -0.3727
  578MOL0     H78015   1.505  10.917   4.939  1.5813 -1.0055 -2.2742
  578MOL0     H78016   1.166  10.959   5.232 -0.6554 -0.1160  0.5641
  578MOL0     H78017   0.976  10.951   5.107  1.5187 -0.3756 -1.1493
  578MOL0     H78018   0.815  11.152   4.759  1.8264 -2.8554  0.3490
  578MOL0     H78019   0.689  11.112   4.554 -1.7411 -0.6039 -2.4470
  578MOL0     H78020   0.499  10.749   4.529 -0.7461 -1.0800 -1.4067
  578MOL0     H78021   0.350  10.820   4.566  0.9181 -0.0950  0.6027
  578MOL0     H78022   0.306  10.891   4.327  0.4302  0.6612  0.0522
  578MOL0     H78023   0.333  10.724   4.347 -3.0464  1.4064  2.5417
  578MOL0     H78024   0.600  10.787   4.318  0.3197  1.4131  0.6135
  578MOL0     H78025   0.529  10.931   4.237 -0.4378  1.0436  1.5828
  578MOL0     H78026   0.545  10.795   4.056  0.3390 -0.5521 -0.2971
  578MOL0     H78027   0.368  10.778   4.106  0.1140  0.2502  0.6484
  578MOL0     H78028   0.512  10.379   4.192 -2.8913 -0.6185 -3.5866
  578MOL0     H78029   0.384  10.896   4.752  0.3297 -0.1918 -0.4487
  578MOL0     H78030   0.494  10.932   4.965  0.2013  2.1158  0.0673
  579MOL0     O78031   2.980   9.925   7.218 -0.3276 -0.1260 -0.1440
  579MOL0     C78032   3.039   9.900   7.110  0.4506 -0.6067  0.2535
  579MOL0     O78033   2.983   9.842   6.996 -0.4036  0.0596  0.4602
  579MOL0     C78034   2.846   9.807   6.992  0.3332  0.2946 -0.4268
  579MOL0     C78035   2.807   9.777   6.863  0.7730  0.7300 -0.3608
  579MOL0     C78036   2.678   9.744   6.841 -0.6338 -0.0223 -0.3780
  579MOL0     C78037   2.593   9.729   6.950  0.1821  0.7121 -0.1340
  579MOL0     O78038   2.460   9.677   6.930 -0.1703  0.1455 -1.2679
  579MOL0     C78039   2.369   9.754   6.844  0.0633 -0.1561 -0.1098
  579MOL0     C78040   2.274   9.850   6.914 -0.5320 -0.3885 -0.2169
  579MOL0     C78041   2.172   9.900   6.803  0.6012 -0.5105 -0.3366
  579MOL0     C78042   2.044   9.948   6.871 -0.4002  0.2696 -0.0968
  579MOL0     C78043   1.953  10.027   6.772 -0.2819 -0.4413  0.6748
  579MOL0     C78044   1.853  10.096   6.863  0.8746  0.0096 -0.3398
  579MOL0     C78045   1.736  10.171   6.787 -0.3535  0.2201 -0.2317
  579MOL0     C78046   1.624  10.083   6.732  0.5329 -0.2622  0.0773
  579MOL0     N78047   1.509  10.153   6.660 -0.2391 -0.4343 -0.1907
  579MOL0     C78048   1.475  10.154   6.519  0.0094 -0.1471 -0.6521
  579MOL0     C78049   1.368  10.224   6.510  0.8703  0.2409  0.3865
  579MOL0     C78050   1.297  10.236   6.378 -0.8914  0.4487  0.2597
  579MOL0     C78051   1.255  10.377   6.333 -0.2562 -0.9491  0.8219
  579MOL0     C78052   1.229  10.368   6.186  0.3166 -0.6341 -0.1279
  579MOL0     C78053   1.189  10.509   6.130  0.3470  0.4495  0.6210
  579MOL0     O78054   1.132  10.493   5.996  0.5843  0.3639 -0.8521
  579MOL0     C78055   1.001  10.445   5.971  0.8641 -0.3264 -0.2289
  579MOL0     C78056   0.956  10.438   5.836 -0.0291  0.6490  0.1144
  579MOL0     C78057   0.830  10.386   5.802 -0.3334  0.2570  0.7961
  579MOL0     C78058   0.797  10.381   5.647 -0.6291  0.3158 -0.3000
  579MOL0     C78059   0.738  10.363   5.908  0.5579 -0.5617  0.1725
  579MOL0     C78060   0.593  10.321   5.893  0.3997 -0.0165 -0.5599
  579MOL0     O78061   0.516  10.332   6.004 -0.1775 -0.4765 -0.0698
  579MOL0     C78062   0.383  10.321   5.998  0.1706 -0.1220 -0.3765
  579MOL0     C78063   0.314  10.437   6.041  0.2814 -0.0495 -0.6583
  579MOL0     C78064   0.179  10.446   6.038  0.4909 -0.0846 -0.4907
  579MOL0     C78065   0.106  10.332   6.001 -0.1083 -0.4026  0.3538
  579MOL0     O78066  -0.031  10.344   5.996 -0.0232 -0.1647 -0.2170
  579MOL0     C78067  -0.113  10.224   5.981  0.2152 -0.2099  0.1649
  579MOL0     C78068  -0.261  10.257   6.006  0.3474  0.8421  0.3080
  579MOL0     C78069  -0.287  10.266   6.158  0.4556 -0.9021  0.1262
  579MOL0     C78070  -0.426  10.315   6.190 -0.2121 -0.8871  0.0174
  579MOL0     C78071  -0.538  10.212   6.177  0.3449 -0.1899 -0.5249
  579MOL0     C78072  -0.671  10.255   6.224  0.0220 -0.8689  0.8373
  579MOL0     C78073  -0.728  10.381   6.156  0.3738 -0.6866  0.0181
  579MOL0     C78074  -0.777  10.381   6.012 -0.0637 -0.1311  0.1001
  579MOL0    Cl78075  -0.867  10.228   5.976 -0.2297 -0.3671 -0.3570
  579MOL0     C78076   0.173  10.210   5.973  0.3481 -0.3752 -0.3579
  579MOL0     C78077   0.314  10.197   5.976  0.8282 -0.7757  0.5722
  579MOL0     O78078   0.555  10.295   5.779  0.0175  0.3369 -0.4382
  579MOL0     C78079   0.778  10.391   6.036  0.3015  0.0783 -0.2915
  579MOL0     C78080   0.906  10.418   6.067 -0.2473 -0.1232 -0.1097
  579MOL0     N78081   1.326  10.267   6.633 -0.0641 -0.1147 -0.0661
  579MOL0     N78082   1.409  10.227   6.721  0.9726  0.4718 -0.1872
  579MOL0     C78083   2.624   9.766   7.081 -0.2261 -0.1523 -0.0035
  579MOL0     C78084   2.755   9.804   7.096 -1.3214 -0.8611  0.3310
  579MOL0     C78085   3.178   9.942   7.083  0.7168 -0.4770  0.1817
  579MOL0     C78086   3.247   9.904   6.970 -0.2927 -0.0756 -0.5845
  579MOL0     C78087   3.377   9.944   6.949  1.1496  0.9674  0.1824
  579MOL0     C78088   3.448  10.029   7.034 -0.1814  0.0698 -0.5565
  579MOL0     O78089   3.571  10.077   6.986  0.5372  0.4392 -0.8602
  579MOL0     C78090   3.658  10.156   7.065 -0.6679  0.7149  0.0370
  579MOL0     C78091   3.762  10.068   7.145 -0.4131  0.6649 -0.8128
  579MOL0     C78092   3.841  10.150   7.246 -0.2971  0.0638 -0.0061
  579MOL0     C78093   3.924  10.266   7.191 -0.7443 -0.8522  0.0566
  579MOL0     C78094   4.029  10.212   7.105 -0.1318  0.6994  1.5262
  579MOL0     C78095   4.111  10.161   7.021  0.5073 -0.7556  0.7275
  579MOL0     C78096   3.370  10.065   7.150 -0.2004  0.6483 -0.5241
  579MOL0     C78097   3.244  10.025   7.172  0.5111 -0.1998  0.8299
  579MOL0     H78098   2.880   9.780   6.783  0.8075  1.9707 -0.2997
  579MOL0     H78099   2.643   9.713   6.744  0.5675  1.8221 -1.4661
  579MOL0     H78100   2.421   9.802   6.761  0.7652 -3.8156 -2.0017
  579MOL0     H78101   2.312   9.684   6.782 -1.0339 -0.2849  0.9978
  579MOL0     H78102   2.223   9.801   6.998  0.6150 -0.7818  0.2677
  579MOL0     H78103   2.342   9.931   6.942  0.4324  0.0246 -3.3067
  579MOL0     H78104   2.210   9.983   6.743  0.7646 -0.0945  0.3367
  579MOL0     H78105   2.132   9.819   6.742 -1.6867  0.0333  0.3372
  579MOL0     H78106   1.980   9.873   6.918 -0.1462  0.2929  0.2858
  579MOL0     H78107   2.073  10.011   6.956 -0.7381 -1.4428  1.3262
  579MOL0     H78108   2.015  10.101   6.721 -1.6175  0.9539  1.0301
  579MOL0     H78109   1.906   9.956   6.703 -0.5759  1.9960 -1.8112
  579MOL0     H78110   1.806  10.020   6.926  1.6727 -2.4504 -2.5473
  579MOL0     H78111   1.896  10.178   6.922 -2.6133  3.1940 -1.7507
  579MOL0     H78112   1.684  10.240   6.854 -1.5391 -0.4400 -0.4565
  579MOL0     H78113   1.775  10.237   6.708  1.8268  1.8401  2.0436
  579MOL0     H78114   1.568  10.028   6.808 -1.4063  1.4456 -0.0174
  579MOL0     H78115   1.658  10.015   6.654  0.0259  3.0773 -3.3755
  579MOL0     H78116   1.539  10.115   6.441  0.2488  1.5527 -1.3551
  579MOL0     H78117   1.370  10.203   6.304 -4.2047 -0.7947 -2.7866
  579MOL0     H78118   1.207  10.174   6.364 -2.1868  2.9001 -4.6177
  579MOL0     H78119   1.338  10.445   6.357 -0.3914 -0.2192 -0.6843
  579MOL0     H78120   1.163  10.403   6.384 -2.0223 -0.2051 -2.4517
  579MOL0     H78121   1.148  10.296   6.172 -0.5856  0.1271  0.9549
  579MOL0     H78122   1.316  10.333   6.130 -1.1964 -1.3921 -2.0888
  579MOL0     H78123   1.279  10.570   6.124  0.7841 -0.3104 -3.3550
  579MOL0     H78124   1.120  10.566   6.192 -1.5640 -1.0912  0.0275
  579MOL0     H78125   1.029  10.469   5.762  1.0952 -0.1175  0.8710
  579MOL0     H78126   0.805  10.275   5.623 -2.1761  0.4306 -1.5481
  579MOL0     H78127   0.692  10.404   5.626 -0.6077 -0.7560 -1.7837
  579MOL0     H78128   0.851  10.455   5.586 -2.0263 -0.1575 -2.2201
  579MOL0     H78129   0.361  10.527   6.080 -2.8434  1.7595 -0.7488
  579MOL0     H78130   0.131  10.538   6.068  2.0096  0.7574 -0.5720
  579MOL0     H78131  -0.100  10.189   5.878  0.3268  1.8383 -0.5704
  579MOL0     H78132  -0.089  10.144   6.051  0.9048 -1.7658 -1.7453
  579MOL0     H78133  -0.294  10.343   5.947 -0.3705 -0.1191 -0.7391
  579MOL0     H78134  -0.318  10.169   5.975 -2.2775  2.0876  1.2804
  579MOL0     H78135  -0.214  10.339   6.196  0.1145 -0.1774 -0.5858
  579MOL0     H78136  -0.280  10.173   6.215 -2.4089 -1.1268  0.2468
  579MOL0     H78137  -0.427  10.352   6.293  1.6514  0.7443 -0.4928
  579MOL0     H78138  -0.441  10.404   6.128 -2.1295  0.4379  2.1787
  579MOL0     H78139  -0.513  10.121   6.231  1.0489  0.2166 -0.1429
  579MOL0     H78140  -0.543  10.188   6.070  0.8329 -0.4105 -0.4975
  579MOL0     H78141  -0.751  10.181   6.215 -1.0203  0.4828 -3.6988
  579MOL0     H78142  -0.658  10.283   6.329 -1.4748  1.0925  0.5673
  579MOL0     H78143  -0.643  10.450   6.153  0.6055 -0.9147  1.1239
  579MOL0     H78144  -0.814  10.416   6.215 -1.8550  0.5267 -3.5902
  579MOL0     H78145  -0.698  10.405   5.941  0.4803 -3.0905 -0.4336
  579MOL0     H78146  -0.844  10.466   5.999  0.1882 -0.1468 -1.4003
  579MOL0     H78147   0.115  10.122   5.948  0.9024 -0.8290 -0.0432
  579MOL0     H78148   0.356  10.108   5.931  0.9671 -0.4484  0.0480
  579MOL0     H78149   0.696  10.395   6.108 -1.5936  2.3013 -2.3942
  579MOL0     H78150   0.929  10.440   6.171 -0.8348 -3.1804  0.7830
  579MOL0     H78151   2.558   9.765   7.166 -1.6458  0.7507 -1.0389
  579MOL0     H78152   2.777   9.821   7.201 -0.2959  0.6755 -0.0983
  579MOL0     H78153   3.201   9.841   6.895 -0.3800 -2.2948  1.2214
  579MOL0     H78154   3.427   9.926   6.854  3.5485 -2.9339  1.9288
  579MOL0     H78155   3.704  10.235   7.007  2.1545 -1.0978 -0.3873
  579MOL0     H78156   3.606  10.212   7.144 -1.0882  0.0530  0.2475
  579MOL0     H78157   3.832  10.017   7.076 -1.1782 -0.8817 -0.4925
  579MOL0     H78158   3.705   9.993   7.200 -1.2392 -0.8605 -3.5551
  579MOL0     H78159   3.912  10.088   7.301  0.6240 -1.3669 -2.6735
  579MOL0     H78160   3.769  10.190   7.318 -3.5083 -1.5894 -2.0756
  579MOL0     H78161   3.972  10.295   7.286 -0.8600 -1.9189  0.4538
  579MOL0     H78162   3.876  10.356   7.153  0.0859 -0.7884 -0.8687
  579MOL0     H78163   4.180  10.125   6.947  0.8170 -0.9188  1.0893
  579MOL0     H78164   3.406  10.123   7.234  1.3739  0.3431 -0.9678
  579MOL0     H78165   3.182  10.052   7.257 -0.6991 -2.7822  0.8629
  580MOL0     O78166   4.328   1.769   2.248 -0.0086  0.0489 -0.0846
  580MOL0     C78167   4.386   1.735   2.353  0.0902 -0.1243  0.5418
  580MOL0     O78168   4.327   1.672   2.453 -0.3641  0.3145 -0.0494
  580MOL0     C78169   4.233   1.574   2.429 -0.3862 -0.2669 -0.0145
  580MOL0     C78170   4.260   1.434   2.428  0.4287  0.4919  0.4644
  580MOL0     C78171   4.145   1.342   2.414  0.4310 -0.2587 -0.0799
  580MOL0     C78172   4.023   1.390   2.367 -0.3316 -0.2369 -0.4426
  580MOL0     O78173   3.918   1.300   2.339  0.1074 -0.1761 -0.0699
  580MOL0     C78174   3.849   1.322   2.212 -0.6930  0.4096 -0.5024
  580MOL0     C78175   3.745   1.211   2.192  0.6385 -1.2329  1.0598
  580MOL0     C78176   3.626   1.235   2.286 -0.3923  0.0843  0.4241
  580MOL0     C78177   3.529   1.126   2.251  0.1958 -0.6568 -0.0148
  580MOL0     C78178   3.399   1.137   2.332 -0.4393  0.0390 -0.1417
  580MOL0     C78179   3.292   1.048   2.278  0.6500  0.1474 -0.1971
  580MOL0     C78180   3.158   1.072   2.352  0.9328 -0.2354 -0.3323
  580MOL0     C78181   3.035   0.988   2.300  0.4119  0.2502  0.4492
  580MOL0     N78182   3.053   0.845   2.342 -0.3646  0.4953  0.3526
  580MOL0     C78183   3.116   0.743   2.273 -0.2497  0.0281  0.1926
  580MOL0     C78184   3.095   0.641   2.361  0.2999 -0.1545  0.2710
  580MOL0     C78185   3.132   0.498   2.323 -0.1625  0.0396  0.5980
  580MOL0     C78186   3.038   0.440   2.224  0.2928  0.3475 -0.1859
  580MOL0     C78187   2.889   0.449   2.267  0.6522 -0.1809  0.1962
  580MOL0     C78188   2.844   0.384   2.406 -0.9269 -0.0473 -0.0359
  580MOL0     O78189   2.869   0.238   2.391 -0.4577  0.2434 -0.1867
  580MOL0     C78190   2.793   0.180   2.294 -0.3245  0.5727 -0.2975
  580MOL0     C78191   2.851   0.085   2.207  0.0335 -0.1935 -0.8569
  580MOL0     C78192   2.782   0.032   2.100  0.2036 -0.4668  0.5690
  580MOL0     C78193   2.872  -0.035   2.001  0.0494  0.1220 -0.5828
  580MOL0     C78194   2.635   0.058   2.093 -0.2227  0.2648  0.3239
  580MOL0     C78195   2.554  -0.006   1.980 -0.7490 -0.0802  0.0717
  580MOL0     O78196   2.435   0.055   1.952 -0.1202  0.5320  0.6536
  580MOL0     C78197   2.355  -0.005   1.858  0.0728  0.6438  0.2921
  580MOL0     C78198   2.358   0.032   1.726  0.1159  0.0249  0.6214
  580MOL0     C78199   2.259  -0.010   1.638  0.3168  0.0164  0.4214
  580MOL0     C78200   2.159  -0.101   1.669  1.1807 -0.5791 -0.2108
  580MOL0     O78201   2.075  -0.146   1.568  0.0076 -0.6852 -0.3741
  580MOL0     C78202   1.992  -0.264   1.596 -0.7236 -0.4533  0.3002
  580MOL0     C78203   1.918  -0.302   1.469 -1.2857 -0.5575  1.0645
  580MOL0     C78204   1.802  -0.202   1.415 -0.7091  0.8333  0.3390
  580MOL0     C78205   1.714  -0.284   1.319  0.3559 -0.4038 -0.3122
  580MOL0     C78206   1.618  -0.181   1.256  0.2670 -0.7218 -0.8329
  580MOL0     C78207   1.525  -0.249   1.167  0.3498  0.6032 -0.2868
  580MOL0     C78208   1.426  -0.144   1.090 -0.0005 -1.3299 -0.7235
  580MOL0     C78209   1.362  -0.210   0.962 -0.9529 -0.3032 -0.8956
  580MOL0    Cl78210   1.240  -0.110   0.882 -0.0511  0.4028 -0.6149
  580MOL0     C78211   2.159  -0.137   1.805  0.1987 -0.0754 -0.4855
  580MOL0     C78212   2.253  -0.087   1.900  0.2051  1.6370  0.4883
  580MOL0     O78213   2.581  -0.118   1.945 -0.4952  0.0681 -0.4137
  580MOL0     C78214   2.577   0.143   2.184 -0.2312  0.1920  0.7312
  580MOL0     C78215   2.656   0.207   2.276 -0.3932  0.2727 -0.7275
  580MOL0     N78216   3.022   0.677   2.475  0.0173 -1.2214  0.0275
  580MOL0     N78217   3.006   0.806   2.464  0.8456 -0.0046 -0.5915
  580MOL0     C78218   4.000   1.529   2.367  0.7460  0.0048  0.4441
  580MOL0     C78219   4.103   1.615   2.395 -0.4337 -0.2652 -0.1927
  580MOL0     C78220   4.527   1.779   2.368  0.0580 -0.6081  0.1399
  580MOL0     C78221   4.593   1.824   2.256  0.4706 -0.0963  0.9052
  580MOL0     C78222   4.724   1.872   2.269 -0.2318  1.0180 -0.1002
  580MOL0     C78223   4.795   1.857   2.389 -0.0135 -0.2123 -0.4913
  580MOL0     O78224   4.926   1.878   2.418  0.0042 -0.1039  0.0690
  580MOL0     C78225   5.001   1.961   2.327 -0.6267  0.0515 -0.4092
  580MOL0     C78226   5.153   1.962   2.354 -0.0378  0.1053  0.1754
  580MOL0     C78227   5.179   2.025   2.492 -0.7887  0.0938  0.5711
  580MOL0     C78228   5.329   2.013   2.526 -0.4393  0.5233 -1.0050
  580MOL0     C78229   5.422   2.072   2.431  0.4442  0.2876 -0.1497
  580MOL0     C78230   5.513   2.108   2.358 -0.3652 -0.0860 -0.0204
  580MOL0     C78231   4.729   1.796   2.501 -0.3004 -0.5020 -0.2060
  580MOL0     C78232   4.595   1.764   2.488 -0.0839  0.1366  0.4167
  580MOL0     H78233   4.355   1.388   2.457  0.2016  0.8011  1.7833
  580MOL0     H78234   4.173   1.239   2.430  1.5430 -0.0025 -0.3069
  580MOL0     H78235   3.815   1.425   2.198  1.0384  0.9499 -1.0307
  580MOL0     H78236   3.923   1.306   2.133  0.3731  1.3400  0.2625
  580MOL0     H78237   3.723   1.222   2.085  1.6887 -3.0583  0.6033
  580MOL0     H78238   3.786   1.111   2.206 -2.8256 -2.5737  2.9845
  580MOL0     H78239   3.652   1.244   2.392 -0.2065  0.3224  0.3586
  580MOL0     H78240   3.576   1.328   2.258  2.0049  0.3001 -4.1658
  580MOL0     H78241   3.503   1.133   2.145 -0.6126 -1.1426  0.1421
  580MOL0     H78242   3.573   1.026   2.262  1.1787 -0.3457 -0.9866
  580MOL0     H78243   3.420   1.109   2.436 -0.1726  1.0682  0.0981
  580MOL0     H78244   3.362   1.240   2.339 -0.8718 -0.1042 -0.3115
  580MOL0     H78245   3.275   1.069   2.172  2.0124  2.3479 -0.0440
  580MOL0     H78246   3.321   0.943   2.277 -2.0358 -0.6910  0.9062
  580MOL0     H78247   3.168   1.057   2.459 -3.1411 -0.4414  0.1718
  580MOL0     H78248   3.125   1.176   2.344  0.7530 -0.2763 -0.1261
  580MOL0     H78249   3.020   0.997   2.192  1.8627 -2.6287 -0.0812
  580MOL0     H78250   2.949   1.034   2.350 -0.1532 -0.4091  0.1063
  580MOL0     H78251   3.162   0.761   2.176  0.4426  1.5000  0.7721
  580MOL0     H78252   3.226   0.499   2.267 -1.3650 -0.7104 -1.5866
  580MOL0     H78253   3.130   0.435   2.412 -1.1651 -3.2010 -1.5403
  580MOL0     H78254   3.055   0.332   2.213  1.2444  0.6010 -1.3681
  580MOL0     H78255   3.051   0.492   2.129 -3.5822 -0.4073 -1.3221
  580MOL0     H78256   2.833   0.400   2.187  2.3418 -0.4112 -0.8730
  580MOL0     H78257   2.864   0.556   2.265  2.2317  0.2090 -0.3535
  580MOL0     H78258   2.739   0.407   2.425 -0.4857 -0.3612  3.4434
  580MOL0     H78259   2.892   0.434   2.491 -0.6364 -0.0979 -0.1684
  580MOL0     H78260   2.959   0.073   2.209  0.3025  1.8806 -0.4031
  580MOL0     H78261   2.872   0.014   1.903 -0.2160 -3.6006 -2.6100
  580MOL0     H78262   2.973  -0.046   2.044  0.9705  5.2278 -0.7637
  580MOL0     H78263   2.833  -0.136   1.986 -3.9525  1.3891  0.0952
  580MOL0     H78264   2.439   0.093   1.687  1.1094 -1.6598 -0.0543
  580MOL0     H78265   2.261   0.031   1.537 -0.3954 -0.4789  0.1928
  580MOL0     H78266   2.049  -0.350   1.632  0.2644 -1.0067 -2.3406
  580MOL0     H78267   1.916  -0.237   1.669 -0.2987 -0.4464  0.7395
  580MOL0     H78268   1.994  -0.304   1.390  0.7496  3.3060  2.6291
  580MOL0     H78269   1.883  -0.400   1.502  2.9084 -2.8301 -0.4562
  580MOL0     H78270   1.845  -0.122   1.354  0.0132 -0.7455 -1.3096
  580MOL0     H78271   1.746  -0.164   1.502  0.4583 -0.8455  1.9156
  580MOL0     H78272   1.784  -0.328   1.247 -1.2942  0.1426 -2.3505
  580MOL0     H78273   1.671  -0.371   1.369  0.3077 -1.0877 -1.5206
  580MOL0     H78274   1.668  -0.101   1.201 -1.0162  0.1567 -0.7509
  580MOL0     H78275   1.558  -0.138   1.336  3.5448  1.4420  0.6872
  580MOL0     H78276   1.587  -0.292   1.088 -0.6944 -0.6792 -0.4535
  580MOL0     H78277   1.466  -0.329   1.214  0.8668 -0.8648 -1.9930
  580MOL0     H78278   1.488  -0.060   1.057 -1.5340 -0.8720 -2.6687
  580MOL0     H78279   1.347  -0.110   1.158 -0.2607 -2.1485 -0.6048
  580MOL0     H78280   1.308  -0.300   0.995  2.1576 -1.1169  2.6347
  580MOL0     H78281   1.438  -0.245   0.892 -1.0033 -0.6900 -0.7610
  580MOL0     H78282   2.087  -0.200   1.856  2.5810 -0.1155  3.2175
  580MOL0     H78283   2.241  -0.120   2.003  0.0206  1.2526  0.3453
  580MOL0     H78284   2.472   0.168   2.175 -0.1425  0.0804 -0.9115
  580MOL0     H78285   2.621   0.284   2.344  0.9943 -0.7560  1.2491
  580MOL0     H78286   3.905   1.569   2.335  0.5071 -2.8323 -2.8844
  580MOL0     H78287   4.074   1.719   2.399 -0.7067 -0.2955 -1.0385
  580MOL0     H78288   4.549   1.812   2.157  0.4348 -2.6395  1.1596
  580MOL0     H78289   4.768   1.902   2.174 -1.8634  2.3692 -0.4948
  580MOL0     H78290   4.979   1.930   2.224 -0.4511  0.4497 -0.5706
  580MOL0     H78291   4.960   2.062   2.331 -2.5709 -0.6959 -0.7623
  580MOL0     H78292   5.190   2.033   2.279 -1.9510 -1.2802 -2.2071
  580MOL0     H78293   5.198   1.863   2.352  1.4018  0.7459 -1.3119
  580MOL0     H78294   5.116   1.975   2.566 -2.4344  0.3376 -0.6058
  580MOL0     H78295   5.142   2.128   2.489 -1.6116 -0.2035 -1.3194
  580MOL0     H78296   5.355   1.907   2.533  1.1428  0.6881 -3.1673
  580MOL0     H78297   5.339   2.058   2.625 -0.5230  1.0744 -1.2446
  580MOL0     H78298   5.597   2.141   2.299 -1.5723  0.9840 -1.2343
  580MOL0     H78299   4.783   1.777   2.593  1.0956 -0.1360 -0.9190
  580MOL0     H78300   4.534   1.720   2.567 -2.1959 -0.9244 -1.6631
  581MOL0     O78301  10.848   7.811   8.694  0.1755 -0.2151 -0.2068
  581MOL0     C78302  10.906   7.728   8.618 -0.3149  0.1459 -0.0960
  581MOL0     O78303  10.847   7.628   8.547  0.2251  0.2032 -0.1712
  581MOL0     C78304  10.718   7.642   8.540  0.5036  0.1018 -1.2084
  581MOL0     C78305  10.636   7.537   8.594 -0.3307  0.1088 -0.4872
  581MOL0     C78306  10.496   7.549   8.578 -0.0443 -0.3480  0.0510
  581MOL0     C78307  10.442   7.652   8.495 -0.0334  1.0309 -0.0868
  581MOL0     O78308  10.310   7.670   8.475  0.3173 -0.2379  0.6563
  581MOL0     C78309  10.233   7.549   8.458  0.0900 -0.2441 -0.0797
  581MOL0     C78310  10.082   7.586   8.436 -0.2217  0.6676  1.1889
  581MOL0     C78311  10.013   7.465   8.358 -0.7464 -0.3394 -0.0484
  581MOL0     C78312   9.977   7.355   8.458  0.4261 -0.6550  0.7566
  581MOL0     C78313   9.837   7.357   8.514  0.6011 -0.5518  0.4647
  581MOL0     C78314   9.789   7.219   8.554  0.4531  0.0898  0.1877
  581MOL0     C78315   9.639   7.230   8.617 -0.2597 -0.2843 -0.1294
  581MOL0     C78316   9.536   7.267   8.505  0.0696  0.5415 -0.1445
  581MOL0     N78317   9.410   7.307   8.567  0.2660 -0.4030  0.3681
  581MOL0     C78318   9.318   7.235   8.645  0.5125  0.5376  0.0856
  581MOL0     C78319   9.217   7.325   8.673 -1.1574 -0.0351  0.0465
  581MOL0     C78320   9.099   7.297   8.755  0.3845 -0.2681 -0.6938
  581MOL0     C78321   8.971   7.248   8.684 -0.5995  0.4846 -0.1034
  581MOL0     C78322   8.904   7.356   8.607 -1.4075  0.6205  0.2010
  581MOL0     C78323   8.778   7.308   8.531  0.4712 -0.5905 -0.9643
  581MOL0     O78324   8.669   7.282   8.632 -1.0699 -0.3969  0.2346
  581MOL0     C78325   8.554   7.234   8.583  0.5819  1.0387 -0.2938
  581MOL0     C78326   8.481   7.175   8.688  0.8647  0.2534  0.8690
  581MOL0     C78327   8.343   7.130   8.670  0.0037  1.0522 -0.0283
  581MOL0     C78328   8.268   7.077   8.790 -0.5457 -0.5744 -0.1240
  581MOL0     C78329   8.290   7.150   8.540 -0.4038 -0.3751  0.4695
  581MOL0     C78330   8.153   7.116   8.502  0.0923 -0.0243  0.4363
  581MOL0     O78331   8.103   7.179   8.386  0.2978 -0.3351  0.3225
  581MOL0     C78332   8.017   7.122   8.306 -0.0933 -0.2820 -0.4208
  581MOL0     C78333   8.044   6.990   8.267 -0.5517  0.5579  0.5306
  581MOL0     C78334   7.957   6.931   8.172 -0.1688 -0.6958 -0.5860
  581MOL0     C78335   7.847   6.995   8.110  0.5901  0.5823  0.4810
  581MOL0     O78336   7.779   6.930   8.017  0.9862  0.0865  0.2749
  581MOL0     C78337   7.675   6.996   7.957  0.2115  0.0805  0.2247
  581MOL0     C78338   7.592   6.904   7.866 -0.0603 -0.7263 -0.0172
  581MOL0     C78339   7.495   6.981   7.785 -0.7018 -0.4237  0.3995
  581MOL0     C78340   7.438   6.892   7.674  0.6077  0.3321 -0.5096
  581MOL0     C78341   7.319   6.950   7.592 -0.2373 -0.4272 -0.2111
  581MOL0     C78342   7.194   6.985   7.676  0.7590 -0.5274 -0.4122
  581MOL0     C78343   7.073   7.006   7.591  0.1794  0.3652 -0.3357
  581MOL0     C78344   6.967   7.091   7.662  0.8996  0.5389 -0.0623
  581MOL0    Cl78345   7.045   7.252   7.676  0.3707  0.0984  0.0526
  581MOL0     C78346   7.819   7.125   8.150  0.2461 -0.4958 -0.3518
  581MOL0     C78347   7.910   7.186   8.244 -0.7295  0.9722  0.5472
  581MOL0     O78348   8.097   7.022   8.557 -0.3166 -0.4815 -0.5283
  581MOL0     C78349   8.374   7.212   8.442  0.0543  0.2758 -0.1602
  581MOL0     C78350   8.504   7.250   8.454  0.0649  0.3706  0.4863
  581MOL0     N78351   9.250   7.442   8.611  0.0230  0.3379 -0.2402
  581MOL0     N78352   9.364   7.431   8.545  0.0732  0.3067 -0.3310
  581MOL0     C78353  10.520   7.742   8.434  0.0573  1.1384  0.4227
  581MOL0     C78354  10.651   7.735   8.461  0.0628  0.0787  0.2374
  581MOL0     C78355  11.054   7.737   8.617  0.0686 -0.1111  0.0539
  581MOL0     C78356  11.138   7.630   8.575 -0.7226 -1.2188  0.0862
  581MOL0     C78357  11.275   7.633   8.572 -0.5332  0.2737 -0.3607
  581MOL0     C78358  11.343   7.751   8.606 -0.0843  0.6159  1.0567
  581MOL0     O78359  11.482   7.767   8.606 -0.5482  0.1257  0.4723
  581MOL0     C78360  11.573   7.676   8.544 -0.1108 -0.5863  0.0787
  581MOL0     C78361  11.723   7.717   8.560  0.2893 -0.4064 -0.1083
  581MOL0     C78362  11.822   7.618   8.502 -0.5525  0.0181  0.8535
  581MOL0     C78363  11.969   7.673   8.516  0.8134  0.1023 -0.0333
  581MOL0     C78364  12.011   7.694   8.663  0.3308  0.1139  0.4333
  581MOL0     C78365  12.048   7.716   8.780  0.6607 -0.2412  0.3255
  581MOL0     C78366  11.262   7.861   8.655 -0.2796 -0.4373  0.8512
  581MOL0     C78367  11.125   7.850   8.659 -0.0197 -0.3740  0.2910
  581MOL0     H78368  10.670   7.449   8.647 -1.3753 -0.0777 -0.0967
  581MOL0     H78369  10.427   7.476   8.620 -0.7701  0.2556 -0.0755
  581MOL0     H78370  10.267   7.488   8.374 -0.8797 -0.2850 -0.4480
  581MOL0     H78371  10.238   7.485   8.547  0.5121  2.3072  1.8455
  581MOL0     H78372  10.032   7.603   8.532  0.2809  1.6204  1.2975
  581MOL0     H78373  10.068   7.669   8.366  0.6019 -0.5092 -0.4322
  581MOL0     H78374   9.928   7.502   8.301 -1.0988  1.4041  1.5069
  581MOL0     H78375  10.083   7.431   8.281 -0.1437  0.9359 -0.0898
  581MOL0     H78376   9.974   7.271   8.387 -0.1065  1.7174 -2.2394
  581MOL0     H78377  10.050   7.343   8.539  1.1807 -1.5623 -0.0223
  581MOL0     H78378   9.833   7.420   8.603 -1.9947 -0.6581  0.5152
  581MOL0     H78379   9.777   7.406   8.437  0.2679  2.0528  2.2610
  581MOL0     H78380   9.780   7.143   8.476  1.3671 -1.7411  1.7905
  581MOL0     H78381   9.857   7.170   8.624 -0.7143 -0.9803  0.6187
  581MOL0     H78382   9.609   7.138   8.669 -0.9404 -1.1766 -2.0055
  581MOL0     H78383   9.632   7.303   8.697 -2.0629 -0.4632 -0.0911
  581MOL0     H78384   9.524   7.181   8.439  1.3659 -1.2184  1.8131
  581MOL0     H78385   9.572   7.355   8.450 -1.0394  1.2917  0.2905
  581MOL0     H78386   9.317   7.134   8.687 -5.0566 -0.5770 -1.9478
  581MOL0     H78387   9.133   7.224   8.829 -0.5175  1.0570  1.1139
  581MOL0     H78388   9.082   7.394   8.804  1.5951  0.5831 -1.9035
  581MOL0     H78389   8.905   7.198   8.756  0.6612 -3.2762 -1.3365
  581MOL0     H78390   8.995   7.163   8.619 -1.3175 -2.3494  3.0055
  581MOL0     H78391   8.972   7.399   8.533  0.8702  0.2146  1.9683
  581MOL0     H78392   8.883   7.437   8.677  3.4063  1.3290  1.1437
  581MOL0     H78393   8.789   7.216   8.474 -0.6096 -1.9516  0.9022
  581MOL0     H78394   8.748   7.377   8.452  1.7749 -1.4086 -2.2082
  581MOL0     H78395   8.517   7.168   8.790  0.2796  1.4010  1.1722
  581MOL0     H78396   8.226   6.977   8.779 -0.6954 -0.3852 -1.5894
  581MOL0     H78397   8.330   7.072   8.879 -0.4366 -0.0752 -0.1669
  581MOL0     H78398   8.179   7.139   8.808  0.9001  1.9718 -1.2121
  581MOL0     H78399   8.130   6.933   8.301  0.0336 -0.4895 -2.4112
  581MOL0     H78400   7.960   6.825   8.149 -0.1331 -1.6230  3.0126
  581MOL0     H78401   7.599   7.032   8.027 -1.2208  0.2589 -1.3737
  581MOL0     H78402   7.710   7.081   7.897  0.1750  1.7871  2.4810
  581MOL0     H78403   7.656   6.844   7.801 -3.4530 -2.5347 -2.0355
  581MOL0     H78404   7.524   6.841   7.925  0.5167 -0.1088  1.3188
  581MOL0     H78405   7.541   7.068   7.738 -2.0330  0.3384  0.4757
  581MOL0     H78406   7.415   7.016   7.851 -1.7264  2.1416 -1.9993
  581MOL0     H78407   7.527   6.868   7.615  2.9913  0.7492  2.6303
  581MOL0     H78408   7.406   6.796   7.715 -2.6500  0.9227 -1.3668
  581MOL0     H78409   7.299   6.866   7.526 -0.0915 -0.8526  0.2755
  581MOL0     H78410   7.344   7.029   7.521  0.8326 -0.1920  0.3875
  581MOL0     H78411   7.172   6.907   7.749 -2.3670 -0.9630 -1.6213
  581MOL0     H78412   7.210   7.082   7.724  1.4509 -0.9905  0.2995
  581MOL0     H78413   7.035   6.907   7.563 -1.0529 -0.4172  3.4396
  581MOL0     H78414   7.115   7.065   7.510  1.6569  1.9349  1.4747
  581MOL0     H78415   6.928   7.041   7.751  0.3600 -0.1004 -0.6456
  581MOL0     H78416   6.881   7.105   7.595  0.9996 -0.6175 -0.4663
  581MOL0     H78417   7.729   7.178   8.120 -0.0753  0.5091  2.1587
  581MOL0     H78418   7.874   7.281   8.280  1.0204  1.3408  1.4327
  581MOL0     H78419   8.336   7.232   8.342  0.6027 -0.6378 -0.5533
  581MOL0     H78420   8.557   7.303   8.375 -1.7948  1.6644  0.0426
  581MOL0     H78421  10.497   7.824   8.368 -0.3257  1.1684  0.5883
  581MOL0     H78422  10.710   7.814   8.417 -2.6407  3.3330  2.0458
  581MOL0     H78423  11.094   7.548   8.519  0.5047  0.7332 -4.1342
  581MOL0     H78424  11.329   7.548   8.532  0.7356  0.4570  0.8757
  581MOL0     H78425  11.564   7.580   8.596  0.6432  0.1276  1.6144
  581MOL0     H78426  11.542   7.668   8.440  1.4948 -0.7737 -0.4129
  581MOL0     H78427  11.739   7.727   8.667  0.8418 -0.3585 -0.1903
  581MOL0     H78428  11.735   7.817   8.517  1.2222 -0.9181 -1.1307
  581MOL0     H78429  11.804   7.593   8.397  1.6277 -2.0811  0.8808
  581MOL0     H78430  11.822   7.524   8.558  1.7441 -1.0977 -0.8637
  581MOL0     H78431  11.978   7.764   8.456  1.3036  0.0134 -0.1011
  581MOL0     H78432  12.042   7.611   8.462  0.6042 -0.2467  0.0814
  581MOL0     H78433  12.074   7.739   8.882 -0.2503 -0.3576  0.5994
  581MOL0     H78434  11.312   7.952   8.685  1.8054  0.6261 -4.6528
  581MOL0     H78435  11.082   7.940   8.701  2.0317 -0.1758  2.1514
  582MOL0     O78436   0.321  10.353   8.696  0.3127  0.3627  0.1634
  582MOL0     C78437   0.395  10.409   8.612 -0.0531  0.1903 -0.0281
  582MOL0     O78438   0.359  10.466   8.498  0.4064  0.0737 -0.2248
  582MOL0     C78439   0.222  10.470   8.476  0.0692  0.3885  0.0217
  582MOL0     C78440   0.173  10.400   8.366  0.2637 -0.2361 -0.1856
  582MOL0     C78441   0.044  10.399   8.337  0.0585 -1.3501 -0.7846
  582MOL0     C78442  -0.038  10.465   8.424  0.2274 -0.4516 -0.1990
  582MOL0     O78443  -0.176  10.449   8.407  0.0140 -0.9469 -0.2694
  582MOL0     C78444  -0.275  10.524   8.491 -0.6199  0.7493  0.4204
  582MOL0     C78445  -0.413  10.453   8.491  0.0210  0.5857 -0.2892
  582MOL0     C78446  -0.526  10.521   8.574  0.2160 -0.1516 -0.0644
  582MOL0     C78447  -0.553  10.674   8.557  0.4667  0.1754 -0.1373
  582MOL0     C78448  -0.619  10.750   8.674  0.5649  0.1202 -0.6463
  582MOL0     C78449  -0.718  10.851   8.612  0.5175  0.6116  0.3806
  582MOL0     C78450  -0.852  10.787   8.575  0.2381 -0.0849 -0.0125
  582MOL0     C78451  -0.945  10.891   8.509  0.7443  0.2532  0.7572
  582MOL0     N78452  -1.063  10.821   8.463 -0.5367  0.2813  0.2653
  582MOL0     C78453  -1.154  10.767   8.549 -1.1835  0.2657  0.0512
  582MOL0     C78454  -1.255  10.723   8.471 -0.0249  0.7555 -0.5573
  582MOL0     C78455  -1.375  10.671   8.542 -1.2427  0.8684  0.5085
  582MOL0     C78456  -1.500  10.729   8.491  0.3375  0.2637  0.6996
  582MOL0     C78457  -1.532  10.883   8.519 -1.0676  0.6390  0.1925
  582MOL0     C78458  -1.660  10.913   8.582 -0.0864 -0.2605 -0.4333
  582MOL0     O78459  -1.766  10.878   8.490 -0.0574 -0.0466 -0.1025
  582MOL0     C78460  -1.898  10.913   8.525 -0.1581 -0.0008 -0.8264
  582MOL0     C78461  -1.940  10.982   8.639 -0.3814 -0.3008  0.2024
  582MOL0     C78462  -2.075  11.014   8.666  0.0572 -0.1460  0.5669
  582MOL0     C78463  -2.101  11.076   8.808 -0.2269  0.0654  0.9335
  582MOL0     C78464  -2.177  10.969   8.574 -0.2234 -0.2429 -0.2953
  582MOL0     C78465  -2.320  10.998   8.593  0.3408  0.4356 -0.5653
  582MOL0     O78466  -2.413  10.920   8.523  0.2116  0.0270 -0.4448
  582MOL0     C78467  -2.535  10.964   8.527 -0.9842 -0.2690  1.1177
  582MOL0     C78468  -2.634  10.888   8.586 -0.0955  0.3000  0.2112
  582MOL0     C78469  -2.768  10.931   8.589 -0.1601 -0.0965  0.8917
  582MOL0     C78470  -2.801  11.059   8.543  0.4423  0.7602 -0.2267
  582MOL0     O78471  -2.938  11.085   8.566 -0.5686 -0.0357  0.2810
  582MOL0     C78472  -2.987  11.202   8.494  0.3664  1.0827 -0.6064
  582MOL0     C78473  -3.135  11.171   8.451  0.6275  0.1340 -0.6080
  582MOL0     C78474  -3.186  11.286   8.368  0.1613  0.4869  0.4708
  582MOL0     C78475  -3.333  11.265   8.344 -0.7354  0.1714 -1.1023
  582MOL0     C78476  -3.385  11.392   8.271 -0.1670  0.2296 -0.0208
  582MOL0     C78477  -3.337  11.398   8.130  0.6148 -0.8958 -0.1297
  582MOL0     C78478  -3.395  11.507   8.059  0.7397 -0.0894  0.5189
  582MOL0     C78479  -3.334  11.522   7.919  1.2942 -0.3324 -0.0537
  582MOL0    Cl78480  -3.346  11.379   7.817  0.0551  0.2706  0.2666
  582MOL0     C78481  -2.695  11.136   8.485  0.9474 -0.4624 -0.9302
  582MOL0     C78482  -2.563  11.085   8.467  0.5415  0.1928  0.4590
  582MOL0     O78483  -2.342  11.097   8.654  1.3085 -0.2082 -0.2033
  582MOL0     C78484  -2.127  10.901   8.463  0.7637 -1.0027 -0.2326
  582MOL0     C78485  -1.995  10.863   8.445 -0.4376 -0.7169  0.1898
  582MOL0     N78486  -1.235  10.754   8.338 -0.8699  0.3114  0.3110
  582MOL0     N78487  -1.118  10.794   8.340  0.3018 -0.3501  0.4843
  582MOL0     C78488   0.013  10.546   8.526  0.3896  0.3895 -0.2843
  582MOL0     C78489   0.143  10.547   8.553 -0.0030  0.1923 -0.8313
  582MOL0     C78490   0.536  10.420   8.654  0.8048 -0.5023  0.3293
  582MOL0     C78491   0.566  10.380   8.783 -0.2014  0.5477  0.0353
  582MOL0     C78492   0.703  10.390   8.831  0.6110  0.4328 -0.5039
  582MOL0     C78493   0.803  10.431   8.744 -0.2966  0.2692  0.3458
  582MOL0     O78494   0.930  10.425   8.799  0.5004  0.4920  0.1800
  582MOL0     C78495   1.038  10.469   8.708  0.4620 -0.0732  0.5374
  582MOL0     C78496   1.166  10.462   8.793  0.4474  0.1627  0.7419
  582MOL0     C78497   1.282  10.532   8.728 -0.2570 -0.6074  0.5093
  582MOL0     C78498   1.328  10.472   8.600 -0.0129  0.3123  0.0306
  582MOL0     C78499   1.473  10.507   8.570 -0.1390 -0.0591 -0.5088
  582MOL0     C78500   1.594  10.522   8.568 -0.0960 -0.4207 -0.2730
  582MOL0     C78501   0.769  10.469   8.613  0.7277 -0.2205  0.2144
  582MOL0     C78502   0.637  10.471   8.569  0.4894 -1.4354 -0.5571
  582MOL0     H78503   0.244  10.351   8.299  2.5038 -1.3805  2.8160
  582MOL0     H78504   0.004  10.348   8.250 -0.1270 -2.9862  0.2275
  582MOL0     H78505  -0.242  10.535   8.594  3.4743 -1.5852 -0.4172
  582MOL0     H78506  -0.274  10.621   8.439  1.5809  0.8797  0.5956
  582MOL0     H78507  -0.455  10.442   8.390 -0.0922  0.8626 -0.2735
  582MOL0     H78508  -0.413  10.350   8.528 -0.1077  0.7646  0.2128
  582MOL0     H78509  -0.618  10.466   8.551 -1.0998  2.1415 -0.6548
  582MOL0     H78510  -0.502  10.507   8.679 -1.3342  2.0641  0.6905
  582MOL0     H78511  -0.457  10.721   8.534  2.2380 -2.7252  0.7610
  582MOL0     H78512  -0.618  10.681   8.469  0.7394  1.7981 -0.2447
  582MOL0     H78513  -0.679  10.682   8.735  3.0210 -1.7673 -0.1967
  582MOL0     H78514  -0.536  10.786   8.736 -0.1107 -1.3346  1.2100
  582MOL0     H78515  -0.732  10.934   8.682  0.4358 -0.7083  1.9811
  582MOL0     H78516  -0.676  10.888   8.518  2.3005  1.8475  1.6125
  582MOL0     H78517  -0.853  10.703   8.505 -0.6910 -0.4168  0.3813
  582MOL0     H78518  -0.899  10.747   8.665 -3.5492 -2.4008 -2.7123
  582MOL0     H78519  -0.904  10.943   8.423 -2.1464  0.6019 -0.5096
  582MOL0     H78520  -0.972  10.969   8.581  0.6041  0.7069  0.2135
  582MOL0     H78521  -1.142  10.766   8.656 -2.1278 -4.3898  0.3181
  582MOL0     H78522  -1.367  10.564   8.523  2.2344  1.0810  0.2713
  582MOL0     H78523  -1.367  10.700   8.647  1.5586 -1.4665  1.0372
  582MOL0     H78524  -1.578  10.672   8.543  0.4027  0.8987  1.5107
  582MOL0     H78525  -1.508  10.716   8.382 -1.5548 -0.9007  0.9348
  582MOL0     H78526  -1.529  10.935   8.424 -1.4030 -1.1028 -0.8173
  582MOL0     H78527  -1.458  10.923   8.588 -0.4058 -0.5570  0.2146
  582MOL0     H78528  -1.669  11.021   8.591 -4.4178 -0.1001 -3.2428
  582MOL0     H78529  -1.676  10.865   8.679  0.0004  1.5711  0.5149
  582MOL0     H78530  -1.870  11.025   8.710  0.4211  4.9752 -3.2210
  582MOL0     H78531  -2.153  11.170   8.784 -0.9476 -0.9303 -1.7975
  582MOL0     H78532  -2.174  11.015   8.861 -0.9312  0.7128  0.7334
  582MOL0     H78533  -2.012  11.101   8.866 -0.6132  0.0836  1.5201
  582MOL0     H78534  -2.610  10.792   8.631 -0.7713  0.0701  0.0832
  582MOL0     H78535  -2.840  10.861   8.630 -0.1201 -0.8854 -0.3155
  582MOL0     H78536  -2.973  11.291   8.556  0.2954  0.0186  0.9964
  582MOL0     H78537  -2.925  11.215   8.405 -1.8375 -1.9776 -2.7752
  582MOL0     H78538  -3.127  11.083   8.387 -0.0884 -1.1456  0.9743
  582MOL0     H78539  -3.193  11.150   8.541 -1.7525 -3.0626 -2.6763
  582MOL0     H78540  -3.144  11.289   8.267 -1.6699  0.6448 -0.3378
  582MOL0     H78541  -3.170  11.380   8.422  2.9673  0.3787 -0.0138
  582MOL0     H78542  -3.376  11.177   8.294 -3.4756  1.1998 -0.7503
  582MOL0     H78543  -3.382  11.271   8.442 -2.6376  2.2625 -2.0690
  582MOL0     H78544  -3.338  11.479   8.318  2.8104 -2.0279  1.5046
  582MOL0     H78545  -3.493  11.412   8.272 -0.3526 -0.3983 -2.2788
  582MOL0     H78546  -3.229  11.418   8.132  0.3641  0.9622 -2.1117
  582MOL0     H78547  -3.361  11.303   8.083 -0.5612 -0.7379  0.1233
  582MOL0     H78548  -3.372  11.600   8.113  2.0930 -1.4329  2.3876
  582MOL0     H78549  -3.501  11.485   8.043  1.2072 -1.8319 -0.4076
  582MOL0     H78550  -3.229  11.545   7.935  1.7209 -2.3566  0.3249
  582MOL0     H78551  -3.390  11.595   7.860 -0.3319 -0.9112  0.6871
  582MOL0     H78552  -2.713  11.238   8.453  0.7538 -0.7499 -1.7747
  582MOL0     H78553  -2.489  11.141   8.410 -1.5188  1.7856 -0.7982
  582MOL0     H78554  -2.203  10.871   8.392 -0.0675  3.4080 -1.5289
  582MOL0     H78555  -1.974  10.797   8.361  3.5136  1.9207 -1.2212
  582MOL0     H78556  -0.052  10.598   8.596  0.4744  0.7671 -0.4850
  582MOL0     H78557   0.177  10.600   8.641 -1.8885  0.7190 -0.3601
  582MOL0     H78558   0.488  10.344   8.849 -1.5512 -0.7802 -2.1270
  582MOL0     H78559   0.722  10.354   8.932 -2.1867 -0.1510 -0.0895
  582MOL0     H78560   1.048  10.394   8.628  4.1553 -0.1190  0.8924
  582MOL0     H78561   1.025  10.566   8.659 -3.7628 -0.7893 -0.1807
  582MOL0     H78562   1.180  10.353   8.794  0.9112  0.1390 -1.7475
  582MOL0     H78563   1.145  10.500   8.893 -3.4665 -0.8243  0.4632
  582MOL0     H78564   1.367  10.522   8.795  0.9889 -3.2699 -1.3234
  582MOL0     H78565   1.265  10.637   8.703 -1.5408 -0.4936  1.7388
  582MOL0     H78566   1.260  10.506   8.522 -0.9984  0.4769  0.9334
  582MOL0     H78567   1.321  10.363   8.608  1.3638  0.2165  0.1516
  582MOL0     H78568   1.699  10.539   8.555 -0.0046 -0.5472  0.2742
  582MOL0     H78569   0.849  10.492   8.544 -1.3153  1.9752 -1.5962
  582MOL0     H78570   0.603  10.510   8.474 -0.6201 -3.8195 -1.2095
  583MOL0     O78571   0.207   0.826   3.814 -0.4165 -0.2692  0.3866
  583MOL0     C78572   0.217   0.842   3.934  0.3685  0.2470  0.1141
  583MOL0     O78573   0.126   0.906   4.018 -0.5294 -0.5925 -0.1835
  583MOL0     C78574   0.016   0.967   3.958  0.1065  0.2747 -0.7789
  583MOL0     C78575   0.022   1.068   3.856  0.1342 -0.7141 -0.1559
  583MOL0     C78576  -0.088   1.144   3.823 -0.8308  0.8530 -1.3924
  583MOL0     C78577  -0.213   1.119   3.882 -0.3829  0.0201 -0.1641
  583MOL0     O78578  -0.330   1.169   3.845  0.0899  0.2437 -0.2838
  583MOL0     C78579  -0.334   1.223   3.713 -0.6060 -0.1049 -0.5666
  583MOL0     C78580  -0.464   1.309   3.696 -0.4430 -0.4763 -0.1288
  583MOL0     C78581  -0.604   1.250   3.745 -1.2347 -0.4219 -0.0658
  583MOL0     C78582  -0.721   1.349   3.735  0.0177  0.2037  1.2243
  583MOL0     C78583  -0.866   1.285   3.700 -0.2187 -0.6165 -1.0026
  583MOL0     C78584  -0.903   1.175   3.794 -0.4663 -0.6205 -0.4645
  583MOL0     C78585  -1.053   1.144   3.771 -0.0506  0.0943  0.0701
  583MOL0     C78586  -1.111   1.022   3.853 -0.3710 -0.3988 -0.8994
  583MOL0     N78587  -1.028   0.901   3.835 -0.3447  0.2352  0.2078
  583MOL0     C78588  -0.916   0.869   3.913 -0.3521 -0.6303 -0.0137
  583MOL0     C78589  -0.871   0.753   3.861  0.3287  0.0921  0.4982
  583MOL0     C78590  -0.748   0.674   3.882 -0.5968  0.2552  0.2901
  583MOL0     C78591  -0.619   0.763   3.902  0.7992 -0.1646 -0.7405
  583MOL0     C78592  -0.591   0.854   3.780  0.6975 -0.1289  0.4733
  583MOL0     C78593  -0.529   0.799   3.648  0.1187 -0.2030 -0.6664
  583MOL0     O78594  -0.557   0.891   3.540 -0.5287 -0.0170  0.2673
  583MOL0     C78595  -0.673   0.902   3.468 -0.5836 -0.3362  0.6667
  583MOL0     C78596  -0.690   1.014   3.384  0.8199  0.0466 -0.1322
  583MOL0     C78597  -0.806   1.055   3.316  1.0143  0.1980 -0.6811
  583MOL0     C78598  -0.804   1.185   3.244  0.1046  0.4820 -0.2695
  583MOL0     C78599  -0.920   0.971   3.337 -0.2481  0.1472  0.2447
  583MOL0     C78600  -1.062   0.991   3.307 -0.1789 -0.8910 -0.2868
  583MOL0     O78601  -1.164   0.905   3.351 -0.2915  0.1123  0.4154
  583MOL0     C78602  -1.291   0.948   3.359 -0.1799  0.0044  0.6871
  583MOL0     C78603  -1.386   0.919   3.265  0.2494  0.7349  0.9957
  583MOL0     C78604  -1.519   0.951   3.282  0.7420 -0.1888 -0.6406
  583MOL0     C78605  -1.566   1.020   3.391 -0.4263 -0.3302 -1.0397
  583MOL0     O78606  -1.699   1.040   3.434  0.0134  0.6704  0.2086
  583MOL0     C78607  -1.801   1.017   3.337 -0.3430  0.0840 -0.2564
  583MOL0     C78608  -1.938   1.037   3.402 -0.5766 -0.5980 -0.3378
  583MOL0     C78609  -1.966   0.931   3.507  0.5298  0.0015 -0.0054
  583MOL0     C78610  -2.103   0.942   3.571  0.2759 -0.5371  0.3076
  583MOL0     C78611  -2.098   0.860   3.693 -0.3628  0.0402 -0.0304
  583MOL0     C78612  -2.111   0.721   3.664 -0.3049  0.2098 -0.7861
  583MOL0     C78613  -2.107   0.638   3.789 -1.5238  0.9586  0.0511
  583MOL0     C78614  -1.968   0.634   3.859  0.1641  1.1778 -0.3852
  583MOL0    Cl78615  -1.963   0.759   3.989  0.1217  0.0616 -0.1076
  583MOL0     C78616  -1.467   1.058   3.484  0.1669  0.3478  0.1228
  583MOL0     C78617  -1.339   1.018   3.467 -0.0577  0.2106  0.6311
  583MOL0     O78618  -1.088   1.094   3.245  0.4243  0.5830  0.1742
  583MOL0     C78619  -0.905   0.855   3.417 -0.4051  0.3015  0.4969
  583MOL0     C78620  -0.778   0.811   3.478  0.3133  0.0140 -0.2839
  583MOL0     N78621  -0.957   0.718   3.751 -1.2879 -0.6158 -0.3984
  583MOL0     N78622  -1.053   0.800   3.738 -0.0429 -0.3062  0.2515
  583MOL0     C78623  -0.226   1.003   3.960  0.3210  0.2482  0.3701
  583MOL0     C78624  -0.116   0.931   4.004  0.8718  0.0506 -0.4458
  583MOL0     C78625   0.321   0.765   3.998 -0.9957  1.0892 -0.9205
  583MOL0     C78626   0.407   0.687   3.923  0.6091 -0.2295  0.4039
  583MOL0     C78627   0.499   0.608   3.995  0.3324  0.1208  0.0294
  583MOL0     C78628   0.521   0.615   4.140  0.8826  0.7015  0.2486
  583MOL0     O78629   0.604   0.537   4.211 -0.6363  0.2816 -0.2098
  583MOL0     C78630   0.702   0.454   4.151  0.4881  0.5326  0.3940
  583MOL0     C78631   0.807   0.394   4.251  0.1350 -0.1888 -0.0698
  583MOL0     C78632   0.862   0.509   4.339  0.0934  0.6658  0.1382
  583MOL0     C78633   1.019   0.499   4.362 -0.3411  0.9057  0.3570
  583MOL0     C78634   1.064   0.601   4.462 -0.7539 -0.8810 -0.0025
  583MOL0     C78635   1.107   0.675   4.551  0.3518  0.2236 -0.8777
  583MOL0     C78636   0.451   0.718   4.205  0.3237  0.1339  0.1515
  583MOL0     C78637   0.345   0.777   4.139  0.8046  0.1631 -0.0608
  583MOL0     H78638   0.117   1.080   3.805  1.5251  1.0637  2.6101
  583MOL0     H78639  -0.092   1.238   3.769 -1.1457  1.4218 -0.4191
  583MOL0     H78640  -0.253   1.283   3.672 -2.9507  2.1941 -2.2078
  583MOL0     H78641  -0.339   1.140   3.640  2.1629  1.2372 -2.4746
  583MOL0     H78642  -0.447   1.410   3.734  1.2014 -1.2662  1.3976
  583MOL0     H78643  -0.482   1.331   3.590 -1.7887 -0.1852  0.1394
  583MOL0     H78644  -0.619   1.162   3.681  0.5827  0.9050 -2.4642
  583MOL0     H78645  -0.594   1.203   3.843 -1.3327 -0.8218 -0.2443
  583MOL0     H78646  -0.729   1.409   3.827  1.0987  1.2265  0.6691
  583MOL0     H78647  -0.697   1.424   3.659  1.5124  2.2687  3.5576
  583MOL0     H78648  -0.933   1.371   3.711  1.6852  0.6482  2.3602
  583MOL0     H78649  -0.855   1.247   3.598  4.5033 -1.6876 -0.3281
  583MOL0     H78650  -0.850   1.085   3.760 -0.9265 -0.5378 -1.4391
  583MOL0     H78651  -0.886   1.202   3.898  2.8150 -1.5317 -0.6735
  583MOL0     H78652  -1.113   1.231   3.800  1.1950  1.1875 -0.5732
  583MOL0     H78653  -1.070   1.133   3.663  0.5293  1.5438 -0.1887
  583MOL0     H78654  -1.211   0.997   3.818 -1.7720  0.0056  2.4567
  583MOL0     H78655  -1.124   1.058   3.955 -0.5370  3.2347 -2.0571
  583MOL0     H78656  -0.872   0.919   3.998 -1.3519 -1.8593  1.2818
  583MOL0     H78657  -0.748   0.618   3.976 -0.0199 -0.2911 -0.0203
  583MOL0     H78658  -0.737   0.602   3.800 -1.8933  3.0116 -2.5073
  583MOL0     H78659  -0.526   0.710   3.927  0.4661 -0.1536  0.5542
  583MOL0     H78660  -0.643   0.832   3.983  0.5101 -0.2256 -0.7746
  583MOL0     H78661  -0.533   0.941   3.813 -1.9025  0.6920  3.3692
  583MOL0     H78662  -0.684   0.900   3.744  0.6103 -0.4036  0.3436
  583MOL0     H78663  -0.571   0.701   3.625 -0.6483 -0.6207  2.1971
  583MOL0     H78664  -0.420   0.789   3.656  0.1700  0.0977 -0.9541
  583MOL0     H78665  -0.604   1.080   3.374  0.4613  0.5733  0.1893
  583MOL0     H78666  -0.842   1.265   3.308 -0.1864  3.3857 -3.7305
  583MOL0     H78667  -0.701   1.213   3.222 -0.0064  1.6161  0.5604
  583MOL0     H78668  -0.861   1.175   3.151  0.4194  0.4224 -0.4546
  583MOL0     H78669  -1.350   0.869   3.175 -0.1689 -1.9305  2.2205
  583MOL0     H78670  -1.595   0.915   3.212 -1.6414  3.6003 -0.3245
  583MOL0     H78671  -1.791   1.091   3.257 -0.6348  0.3848 -0.0197
  583MOL0     H78672  -1.805   0.918   3.291 -2.9255 -0.1653  0.3556
  583MOL0     H78673  -1.951   1.128   3.461  1.8510 -1.2262  1.3300
  583MOL0     H78674  -2.001   1.046   3.313  0.3802  1.2382 -0.8772
  583MOL0     H78675  -1.884   0.925   3.579  0.2419 -1.2679  0.2433
  583MOL0     H78676  -1.967   0.837   3.452 -1.9356  0.0032 -0.0652
  583MOL0     H78677  -2.121   1.044   3.605 -3.4892 -1.0118  0.1488
  583MOL0     H78678  -2.183   0.919   3.500  0.0771  0.6707  0.1220
  583MOL0     H78679  -2.177   0.898   3.759 -0.0426  0.9175 -0.1368
  583MOL0     H78680  -2.008   0.889   3.749 -0.4811  2.3491 -0.9328
  583MOL0     H78681  -2.197   0.692   3.602 -1.3421 -0.6885  0.9954
  583MOL0     H78682  -2.029   0.693   3.597 -1.8144  0.6045 -2.9227
  583MOL0     H78683  -2.135   0.535   3.767  0.5559  0.3893 -0.1798
  583MOL0     H78684  -2.182   0.668   3.863 -0.3750  3.8802  0.2021
  583MOL0     H78685  -1.895   0.658   3.781 -0.3621  0.5410 -1.0931
  583MOL0     H78686  -1.939   0.535   3.897 -3.0444  1.1654  2.5590
  583MOL0     H78687  -1.493   1.117   3.571 -0.0267  1.0548 -0.4071
  583MOL0     H78688  -1.256   1.055   3.527  1.0804 -1.0689 -0.0845
  583MOL0     H78689  -0.993   0.797   3.439 -2.8464  4.3122  2.4716
  583MOL0     H78690  -0.791   0.717   3.529 -0.9773 -0.7333 -1.9042
  583MOL0     H78691  -0.314   0.974   4.017  1.0947 -0.4995  1.2131
  583MOL0     H78692  -0.134   0.858   4.083  1.7119 -0.8741 -1.0760
  583MOL0     H78693   0.400   0.672   3.815  4.2287  1.5391 -0.2089
  583MOL0     H78694   0.549   0.531   3.937  0.5501  2.3643 -3.0066
  583MOL0     H78695   0.642   0.372   4.111 -1.3931  0.0501  3.7881
  583MOL0     H78696   0.754   0.500   4.067 -0.9072  0.4111 -0.5731
  583MOL0     H78697   0.888   0.349   4.194 -0.7912 -1.6673 -0.2582
  583MOL0     H78698   0.757   0.324   4.320  2.3646 -3.2933 -1.3990
  583MOL0     H78699   0.824   0.488   4.440  3.0807 -1.5754  0.9463
  583MOL0     H78700   0.845   0.607   4.293  0.3376 -0.1245 -1.7083
  583MOL0     H78701   1.071   0.529   4.271  0.5587 -0.8314  0.2562
  583MOL0     H78702   1.057   0.398   4.376  0.1296  0.8521 -1.1650
  583MOL0     H78703   1.147   0.750   4.616 -0.7945  2.1283 -2.2330
  583MOL0     H78704   0.467   0.740   4.310  0.7051  0.2957  0.0602
  583MOL0     H78705   0.289   0.849   4.198 -0.8927 -0.2506 -1.1212
  584MOL0     O78706   0.244   1.444   6.110  0.4483 -0.5743  0.4397
  584MOL0     C78707   0.225   1.357   6.027  0.2185 -0.1122 -0.2937
  584MOL0     O78708   0.107   1.326   5.960 -0.1368 -0.1941  0.2575
  584MOL0     C78709  -0.009   1.392   5.975  0.4140  0.1591 -1.2713
  584MOL0     C78710  -0.122   1.328   5.928  0.2031 -0.7981 -0.0693
  584MOL0     C78711  -0.250   1.383   5.944 -0.7095 -0.0322 -0.2351
  584MOL0     C78712  -0.271   1.508   5.998  0.4130 -0.2634  0.3708
  584MOL0     O78713  -0.396   1.560   6.033  0.8795  0.7418  1.0235
  584MOL0     C78714  -0.448   1.486   6.149 -0.4069  0.1122 -0.7832
  584MOL0     C78715  -0.560   1.573   6.191 -0.2640 -0.0733  0.2053
  584MOL0     C78716  -0.622   1.533   6.324 -0.0301 -0.3961 -0.2696
  584MOL0     C78717  -0.737   1.613   6.371  0.2200 -0.7158 -0.2634
  584MOL0     C78718  -0.860   1.602   6.276 -0.4804 -0.2153 -0.3880
  584MOL0     C78719  -0.986   1.669   6.336 -0.2278 -0.0744 -0.1377
  584MOL0     C78720  -1.119   1.637   6.260  0.7618 -0.6051  0.4167
  584MOL0     C78721  -1.225   1.738   6.307  0.3391  0.8816 -1.0623
  584MOL0     N78722  -1.369   1.690   6.294 -0.9130 -0.9765  0.1077
  584MOL0     C78723  -1.408   1.575   6.214 -0.5103 -0.4046 -0.2391
  584MOL0     C78724  -1.533   1.551   6.239 -0.3984 -0.9647  0.2370
  584MOL0     C78725  -1.609   1.444   6.172 -0.0214  0.5895  0.4345
  584MOL0     C78726  -1.759   1.444   6.209  0.4180  0.0003  0.9188
  584MOL0     C78727  -1.835   1.331   6.132  0.0821 -0.5131  0.6769
  584MOL0     C78728  -1.974   1.317   6.196 -0.2454 -0.4216 -0.0416
  584MOL0     O78729  -1.970   1.278   6.332  0.1808  0.5260 -0.7073
  584MOL0     C78730  -2.081   1.202   6.378 -0.7651  0.4990  1.0650
  584MOL0     C78731  -2.215   1.223   6.332 -0.7231 -0.2957 -1.1465
  584MOL0     C78732  -2.323   1.136   6.378 -0.8208 -0.2728 -0.5446
  584MOL0     C78733  -2.458   1.191   6.354  0.6016  0.4068  0.0085
  584MOL0     C78734  -2.293   1.024   6.460 -0.8792 -0.5106 -0.1306
  584MOL0     C78735  -2.380   0.914   6.501  0.3786 -0.2001  0.2087
  584MOL0     O78736  -2.331   0.820   6.584  0.1104 -0.6677 -0.2030
  584MOL0     C78737  -2.403   0.711   6.615  0.3260  0.4326 -0.9321
  584MOL0     C78738  -2.530   0.672   6.562 -0.3730  0.5921 -1.1066
  584MOL0     C78739  -2.603   0.569   6.614  0.4028 -0.7520 -0.8389
  584MOL0     C78740  -2.568   0.502   6.738  0.7728 -0.5673  0.7680
  584MOL0     O78741  -2.651   0.419   6.803 -0.0466  1.0395  0.1230
  584MOL0     C78742  -2.768   0.382   6.730 -0.0447 -0.0972 -0.4201
  584MOL0     C78743  -2.853   0.276   6.805 -1.2825  0.4836 -0.7333
  584MOL0     C78744  -2.781   0.137   6.784  0.1491 -0.0056 -0.1147
  584MOL0     C78745  -2.854   0.028   6.850  0.6359  0.3743  0.0732
  584MOL0     C78746  -2.947  -0.044   6.746 -0.4594  0.1815 -0.0369
  584MOL0     C78747  -2.983  -0.177   6.817  0.4533  0.1384 -0.0375
  584MOL0     C78748  -3.098  -0.247   6.734  0.6645 -0.9295 -0.3870
  584MOL0     C78749  -3.125  -0.385   6.785  0.6206  0.1796 -0.4309
  584MOL0    Cl78750  -2.979  -0.493   6.763 -0.5247 -0.0664  0.0576
  584MOL0     C78751  -2.450   0.546   6.797 -1.1305  0.2643 -1.0332
  584MOL0     C78752  -2.367   0.642   6.735  0.9436 -0.9011 -0.3463
  584MOL0     O78753  -2.495   0.925   6.460 -0.1235 -0.1418  0.1923
  584MOL0     C78754  -2.153   1.010   6.511 -0.0504 -0.2709  1.2132
  584MOL0     C78755  -2.052   1.098   6.471  0.2646 -0.3626 -0.5290
  584MOL0     N78756  -1.577   1.656   6.312 -0.5803 -0.4349  0.3490
  584MOL0     N78757  -1.480   1.739   6.355  0.3709 -0.2037 -0.2895
  584MOL0     C78758  -0.160   1.585   6.035 -0.1410  1.0882 -0.0583
  584MOL0     C78759  -0.030   1.522   6.032  0.8080 -0.0149  0.2466
  584MOL0     C78760   0.343   1.269   6.003  0.0769 -0.2338  0.6121
  584MOL0     C78761   0.458   1.287   6.068 -0.1926  0.2328 -1.0184
  584MOL0     C78762   0.571   1.213   6.033  0.3520 -0.0803  0.4674
  584MOL0     C78763   0.567   1.132   5.917 -0.2420  0.4669  0.3199
  584MOL0     O78764   0.685   1.084   5.873 -0.6410 -0.3170  0.1779
  584MOL0     C78765   0.721   1.100   5.733 -0.6767  0.2933  0.3255
  584MOL0     C78766   0.878   1.127   5.706  0.4023  0.0714 -0.8654
  584MOL0     C78767   0.964   0.998   5.730 -0.5817  0.4915  0.4545
  584MOL0     C78768   0.944   0.940   5.872 -0.4104 -0.4375  0.0286
  584MOL0     C78769   1.055   0.840   5.896 -0.0916 -0.2653  0.3560
  584MOL0     C78770   1.148   0.762   5.908  0.0031  0.3052 -0.1123
  584MOL0     C78771   0.452   1.123   5.841  0.3088  1.0343  0.6367
  584MOL0     C78772   0.338   1.186   5.889 -0.0512  0.5283 -1.0240
  584MOL0     H78773  -0.113   1.234   5.876  0.8811 -0.4829 -0.5355
  584MOL0     H78774  -0.339   1.324   5.924 -1.2023  0.3715  0.7003
  584MOL0     H78775  -0.487   1.391   6.113  1.0298 -0.9277  0.2957
  584MOL0     H78776  -0.373   1.459   6.224  0.2642 -0.8665 -1.7727
  584MOL0     H78777  -0.524   1.676   6.204  1.7494 -0.5494 -1.1328
  584MOL0     H78778  -0.627   1.577   6.104  0.2673  2.6887 -0.1884
  584MOL0     H78779  -0.664   1.432   6.313 -1.4822 -0.2388  2.9046
  584MOL0     H78780  -0.542   1.532   6.399 -0.7430  1.5190  0.5789
  584MOL0     H78781  -0.765   1.571   6.468  0.3412 -0.2719 -0.0325
  584MOL0     H78782  -0.705   1.716   6.390 -0.6330 -0.5058  0.0782
  584MOL0     H78783  -0.845   1.653   6.181  2.9420 -1.1755 -0.4702
  584MOL0     H78784  -0.885   1.496   6.265  2.6398 -1.1009  0.2249
  584MOL0     H78785  -1.005   1.630   6.436 -1.7471  0.0468 -0.3505
  584MOL0     H78786  -0.975   1.777   6.340 -3.2733  0.2925  1.4998
  584MOL0     H78787  -1.105   1.644   6.151  0.5869  2.4863  0.4947
  584MOL0     H78788  -1.149   1.534   6.280 -1.4028 -1.0388 -3.8856
  584MOL0     H78789  -1.223   1.835   6.256 -0.4762  0.4753 -1.8677
  584MOL0     H78790  -1.210   1.756   6.414  0.7670  0.7756 -1.0998
  584MOL0     H78791  -1.338   1.511   6.160 -1.6030 -0.7212 -1.3444
  584MOL0     H78792  -1.586   1.463   6.067  1.2248 -4.1352 -0.3926
  584MOL0     H78793  -1.558   1.350   6.198  1.1393  0.7841 -1.0476
  584MOL0     H78794  -1.808   1.536   6.179 -2.3217 -2.3906 -2.8171
  584MOL0     H78795  -1.766   1.428   6.317  2.8916  0.6687  1.2552
  584MOL0     H78796  -1.792   1.232   6.149 -0.6920 -0.7144  1.5231
  584MOL0     H78797  -1.839   1.362   6.027 -2.5727 -0.3893  0.7475
  584MOL0     H78798  -2.023   1.239   6.138  0.6511 -1.5839  0.7039
  584MOL0     H78799  -2.037   1.405   6.182 -0.6787 -1.0361 -2.2715
  584MOL0     H78800  -2.227   1.314   6.274  0.3896  1.2617  0.9112
  584MOL0     H78801  -2.495   1.237   6.447 -0.3601  2.0111 -1.1171
  584MOL0     H78802  -2.458   1.273   6.282  0.7928  1.2272  0.9283
  584MOL0     H78803  -2.538   1.128   6.314 -1.1113  3.0424 -1.0249
  584MOL0     H78804  -2.585   0.718   6.480 -2.3883 -2.3973 -1.6220
  584MOL0     H78805  -2.700   0.552   6.568 -0.1841 -1.9898  0.7750
  584MOL0     H78806  -2.831   0.471   6.715 -0.3099 -0.2191 -0.0322
  584MOL0     H78807  -2.738   0.350   6.630  1.0099 -0.1959 -0.0747
  584MOL0     H78808  -2.860   0.298   6.912 -0.9572 -0.8633 -0.4105
  584MOL0     H78809  -2.957   0.287   6.774 -2.4247  2.9582  3.2518
  584MOL0     H78810  -2.679   0.136   6.822 -0.1916 -1.2122  0.8223
  584MOL0     H78811  -2.781   0.119   6.676  1.6382 -2.4957  0.2263
  584MOL0     H78812  -2.779  -0.042   6.888  1.9871  1.1690 -1.0569
  584MOL0     H78813  -2.915   0.055   6.936 -1.7101 -3.7848  0.0073
  584MOL0     H78814  -2.891  -0.074   6.656 -2.2291 -2.0889 -0.4827
  584MOL0     H78815  -3.033   0.011   6.708  0.2327  0.8463 -0.6874
  584MOL0     H78816  -2.895  -0.240   6.829  1.1910  1.0304 -0.6418
  584MOL0     H78817  -3.015  -0.154   6.919 -1.2514  3.6162 -1.1710
  584MOL0     H78818  -3.072  -0.270   6.630  1.3673 -0.1315 -0.3979
  584MOL0     H78819  -3.187  -0.184   6.741  1.6152  0.4797 -0.7704
  584MOL0     H78820  -3.202  -0.432   6.722 -0.5206  0.3687  0.7799
  584MOL0     H78821  -3.157  -0.379   6.889 -2.4751  1.2624 -1.3050
  584MOL0     H78822  -2.432   0.510   6.898  2.4180  2.3439 -0.7463
  584MOL0     H78823  -2.278   0.659   6.795 -0.4830  0.7234  1.4617
  584MOL0     H78824  -2.118   0.924   6.568  0.7317 -1.1116 -0.4746
  584MOL0     H78825  -1.950   1.080   6.503  0.1914 -2.6285 -1.3826
  584MOL0     H78826  -0.172   1.684   6.078  0.2583  1.6312 -1.1513
  584MOL0     H78827   0.049   1.575   6.083  0.4135 -1.7333  2.8092
  584MOL0     H78828   0.468   1.359   6.149 -1.6921 -1.1364  0.4944
  584MOL0     H78829   0.662   1.231   6.089  1.5888  0.7311 -1.6711
  584MOL0     H78830   0.699   1.000   5.694 -0.5923  0.8521 -1.2108
  584MOL0     H78831   0.663   1.179   5.685  1.6392  0.4809 -2.4606
  584MOL0     H78832   0.920   1.213   5.759  1.5223  2.1647 -4.7793
  584MOL0     H78833   0.898   1.141   5.599 -0.2051  0.2132 -0.9610
  584MOL0     H78834   1.069   1.025   5.726  0.0593 -1.9268 -0.5381
  584MOL0     H78835   0.951   0.925   5.650 -3.2118 -1.0729  2.1454
  584MOL0     H78836   0.849   0.886   5.881 -1.4043  1.2506  0.2908
  584MOL0     H78837   0.952   1.022   5.945  0.8487 -2.4179  2.2350
  584MOL0     H78838   1.233   0.696   5.912  1.8978  2.6452  0.8571
  584MOL0     H78839   0.446   1.084   5.740 -0.4351 -1.2299  1.4990
  584MOL0     H78840   0.243   1.167   5.841 -1.6093  0.7317  1.7794
  585MOL0     O78841   9.297   8.908   7.888  0.4770  0.1948 -0.8571
  585MOL0     C78842   9.348   8.844   7.796 -0.2991 -0.3016  0.0492
  585MOL0     O78843   9.287   8.816   7.680 -0.2016  0.5687  0.4210
  585MOL0     C78844   9.154   8.853   7.678  0.6497  0.4628  0.1534
  585MOL0     C78845   9.111   8.988   7.665 -0.3592  1.2880  0.0381
  585MOL0     C78846   8.975   9.015   7.691 -0.4305  0.8259 -1.2130
  585MOL0     C78847   8.888   8.912   7.720  0.1081 -0.0761  0.5527
  585MOL0     O78848   8.760   8.941   7.764 -0.6378 -0.5624 -0.5623
  585MOL0     C78849   8.718   9.080   7.778 -0.1259  0.5306  0.2443
  585MOL0     C78850   8.572   9.086   7.818  0.3443 -0.1000 -0.0638
  585MOL0     C78851   8.478   9.058   7.696 -0.1083  0.4269 -0.4015
  585MOL0     C78852   8.332   9.095   7.724 -0.0980  0.0390 -0.4938
  585MOL0     C78853   8.259   8.972   7.795 -0.0529 -0.7975  0.3336
  585MOL0     C78854   8.109   9.019   7.831  0.0995 -0.6427  0.3923
  585MOL0     C78855   8.012   9.007   7.714  0.0504  0.3590 -0.2601
  585MOL0     C78856   7.970   8.852   7.691 -0.2547 -0.1284 -0.0373
  585MOL0     N78857   7.894   8.833   7.574 -0.3950 -0.2051 -0.3864
  585MOL0     C78858   7.778   8.773   7.568  0.9173  0.2491  0.7345
  585MOL0     C78859   7.742   8.784   7.436  0.4937 -0.4379  0.7527
  585MOL0     C78860   7.621   8.731   7.365  1.4329 -0.4325 -0.9655
  585MOL0     C78861   7.515   8.828   7.310 -0.2337  0.7084 -0.4488
  585MOL0     C78862   7.563   8.951   7.233  0.0438  0.9225 -0.2135
  585MOL0     C78863   7.609   8.946   7.084  0.3678  0.0548 -0.8766
  585MOL0     O78864   7.527   8.856   7.005  0.0583  0.2553 -1.0613
  585MOL0     C78865   7.405   8.900   6.963  0.7411  0.8680 -0.0593
  585MOL0     C78866   7.327   8.793   6.916 -0.2449 -0.2126  0.3472
  585MOL0     C78867   7.198   8.817   6.870 -1.0586  0.2493  0.5829
  585MOL0     C78868   7.137   8.690   6.826 -0.3944  0.9616 -0.3851
  585MOL0     C78869   7.135   8.948   6.876 -0.6934  0.7008  0.1074
  585MOL0     C78870   6.997   8.977   6.819 -0.0205 -0.7784 -0.1175
  585MOL0     O78871   6.974   9.112   6.778  0.0745 -0.1356  0.1376
  585MOL0     C78872   6.853   9.154   6.734 -0.4138 -0.4663 -0.5522
  585MOL0     C78873   6.788   9.101   6.624 -0.0423 -0.3360  0.0764
  585MOL0     C78874   6.656   9.155   6.580 -0.1563 -0.2949  0.0044
  585MOL0     C78875   6.604   9.263   6.657  0.4110  1.1836  0.7690
  585MOL0     O78876   6.494   9.337   6.625 -0.2213  0.6117 -0.7195
  585MOL0     C78877   6.389   9.276   6.553  0.1084 -0.1659 -0.1883
  585MOL0     C78878   6.258   9.345   6.588 -1.0516 -0.8280 -0.1193
  585MOL0     C78879   6.141   9.274   6.534  0.0733 -0.2399  0.1356
  585MOL0     C78880   6.001   9.322   6.592  0.2017 -0.5148 -0.1275
  585MOL0     C78881   5.882   9.247   6.523 -0.4100 -0.9834 -0.3602
  585MOL0     C78882   5.737   9.275   6.583 -0.8718 -0.0171  0.8537
  585MOL0     C78883   5.692   9.420   6.549 -0.7556  0.3067  0.0267
  585MOL0     C78884   5.553   9.447   6.589  0.1126 -0.0020 -0.3868
  585MOL0    Cl78885   5.544   9.451   6.772 -0.0478  0.3878 -0.0103
  585MOL0     C78886   6.670   9.312   6.768  0.0589  0.5624  0.0363
  585MOL0     C78887   6.794   9.262   6.803 -0.3093 -1.1498  0.3916
  585MOL0     O78888   6.911   8.899   6.829  0.3043 -0.0881 -0.1558
  585MOL0     C78889   7.213   9.051   6.926 -0.5724 -0.0520  0.4088
  585MOL0     C78890   7.349   9.032   6.970 -0.2333  0.5737 -0.0766
  585MOL0     N78891   7.846   8.837   7.361 -0.0588  0.7349 -0.8672
  585MOL0     N78892   7.933   8.878   7.449 -0.1311 -0.2003  0.4583
  585MOL0     C78893   8.929   8.785   7.723  0.1922  0.3868 -0.2039
  585MOL0     C78894   9.060   8.751   7.702  0.4198  0.4038 -0.1162
  585MOL0     C78895   9.492   8.818   7.813 -0.2367  0.2873  0.9192
  585MOL0     C78896   9.578   8.897   7.885 -0.1597 -0.9822 -0.6053
  585MOL0     C78897   9.705   8.869   7.894 -0.0388 -0.0699 -0.1362
  585MOL0     C78898   9.753   8.743   7.842  0.4072  0.2869  0.0244
  585MOL0     O78899   9.887   8.707   7.852  0.6791 -0.4843 -0.2597
  585MOL0     C78900   9.981   8.809   7.896 -0.3795 -0.5625  0.2109
  585MOL0     C78901  10.126   8.755   7.900 -0.0082 -0.4551 -0.5930
  585MOL0     C78902  10.221   8.833   8.002  0.3031 -0.1632  0.0405
  585MOL0     C78903  10.361   8.778   7.982 -1.0785  0.1914  1.3547
  585MOL0     C78904  10.444   8.800   8.102 -0.0028  0.0036 -0.0333
  585MOL0     C78905  10.523   8.826   8.191  0.4710 -0.2600 -0.2718
  585MOL0     C78906   9.663   8.660   7.781  0.1257 -0.5370 -0.2613
  585MOL0     C78907   9.532   8.695   7.761 -0.7492 -0.0736  0.0983
  585MOL0     H78908   9.181   9.068   7.642  2.7572 -1.7864 -2.3585
  585MOL0     H78909   8.948   9.119   7.704 -0.2841  0.7657 -0.3601
  585MOL0     H78910   8.782   9.138   7.845 -0.3971  1.4537 -0.2754
  585MOL0     H78911   8.734   9.116   7.676  1.4276  2.9577  1.2628
  585MOL0     H78912   8.550   9.005   7.889  0.1628 -0.3586 -0.4100
  585MOL0     H78913   8.546   9.180   7.867 -0.2635 -1.3898  2.2202
  585MOL0     H78914   8.506   9.125   7.615  1.1443 -0.1190 -0.4336
  585MOL0     H78915   8.481   8.954   7.662 -0.9390  0.6580 -1.2204
  585MOL0     H78916   8.335   9.188   7.782 -0.4764  0.1075 -0.5748
  585MOL0     H78917   8.284   9.100   7.625 -0.4731 -4.0022 -0.6653
  585MOL0     H78918   8.250   8.887   7.727  1.3695  0.3747 -1.4044
  585MOL0     H78919   8.313   8.943   7.886  0.2223 -0.0967  0.4012
  585MOL0     H78920   8.079   8.964   7.920 -0.4475  2.4096  2.2652
  585MOL0     H78921   8.126   9.124   7.859  3.6312 -0.1678 -2.7318
  585MOL0     H78922   7.921   9.061   7.743 -1.3718 -1.6951 -0.6889
  585MOL0     H78923   8.050   9.042   7.618  1.5873 -0.4351  0.0269
  585MOL0     H78924   7.910   8.829   7.779  0.5813  1.5501  1.0207
  585MOL0     H78925   8.053   8.782   7.678 -1.0599 -0.7987 -2.0189
  585MOL0     H78926   7.726   8.724   7.649  1.6337 -1.2056  0.3509
  585MOL0     H78927   7.658   8.661   7.289  1.4393  0.9488 -2.2898
  585MOL0     H78928   7.566   8.663   7.431  0.6045 -1.0786 -2.2621
  585MOL0     H78929   7.477   8.873   7.402  0.6424 -0.9460  0.7580
  585MOL0     H78930   7.428   8.784   7.260 -0.4394  0.1790  0.3680
  585MOL0     H78931   7.646   8.997   7.289 -0.2925  1.3874 -0.0955
  585MOL0     H78932   7.477   9.018   7.235 -1.9363 -1.4764  2.0267
  585MOL0     H78933   7.710   8.904   7.087  0.1879 -0.3587 -0.3281
  585MOL0     H78934   7.611   9.046   7.041  2.0297 -0.2006 -1.4687
  585MOL0     H78935   7.367   8.693   6.916  1.7237  0.5350  0.2962
  585MOL0     H78936   7.135   8.683   6.717 -0.0722 -0.4845 -0.3151
  585MOL0     H78937   7.189   8.603   6.867  1.1810  3.2075  2.8092
  585MOL0     H78938   7.035   8.690   6.864  0.4971  0.7402  2.1529
  585MOL0     H78939   6.837   9.026   6.564  1.4004  1.5052 -1.1444
  585MOL0     H78940   6.596   9.115   6.499 -0.7844 -2.3813  1.4222
  585MOL0     H78941   6.406   9.278   6.445 -2.1739  1.1582 -0.6002
  585MOL0     H78942   6.383   9.172   6.585 -2.0958 -0.3191 -0.9730
  585MOL0     H78943   6.240   9.353   6.696  0.2711  0.0625  0.0702
  585MOL0     H78944   6.252   9.446   6.545  0.1841 -0.5088  0.3878
  585MOL0     H78945   6.153   9.167   6.556  1.5400  0.1313  1.2766
  585MOL0     H78946   6.143   9.292   6.426 -4.5838  0.2179 -0.0937
  585MOL0     H78947   6.001   9.301   6.700 -1.4369 -2.0871 -0.3691
  585MOL0     H78948   6.001   9.427   6.561 -0.8726 -0.2097  0.8123
  585MOL0     H78949   5.907   9.143   6.544 -0.4652 -0.9280 -0.0066
  585MOL0     H78950   5.881   9.252   6.414 -0.5760 -1.8126 -0.4018
  585MOL0     H78951   5.660   9.205   6.549 -0.8277  0.8030 -1.0468
  585MOL0     H78952   5.752   9.264   6.691  4.6186  0.8124  0.4634
  585MOL0     H78953   5.712   9.442   6.444  2.0684 -2.0811 -0.0583
  585MOL0     H78954   5.755   9.491   6.604 -0.6421  0.4031 -0.2260
  585MOL0     H78955   5.488   9.365   6.557 -1.4540  0.0816  2.2917
  585MOL0     H78956   5.513   9.540   6.547 -0.9825 -1.0218 -1.7076
  585MOL0     H78957   6.633   9.399   6.821  2.2497  2.6465 -1.5814
  585MOL0     H78958   6.848   9.314   6.881 -0.7336  0.2893 -0.2489
  585MOL0     H78959   7.172   9.149   6.945 -1.9322 -0.6311  0.5292
  585MOL0     H78960   7.397   9.127   6.990 -1.4234  1.2572 -0.3631
  585MOL0     H78961   8.854   8.709   7.741 -0.0259  0.2504 -1.5970
  585MOL0     H78962   9.080   8.644   7.701 -1.9115 -0.0901 -0.1247
  585MOL0     H78963   9.543   8.993   7.922 -1.4546 -2.2175  1.5736
  585MOL0     H78964   9.760   8.949   7.942 -1.7395  0.1741  1.5309
  585MOL0     H78965   9.974   8.884   7.817 -1.9371 -1.8617 -0.9749
  585MOL0     H78966   9.956   8.852   7.994 -0.0173 -1.6970  0.8221
  585MOL0     H78967  10.169   8.758   7.800 -0.4100 -1.0623 -0.7875
  585MOL0     H78968  10.119   8.647   7.915  0.4665 -0.8272 -2.8056
  585MOL0     H78969  10.184   8.824   8.104  4.8801 -1.2286  1.8439
  585MOL0     H78970  10.223   8.937   7.968 -0.3047 -0.7368 -1.8666
  585MOL0     H78971  10.410   8.836   7.903 -0.1254  1.2795  2.6851
  585MOL0     H78972  10.365   8.671   7.963  1.7579  0.2744  0.9450
  585MOL0     H78973  10.607   8.864   8.245 -0.6895  0.8027  0.8322
  585MOL0     H78974   9.702   8.572   7.732  1.1425  1.8240 -4.1865
  585MOL0     H78975   9.469   8.639   7.692  1.3086 -1.2890 -0.8974
  586MOL0     O78976   4.023  11.273   6.592  0.0863 -0.2579 -1.1001
  586MOL0     C78977   4.086  11.201   6.519  0.1650 -0.0824  0.5982
  586MOL0     O78978   4.033  11.083   6.466 -0.5627 -0.5243 -0.1428
  586MOL0     C78979   3.902  11.049   6.494 -0.1314 -0.1353 -0.3919
  586MOL0     C78980   3.862  11.020   6.625  0.6976 -0.3483 -1.3142
  586MOL0     C78981   3.732  10.973   6.644 -0.5002 -0.2269  0.4378
  586MOL0     C78982   3.638  10.964   6.541  0.2900 -0.3530  0.0321
  586MOL0     O78983   3.500  10.937   6.547  0.4074  0.0337  0.0737
  586MOL0     C78984   3.434  10.954   6.672 -0.1654  0.5434 -0.0431
  586MOL0     C78985   3.358  10.830   6.725 -0.2498 -0.1200  0.2717
  586MOL0     C78986   3.243  10.788   6.642  0.0279  0.1879 -0.2873
  586MOL0     C78987   3.189  10.652   6.690 -0.3767 -0.0215 -0.1258
  586MOL0     C78988   3.088  10.588   6.600 -0.9071  0.9652  0.6465
  586MOL0     C78989   2.962  10.671   6.592  0.0684  0.4283  0.6839
  586MOL0     C78990   2.860  10.600   6.500 -1.0750 -0.0357 -0.2905
  586MOL0     C78991   2.795  10.490   6.583 -0.2922 -0.7393  0.0196
  586MOL0     N78992   2.679  10.431   6.507 -0.1086  0.6697  0.4458
  586MOL0     C78993   2.702  10.334   6.417  0.0799 -0.0857 -0.4673
  586MOL0     C78994   2.571  10.309   6.368 -1.0626 -0.3195 -0.2264
  586MOL0     C78995   2.527  10.214   6.258  0.3862 -0.5699 -0.2045
  586MOL0     C78996   2.396  10.132   6.283  0.2071  0.1559 -0.0564
  586MOL0     C78997   2.402  10.057   6.413  0.3966 -0.5436 -0.1373
  586MOL0     C78998   2.480   9.929   6.419 -0.8568 -0.6193  0.0770
  586MOL0     O78999   2.625   9.947   6.397  0.7266 -0.8670  0.0432
  586MOL0     C79000   2.697  10.000   6.507  0.2115  0.2089  0.3638
  586MOL0     C79001   2.654  10.032   6.639 -0.0303 -0.3225  0.1038
  586MOL0     C79002   2.746  10.096   6.729 -0.4022  0.9912  0.4676
  586MOL0     C79003   2.698  10.134   6.866  0.3364 -0.6334 -1.0705
  586MOL0     C79004   2.890  10.097   6.701 -0.4609 -0.4264 -0.0385
  586MOL0     C79005   2.993  10.157   6.789  0.0035 -0.1300  0.7523
  586MOL0     O79006   2.949  10.217   6.897 -0.5232 -0.1153 -0.4145
  586MOL0     C79007   3.035  10.272   6.991  0.0955  0.5872 -0.6651
  586MOL0     C79008   3.005  10.256   7.124 -0.2956 -0.2131 -0.1089
  586MOL0     C79009   3.082  10.323   7.228 -0.2475 -0.8596  0.1677
  586MOL0     C79010   3.186  10.410   7.188  0.4491 -1.0179 -0.0954
  586MOL0     O79011   3.245  10.478   7.294 -0.3044  0.4811  0.3432
  586MOL0     C79012   3.377  10.429   7.324  0.2960  0.0108  0.5839
  586MOL0     C79013   3.433  10.497   7.448 -0.1332 -0.4449  1.2540
  586MOL0     C79014   3.337  10.496   7.565  1.4560 -0.7267  1.0859
  586MOL0     C79015   3.415  10.475   7.694 -0.5627  0.1532 -0.1387
  586MOL0     C79016   3.335  10.504   7.819  0.7566  0.5411  0.4461
  586MOL0     C79017   3.316  10.643   7.867  0.1462 -0.4115  0.0375
  586MOL0     C79018   3.225  10.633   7.986 -0.6634 -0.1896 -0.1312
  586MOL0     C79019   3.132  10.754   7.999 -0.1441 -0.0095 -0.2766
  586MOL0    Cl79020   3.027  10.724   8.135 -0.1210 -0.2463  0.3429
  586MOL0     C79021   3.217  10.422   7.057 -0.8111  0.2272  0.5949
  586MOL0     C79022   3.146  10.351   6.954 -0.4903 -1.7891 -0.6107
  586MOL0     O79023   3.111  10.147   6.744 -0.2320  0.4705 -0.0075
  586MOL0     C79024   2.922  10.052   6.571  0.2978  0.3323 -0.8608
  586MOL0     C79025   2.831  10.010   6.482  0.0013 -0.3445  0.6777
  586MOL0     N79026   2.481  10.381   6.448 -0.4065  0.5287  1.0162
  586MOL0     N79027   2.549  10.450   6.530 -0.1014 -0.0767  0.1414
  586MOL0     C79028   3.681  10.991   6.413  0.3066 -0.9621 -0.3278
  586MOL0     C79029   3.811  11.030   6.385 -0.3611  0.4095  0.0578
  586MOL0     C79030   4.224  11.223   6.491 -0.1034 -0.0166 -0.2513
  586MOL0     C79031   4.281  11.174   6.374  0.2308 -0.6855  0.4070
  586MOL0     C79032   4.420  11.175   6.357  0.7762  0.3209 -0.5828
  586MOL0     C79033   4.501  11.243   6.451  0.2694  0.2896  0.2981
  586MOL0     O79034   4.629  11.266   6.423  0.2479 -0.1281  0.2996
  586MOL0     C79035   4.702  11.140   6.409 -0.7552 -0.3006  0.3144
  586MOL0     C79036   4.855  11.170   6.417 -0.6064  0.1370  0.0745
  586MOL0     C79037   4.916  11.242   6.288 -0.3402 -0.1263  0.2551
  586MOL0     C79038   5.069  11.254   6.286 -0.6459  0.0884  0.4676
  586MOL0     C79039   5.137  11.121   6.273  0.5364  0.9027  0.2461
  586MOL0     C79040   5.190  11.011   6.254  0.9092 -0.3494  0.1675
  586MOL0     C79041   4.440  11.306   6.551  0.4621  0.4636 -0.2800
  586MOL0     C79042   4.302  11.292   6.576 -0.3729 -0.4257  0.1662
  586MOL0     H79043   3.936  11.021   6.704  1.4668 -2.3104 -1.9329
  586MOL0     H79044   3.710  10.943   6.746  2.4877 -1.5563  0.7896
  586MOL0     H79045   3.511  10.985   6.743 -0.9802  2.8101 -0.0566
  586MOL0     H79046   3.361  11.035   6.673 -0.2022  0.5266 -0.6761
  586MOL0     H79047   3.438  10.755   6.726  0.9364  0.8489 -3.6037
  586MOL0     H79048   3.333  10.858   6.828 -0.4799 -1.3697  0.5701
  586MOL0     H79049   3.169  10.869   6.643  1.1420  1.2467 -0.9416
  586MOL0     H79050   3.261  10.781   6.534  1.4523 -3.0671  0.0342
  586MOL0     H79051   3.272  10.582   6.704 -0.9839 -0.2574  2.9641
  586MOL0     H79052   3.151  10.674   6.790 -0.1521  1.6634 -0.3853
  586MOL0     H79053   3.137  10.574   6.503  2.2607 -0.1239  2.2813
  586MOL0     H79054   3.070  10.484   6.630 -1.3320  1.4263  2.0344
  586MOL0     H79055   2.925  10.682   6.694  0.8219 -2.2457  1.3163
  586MOL0     H79056   2.985  10.773   6.559  0.8213  0.3922  1.0833
  586MOL0     H79057   2.794  10.684   6.475 -0.7500  0.6038  0.9399
  586MOL0     H79058   2.916  10.567   6.411 -1.3233  0.4904 -0.6477
  586MOL0     H79059   2.756  10.519   6.681 -1.4223 -1.8621 -0.0702
  586MOL0     H79060   2.865  10.410   6.608  0.0995 -0.2154  0.6564
  586MOL0     H79061   2.797  10.296   6.380  0.9114 -0.9699  2.3554
  586MOL0     H79062   2.540  10.261   6.160  1.5671  0.4940  0.4429
  586MOL0     H79063   2.605  10.138   6.246 -1.1171 -2.2688  0.3093
  586MOL0     H79064   2.377  10.060   6.202 -3.0330 -1.0617  1.5852
  586MOL0     H79065   2.315  10.205   6.288  2.0733  2.2729  0.3154
  586MOL0     H79066   2.297  10.034   6.429  0.5715 -4.4006 -3.1421
  586MOL0     H79067   2.427  10.123   6.497 -0.7668  0.8437 -0.8275
  586MOL0     H79068   2.440   9.867   6.338 -2.4880  2.0012 -1.2520
  586MOL0     H79069   2.462   9.880   6.515  0.7246  0.5273  1.0159
  586MOL0     H79070   2.550  10.020   6.665 -0.3292  0.2521 -0.7847
  586MOL0     H79071   2.676  10.240   6.879  1.8365 -0.3626 -0.5534
  586MOL0     H79072   2.604  10.078   6.876  0.6302 -0.8316  0.9417
  586MOL0     H79073   2.769  10.102   6.943  0.3872  0.4775 -0.6407
  586MOL0     H79074   2.920  10.192   7.146  0.0376  0.0518  2.2337
  586MOL0     H79075   3.058  10.319   7.334  3.0330 -0.8213  0.9998
  586MOL0     H79076   3.382  10.321   7.343  2.1469  0.3399  2.2609
  586MOL0     H79077   3.447  10.441   7.241 -0.6011 -3.0862 -0.7768
  586MOL0     H79078   3.531  10.457   7.476  1.9093  3.1889  0.0621
  586MOL0     H79079   3.465  10.599   7.425  6.3307 -2.3443 -0.1983
  586MOL0     H79080   3.252  10.427   7.568 -0.1017  1.0488  0.1822
  586MOL0     H79081   3.293  10.596   7.558  2.5377 -0.3643 -1.9619
  586MOL0     H79082   3.442  10.369   7.687 -2.3906 -0.4066  0.6929
  586MOL0     H79083   3.506  10.535   7.697  0.8655 -1.6317 -3.2393
  586MOL0     H79084   3.385  10.441   7.894  0.7456  0.2566  0.2173
  586MOL0     H79085   3.243  10.451   7.792  1.6105  0.6564 -3.2099
  586MOL0     H79086   3.410  10.689   7.899 -0.1017  0.6802 -0.7332
  586MOL0     H79087   3.270  10.700   7.785  0.5088 -0.8293 -0.4676
  586MOL0     H79088   3.280  10.625   8.080  2.0116  0.1142 -1.6007
  586MOL0     H79089   3.149  10.554   7.975 -1.4786  0.5290  0.1833
  586MOL0     H79090   3.068  10.758   7.910  1.9954 -0.8326 -1.9257
  586MOL0     H79091   3.182  10.850   8.020 -0.1770 -0.3950  1.8427
  586MOL0     H79092   3.298  10.491   7.033 -0.2798 -1.5342 -3.5071
  586MOL0     H79093   3.161  10.376   6.850  0.8362 -1.2225 -0.3025
  586MOL0     H79094   3.019  10.068   6.526 -1.1076  1.2354 -3.8266
  586MOL0     H79095   2.860   9.982   6.381  0.5299  0.7682  0.4927
  586MOL0     H79096   3.610  10.980   6.331 -1.4776 -0.7156  1.1265
  586MOL0     H79097   3.843  11.044   6.283  1.5477 -0.0020  0.5599
  586MOL0     H79098   4.229  11.133   6.288  2.1146 -0.9444 -0.6610
  586MOL0     H79099   4.472  11.138   6.269 -1.7515 -0.9272 -1.6452
  586MOL0     H79100   4.690  11.084   6.502 -0.2433  0.3271  0.7771
  586MOL0     H79101   4.669  11.080   6.324 -0.0655  1.5646 -1.3494
  586MOL0     H79102   4.903  11.074   6.439  0.0974  1.1901  3.8822
  586MOL0     H79103   4.885  11.225   6.507  3.9414  0.5890 -1.4215
  586MOL0     H79104   4.873  11.342   6.279  0.4121  0.1412 -0.5038
  586MOL0     H79105   4.880  11.179   6.206 -4.1487 -0.9605  2.3730
  586MOL0     H79106   5.092  11.316   6.373  0.5709  2.0861 -1.1950
  586MOL0     H79107   5.099  11.304   6.193  2.2873 -2.1372  0.0474
  586MOL0     H79108   5.225  10.911   6.240  1.9153  0.0458 -0.1676
  586MOL0     H79109   4.492  11.376   6.615 -1.8909  2.6222 -0.5580
  586MOL0     H79110   4.250  11.331   6.663 -0.7269 -1.4467  0.4318
  587MOL0     O79111   3.096   3.812   9.791 -0.5084 -0.7174 -0.1855
  587MOL0     C79112   3.100   3.913   9.861  0.0600  0.9980  0.0253
  587MOL0     O79113   2.991   3.993   9.876 -0.4651  0.4442  0.5843
  587MOL0     C79114   2.873   3.960   9.822 -0.1895  1.4835  0.1119
  587MOL0     C79115   2.782   3.898   9.899 -0.0699 -0.0325 -0.4030
  587MOL0     C79116   2.654   3.878   9.857  0.1114 -0.2682  0.4380
  587MOL0     C79117   2.610   3.936   9.730 -0.5884 -0.4199  0.5050
  587MOL0     O79118   2.487   3.922   9.681  0.8449 -0.3602 -0.5963
  587MOL0     C79119   2.376   3.908   9.771 -0.3130 -0.6483 -0.5680
  587MOL0     C79120   2.265   3.998   9.719 -0.0977 -0.3090 -0.7440
  587MOL0     C79121   2.131   3.967   9.778  0.1577 -0.2495 -1.4932
  587MOL0     C79122   2.120   3.981   9.924 -0.5165  0.4957  0.3327
  587MOL0     C79123   1.979   3.993   9.965  1.3365  0.3696  0.1028
  587MOL0     C79124   1.961   3.983  10.121  0.3629 -0.8638 -0.1306
  587MOL0     C79125   1.817   4.019  10.161  0.6222  0.3283  0.3103
  587MOL0     C79126   1.736   3.898  10.159  0.5711 -0.2201  0.7482
  587MOL0     N79127   1.593   3.917  10.187 -0.0426 -0.3955 -0.5459
  587MOL0     C79128   1.533   3.989  10.293 -0.6287  0.1576 -0.8850
  587MOL0     C79129   1.407   3.945  10.297  0.4806 -0.3059 -0.4833
  587MOL0     C79130   1.291   4.011  10.376  0.4661  0.3222  0.1850
  587MOL0     C79131   1.332   4.081  10.511 -0.0341  0.1126 -0.4836
  587MOL0     C79132   1.294   4.231  10.523 -0.0729 -0.0419 -0.1708
  587MOL0     C79133   1.145   4.263  10.520 -0.0455  0.0572  0.3521
  587MOL0     O79134   1.126   4.399  10.559 -0.4104 -0.2744  0.6188
  587MOL0     C79135   0.997   4.437  10.565 -0.5398 -0.6033  0.7891
  587MOL0     C79136   0.987   4.572  10.603  0.0313  0.3722 -0.1976
  587MOL0     C79137   0.864   4.636  10.621  0.0363 -0.3242 -0.8069
  587MOL0     C79138   0.869   4.779  10.674  0.5564  0.1486  0.5504
  587MOL0     C79139   0.742   4.567  10.599  0.2973 -0.6842 -0.0145
  587MOL0     C79140   0.603   4.621  10.612  0.4012  0.6404 -0.3322
  587MOL0     O79141   0.503   4.527  10.585  0.0339  0.1606 -0.1251
  587MOL0     C79142   0.397   4.575  10.510 -0.4280 -0.2369  0.1275
  587MOL0     C79143   0.395   4.691  10.427 -0.5035 -1.1249  0.4806
  587MOL0     C79144   0.298   4.714  10.327 -0.5436 -0.1279  0.1269
  587MOL0     C79145   0.184   4.628  10.317  0.3581 -0.3479 -0.4905
  587MOL0     O79146   0.086   4.666  10.234 -0.3942  0.1578  0.2915
  587MOL0     C79147  -0.042   4.625  10.285 -0.3374 -0.0083  0.4468
  587MOL0     C79148  -0.151   4.687  10.194  1.0504  0.1317  0.8794
  587MOL0     C79149  -0.142   4.637  10.049  0.8520 -0.3444 -0.6443
  587MOL0     C79150  -0.262   4.664   9.965  0.5910  0.3133 -0.3596
  587MOL0     C79151  -0.244   4.596   9.827  0.0805 -0.5403 -0.2704
  587MOL0     C79152  -0.372   4.619   9.742  0.4389  0.2357 -0.0247
  587MOL0     C79153  -0.368   4.574   9.597 -0.1881 -0.8162  0.0654
  587MOL0     C79154  -0.505   4.573   9.543  0.2533  0.2552  0.3517
  587MOL0    Cl79155  -0.521   4.537   9.371 -0.0253  0.4964  0.2805
  587MOL0     C79156   0.175   4.529  10.413  0.1135 -0.0023  0.3580
  587MOL0     C79157   0.282   4.499  10.491 -0.4474  0.9155  0.6542
  587MOL0     O79158   0.588   4.729  10.663 -0.3577 -0.2040 -0.0172
  587MOL0     C79159   0.761   4.435  10.548  0.0390 -0.3172 -0.4578
  587MOL0     C79160   0.883   4.367  10.531 -0.0127  0.2241  0.1727
  587MOL0     N79161   1.392   3.853  10.199  1.1278  0.0004 -0.1622
  587MOL0     N79162   1.495   3.836  10.137  0.3273  0.5862 -0.6509
  587MOL0     C79163   2.703   4.000   9.647 -0.2504 -0.5260  0.4752
  587MOL0     C79164   2.834   4.009   9.689 -0.4488  0.4434  1.0915
  587MOL0     C79165   3.219   3.951   9.933  0.2242  0.1339 -0.4760
  587MOL0     C79166   3.338   3.879   9.926 -0.0335  0.0305  0.2895
  587MOL0     C79167   3.461   3.913   9.993  0.6263 -0.2051  0.2779
  587MOL0     C79168   3.456   4.034  10.070  0.0171  0.4121  0.4872
  587MOL0     O79169   3.569   4.085  10.136 -0.0268 -0.1670  0.9064
  587MOL0     C79170   3.674   3.995  10.160 -0.3795 -0.6095 -0.1889
  587MOL0     C79171   3.768   4.063  10.256 -0.0246 -0.1791  0.2131
  587MOL0     C79172   3.896   3.980  10.285  0.3726 -0.0962  0.3567
  587MOL0     C79173   4.012   4.058  10.331 -0.3164 -0.5501  0.5964
  587MOL0     C79174   3.981   4.106  10.471 -0.7596  0.5485  0.2149
  587MOL0     C79175   3.955   4.156  10.580  0.1801  0.0190 -0.0844
  587MOL0     C79176   3.342   4.110  10.060 -0.1735 -0.0498 -0.6421
  587MOL0     C79177   3.220   4.067  10.007  0.4660 -0.1695 -0.2884
  587MOL0     H79178   2.813   3.874  10.001  1.6735  0.3207 -0.8288
  587MOL0     H79179   2.586   3.820   9.918 -2.6771  0.4040 -1.8024
  587MOL0     H79180   2.356   3.801   9.781  0.6927 -0.6649  2.2500
  587MOL0     H79181   2.392   3.944   9.873 -1.8498 -2.5041  0.4001
  587MOL0     H79182   2.299   4.101   9.733  0.1938 -0.7446  2.6025
  587MOL0     H79183   2.248   3.965   9.616 -2.8760 -1.8642  0.0855
  587MOL0     H79184   2.059   4.046   9.753  0.4391  1.7575  2.9484
  587MOL0     H79185   2.096   3.869   9.747  2.1294 -0.9106 -1.7784
  587MOL0     H79186   2.166   3.898   9.978 -0.0781  1.7126  1.8969
  587MOL0     H79187   2.179   4.070   9.949  1.8124 -1.4855  2.3560
  587MOL0     H79188   1.931   4.086   9.932  0.4201 -0.0547  0.2133
  587MOL0     H79189   1.915   3.923   9.911 -1.4736  2.9510 -0.2116
  587MOL0     H79190   1.999   3.888  10.162 -1.4876  0.0438  4.1739
  587MOL0     H79191   2.024   4.057  10.171 -2.3297  0.6669  1.1612
  587MOL0     H79192   1.813   4.050  10.266 -1.4815  1.4903 -0.0668
  587MOL0     H79193   1.776   4.101  10.102 -1.6335 -1.5652 -0.8991
  587MOL0     H79194   1.774   3.813  10.215  2.8965 -0.3632 -0.8989
  587MOL0     H79195   1.740   3.859  10.057 -1.6208  1.3060  0.0094
  587MOL0     H79196   1.586   4.064  10.352 -0.5912 -1.0997  0.7412
  587MOL0     H79197   1.245   4.084  10.308 -1.9546 -0.3091  1.0550
  587MOL0     H79198   1.215   3.936  10.395 -2.0671  2.6393 -0.1201
  587MOL0     H79199   1.440   4.077  10.524 -0.0989 -1.6942 -0.1592
  587MOL0     H79200   1.286   4.019  10.589 -0.5391 -1.2142 -1.7733
  587MOL0     H79201   1.341   4.282  10.439  0.0094 -1.7591 -1.2115
  587MOL0     H79202   1.345   4.268  10.613 -0.2750 -1.2871  0.4884
  587MOL0     H79203   1.097   4.186  10.581 -1.2648 -0.3534 -1.0815
  587MOL0     H79204   1.118   4.245  10.416  1.8748  2.3898 -0.6476
  587MOL0     H79205   1.077   4.633  10.606  0.9272 -0.9218 -0.1068
  587MOL0     H79206   0.970   4.819  10.685 -0.0017  3.0432 -3.0458
  587MOL0     H79207   0.819   4.831  10.592  0.7120 -1.9376 -0.9612
  587MOL0     H79208   0.819   4.787  10.771  2.7995 -4.1482  2.3162
  587MOL0     H79209   0.482   4.755  10.414  0.1967 -2.3558 -1.2504
  587MOL0     H79210   0.307   4.790  10.249  1.9688  0.9193  1.3213
  587MOL0     H79211  -0.047   4.517  10.275  0.2436  0.0487 -0.6203
  587MOL0     H79212  -0.053   4.656  10.389 -2.6661 -2.2957  0.9947
  587MOL0     H79213  -0.247   4.654  10.234  1.7963 -1.3475  1.4953
  587MOL0     H79214  -0.128   4.794  10.197 -0.7433  0.6276 -1.0799
  587MOL0     H79215  -0.138   4.528  10.056  0.1910 -0.4086 -1.1142
  587MOL0     H79216  -0.059   4.686   9.997 -0.7928  1.1171 -2.0731
  587MOL0     H79217  -0.355   4.625  10.010  1.7415 -1.0535  0.9396
  587MOL0     H79218  -0.261   4.771   9.943  2.1470  0.5198  0.5882
  587MOL0     H79219  -0.215   4.491   9.823  1.2534 -0.2260 -0.2554
  587MOL0     H79220  -0.165   4.657   9.783 -1.8031  2.2372 -0.0879
  587MOL0     H79221  -0.441   4.549   9.791  1.7008 -1.5086 -0.6581
  587MOL0     H79222  -0.409   4.721   9.756 -0.1235  0.0602 -0.1967
  587MOL0     H79223  -0.331   4.471   9.596  1.0783 -0.3946 -2.0166
  587MOL0     H79224  -0.305   4.643   9.540  0.6242  0.1827  2.0891
  587MOL0     H79225  -0.555   4.668   9.560  1.2283  1.0592 -1.0664
  587MOL0     H79226  -0.555   4.488   9.590 -1.4932  0.3563 -1.1991
  587MOL0     H79227   0.093   4.457  10.407 -0.5399  0.8140 -0.9537
  587MOL0     H79228   0.285   4.403  10.542 -4.3506  1.8111  2.9680
  587MOL0     H79229   0.674   4.390  10.502  0.3517 -2.4375  0.9022
  587MOL0     H79230   0.891   4.265  10.495 -1.4634 -0.3184  1.2969
  587MOL0     H79231   2.681   4.036   9.547  1.2188  0.7913  0.5859
  587MOL0     H79232   2.906   4.056   9.624  2.0429 -1.2001  2.5078
  587MOL0     H79233   3.343   3.789   9.865 -0.6188  1.4763 -2.0270
  587MOL0     H79234   3.549   3.852   9.980 -0.6887 -1.9374 -1.0472
  587MOL0     H79235   3.634   3.901  10.200 -0.8029 -1.5095 -2.5879
  587MOL0     H79236   3.722   3.965  10.067  0.2691  2.3335 -0.9101
  587MOL0     H79237   3.712   4.098  10.343 -0.7290  1.4890 -0.8626
  587MOL0     H79238   3.798   4.153  10.202 -3.3908  0.7505 -0.3073
  587MOL0     H79239   3.922   3.926  10.194  1.8335 -1.2449  1.4238
  587MOL0     H79240   3.882   3.910  10.368  1.8428  0.5567  1.1814
  587MOL0     H79241   4.027   4.153  10.280  1.6465  1.3432  4.3380
  587MOL0     H79242   4.100   3.993  10.333 -0.6858 -1.1123 -0.4384
  587MOL0     H79243   3.935   4.191  10.680 -1.6664 -0.8177 -0.1108
  587MOL0     H79244   3.343   4.209  10.104 -2.4375 -0.2908  0.1024
  587MOL0     H79245   3.137   4.137  10.017  0.9309  0.1511  1.6138
  588MOL0     O79246   3.183   4.661   8.400  0.1510  0.3181  0.0866
  588MOL0     C79247   3.226   4.562   8.346 -0.6869 -0.5893 -0.5370
  588MOL0     O79248   3.169   4.434   8.352 -0.4755 -0.2343  0.0896
  588MOL0     C79249   3.051   4.416   8.416 -0.0397  0.5392  0.7936
  588MOL0     C79250   2.937   4.479   8.373  0.2260  0.3557  0.1334
  588MOL0     C79251   2.810   4.465   8.432  0.3160  0.5764  1.0695
  588MOL0     C79252   2.796   4.383   8.539  0.5400 -0.6205  0.3752
  588MOL0     O79253   2.673   4.377   8.606 -0.3792 -0.6094  0.2020
  588MOL0     C79254   2.654   4.271   8.699 -0.1604 -0.5562  0.4792
  588MOL0     C79255   2.510   4.268   8.742 -0.2929 -0.6145  0.3311
  588MOL0     C79256   2.468   4.399   8.814 -1.0158  0.9002 -0.5035
  588MOL0     C79257   2.314   4.375   8.860 -0.9126  0.9300  0.2738
  588MOL0     C79258   2.241   4.508   8.905 -0.3141 -0.0043 -0.2400
  588MOL0     C79259   2.104   4.467   8.944 -0.2307 -0.6177  0.2128
  588MOL0     C79260   2.008   4.580   8.938 -1.3306 -0.1926  0.1064
  588MOL0     C79261   1.862   4.552   8.987  0.6311  0.2526  1.0180
  588MOL0     N79262   1.803   4.680   9.034  0.6660 -0.6205 -0.0840
  588MOL0     C79263   1.702   4.748   8.969 -0.4659  0.8340 -0.1561
  588MOL0     C79264   1.672   4.855   9.051 -0.2275 -0.0524 -0.0268
  588MOL0     C79265   1.578   4.965   9.036  0.7632 -0.2307 -0.4899
  588MOL0     C79266   1.434   4.929   9.060  0.2214  0.8038 -0.5994
  588MOL0     C79267   1.341   5.051   9.062 -0.1806  0.1483  0.5594
  588MOL0     C79268   1.197   5.039   9.093  0.4963  0.3520  0.8680
  588MOL0     O79269   1.173   5.049   9.235  0.8165 -0.2677 -0.1203
  588MOL0     C79270   1.121   4.933   9.288  0.1699  0.1907 -0.3767
  588MOL0     C79271   1.198   4.870   9.383 -0.4890  0.1064  1.4518
  588MOL0     C79272   1.168   4.748   9.452  0.3430  0.2292 -0.0818
  588MOL0     C79273   1.280   4.681   9.547  0.3720 -0.4364  0.1394
  588MOL0     C79274   1.046   4.686   9.417 -0.3808  1.6184  0.0726
  588MOL0     C79275   0.994   4.558   9.465  0.5956 -0.1756 -1.0516
  588MOL0     O79276   0.864   4.546   9.483 -0.3751  0.4850 -0.3138
  588MOL0     C79277   0.826   4.437   9.566 -0.7977 -0.8484 -0.0521
  588MOL0     C79278   0.727   4.356   9.517 -0.5238  0.5914 -0.7886
  588MOL0     C79279   0.669   4.251   9.593  0.1637 -0.4812 -0.2618
  588MOL0     C79280   0.719   4.215   9.716  0.0925 -0.7800  0.4734
  588MOL0     O79281   0.679   4.111   9.797  1.0705 -0.3296 -0.2180
  588MOL0     C79282   0.569   4.024   9.758 -0.1790 -0.2732 -0.7676
  588MOL0     C79283   0.545   3.918   9.870 -1.1135 -0.0036 -0.2923
  588MOL0     C79284   0.476   3.786   9.822  0.0057 -0.6741 -0.0207
  588MOL0     C79285   0.348   3.819   9.745 -0.0402  0.2019 -0.3634
  588MOL0     C79286   0.259   3.692   9.724 -0.0865  0.5952  0.0224
  588MOL0     C79287   0.157   3.717   9.617  0.4028  0.1168  0.4153
  588MOL0     C79288   0.085   3.585   9.588 -0.3359 -0.4056 -0.7905
  588MOL0     C79289  -0.040   3.604   9.512 -1.2149 -0.4488  0.6851
  588MOL0    Cl79290  -0.019   3.707   9.366  0.1842 -0.2513 -0.0745
  588MOL0     C79291   0.824   4.298   9.764 -0.2717  0.1440  0.4737
  588MOL0     C79292   0.878   4.407   9.692  0.9044 -0.1789  0.0522
  588MOL0     O79293   1.071   4.467   9.485 -0.2663  0.2008 -0.4026
  588MOL0     C79294   0.963   4.752   9.318 -0.2690 -0.0467  0.2611
  588MOL0     C79295   1.003   4.871   9.257 -0.4582 -0.1163 -0.6123
  588MOL0     N79296   1.751   4.850   9.158 -0.4729 -0.3392  0.5664
  588MOL0     N79297   1.836   4.751   9.148 -0.3064 -0.4041  0.6213
  588MOL0     C79298   2.911   4.309   8.580 -1.0943 -0.0528  0.0199
  588MOL0     C79299   3.043   4.329   8.523  0.6468  0.7383 -0.6592
  588MOL0     C79300   3.341   4.575   8.263  0.2933 -0.1350 -0.1840
  588MOL0     C79301   3.422   4.691   8.269 -0.1607 -0.9406 -0.4165
  588MOL0     C79302   3.536   4.702   8.180  0.4862  0.0178 -0.2582
  588MOL0     C79303   3.574   4.598   8.102  0.9549 -0.4081 -0.5588
  588MOL0     O79304   3.672   4.632   8.018 -0.3925  0.3379 -1.2432
  588MOL0     C79305   3.719   4.532   7.927  1.2602  0.4223 -0.5263
  588MOL0     C79306   3.774   4.621   7.817 -0.2730 -0.3308 -0.7750
  588MOL0     C79307   3.826   4.539   7.705  0.0595 -0.0866 -0.0087
  588MOL0     C79308   3.860   4.636   7.596  0.1875 -0.8540 -0.4106
  588MOL0     C79309   3.943   4.567   7.501 -0.3833  0.6744 -0.0611
  588MOL0     C79310   4.001   4.498   7.415  0.2912  0.1199  0.0636
  588MOL0     C79311   3.508   4.478   8.114 -0.5949 -0.0113 -0.5447
  588MOL0     C79312   3.394   4.465   8.189  1.0086  0.3149  0.2688
  588MOL0     H79313   2.936   4.545   8.287 -2.8375 -1.9125 -1.7938
  588MOL0     H79314   2.716   4.510   8.403  0.6945  1.0793  0.5952
  588MOL0     H79315   2.687   4.177   8.653  1.2911  0.7536 -1.3653
  588MOL0     H79316   2.709   4.294   8.791 -1.6892  1.7668  0.8925
  588MOL0     H79317   2.441   4.263   8.658 -1.3902  2.1892  0.9361
  588MOL0     H79318   2.486   4.184   8.808 -0.5745 -0.0850  0.9157
  588MOL0     H79319   2.520   4.404   8.910 -1.6481 -3.8115  0.2911
  588MOL0     H79320   2.475   4.480   8.740 -4.5509 -1.2886 -3.5473
  588MOL0     H79321   2.254   4.332   8.780  0.0160  0.8816 -0.4109
  588MOL0     H79322   2.322   4.301   8.940 -0.0639 -4.4581 -4.1665
  588MOL0     H79323   2.296   4.552   8.989  1.5991 -2.3211 -0.1515
  588MOL0     H79324   2.246   4.581   8.824 -0.3702  1.0478  0.6742
  588MOL0     H79325   2.073   4.398   8.865  0.8998 -0.4992 -0.3410
  588MOL0     H79326   2.103   4.411   9.038  1.2479 -3.1045 -1.1614
  588MOL0     H79327   2.043   4.663   8.999 -0.5304  0.0125 -0.6045
  588MOL0     H79328   2.001   4.623   8.837 -0.3233 -0.1092  0.0674
  588MOL0     H79329   1.864   4.477   9.067  0.4310 -0.6147  0.2333
  588MOL0     H79330   1.803   4.509   8.905  1.0218  0.3987  0.6546
  588MOL0     H79331   1.668   4.724   8.869 -0.5451 -2.2799  0.4884
  588MOL0     H79332   1.619   5.037   9.108  4.1723 -0.9310 -1.5496
  588MOL0     H79333   1.598   5.017   8.942 -0.5030  2.3288  0.5701
  588MOL0     H79334   1.422   4.887   9.160 -0.7107 -1.9165 -1.7520
  588MOL0     H79335   1.399   4.846   8.998  2.1227  0.7210 -1.6363
  588MOL0     H79336   1.341   5.086   8.959 -0.2518  0.1239  0.5516
  588MOL0     H79337   1.386   5.135   9.116  1.7972 -0.7178  0.3563
  588MOL0     H79338   1.154   4.954   9.040  1.8193  0.0788  0.1992
  588MOL0     H79339   1.153   5.126   9.043  0.1392 -0.9751 -1.2492
  588MOL0     H79340   1.298   4.910   9.401  0.0239 -0.6359  0.3511
  588MOL0     H79341   1.235   4.668   9.646  0.4715 -5.9565 -0.2556
  588MOL0     H79342   1.306   4.579   9.518  0.8026 -0.7073  1.4008
  588MOL0     H79343   1.369   4.742   9.568  0.9771 -1.9273  2.2006
  588MOL0     H79344   0.689   4.381   9.418 -0.5963 -1.0614 -1.2014
  588MOL0     H79345   0.591   4.192   9.546  1.6363 -0.6845 -2.5918
  588MOL0     H79346   0.473   4.075   9.746  0.0448  1.1850  2.5378
  588MOL0     H79347   0.596   3.965   9.670 -3.0230 -1.8678 -0.6891
  588MOL0     H79348   0.635   3.884   9.922 -1.0493  1.0152  0.2966
  588MOL0     H79349   0.488   3.960   9.953  1.8913 -0.8904  2.4255
  588MOL0     H79350   0.454   3.718   9.905 -1.7972 -1.8105 -1.3530
  588MOL0     H79351   0.542   3.735   9.751  1.5704 -1.0911  1.6561
  588MOL0     H79352   0.289   3.890   9.805 -0.1046  1.9978 -2.4348
  588MOL0     H79353   0.380   3.860   9.649  0.8362  0.4030  0.0090
  588MOL0     H79354   0.224   3.662   9.824  3.6845  0.1408  1.3804
  588MOL0     H79355   0.319   3.607   9.690 -1.0870 -0.9328  1.8196
  588MOL0     H79356   0.083   3.788   9.654 -3.1599 -1.9939 -1.9657
  588MOL0     H79357   0.207   3.741   9.523  0.1725 -0.3964  0.1564
  588MOL0     H79358   0.059   3.536   9.682  0.4033 -2.1976 -1.4803
  588MOL0     H79359   0.157   3.519   9.540  1.2297  0.6962 -0.0476
  588MOL0     H79360  -0.112   3.658   9.574 -3.0107 -3.3617  1.3126
  588MOL0     H79361  -0.072   3.503   9.486  0.2770 -1.0101  0.9589
  588MOL0     H79362   0.871   4.269   9.857 -1.0166 -0.5456  0.6493
  588MOL0     H79363   0.960   4.459   9.741  0.9326 -1.4117  1.3709
  588MOL0     H79364   0.865   4.726   9.281 -0.2452  1.4285 -0.9708
  588MOL0     H79365   0.938   4.931   9.194 -0.0051 -0.1216 -1.0992
  588MOL0     H79366   2.912   4.242   8.666  1.9688 -0.5578 -0.2994
  588MOL0     H79367   3.127   4.278   8.568  0.4237  1.5064  0.7018
  588MOL0     H79368   3.411   4.762   8.350  1.2221 -0.5211 -0.5753
  588MOL0     H79369   3.587   4.798   8.176 -2.2173  1.5507 -0.8531
  588MOL0     H79370   3.797   4.464   7.963 -0.4097  0.5371  3.8383
  588MOL0     H79371   3.630   4.483   7.888  2.5517 -1.8048 -0.8809
  588MOL0     H79372   3.865   4.667   7.857 -0.7009 -0.4714  0.4039
  588MOL0     H79373   3.707   4.697   7.776  0.9346 -0.5804 -3.4522
  588MOL0     H79374   3.753   4.463   7.675 -0.5850  0.2245  0.7348
  588MOL0     H79375   3.917   4.484   7.732 -1.6941 -3.5168 -0.4947
  588MOL0     H79376   3.926   4.716   7.632 -0.6980  0.0860 -0.8406
  588MOL0     H79377   3.773   4.683   7.549 -1.4388 -0.8478  2.4059
  588MOL0     H79378   4.046   4.438   7.339 -0.8352 -1.3186  0.4984
  588MOL0     H79379   3.540   4.388   8.062  0.4827 -0.8309  1.4570
  588MOL0     H79380   3.333   4.375   8.187 -2.3022  2.3339  1.3069
  589MOL0     O79381   6.818   7.725   4.838  0.4876 -0.2764 -0.0231
  589MOL0     C79382   6.851   7.603   4.854 -0.4256 -1.0740 -0.3599
  589MOL0     O79383   6.766   7.492   4.835  0.6046  0.2830  0.5233
  589MOL0     C79384   6.635   7.516   4.793  0.3698 -0.4917 -0.0020
  589MOL0     C79385   6.527   7.484   4.866  0.7198 -0.8138  0.5844
  589MOL0     C79386   6.400   7.480   4.813  0.1000 -0.0017  0.2958
  589MOL0     C79387   6.368   7.519   4.682 -0.1727 -0.0846 -0.2303
  589MOL0     O79388   6.237   7.512   4.630  0.3180  0.3807 -0.3943
  589MOL0     C79389   6.118   7.572   4.687  0.3636  0.2962  0.1182
  589MOL0     C79390   6.119   7.728   4.694 -0.1593  0.8268  0.1582
  589MOL0     C79391   5.985   7.772   4.755 -0.1502 -1.7703 -0.5461
  589MOL0     C79392   5.874   7.808   4.652 -0.1400 -0.1867  0.5139
  589MOL0     C79393   5.766   7.889   4.724 -0.5315 -0.1048  0.3034
  589MOL0     C79394   5.665   7.800   4.788  0.0965  0.2251  0.3216
  589MOL0     C79395   5.567   7.892   4.867 -1.2893  0.2216 -0.1933
  589MOL0     C79396   5.448   7.822   4.933  0.4908 -0.1352 -0.0742
  589MOL0     N79397   5.339   7.912   4.934 -0.0100  0.5060 -0.1552
  589MOL0     C79398   5.340   8.025   5.001 -0.0052  0.3289 -0.6739
  589MOL0     C79399   5.211   8.042   5.036  0.5678 -0.3813 -0.4737
  589MOL0     C79400   5.134   8.134   5.120  0.5721  0.2613 -0.0826
  589MOL0     C79401   5.067   8.080   5.255 -0.4303  0.4936 -0.2531
  589MOL0     C79402   4.931   8.014   5.230  0.7264  0.0583 -0.1379
  589MOL0     C79403   4.867   7.989   5.364  0.4916 -0.7925  0.1855
  589MOL0     O79404   4.798   7.865   5.374 -0.2491 -0.3319  0.0219
  589MOL0     C79405   4.691   7.849   5.295 -0.2746 -0.0302  0.1716
  589MOL0     C79406   4.676   7.729   5.225 -0.3262  0.4200  0.5906
  589MOL0     C79407   4.554   7.692   5.161 -0.5199 -0.0309 -0.5517
  589MOL0     C79408   4.531   7.549   5.142  1.2047 -0.1890 -0.7907
  589MOL0     C79409   4.451   7.796   5.150 -0.9583  0.0944  0.7601
  589MOL0     C79410   4.333   7.779   5.061  1.3540  0.2179  0.7830
  589MOL0     O79411   4.228   7.858   5.090 -0.0627  0.5469 -0.4490
  589MOL0     C79412   4.094   7.836   5.054 -0.8318  1.2255 -0.7975
  589MOL0     C79413   4.040   7.766   4.950 -0.4687 -0.3139  0.4361
  589MOL0     C79414   3.904   7.779   4.910 -0.4705  0.4799  0.1209
  589MOL0     C79415   3.812   7.854   4.987 -0.4987 -0.0079 -0.4624
  589MOL0     O79416   3.683   7.886   4.953 -1.0336 -0.1866 -0.3489
  589MOL0     C79417   3.627   7.832   4.835 -0.4383  0.6705 -0.0282
  589MOL0     C79418   3.487   7.891   4.806 -0.5030 -0.0853  0.9856
  589MOL0     C79419   3.387   7.883   4.918  0.4666 -0.0839 -0.6513
  589MOL0     C79420   3.246   7.859   4.871 -0.3631 -0.7165  0.0614
  589MOL0     C79421   3.145   7.828   4.980 -0.2556  0.2675 -0.3913
  589MOL0     C79422   3.030   7.751   4.908  0.3581 -0.5877 -0.2526
  589MOL0     C79423   2.904   7.732   5.006 -0.5338 -0.3287 -1.1921
  589MOL0     C79424   2.789   7.637   4.962  0.4051  0.5938  0.3781
  589MOL0    Cl79425   2.664   7.639   5.104 -0.3247 -0.0985  0.0911
  589MOL0     C79426   3.868   7.908   5.107 -0.7380  0.1595  0.4171
  589MOL0     C79427   4.008   7.898   5.135 -0.1677 -0.4794 -0.3113
  589MOL0     O79428   4.334   7.691   4.969 -0.3954 -0.6958 -0.0742
  589MOL0     C79429   4.468   7.923   5.211  1.2315  0.3894  0.8562
  589MOL0     C79430   4.585   7.949   5.279 -0.3445 -0.4276 -0.0637
  589MOL0     N79431   5.137   7.949   4.970  0.9424  0.0177  0.4394
  589MOL0     N79432   5.215   7.878   4.897 -0.5858  0.5116 -0.4234
  589MOL0     C79433   6.480   7.571   4.606 -0.4257  1.2640 -0.3583
  589MOL0     C79434   6.609   7.568   4.663  0.3744 -0.1177 -0.1249
  589MOL0     C79435   6.992   7.588   4.889 -0.0641  0.5595  0.4858
  589MOL0     C79436   7.080   7.680   4.952  0.0011 -0.5501  1.0031
  589MOL0     C79437   7.207   7.651   5.007  0.1351  0.2674  0.3373
  589MOL0     C79438   7.259   7.526   4.974 -0.3543  0.5325 -0.5842
  589MOL0     O79439   7.396   7.488   5.001 -0.6569 -0.6623 -0.1810
  589MOL0     C79440   7.502   7.588   4.969 -0.5449 -0.7761  0.4631
  589MOL0     C79441   7.566   7.560   4.836  0.0649  0.1100  0.4333
  589MOL0     C79442   7.627   7.418   4.831  0.3316 -0.5238  0.0533
  589MOL0     C79443   7.746   7.408   4.928  0.1039 -0.4964 -0.3834
  589MOL0     C79444   7.870   7.485   4.884 -0.8838 -0.2460 -0.2094
  589MOL0     C79445   7.969   7.547   4.853 -0.0670 -0.2395  0.5994
  589MOL0     C79446   7.179   7.435   4.898 -0.3226  0.1385 -0.9541
  589MOL0     C79447   7.048   7.467   4.858 -0.3290 -1.0276  0.3739
  589MOL0     H79448   6.543   7.441   4.964  1.2031  1.7897  1.7348
  589MOL0     H79449   6.315   7.440   4.868  0.3726  1.1382  1.5814
  589MOL0     H79450   6.035   7.534   4.626 -0.9484 -2.8199  3.4779
  589MOL0     H79451   6.102   7.521   4.783  1.7209 -2.4604 -1.0190
  589MOL0     H79452   6.208   7.742   4.757  1.3688 -2.4181 -1.0618
  589MOL0     H79453   6.139   7.780   4.600 -2.4610 -0.5068 -1.1655
  589MOL0     H79454   5.937   7.703   4.826 -0.8292  0.1608  0.9555
  589MOL0     H79455   5.998   7.870   4.801 -0.1688 -2.2879  0.5880
  589MOL0     H79456   5.913   7.879   4.579  1.0636  1.6379  2.7912
  589MOL0     H79457   5.839   7.721   4.596 -0.7794 -0.0525  0.7039
  589MOL0     H79458   5.819   7.959   4.788 -0.6383 -0.9295  1.3352
  589MOL0     H79459   5.724   7.956   4.650  0.3296 -1.2345 -1.2688
  589MOL0     H79460   5.621   7.740   4.707  3.9611 -1.7751 -0.5310
  589MOL0     H79461   5.717   7.728   4.851 -0.1353 -0.3680 -0.1545
  589MOL0     H79462   5.624   7.941   4.946  1.4582 -1.0690 -1.2555
  589MOL0     H79463   5.528   7.962   4.793 -0.8561 -0.2628 -0.8889
  589MOL0     H79464   5.481   7.792   5.033 -0.7085 -2.4740 -0.3186
  589MOL0     H79465   5.424   7.729   4.880 -1.5656 -2.1874  4.0143
  589MOL0     H79466   5.424   8.079   5.043 -1.6506  1.3903  1.5074
  589MOL0     H79467   5.182   8.232   5.133  1.7371 -0.6225  3.1805
  589MOL0     H79468   5.049   8.166   5.058  0.2096 -0.9880 -0.2528
  589MOL0     H79469   5.053   8.166   5.321  1.1989  1.7680 -1.4633
  589MOL0     H79470   5.131   8.009   5.308  0.0502  0.2266 -1.1672
  589MOL0     H79471   4.964   7.930   5.169  3.5647  0.6105  0.5084
  589MOL0     H79472   4.863   8.080   5.174 -0.3936 -1.0445 -0.1232
  589MOL0     H79473   4.805   8.077   5.381  0.5351 -0.2934 -1.9091
  589MOL0     H79474   4.941   7.992   5.444  1.3197 -0.4873 -0.5662
  589MOL0     H79475   4.749   7.649   5.236 -1.0368 -0.2250  0.8004
  589MOL0     H79476   4.572   7.508   5.049 -0.7693 -1.5105 -1.1350
  589MOL0     H79477   4.581   7.497   5.225  0.0203  0.3461  0.2973
  589MOL0     H79478   4.425   7.525   5.143  1.0751  0.2854  0.9527
  589MOL0     H79479   4.108   7.704   4.893  0.5571  0.7098  0.5059
  589MOL0     H79480   3.879   7.723   4.820 -0.7439  1.0497 -0.1634
  589MOL0     H79481   3.696   7.859   4.754 -0.9964 -0.6047 -0.9622
  589MOL0     H79482   3.627   7.723   4.834 -0.5047  0.6644  0.4368
  589MOL0     H79483   3.497   7.999   4.788 -2.7004 -0.1628 -1.2716
  589MOL0     H79484   3.465   7.829   4.719  0.5740 -3.9058  3.2028
  589MOL0     H79485   3.380   7.978   4.971 -0.6748 -0.4540 -0.1063
  589MOL0     H79486   3.409   7.801   4.987 -0.3177 -1.8781 -2.4483
  589MOL0     H79487   3.225   7.946   4.808  0.8257 -1.5361 -1.5460
  589MOL0     H79488   3.255   7.773   4.805  1.1217 -1.7651  1.5468
  589MOL0     H79489   3.120   7.924   5.025 -2.8117  0.1001 -1.2770
  589MOL0     H79490   3.189   7.756   5.049 -0.0156  0.2940 -0.5150
  589MOL0     H79491   2.990   7.815   4.829  0.9185 -0.5845 -0.5413
  589MOL0     H79492   3.060   7.652   4.872 -2.7645 -1.4900 -0.7303
  589MOL0     H79493   2.862   7.829   5.034  0.1146 -0.1744 -0.7166
  589MOL0     H79494   2.929   7.686   5.102 -1.5441 -0.2842 -0.8990
  589MOL0     H79495   2.826   7.536   4.947  1.2035  0.8912  0.2886
  589MOL0     H79496   2.737   7.672   4.873  1.1435  1.3634  0.2353
  589MOL0     H79497   3.794   7.968   5.159  0.1175  0.6373  1.1147
  589MOL0     H79498   4.059   7.962   5.206  1.0232  0.1035 -1.6515
  589MOL0     H79499   4.390   7.998   5.211 -0.1718 -0.9998 -0.5604
  589MOL0     H79500   4.598   8.044   5.329  0.3503 -1.0678  1.0330
  589MOL0     H79501   6.460   7.612   4.508  1.1794 -2.6581 -2.5341
  589MOL0     H79502   6.694   7.617   4.617  0.7257 -0.3032  0.3132
  589MOL0     H79503   7.034   7.778   4.959  1.1485  0.0497  0.4812
  589MOL0     H79504   7.261   7.726   5.064  0.5240 -1.2312  2.0440
  589MOL0     H79505   7.461   7.689   4.964  0.4695 -0.3392  0.7086
  589MOL0     H79506   7.584   7.599   5.040 -0.7392  0.6205  0.5061
  589MOL0     H79507   7.650   7.630   4.825  0.4399 -0.6094 -1.7021
  589MOL0     H79508   7.493   7.572   4.756 -2.4309 -0.6504  2.4562
  589MOL0     H79509   7.664   7.420   4.729  0.2356  2.7447 -0.0411
  589MOL0     H79510   7.547   7.343   4.835  1.1839 -1.4405  0.2184
  589MOL0     H79511   7.775   7.304   4.908  0.2914 -0.2137 -1.6814
  589MOL0     H79512   7.719   7.419   5.033 -0.8132  2.6581 -0.8551
  589MOL0     H79513   8.058   7.606   4.842  0.3662 -0.2093  3.4544
  589MOL0     H79514   7.217   7.335   4.877  0.6108 -0.0807  1.4405
  589MOL0     H79515   6.987   7.387   4.819 -2.2339  0.9026 -0.8681
  590MOL0     O79516   1.015   8.846   9.722  0.5721 -0.0511  0.0204
  590MOL0     C79517   1.094   8.936   9.679  0.4301  0.3196 -0.9647
  590MOL0     O79518   1.061   9.058   9.644  0.1570 -0.0137 -0.4056
  590MOL0     C79519   0.948   9.123   9.698 -0.7643  0.6857 -0.6298
  590MOL0     C79520   0.962   9.259   9.722  0.1472 -0.7182 -0.5294
  590MOL0     C79521   0.858   9.338   9.778  0.2062  0.1272  0.0467
  590MOL0     C79522   0.730   9.283   9.790  0.2776  0.1287  0.2581
  590MOL0     O79523   0.623   9.352   9.844  0.1841  0.1856  0.5961
  590MOL0     C79524   0.625   9.325   9.983  0.0462  0.8341  0.1046
  590MOL0     C79525   0.505   9.251  10.039  0.1379  0.2975  0.5891
  590MOL0     C79526   0.372   9.327  10.007  0.2035  0.4797 -0.7400
  590MOL0     C79527   0.256   9.244  10.072 -0.2388 -0.4748  0.4212
  590MOL0     C79528   0.126   9.286  10.010  0.1053  0.7326 -0.0540
  590MOL0     C79529   0.013   9.182  10.024 -0.0588 -0.2484  0.6360
  590MOL0     C79530  -0.028   9.165  10.166 -0.8103  0.7025  0.4394
  590MOL0     C79531  -0.144   9.066  10.184 -0.1131  0.6607  0.0533
  590MOL0     N79532  -0.275   9.131  10.155 -0.1629 -0.4693 -0.5255
  590MOL0     C79533  -0.371   9.160  10.253 -0.0058 -0.0635 -0.2499
  590MOL0     C79534  -0.487   9.175  10.183  1.0987  0.2951 -0.4589
  590MOL0     C79535  -0.616   9.211  10.257 -0.7276 -0.5442  0.4988
  590MOL0     C79536  -0.721   9.220  10.153 -0.2020  0.2264 -0.0351
  590MOL0     C79537  -0.763   9.079  10.111 -0.0235  0.2073 -1.1472
  590MOL0     C79538  -0.885   9.099  10.018 -0.6011  0.1753  0.8096
  590MOL0     O79539  -0.960   8.978   9.995  0.2318  0.5896  0.2626
  590MOL0     C79540  -1.088   8.986   9.937 -0.6635  0.0114 -0.5018
  590MOL0     C79541  -1.148   9.096   9.888 -0.0411 -0.6231  0.4890
  590MOL0     C79542  -1.272   9.097   9.829  0.4217  0.6054 -0.5637
  590MOL0     C79543  -1.319   9.235   9.776  0.8602 -0.0193 -0.2085
  590MOL0     C79544  -1.352   8.980   9.837  0.4558  0.3085 -0.4642
  590MOL0     C79545  -1.500   8.975   9.809 -1.3715  0.2844  0.3679
  590MOL0     O79546  -1.568   8.853   9.804 -0.4961 -0.3053  0.0446
  590MOL0     C79547  -1.709   8.841   9.816 -0.4190  0.2940  0.2463
  590MOL0     C79548  -1.770   8.836   9.940  0.0899 -0.5315  0.3187
  590MOL0     C79549  -1.912   8.835   9.935  0.0693  0.3913  0.3826
  590MOL0     C79550  -1.985   8.852   9.812  0.7804  0.4435  1.1976
  590MOL0     O79551  -2.122   8.847   9.814  0.0428  0.4623  0.0043
  590MOL0     C79552  -2.183   8.966   9.755  0.2390 -0.1905  0.5003
  590MOL0     C79553  -2.324   8.977   9.818 -0.1083 -0.6959  0.1241
  590MOL0     C79554  -2.387   9.102   9.766 -0.8927 -0.1142 -0.0424
  590MOL0     C79555  -2.467   9.189   9.866 -0.2036  0.3251  0.1058
  590MOL0     C79556  -2.578   9.131   9.960  0.0168  0.5015 -0.1408
  590MOL0     C79557  -2.713   9.104   9.884  0.6594 -0.0358  0.1593
  590MOL0     C79558  -2.830   9.172   9.944 -0.7391  0.0743 -0.2572
  590MOL0     C79559  -2.944   9.125   9.854 -0.8398 -0.2294  0.0525
  590MOL0    Cl79560  -3.104   9.165   9.914 -0.3858  0.0365 -0.3940
  590MOL0     C79561  -1.912   8.860   9.690  0.2520  0.0572 -0.8094
  590MOL0     C79562  -1.771   8.864   9.696 -0.6223 -0.0917  0.2436
  590MOL0     O79563  -1.553   9.086   9.794 -0.4044  0.3094 -0.0194
  590MOL0     C79564  -1.292   8.856   9.870 -0.2259 -0.5754  0.1712
  590MOL0     C79565  -1.159   8.868   9.930 -0.0477  0.4307 -0.3617
  590MOL0     N79566  -0.449   9.166  10.052  1.0541  0.2933 -0.1096
  590MOL0     N79567  -0.329   9.137  10.037 -0.4086 -0.2039  0.8743
  590MOL0     C79568   0.713   9.147   9.757  0.2385 -0.2359 -0.2203
  590MOL0     C79569   0.816   9.067   9.720 -0.5785  0.2195 -0.0667
  590MOL0     C79570   1.241   8.901   9.667  0.0520 -0.7473 -0.1519
  590MOL0     C79571   1.273   8.762   9.676 -1.4211 -0.5614  0.8721
  590MOL0     C79572   1.402   8.708   9.664  0.2953  0.1672  0.1956
  590MOL0     C79573   1.510   8.798   9.632 -0.5808  0.0606  0.0332
  590MOL0     O79574   1.644   8.763   9.625  0.0165 -0.3874  0.1906
  590MOL0     C79575   1.676   8.621   9.628 -0.3996  0.7951  0.3216
  590MOL0     C79576   1.825   8.612   9.671  0.0112 -0.1055 -0.6570
  590MOL0     C79577   1.910   8.670   9.571 -0.0999  0.3321  0.0417
  590MOL0     C79578   1.942   8.574   9.453  0.4329  1.2784  0.6174
  590MOL0     C79579   2.050   8.624   9.366 -0.1705  0.5300 -0.0983
  590MOL0     C79580   2.149   8.662   9.308  0.0857  0.0300 -0.3897
  590MOL0     C79581   1.475   8.940   9.630 -0.2295  0.9241  0.2803
  590MOL0     C79582   1.346   8.993   9.643 -0.2246 -0.1413  0.4778
  590MOL0     H79583   1.056   9.310   9.708 -0.8920  0.7517 -2.6538
  590MOL0     H79584   0.867   9.443   9.806 -0.7444 -0.1623  1.5596
  590MOL0     H79585   0.712   9.265  10.010 -0.8069 -1.2494 -1.4904
  590MOL0     H79586   0.620   9.419  10.039  0.9620 -1.7729  5.2206
  590MOL0     H79587   0.510   9.149  10.001 -0.1967 -0.3981  2.3457
  590MOL0     H79588   0.509   9.235  10.147 -1.3024  1.0538  0.7754
  590MOL0     H79589   0.382   9.427  10.050  0.9751  0.7136 -1.4363
  590MOL0     H79590   0.360   9.348   9.900 -3.3277 -0.0841 -0.5711
  590MOL0     H79591   0.273   9.136  10.071  0.3917 -0.3818  0.3896
  590MOL0     H79592   0.269   9.273  10.177  0.2835  0.5394  0.0999
  590MOL0     H79593   0.103   9.385  10.050 -0.1485  1.3133 -1.5513
  590MOL0     H79594   0.133   9.302   9.902 -1.9760  0.3396 -0.3096
  590MOL0     H79595  -0.074   9.207   9.962 -0.6170 -2.1832  0.5808
  590MOL0     H79596   0.043   9.086   9.982  2.0216  1.6939 -2.7426
  590MOL0     H79597   0.059   9.129  10.222 -1.4063  1.3911  1.8606
  590MOL0     H79598  -0.049   9.265  10.206 -1.7975  0.1932  1.2239
  590MOL0     H79599  -0.152   9.034  10.288 -2.8211  3.1833  0.7556
  590MOL0     H79600  -0.130   8.986  10.110  1.9325  1.4180 -0.4460
  590MOL0     H79601  -0.356   9.168  10.360 -0.7521  2.0121 -0.2611
  590MOL0     H79602  -0.651   9.135  10.327 -0.4796 -1.2222 -0.1109
  590MOL0     H79603  -0.588   9.302  10.311  1.6621 -1.3420  0.7418
  590MOL0     H79604  -0.689   9.278  10.066  1.8593  0.7302  0.9884
  590MOL0     H79605  -0.806   9.270  10.200  1.3954  2.6125  0.4836
  590MOL0     H79606  -0.805   9.020  10.193 -1.2252 -0.1326 -1.9700
  590MOL0     H79607  -0.679   9.026  10.065  2.6272  3.2362 -0.1452
  590MOL0     H79608  -0.851   9.136   9.921  1.0594 -0.7232  1.0168
  590MOL0     H79609  -0.959   9.170  10.055 -0.7363  0.1930  0.5064
  590MOL0     H79610  -1.103   9.194   9.889 -2.2038  0.4921 -1.4445
  590MOL0     H79611  -1.412   9.270   9.823  1.3928 -1.2026  1.8379
  590MOL0     H79612  -1.254   9.320   9.797  1.0175  0.0469 -0.9330
  590MOL0     H79613  -1.336   9.233   9.668 -1.1449 -0.5693  0.0708
  590MOL0     H79614  -1.706   8.836  10.027  2.2417 -0.1692 -1.1812
  590MOL0     H79615  -1.982   8.816  10.016 -1.0753  0.5871 -0.5367
  590MOL0     H79616  -2.127   9.059   9.770  0.5804 -0.2616 -0.2876
  590MOL0     H79617  -2.196   8.956   9.646 -0.4768  0.6009  0.4978
  590MOL0     H79618  -2.377   8.886   9.787  1.1402 -1.0138 -1.1619
  590MOL0     H79619  -2.308   8.980   9.926  4.8019 -0.7759 -0.3863
  590MOL0     H79620  -2.458   9.076   9.687 -0.9070  1.8891 -0.7600
  590MOL0     H79621  -2.311   9.167   9.721  1.0614 -1.1557  1.6307
  590MOL0     H79622  -2.387   9.222   9.932 -3.0408  2.9113  2.5487
  590MOL0     H79623  -2.503   9.273   9.805  0.6759  1.8923  1.6720
  590MOL0     H79624  -2.580   9.196  10.048 -1.9386  1.4084 -0.8054
  590MOL0     H79625  -2.542   9.032   9.991 -2.3409 -0.3904 -0.0927
  590MOL0     H79626  -2.705   9.136   9.779 -0.3698  2.8133  0.8696
  590MOL0     H79627  -2.727   8.996   9.877 -0.4440  0.1641 -1.3679
  590MOL0     H79628  -2.814   9.280   9.940  1.9262 -0.2576 -0.7878
  590MOL0     H79629  -2.850   9.128  10.043  0.7199  0.6603  0.3265
  590MOL0     H79630  -2.942   9.018   9.832 -1.2686  0.0773 -1.6896
  590MOL0     H79631  -2.929   9.167   9.754  1.0235 -0.0956  0.3694
  590MOL0     H79632  -1.957   8.883   9.594 -0.2081  1.7729 -0.2271
  590MOL0     H79633  -1.718   8.882   9.603 -2.3237  1.4768 -0.4884
  590MOL0     H79634  -1.337   8.758   9.873  3.0120 -2.1962  1.6247
  590MOL0     H79635  -1.104   8.781   9.964  0.8457  1.0593 -0.1766
  590MOL0     H79636   0.610   9.113   9.756 -0.2738  1.2543 -0.6313
  590MOL0     H79637   0.793   8.962   9.710  1.1771 -0.2707  0.5880
  590MOL0     H79638   1.196   8.696   9.714 -1.9274  0.4188  1.5849
  590MOL0     H79639   1.422   8.603   9.682  0.1047  0.4932  2.5423
  590MOL0     H79640   1.619   8.563   9.702 -2.0627  0.1584 -1.3675
  590MOL0     H79641   1.664   8.569   9.533 -1.4104 -0.7118  1.2208
  590MOL0     H79642   1.849   8.509   9.697  0.9059  0.3136  0.2168
  590MOL0     H79643   1.823   8.665   9.766  1.3456 -0.8155 -0.2239
  590MOL0     H79644   2.005   8.678   9.626 -0.8107 -0.5753  1.4505
  590MOL0     H79645   1.879   8.771   9.542 -2.4773 -0.2746  0.2584
  590MOL0     H79646   1.856   8.574   9.386  1.7047 -1.1304 -1.1876
  590MOL0     H79647   1.971   8.474   9.485 -1.5915  0.7246  0.8780
  590MOL0     H79648   2.232   8.698   9.251 -0.0639  2.2921  0.7043
  590MOL0     H79649   1.560   9.008   9.623  1.6901 -1.4997 -2.0319
  590MOL0     H79650   1.333   9.100   9.636  0.8873 -0.0330 -0.1004
  591MOL0     O79651   4.554   4.329   6.811  0.1411 -0.3417 -0.1244
  591MOL0     C79652   4.654   4.254   6.801  0.0945  0.3175  0.1365
  591MOL0     O79653   4.650   4.120   6.816  0.1784  1.1438 -0.0639
  591MOL0     C79654   4.570   4.046   6.902 -0.8083 -0.5191 -0.3286
  591MOL0     C79655   4.491   4.112   6.994  0.4750  0.0428 -0.1003
  591MOL0     C79656   4.413   4.041   7.081  0.7055  0.3872 -0.5030
  591MOL0     C79657   4.415   3.901   7.099  0.4743  0.2350 -0.3806
  591MOL0     O79658   4.338   3.831   7.192  0.2331 -0.8162  0.5790
  591MOL0     C79659   4.194   3.847   7.171  0.1208  0.3926  0.2191
  591MOL0     C79660   4.135   3.708   7.168  0.8520  0.3475  0.6863
  591MOL0     C79661   3.984   3.715   7.154 -0.9672  0.5507  0.0295
  591MOL0     C79662   3.923   3.763   7.288 -0.5703  0.3720  0.8520
  591MOL0     C79663   3.767   3.780   7.268 -0.0024  0.7001 -0.7134
  591MOL0     C79664   3.693   3.649   7.261 -0.9067  0.0331 -0.2989
  591MOL0     C79665   3.725   3.545   7.367 -0.3692  0.6822 -0.7053
  591MOL0     C79666   3.678   3.591   7.514  0.3663 -0.1237  0.5312
  591MOL0     N79667   3.722   3.499   7.612  0.5698  0.5178 -0.4406
  591MOL0     C79668   3.650   3.385   7.642  0.5952 -0.9607 -0.4467
  591MOL0     C79669   3.717   3.332   7.737  0.0944  0.8982  0.6745
  591MOL0     C79670   3.691   3.178   7.781  0.4630 -0.4680  0.4209
  591MOL0     C79671   3.608   3.171   7.903  0.5726 -0.0850 -0.4365
  591MOL0     C79672   3.460   3.188   7.869  0.0597 -0.1767 -0.2653
  591MOL0     C79673   3.360   3.174   7.983 -0.9896 -0.0087  0.6407
  591MOL0     O79674   3.231   3.212   7.937  0.2156  0.4986  0.0451
  591MOL0     C79675   3.115   3.159   7.987  0.3591  0.3012 -0.4785
  591MOL0     C79676   3.101   3.058   8.088  0.4575 -0.7781 -0.6169
  591MOL0     C79677   2.979   3.008   8.122  0.6956  0.4265  0.4326
  591MOL0     C79678   2.974   2.897   8.221 -1.0365  0.6319 -0.5837
  591MOL0     C79679   2.864   3.062   8.057  0.4131  0.5154 -0.2496
  591MOL0     C79680   2.719   3.060   8.104 -0.4264  0.5644 -0.5460
  591MOL0     O79681   2.613   3.104   8.027  0.3291  0.7367  0.0842
  591MOL0     C79682   2.492   3.133   8.091  0.8287 -0.0589  0.5000
  591MOL0     C79683   2.466   3.244   8.180  0.4305 -0.3860  0.0972
  591MOL0     C79684   2.339   3.261   8.240  0.2698 -1.0909  0.0965
  591MOL0     C79685   2.232   3.175   8.215 -0.5646 -0.0082 -0.1684
  591MOL0     O79686   2.128   3.192   8.305 -0.0935 -0.0860  0.4921
  591MOL0     C79687   1.994   3.138   8.269 -0.1991  0.1887  0.2836
  591MOL0     C79688   1.895   3.221   8.349  0.4027 -0.0813  0.0605
  591MOL0     C79689   1.864   3.166   8.490  0.4911  0.2966 -0.7450
  591MOL0     C79690   1.775   3.270   8.572 -0.2047 -0.3127 -0.1425
  591MOL0     C79691   1.692   3.196   8.676  0.4085  0.3737 -0.3116
  591MOL0     C79692   1.561   3.129   8.618 -0.5962  0.6161 -0.4761
  591MOL0     C79693   1.500   3.015   8.700  0.3865  0.1818 -0.1217
  591MOL0     C79694   1.436   3.078   8.824 -0.6019  0.9797  0.9566
  591MOL0    Cl79695   1.366   2.945   8.935  0.1967 -0.2319 -0.2583
  591MOL0     C79696   2.245   3.070   8.117 -0.0162 -0.3414  0.6725
  591MOL0     C79697   2.375   3.048   8.062  0.0254 -0.5227  0.7902
  591MOL0     O79698   2.699   3.001   8.214  0.0366 -0.4986  1.3564
  591MOL0     C79699   2.883   3.160   7.954  0.4673 -0.3295  0.1017
  591MOL0     C79700   3.003   3.208   7.930  0.6917  0.2016  0.5653
  591MOL0     N79701   3.831   3.405   7.763  0.0907 -0.6289  0.2601
  591MOL0     N79702   3.831   3.500   7.683  0.0444  0.0269  0.2619
  591MOL0     C79703   4.501   3.834   7.014  0.9091 -0.0571 -0.4987
  591MOL0     C79704   4.575   3.905   6.915 -0.4339 -0.1519  0.3914
  591MOL0     C79705   4.786   4.324   6.762 -0.0280 -0.0000  0.2147
  591MOL0     C79706   4.814   4.466   6.785 -0.1457 -0.7253 -0.0019
  591MOL0     C79707   4.943   4.515   6.764  0.1531  0.3585 -0.2914
  591MOL0     C79708   5.046   4.437   6.705 -0.3469  0.0256 -0.7819
  591MOL0     O79709   5.171   4.467   6.677 -0.1169 -0.6273  1.0016
  591MOL0     C79710   5.219   4.588   6.729  0.7860  1.2332  0.1964
  591MOL0     C79711   5.372   4.584   6.732 -0.3287 -0.1262  0.1892
  591MOL0     C79712   5.425   4.480   6.835  0.1703  0.3599  0.1334
  591MOL0     C79713   5.578   4.471   6.840  0.1369  0.9438  1.2239
  591MOL0     C79714   5.640   4.585   6.916 -0.3110 -0.4777  0.3694
  591MOL0     C79715   5.668   4.683   6.984  0.2055 -0.0590 -0.5819
  591MOL0     C79716   5.006   4.306   6.671  0.1303  0.2043 -0.2547
  591MOL0     C79717   4.893   4.246   6.713  0.4613  0.0042 -0.2317
  591MOL0     H79718   4.480   4.219   6.993 -1.5055 -0.1055  0.9888
  591MOL0     H79719   4.349   4.098   7.148 -2.3669  1.7886 -4.2215
  591MOL0     H79720   4.160   3.915   7.250 -0.6091  0.0392  0.2219
  591MOL0     H79721   4.174   3.899   7.077 -2.6913 -0.8181  0.0512
  591MOL0     H79722   4.173   3.666   7.074  2.0754  2.1685  0.3182
  591MOL0     H79723   4.164   3.651   7.258  0.2159  2.5647  2.3746
  591MOL0     H79724   3.960   3.770   7.063  1.8279  1.1420 -0.4225
  591MOL0     H79725   3.957   3.609   7.141  3.0552 -0.5157 -0.9040
  591MOL0     H79726   3.947   3.700   7.374 -2.2212 -0.5004  0.7175
  591MOL0     H79727   3.967   3.861   7.308 -1.3159  0.4318  2.3313
  591MOL0     H79728   3.734   3.836   7.357 -0.1856 -1.1827  0.4559
  591MOL0     H79729   3.751   3.839   7.178  0.1521  1.0743 -0.4993
  591MOL0     H79730   3.585   3.666   7.257 -0.8558  0.9349  1.3015
  591MOL0     H79731   3.717   3.605   7.164 -0.1774  1.4996 -0.8251
  591MOL0     H79732   3.662   3.458   7.346 -0.6855 -0.3438  3.6564
  591MOL0     H79733   3.830   3.512   7.373 -0.4302  0.2490 -1.8203
  591MOL0     H79734   3.571   3.604   7.532  0.6914  0.7697  2.0276
  591MOL0     H79735   3.720   3.686   7.548 -1.7090  0.1584  2.5833
  591MOL0     H79736   3.560   3.343   7.597  0.5143 -4.2310  2.3401
  591MOL0     H79737   3.651   3.117   7.700  0.8299 -0.5978  0.3381
  591MOL0     H79738   3.790   3.134   7.798 -0.1729 -2.1081  0.0640
  591MOL0     H79739   3.629   3.256   7.968 -0.0850  0.6500 -1.1528
  591MOL0     H79740   3.631   3.080   7.959  3.9815  0.5907 -0.5760
  591MOL0     H79741   3.439   3.115   7.791 -1.6141  0.4693 -0.4683
  591MOL0     H79742   3.447   3.290   7.832  2.2253  0.4072  0.4430
  591MOL0     H79743   3.401   3.226   8.070  2.7049  0.8191 -1.3677
  591MOL0     H79744   3.367   3.067   8.003 -0.6430 -0.1925 -0.3976
  591MOL0     H79745   3.187   3.015   8.138  0.6796 -2.5648 -2.3965
  591MOL0     H79746   2.960   2.930   8.324 -3.7914 -1.1773 -0.2607
  591MOL0     H79747   2.886   2.832   8.212 -0.4114 -0.7530  2.2490
  591MOL0     H79748   3.058   2.827   8.215 -1.0910  0.1530  2.6122
  591MOL0     H79749   2.540   3.322   8.197  1.5030 -1.1606 -0.8939
  591MOL0     H79750   2.325   3.337   8.316  0.1311 -2.3185  1.3381
  591MOL0     H79751   1.968   3.161   8.165 -2.0630 -0.3678  0.5847
  591MOL0     H79752   1.970   3.032   8.282 -2.3471  0.9969  4.3466
  591MOL0     H79753   1.915   3.325   8.373 -0.7567 -0.6936  4.5696
  591MOL0     H79754   1.814   3.226   8.276  1.2946  1.2725 -0.8864
  591MOL0     H79755   1.961   3.152   8.540  0.9717  2.4628 -0.9468
  591MOL0     H79756   1.808   3.073   8.477  1.8210 -1.0384  2.2064
  591MOL0     H79757   1.844   3.341   8.619 -1.3185  0.5383  0.2397
  591MOL0     H79758   1.710   3.330   8.508  1.2913  2.1104  0.5012
  591MOL0     H79759   1.662   3.261   8.759  2.1195 -0.6746  1.2126
  591MOL0     H79760   1.751   3.116   8.721 -0.7021  0.3071  1.0929
  591MOL0     H79761   1.485   3.203   8.592 -1.3233 -0.7910 -2.6779
  591MOL0     H79762   1.591   3.072   8.530  1.6587 -2.4055  2.0263
  591MOL0     H79763   1.578   2.950   8.740 -1.0826 -1.4293  0.2644
  591MOL0     H79764   1.427   2.961   8.639 -1.5115  0.5460  1.7156
  591MOL0     H79765   1.360   3.149   8.790  0.0061  2.6865  2.9645
  591MOL0     H79766   1.516   3.131   8.877  1.7770 -1.6461  0.2164
  591MOL0     H79767   2.154   3.013   8.099 -0.9863  1.5027 -0.5397
  591MOL0     H79768   2.387   2.975   7.983 -0.4131  0.5298 -0.2850
  591MOL0     H79769   2.795   3.214   7.919  1.3331  1.5813  0.7041
  591MOL0     H79770   3.019   3.285   7.855 -2.0624 -2.9146 -3.7427
  591MOL0     H79771   4.503   3.726   7.019 -0.9207 -0.1114  0.0566
  591MOL0     H79772   4.646   3.845   6.858  0.5445 -0.4409  1.8417
  591MOL0     H79773   4.731   4.523   6.825 -2.5362 -2.8995 -1.5466
  591MOL0     H79774   4.973   4.616   6.789  0.2755  0.2835 -0.1289
  591MOL0     H79775   5.182   4.677   6.677 -2.9776 -0.4857 -0.3219
  591MOL0     H79776   5.186   4.597   6.833 -0.2387  0.7335 -0.0813
  591MOL0     H79777   5.406   4.686   6.750 -1.5962  0.2423  0.5394
  591MOL0     H79778   5.404   4.557   6.631  1.0997  3.8565 -0.6080
  591MOL0     H79779   5.391   4.377   6.815  0.9254  0.2161 -0.4526
  591MOL0     H79780   5.388   4.518   6.931  0.7805  3.5666 -0.8069
  591MOL0     H79781   5.616   4.477   6.737  0.0559 -2.9357  0.8351
  591MOL0     H79782   5.603   4.376   6.887 -2.7052  0.4258  1.8525
  591MOL0     H79783   5.687   4.761   7.055 -1.5357 -0.2303  0.0971
  591MOL0     H79784   5.070   4.236   6.616 -1.1018 -1.2170  0.0538
  591MOL0     H79785   4.888   4.139   6.696 -3.0543 -0.2259  1.3884
  592MOL0     O79786   6.274   4.084   3.834 -0.0057 -0.0270 -0.5759
  592MOL0     C79787   6.316   4.170   3.918  0.5364 -0.2450  0.4257
  592MOL0     O79788   6.247   4.287   3.958 -0.3860 -0.0021  0.1144
  592MOL0     C79789   6.128   4.316   3.899 -0.4105 -0.5569 -0.6369
  592MOL0     C79790   6.017   4.223   3.907 -0.2017  0.3755 -0.5919
  592MOL0     C79791   5.893   4.261   3.854 -0.4801  0.0690 -0.2954
  592MOL0     C79792   5.879   4.371   3.785  0.1015  0.4087  0.3375
  592MOL0     O79793   5.747   4.394   3.741 -0.0450 -0.5953 -0.0880
  592MOL0     C79794   5.720   4.519   3.680  0.1202  0.1336  0.2202
  592MOL0     C79795   5.576   4.515   3.641  0.3388  0.4691 -0.8473
  592MOL0     C79796   5.524   4.623   3.553  0.1306 -0.0527  0.3799
  592MOL0     C79797   5.368   4.631   3.518 -0.0025  0.2303 -0.0444
  592MOL0     C79798   5.340   4.712   3.393  0.5511  0.6406 -0.3506
  592MOL0     C79799   5.191   4.714   3.359  0.9715  0.5630  0.0268
  592MOL0     C79800   5.165   4.809   3.242  0.1603 -0.8688  1.1099
  592MOL0     C79801   5.016   4.822   3.211  0.2902 -0.8481  0.1369
  592MOL0     N79802   4.944   4.913   3.307  0.4113  0.7542 -0.4143
  592MOL0     C79803   4.892   4.875   3.431  0.0978  0.2299  0.1208
  592MOL0     C79804   4.848   4.993   3.485  0.0309 -0.4520 -0.0247
  592MOL0     C79805   4.780   5.009   3.618  0.1193  0.1212 -0.2238
  592MOL0     C79806   4.620   5.006   3.613 -0.6045 -0.4682  0.1450
  592MOL0     C79807   4.552   4.889   3.543 -0.4074 -0.5991 -0.0123
  592MOL0     C79808   4.408   4.926   3.513 -0.0266  0.7056  0.9033
  592MOL0     O79809   4.355   4.817   3.445  0.6402  0.1159  0.1477
  592MOL0     C79810   4.272   4.733   3.516 -0.1508  0.1220  0.9600
  592MOL0     C79811   4.141   4.731   3.499  0.4234 -0.5831  0.5955
  592MOL0     C79812   4.051   4.645   3.571 -0.9571 -0.1281 -0.0585
  592MOL0     C79813   3.904   4.649   3.541 -0.5083 -0.2712  0.4207
  592MOL0     C79814   4.104   4.561   3.675  0.2836 -0.3694 -0.4528
  592MOL0     C79815   4.015   4.487   3.762  0.7139 -0.3511  0.2761
  592MOL0     O79816   3.922   4.561   3.823  0.1702 -0.0804  0.1234
  592MOL0     C79817   3.845   4.491   3.911  0.4633  0.5884  0.5081
  592MOL0     C79818   3.706   4.468   3.864 -0.5072  0.4070 -0.8746
  592MOL0     C79819   3.611   4.409   3.946  0.3159  0.6708 -0.5149
  592MOL0     C79820   3.648   4.361   4.075 -0.3704 -0.5429 -0.8334
  592MOL0     O79821   3.560   4.303   4.161 -0.1825  0.1123 -0.5838
  592MOL0     C79822   3.438   4.267   4.102 -0.1507  0.0104  0.3267
  592MOL0     C79823   3.337   4.211   4.203  0.1246  0.4847 -0.0343
  592MOL0     C79824   3.192   4.206   4.148  0.7157  0.3937 -0.3901
  592MOL0     C79825   3.103   4.121   4.242 -0.5779 -0.2864 -0.0996
  592MOL0     C79826   2.957   4.112   4.205 -0.0905 -0.3518  0.9969
  592MOL0     C79827   2.872   4.055   4.316 -0.4959  0.1878 -0.4126
  592MOL0     C79828   2.716   4.039   4.284  0.0929  0.2536 -0.2373
  592MOL0     C79829   2.636   4.170   4.290  0.1101  0.2517  0.2017
  592MOL0    Cl79830   2.468   4.131   4.271  0.4941 -0.2927  0.1579
  592MOL0     C79831   3.772   4.391   4.126 -0.1136  0.1042  0.8072
  592MOL0     C79832   3.880   4.460   4.053  0.1172  0.1355  0.4018
  592MOL0     O79833   4.036   4.364   3.779  0.1977  0.4893 -0.2562
  592MOL0     C79834   4.242   4.566   3.697 -0.0892  0.3615 -0.7788
  592MOL0     C79835   4.329   4.648   3.616  0.0009  0.3379 -0.0657
  592MOL0     N79836   4.882   5.100   3.403  0.0255  0.2843  0.4215
  592MOL0     N79837   4.941   5.052   3.300  0.1298 -0.2418  0.8779
  592MOL0     C79838   5.993   4.461   3.764  0.4627  0.1970  0.5700
  592MOL0     C79839   6.114   4.435   3.823 -0.0068  1.2774  0.3968
  592MOL0     C79840   6.437   4.143   3.994 -0.2729  1.2129 -0.5060
  592MOL0     C79841   6.479   4.220   4.100  0.1930 -0.4896 -0.4483
  592MOL0     C79842   6.594   4.191   4.171  0.6249  0.8217 -1.2842
  592MOL0     C79843   6.677   4.085   4.140 -0.7833  0.2832  1.6956
  592MOL0     O79844   6.791   4.075   4.218 -0.2154  0.4886 -0.4800
  592MOL0     C79845   6.882   3.965   4.202  0.5081 -0.7920  0.0479
  592MOL0     C79846   6.827   3.841   4.272  0.5984  0.2671 -0.1237
  592MOL0     C79847   6.885   3.712   4.208  0.6039  0.5849 -0.1043
  592MOL0     C79848   7.034   3.715   4.189  0.7945  0.0290 -0.0205
  592MOL0     C79849   7.087   3.588   4.140  0.1371  0.2918 -0.7765
  592MOL0     C79850   7.128   3.473   4.119  0.2946 -0.0119 -0.2499
  592MOL0     C79851   6.633   4.004   4.039  0.3564  0.1213  0.3652
  592MOL0     C79852   6.516   4.032   3.957  0.3034  0.2430 -0.1496
  592MOL0     H79853   6.023   4.130   3.964 -1.0773  0.0193 -1.0626
  592MOL0     H79854   5.814   4.188   3.868 -0.5553 -0.4822 -3.1276
  592MOL0     H79855   5.751   4.604   3.741  1.7635  0.1053 -0.5310
  592MOL0     H79856   5.773   4.530   3.585 -3.9311 -1.5597 -2.5249
  592MOL0     H79857   5.559   4.415   3.599 -1.4381  0.0964  0.6226
  592MOL0     H79858   5.522   4.516   3.736  0.9362 -1.7597 -0.4060
  592MOL0     H79859   5.563   4.716   3.596 -1.0250  0.7945 -0.3244
  592MOL0     H79860   5.576   4.625   3.456 -1.7198  1.6442 -0.6593
  592MOL0     H79861   5.333   4.529   3.502 -2.0515  0.8711  0.0980
  592MOL0     H79862   5.322   4.673   3.608  2.2832  1.3580  0.6735
  592MOL0     H79863   5.370   4.813   3.423  2.3901 -0.2014  0.8395
  592MOL0     H79864   5.400   4.666   3.315  0.0252 -1.6076  0.4893
  592MOL0     H79865   5.160   4.615   3.326 -4.1351  1.4561  1.3081
  592MOL0     H79866   5.128   4.736   3.446 -0.8176  0.1037 -1.1192
  592MOL0     H79867   5.221   4.902   3.251 -0.6753  0.3201 -3.3528
  592MOL0     H79868   5.213   4.771   3.152  4.8398  1.5938  2.2529
  592MOL0     H79869   4.964   4.726   3.204 -0.6936 -0.3774  0.6879
  592MOL0     H79870   5.012   4.882   3.120 -1.5594  0.6714  1.1375
  592MOL0     H79871   4.870   4.778   3.475 -1.6724  0.2224 -0.6980
  592MOL0     H79872   4.825   4.928   3.678  0.0029 -1.2084 -1.8617
  592MOL0     H79873   4.813   5.104   3.661  3.5486  1.1443 -4.3930
  592MOL0     H79874   4.587   5.102   3.572 -0.2668  0.1126  1.1986
  592MOL0     H79875   4.599   5.001   3.720  2.3915 -0.9270  0.8089
  592MOL0     H79876   4.551   4.807   3.616  0.7991 -1.3539 -0.8073
  592MOL0     H79877   4.610   4.848   3.460 -0.2320  1.8069 -1.1365
  592MOL0     H79878   4.404   5.016   3.450  1.9925  1.2492  1.4603
  592MOL0     H79879   4.356   4.950   3.606  1.1249 -0.6959  1.9425
  592MOL0     H79880   4.101   4.796   3.422  3.5585 -2.1724 -2.6779
  592MOL0     H79881   3.895   4.690   3.440  0.5234 -0.8034  0.0925
  592MOL0     H79882   3.874   4.545   3.551  2.1222 -1.0284  1.4738
  592MOL0     H79883   3.860   4.716   3.615 -1.5126  1.3912 -1.5620
  592MOL0     H79884   3.679   4.490   3.761  0.1618  0.8336 -0.9671
  592MOL0     H79885   3.508   4.408   3.912  0.1811  1.4055 -0.1693
  592MOL0     H79886   3.392   4.356   4.058 -0.8903 -0.7412 -0.4641
  592MOL0     H79887   3.459   4.185   4.033  0.5035  0.0179  0.5115
  592MOL0     H79888   3.369   4.109   4.222  1.5604  1.2231  1.9185
  592MOL0     H79889   3.348   4.279   4.289 -0.4034  0.6606 -0.0988
  592MOL0     H79890   3.192   4.151   4.053  0.8437  0.2023 -0.2809
  592MOL0     H79891   3.143   4.301   4.122 -0.8481 -0.4259 -0.5509
  592MOL0     H79892   3.152   4.024   4.245  0.6066  0.2760  2.9542
  592MOL0     H79893   3.109   4.170   4.340 -0.7425  2.6383 -1.4331
  592MOL0     H79894   2.936   4.065   4.108 -1.3717 -0.7110  1.4232
  592MOL0     H79895   2.925   4.215   4.191 -1.5039 -0.7648  1.0271
  592MOL0     H79896   2.911   3.958   4.347  0.8793  1.8037  3.6412
  592MOL0     H79897   2.885   4.117   4.406  0.8825  0.9446 -1.0980
  592MOL0     H79898   2.677   3.967   4.356 -1.8854  0.8459 -0.6612
  592MOL0     H79899   2.703   4.003   4.181  0.0300  0.6810 -0.3845
  592MOL0     H79900   2.666   4.243   4.214 -0.5701 -1.2351 -1.5835
  592MOL0     H79901   2.646   4.210   4.391 -0.2447  2.9576 -0.7594
  592MOL0     H79902   3.800   4.367   4.228 -1.0548  1.8262  1.5131
  592MOL0     H79903   3.978   4.480   4.095  0.5525  1.9031 -1.2950
  592MOL0     H79904   4.287   4.508   3.778  0.3317  0.5188 -0.8949
  592MOL0     H79905   4.436   4.630   3.616 -0.4127 -3.1197 -3.2645
  592MOL0     H79906   5.969   4.553   3.711 -2.2159  0.5262  2.1602
  592MOL0     H79907   6.201   4.499   3.811  0.9720  0.1327  1.2247
  592MOL0     H79908   6.414   4.303   4.127 -0.0264 -1.2876  1.6788
  592MOL0     H79909   6.612   4.242   4.264  0.4605 -2.8388  0.9490
  592MOL0     H79910   6.899   3.960   4.094  2.5511  1.1443  0.2242
  592MOL0     H79911   6.980   3.992   4.242  0.3559 -1.1889  0.7086
  592MOL0     H79912   6.720   3.831   4.251  0.0006  0.8843  2.3312
  592MOL0     H79913   6.827   3.821   4.380 -2.2712  0.8601  0.0638
  592MOL0     H79914   6.838   3.688   4.112 -0.0909 -0.4420  0.4715
  592MOL0     H79915   6.861   3.627   4.272 -1.9884 -0.6526 -2.4760
  592MOL0     H79916   7.088   3.749   4.278 -0.8154  0.0563  0.9831
  592MOL0     H79917   7.057   3.783   4.108  0.0599 -0.2755 -0.4903
  592MOL0     H79918   7.174   3.376   4.110 -1.0526 -0.6871 -0.1372
  592MOL0     H79919   6.708   3.932   4.008  1.8300  2.1670 -1.1920
  592MOL0     H79920   6.484   3.978   3.869 -0.1686 -1.4265  1.0050
  593MOL0     O79921   8.679   5.315   7.863  0.5560 -0.1320  0.6966
  593MOL0     C79922   8.701   5.355   7.753  1.0953 -0.8279 -0.0705
  593MOL0     O79923   8.604   5.401   7.665  0.0196 -0.4874 -0.0928
  593MOL0     C79924   8.484   5.435   7.718  0.2466 -0.3481 -0.0992
  593MOL0     C79925   8.464   5.518   7.828  0.5429 -0.0219 -0.6563
  593MOL0     C79926   8.336   5.546   7.873  0.1020  0.8560  0.1302
  593MOL0     C79927   8.223   5.495   7.805  0.4757 -0.3517 -0.1275
  593MOL0     O79928   8.098   5.550   7.835 -0.5712 -0.8003 -0.3473
  593MOL0     C79929   7.985   5.462   7.832 -0.3614 -0.5272  0.1145
  593MOL0     C79930   7.884   5.482   7.728  0.0112  0.0604  0.1256
  593MOL0     C79931   7.757   5.414   7.760  0.7945 -0.4692  0.1267
  593MOL0     C79932   7.632   5.481   7.709  0.7098  0.2504  0.0022
  593MOL0     C79933   7.515   5.399   7.738  0.2735 -0.2993  0.0726
  593MOL0     C79934   7.410   5.400   7.628 -0.3111 -0.4949  0.3460
  593MOL0     C79935   7.309   5.296   7.661  0.6273  0.1777  0.1904
  593MOL0     C79936   7.212   5.268   7.533  0.2760 -0.1119  0.6264
  593MOL0     N79937   7.091   5.205   7.584  0.8298  0.1512  0.1736
  593MOL0     C79938   7.082   5.097   7.676  0.2165  0.5891 -0.1145
  593MOL0     C79939   6.950   5.087   7.697 -0.4852 -0.4282  0.7388
  593MOL0     C79940   6.865   4.993   7.775  0.1763 -0.2524 -0.4888
  593MOL0     C79941   6.727   4.983   7.716  0.4069  0.3635  0.0572
  593MOL0     C79942   6.646   4.866   7.787  0.0849 -0.5890  0.4156
  593MOL0     C79943   6.495   4.862   7.746 -0.3553  0.1728 -0.8722
  593MOL0     O79944   6.485   4.866   7.603 -0.3402  0.4926 -0.2686
  593MOL0     C79945   6.373   4.829   7.543 -0.2498  0.2285  1.1333
  593MOL0     C79946   6.367   4.844   7.401  0.7324  0.7430  0.3546
  593MOL0     C79947   6.265   4.790   7.322 -0.3672  0.2963  0.7133
  593MOL0     C79948   6.277   4.810   7.169 -0.9164 -0.0556 -0.3622
  593MOL0     C79949   6.157   4.731   7.389  0.0040 -0.1699  0.4172
  593MOL0     C79950   6.039   4.666   7.321 -0.7229 -0.1802 -0.2541
  593MOL0     O79951   5.958   4.588   7.403  1.1326  0.3913  0.3909
  593MOL0     C79952   5.852   4.509   7.356  0.3290  0.3288 -0.0754
  593MOL0     C79953   5.806   4.479   7.226  0.6172  0.9669 -0.0699
  593MOL0     C79954   5.691   4.399   7.206  0.1975 -0.8029  0.1049
  593MOL0     C79955   5.613   4.358   7.316 -0.0766 -0.4925  0.2695
  593MOL0     O79956   5.494   4.294   7.280 -0.2026  0.3772 -0.3439
  593MOL0     C79957   5.404   4.262   7.393  0.3176  0.3517 -0.4067
  593MOL0     C79958   5.296   4.376   7.419  0.1755  0.2555  0.0260
  593MOL0     C79959   5.216   4.331   7.546  0.4722 -0.2437  0.3543
  593MOL0     C79960   5.109   4.427   7.576 -0.3065 -0.4733 -0.9590
  593MOL0     C79961   5.048   4.379   7.710  0.4308  0.3438  0.0995
  593MOL0     C79962   4.949   4.501   7.748 -0.4327  0.8941  0.2275
  593MOL0     C79963   4.907   4.490   7.901  0.2297  0.3632  0.3044
  593MOL0     C79964   4.775   4.573   7.923 -0.2488 -0.0442 -0.0431
  593MOL0    Cl79965   4.755   4.642   8.087 -0.0084 -0.1135  0.1027
  593MOL0     C79966   5.655   4.388   7.444 -0.7154  0.4780  0.1343
  593MOL0     C79967   5.776   4.457   7.460  0.9140 -0.0708  0.0614
  593MOL0     O79968   6.008   4.692   7.202 -0.2663  0.2581 -1.0849
  593MOL0     C79969   6.157   4.722   7.527 -0.5493 -0.5819  0.3320
  593MOL0     C79970   6.263   4.780   7.605  0.1565  0.1880 -0.0926
  593MOL0     N79971   6.892   5.191   7.634 -0.0623  0.3746 -0.3321
  593MOL0     N79972   6.970   5.260   7.568 -0.4118  0.4028  0.6123
  593MOL0     C79973   8.238   5.409   7.693 -0.4733 -0.5141  0.4337
  593MOL0     C79974   8.367   5.381   7.650  0.4122 -0.6763 -0.5659
  593MOL0     C79975   8.838   5.353   7.714 -0.1622  0.1099 -0.3819
  593MOL0     C79976   8.916   5.244   7.750 -0.4470 -0.4625  0.4222
  593MOL0     C79977   9.046   5.240   7.696  0.2764  0.0801  0.6765
  593MOL0     C79978   9.103   5.340   7.615  1.1292 -0.4308 -0.0859
  593MOL0     O79979   9.220   5.330   7.553 -0.1934  0.7781 -0.4164
  593MOL0     C79980   9.321   5.372   7.635 -0.7023 -0.0844  0.5884
  593MOL0     C79981   9.438   5.417   7.539 -0.5559  0.1226  0.1924
  593MOL0     C79982   9.548   5.474   7.631  0.3077 -0.5924  0.1821
  593MOL0     C79983   9.656   5.527   7.536  0.4735  0.7592 -0.5487
  593MOL0     C79984   9.790   5.502   7.585  0.4318 -0.6077 -0.0104
  593MOL0     C79985   9.904   5.509   7.622 -0.6935 -0.0002  0.6311
  593MOL0     C79986   9.016   5.449   7.578 -0.1254 -0.3913 -0.0749
  593MOL0     C79987   8.883   5.449   7.622 -0.1450 -0.4680 -0.2782
  593MOL0     H79988   8.548   5.558   7.883 -1.5664  0.5233  2.4285
  593MOL0     H79989   8.310   5.619   7.948 -0.2711  0.0093  0.8417
  593MOL0     H79990   8.021   5.360   7.848 -0.6683 -0.8574 -1.1997
  593MOL0     H79991   7.934   5.484   7.926  1.8014  2.0271  0.8403
  593MOL0     H79992   7.882   5.591   7.717  0.2535  0.0126 -0.4253
  593MOL0     H79993   7.928   5.445   7.635  1.4194  4.3706 -1.1780
  593MOL0     H79994   7.775   5.314   7.720  2.0406 -0.5536  0.8282
  593MOL0     H79995   7.747   5.405   7.868 -0.8098  0.5780  0.0932
  593MOL0     H79996   7.630   5.574   7.767  1.8230  1.2158 -1.4483
  593MOL0     H79997   7.641   5.503   7.602  2.3969 -0.9744 -0.1428
  593MOL0     H79998   7.545   5.294   7.749 -0.4772 -0.6048 -0.6516
  593MOL0     H79999   7.474   5.431   7.834  2.0546 -0.2572  0.8669
  593MOL0     H80000   7.363   5.498   7.627  0.4923 -0.0671 -1.7854
  593MOL0     H80001   7.450   5.383   7.528  0.7561 -0.1884  0.7159
  593MOL0     H80002   7.341   5.198   7.695  0.3650  0.0311  0.0207
  593MOL0     H80003   7.239   5.335   7.736 -0.6562 -2.1985  0.3290
  593MOL0     H80004   7.265   5.214   7.454 -0.2444  1.6278 -0.9641
  593MOL0     H80005   7.183   5.366   7.494 -1.2419 -1.6097 -2.3187
  593MOL0     H80006   7.169   5.040   7.708 -0.0018 -0.1297 -0.7756
  593MOL0     H80007   6.919   4.898   7.775 -0.8761 -0.8720 -0.0027
  593MOL0     H80008   6.857   5.029   7.878 -3.1033 -0.3848 -0.5661
  593MOL0     H80009   6.739   4.958   7.611  1.3665 -0.4348  0.3400
  593MOL0     H80010   6.669   5.076   7.721  0.2255  0.2042  1.3814
  593MOL0     H80011   6.648   4.886   7.895  0.8494 -0.0168  0.3046
  593MOL0     H80012   6.693   4.770   7.761 -1.6960 -1.6209  0.8463
  593MOL0     H80013   6.456   4.957   7.785 -2.4929 -0.7196 -0.7075
  593MOL0     H80014   6.459   4.776   7.802  2.0417  0.3101  1.0759
  593MOL0     H80015   6.459   4.882   7.358  3.9390 -5.7058  0.2701
  593MOL0     H80016   6.207   4.881   7.124  0.8968  2.7024  0.8876
  593MOL0     H80017   6.376   4.846   7.141 -0.1882 -2.4212 -1.0378
  593MOL0     H80018   6.252   4.715   7.122 -0.9245 -0.3236  0.1763
  593MOL0     H80019   5.858   4.522   7.141  0.9008  0.7723  0.0043
  593MOL0     H80020   5.654   4.373   7.107  2.4738 -0.0228 -1.0104
  593MOL0     H80021   5.351   4.175   7.352  0.1729  0.4774 -0.4887
  593MOL0     H80022   5.449   4.228   7.486 -2.5028  0.0251  0.9657
  593MOL0     H80023   5.357   4.464   7.438 -0.0615  0.2525  0.8562
  593MOL0     H80024   5.225   4.392   7.337 -0.6077 -0.5366  0.5198
  593MOL0     H80025   5.279   4.322   7.635 -0.8332  0.4779  1.3822
  593MOL0     H80026   5.169   4.234   7.526 -2.7919  1.3038 -0.0743
  593MOL0     H80027   5.157   4.520   7.610  1.5256 -1.1734 -1.5129
  593MOL0     H80028   5.038   4.442   7.494  0.1824 -2.0539 -1.6980
  593MOL0     H80029   5.126   4.366   7.784  1.3740  0.9374 -0.7690
  593MOL0     H80030   4.985   4.290   7.704  1.0776 -0.0890 -0.4978
  593MOL0     H80031   4.992   4.599   7.726  0.4501  1.1158  2.6445
  593MOL0     H80032   4.868   4.501   7.674 -0.7822  2.8838  0.5659
  593MOL0     H80033   4.980   4.537   7.966  1.3655 -1.0732  0.1195
  593MOL0     H80034   4.897   4.385   7.933 -0.2713  0.0506 -0.8233
  593MOL0     H80035   4.692   4.503   7.909 -3.0121  3.2720 -2.0116
  593MOL0     H80036   4.776   4.655   7.851  0.6203 -1.1912 -1.3750
  593MOL0     H80037   5.598   4.359   7.532 -2.2811  4.1148  0.4860
  593MOL0     H80038   5.819   4.479   7.558 -3.5391  1.3569  1.9608
  593MOL0     H80039   6.064   4.692   7.574 -2.1812 -0.1467 -2.4015
  593MOL0     H80040   6.251   4.790   7.713 -1.4912  2.2012 -0.3953
  593MOL0     H80041   8.154   5.371   7.636  0.8463 -1.3604 -1.0133
  593MOL0     H80042   8.386   5.312   7.568  1.2400 -0.9308 -0.1721
  593MOL0     H80043   8.874   5.176   7.822  0.3526 -0.1922  1.1516
  593MOL0     H80044   9.106   5.150   7.708 -0.1726  0.0129  2.6822
  593MOL0     H80045   9.290   5.459   7.693 -2.0070 -0.8371  1.0595
  593MOL0     H80046   9.353   5.290   7.701 -1.1677  2.0458  3.6741
  593MOL0     H80047   9.408   5.488   7.460  1.6568  0.9520  0.0066
  593MOL0     H80048   9.464   5.324   7.488 -0.5140 -0.6023  1.5129
  593MOL0     H80049   9.589   5.398   7.699  1.7001  0.4329  0.5534
  593MOL0     H80050   9.507   5.553   7.694  0.9278  1.5305 -1.9242
  593MOL0     H80051   9.633   5.631   7.512 -4.3958  0.4054  1.4868
  593MOL0     H80052   9.647   5.474   7.441  3.3695 -0.2598 -0.3400
  593MOL0     H80053  10.009   5.523   7.639 -0.7282  0.6024  0.3898
  593MOL0     H80054   9.065   5.529   7.523 -0.0468 -1.3863 -1.4929
  593MOL0     H80055   8.824   5.539   7.604 -0.0587  0.0658  1.8750
  594MOL0     O80056   6.618   5.038  10.606  0.9828 -0.5125 -0.2195
  594MOL0     C80057   6.712   5.062  10.688 -0.1576  0.3548 -0.0563
  594MOL0     O80058   6.713   5.028  10.815 -0.2188 -0.7700  0.4006
  594MOL0     C80059   6.607   4.961  10.870 -0.5957 -0.2590  0.2299
  594MOL0     C80060   6.493   5.029  10.900  0.1836  0.3541  0.3414
  594MOL0     C80061   6.380   4.958  10.939  0.6669 -0.1507  0.0650
  594MOL0     C80062   6.384   4.816  10.963 -0.2022 -0.3465 -0.0750
  594MOL0     O80063   6.279   4.747  11.010 -0.1731 -0.0722 -0.5676
  594MOL0     C80064   6.278   4.607  11.016  0.3568 -0.1347  0.5430
  594MOL0     C80065   6.147   4.565  11.076  0.4242 -0.3323  0.8855
  594MOL0     C80066   6.027   4.567  10.979  0.5649 -0.1477 -0.3481
  594MOL0     C80067   5.921   4.471  11.023  0.1465 -0.3787  0.4171
  594MOL0     C80068   5.841   4.526  11.137 -0.4869  0.1716 -0.0654
  594MOL0     C80069   5.723   4.453  11.189  0.7303 -0.0074  0.3986
  594MOL0     C80070   5.601   4.456  11.096 -0.1714  0.4144  0.4193
  594MOL0     C80071   5.553   4.595  11.046  0.4675  0.5327 -0.3911
  594MOL0     N80072   5.489   4.658  11.163 -0.2968 -0.3106  0.5259
  594MOL0     C80073   5.389   4.620  11.238 -0.2513 -0.0863  0.2740
  594MOL0     C80074   5.362   4.727  11.319 -0.2943 -0.7619  0.1069
  594MOL0     C80075   5.268   4.745  11.432  0.4797  0.1155 -0.0880
  594MOL0     C80076   5.130   4.702  11.383  0.5305  0.1176 -0.0478
  594MOL0     C80077   5.026   4.719  11.497 -1.0335 -0.4316  0.7287
  594MOL0     C80078   4.889   4.689  11.439 -0.2022 -0.3061  0.5459
  594MOL0     O80079   4.812   4.668  11.544  0.3264 -0.5322 -0.4394
  594MOL0     C80080   4.682   4.675  11.540 -0.2105  0.1177 -0.3640
  594MOL0     C80081   4.620   4.723  11.649  0.9483  0.3206 -0.1539
  594MOL0     C80082   4.474   4.747  11.656  0.5370 -0.0454 -0.6494
  594MOL0     C80083   4.405   4.797  11.784 -0.8043 -0.3676 -0.3301
  594MOL0     C80084   4.402   4.724  11.536  0.6606 -0.0612 -0.1963
  594MOL0     C80085   4.256   4.762  11.527 -0.7234 -0.7991  0.7687
  594MOL0     O80086   4.198   4.830  11.623  0.3013  0.0625  0.2229
  594MOL0     C80087   4.065   4.867  11.624  0.5774  0.1424  0.0616
  594MOL0     C80088   3.969   4.827  11.714 -0.2278  0.3303  0.0054
  594MOL0     C80089   3.836   4.866  11.719  0.6567  0.2805 -0.2476
  594MOL0     C80090   3.792   4.970  11.627  0.8049 -0.5051 -1.3519
  594MOL0     O80091   3.662   5.027  11.637  0.7106 -0.0589  0.0391
  594MOL0     C80092   3.555   4.959  11.700  0.0963  0.3019 -0.4112
  594MOL0     C80093   3.428   5.043  11.695  0.8498 -0.2694 -0.8038
  594MOL0     C80094   3.314   5.007  11.790 -0.2351 -0.1571  0.4727
  594MOL0     C80095   3.186   5.077  11.753  0.1015 -0.2330  0.1355
  594MOL0     C80096   3.072   5.019  11.832  1.0848 -0.0380  0.3024
  594MOL0     C80097   2.952   5.114  11.825 -0.4334  0.0356  0.2777
  594MOL0     C80098   2.859   5.068  11.710 -0.4648 -0.4934  1.1638
  594MOL0     C80099   2.733   5.160  11.708 -0.4484  0.1037 -0.3493
  594MOL0    Cl80100   2.622   5.111  11.572  0.4524  0.0930 -0.3997
  594MOL0     C80101   3.894   5.012  11.529  0.4786  0.0985  0.1329
  594MOL0     C80102   4.029   4.967  11.534 -0.1191 -0.6924  0.2760
  594MOL0     O80103   4.188   4.711  11.430  0.0785 -0.1740  0.3850
  594MOL0     C80104   4.465   4.659  11.425  0.3608 -0.2969  0.6620
  594MOL0     C80105   4.605   4.640  11.422  0.1399  0.9829 -0.0314
  594MOL0     N80106   5.462   4.829  11.300 -0.4804 -0.4467  0.3632
  594MOL0     N80107   5.541   4.777  11.206  0.5480 -0.6745 -0.6358
  594MOL0     C80108   6.509   4.752  10.937 -0.5092 -0.6464  0.2366
  594MOL0     C80109   6.623   4.823  10.895 -0.0733 -0.4020 -0.5522
  594MOL0     C80110   6.816   5.143  10.627 -0.2072 -0.2054 -0.4996
  594MOL0     C80111   6.839   5.141  10.492 -0.8836  0.6919 -0.1826
  594MOL0     C80112   6.947   5.220  10.439 -0.8859  0.0063 -0.8262
  594MOL0     C80113   7.019   5.314  10.521 -0.4420 -0.1329  0.0976
  594MOL0     O80114   7.118   5.391  10.472  0.1495 -0.9784 -0.4595
  594MOL0     C80115   7.256   5.359  10.503 -0.1582 -0.0710  0.2661
  594MOL0     C80116   7.359   5.444  10.424  0.8611 -0.7814  0.1013
  594MOL0     C80117   7.504   5.428  10.464 -0.1001  0.7814  0.3114
  594MOL0     C80118   7.536   5.534  10.573  1.7691 -0.7910 -0.1621
  594MOL0     C80119   7.639   5.487  10.667  0.6427 -1.1284 -0.6778
  594MOL0     C80120   7.724   5.443  10.732 -0.7368  0.6211 -0.6818
  594MOL0     C80121   7.000   5.307  10.661 -0.8835  0.1708  0.9483
  594MOL0     C80122   6.902   5.212  10.708  0.2426 -0.6592 -0.8581
  594MOL0     H80123   6.493   5.134  10.871  4.4883  0.2346 -0.8729
  594MOL0     H80124   6.285   5.010  10.944  0.3835 -0.5535 -0.8153
  594MOL0     H80125   6.298   4.565  10.917  1.9906  1.4070  0.1846
  594MOL0     H80126   6.353   4.566  11.084 -1.1820  0.1229  2.4886
  594MOL0     H80127   6.157   4.466  11.122  0.0842 -0.4751  0.6517
  594MOL0     H80128   6.129   4.621  11.168 -0.0132  0.7444  0.1605
  594MOL0     H80129   5.976   4.663  10.966 -0.2496 -0.4662  0.4301
  594MOL0     H80130   6.056   4.540  10.877  1.2020  2.4970 -0.9647
  594MOL0     H80131   5.848   4.452  10.944 -0.8757  1.6202  0.8044
  594MOL0     H80132   5.973   4.377  11.045  0.9851 -0.8421 -2.9840
  594MOL0     H80133   5.910   4.537  11.221  0.9970  0.6587 -1.3067
  594MOL0     H80134   5.804   4.622  11.101  1.3419  0.3323 -1.7034
  594MOL0     H80135   5.758   4.351  11.210 -0.2516 -0.4412 -0.0578
  594MOL0     H80136   5.692   4.496  11.285  0.1123 -2.9558  1.6460
  594MOL0     H80137   5.640   4.403  11.009 -0.5021  1.3676 -0.3379
  594MOL0     H80138   5.529   4.397  11.153  1.3358 -1.7095  0.2299
  594MOL0     H80139   5.471   4.571  10.976 -0.3399  4.0407 -0.8080
  594MOL0     H80140   5.622   4.663  10.996  1.7139 -1.5008 -1.5777
  594MOL0     H80141   5.340   4.524  11.224  1.5700 -0.6994 -3.0334
  594MOL0     H80142   5.297   4.680  11.515 -1.0492 -1.0084 -0.3772
  594MOL0     H80143   5.270   4.847  11.471  0.9431 -0.2137  0.7851
  594MOL0     H80144   5.137   4.598  11.350  1.8918  0.1354  0.1425
  594MOL0     H80145   5.109   4.756  11.290  2.7527  0.2699 -0.5306
  594MOL0     H80146   5.027   4.817  11.545 -0.2843  1.0797 -2.1343
  594MOL0     H80147   5.054   4.648  11.576 -1.9215 -0.6089  0.8988
  594MOL0     H80148   4.880   4.605  11.370 -0.4081  0.8941 -0.9441
  594MOL0     H80149   4.853   4.774  11.381 -2.4153 -1.8023 -0.4117
  594MOL0     H80150   4.677   4.739  11.740 -0.8493 -1.2550  1.3414
  594MOL0     H80151   4.480   4.790  11.864 -1.7185 -2.0030  0.4564
  594MOL0     H80152   4.373   4.900  11.766  1.2222  0.1666 -1.1172
  594MOL0     H80153   4.320   4.736  11.817 -1.2577  0.4886  0.1202
  594MOL0     H80154   4.004   4.763  11.795  0.1083  4.1828  3.2073
  594MOL0     H80155   3.776   4.816  11.794  0.0526 -0.2639 -1.0715
  594MOL0     H80156   3.528   4.871  11.642 -2.8904 -0.2271  1.5474
  594MOL0     H80157   3.582   4.937  11.804 -1.5304 -1.2381 -0.2741
  594MOL0     H80158   3.454   5.148  11.708  0.5700 -0.4685  1.9570
  594MOL0     H80159   3.387   5.022  11.595 -1.9614  0.0682  0.1868
  594MOL0     H80160   3.340   5.026  11.895 -1.3376  0.8189  0.5836
  594MOL0     H80161   3.292   4.901  11.778  0.4244 -0.2393 -0.1088
  594MOL0     H80162   3.201   5.181  11.785  1.5541  0.8047 -3.4635
  594MOL0     H80163   3.165   5.087  11.646  2.0761  0.1621 -0.2451
  594MOL0     H80164   3.097   5.030  11.938  4.3655 -2.5619 -0.0211
  594MOL0     H80165   3.043   4.916  11.807  0.3070 -0.0777  1.3326
  594MOL0     H80166   2.889   5.108  11.914 -2.9591 -0.0219 -1.3967
  594MOL0     H80167   2.978   5.220  11.822 -2.7510  0.6808  0.8927
  594MOL0     H80168   2.827   4.964  11.719 -2.4445  0.0390  0.6682
  594MOL0     H80169   2.914   5.076  11.616  0.0691  1.2130  1.5958
  594MOL0     H80170   2.760   5.266  11.706  0.4335 -0.1258 -1.8162
  594MOL0     H80171   2.699   5.148  11.812  2.9345 -1.5289  0.7156
  594MOL0     H80172   3.862   5.086  11.456 -0.4353  0.6429  1.0555
  594MOL0     H80173   4.097   5.029  11.477 -3.8685  3.5666 -0.1636
  594MOL0     H80174   4.411   4.649  11.331  0.7685  3.0266 -0.0611
  594MOL0     H80175   4.641   4.599  11.328  0.4793  0.1541  0.4555
  594MOL0     H80176   6.525   4.646  10.948 -0.2898 -0.7877 -1.2330
  594MOL0     H80177   6.720   4.778  10.879  0.3249 -0.2049  1.0907
  594MOL0     H80178   6.787   5.064  10.435 -0.7940 -0.2727  0.9938
  594MOL0     H80179   6.976   5.204  10.336 -0.1062 -0.9245 -0.4688
  594MOL0     H80180   7.273   5.367  10.611 -0.6441 -2.6603  0.6073
  594MOL0     H80181   7.264   5.254  10.473 -1.9942 -0.1317 -0.1248
  594MOL0     H80182   7.343   5.552  10.423  4.6304 -0.0985 -0.2470
  594MOL0     H80183   7.352   5.407  10.321  4.1288 -0.6195 -0.2814
  594MOL0     H80184   7.563   5.426  10.371 -0.1123 -0.7980  0.3122
  594MOL0     H80185   7.514   5.332  10.515 -2.3034 -0.1589 -0.9132
  594MOL0     H80186   7.448   5.566  10.629  0.8973 -2.7150 -0.3561
  594MOL0     H80187   7.577   5.620  10.518 -0.0852  0.4005  0.2379
  594MOL0     H80188   7.805   5.408  10.793 -1.4301 -0.6026 -0.4525
  594MOL0     H80189   7.053   5.358  10.740 -1.1140 -3.3514  3.6045
  594MOL0     H80190   6.896   5.209  10.816  0.6428 -1.0589 -0.8436
  595MOL0     O80191   4.225   2.842   7.218 -0.8207 -0.1976 -0.3390
  595MOL0     C80192   4.288   2.758   7.163 -0.1666 -0.2143 -0.6743
  595MOL0     O80193   4.239   2.625   7.139 -0.5854 -0.1005 -0.8113
  595MOL0     C80194   4.108   2.594   7.148  0.2249  1.0752  0.9849
  595MOL0     C80195   4.070   2.471   7.192 -0.3386  0.0358 -1.5402
  595MOL0     C80196   3.935   2.431   7.194 -0.2158 -0.1742  0.4738
  595MOL0     C80197   3.837   2.518   7.157  0.0535  0.4421 -0.9196
  595MOL0     O80198   3.710   2.477   7.171 -0.4865 -0.4269  0.4369
  595MOL0     C80199   3.608   2.537   7.080 -0.6222  0.1185  0.3401
  595MOL0     C80200   3.491   2.440   7.116  1.4408 -0.3928 -0.0402
  595MOL0     C80201   3.356   2.474   7.043  0.2702  0.0671 -0.1797
  595MOL0     C80202   3.243   2.395   7.092  0.2527  0.6850 -0.1833
  595MOL0     C80203   3.109   2.443   7.032  0.0049  0.1547  0.2892
  595MOL0     C80204   3.000   2.347   7.092  0.8642 -0.1605 -0.6315
  595MOL0     C80205   2.858   2.365   7.019 -0.4364 -0.4870  0.4171
  595MOL0     C80206   2.750   2.301   7.109  0.0798  0.4527  0.0661
  595MOL0     N80207   2.635   2.288   7.028 -0.2886 -0.0179  0.1596
  595MOL0     C80208   2.582   2.395   6.954  0.3298 -0.8385 -0.0501
  595MOL0     C80209   2.465   2.349   6.900 -0.2743 -0.3973 -0.3210
  595MOL0     C80210   2.370   2.420   6.813  0.1201  0.4981 -0.4612
  595MOL0     C80211   2.246   2.468   6.889 -0.6726  0.0727 -0.5773
  595MOL0     C80212   2.261   2.582   6.989 -0.1320  0.3379 -0.9379
  595MOL0     C80213   2.116   2.608   7.044 -0.4176 -0.3098 -0.1158
  595MOL0     O80214   2.093   2.753   7.049  0.3403 -0.4549 -0.6781
  595MOL0     C80215   2.004   2.797   7.143  0.5003 -0.1734 -0.5320
  595MOL0     C80216   1.872   2.834   7.126 -0.1912  0.5473 -0.5191
  595MOL0     C80217   1.795   2.880   7.235  0.0141  0.0785  0.2234
  595MOL0     C80218   1.648   2.907   7.194  0.3450  0.3350 -0.4327
  595MOL0     C80219   1.854   2.890   7.362  0.2301  0.0771  0.2138
  595MOL0     C80220   1.776   2.938   7.482 -0.2798  0.1825 -0.8523
  595MOL0     O80221   1.685   3.041   7.455  0.0885  0.0264  0.3068
  595MOL0     C80222   1.572   3.071   7.530  0.0381  0.6738  1.2207
  595MOL0     C80223   1.485   2.973   7.591  0.0002 -0.4229  1.2177
  595MOL0     C80224   1.362   3.016   7.643 -0.2601 -0.3746  0.6360
  595MOL0     C80225   1.330   3.150   7.658  0.1314  0.6667  0.2371
  595MOL0     O80226   1.222   3.198   7.722  0.0772 -0.9598  0.1713
  595MOL0     C80227   1.124   3.108   7.770  0.1492  0.5364 -0.4503
  595MOL0     C80228   1.048   3.185   7.877 -0.7063 -0.7454  0.0272
  595MOL0     C80229   0.974   3.101   7.984  0.0055  0.6934  0.7980
  595MOL0     C80230   0.855   3.016   7.911  0.5299 -0.5601  0.8007
  595MOL0     C80231   0.788   2.921   8.008 -0.2151 -0.6266 -0.4609
  595MOL0     C80232   0.877   2.814   8.061 -0.0333 -0.4619 -1.3239
  595MOL0     C80233   0.814   2.738   8.177  0.6767 -0.2470 -1.1086
  595MOL0     C80234   0.892   2.616   8.222  0.3173  0.7413 -0.6378
  595MOL0    Cl80235   0.883   2.468   8.112  0.3465  0.3577 -0.2285
  595MOL0     C80236   1.418   3.244   7.604  0.1233 -0.0684 -0.4062
  595MOL0     C80237   1.538   3.208   7.534  0.7131 -0.4570  0.2438
  595MOL0     O80238   1.785   2.880   7.586 -0.0384  0.3658  0.0489
  595MOL0     C80239   1.990   2.871   7.376  0.5477 -0.0454 -0.0258
  595MOL0     C80240   2.063   2.818   7.267 -0.8351 -0.4880  0.3722
  595MOL0     N80241   2.447   2.218   6.943 -0.0538 -0.1996  0.9303
  595MOL0     N80242   2.548   2.185   7.016  0.4160 -0.9715 -0.7830
  595MOL0     C80243   3.874   2.649   7.121  0.2566  0.4438 -0.6683
  595MOL0     C80244   4.006   2.685   7.123 -0.0971  0.6520  0.0778
  595MOL0     C80245   4.422   2.782   7.119  1.1666  0.7576  0.5830
  595MOL0     C80246   4.505   2.684   7.065  0.4203 -0.4038 -0.1259
  595MOL0     C80247   4.642   2.711   7.057  0.0018 -1.0721 -0.0728
  595MOL0     C80248   4.706   2.833   7.105  0.2099 -0.7199 -0.3719
  595MOL0     O80249   4.840   2.863   7.091 -0.6005 -1.0571  0.4292
  595MOL0     C80250   4.894   2.985   7.140  0.0391  0.2071  0.6969
  595MOL0     C80251   5.044   2.963   7.159  0.2946  0.4736  0.8166
  595MOL0     C80252   5.137   2.979   7.038  0.2810 -0.0594 -0.1798
  595MOL0     C80253   5.280   2.998   7.095  0.3008 -0.3637  0.4332
  595MOL0     C80254   5.315   2.881   7.182  0.2813  0.4043 -0.7058
  595MOL0     C80255   5.343   2.800   7.273  0.5497  0.0392  0.1914
  595MOL0     C80256   4.618   2.934   7.142 -0.2220  0.6373  0.3256
  595MOL0     C80257   4.476   2.912   7.153  0.5271 -0.1771 -0.7758
  595MOL0     H80258   4.155   2.411   7.224 -0.5078  1.1266  1.2147
  595MOL0     H80259   3.900   2.333   7.225  1.5996 -1.3685 -1.0074
  595MOL0     H80260   3.594   2.643   7.106  3.5611  0.4802  2.0118
  595MOL0     H80261   3.625   2.530   6.973 -0.6321 -5.0008  0.4379
  595MOL0     H80262   3.515   2.335   7.094  0.1817 -0.7080  0.0494
  595MOL0     H80263   3.473   2.439   7.224 -0.4374 -1.1808 -0.3299
  595MOL0     H80264   3.340   2.580   7.061  1.3290  0.6754 -2.5021
  595MOL0     H80265   3.371   2.450   6.937 -1.3161  0.6800 -0.5629
  595MOL0     H80266   3.257   2.291   7.061 -2.5492  0.8688 -2.4501
  595MOL0     H80267   3.240   2.399   7.201 -0.6958 -1.5518 -0.0928
  595MOL0     H80268   3.083   2.546   7.060 -2.8673  0.2458 -2.1670
  595MOL0     H80269   3.107   2.438   6.923 -0.4936  2.3123  0.1460
  595MOL0     H80270   3.025   2.241   7.103 -0.8339 -0.3958  1.7287
  595MOL0     H80271   2.993   2.392   7.192  0.4268 -0.8429 -0.3454
  595MOL0     H80272   2.836   2.471   7.001  0.0280 -0.5988 -0.9538
  595MOL0     H80273   2.864   2.311   6.924  0.0870 -0.7516  0.5989
  595MOL0     H80274   2.739   2.363   7.199 -1.1428  0.2765  0.0539
  595MOL0     H80275   2.781   2.200   7.139  0.1086  0.9773  1.9463
  595MOL0     H80276   2.627   2.493   6.942  1.6635 -1.1396  2.0897
  595MOL0     H80277   2.421   2.503   6.763  1.7125 -1.3883 -2.0987
  595MOL0     H80278   2.353   2.350   6.732 -1.2139 -0.2590  0.4219
  595MOL0     H80279   2.202   2.376   6.929 -0.6022  1.5482  3.3435
  595MOL0     H80280   2.185   2.520   6.814 -0.4413  2.1046  0.5848
  595MOL0     H80281   2.295   2.671   6.935 -1.5757  1.2503 -0.3853
  595MOL0     H80282   2.331   2.552   7.068 -2.0848 -0.4192  0.5874
  595MOL0     H80283   2.099   2.560   7.141  1.5291  1.3625  1.1287
  595MOL0     H80284   2.037   2.574   6.976  0.2138  0.8305 -1.4733
  595MOL0     H80285   1.833   2.812   7.027  1.2596 -2.1011 -0.5883
  595MOL0     H80286   1.634   2.840   7.109 -0.0691 -1.7346  1.1974
  595MOL0     H80287   1.585   2.893   7.282  0.1948  1.6307 -0.3091
  595MOL0     H80288   1.639   3.011   7.160 -4.4634 -0.1691 -1.3931
  595MOL0     H80289   1.518   2.870   7.597  0.8991 -0.2472 -0.1543
  595MOL0     H80290   1.305   2.934   7.685 -1.0110 -1.1516 -1.7453
  595MOL0     H80291   1.048   3.088   7.694  1.1753  2.7411 -2.1851
  595MOL0     H80292   1.158   3.019   7.824 -0.4221  0.3585 -0.3852
  595MOL0     H80293   1.117   3.259   7.918 -2.1563 -0.1212  1.4551
  595MOL0     H80294   0.976   3.250   7.827 -1.7678 -3.3122 -2.0452
  595MOL0     H80295   0.935   3.167   8.061 -0.8182 -1.5932  2.4600
  595MOL0     H80296   1.044   3.035   8.037  2.5559  1.0723 -1.8145
  595MOL0     H80297   0.779   3.083   7.871 -1.2464 -1.9163  1.7277
  595MOL0     H80298   0.891   2.963   7.822 -1.0751  0.1599 -0.3202
  595MOL0     H80299   0.704   2.875   7.955 -0.1289 -2.4501  0.8779
  595MOL0     H80300   0.754   2.976   8.096  3.1296  1.6676 -0.4049
  595MOL0     H80301   0.907   2.741   7.986 -1.4727 -2.5216  0.0141
  595MOL0     H80302   0.967   2.862   8.100 -1.2502  0.2245  0.8034
  595MOL0     H80303   0.708   2.708   8.172  0.7020 -0.4105 -0.7538
  595MOL0     H80304   0.823   2.796   8.269  0.5719 -2.9533  0.7370
  595MOL0     H80305   0.856   2.586   8.321  0.0159 -0.5422 -1.1203
  595MOL0     H80306   0.998   2.640   8.232  0.3776 -0.3159  2.2479
  595MOL0     H80307   1.397   3.348   7.625 -1.7886 -0.5051 -0.0244
  595MOL0     H80308   1.603   3.279   7.484 -0.0802 -2.1604 -3.5249
  595MOL0     H80309   2.038   2.891   7.471 -0.7889 -0.4866  0.7687
  595MOL0     H80310   2.171   2.806   7.264 -0.8951 -1.1629 -2.5897
  595MOL0     H80311   3.794   2.717   7.093 -0.4056  0.4127  1.0185
  595MOL0     H80312   4.046   2.778   7.083  2.9701  0.5846  2.6446
  595MOL0     H80313   4.466   2.593   7.021  0.3909 -0.9414  0.9841
  595MOL0     H80314   4.708   2.634   7.018 -0.0005 -0.5297 -1.1934
  595MOL0     H80315   4.886   3.064   7.066  1.5205  1.1583  1.4961
  595MOL0     H80316   4.848   3.020   7.232 -1.4789 -1.4306  0.6267
  595MOL0     H80317   5.064   2.863   7.199  0.7304  0.3382  0.2760
  595MOL0     H80318   5.066   3.038   7.235  3.3462  1.5523 -0.9503
  595MOL0     H80319   5.100   3.064   6.981  1.4920  2.3829  2.4100
  595MOL0     H80320   5.128   2.893   6.972  0.3229 -0.7503  0.6924
  595MOL0     H80321   5.285   3.087   7.158  2.1772  0.4966 -0.8416
  595MOL0     H80322   5.352   3.009   7.013  1.0818  0.4712  1.2132
  595MOL0     H80323   5.360   2.728   7.351 -3.1354  0.0291  1.1609
  595MOL0     H80324   4.660   3.017   7.199  0.8378  0.1289  0.2969
  595MOL0     H80325   4.420   2.984   7.212  0.8897 -0.1090 -0.5161
  596MOL0     O80326  10.601   1.050   9.115  0.4178  0.4465  0.2249
  596MOL0     C80327  10.636   1.050   8.993  0.5004  0.2360 -0.4552
  596MOL0     O80328  10.550   1.069   8.893 -0.5744  0.6519 -0.9110
  596MOL0     C80329  10.419   1.082   8.938 -0.2729 -0.8594  0.6245
  596MOL0     C80330  10.353   1.203   8.911 -0.7198  0.2301 -0.6128
  596MOL0     C80331  10.216   1.218   8.933  0.8221 -0.3539  0.4090
  596MOL0     C80332  10.147   1.111   8.995 -0.4815 -0.2050  0.1868
  596MOL0     O80333  10.009   1.101   9.016 -0.3658 -0.1048 -1.2723
  596MOL0     C80334   9.925   1.203   8.954 -0.5628  0.6342  0.6143
  596MOL0     C80335   9.778   1.175   9.017 -0.3745 -0.0793 -0.6090
  596MOL0     C80336   9.653   1.242   8.950 -0.6948 -0.6249 -0.3715
  596MOL0     C80337   9.528   1.222   9.037 -1.2039  0.5215 -0.5765
  596MOL0     C80338   9.436   1.336   9.009  0.7851 -0.1324 -0.2396
  596MOL0     C80339   9.332   1.360   9.119  0.1738 -0.0651 -0.3988
  596MOL0     C80340   9.279   1.232   9.191 -0.4621  0.6723  0.6338
  596MOL0     C80341   9.146   1.248   9.263  0.2329 -1.2084  0.4423
  596MOL0     N80342   9.139   1.387   9.324 -0.4016 -0.0938  0.8723
  596MOL0     C80343   9.162   1.420   9.460  0.1674 -0.0289  0.5943
  596MOL0     C80344   9.130   1.554   9.472 -0.0458  0.1226 -0.2281
  596MOL0     C80345   9.150   1.653   9.582  0.2722 -1.0534 -0.1994
  596MOL0     C80346   9.020   1.681   9.665  0.4268 -0.1983 -0.2544
  596MOL0     C80347   8.919   1.761   9.593  0.0233 -0.1881  0.8317
  596MOL0     C80348   8.806   1.811   9.680  0.1002  0.1138 -0.7646
  596MOL0     O80349   8.697   1.863   9.595  0.3445  0.5605 -0.0818
  596MOL0     C80350   8.679   1.996   9.587  0.2024 -0.2260 -1.2608
  596MOL0     C80351   8.789   2.081   9.595  0.0252 -0.4138 -0.0104
  596MOL0     C80352   8.774   2.217   9.574 -0.0974 -0.0904 -0.7561
  596MOL0     C80353   8.892   2.304   9.601  0.0938 -0.8504  0.6366
  596MOL0     C80354   8.644   2.277   9.546  0.5243 -0.4632 -0.4672
  596MOL0     C80355   8.611   2.425   9.533  0.2830  0.0602 -0.3104
  596MOL0     O80356   8.485   2.462   9.550 -0.9759  0.4519 -0.8201
  596MOL0     C80357   8.446   2.576   9.494 -0.5028 -0.1809  0.1553
  596MOL0     C80358   8.367   2.567   9.383  0.7924  0.0728  0.1481
  596MOL0     C80359   8.334   2.685   9.319 -0.6808 -0.0022 -0.4575
  596MOL0     C80360   8.364   2.806   9.379 -1.4073  0.4163 -0.4210
  596MOL0     O80361   8.332   2.922   9.305  0.3786 -0.1849 -0.0655
  596MOL0     C80362   8.442   3.022   9.299  0.5864  0.1162  0.1164
  596MOL0     C80363   8.398   3.148   9.364  0.2518 -0.0861  0.4842
  596MOL0     C80364   8.291   3.217   9.277  0.0823  0.6820  0.3608
  596MOL0     C80365   8.240   3.348   9.345 -0.3059  0.7573 -0.0312
  596MOL0     C80366   8.127   3.398   9.262 -0.2670  0.2473 -0.6025
  596MOL0     C80367   8.078   3.515   9.339  0.6487  0.1521 -0.4051
  596MOL0     C80368   7.965   3.579   9.257  0.3252  0.3498 -1.0270
  596MOL0     C80369   8.017   3.675   9.152 -0.1147 -0.4167  0.5856
  596MOL0    Cl80370   7.877   3.764   9.082  0.3254  0.1307  0.2147
  596MOL0     C80371   8.435   2.811   9.506  0.4689  0.4033  0.1173
  596MOL0     C80372   8.474   2.691   9.562  0.0600  0.0504 -0.1572
  596MOL0     O80373   8.705   2.505   9.513  0.0628  0.5025 -0.0944
  596MOL0     C80374   8.541   2.179   9.540  0.7369 -0.4787  0.4498
  596MOL0     C80375   8.555   2.042   9.560  0.0566  0.2727  0.0178
  596MOL0     N80376   9.073   1.588   9.349  0.5405 -0.7874 -0.1020
  596MOL0     N80377   9.074   1.492   9.269  0.0026  0.5689  0.1915
  596MOL0     C80378  10.217   0.990   9.021 -0.2576 -0.5735  0.0701
  596MOL0     C80379  10.352   0.975   8.993  0.8287  0.0867  0.0499
  596MOL0     C80380  10.779   1.041   8.956 -1.0047  0.3388  0.1212
  596MOL0     C80381  10.880   1.062   9.063 -0.2056  0.5761  0.1026
  596MOL0     C80382  11.024   1.051   9.028 -0.3889  0.5368 -0.2318
  596MOL0     C80383  11.061   1.028   8.891  0.1640 -0.1839 -0.1323
  596MOL0     O80384  11.186   1.019   8.840  0.1955  0.3595  0.1264
  596MOL0     C80385  11.292   1.076   8.920  0.8914 -0.6436 -0.0332
  596MOL0     C80386  11.410   1.078   8.836  0.7257 -0.2773 -0.2449
  596MOL0     C80387  11.542   1.123   8.898  0.2872 -0.6746  1.3431
  596MOL0     C80388  11.645   1.113   8.788 -0.2026  0.3846  0.2184
  596MOL0     C80389  11.761   1.189   8.822 -0.5156 -0.4053 -0.6808
  596MOL0     C80390  11.869   1.244   8.853  0.0108  0.0170 -0.0832
  596MOL0     C80391  10.956   1.017   8.802 -1.0784  0.1354  0.6179
  596MOL0     C80392  10.818   1.018   8.825 -0.1425 -0.5238  0.7815
  596MOL0     H80393  10.425   1.273   8.869 -1.3230 -0.0775 -2.2375
  596MOL0     H80394  10.161   1.310   8.915 -1.8216 -1.2352  3.2354
  596MOL0     H80395   9.944   1.309   8.973 -0.1624  0.3875  1.6918
  596MOL0     H80396   9.925   1.177   8.848  0.0328 -0.8478  0.9593
  596MOL0     H80397   9.766   1.066   9.019 -1.1228 -0.0588 -2.4212
  596MOL0     H80398   9.783   1.214   9.119 -2.5238 -0.6379 -0.2397
  596MOL0     H80399   9.675   1.349   8.947 -0.5973 -0.6349 -3.6445
  596MOL0     H80400   9.639   1.199   8.850 -0.8062  2.8809 -1.9854
  596MOL0     H80401   9.472   1.128   9.032  1.5504 -1.2147 -1.3088
  596MOL0     H80402   9.554   1.231   9.143  0.7893 -0.2543 -0.9497
  596MOL0     H80403   9.489   1.429   8.984 -0.1747 -0.4237 -3.9744
  596MOL0     H80404   9.376   1.315   8.920  2.3534 -1.3499 -1.0688
  596MOL0     H80405   9.376   1.420   9.199 -1.7328  0.0597  0.6234
  596MOL0     H80406   9.249   1.414   9.072 -0.2645 -0.2876  0.1115
  596MOL0     H80407   9.278   1.145   9.125  0.7116 -0.7991  2.4568
  596MOL0     H80408   9.365   1.207   9.254 -0.1737  1.0633  0.4063
  596MOL0     H80409   9.134   1.167   9.335 -0.1125 -1.0783  0.5305
  596MOL0     H80410   9.068   1.244   9.187  1.8168  2.2020 -1.6194
  596MOL0     H80411   9.208   1.360   9.538 -0.7693 -2.8454 -0.8608
  596MOL0     H80412   9.218   1.611   9.657  1.2051  1.2358  0.3036
  596MOL0     H80413   9.206   1.739   9.545  0.2325 -0.4241  1.1491
  596MOL0     H80414   9.046   1.737   9.755 -1.1503 -0.3945  0.3416
  596MOL0     H80415   8.988   1.583   9.702 -0.3570 -0.7328 -2.1953
  596MOL0     H80416   8.885   1.696   9.511 -0.8415  0.5416  0.5873
  596MOL0     H80417   8.961   1.845   9.536 -1.5264  0.6673  0.9074
  596MOL0     H80418   8.852   1.878   9.754  0.6325 -0.4735 -0.5526
  596MOL0     H80419   8.762   1.726   9.732 -2.6560  1.1404 -1.2624
  596MOL0     H80420   8.887   2.035   9.599  0.9083  1.2060 -1.8436
  596MOL0     H80421   8.903   2.360   9.507 -0.5581 -1.2250  0.3291
  596MOL0     H80422   8.859   2.380   9.673 -2.4333 -0.4298 -0.8372
  596MOL0     H80423   8.976   2.244   9.634 -0.6697 -1.4560  1.5431
  596MOL0     H80424   8.334   2.471   9.344 -1.6548 -0.0779  2.3365
  596MOL0     H80425   8.277   2.679   9.226 -1.6441  1.6168 -0.0165
  596MOL0     H80426   8.536   2.996   9.349  0.5050  0.9286  0.7044
  596MOL0     H80427   8.461   3.050   9.195  1.1234  0.7995  0.3922
  596MOL0     H80428   8.349   3.135   9.462  0.0089  0.4136  0.4319
  596MOL0     H80429   8.487   3.200   9.401  0.0387 -0.3279  1.3861
  596MOL0     H80430   8.208   3.149   9.253 -0.7262  2.2712 -1.6617
  596MOL0     H80431   8.336   3.244   9.181 -2.0996 -0.5482 -1.1029
  596MOL0     H80432   8.205   3.326   9.446 -0.6114 -1.4442 -0.5668
  596MOL0     H80433   8.326   3.416   9.342  1.0968 -0.9975 -2.3363
  596MOL0     H80434   8.054   3.316   9.258  0.4843 -0.5222  0.8159
  596MOL0     H80435   8.157   3.426   9.161 -0.3575 -1.8194 -1.2631
  596MOL0     H80436   8.030   3.483   9.432 -1.7451 -0.7585 -1.8545
  596MOL0     H80437   8.144   3.600   9.357  0.9891 -0.0480 -0.7045
  596MOL0     H80438   7.904   3.639   9.324 -0.5008  1.2358 -2.5073
  596MOL0     H80439   7.891   3.508   9.218 -0.4641 -0.7342  2.1643
  596MOL0     H80440   8.068   3.621   9.072  1.0441  0.7026  0.5431
  596MOL0     H80441   8.090   3.751   9.181 -0.6886 -0.0618  1.1347
  596MOL0     H80442   8.441   2.900   9.568 -1.2390  1.7252 -1.4766
  596MOL0     H80443   8.522   2.705   9.658 -2.0063  3.2018  0.5956
  596MOL0     H80444   8.439   2.217   9.538  0.6140 -0.7623 -2.0009
  596MOL0     H80445   8.482   1.962   9.566  1.4958 -1.0896 -0.0094
  596MOL0     H80446  10.162   0.905   9.061 -0.1809 -2.0520 -2.7227
  596MOL0     H80447  10.398   0.877   9.000 -2.4782 -1.7634 -1.6547
  596MOL0     H80448  10.846   1.076   9.165 -0.5591  0.7467 -0.0395
  596MOL0     H80449  11.099   1.047   9.106  0.3063 -1.8636 -0.9251
  596MOL0     H80450  11.274   1.176   8.959  0.5619 -0.3231 -0.9853
  596MOL0     H80451  11.317   1.009   9.003  2.3701  1.4225  1.2735
  596MOL0     H80452  11.396   1.150   8.755  1.8556 -1.6990 -1.7795
  596MOL0     H80453  11.424   0.975   8.800  1.7026 -0.7727  1.4381
  596MOL0     H80454  11.570   1.065   8.986 -1.2247 -0.3541  2.0767
  596MOL0     H80455  11.536   1.229   8.924  1.2396 -0.2210 -0.1784
  596MOL0     H80456  11.610   1.146   8.690 -3.0932  0.3084  1.1422
  596MOL0     H80457  11.671   1.007   8.787  0.3309  0.1604  6.1881
  596MOL0     H80458  11.968   1.282   8.870 -0.4235  1.2170 -0.1199
  596MOL0     H80459  10.990   0.984   8.704  0.3338 -1.5748  1.6481
  596MOL0     H80460  10.747   1.004   8.744  2.1487 -2.8042 -1.0205
  597MOL0     O80461   5.008   3.176   6.693 -0.9074 -0.1847  0.0976
  597MOL0     C80462   5.048   3.291   6.718 -0.8103 -0.1257 -0.7342
  597MOL0     O80463   4.972   3.399   6.760  0.8789 -0.5430 -0.0574
  597MOL0     C80464   4.842   3.394   6.813 -0.0215 -0.7029  0.1075
  597MOL0     C80465   4.775   3.285   6.874  1.2516 -0.6760 -0.3257
  597MOL0     C80466   4.658   3.300   6.945 -0.4018  0.2825  0.2890
  597MOL0     C80467   4.596   3.421   6.938 -0.7145 -0.1136  0.3152
  597MOL0     O80468   4.484   3.454   7.010  0.0934 -0.9991  0.2776
  597MOL0     C80469   4.434   3.365   7.095  0.0296  0.1614 -0.7269
  597MOL0     C80470   4.313   3.417   7.178 -0.1397  0.6841 -0.5171
  597MOL0     C80471   4.262   3.302   7.266 -0.1479 -0.0181  0.5998
  597MOL0     C80472   4.132   3.336   7.336 -0.4849  0.7413  0.5839
  597MOL0     C80473   4.059   3.218   7.407  0.0340  0.4180  0.2435
  597MOL0     C80474   4.126   3.141   7.517 -0.6823  0.3756 -0.2861
  597MOL0     C80475   4.038   3.034   7.573 -0.3371 -0.2215  0.1267
  597MOL0     C80476   4.010   2.912   7.491  0.1586  0.3209  0.4984
  597MOL0     N80477   3.914   2.818   7.558 -0.8650 -0.2033 -0.6152
  597MOL0     C80478   3.909   2.682   7.537  1.5435 -0.3926  0.2798
  597MOL0     C80479   3.795   2.637   7.597 -0.3986 -0.1650 -0.5579
  597MOL0     C80480   3.744   2.491   7.608  0.0344 -0.1809 -0.6181
  597MOL0     C80481   3.606   2.464   7.545 -0.1139 -0.7288 -0.8711
  597MOL0     C80482   3.574   2.315   7.526  0.5797 -0.5011 -0.0467
  597MOL0     C80483   3.426   2.292   7.487  0.1978  0.5877  0.9388
  597MOL0     O80484   3.330   2.374   7.565  0.6468  0.3626  0.1931
  597MOL0     C80485   3.191   2.362   7.544 -0.1175  0.9777  0.3397
  597MOL0     C80486   3.135   2.252   7.471 -0.6331  0.1121  0.1830
  597MOL0     C80487   2.995   2.230   7.478  0.1077 -0.1566  0.5693
  597MOL0     C80488   2.939   2.126   7.397 -0.2232  0.2897  0.7414
  597MOL0     C80489   2.915   2.315   7.561  0.5643 -0.2407 -0.0899
  597MOL0     C80490   2.771   2.296   7.587 -0.7310 -0.2085 -0.1707
  597MOL0     O80491   2.699   2.394   7.555  0.1547 -0.0033 -0.6415
  597MOL0     C80492   2.564   2.394   7.588  0.1903 -0.3023  0.0319
  597MOL0     C80493   2.501   2.315   7.690  0.3828  1.2035 -0.2498
  597MOL0     C80494   2.371   2.316   7.717 -0.1320  0.4110  0.2792
  597MOL0     C80495   2.284   2.394   7.641  0.0691  0.1349 -1.1521
  597MOL0     O80496   2.146   2.379   7.671 -0.2933 -0.5130 -0.2601
  597MOL0     C80497   2.059   2.491   7.648 -0.1554 -0.0813 -0.2213
  597MOL0     C80498   1.937   2.473   7.746 -0.1905  0.7240  0.9045
  597MOL0     C80499   1.827   2.582   7.716 -0.6081 -0.4259 -0.3772
  597MOL0     C80500   1.715   2.557   7.811  0.2559 -0.5073  0.3975
  597MOL0     C80501   1.590   2.657   7.798  0.5426 -0.4434  0.2480
  597MOL0     C80502   1.503   2.647   7.930 -0.7191 -0.1404  0.7096
  597MOL0     C80503   1.380   2.733   7.926 -0.3787  0.2776 -0.2126
  597MOL0     C80504   1.282   2.718   8.040  0.4226  0.2746  0.4563
  597MOL0    Cl80505   1.255   2.551   8.078  0.2831 -0.2013  0.0049
  597MOL0     C80506   2.333   2.452   7.527  0.3312  0.0179 -1.0003
  597MOL0     C80507   2.470   2.451   7.501  0.0649  0.5300  0.2364
  597MOL0     O80508   2.732   2.186   7.620 -0.6277 -0.2487 -0.4300
  597MOL0     C80509   2.975   2.422   7.633  0.7610 -0.2377  0.3790
  597MOL0     C80510   3.111   2.441   7.622 -0.3769  0.3089 -0.2674
  597MOL0     N80511   3.734   2.753   7.653  0.5938 -0.7952  0.0626
  597MOL0     N80512   3.802   2.855   7.624 -0.3351 -0.7928 -0.4627
  597MOL0     C80513   4.653   3.527   6.867 -0.0200  0.0286 -0.6307
  597MOL0     C80514   4.777   3.510   6.806  0.9893 -0.3974 -0.1371
  597MOL0     C80515   5.191   3.314   6.710 -0.3211 -0.5889  1.1004
  597MOL0     C80516   5.275   3.213   6.640 -0.5174  1.0935 -1.0158
  597MOL0     C80517   5.409   3.249   6.622 -0.2053  0.4905  0.7127
  597MOL0     C80518   5.470   3.367   6.674 -0.2877  0.8522 -0.6961
  597MOL0     O80519   5.614   3.377   6.646  0.1050  0.2974  0.0676
  597MOL0     C80520   5.662   3.513   6.642 -0.2137 -0.3329  0.2834
  597MOL0     C80521   5.786   3.526   6.557 -0.0411 -0.3491 -0.3960
  597MOL0     C80522   5.906   3.467   6.627  0.9499 -0.1550  0.4359
  597MOL0     C80523   6.030   3.511   6.556  0.1892 -0.0239 -0.3438
  597MOL0     C80524   6.037   3.505   6.407 -0.0620  0.5792 -0.4262
  597MOL0     C80525   6.039   3.492   6.290  0.1637  0.4308  0.3067
  597MOL0     C80526   5.392   3.454   6.740  0.3911  0.3229 -0.5732
  597MOL0     C80527   5.254   3.431   6.759  1.2924 -0.6791  0.0703
  597MOL0     H80528   4.827   3.191   6.858  1.8880 -0.3713 -0.1128
  597MOL0     H80529   4.602   3.209   6.965 -4.5220  1.6614 -3.2846
  597MOL0     H80530   4.391   3.279   7.043 -3.2135  0.0416  1.8243
  597MOL0     H80531   4.518   3.337   7.159 -1.0787 -1.1785  0.2113
  597MOL0     H80532   4.332   3.502   7.244 -0.2310 -0.1400  0.6000
  597MOL0     H80533   4.232   3.433   7.106 -0.8814 -2.2204 -0.4257
  597MOL0     H80534   4.251   3.214   7.201  1.1145  0.5593 -0.4600
  597MOL0     H80535   4.346   3.284   7.333  1.4829  3.3786 -0.2868
  597MOL0     H80536   4.148   3.422   7.402 -1.3685  1.3968 -0.0227
  597MOL0     H80537   4.075   3.376   7.251  2.1822  0.4779 -1.4836
  597MOL0     H80538   3.971   3.264   7.453  1.1036  0.6903  2.1118
  597MOL0     H80539   4.025   3.144   7.334 -0.6629  3.0335 -2.2782
  597MOL0     H80540   4.220   3.095   7.485  1.2868  2.8262  1.5864
  597MOL0     H80541   4.154   3.208   7.599  2.8632  0.0310 -1.0614
  597MOL0     H80542   4.093   2.993   7.659  3.9991  0.9807 -1.7935
  597MOL0     H80543   3.943   3.078   7.607 -1.1983 -1.8021 -0.1480
  597MOL0     H80544   4.097   2.850   7.466 -0.7652 -1.3713  1.2646
  597MOL0     H80545   3.946   2.942   7.408 -0.7693 -1.1485  0.6488
  597MOL0     H80546   3.979   2.611   7.492  0.4746 -1.8608  0.8637
  597MOL0     H80547   3.826   2.438   7.560  0.5565  0.6995 -0.7146
  597MOL0     H80548   3.738   2.457   7.711  3.7651  2.8303  0.8534
  597MOL0     H80549   3.611   2.513   7.447 -4.2680 -1.0622 -1.4500
  597MOL0     H80550   3.525   2.516   7.597  0.8832  1.0585 -1.0145
  597MOL0     H80551   3.600   2.270   7.622  1.6712  1.6524  0.7449
  597MOL0     H80552   3.638   2.282   7.443  2.0515  0.4303  0.6870
  597MOL0     H80553   3.396   2.188   7.502 -1.6692  1.0628  0.8363
  597MOL0     H80554   3.408   2.314   7.382 -0.9026 -2.4020  0.4021
  597MOL0     H80555   3.205   2.191   7.415 -0.2748  0.7971 -0.1261
  597MOL0     H80556   2.891   2.049   7.459 -0.5642  0.3023  0.4935
  597MOL0     H80557   2.874   2.170   7.321  1.6215 -0.8190 -1.6243
  597MOL0     H80558   3.017   2.070   7.344  0.6054 -0.1413  2.3367
  597MOL0     H80559   2.552   2.244   7.754 -1.6670 -0.4177 -0.3006
  597MOL0     H80560   2.336   2.264   7.806 -4.1970 -0.5770 -1.6793
  597MOL0     H80561   2.103   2.590   7.663 -0.6838  0.1801 -0.3724
  597MOL0     H80562   2.029   2.496   7.543 -0.0876 -0.3807 -0.2554
  597MOL0     H80563   1.897   2.373   7.731  2.4225 -0.1430 -0.9852
  597MOL0     H80564   1.972   2.485   7.849  0.9893  1.5443  0.4283
  597MOL0     H80565   1.791   2.571   7.614 -2.5377  1.0559  0.0844
  597MOL0     H80566   1.869   2.681   7.734 -1.4931 -0.0909 -0.1061
  597MOL0     H80567   1.687   2.456   7.778  0.4734 -0.0607 -1.1861
  597MOL0     H80568   1.746   2.551   7.916 -2.8785 -2.9081  1.3302
  597MOL0     H80569   1.540   2.631   7.704  1.7987 -0.2554 -0.4917
  597MOL0     H80570   1.632   2.757   7.785  2.0064 -1.2115 -1.2429
  597MOL0     H80571   1.471   2.543   7.929 -1.9564  0.1705  2.7459
  597MOL0     H80572   1.567   2.671   8.015 -1.4497 -1.8819  1.8022
  597MOL0     H80573   1.324   2.704   7.837  3.2954 -1.1288 -2.2637
  597MOL0     H80574   1.410   2.838   7.916  2.2950 -0.3245  0.7484
  597MOL0     H80575   1.191   2.775   8.020  0.3131 -0.0568 -0.0137
  597MOL0     H80576   1.327   2.751   8.134  0.0064  1.3212  0.3004
  597MOL0     H80577   2.266   2.508   7.463  0.2404  1.3199  0.2006
  597MOL0     H80578   2.506   2.508   7.416 -1.3069  1.9418  0.5617
  597MOL0     H80579   2.915   2.488   7.695  0.7646  1.2830 -1.1417
  597MOL0     H80580   3.145   2.528   7.679  1.2191 -0.7900  0.5422
  597MOL0     H80581   4.591   3.615   6.875 -3.3294 -2.0088 -1.9447
  597MOL0     H80582   4.816   3.580   6.732  5.5822 -2.0112  0.3918
  597MOL0     H80583   5.232   3.117   6.615  2.0681 -1.4345  3.0927
  597MOL0     H80584   5.472   3.179   6.569  1.3708  0.8499  2.0175
  597MOL0     H80585   5.591   3.581   6.595 -0.0341 -0.1366  0.2936
  597MOL0     H80586   5.667   3.557   6.742  0.6870 -0.1293  0.1599
  597MOL0     H80587   5.805   3.633   6.542  0.0743 -0.4781 -1.2045
  597MOL0     H80588   5.766   3.473   6.464  0.7232 -2.9705  0.8432
  597MOL0     H80589   5.904   3.358   6.623 -0.1727 -0.1129 -1.0494
  597MOL0     H80590   5.908   3.500   6.731 -1.5736 -4.1477  1.9670
  597MOL0     H80591   6.111   3.448   6.593  0.7668 -1.7029 -4.0116
  597MOL0     H80592   6.050   3.615   6.584 -3.6044  0.2530  1.9650
  597MOL0     H80593   6.031   3.485   6.184  0.4355  1.1894  0.2327
  597MOL0     H80594   5.438   3.541   6.786  1.0750 -0.4592  0.2802
  597MOL0     H80595   5.193   3.492   6.824  3.2086  1.5003 -0.0477
  598MOL0     O80596   3.648   8.768   8.131 -0.5095  0.7858  0.0481
  598MOL0     C80597   3.635   8.805   8.013 -0.3387  0.4316  1.6528
  598MOL0     O80598   3.525   8.787   7.934  0.1660 -0.0425 -0.7125
  598MOL0     C80599   3.413   8.732   8.005  0.2801 -0.3406  0.1461
  598MOL0     C80600   3.418   8.612   8.077  0.3796 -0.2568 -0.1094
  598MOL0     C80601   3.306   8.579   8.147  0.6016  0.4794  0.3416
  598MOL0     C80602   3.184   8.652   8.136 -1.0962  0.2568  1.1266
  598MOL0     O80603   3.075   8.612   8.209 -0.0661 -0.1387 -0.2645
  598MOL0     C80604   3.023   8.491   8.170 -0.8924 -0.3306  0.6753
  598MOL0     C80605   2.887   8.449   8.228  0.5707 -0.4529 -0.7892
  598MOL0     C80606   2.888   8.415   8.383 -0.9931 -0.3281  0.1445
  598MOL0     C80607   2.755   8.354   8.435  0.1806 -0.4444 -0.4047
  598MOL0     C80608   2.649   8.473   8.437 -0.1653  1.7254 -0.1002
  598MOL0     C80609   2.500   8.426   8.463 -1.1705  0.7245  0.1161
  598MOL0     C80610   2.491   8.388   8.610 -0.5399 -0.1856 -0.1671
  598MOL0     C80611   2.355   8.359   8.656  0.2067  0.5456 -0.3777
  598MOL0     N80612   2.264   8.470   8.663  0.3220  0.2731  0.2907
  598MOL0     C80613   2.257   8.563   8.769  0.3328  0.2521  0.4057
  598MOL0     C80614   2.172   8.660   8.716 -0.4518 -0.1646  0.7660
  598MOL0     C80615   2.127   8.781   8.787  0.0972 -0.2197  0.1454
  598MOL0     C80616   1.989   8.758   8.838  0.7163 -0.0838  0.4159
  598MOL0     C80617   1.988   8.661   8.964 -0.0721  0.0895 -0.5766
  598MOL0     C80618   1.862   8.658   9.046  0.5780  0.4624 -0.0322
  598MOL0     O80619   1.750   8.597   8.969 -0.0265  0.3582  0.2935
  598MOL0     C80620   1.635   8.563   9.045 -0.0314  0.1965  0.2518
  598MOL0     C80621   1.532   8.517   8.959 -0.5957 -0.0574 -0.7194
  598MOL0     C80622   1.406   8.484   9.005  0.1204  0.8380  0.3389
  598MOL0     C80623   1.312   8.445   8.901  0.1319 -0.3209  0.7497
  598MOL0     C80624   1.364   8.504   9.137 -0.8285 -0.2056 -0.1032
  598MOL0     C80625   1.229   8.476   9.190  0.1012  0.3768  1.2987
  598MOL0     O80626   1.118   8.453   9.109 -0.1543 -0.5535 -0.4600
  598MOL0     C80627   0.994   8.429   9.166 -0.3731  0.0199  0.2029
  598MOL0     C80628   0.973   8.340   9.276  0.3453 -0.0481  0.9383
  598MOL0     C80629   0.837   8.327   9.323  0.3977 -0.9023 -0.1492
  598MOL0     C80630   0.732   8.395   9.256 -0.6116 -0.0946 -0.2542
  598MOL0     O80631   0.604   8.378   9.316 -0.4902  0.3891 -0.0727
  598MOL0     C80632   0.497   8.393   9.219  0.6898 -1.1713  0.3416
  598MOL0     C80633   0.386   8.303   9.264  0.6365  0.5520  0.2928
  598MOL0     C80634   0.281   8.263   9.164  0.7623  0.0212 -0.3636
  598MOL0     C80635   0.172   8.176   9.230  0.4122  0.4034 -0.4820
  598MOL0     C80636   0.083   8.108   9.128  0.0969 -0.4080  0.0110
  598MOL0     C80637  -0.005   8.213   9.052 -0.2269 -0.9833  0.4662
  598MOL0     C80638  -0.079   8.154   8.936 -0.1582 -0.3262 -0.0997
  598MOL0     C80639  -0.128   8.261   8.838  0.6987  1.0877  0.2018
  598MOL0    Cl80640  -0.211   8.200   8.693 -0.0039 -0.7581  0.3144
  598MOL0     C80641   0.760   8.476   9.147  0.1385 -0.5918  0.4031
  598MOL0     C80642   0.887   8.495   9.105 -0.1191 -0.1080 -0.3187
  598MOL0     O80643   1.225   8.470   9.311 -0.2392 -0.6635 -0.0824
  598MOL0     C80644   1.465   8.557   9.221 -0.2382 -0.1401  0.2276
  598MOL0     C80645   1.604   8.574   9.176 -0.1243  0.0986 -0.7380
  598MOL0     N80646   2.128   8.623   8.588 -0.7503 -0.2827  0.1154
  598MOL0     N80647   2.191   8.515   8.557 -0.4922  1.1549 -0.2504
  598MOL0     C80648   3.186   8.769   8.069 -0.1459 -0.2024  1.0305
  598MOL0     C80649   3.301   8.805   8.003  0.5277 -0.9957 -0.3147
  598MOL0     C80650   3.755   8.845   7.934  0.3127 -0.0534  0.5947
  598MOL0     C80651   3.761   8.870   7.790  0.6744 -1.0108 -0.0299
  598MOL0     C80652   3.883   8.899   7.732 -0.2051  0.2506  0.0913
  598MOL0     C80653   4.010   8.890   7.810  0.1856 -0.8763 -0.1353
  598MOL0     O80654   4.124   8.927   7.737 -0.9132 -0.3543 -0.1006
  598MOL0     C80655   4.246   8.964   7.809 -0.4576 -0.7073  0.2541
  598MOL0     C80656   4.335   8.849   7.831  0.3304  0.4435 -0.3284
  598MOL0     C80657   4.476   8.901   7.835  0.7061  0.9487 -0.6415
  598MOL0     C80658   4.569   8.796   7.909  0.1763 -1.0246  0.7612
  598MOL0     C80659   4.709   8.834   7.893  0.1746 -0.5969  0.8725
  598MOL0     C80660   4.830   8.873   7.884  0.1975 -1.1324 -0.2914
  598MOL0     C80661   4.005   8.861   7.945  0.5390 -0.7635  0.1300
  598MOL0     C80662   3.874   8.850   8.007  0.1941 -0.6950 -0.5092
  598MOL0     H80663   3.512   8.558   8.080  1.3388  1.3392 -0.4604
  598MOL0     H80664   3.304   8.483   8.198 -2.7759  0.7409  0.9117
  598MOL0     H80665   3.012   8.501   8.061 -1.2419 -0.5988  0.6832
  598MOL0     H80666   3.098   8.413   8.186 -0.3631 -0.1377 -0.6779
  598MOL0     H80667   2.807   8.523   8.213 -0.0056  0.3257  4.1401
  598MOL0     H80668   2.858   8.350   8.193 -0.4870 -0.3802 -0.1688
  598MOL0     H80669   2.971   8.347   8.403  0.0783  1.0092  0.4221
  598MOL0     H80670   2.903   8.506   8.441 -3.6600 -0.6989  1.5871
  598MOL0     H80671   2.724   8.271   8.371 -1.5327 -1.1346  1.2209
  598MOL0     H80672   2.793   8.313   8.529  2.6017  0.5161 -0.8684
  598MOL0     H80673   2.690   8.552   8.499  0.1792 -0.5559  2.7873
  598MOL0     H80674   2.635   8.501   8.332 -1.9681 -0.4067 -0.5115
  598MOL0     H80675   2.442   8.516   8.443  0.4629  1.3821 -1.9427
  598MOL0     H80676   2.467   8.347   8.396 -2.3255 -0.5285  2.0505
  598MOL0     H80677   2.549   8.298   8.634 -1.1711 -0.9734 -1.5054
  598MOL0     H80678   2.538   8.463   8.675  2.9881 -0.5058 -2.0737
  598MOL0     H80679   2.354   8.312   8.754 -0.6359 -1.0749 -1.1206
  598MOL0     H80680   2.309   8.283   8.592 -0.1844 -0.2116  0.7736
  598MOL0     H80681   2.306   8.561   8.866 -2.1034 -0.0696  1.7117
  598MOL0     H80682   2.206   8.805   8.859  0.0140 -0.6734  0.3966
  598MOL0     H80683   2.116   8.862   8.715 -1.8179  0.5331  1.2053
  598MOL0     H80684   1.925   8.726   8.755  2.3677  0.0763 -0.9857
  598MOL0     H80685   1.958   8.855   8.877 -0.3971 -0.9107  1.6888
  598MOL0     H80686   2.061   8.703   9.034  0.7970 -0.9019 -0.8688
  598MOL0     H80687   2.024   8.562   8.937  5.4034  2.3340 -2.9083
  598MOL0     H80688   1.846   8.760   9.082  2.9875  0.6096  0.8142
  598MOL0     H80689   1.881   8.605   9.139  4.0789 -0.0746 -0.9150
  598MOL0     H80690   1.558   8.507   8.854 -0.5749 -0.1211 -0.7080
  598MOL0     H80691   1.219   8.502   8.911  1.0203  1.2702  0.2281
  598MOL0     H80692   1.338   8.458   8.796 -3.2217 -0.3044 -0.2099
  598MOL0     H80693   1.294   8.337   8.912  0.7151 -0.3898  1.0542
  598MOL0     H80694   1.051   8.281   9.323 -0.3539 -2.2546 -0.5578
  598MOL0     H80695   0.824   8.264   9.411  1.5030 -0.5034  0.3166
  598MOL0     H80696   0.466   8.498   9.216  0.0817 -1.2788 -3.8541
  598MOL0     H80697   0.539   8.369   9.120  0.3054  1.3094 -0.4988
  598MOL0     H80698   0.429   8.213   9.309  0.7361  0.0032 -0.8535
  598MOL0     H80699   0.321   8.348   9.339 -1.7894 -1.8847 -0.1671
  598MOL0     H80700   0.324   8.195   9.090 -1.1049 -0.9323 -0.6350
  598MOL0     H80701   0.231   8.349   9.118 -2.0345 -0.1879  2.0101
  598MOL0     H80702   0.221   8.105   9.298  1.1809  0.9498 -0.4558
  598MOL0     H80703   0.103   8.239   9.285  0.2005  2.3846 -2.8558
  598MOL0     H80704   0.008   8.038   9.164 -1.7870  1.1692 -0.6898
  598MOL0     H80705   0.148   8.063   9.052  0.9510  2.1035 -0.8510
  598MOL0     H80706  -0.077   8.254   9.124 -1.1637 -2.0938  0.2033
  598MOL0     H80707   0.064   8.285   9.008 -0.8411 -1.7068 -1.8205
  598MOL0     H80708  -0.164   8.097   8.975  0.4849  0.2727  2.2890
  598MOL0     H80709  -0.017   8.088   8.875 -1.2902  0.6400 -2.4612
  598MOL0     H80710  -0.042   8.328   8.824  1.6351 -0.0987  0.1310
  598MOL0     H80711  -0.197   8.314   8.904  0.1192  0.5172  0.0554
  598MOL0     H80712   0.675   8.531   9.109  1.1130  0.9361  0.3646
  598MOL0     H80713   0.909   8.557   9.019  1.9322 -0.6414 -0.2274
  598MOL0     H80714   1.437   8.594   9.319  0.9077 -1.1344  0.9584
  598MOL0     H80715   1.674   8.614   9.248 -1.0087 -2.0725  1.4719
  598MOL0     H80716   3.098   8.832   8.067  0.4382  0.6267 -0.0611
  598MOL0     H80717   3.289   8.900   7.951  0.7112  0.6763  2.4776
  598MOL0     H80718   3.670   8.871   7.730  2.3307  0.1775 -2.7183
  598MOL0     H80719   3.880   8.923   7.626  0.6001  2.3191  0.5021
  598MOL0     H80720   4.303   9.040   7.756 -0.4931  1.3337  2.9116
  598MOL0     H80721   4.230   9.010   7.907 -0.1184 -0.4657  0.1934
  598MOL0     H80722   4.322   8.782   7.745 -0.7949 -0.9653  0.8870
  598MOL0     H80723   4.310   8.794   7.921 -0.3546  1.0445 -0.1418
  598MOL0     H80724   4.482   9.005   7.868  0.7345  1.6249 -2.6244
  598MOL0     H80725   4.524   8.895   7.737 -0.8088 -2.1410 -1.3167
  598MOL0     H80726   4.543   8.699   7.865 -1.3228 -0.8967  1.3028
  598MOL0     H80727   4.539   8.804   8.013 -2.7310 -3.0356  0.1898
  598MOL0     H80728   4.930   8.910   7.895 -0.5651  0.3750  2.7095
  598MOL0     H80729   4.099   8.856   7.999 -1.8467  1.1217  5.0617
  598MOL0     H80730   3.872   8.827   8.113 -1.4636 -0.8194 -0.5347
  599MOL0     O80731  10.318   9.995  10.359 -0.3282 -0.0191  0.1224
  599MOL0     C80732  10.392  10.074  10.298  0.3984 -0.5419  0.2867
  599MOL0     O80733  10.349  10.148  10.190  0.7248 -0.5602 -0.2726
  599MOL0     C80734  10.213  10.157  10.165  1.2090 -0.3338  0.1987
  599MOL0     C80735  10.121  10.053  10.164  0.3296  0.1877 -0.5682
  599MOL0     C80736   9.985  10.067  10.143  0.2655 -0.0286 -0.0967
  599MOL0     C80737   9.940  10.182  10.085  0.3754  0.1677  0.4903
  599MOL0     O80738   9.813  10.178  10.028 -0.4373  0.1258  0.4225
  599MOL0     C80739   9.726  10.289  10.060  0.2291 -0.5373  0.8026
  599MOL0     C80740   9.587  10.259  10.005  0.6205  0.5885  0.5299
  599MOL0     C80741   9.514  10.149  10.084  0.1645  0.3205 -0.6628
  599MOL0     C80742   9.463  10.209  10.213 -0.2226 -0.1667  0.4534
  599MOL0     C80743   9.391  10.113  10.301  0.2681 -0.3765 -0.0486
  599MOL0     C80744   9.242  10.131  10.288  0.2686 -1.0683  0.0247
  599MOL0     C80745   9.167  10.020  10.359 -0.4780  0.5634  0.2042
  599MOL0     C80746   9.025  10.012  10.309 -0.3802 -0.2574  0.9980
  599MOL0     N80747   8.958   9.896  10.378 -0.7556 -0.4336  0.1693
  599MOL0     C80748   8.913   9.889  10.507  1.0888 -0.0600 -0.4897
  599MOL0     C80749   8.857   9.768  10.516  0.1617 -0.4499  0.3771
  599MOL0     C80750   8.782   9.717  10.636 -1.3690 -0.6858  0.2374
  599MOL0     C80751   8.643   9.680  10.616 -0.0188  0.2586 -0.5563
  599MOL0     C80752   8.561   9.785  10.566  1.1498  0.4933  0.6628
  599MOL0     C80753   8.414   9.719  10.551  0.4557 -0.2059  0.2904
  599MOL0     O80754   8.352   9.686  10.669 -0.4589  0.3153 -0.2920
  599MOL0     C80755   8.216   9.684  10.680  1.2061 -0.3805  0.0808
  599MOL0     C80756   8.139   9.645  10.577  0.7750 -0.3912 -0.2188
  599MOL0     C80757   8.006   9.652  10.584  0.0917  0.1670  0.1309
  599MOL0     C80758   7.933   9.598  10.473  0.1721 -0.3414 -0.6850
  599MOL0     C80759   7.944   9.695  10.706 -0.4346  0.8841 -0.1543
  599MOL0     C80760   7.800   9.704  10.712 -0.0235 -0.1689  0.1868
  599MOL0     O80761   7.728   9.753  10.606 -0.1284  1.0350 -0.0850
  599MOL0     C80762   7.588   9.761  10.598 -0.4894 -0.5327  0.4550
  599MOL0     C80763   7.519   9.639  10.614 -0.2307 -0.6093 -0.4674
  599MOL0     C80764   7.377   9.650  10.639 -0.4872 -0.2159 -0.3885
  599MOL0     C80765   7.303   9.768  10.659 -0.1147 -0.4078 -0.1472
  599MOL0     O80766   7.176   9.792  10.687  0.5683  0.1312 -0.1410
  599MOL0     C80767   7.087   9.693  10.742 -0.5168 -0.6259  0.0849
  599MOL0     C80768   6.953   9.751  10.744  0.0749 -1.0166  0.3174
  599MOL0     C80769   6.837   9.651  10.770  0.4118 -0.2064 -0.2552
  599MOL0     C80770   6.711   9.714  10.832  0.9618  0.0313 -0.1797
  599MOL0     C80771   6.593   9.626  10.797  0.7027 -0.2387  0.8880
  599MOL0     C80772   6.464   9.667  10.875 -0.1429  0.9371 -0.7710
  599MOL0     C80773   6.347   9.573  10.872  1.3148  0.4102  0.0336
  599MOL0     C80774   6.353   9.464  10.971 -0.1574  0.5320  0.0865
  599MOL0    Cl80775   6.192   9.366  10.965 -0.0835  0.4084  0.1949
  599MOL0     C80776   7.378   9.883  10.636  0.4209 -0.2469  0.4588
  599MOL0     C80777   7.523   9.887  10.601  0.3537  0.6262  1.4396
  599MOL0     O80778   7.748   9.684  10.819 -0.5910 -0.5825 -0.4818
  599MOL0     C80779   8.026   9.721  10.818 -1.3197  0.4809  0.1332
  599MOL0     C80780   8.169   9.720  10.803  0.6619 -1.1768 -0.0983
  599MOL0     N80781   8.868   9.703  10.396 -0.5350 -0.2551  0.1655
  599MOL0     N80782   8.939   9.778  10.317 -0.1801 -0.0913 -0.7714
  599MOL0     C80783  10.026  10.287  10.070  0.1243  0.2206 -0.4830
  599MOL0     C80784  10.162  10.278  10.117 -0.2948  0.1716  0.2789
  599MOL0     C80785  10.532  10.076  10.334 -0.2784 -0.0900 -0.4780
  599MOL0     C80786  10.624  10.146  10.257 -0.6021  0.7134  0.5622
  599MOL0     C80787  10.763  10.133  10.284 -0.1839 -0.2768 -0.6595
  599MOL0     C80788  10.812  10.050  10.379  0.5273 -0.1192  0.3871
  599MOL0     O80789  10.943  10.038  10.398  0.0761  0.0810 -0.4692
  599MOL0     C80790  10.988   9.909  10.361 -0.3041  0.5814 -0.0625
  599MOL0     C80791  11.140   9.917  10.332  0.0885  0.0518  0.0133
  599MOL0     C80792  11.218   9.956  10.461 -0.7274 -0.3568  0.1776
  599MOL0     C80793  11.216   9.843  10.565 -0.0810 -0.1570 -0.5237
  599MOL0     C80794  11.299   9.883  10.679  0.5910 -0.3633  0.4317
  599MOL0     C80795  11.362   9.924  10.777 -0.0993 -0.2677 -0.2165
  599MOL0     C80796  10.716  10.000  10.476  0.2646 -0.4835  0.7751
  599MOL0     C80797  10.580  10.005  10.443  1.0828 -0.0004  0.5732
  599MOL0     H80798  10.167   9.956  10.178 -0.1028  0.1363  0.5619
  599MOL0     H80799   9.916   9.985  10.162  1.1238 -0.2445  2.3604
  599MOL0     H80800   9.725  10.311  10.167 -0.2103 -0.4467  0.7783
  599MOL0     H80801   9.760  10.374  10.001  0.9821 -0.0836  1.8533
  599MOL0     H80802   9.528  10.350   9.989  2.9888  2.2990  0.9943
  599MOL0     H80803   9.606  10.227   9.902 -0.8400 -1.9563  0.9440
  599MOL0     H80804   9.430  10.119  10.022  3.0601 -2.5863 -3.6411
  599MOL0     H80805   9.584  10.067  10.102  1.8776  1.6272 -1.1115
  599MOL0     H80806   9.555  10.249  10.256 -0.1326  2.3940 -1.8699
  599MOL0     H80807   9.398  10.294  10.193 -0.6738 -0.1168  2.0321
  599MOL0     H80808   9.429  10.014  10.273 -1.9303 -1.2424 -0.1572
  599MOL0     H80809   9.414  10.145  10.403 -0.8504  0.2422  0.0183
  599MOL0     H80810   9.206  10.229  10.321  1.1942 -0.1692 -1.5555
  599MOL0     H80811   9.212  10.132  10.183 -0.2848 -0.0600  0.1859
  599MOL0     H80812   9.211   9.924  10.333  3.2809  2.7386 -2.5448
  599MOL0     H80813   9.171  10.029  10.468 -0.4170  2.0330  0.1034
  599MOL0     H80814   9.022  10.007  10.200  2.8882 -0.2862  0.8228
  599MOL0     H80815   8.968  10.104  10.325 -0.2315  0.8645 -3.5752
  599MOL0     H80816   8.913   9.974  10.574 -0.3037  0.5715 -1.2444
  599MOL0     H80817   8.825   9.622  10.669 -0.2916 -0.7528 -1.2456
  599MOL0     H80818   8.785   9.793  10.714 -0.1519 -0.0027 -0.4458
  599MOL0     H80819   8.607   9.650  10.714  0.9691  1.1534  0.1016
  599MOL0     H80820   8.647   9.597  10.545 -2.8086  0.1065 -0.6504
  599MOL0     H80821   8.609   9.835  10.481  0.3163  0.6147  0.2540
  599MOL0     H80822   8.548   9.870  10.632 -0.5321 -0.2933  1.3934
  599MOL0     H80823   8.416   9.626  10.492  1.0165 -1.3675  2.0694
  599MOL0     H80824   8.345   9.794  10.513 -2.9771 -2.1392  2.2482
  599MOL0     H80825   8.183   9.609  10.484 -1.1466 -1.3827 -0.8156
  599MOL0     H80826   7.974   9.509  10.423  2.0612  0.1811 -0.1490
  599MOL0     H80827   7.833   9.568  10.505  0.3730 -1.3994 -0.9991
  599MOL0     H80828   7.922   9.681  10.403 -5.0473 -0.8100 -0.7831
  599MOL0     H80829   7.564   9.541  10.609 -0.3610 -0.6305 -1.5020
  599MOL0     H80830   7.331   9.552  10.645 -0.0598 -0.4919 -1.3476
  599MOL0     H80831   7.095   9.607  10.675 -2.7991  0.8498 -2.2814
  599MOL0     H80832   7.134   9.668  10.838  1.7552 -1.5305 -1.1867
  599MOL0     H80833   6.952   9.819  10.829  2.4713 -3.6110  2.6221
  599MOL0     H80834   6.934   9.799  10.648  1.2533 -1.2496 -0.0518
  599MOL0     H80835   6.868   9.576  10.844 -0.7831 -1.3482 -0.8517
  599MOL0     H80836   6.807   9.609  10.674 -0.9912  2.3795 -1.0405
  599MOL0     H80837   6.728   9.738  10.938  2.0567  3.3026 -0.9672
  599MOL0     H80838   6.695   9.815  10.794 -0.7073 -0.5410 -1.1379
  599MOL0     H80839   6.615   9.519  10.807  0.9757 -0.3745 -0.8442
  599MOL0     H80840   6.561   9.640  10.693 -0.8799  1.1931  1.5287
  599MOL0     H80841   6.500   9.667  10.979 -3.9819  0.8000  0.7080
  599MOL0     H80842   6.433   9.770  10.854  0.4656  0.7920 -2.4852
  599MOL0     H80843   6.325   9.538  10.770  0.4331  0.6167  0.1466
  599MOL0     H80844   6.258   9.637  10.880 -0.2102 -1.4674 -1.0037
  599MOL0     H80845   6.362   9.500  11.073 -1.2888  1.2158 -0.0379
  599MOL0     H80846   6.428   9.386  10.955  0.7204  1.0870  1.3412
  599MOL0     H80847   7.327   9.978  10.648 -1.2440 -1.0093 -0.3224
  599MOL0     H80848   7.588   9.973  10.584  1.9464 -1.0251 -1.5910
  599MOL0     H80849   7.993   9.750  10.917 -0.4062  0.5872  0.4169
  599MOL0     H80850   8.217   9.750  10.896 -2.7291  3.2775  0.5637
  599MOL0     H80851  10.003  10.379  10.018 -1.8261  0.1785  0.2375
  599MOL0     H80852  10.232  10.361  10.128  0.8164 -0.8757  1.4739
  599MOL0     H80853  10.588  10.202  10.171  0.3835  2.3158  1.1493
  599MOL0     H80854  10.833  10.185  10.218 -0.4328  1.6194  0.4994
  599MOL0     H80855  10.976   9.840  10.445  0.1154  0.8564  0.2292
  599MOL0     H80856  10.938   9.861  10.276 -0.3802 -2.9178  1.7589
  599MOL0     H80857  11.140  10.000  10.261 -1.4924  0.6779  0.6951
  599MOL0     H80858  11.178   9.827  10.283 -0.4125 -0.1068 -0.0923
  599MOL0     H80859  11.189  10.056  10.492  0.6442  0.4274 -0.9693
  599MOL0     H80860  11.322   9.978  10.437 -1.4532  1.5460 -1.5022
  599MOL0     H80861  11.245   9.747  10.522 -1.0353 -0.8008  0.2311
  599MOL0     H80862  11.119   9.818  10.611  0.7994  0.0660  1.5804
  599MOL0     H80863  11.418   9.971  10.856  0.0537 -0.1926 -0.3696
  599MOL0     H80864  10.759   9.961  10.568  0.0074  1.3615  1.7224
  599MOL0     H80865  10.506   9.967  10.513 -2.8482 -0.3379 -3.3337
  600MOL0     O80866  10.203  10.989   3.852 -0.4987  0.1236  0.3473
  600MOL0     C80867  10.278  11.090   3.839 -0.4118 -0.1761  0.4309
  600MOL0     O80868  10.245  11.206   3.782  0.1014  0.0403  0.0577
  600MOL0     C80869  10.117  11.223   3.741 -0.1539  1.2531 -0.2177
  600MOL0     C80870  10.030  11.128   3.692  0.5603  0.2314  0.0449
  600MOL0     C80871   9.897  11.165   3.662  0.5741 -0.3351 -0.5589
  600MOL0     C80872   9.845  11.292   3.681  0.4501  0.0894 -0.0722
  600MOL0     O80873   9.713  11.332   3.665  0.4842 -0.0696 -0.1667
  600MOL0     C80874   9.612  11.249   3.726 -0.5289  0.0285  0.1750
  600MOL0     C80875   9.550  11.143   3.628 -0.7059 -0.3145  0.1779
  600MOL0     C80876   9.403  11.115   3.641  0.8061  0.6600 -0.1328
  600MOL0     C80877   9.351  11.032   3.521 -0.3602 -0.6510  0.3558
  600MOL0     C80878   9.203  11.054   3.506  0.1720 -0.1521 -0.9617
  600MOL0     C80879   9.173  11.013   3.360  0.2907 -0.6127  0.4312
  600MOL0     C80880   9.020  11.001   3.345 -0.9705  0.7325 -0.2762
  600MOL0     C80881   8.951  11.134   3.359  0.3481 -0.1102  0.8103
  600MOL0     N80882   8.802  11.115   3.336  0.7250  0.6159  0.5386
  600MOL0     C80883   8.734  11.046   3.235 -0.3959  0.0322  0.2279
  600MOL0     C80884   8.614  11.019   3.295  0.2335  0.1558  0.1845
  600MOL0     C80885   8.515  10.931   3.224  0.6068  0.7061 -0.1084
  600MOL0     C80886   8.450  10.992   3.103  0.2636 -0.5448  0.8993
  600MOL0     C80887   8.392  11.133   3.117 -0.1350  0.2831 -0.4818
  600MOL0     C80888   8.274  11.151   3.025  1.0095 -0.0615  0.0549
  600MOL0     O80889   8.163  11.076   3.071 -0.2188 -0.5845  0.9048
  600MOL0     C80890   8.042  11.092   3.005  0.3977  1.1627  0.2384
  600MOL0     C80891   7.928  11.020   3.053 -0.8451 -0.3989  0.4980
  600MOL0     C80892   7.810  11.017   2.980 -0.3744  0.1527 -0.3600
  600MOL0     C80893   7.710  10.914   3.028 -0.5830  0.0995  0.4982
  600MOL0     C80894   7.797  11.091   2.861 -0.1103  0.0096  0.7125
  600MOL0     C80895   7.677  11.107   2.781  0.0278 -0.1466  0.3089
  600MOL0     O80896   7.696  11.141   2.658 -0.5253  0.1891 -0.0140
  600MOL0     C80897   7.589  11.204   2.592  0.2512 -0.1093  0.4098
  600MOL0     C80898   7.507  11.302   2.652 -0.0343 -0.4736  0.5743
  600MOL0     C80899   7.396  11.358   2.572 -1.1939 -0.0709 -1.0298
  600MOL0     C80900   7.374  11.314   2.443 -0.8899  0.8740 -0.5319
  600MOL0     O80901   7.272  11.377   2.376  0.3765  0.0603 -0.0757
  600MOL0     C80902   7.290  11.393   2.229 -0.5674  0.0928 -1.3528
  600MOL0     C80903   7.434  11.452   2.198  0.2556  0.9476 -0.4407
  600MOL0     C80904   7.455  11.450   2.047  0.2032  1.2648 -0.3793
  600MOL0     C80905   7.595  11.496   2.009  0.7034  1.1053 -0.2220
  600MOL0     C80906   7.622  11.464   1.855  0.2790 -0.8282  1.0394
  600MOL0     C80907   7.748  11.526   1.810  0.5983 -0.8830 -0.4642
  600MOL0     C80908   7.770  11.673   1.817  0.1029  0.1051  0.3734
  600MOL0     C80909   7.657  11.765   1.754  0.2102  0.5178 -0.0931
  600MOL0    Cl80910   7.676  11.928   1.812 -0.2280 -0.2745  0.1100
  600MOL0     C80911   7.456  11.216   2.392 -0.5340  0.0557 -0.4590
  600MOL0     C80912   7.564  11.169   2.462 -0.8019  0.4943  0.4021
  600MOL0     O80913   7.571  11.060   2.820  0.4696  0.1675  0.0277
  600MOL0     C80914   7.907  11.173   2.827  0.4539  0.3088 -0.4808
  600MOL0     C80915   8.031  11.171   2.892  0.4049  0.7245 -0.2012
  600MOL0     N80916   8.604  11.078   3.417 -0.3540 -0.8481 -0.1766
  600MOL0     N80917   8.716  11.138   3.443  0.5424  0.1677 -0.0175
  600MOL0     C80918   9.938  11.385   3.729  0.2205  0.0763 -0.2146
  600MOL0     C80919  10.076  11.357   3.746  1.0899  0.2524  0.8884
  600MOL0     C80920  10.422  11.082   3.877  0.6312 -0.4891 -0.6874
  600MOL0     C80921  10.495  10.965   3.864  0.9569  0.1286  0.7631
  600MOL0     C80922  10.620  10.950   3.919  0.1159 -0.8568 -0.9772
  600MOL0     C80923  10.677  11.056   3.980 -0.4174 -0.0810  0.4072
  600MOL0     O80924  10.798  11.043   4.033 -0.2251  0.5188 -1.1503
  600MOL0     C80925  10.904  11.130   4.013 -0.4523 -0.1367  0.3149
  600MOL0     C80926  10.999  11.112   4.129 -0.0731 -0.8263 -0.8720
  600MOL0     C80927  11.051  10.963   4.149  0.0354 -0.3487 -0.1712
  600MOL0     C80928  11.144  10.936   4.272  0.7688  0.4661  0.5385
  600MOL0     C80929  11.259  10.852   4.228  0.0533 -0.1590 -0.1057
  600MOL0     C80930  11.361  10.783   4.206  0.8718  0.1761 -0.3632
  600MOL0     C80931  10.608  11.182   3.975  0.3968  0.6319  0.0790
  600MOL0     C80932  10.478  11.194   3.931 -0.0983  0.1980 -0.6091
  600MOL0     H80933  10.054  11.022   3.681 -0.0555 -0.2114  2.4740
  600MOL0     H80934   9.825  11.092   3.626 -3.1012  1.6140  2.2306
  600MOL0     H80935   9.644  11.209   3.823 -2.0496  1.2737  1.2303
  600MOL0     H80936   9.528  11.316   3.747 -0.2413  0.6966 -0.7794
  600MOL0     H80937   9.556  11.195   3.531 -4.2430  0.6046  0.3021
  600MOL0     H80938   9.609  11.052   3.639  0.3432  0.2507 -0.5969
  600MOL0     H80939   9.384  11.057   3.732 -0.2395 -0.3567 -0.9627
  600MOL0     H80940   9.344  11.205   3.655 -2.2115 -1.5442  2.8079
  600MOL0     H80941   9.403  11.068   3.432 -0.3019 -1.2228  0.1555
  600MOL0     H80942   9.379  10.927   3.530  0.5646 -0.2853  2.2405
  600MOL0     H80943   9.140  10.989   3.567  0.5730 -1.3269 -1.7568
  600MOL0     H80944   9.176  11.156   3.533 -0.3858 -0.9969  2.0261
  600MOL0     H80945   9.210  11.089   3.291 -0.7394  1.1612  1.7700
  600MOL0     H80946   9.209  10.911   3.343  2.0843 -0.3988  2.5189
  600MOL0     H80947   8.999  10.961   3.245 -0.3769 -1.2299  0.3391
  600MOL0     H80948   8.982  10.930   3.418 -2.8864 -0.2786 -2.1396
  600MOL0     H80949   8.987  11.196   3.277 -1.7403 -0.9653 -0.8216
  600MOL0     H80950   8.964  11.174   3.461  2.2230 -0.1634  0.6271
  600MOL0     H80951   8.775  11.004   3.144  1.7141  3.5923 -0.6375
  600MOL0     H80952   8.574  10.847   3.186 -1.9370 -1.0626 -0.3574
  600MOL0     H80953   8.437  10.899   3.293  1.2926  1.9888  1.3236
  600MOL0     H80954   8.375  10.928   3.056  1.2802 -0.2108 -1.2992
  600MOL0     H80955   8.530  11.001   3.029  0.3261 -1.0673  0.9000
  600MOL0     H80956   8.469  11.208   3.095 -0.4565  1.4980  2.1557
  600MOL0     H80957   8.367  11.149   3.222  0.0234 -2.9212  0.1677
  600MOL0     H80958   8.294  11.105   2.928  2.9002 -0.9254  0.7908
  600MOL0     H80959   8.243  11.255   3.012 -1.6395 -0.6774  0.8735
  600MOL0     H80960   7.945  10.959   3.142  0.5913 -0.4964  0.1784
  600MOL0     H80961   7.692  10.847   2.943 -0.1493  0.6814 -0.0606
  600MOL0     H80962   7.746  10.846   3.106 -1.3746 -0.3173  0.5116
  600MOL0     H80963   7.621  10.964   3.068 -0.9503 -0.4784  0.4216
  600MOL0     H80964   7.533  11.349   2.746  0.2977  1.0960 -0.2747
  600MOL0     H80965   7.333  11.430   2.623  1.9572  1.1301  1.5458
  600MOL0     H80966   7.280  11.296   2.180 -0.0106 -0.0980 -1.0846
  600MOL0     H80967   7.210  11.456   2.188 -1.5267  0.4226  0.8924
  600MOL0     H80968   7.435  11.555   2.233 -1.5940  1.3555 -1.4559
  600MOL0     H80969   7.520  11.398   2.240 -0.9157 -2.5069 -2.0379
  600MOL0     H80970   7.384  11.518   1.999 -2.8270 -0.9111  0.7249
  600MOL0     H80971   7.434  11.354   1.999  0.3090  1.4452 -0.7923
  600MOL0     H80972   7.602  11.602   2.034 -0.2358  1.2400 -0.5113
  600MOL0     H80973   7.665  11.435   2.068  0.5380 -1.1559 -2.1867
  600MOL0     H80974   7.541  11.499   1.791  0.2785 -1.8368  0.4742
  600MOL0     H80975   7.624  11.356   1.841 -0.1302 -0.4362 -3.3744
  600MOL0     H80976   7.830  11.490   1.874  1.7931  0.6509 -1.0665
  600MOL0     H80977   7.761  11.500   1.705  2.0163  1.9160 -1.0595
  600MOL0     H80978   7.859  11.689   1.755  0.6016  0.4842  1.1782
  600MOL0     H80979   7.797  11.707   1.917 -0.4012  1.9024 -0.0485
  600MOL0     H80980   7.555  11.733   1.777 -0.2014  1.8729  0.0299
  600MOL0     H80981   7.666  11.767   1.645  0.1058 -0.5507 -0.1318
  600MOL0     H80982   7.433  11.189   2.290 -2.7531 -0.5299  0.1403
  600MOL0     H80983   7.629  11.108   2.399 -1.0880 -0.9288  1.4352
  600MOL0     H80984   7.896  11.227   2.734 -1.1249 -1.1591 -1.2148
  600MOL0     H80985   8.109  11.236   2.855  0.9677  1.7133  2.5041
  600MOL0     H80986   9.922  11.492   3.741  2.2897  0.6637 -1.9362
  600MOL0     H80987  10.153  11.429   3.771  0.3525  0.9155  1.2889
  600MOL0     H80988  10.459  10.875   3.816 -0.0294  0.0774  1.5569
  600MOL0     H80989  10.667  10.852   3.925 -0.7805 -1.2059  0.8162
  600MOL0     H80990  10.945  11.111   3.914  2.2706  0.6686  1.1898
  600MOL0     H80991  10.879  11.237   4.010 -0.0218  0.1908  3.8742
  600MOL0     H80992  10.948  11.140   4.221  1.1638  0.6909 -0.6176
  600MOL0     H80993  11.080  11.184   4.120  1.1104 -2.0798 -0.6733
  600MOL0     H80994  11.106  10.942   4.056  1.8643  0.5021  0.6613
  600MOL0     H80995  10.972  10.888   4.146 -1.5901  1.2332  0.9741
  600MOL0     H80996  11.086  10.876   4.342  0.9740 -1.2209 -0.6691
  600MOL0     H80997  11.171  11.031   4.319 -1.9326  0.2635  2.7310
  600MOL0     H80998  11.447  10.726   4.178  0.4661 -0.7528  0.2287
  600MOL0     H80999  10.644  11.267   4.032  0.1955  1.1614 -0.5618
  600MOL0     H81000  10.432  11.292   3.940  3.6031  2.0277 -0.0049
  601MOL0     O81001   7.460   4.838   0.287 -0.2960  0.0701  0.6348
  601MOL0     C81002   7.503   4.787   0.386 -0.3884 -1.5069 -0.0230
  601MOL0     O81003   7.448   4.798   0.513 -0.3304  0.0753 -0.0745
  601MOL0     C81004   7.334   4.869   0.533  0.1525 -0.1108 -0.3332
  601MOL0     C81005   7.338   5.007   0.535  0.0730  0.5216  0.3490
  601MOL0     C81006   7.214   5.073   0.545  0.0436 -0.1729  0.5617
  601MOL0     C81007   7.091   5.006   0.576  0.9362  0.6747  0.5069
  601MOL0     O81008   6.970   5.080   0.597  0.7377 -0.4144 -0.0324
  601MOL0     C81009   6.879   5.032   0.697  0.1923 -0.1107  0.6868
  601MOL0     C81010   6.776   5.142   0.686  0.7829 -0.5384 -0.0974
  601MOL0     C81011   6.637   5.090   0.721  0.2252 -0.6052 -0.8362
  601MOL0     C81012   6.528   5.199   0.741  0.0132 -0.7245 -0.2426
  601MOL0     C81013   6.396   5.152   0.793 -0.8765 -0.1128  0.7000
  601MOL0     C81014   6.404   5.124   0.942 -0.5959 -0.2724 -0.0034
  601MOL0     C81015   6.266   5.086   1.005 -0.4667 -0.2427  0.5801
  601MOL0     C81016   6.199   4.954   0.951 -0.8119 -0.0180 -0.3720
  601MOL0     N81017   6.070   4.932   1.017 -0.4139 -0.7169  0.3862
  601MOL0     C81018   5.955   5.002   1.004  0.4519  0.2876  0.2143
  601MOL0     C81019   5.853   4.940   1.066 -0.0810 -0.0562  0.2743
  601MOL0     C81020   5.708   4.992   1.076 -0.8880 -0.9347  0.4486
  601MOL0     C81021   5.699   5.114   1.166 -0.1715 -0.2693  0.7388
  601MOL0     C81022   5.544   5.147   1.179  0.1497 -0.3770  0.9132
  601MOL0     C81023   5.511   5.257   1.276  0.2095 -0.3564  0.2989
  601MOL0     O81024   5.377   5.306   1.260 -0.4262  0.1639  0.0495
  601MOL0     C81025   5.273   5.233   1.321 -0.0968  0.2266 -0.3209
  601MOL0     C81026   5.283   5.164   1.443 -0.3489  1.3625  0.2090
  601MOL0     C81027   5.177   5.089   1.499  0.3629 -0.4612 -0.1056
  601MOL0     C81028   5.214   5.003   1.619 -0.4531  0.1831  0.0047
  601MOL0     C81029   5.051   5.092   1.440 -0.0880 -0.4609 -0.2691
  601MOL0     C81030   4.925   5.019   1.487  0.9451  0.0468  0.1990
  601MOL0     O81031   4.906   4.999   1.628 -0.0517 -0.1259 -0.0860
  601MOL0     C81032   4.786   4.970   1.685  0.9990 -0.5492 -0.3567
  601MOL0     C81033   4.768   4.865   1.771 -0.3317  0.1983  0.5255
  601MOL0     C81034   4.651   4.834   1.825  0.1864 -0.8535  0.3617
  601MOL0     C81035   4.537   4.922   1.802  0.2909  0.7495  0.6669
  601MOL0     O81036   4.424   4.894   1.869 -0.3220  0.2038  0.7761
  601MOL0     C81037   4.299   4.946   1.813  0.2145 -0.0915  0.1116
  601MOL0     C81038   4.174   4.895   1.884  0.4262 -0.8983  0.0060
  601MOL0     C81039   4.050   4.985   1.855  0.2039  0.2856 -0.0595
  601MOL0     C81040   3.916   4.940   1.941  0.6333 -0.2125  0.2509
  601MOL0     C81041   3.789   5.032   1.938  0.7446 -0.4443 -0.7266
  601MOL0     C81042   3.673   4.986   2.027  0.6337 -0.5173  0.4132
  601MOL0     C81043   3.558   5.079   2.003  0.5495  0.5203 -0.0807
  601MOL0     C81044   3.452   5.045   2.115  0.0465  0.4893 -0.6414
  601MOL0    Cl81045   3.337   5.185   2.115 -0.2286  0.1371  0.2196
  601MOL0     C81046   4.550   5.027   1.706 -0.0153 -0.0004 -1.2215
  601MOL0     C81047   4.676   5.049   1.650  0.4573 -0.7938  0.0880
  601MOL0     O81048   4.836   4.995   1.407  0.3005  0.4584 -0.0978
  601MOL0     C81049   5.042   5.164   1.320 -0.1839  0.1378  0.5032
  601MOL0     C81050   5.151   5.227   1.258  0.0086 -0.3002  0.2055
  601MOL0     N81051   5.911   4.817   1.114 -0.5294  0.4031 -0.7551
  601MOL0     N81052   6.041   4.825   1.085  0.6622 -0.4500  0.3203
  601MOL0     C81053   7.097   4.864   0.558 -0.4139 -0.3748  0.5092
  601MOL0     C81054   7.217   4.797   0.535  0.2198 -0.1111  0.3376
  601MOL0     C81055   7.621   4.696   0.367 -0.0820  0.9970 -0.3630
  601MOL0     C81056   7.651   4.642   0.242  0.6561  0.5152  0.8056
  601MOL0     C81057   7.754   4.549   0.228 -0.7330 -0.4301  0.4426
  601MOL0     C81058   7.830   4.509   0.342  0.6600 -0.4352  0.5901
  601MOL0     O81059   7.934   4.418   0.335 -0.1806  0.4703 -0.0112
  601MOL0     C81060   7.961   4.347   0.211  0.2667  0.7477 -0.4245
  601MOL0     C81061   8.040   4.432   0.117 -0.4219 -0.7642  0.4326
  601MOL0     C81062   8.190   4.431   0.140 -0.8587  0.0718  0.0452
  601MOL0     C81063   8.249   4.299   0.080  0.2696 -0.0193 -0.2083
  601MOL0     C81064   8.392   4.305   0.090 -0.2432  0.1004 -0.1354
  601MOL0     C81065   8.510   4.334   0.103 -0.4736  0.5503  0.2979
  601MOL0     C81066   7.794   4.563   0.469 -0.0699 -0.5125  1.0592
  601MOL0     C81067   7.682   4.644   0.480 -1.0636  0.1603 -0.0778
  601MOL0     H81068   7.435   5.054   0.539  1.0140 -1.1284 -1.3246
  601MOL0     H81069   7.211   5.181   0.535 -0.9334 -0.1854  0.6068
  601MOL0     H81070   6.834   4.936   0.670  0.9461 -0.1838 -0.3638
  601MOL0     H81071   6.915   5.024   0.800 -1.2001  2.0561  1.4078
  601MOL0     H81072   6.807   5.216   0.760 -0.3054  0.1393 -0.3026
  601MOL0     H81073   6.776   5.191   0.588 -1.5952 -1.4232 -0.6022
  601MOL0     H81074   6.598   5.031   0.638 -2.3377  1.3939 -1.1913
  601MOL0     H81075   6.653   5.031   0.811 -0.4259  0.1567 -0.2013
  601MOL0     H81076   6.560   5.286   0.799 -2.8256  0.1006  0.2663
  601MOL0     H81077   6.518   5.236   0.639 -1.2523 -0.8165 -0.1663
  601MOL0     H81078   6.324   5.230   0.767  0.8578  1.2879 -0.1187
  601MOL0     H81079   6.369   5.066   0.731  1.1044 -1.7391  1.9327
  601MOL0     H81080   6.469   5.037   0.958 -0.1211  0.0984  0.0959
  601MOL0     H81081   6.450   5.208   0.994  1.1127 -0.8549 -0.5050
  601MOL0     H81082   6.265   5.083   1.114 -1.0204  1.5190  0.6556
  601MOL0     H81083   6.199   5.170   0.980  0.0708 -0.2344 -0.9423
  601MOL0     H81084   6.260   4.869   0.984  0.1868  0.8188 -0.0053
  601MOL0     H81085   6.196   4.960   0.842  0.8479 -2.7437 -0.6526
  601MOL0     H81086   5.949   5.089   0.938 -1.2098 -0.6597 -0.9527
  601MOL0     H81087   5.674   5.011   0.973  1.7882  1.5791 -0.1111
  601MOL0     H81088   5.648   4.911   1.118 -0.7160 -0.5821  1.3945
  601MOL0     H81089   5.757   5.199   1.131  1.6558 -1.5068  0.6434
  601MOL0     H81090   5.736   5.083   1.264 -1.5465  3.2710  2.5413
  601MOL0     H81091   5.486   5.062   1.215  3.8017 -2.5716  2.2288
  601MOL0     H81092   5.523   5.183   1.078  2.3261  1.8432  1.1485
  601MOL0     H81093   5.574   5.342   1.250  1.4564 -1.1808  0.5333
  601MOL0     H81094   5.537   5.233   1.380 -0.8441  0.4761  0.7737
  601MOL0     H81095   5.377   5.164   1.498  1.4816 -1.3239 -2.5873
  601MOL0     H81096   5.165   4.905   1.606 -2.5664  0.6206  3.3624
  601MOL0     H81097   5.323   4.992   1.620 -0.5872 -1.6727 -0.4551
  601MOL0     H81098   5.179   5.053   1.710 -2.3902  0.2506 -0.7303
  601MOL0     H81099   4.863   4.821   1.801 -0.5635 -1.1767 -0.6648
  601MOL0     H81100   4.627   4.751   1.891 -2.7616 -0.0944  0.4191
  601MOL0     H81101   4.307   5.054   1.824 -1.0970  0.3104 -2.3040
  601MOL0     H81102   4.290   4.920   1.707 -0.3553 -0.8319  0.3279
  601MOL0     H81103   4.155   4.796   1.842 -3.0885 -0.5866  0.4778
  601MOL0     H81104   4.195   4.889   1.991 -1.5270  0.0487  0.5030
  601MOL0     H81105   4.031   4.985   1.747  1.9769 -4.2980 -0.5840
  601MOL0     H81106   4.082   5.087   1.879  2.2818 -0.3198 -0.0767
  601MOL0     H81107   3.880   4.844   1.904  0.5831  0.1328 -0.6061
  601MOL0     H81108   3.952   4.933   2.044 -1.2865 -1.8887  0.8765
  601MOL0     H81109   3.760   5.037   1.832 -1.2416  2.0840 -0.1528
  601MOL0     H81110   3.814   5.135   1.965  0.4284 -0.6605  0.4457
  601MOL0     H81111   3.652   4.881   2.006  0.3714 -0.4121  0.1323
  601MOL0     H81112   3.710   4.986   2.130  1.2554 -1.4273  0.2089
  601MOL0     H81113   3.506   5.066   1.907 -1.6909  2.4122  0.7996
  601MOL0     H81114   3.589   5.183   2.012  0.1012  0.5119  2.2036
  601MOL0     H81115   3.510   5.034   2.207  0.6038  2.8813 -0.6322
  601MOL0     H81116   3.415   4.945   2.092 -0.0463 -0.2356  2.2488
  601MOL0     H81117   4.467   5.097   1.696 -0.2506 -0.1075 -0.1101
  601MOL0     H81118   4.697   5.135   1.588  1.8389 -0.1300  1.4209
  601MOL0     H81119   4.949   5.160   1.263 -0.7806 -1.5731  1.5244
  601MOL0     H81120   5.141   5.273   1.161  0.3567  0.8816  0.7196
  601MOL0     H81121   7.003   4.813   0.577 -2.2297  1.8066 -1.9883
  601MOL0     H81122   7.222   4.692   0.508 -1.9649 -0.0372 -0.5776
  601MOL0     H81123   7.594   4.684   0.160 -2.3414 -2.2894  1.2584
  601MOL0     H81124   7.767   4.501   0.132 -0.1943 -1.2908  0.9337
  601MOL0     H81125   8.021   4.257   0.231  0.7120  0.8494 -1.2854
  601MOL0     H81126   7.870   4.314   0.161  1.6697 -0.3162 -2.4208
  601MOL0     H81127   8.018   4.539   0.132  2.8720 -0.2322  2.4547
  601MOL0     H81128   8.015   4.398   0.016  1.1227  0.6403 -0.4686
  601MOL0     H81129   8.226   4.453   0.240 -0.4032 -0.7077  0.0555
  601MOL0     H81130   8.223   4.509   0.070  2.1035 -1.7448 -0.7632
  601MOL0     H81131   8.215   4.291  -0.023 -3.2519  1.0737  0.7463
  601MOL0     H81132   8.201   4.216   0.134 -0.9419  1.1626  0.5919
  601MOL0     H81133   8.613   4.361   0.114 -0.9258  1.3771  3.3765
  601MOL0     H81134   7.828   4.527   0.566 -1.6346  0.5607  2.0472
  601MOL0     H81135   7.666   4.688   0.577  2.9630 -0.7129  1.1969
  602MOL0     O81136   0.174   5.114   9.881 -0.2673 -0.1901  0.6047
  602MOL0     C81137   0.141   5.065   9.984  0.0806  0.0340  0.3557
  602MOL0     O81138   0.019   5.001  10.004  0.4476  0.5963 -0.2120
  602MOL0     C81139  -0.058   4.976   9.895  0.0778  0.4915  0.5294
  602MOL0     C81140  -0.025   4.878   9.789  0.2672  0.1432  0.0734
  602MOL0     C81141  -0.114   4.888   9.685 -0.2961  0.3883 -0.2529
  602MOL0     C81142  -0.222   4.970   9.681  0.5784 -0.5926  0.2496
  602MOL0     O81143  -0.293   4.956   9.561  0.0900  0.2986  0.0814
  602MOL0     C81144  -0.434   4.969   9.573 -0.2392 -0.5146  0.2277
  602MOL0     C81145  -0.491   4.912   9.450  0.6642  0.2621  0.9826
  602MOL0     C81146  -0.474   4.999   9.324  0.2802 -0.1846 -0.0469
  602MOL0     C81147  -0.611   5.001   9.254 -0.5389  0.7286  0.0182
  602MOL0     C81148  -0.616   5.068   9.116 -0.2773  0.2264 -0.6650
  602MOL0     C81149  -0.508   5.024   9.015 -0.2238 -0.0699  0.7152
  602MOL0     C81150  -0.533   5.084   8.880 -0.2172 -0.2733  0.1385
  602MOL0     C81151  -0.520   4.985   8.765 -0.0671  0.0113 -0.2904
  602MOL0     N81152  -0.394   4.918   8.734  0.3169 -0.4420 -0.8845
  602MOL0     C81153  -0.274   4.980   8.704 -0.2050 -0.4645 -0.7872
  602MOL0     C81154  -0.190   4.875   8.671 -0.0038  0.8113  0.3011
  602MOL0     C81155  -0.048   4.877   8.618  0.9461  0.2812  0.1254
  602MOL0     C81156   0.005   5.025   8.592 -1.0886  0.5919 -0.9033
  602MOL0     C81157   0.135   5.002   8.509  0.1389 -0.5990 -0.9893
  602MOL0     C81158   0.224   5.132   8.494 -0.5380 -0.1068  0.0083
  602MOL0     O81159   0.348   5.103   8.420 -0.4263 -0.1143 -0.8299
  602MOL0     C81160   0.415   5.210   8.359 -1.0018 -0.8715 -0.1882
  602MOL0     C81161   0.369   5.350   8.364  0.0631  0.4988 -0.3307
  602MOL0     C81162   0.445   5.454   8.307 -1.0727 -0.9575 -0.1902
  602MOL0     C81163   0.398   5.593   8.330  0.5857 -0.7110  0.0476
  602MOL0     C81164   0.566   5.419   8.243  0.2528 -0.1991  1.4077
  602MOL0     C81165   0.661   5.525   8.196 -0.1016  0.4201  0.1352
  602MOL0     O81166   0.786   5.469   8.181  0.0813 -0.1491  0.0001
  602MOL0     C81167   0.896   5.550   8.157  0.3211 -0.0904 -0.1269
  602MOL0     C81168   0.983   5.526   8.056  0.0107 -0.4963  0.8742
  602MOL0     C81169   1.077   5.616   8.010  0.1323 -0.4878 -0.4239
  602MOL0     C81170   1.101   5.737   8.080  0.3499 -0.3062  0.4205
  602MOL0     O81171   1.193   5.830   8.038  0.0827 -0.0943  0.0407
  602MOL0     C81172   1.324   5.778   8.027 -0.8680 -0.3691 -0.4224
  602MOL0     C81173   1.412   5.904   8.054 -0.1220 -0.3992  0.5676
  602MOL0     C81174   1.555   5.855   8.067  0.4944 -0.1069 -0.2347
  602MOL0     C81175   1.628   5.991   8.079 -0.1812 -0.3881 -0.7162
  602MOL0     C81176   1.774   5.966   8.113 -0.4409 -0.5633 -0.1337
  602MOL0     C81177   1.845   5.889   7.993  0.1836 -0.3140  0.0480
  602MOL0     C81178   1.997   5.888   7.992  0.5172  0.4101 -0.0223
  602MOL0     C81179   2.046   5.835   8.129 -1.5010 -0.0517  0.3526
  602MOL0    Cl81180   1.995   5.681   8.170 -0.3617 -0.1830 -0.7341
  602MOL0     C81181   1.022   5.767   8.192  0.1963 -0.3878  0.4586
  602MOL0     C81182   0.917   5.674   8.230 -0.3086  1.2902 -0.4743
  602MOL0     O81183   0.627   5.635   8.166 -0.2196 -0.0881  0.3210
  602MOL0     C81184   0.605   5.283   8.239  0.2470  0.9571 -0.4109
  602MOL0     C81185   0.532   5.187   8.298  0.4102  0.4253 -0.2098
  602MOL0     N81186  -0.260   4.756   8.678  0.1763 -0.1919  0.1944
  602MOL0     N81187  -0.379   4.786   8.720 -0.9947  0.9759  0.6380
  602MOL0     C81188  -0.258   5.055   9.789  0.4524  0.4279  0.3809
  602MOL0     C81189  -0.170   5.066   9.895 -0.1494  0.6797 -0.0218
  602MOL0     C81190   0.223   5.084  10.107 -0.2351 -0.1192 -0.0331
  602MOL0     C81191   0.345   5.155  10.094  1.3326 -0.1749  0.3199
  602MOL0     C81192   0.426   5.173  10.209  0.1574  0.6364 -0.6112
  602MOL0     C81193   0.384   5.114  10.327  0.0303 -0.1556  0.3551
  602MOL0     O81194   0.464   5.139  10.436  0.4642  0.0908 -1.1848
  602MOL0     C81195   0.432   5.084  10.565 -0.1378 -0.5556 -0.1626
  602MOL0     C81196   0.532   5.137  10.674  0.2891  0.6167 -0.4248
  602MOL0     C81197   0.671   5.088  10.650 -0.6206  0.2997  0.1879
  602MOL0     C81198   0.771   5.120  10.759  0.9436 -0.3698  0.3939
  602MOL0     C81199   0.766   5.261  10.794  0.6592  0.3687 -0.0592
  602MOL0     C81200   0.753   5.372  10.852 -1.2985  0.1153 -0.5509
  602MOL0     C81201   0.271   5.040  10.339 -0.1012  0.2604 -0.5199
  602MOL0     C81202   0.192   5.024  10.230  0.2600  0.1482  0.1003
  602MOL0     H81203   0.065   4.818   9.785  0.8996  1.0357  0.6216
  602MOL0     H81204  -0.093   4.831   9.595  1.2761 -0.2257  0.4662
  602MOL0     H81205  -0.483   4.919   9.657  1.9901 -3.0014  0.1749
  602MOL0     H81206  -0.451   5.077   9.574  5.0693  0.6630 -2.1500
  602MOL0     H81207  -0.449   4.816   9.417 -1.1447  0.4208 -2.0927
  602MOL0     H81208  -0.597   4.893   9.469  1.0437  0.0087  3.1655
  602MOL0     H81209  -0.451   5.104   9.342 -3.0242  0.6467 -0.0516
  602MOL0     H81210  -0.382   4.966   9.274  0.8493  0.6067  0.4538
  602MOL0     H81211  -0.644   4.898   9.236  1.6732  0.1136 -0.7727
  602MOL0     H81212  -0.687   5.048   9.317  1.2388  0.5529  2.4630
  602MOL0     H81213  -0.712   5.055   9.064 -1.0302 -1.0739  0.9547
  602MOL0     H81214  -0.598   5.174   9.132  2.8377 -0.0419 -1.7285
  602MOL0     H81215  -0.409   5.063   9.042 -1.7058  2.9656  2.2861
  602MOL0     H81216  -0.494   4.916   9.019  0.6249  0.0629  2.0827
  602MOL0     H81217  -0.627   5.139   8.867 -0.1012  0.0118  0.4738
  602MOL0     H81218  -0.465   5.169   8.871 -0.3329  0.3884  3.9450
  602MOL0     H81219  -0.531   5.049   8.677  1.5070 -3.1535 -3.0146
  602MOL0     H81220  -0.603   4.913   8.770  0.7996 -1.2340 -2.3502
  602MOL0     H81221  -0.260   5.087   8.695 -1.8226 -0.3172 -2.1455
  602MOL0     H81222   0.014   4.814   8.682 -3.5245 -1.8735  2.7657
  602MOL0     H81223  -0.049   4.820   8.524 -1.9503 -1.9197  1.3531
  602MOL0     H81224   0.034   5.070   8.688  0.5445  2.8147 -2.3546
  602MOL0     H81225  -0.071   5.092   8.551  0.4318  3.1563  0.1865
  602MOL0     H81226   0.129   4.955   8.410  3.3400 -3.0644 -0.1793
  602MOL0     H81227   0.202   4.933   8.561  1.4536  0.6426 -0.9791
  602MOL0     H81228   0.248   5.165   8.595  3.3472  0.0325 -0.8101
  602MOL0     H81229   0.169   5.209   8.439  0.6860  0.5378 -0.3549
  602MOL0     H81230   0.279   5.379   8.417  0.9780  1.5955  0.6920
  602MOL0     H81231   0.473   5.651   8.384  0.9149 -1.7748  0.7669
  602MOL0     H81232   0.382   5.636   8.230  2.1845 -1.3472 -0.5302
  602MOL0     H81233   0.298   5.596   8.374 -0.5466  1.7739 -2.4178
  602MOL0     H81234   0.978   5.428   8.007  1.5983 -1.0258  1.7164
  602MOL0     H81235   1.142   5.584   7.930  1.3099 -1.5386  0.8960
  602MOL0     H81236   1.339   5.710   8.111 -0.6732 -0.1558 -0.2855
  602MOL0     H81237   1.361   5.733   7.934  4.8464  0.4267  1.1049
  602MOL0     H81238   1.395   5.973   7.971 -0.7044 -2.2117 -0.9021
  602MOL0     H81239   1.369   5.957   8.139  0.2331  1.4994 -0.3697
  602MOL0     H81240   1.575   5.806   7.971 -3.4345  0.3612 -1.4963
  602MOL0     H81241   1.570   5.786   8.151 -1.4635 -0.8625 -0.4356
  602MOL0     H81242   1.623   6.044   7.984 -2.2978  0.6388 -0.0799
  602MOL0     H81243   1.590   6.053   8.160 -0.5786 -0.8837 -0.5220
  602MOL0     H81244   1.790   5.914   8.208  0.0889 -0.5927 -0.2369
  602MOL0     H81245   1.818   6.066   8.110  0.4745 -0.9615 -0.1105
  602MOL0     H81246   1.815   5.784   7.997 -1.8536  0.2180  0.0702
  602MOL0     H81247   1.817   5.924   7.893 -1.2123  0.2972  0.6316
  602MOL0     H81248   2.037   5.991   7.991  0.9347  0.2544  0.1887
  602MOL0     H81249   2.037   5.827   7.911  0.1644 -1.1047  0.9012
  602MOL0     H81250   2.013   5.892   8.217  0.8102 -1.8577  2.5603
  602MOL0     H81251   2.156   5.828   8.128 -1.4717  0.3440  0.4958
  602MOL0     H81252   1.029   5.863   8.241 -1.9356  0.1668 -0.2259
  602MOL0     H81253   0.857   5.687   8.320  1.2680 -1.1324  1.0546
  602MOL0     H81254   0.689   5.252   8.178  0.2250 -2.3551  1.0058
  602MOL0     H81255   0.574   5.087   8.302 -0.7386 -0.0281  1.6219
  602MOL0     H81256  -0.349   5.113   9.780 -0.3047 -1.0049 -2.3928
  602MOL0     H81257  -0.185   5.130   9.982 -1.8752  0.3987 -0.0708
  602MOL0     H81258   0.370   5.188   9.993 -0.2913 -0.1871 -0.1230
  602MOL0     H81259   0.518   5.230  10.200  1.0433 -0.6359  0.2416
  602MOL0     H81260   0.341   5.128  10.606 -0.0547 -0.3193 -0.2267
  602MOL0     H81261   0.417   4.976  10.576  0.0632 -0.7029 -1.2456
  602MOL0     H81262   0.499   5.113  10.775  2.1119  2.0710  0.5781
  602MOL0     H81263   0.522   5.246  10.673  0.9513  0.6987  0.5350
  602MOL0     H81264   0.703   5.128  10.553 -0.9048  1.7275  0.6600
  602MOL0     H81265   0.669   4.979  10.648 -1.4129  0.3070  0.2590
  602MOL0     H81266   0.871   5.090  10.725  1.1585 -2.3063  2.4638
  602MOL0     H81267   0.754   5.058  10.848  3.2543 -0.8450  0.5790
  602MOL0     H81268   0.739   5.468  10.898 -0.9674  0.2911 -0.8102
  602MOL0     H81269   0.240   4.994  10.432 -0.7375 -0.0908 -0.8956
  602MOL0     H81270   0.104   4.961  10.240  0.4665  0.0263  1.2515
  603MOL0     O81271   3.646  10.296   2.911  0.3233 -0.0001 -0.7137
  603MOL0     C81272   3.659  10.291   3.030  0.3588 -0.3338 -0.1396
  603MOL0     O81273   3.556  10.276   3.125  0.5100  0.1774  0.3454
  603MOL0     C81274   3.430  10.229   3.099 -0.3482  0.3028  0.7295
  603MOL0     C81275   3.323  10.264   3.170 -0.2098 -0.8355 -0.0754
  603MOL0     C81276   3.198  10.197   3.152 -0.2656  0.6831 -0.9042
  603MOL0     C81277   3.171  10.100   3.052 -0.1738  0.2224 -0.8669
  603MOL0     O81278   3.038  10.055   3.033  0.7273 -0.4211 -0.0576
  603MOL0     C81279   3.009   9.974   2.916  0.7305  0.2157  0.1643
  603MOL0     C81280   2.861   9.967   2.910 -0.6259  0.5985  0.0321
  603MOL0     C81281   2.787   9.890   3.021  0.6978  0.8611  0.4752
  603MOL0     C81282   2.806   9.738   3.013  0.6410 -0.8871  0.2731
  603MOL0     C81283   2.686   9.670   3.094 -0.2929  0.7100  0.6944
  603MOL0     C81284   2.539   9.689   3.054  0.6064 -0.0294 -0.4395
  603MOL0     C81285   2.445   9.604   3.132 -0.1803  0.0239  0.0725
  603MOL0     C81286   2.298   9.599   3.072 -0.8437 -0.0709  0.1353
  603MOL0     N81287   2.240   9.733   3.058  0.4593 -0.2105  0.3399
  603MOL0     C81288   2.138   9.779   3.135  0.0378  0.6786 -0.2667
  603MOL0     C81289   2.098   9.897   3.078  1.2901  0.4773  0.5644
  603MOL0     C81290   1.973   9.972   3.111 -0.0108 -0.1156 -0.7659
  603MOL0     C81291   1.875   9.984   3.005  0.1087 -0.3672  0.1280
  603MOL0     C81292   1.775  10.103   3.008  0.8256 -0.0553 -0.3866
  603MOL0     C81293   1.699  10.096   3.139  0.6714 -0.0398 -0.1056
  603MOL0     O81294   1.601   9.990   3.157 -0.8704  0.5771 -0.1541
  603MOL0     C81295   1.481   9.983   3.088 -0.4788  0.3212  0.3614
  603MOL0     C81296   1.409   9.869   3.126  0.5659  0.4784  0.6700
  603MOL0     C81297   1.277   9.848   3.071  0.3505 -0.4847  0.4528
  603MOL0     C81298   1.206   9.726   3.112 -0.0365  0.0255 -0.3724
  603MOL0     C81299   1.233   9.928   2.959 -0.6325 -2.1465 -0.3385
  603MOL0     C81300   1.116   9.890   2.885  0.0312 -0.0537  0.7294
  603MOL0     O81301   1.050  10.009   2.846  0.2300 -0.3993  0.6968
  603MOL0     C81302   0.934  10.006   2.771 -0.3221 -0.5526 -0.4263
  603MOL0     C81303   0.926   9.954   2.647  0.0096 -0.0350  0.8936
  603MOL0     C81304   0.811   9.972   2.569 -0.1545  0.7376  0.1814
  603MOL0     C81305   0.711  10.061   2.616  0.1655 -0.0255  0.0579
  603MOL0     O81306   0.594  10.078   2.536 -0.3672 -0.1214 -0.0956
  603MOL0     C81307   0.582  10.030   2.402 -0.5015  0.2300  0.4953
  603MOL0     C81308   0.466  10.098   2.332  0.2771 -0.8004 -0.3836
  603MOL0     C81309   0.324  10.027   2.354 -0.2926  0.3498  1.1560
  603MOL0     C81310   0.226  10.118   2.424 -0.5457 -0.7746  0.1777
  603MOL0     C81311   0.082  10.059   2.426 -0.1048  0.0587  0.1600
  603MOL0     C81312  -0.020  10.161   2.460 -0.1009  0.0552 -0.6461
  603MOL0     C81313  -0.073  10.245   2.345 -0.3063  0.8912  0.2860
  603MOL0     C81314  -0.185  10.341   2.393  0.6428 -0.0820  1.1929
  603MOL0    Cl81315  -0.134  10.452   2.526 -0.0454 -0.3442  0.1694
  603MOL0     C81316   0.720  10.118   2.738 -0.8300 -0.0818  0.1944
  603MOL0     C81317   0.830  10.084   2.814 -0.4700 -0.6335 -0.5348
  603MOL0     O81318   1.080   9.772   2.862  0.3516 -0.2127  0.0288
  603MOL0     C81319   1.303  10.050   2.935  0.3786 -0.6111 -0.3922
  603MOL0     C81320   1.427  10.079   3.005 -0.3201 -0.1482  0.9509
  603MOL0     N81321   2.168   9.919   2.959  0.2962  0.3045 -0.2341
  603MOL0     N81322   2.260   9.826   2.952 -0.8230  0.3249 -0.1442
  603MOL0     C81323   3.283  10.068   2.973  0.0099 -0.9605  0.6635
  603MOL0     C81324   3.409  10.128   3.004 -0.7996  0.2697  0.0791
  603MOL0     C81325   3.795  10.320   3.078 -0.0736  0.5980 -0.2058
  603MOL0     C81326   3.811  10.317   3.217 -0.1353  0.6606 -0.1878
  603MOL0     C81327   3.939  10.358   3.265  0.3040  1.5985  0.9932
  603MOL0     C81328   4.049  10.370   3.172 -0.1221  0.1462  0.9029
  603MOL0     O81329   4.172  10.401   3.224 -0.0831  0.8285  0.1790
  603MOL0     C81330   4.226  10.273   3.264 -0.4819 -0.0395  0.1247
  603MOL0     C81331   4.347  10.247   3.177  0.8536  0.2201 -0.4976
  603MOL0     C81332   4.430  10.131   3.237 -1.1269 -0.4899  0.1535
  603MOL0     C81333   4.555  10.085   3.160 -0.1880 -0.3031  0.7756
  603MOL0     C81334   4.644  10.192   3.114  0.5354  0.5932  0.6906
  603MOL0     C81335   4.719  10.281   3.097 -0.0261  0.6915 -0.4126
  603MOL0     C81336   4.036  10.335   3.041 -0.8134  0.3100 -0.5401
  603MOL0     C81337   3.902  10.319   2.991 -0.0655  0.2823  0.8132
  603MOL0     H81338   3.339  10.325   3.259  0.8669  0.7161 -1.2770
  603MOL0     H81339   3.118  10.217   3.222  0.7847 -1.8576  1.2043
  603MOL0     H81340   3.054  10.022   2.828  6.0739  0.3112  2.5243
  603MOL0     H81341   3.042   9.870   2.915 -0.8506 -0.3966 -3.4653
  603MOL0     H81342   2.825  10.070   2.919 -0.4323  0.9560 -2.6272
  603MOL0     H81343   2.824   9.939   2.811  0.8192 -2.0595  0.1591
  603MOL0     H81344   2.812   9.930   3.119  1.2059  2.3684 -0.2464
  603MOL0     H81345   2.680   9.911   3.011  0.5999  0.5398  0.8356
  603MOL0     H81346   2.803   9.705   2.908 -0.0213 -0.5389  0.1754
  603MOL0     H81347   2.899   9.709   3.062 -0.0378 -0.4627  1.8634
  603MOL0     H81348   2.716   9.565   3.094 -0.3222  0.6151 -2.2990
  603MOL0     H81349   2.698   9.708   3.196  1.4068 -1.5432  1.3979
  603MOL0     H81350   2.507   9.793   3.067 -2.5611 -1.2306  3.4485
  603MOL0     H81351   2.541   9.661   2.948  0.5687  0.9727 -0.7145
  603MOL0     H81352   2.478   9.501   3.147  2.9260  1.1654  2.0698
  603MOL0     H81353   2.452   9.660   3.225  1.0337 -2.4678  1.5797
  603MOL0     H81354   2.235   9.532   3.132 -1.5919 -1.0220 -1.6437
  603MOL0     H81355   2.306   9.556   2.972  0.3539  0.6578 -0.1063
  603MOL0     H81356   2.101   9.725   3.221 -2.5201  4.5983  1.4123
  603MOL0     H81357   1.921   9.914   3.188 -1.7090 -0.3890 -2.0614
  603MOL0     H81358   1.992  10.077   3.130  0.4189 -0.0152 -1.7024
  603MOL0     H81359   1.809   9.897   2.998 -1.1134  0.4581  1.0005
  603MOL0     H81360   1.930   9.984   2.911 -2.3861 -3.1133 -1.5112
  603MOL0     H81361   1.710  10.112   2.920 -1.1087  1.6409  1.1097
  603MOL0     H81362   1.847  10.185   3.004  2.1617 -1.1081  0.9872
  603MOL0     H81363   1.652  10.193   3.159  2.0435  0.7072 -0.4222
  603MOL0     H81364   1.765  10.075   3.224 -0.3455 -0.4163  0.6194
  603MOL0     H81365   1.449   9.798   3.198  2.9842 -0.4319 -1.4023
  603MOL0     H81366   1.100   9.752   3.117  0.4846  2.4735  4.8006
  603MOL0     H81367   1.215   9.648   3.036 -1.3613  1.0709 -1.6566
  603MOL0     H81368   1.239   9.693   3.211 -2.0026  0.9901  0.6646
  603MOL0     H81369   1.020   9.910   2.616  1.7578  2.3804  2.3906
  603MOL0     H81370   0.801   9.921   2.474  1.8919 -2.1961  1.4050
  603MOL0     H81371   0.673  10.054   2.345 -1.2543  0.4334 -0.6652
  603MOL0     H81372   0.558   9.924   2.403 -3.3899  0.7615 -1.3389
  603MOL0     H81373   0.470  10.203   2.364 -0.2471 -1.7685  3.3361
  603MOL0     H81374   0.470  10.092   2.223  2.4082 -0.2216 -0.3821
  603MOL0     H81375   0.340   9.932   2.404  0.5483 -1.0828 -1.6064
  603MOL0     H81376   0.285  10.003   2.254 -0.7841  2.3082  0.8220
  603MOL0     H81377   0.282  10.139   2.516 -0.5109 -1.0985  0.2339
  603MOL0     H81378   0.223  10.218   2.381 -0.7977 -1.8315 -2.4132
  603MOL0     H81379   0.079   9.980   2.501 -1.0999  0.7923  0.9249
  603MOL0     H81380   0.049  10.026   2.328  1.1834 -0.0065 -0.2684
  603MOL0     H81381  -0.098  10.099   2.505  0.7342 -0.3393  0.3353
  603MOL0     H81382   0.018  10.231   2.535 -0.0004  0.6500 -1.2506
  603MOL0     H81383  -0.110  10.174   2.272 -0.3287  0.9162  0.2732
  603MOL0     H81384   0.006  10.309   2.304 -1.6683  0.9690 -2.3631
  603MOL0     H81385  -0.261  10.285   2.449  2.0580 -2.0908  1.2051
  603MOL0     H81386  -0.222  10.396   2.306  3.0553 -1.4861 -0.8146
  603MOL0     H81387   0.637  10.181   2.769  1.5477  4.4221 -1.6479
  603MOL0     H81388   0.833  10.110   2.919 -0.4096 -0.5257 -0.5632
  603MOL0     H81389   1.280  10.083   2.834  1.5619 -0.0025 -0.4928
  603MOL0     H81390   1.488  10.159   2.963 -1.2700 -1.2865 -3.0132
  603MOL0     H81391   3.282   9.992   2.895 -0.0396 -2.0148  1.6734
  603MOL0     H81392   3.485  10.092   2.935 -0.7656  0.7451 -0.1398
  603MOL0     H81393   3.733  10.297   3.289  0.5609 -1.6897  0.0053
  603MOL0     H81394   3.952  10.380   3.370  1.0890 -0.5610  1.3944
  603MOL0     H81395   4.245  10.271   3.372 -2.7100  0.5995  0.5808
  603MOL0     H81396   4.162  10.186   3.245  0.1768 -0.8414  1.4391
  603MOL0     H81397   4.413  10.333   3.165 -0.1290  0.8668 -1.3715
  603MOL0     H81398   4.305  10.205   3.085  0.1886 -2.9114  1.0907
  603MOL0     H81399   4.370  10.045   3.267 -0.4225 -0.9466  0.2685
  603MOL0     H81400   4.478  10.163   3.330 -0.0865 -1.3919 -0.0548
  603MOL0     H81401   4.520  10.029   3.073  2.2479 -0.3140 -0.2468
  603MOL0     H81402   4.609  10.014   3.223 -1.2928 -2.3548 -0.4870
  603MOL0     H81403   4.769  10.376   3.091 -1.7745  1.7441  0.7122
  603MOL0     H81404   4.120  10.334   2.973  1.0786 -1.2217  1.6516
  603MOL0     H81405   3.891  10.305   2.884  2.2791 -1.8466  0.7416
  604MOL0     O81406  11.207  10.450   1.708  0.1590 -0.2336  0.0009
  604MOL0     C81407  11.306  10.478   1.644  0.2099 -0.7769  1.2005
  604MOL0     O81408  11.309  10.585   1.542  0.2638  0.0620 -0.5010
  604MOL0     C81409  11.193  10.661   1.528 -0.0341 -0.4592 -0.4831
  604MOL0     C81410  11.129  10.686   1.407  0.6143 -0.7162 -0.8670
  604MOL0     C81411  11.008  10.757   1.406  0.6331  0.5861 -0.1926
  604MOL0     C81412  10.947  10.817   1.512  0.0413 -0.5092 -0.1257
  604MOL0     O81413  10.822  10.879   1.490 -0.2036  0.8389 -0.0508
  604MOL0     C81414  10.791  10.969   1.596  0.1412 -0.5494 -0.0923
  604MOL0     C81415  10.672  11.053   1.564 -0.3513  0.0356  1.2332
  604MOL0     C81416  10.561  10.966   1.501 -0.0545 -0.2766  0.1492
  604MOL0     C81417  10.437  11.053   1.491 -0.2705 -0.8924  0.1211
  604MOL0     C81418  10.307  10.985   1.454  0.1784  0.3670  0.0078
  604MOL0     C81419  10.183  11.037   1.524 -0.0240  1.0759 -0.3946
  604MOL0     C81420  10.053  11.009   1.449 -0.6348 -0.1509 -0.4928
  604MOL0     C81421   9.924  11.050   1.523 -0.6841  0.6075 -0.3693
  604MOL0     N81422   9.791  11.044   1.440 -0.9031  0.7175 -1.0993
  604MOL0     C81423   9.776  11.080   1.317  0.0425  0.6507  0.0435
  604MOL0     C81424   9.646  11.053   1.273  0.4220 -0.3830 -0.4956
  604MOL0     C81425   9.594  11.091   1.137 -0.4414  0.3747  0.2121
  604MOL0     C81426   9.460  11.034   1.109 -0.7076 -0.2762  0.4920
  604MOL0     C81427   9.425  11.066   0.956  0.1027 -0.3483  0.6167
  604MOL0     C81428   9.278  11.048   0.915 -0.5107 -0.2055  0.8364
  604MOL0     O81429   9.244  10.909   0.898  0.7853 -0.7058  0.2085
  604MOL0     C81430   9.113  10.876   0.887  0.5752 -0.5596 -0.2033
  604MOL0     C81431   9.083  10.748   0.905 -0.1179  0.0197  1.1086
  604MOL0     C81432   8.950  10.698   0.902 -0.4302  0.0684 -0.1414
  604MOL0     C81433   8.935  10.543   0.896 -0.0221 -0.3784 -0.4952
  604MOL0     C81434   8.845  10.785   0.906  0.0052  0.4582 -0.4564
  604MOL0     C81435   8.704  10.743   0.917  0.3116  0.2237 -0.4477
  604MOL0     O81436   8.615  10.772   0.807 -1.1834  0.2247 -0.5155
  604MOL0     C81437   8.479  10.740   0.799  0.7467 -0.8242 -0.7466
  604MOL0     C81438   8.422  10.630   0.863 -0.1876  0.3994 -0.3226
  604MOL0     C81439   8.294  10.590   0.846 -0.2335 -1.1305  0.2188
  604MOL0     C81440   8.206  10.659   0.759  0.4918 -0.1716 -1.0563
  604MOL0     O81441   8.069  10.642   0.736 -0.3444  0.5068  0.3747
  604MOL0     C81442   8.019  10.517   0.779  1.0808 -0.3276 -0.1005
  604MOL0     C81443   7.882  10.511   0.719  0.2325  0.6618 -0.2159
  604MOL0     C81444   7.817  10.371   0.746 -0.1477 -0.3117 -0.6040
  604MOL0     C81445   7.684  10.376   0.671 -0.8496  0.0001 -0.2684
  604MOL0     C81446   7.616  10.240   0.673 -0.1971  0.3810 -0.7838
  604MOL0     C81447   7.536  10.232   0.799  0.4120  0.5633 -0.5073
  604MOL0     C81448   7.454  10.106   0.794 -0.1886 -0.1294 -0.4903
  604MOL0     C81449   7.397  10.082   0.937 -0.0161  0.0491  0.5148
  604MOL0    Cl81450   7.251   9.981   0.922  0.0521  0.1051 -0.1071
  604MOL0     C81451   8.261  10.770   0.694 -0.0025  0.0525 -0.0304
  604MOL0     C81452   8.395  10.814   0.708  0.7981 -0.1694  0.3162
  604MOL0     O81453   8.667  10.692   1.021 -0.4406 -0.1068  0.3414
  604MOL0     C81454   8.867  10.930   0.898 -0.6761 -0.1746  0.1673
  604MOL0     C81455   9.003  10.970   0.881  0.0521 -0.5451 -0.1085
  604MOL0     N81456   9.584  10.997   1.391  0.3541  0.2771  0.4249
  604MOL0     N81457   9.670  10.998   1.491 -0.6272 -0.6154  1.3341
  604MOL0     C81458  11.019  10.808   1.632 -0.3587  0.1836 -0.6124
  604MOL0     C81459  11.139  10.738   1.644 -0.4437  0.5642 -0.0799
  604MOL0     C81460  11.438  10.414   1.666  0.3570 -0.9934  0.4036
  604MOL0     C81461  11.447  10.305   1.754  0.1923 -0.9571 -0.1873
  604MOL0     C81462  11.568  10.246   1.775  0.2111  0.1940 -0.1754
  604MOL0     C81463  11.684  10.278   1.698  0.0778  0.2483 -0.6707
  604MOL0     O81464  11.789  10.202   1.738  0.2880  0.4193  0.2343
  604MOL0     C81465  11.914  10.224   1.674  0.2510 -0.3500 -0.0870
  604MOL0     C81466  12.027  10.165   1.762 -0.3165 -0.4716 -0.7022
  604MOL0     C81467  12.171  10.191   1.717  0.0691  0.6454 -0.7092
  604MOL0     C81468  12.264  10.119   1.816 -0.1695 -0.4996  0.0032
  604MOL0     C81469  12.394  10.083   1.755  0.0736 -0.3509 -0.7760
  604MOL0     C81470  12.475  10.049   1.674  0.6346 -0.2026 -0.4795
  604MOL0     C81471  11.672  10.383   1.602 -0.6292  0.3333  0.5233
  604MOL0     C81472  11.550  10.460   1.596 -0.6148  1.3678  0.2002
  604MOL0     H81473  11.166  10.638   1.316  1.6230  1.0266 -1.4251
  604MOL0     H81474  10.951  10.757   1.314  2.4251 -0.4979 -1.3732
  604MOL0     H81475  10.766  10.915   1.687 -0.1248  1.6601  1.2074
  604MOL0     H81476  10.872  11.036   1.624 -0.0989  0.6762 -2.0714
  604MOL0     H81477  10.631  11.104   1.651 -2.1576 -2.0682  1.7119
  604MOL0     H81478  10.695  11.128   1.488 -1.1287 -0.2155  0.7401
  604MOL0     H81479  10.589  10.933   1.400  0.1229  0.1388  0.0591
  604MOL0     H81480  10.542  10.892   1.579  0.6357  0.1095  0.7013
  604MOL0     H81481  10.426  11.085   1.595 -2.2845  2.4268 -0.9716
  604MOL0     H81482  10.446  11.138   1.423  2.9151 -0.8310  0.5065
  604MOL0     H81483  10.291  11.005   1.347 -0.0944  1.2843  0.2108
  604MOL0     H81484  10.310  10.877   1.471  1.6388  0.0232 -2.0316
  604MOL0     H81485  10.178  10.999   1.626  3.4710  3.1558  0.7596
  604MOL0     H81486  10.189  11.144   1.546  0.5406  0.9431  0.1425
  604MOL0     H81487  10.052  11.066   1.356  1.0028  1.0966  0.2014
  604MOL0     H81488  10.053  10.903   1.424  3.0028 -0.6994  1.2322
  604MOL0     H81489   9.938  11.146   1.575  0.2151  1.1768 -1.6239
  604MOL0     H81490   9.909  10.979   1.606  0.9277  1.4171  0.6701
  604MOL0     H81491   9.848  11.132   1.254 -1.8529  1.3978 -1.6101
  604MOL0     H81492   9.603  11.199   1.145 -1.6140  0.3301  3.2572
  604MOL0     H81493   9.673  11.058   1.069  0.5942 -0.0788  1.5845
  604MOL0     H81494   9.387  11.088   1.170 -2.1608 -0.6689 -0.8205
  604MOL0     H81495   9.455  10.927   1.133 -0.3938 -0.3244  0.3455
  604MOL0     H81496   9.479  10.998   0.890  2.2635  0.5162  1.4098
  604MOL0     H81497   9.452  11.169   0.932 -0.8784  0.9669  4.4715
  604MOL0     H81498   9.251  11.099   0.822 -1.7349 -1.0234  0.7223
  604MOL0     H81499   9.213  11.086   0.995 -0.5741  2.7320 -0.4870
  604MOL0     H81500   9.167  10.680   0.916 -0.0146  0.0193  0.3933
  604MOL0     H81501   9.011  10.497   0.959 -0.6302  1.6737  1.9100
  604MOL0     H81502   8.838  10.508   0.934  0.5043  1.0161  2.4717
  604MOL0     H81503   8.954  10.509   0.794  1.9841  0.2279 -0.3520
  604MOL0     H81504   8.486  10.569   0.926 -2.2010 -0.5236  0.9330
  604MOL0     H81505   8.281  10.488   0.881  4.4478 -1.5892  1.2390
  604MOL0     H81506   8.073  10.432   0.736  0.1457 -0.8951 -0.2106
  604MOL0     H81507   8.009  10.512   0.888  0.1051  0.3911 -0.1464
  604MOL0     H81508   7.820  10.595   0.750 -0.0785  1.1162 -1.9824
  604MOL0     H81509   7.884  10.526   0.611 -0.8942  0.7001 -0.2449
  604MOL0     H81510   7.813  10.364   0.855  1.3101  0.8107 -0.4482
  604MOL0     H81511   7.872  10.289   0.699 -0.0510  0.7000 -2.3420
  604MOL0     H81512   7.632  10.457   0.723 -0.7099 -0.4204  0.5401
  604MOL0     H81513   7.704  10.408   0.568  4.7820  0.2827  0.5713
  604MOL0     H81514   7.694  10.164   0.661  0.7922  1.2550 -0.0494
  604MOL0     H81515   7.546  10.242   0.589 -1.4545  0.2463  0.2179
  604MOL0     H81516   7.606  10.229   0.883  0.7080 -0.2915 -0.7839
  604MOL0     H81517   7.468  10.316   0.816 -1.0661 -0.1587 -2.4813
  604MOL0     H81518   7.519  10.019   0.783  1.3709  1.0611 -1.0159
  604MOL0     H81519   7.372  10.118   0.723 -0.5336  1.2401  0.1012
  604MOL0     H81520   7.379  10.178   0.986  1.3865  0.3550  0.4813
  604MOL0     H81521   7.472  10.027   0.995 -0.4735 -0.7718  0.3348
  604MOL0     H81522   8.197  10.821   0.622 -2.2369 -1.3000  0.8695
  604MOL0     H81523   8.436  10.903   0.659  0.9744 -0.5309 -0.2060
  604MOL0     H81524   8.780  10.991   0.876 -0.1072  1.0208  1.1053
  604MOL0     H81525   9.019  11.075   0.864 -2.0734 -0.1852 -0.1562
  604MOL0     H81526  10.987  10.852   1.726  2.6590  0.2549  0.4909
  604MOL0     H81527  11.185  10.723   1.741 -2.1805 -0.3552  0.6568
  604MOL0     H81528  11.357  10.279   1.808  0.7691  0.6323  1.6483
  604MOL0     H81529  11.581  10.163   1.844  0.4856  0.2827 -0.1202
  604MOL0     H81530  11.906  10.186   1.571 -2.9742  1.8173 -0.7929
  604MOL0     H81531  11.937  10.330   1.665  0.1047 -0.4353 -1.7836
  604MOL0     H81532  12.007  10.058   1.772 -3.8440  0.2646  2.5709
  604MOL0     H81533  12.025  10.209   1.862  3.0742  1.4717 -1.3350
  604MOL0     H81534  12.191  10.297   1.734  1.0195  0.6311 -1.6341
  604MOL0     H81535  12.195  10.166   1.613 -0.4505 -1.0722 -0.4478
  604MOL0     H81536  12.224  10.022   1.847  3.7833 -2.3076  0.1012
  604MOL0     H81537  12.285  10.181   1.904  0.0208  0.2263 -0.5474
  604MOL0     H81538  12.538  10.022   1.591  2.4981 -0.1655  0.8557
  604MOL0     H81539  11.758  10.402   1.538 -1.6420 -0.9948 -1.3190
  604MOL0     H81540  11.543  10.523   1.508  1.5322  0.7408 -0.4687
  605MOL0     O81541   9.149   9.226   0.388  0.2115  0.5402  0.5411
  605MOL0     C81542   9.237   9.154   0.351 -0.5486  0.1063 -0.6573
  605MOL0     O81543   9.232   9.017   0.344  0.3313  0.0527  0.2007
  605MOL0     C81544   9.115   8.952   0.322  0.0612  0.8948  0.5613
  605MOL0     C81545   8.999   9.002   0.257  0.6257  0.0515 -1.3826
  605MOL0     C81546   8.895   8.918   0.224  0.2302  0.1551  0.4831
  605MOL0     C81547   8.897   8.779   0.239  0.0735  0.1943 -0.5836
  605MOL0     O81548   8.793   8.694   0.234  0.2116 -0.2647  0.5147
  605MOL0     C81549   8.658   8.738   0.217 -0.2793  0.0375  0.0671
  605MOL0     C81550   8.628   8.774   0.067  0.6887  0.6328 -0.7287
  605MOL0     C81551   8.682   8.673  -0.040  0.0776 -0.4408 -0.3746
  605MOL0     C81552   8.625   8.538  -0.005  0.2359 -0.5359 -0.0432
  605MOL0     C81553   8.672   8.438  -0.113 -0.2686  0.3683 -0.7879
  605MOL0     C81554   8.611   8.302  -0.079  0.6756 -0.2562  0.7637
  605MOL0     C81555   8.468   8.302  -0.136  0.6754  0.7439  0.3216
  605MOL0     C81556   8.433   8.166  -0.198  0.1641  0.0360 -0.0056
  605MOL0     N81557   8.300   8.179  -0.260 -0.6038 -0.3042 -0.5372
  605MOL0     C81558   8.174   8.183  -0.198 -0.6996 -0.5625  0.1341
  605MOL0     C81559   8.080   8.156  -0.289 -0.7911 -0.6702  0.1919
  605MOL0     C81560   7.929   8.155  -0.278 -0.2319  0.2057  0.7403
  605MOL0     C81561   7.879   8.280  -0.350  0.6696 -0.7452 -0.0178
  605MOL0     C81562   7.769   8.351  -0.273  0.2435  0.5656  0.4659
  605MOL0     C81563   7.720   8.479  -0.346  0.5875  0.2685  0.0700
  605MOL0     O81564   7.682   8.468  -0.482  0.9027  0.4387 -0.0395
  605MOL0     C81565   7.547   8.459  -0.503  0.3875 -0.7051  0.2417
  605MOL0     C81566   7.503   8.340  -0.558 -0.3764  0.7807  0.1651
  605MOL0     C81567   7.364   8.326  -0.582  0.3228 -0.3966  0.8796
  605MOL0     C81568   7.293   8.195  -0.623  0.5344 -0.1404  0.2638
  605MOL0     C81569   7.279   8.444  -0.545 -0.2548 -0.3321  0.4212
  605MOL0     C81570   7.126   8.445  -0.540 -0.6295  0.7428  0.3523
  605MOL0     O81571   7.073   8.561  -0.499 -0.2590 -0.0226 -0.0920
  605MOL0     C81572   6.938   8.565  -0.480  0.2366  0.0824  0.4794
  605MOL0     C81573   6.862   8.467  -0.426  0.0271  0.6108 -0.0308
  605MOL0     C81574   6.721   8.474  -0.401 -0.3385 -0.4091  0.4064
  605MOL0     C81575   6.656   8.591  -0.435 -0.1055  0.4708  0.4765
  605MOL0     O81576   6.528   8.614  -0.389 -0.1245  0.5996 -0.5079
  605MOL0     C81577   6.421   8.545  -0.454 -0.7814 -0.0813  0.6394
  605MOL0     C81578   6.292   8.626  -0.453  1.0542  0.2107  0.0201
  605MOL0     C81579   6.306   8.751  -0.538  0.5112 -0.4561 -1.0867
  605MOL0     C81580   6.172   8.826  -0.519  0.5467 -0.7125 -0.3418
  605MOL0     C81581   6.154   8.938  -0.617  0.9960  0.2774  0.3957
  605MOL0     C81582   6.012   8.996  -0.628 -0.4437  0.0610  0.2669
  605MOL0     C81583   5.964   9.054  -0.499  0.7645  0.4221  0.4201
  605MOL0     C81584   5.823   9.110  -0.506 -0.1860  0.5530 -0.2309
  605MOL0    Cl81585   5.794   9.261  -0.584 -0.5385  0.0960 -0.0941
  605MOL0     C81586   6.731   8.703  -0.491 -0.6577  0.4929 -0.4816
  605MOL0     C81587   6.877   8.691  -0.508  0.4299 -0.4051 -0.5823
  605MOL0     O81588   7.062   8.355  -0.590 -0.2544  0.4065 -0.3115
  605MOL0     C81589   7.331   8.569  -0.508 -0.1607  1.0000 -0.4099
  605MOL0     C81590   7.466   8.570  -0.487 -0.3641 -0.3953 -0.2896
  605MOL0     N81591   8.144   8.146  -0.408 -0.2913 -0.1505 -0.5601
  605MOL0     N81592   8.279   8.146  -0.389  0.5631  0.5859  0.4542
  605MOL0     C81593   9.020   8.727   0.291 -0.2091  0.7864 -0.0928
  605MOL0     C81594   9.121   8.817   0.327  0.1228 -0.3981  0.4940
  605MOL0     C81595   9.362   9.219   0.321 -1.0143  0.4419 -0.2066
  605MOL0     C81596   9.374   9.352   0.282 -0.1579 -0.1147 -0.0530
  605MOL0     C81597   9.502   9.405   0.252  1.1667  0.2567 -0.4383
  605MOL0     C81598   9.613   9.322   0.262 -0.3521  0.3569  0.9547
  605MOL0     O81599   9.737   9.362   0.243 -0.0976  0.8664 -0.5049
  605MOL0     C81600   9.771   9.489   0.193  0.1171 -0.3778  0.2653
  605MOL0     C81601   9.766   9.507   0.044 -0.1142  0.0796 -0.3609
  605MOL0     C81602   9.828   9.635  -0.011  0.3710  0.3076  0.1044
  605MOL0     C81603   9.975   9.603  -0.043  0.7055  0.7152  0.0060
  605MOL0     C81604  10.061   9.604   0.072  0.6346  0.1832  0.0261
  605MOL0     C81605  10.138   9.614   0.164  0.3655  0.5689  0.4210
  605MOL0     C81606   9.600   9.189   0.298  0.3281  0.2129 -0.3366
  605MOL0     C81607   9.474   9.136   0.321 -0.0781  0.8479  0.1667
  605MOL0     H81608   8.983   9.108   0.271 -2.1224 -0.6557  3.1017
  605MOL0     H81609   8.819   8.977   0.174  0.9015  2.1821  1.7351
  605MOL0     H81610   8.596   8.653   0.249  0.3805 -0.1968  0.7434
  605MOL0     H81611   8.650   8.825   0.282 -0.6172 -0.1792  0.3226
  605MOL0     H81612   8.520   8.787   0.057  0.6596  1.8578  0.8191
  605MOL0     H81613   8.670   8.875   0.052  0.9646  0.7690  0.8086
  605MOL0     H81614   8.656   8.699  -0.143  0.5389  0.8141 -0.1902
  605MOL0     H81615   8.791   8.683  -0.044 -0.0624  1.2751 -0.8962
  605MOL0     H81616   8.672   8.502   0.087  3.2738 -0.5190 -1.4818
  605MOL0     H81617   8.516   8.546   0.005  0.1693  2.1984 -1.8145
  605MOL0     H81618   8.653   8.471  -0.216 -2.4482  0.6057 -0.3525
  605MOL0     H81619   8.781   8.428  -0.110  0.1060  3.4704 -0.3378
  605MOL0     H81620   8.671   8.221  -0.119  1.5740  1.6823 -2.1269
  605MOL0     H81621   8.600   8.288   0.029 -2.3466  0.4963  0.6592
  605MOL0     H81622   8.395   8.327  -0.058  2.0038 -1.3870  2.4056
  605MOL0     H81623   8.449   8.373  -0.217 -1.5082  2.5717  2.2923
  605MOL0     H81624   8.434   8.083  -0.126  2.6670 -0.1694 -0.1903
  605MOL0     H81625   8.512   8.139  -0.269  2.2269 -0.0176  2.1930
  605MOL0     H81626   8.150   8.208  -0.095  0.5462  1.6172 -0.0429
  605MOL0     H81627   7.881   8.065  -0.317  0.0577  0.0475  0.7473
  605MOL0     H81628   7.906   8.158  -0.171  1.9511  0.4409  1.2505
  605MOL0     H81629   7.846   8.253  -0.450  1.9008 -2.5641  0.0120
  605MOL0     H81630   7.963   8.348  -0.370  1.5765 -1.5065  1.0428
  605MOL0     H81631   7.813   8.374  -0.175  0.6711 -0.3641  0.5033
  605MOL0     H81632   7.686   8.279  -0.265  0.0612  0.5424 -1.2496
  605MOL0     H81633   7.804   8.548  -0.338  2.6040 -1.3283 -4.2992
  605MOL0     H81634   7.640   8.522  -0.285 -0.3621  0.7952 -1.4934
  605MOL0     H81635   7.577   8.263  -0.574  0.3059  1.5470 -0.4464
  605MOL0     H81636   7.224   8.162  -0.545  2.0820 -2.2903  0.8248
  605MOL0     H81637   7.241   8.214  -0.718 -0.9065 -0.4650  0.9609
  605MOL0     H81638   7.363   8.113  -0.643 -1.7731 -2.0481 -0.4663
  605MOL0     H81639   6.897   8.366  -0.408  0.5942  1.0058  1.1508
  605MOL0     H81640   6.656   8.396  -0.362 -0.4033 -0.6109 -0.0862
  605MOL0     H81641   6.456   8.523  -0.556  1.9046 -0.0397  1.4723
  605MOL0     H81642   6.416   8.452  -0.397  2.3660  1.2820  3.4734
  605MOL0     H81643   6.208   8.574  -0.500 -1.1155  2.9156  0.6572
  605MOL0     H81644   6.273   8.652  -0.348  0.9280  0.9348 -0.1784
  605MOL0     H81645   6.335   8.716  -0.637  3.8783  1.3258 -0.8900
  605MOL0     H81646   6.390   8.806  -0.493 -0.6785 -0.6747  1.6171
  605MOL0     H81647   6.088   8.756  -0.529 -0.1804 -0.6673  3.7444
  605MOL0     H81648   6.165   8.870  -0.419 -1.6308  1.0342 -1.1881
  605MOL0     H81649   6.183   8.923  -0.721 -2.6545  2.5669 -1.1412
  605MOL0     H81650   6.216   9.012  -0.566 -0.8706  1.7258  0.6757
  605MOL0     H81651   6.031   9.076  -0.701  1.0730  0.4424  1.0279
  605MOL0     H81652   5.939   8.930  -0.676 -0.0452  1.0679 -1.8760
  605MOL0     H81653   6.033   9.129  -0.459 -1.8467  4.5476 -1.9290
  605MOL0     H81654   5.957   8.968  -0.433 -0.4859 -2.9295 -3.6337
  605MOL0     H81655   5.799   9.120  -0.400  0.1680 -3.3968  0.3932
  605MOL0     H81656   5.750   9.034  -0.539  0.3770 -1.4507  2.7404
  605MOL0     H81657   6.674   8.792  -0.512 -2.1489 -0.3756 -0.2749
  605MOL0     H81658   6.942   8.763  -0.557 -1.1098  0.5909 -1.2411
  605MOL0     H81659   7.282   8.662  -0.480  0.1163  0.4668  2.1462
  605MOL0     H81660   7.514   8.659  -0.448 -1.2895 -0.4358  0.9860
  605MOL0     H81661   9.037   8.621   0.301 -0.7281  0.4541 -2.1470
  605MOL0     H81662   9.216   8.778   0.363 -0.2747 -0.4397  1.5500
  605MOL0     H81663   9.284   9.413   0.271 -0.5025 -0.9129 -2.3348
  605MOL0     H81664   9.514   9.505   0.213 -0.8521  0.8738  0.4094
  605MOL0     H81665   9.719   9.567   0.250  0.7495 -1.3383  2.2457
  605MOL0     H81666   9.876   9.505   0.218  0.0014  0.0418  0.5126
  605MOL0     H81667   9.663   9.524   0.011  0.4116  2.4585 -0.9423
  605MOL0     H81668   9.807   9.416  -0.001  1.4728  0.0176  1.1156
  605MOL0     H81669   9.807   9.718   0.057  2.1648  2.3415 -1.6677
  605MOL0     H81670   9.785   9.659  -0.108  1.2627 -0.7096 -0.5696
  605MOL0     H81671  10.015   9.681  -0.108  1.5040  0.0549 -0.3157
  605MOL0     H81672   9.973   9.511  -0.103  1.1257  0.1757  0.7975
  605MOL0     H81673  10.219   9.617   0.234  1.1964 -0.9802 -0.4269
  605MOL0     H81674   9.685   9.122   0.298  1.1507  1.2241 -1.0313
  605MOL0     H81675   9.475   9.029   0.338  1.7786  1.1921  2.9771
  606MOL0     O81676   7.596   0.838   6.492  0.3279 -0.0428  0.4211
  606MOL0     C81677   7.530   0.940   6.515 -0.2642 -0.3209  0.0425
  606MOL0     O81678   7.581   1.069   6.501  0.5613 -0.8773  0.5717
  606MOL0     C81679   7.713   1.081   6.462  0.3251  0.5268  0.3819
  606MOL0     C81680   7.744   1.097   6.325 -0.8750  0.1854 -0.2515
  606MOL0     C81681   7.882   1.124   6.286 -0.6716 -0.1690 -0.9907
  606MOL0     C81682   7.988   1.141   6.382  1.0732 -1.0514 -1.3136
  606MOL0     O81683   8.123   1.150   6.362  0.3541  0.0330  0.0049
  606MOL0     C81684   8.186   1.148   6.234 -1.3205 -0.1893 -0.5019
  606MOL0     C81685   8.338   1.176   6.231  0.4514  0.7405  0.0759
  606MOL0     C81686   8.423   1.125   6.116  0.8342  0.0497 -0.4051
  606MOL0     C81687   8.427   1.220   5.992  0.1436 -0.4321 -0.1899
  606MOL0     C81688   8.488   1.141   5.880 -0.6054  0.3431  0.4278
  606MOL0     C81689   8.384   1.074   5.785 -0.9180 -0.2261  0.0880
  606MOL0     C81690   8.447   1.029   5.650 -0.4518  0.4948 -0.5011
  606MOL0     C81691   8.326   0.980   5.561 -0.8128 -0.3306 -0.2716
  606MOL0     N81692   8.362   0.953   5.427 -0.5368  0.5717  0.2766
  606MOL0     C81693   8.468   0.880   5.382  0.3229 -1.0865 -0.1269
  606MOL0     C81694   8.475   0.904   5.246 -0.7853  0.1604 -0.0636
  606MOL0     C81695   8.555   0.824   5.143 -0.4050 -0.7290 -0.7298
  606MOL0     C81696   8.475   0.740   5.044  0.2488  0.0659  0.1435
  606MOL0     C81697   8.557   0.615   5.002 -0.4980 -0.5177  0.1195
  606MOL0     C81698   8.476   0.522   4.912 -0.0497 -0.7345 -0.0185
  606MOL0     O81699   8.420   0.603   4.801  0.3424  0.0867 -0.4793
  606MOL0     C81700   8.317   0.545   4.735  0.0656 -0.1844  0.1978
  606MOL0     C81701   8.313   0.417   4.683 -0.4447 -0.2957 -0.1421
  606MOL0     C81702   8.195   0.366   4.631  0.2357  0.0620 -0.7619
  606MOL0     C81703   8.205   0.224   4.581  1.1320  0.8090 -0.0630
  606MOL0     C81704   8.081   0.450   4.621  0.1145  0.2574  0.0728
  606MOL0     C81705   7.958   0.409   4.552 -0.8276  0.0321  0.1918
  606MOL0     O81706   7.892   0.517   4.497  0.7662 -0.2052  0.2065
  606MOL0     C81707   7.762   0.503   4.466 -0.5769  0.7474 -0.0901
  606MOL0     C81708   7.672   0.503   4.571 -0.7752  0.0499 -0.3343
  606MOL0     C81709   7.534   0.485   4.559 -0.3247 -0.4328 -0.2665
  606MOL0     C81710   7.490   0.463   4.426 -0.5503  0.0587 -0.5010
  606MOL0     O81711   7.355   0.438   4.408 -0.2468 -0.1253  0.1592
  606MOL0     C81712   7.284   0.535   4.331 -0.0324  0.1017 -0.2344
  606MOL0     C81713   7.145   0.538   4.378  0.1997 -0.6391  0.5249
  606MOL0     C81714   7.050   0.612   4.276 -0.4019  0.1536  0.3446
  606MOL0     C81715   6.907   0.611   4.322 -0.4583 -1.3816  0.3997
  606MOL0     C81716   6.823   0.677   4.208 -0.7879  0.9064 -0.5183
  606MOL0     C81717   6.683   0.675   4.251  0.0170 -0.5568 -0.1245
  606MOL0     C81718   6.588   0.695   4.137  0.4156  1.2790 -0.5193
  606MOL0     C81719   6.462   0.728   4.201 -0.7653  0.5463  0.1202
  606MOL0    Cl81720   6.330   0.722   4.081 -0.5348 -0.4006 -0.1776
  606MOL0     C81721   7.578   0.471   4.315 -0.4015 -0.4095 -0.2247
  606MOL0     C81722   7.716   0.501   4.330  0.9253  0.0839 -0.2663
  606MOL0     O81723   7.922   0.287   4.555 -0.8467  0.5221 -0.4473
  606MOL0     C81724   8.087   0.585   4.663  0.3156 -0.6415 -1.4182
  606MOL0     C81725   8.206   0.628   4.721  0.1072 -0.6989  0.8525
  606MOL0     N81726   8.377   0.996   5.211 -0.0480  0.1723  0.2005
  606MOL0     N81727   8.312   1.023   5.324 -0.3576  0.9390  0.5865
  606MOL0     C81728   7.944   1.134   6.515 -0.4527  0.1467  0.4718
  606MOL0     C81729   7.813   1.098   6.553 -0.9873 -0.2704 -0.0024
  606MOL0     C81730   7.384   0.929   6.544 -0.0584 -0.0350  0.8273
  606MOL0     C81731   7.309   0.809   6.534 -0.2588 -1.2476 -0.1222
  606MOL0     C81732   7.177   0.803   6.575  0.9218 -0.6974 -0.2096
  606MOL0     C81733   7.100   0.921   6.600 -0.3943  0.3084 -0.0246
  606MOL0     O81734   6.971   0.925   6.641  0.0334 -0.3885  0.2147
  606MOL0     C81735   6.943   0.987   6.763 -0.6041  0.9337 -0.5063
  606MOL0     C81736   6.886   1.126   6.759  0.6125  0.4430  0.3726
  606MOL0     C81737   6.758   1.149   6.849  0.4636  0.2978  0.3050
  606MOL0     C81738   6.775   1.242   6.969  0.1280 -0.3229  0.1782
  606MOL0     C81739   6.649   1.262   7.036  0.0196  0.3016 -0.6314
  606MOL0     C81740   6.535   1.281   7.081 -0.4771 -0.2981 -0.3229
  606MOL0     C81741   7.172   1.042   6.582  0.3083  1.0375 -0.5966
  606MOL0     C81742   7.308   1.046   6.558 -0.6252 -0.1139 -0.4308
  606MOL0     H81743   7.668   1.087   6.248  1.5138  0.4049 -2.8083
  606MOL0     H81744   7.913   1.128   6.182  1.8564 -0.0770 -0.2900
  606MOL0     H81745   8.162   1.051   6.188 -0.2776 -0.3333 -0.7737
  606MOL0     H81746   8.147   1.226   6.168 -2.5715 -1.6607 -1.5940
  606MOL0     H81747   8.362   1.280   6.255 -0.2495  0.5938  1.5211
  606MOL0     H81748   8.373   1.121   6.318  1.3278  1.7003  0.3546
  606MOL0     H81749   8.527   1.112   6.147  0.2393 -0.6854  1.3983
  606MOL0     H81750   8.390   1.024   6.088  1.8090 -0.5704  0.5678
  606MOL0     H81751   8.325   1.252   5.971 -0.3765 -1.3511  0.8821
  606MOL0     H81752   8.496   1.303   6.013  0.0780 -0.3263 -0.3901
  606MOL0     H81753   8.536   1.220   5.821  0.1122  0.7706  1.5353
  606MOL0     H81754   8.559   1.069   5.921 -0.1921  1.3247  1.5328
  606MOL0     H81755   8.343   0.993   5.846 -1.5985 -0.6557 -0.9239
  606MOL0     H81756   8.309   1.152   5.771 -0.0870  1.1067  2.3236
  606MOL0     H81757   8.481   1.111   5.586 -0.4818 -1.2770 -2.9552
  606MOL0     H81758   8.528   0.955   5.654 -0.3179  0.5446 -1.8096
  606MOL0     H81759   8.262   1.069   5.561  0.0418  0.3555  2.0247
  606MOL0     H81760   8.271   0.900   5.612  2.4640 -0.6381  3.2296
  606MOL0     H81761   8.524   0.825   5.458 -0.5803 -0.7110  0.8397
  606MOL0     H81762   8.625   0.893   5.095 -0.3385 -0.7150 -0.6148
  606MOL0     H81763   8.617   0.760   5.207 -0.2153  2.4950  2.6324
  606MOL0     H81764   8.437   0.798   4.959 -0.8851 -3.2654 -1.8150
  606MOL0     H81765   8.383   0.703   5.092  0.4617 -0.2956  0.2755
  606MOL0     H81766   8.607   0.566   5.086 -0.3280 -1.2960 -0.4216
  606MOL0     H81767   8.636   0.652   4.936  1.3072 -0.2511  2.3379
  606MOL0     H81768   8.396   0.480   4.974  2.0611 -3.0304  1.3228
  606MOL0     H81769   8.533   0.438   4.871  0.3663  0.7019 -2.6015
  606MOL0     H81770   8.405   0.363   4.699 -0.5022  0.1941  2.2592
  606MOL0     H81771   8.125   0.158   4.615  1.7520 -0.1220 -0.3696
  606MOL0     H81772   8.193   0.223   4.472  0.0219 -2.5052 -0.0253
  606MOL0     H81773   8.299   0.178   4.611  1.3410  0.4281 -1.2338
  606MOL0     H81774   7.725   0.528   4.663  0.4440 -0.8074 -0.7922
  606MOL0     H81775   7.463   0.489   4.641  1.3249 -1.7014  1.3069
  606MOL0     H81776   7.332   0.633   4.338 -3.0552  1.6010  1.8742
  606MOL0     H81777   7.283   0.496   4.229 -1.9268 -1.1616  0.2105
  606MOL0     H81778   7.115   0.434   4.394 -0.4154 -1.7256 -5.3709
  606MOL0     H81779   7.140   0.594   4.472 -3.2749 -2.7313  1.7716
  606MOL0     H81780   7.048   0.566   4.177 -1.9884  0.7215  0.0846
  606MOL0     H81781   7.087   0.710   4.245 -1.8245  0.8447  0.7218
  606MOL0     H81782   6.873   0.508   4.331 -1.0892 -1.3664 -1.4586
  606MOL0     H81783   6.906   0.682   4.405  1.3222  4.1166 -3.6364
  606MOL0     H81784   6.830   0.614   4.118 -3.2606 -0.0550 -0.1132
  606MOL0     H81785   6.849   0.777   4.173 -0.3578  0.5874 -1.1373
  606MOL0     H81786   6.662   0.587   4.312  2.8360 -0.6573  0.8464
  606MOL0     H81787   6.675   0.761   4.318  1.6744  0.3020 -0.9673
  606MOL0     H81788   6.573   0.601   4.083  0.2844 -0.1997  1.9472
  606MOL0     H81789   6.620   0.771   4.065 -0.0366  1.2065 -0.8026
  606MOL0     H81790   6.467   0.825   4.251  0.1734  1.7889 -2.2232
  606MOL0     H81791   6.441   0.655   4.280  1.5843  1.2431  1.4813
  606MOL0     H81792   7.554   0.461   4.210  2.3351 -0.7695 -0.8732
  606MOL0     H81793   7.791   0.519   4.254  1.7874  2.8594  1.1051
  606MOL0     H81794   8.005   0.656   4.656  0.4676  0.1647  2.7000
  606MOL0     H81795   8.220   0.728   4.761  0.9040  0.1243 -1.3294
  606MOL0     H81796   8.025   1.155   6.584  0.0432 -0.3744  0.0593
  606MOL0     H81797   7.792   1.107   6.659 -0.7804 -1.5075  0.1645
  606MOL0     H81798   7.352   0.711   6.520  0.5062 -0.7593 -1.4093
  606MOL0     H81799   7.131   0.705   6.579 -0.9025  0.1339 -0.0986
  606MOL0     H81800   6.878   0.920   6.820  1.5154 -0.1441  0.7779
  606MOL0     H81801   7.035   0.992   6.822 -2.0564 -1.0054  2.1585
  606MOL0     H81802   6.868   1.152   6.654  0.8602 -0.1956  0.1710
  606MOL0     H81803   6.957   1.200   6.797  0.3809  0.3952  0.8990
  606MOL0     H81804   6.718   1.051   6.878 -0.0093 -0.7130 -3.2634
  606MOL0     H81805   6.686   1.197   6.782 -0.0874 -0.9780 -0.0399
  606MOL0     H81806   6.812   1.340   6.936  0.5563 -0.0572  1.4224
  606MOL0     H81807   6.848   1.193   7.033  0.0821  2.2645  2.4252
  606MOL0     H81808   6.435   1.292   7.117  0.0381  0.5421  0.8776
  606MOL0     H81809   7.121   1.137   6.586 -0.9075  0.3760  0.0356
  606MOL0     H81810   7.344   1.149   6.563 -0.3318 -0.2582  0.7308
  607MOL0     O81811   3.390   2.887   2.594 -0.6152 -0.0213  0.4082
  607MOL0     C81812   3.507   2.859   2.617 -0.7398 -0.0230  0.4377
  607MOL0     O81813   3.543   2.736   2.647 -1.1093 -0.6748  0.0704
  607MOL0     C81814   3.450   2.643   2.657  0.4938 -0.3155 -0.1509
  607MOL0     C81815   3.446   2.568   2.781 -0.3924  0.5943  0.6388
  607MOL0     C81816   3.358   2.464   2.803 -0.1664  0.2053 -0.2979
  607MOL0     C81817   3.266   2.430   2.692 -0.3411 -0.5928  0.7029
  607MOL0     O81818   3.174   2.331   2.697 -0.3871  0.3209  0.4060
  607MOL0     C81819   3.138   2.283   2.833  0.9875  0.0792  0.3371
  607MOL0     C81820   3.015   2.191   2.816 -0.1529 -0.6591 -0.0603
  607MOL0     C81821   2.891   2.280   2.804  0.2012  0.2158  0.1449
  607MOL0     C81822   2.771   2.192   2.781 -0.0305 -0.3370 -0.3270
  607MOL0     C81823   2.632   2.253   2.776 -0.7673 -0.3176  0.1671
  607MOL0     C81824   2.548   2.168   2.679 -0.1449 -0.3989  0.0914
  607MOL0     C81825   2.401   2.208   2.693  0.0134  0.4140  0.2305
  607MOL0     C81826   2.326   2.109   2.607  0.0893  0.5120 -0.8232
  607MOL0     N81827   2.188   2.098   2.655 -0.0926 -0.3198  0.2386
  607MOL0     C81828   2.107   2.211   2.674 -0.9754 -0.3519 -0.0272
  607MOL0     C81829   1.986   2.165   2.713  0.1609  0.1493  0.0658
  607MOL0     C81830   1.856   2.245   2.750 -0.4236 -0.0620 -0.0272
  607MOL0     C81831   1.760   2.285   2.635 -0.1604  0.6606 -0.0717
  607MOL0     C81832   1.634   2.353   2.707 -0.5724 -0.0390 -0.2235
  607MOL0     C81833   1.544   2.425   2.613  0.6246 -0.0488  0.2300
  607MOL0     O81834   1.459   2.323   2.558  0.0037  0.1105  0.1288
  607MOL0     C81835   1.328   2.355   2.523  0.0849 -1.2739 -0.1925
  607MOL0     C81836   1.255   2.258   2.456 -0.0567 -0.1264  0.3001
  607MOL0     C81837   1.121   2.273   2.403 -1.0466 -1.4387  0.2269
  607MOL0     C81838   1.057   2.166   2.311 -0.0368 -0.0727 -0.3452
  607MOL0     C81839   1.056   2.395   2.436  0.0120  0.3772 -0.0472
  607MOL0     C81840   0.918   2.418   2.377 -0.1561 -0.6492 -0.6917
  607MOL0     O81841   0.882   2.547   2.379  0.4068 -0.1557  0.3252
  607MOL0     C81842   0.765   2.579   2.333 -0.0363  0.1949 -0.1765
  607MOL0     C81843   0.746   2.650   2.218  0.7339 -0.6190  0.1742
  607MOL0     C81844   0.613   2.676   2.170  0.0619 -0.3396 -0.4459
  607MOL0     C81845   0.502   2.636   2.249  0.7416 -0.3541  0.5404
  607MOL0     O81846   0.375   2.665   2.201 -0.3292  0.2308 -0.8643
  607MOL0     C81847   0.281   2.705   2.303 -0.0732  0.7317  0.5627
  607MOL0     C81848   0.174   2.806   2.252  0.2858 -0.9384 -0.8353
  607MOL0     C81849   0.107   2.770   2.116 -0.0391  0.2611 -1.1026
  607MOL0     C81850  -0.011   2.871   2.075 -0.0213 -0.4358 -0.7450
  607MOL0     C81851  -0.081   2.830   1.946 -0.0356  0.2562 -0.4731
  607MOL0     C81852  -0.215   2.910   1.923 -0.3771 -0.5428  0.6765
  607MOL0     C81853  -0.269   2.876   1.784 -0.5913  0.2826  0.2715
  607MOL0     C81854  -0.398   2.932   1.735 -0.0831  0.3363 -0.4798
  607MOL0    Cl81855  -0.536   2.874   1.823  0.0135  0.1237  0.2331
  607MOL0     C81856   0.529   2.573   2.371 -0.7662  0.1475 -0.3357
  607MOL0     C81857   0.656   2.546   2.409  0.1254 -0.8163 -0.1825
  607MOL0     O81858   0.847   2.328   2.338 -0.4989 -0.3147  0.1292
  607MOL0     C81859   1.126   2.489   2.510 -0.1416  0.5063  0.3220
  607MOL0     C81860   1.264   2.476   2.552 -0.5977  0.8908 -0.8986
  607MOL0     N81861   1.997   2.018   2.707  0.0226 -0.0745  0.3367
  607MOL0     N81862   2.115   1.983   2.667  0.1770 -0.5363  0.3044
  607MOL0     C81863   3.285   2.492   2.569  0.2963  0.7171 -0.6595
  607MOL0     C81864   3.365   2.605   2.559  0.6210 -0.2346 -0.1264
  607MOL0     C81865   3.613   2.949   2.590 -0.6006 -0.2059  0.2626
  607MOL0     C81866   3.579   3.081   2.542 -0.1516 -0.3189  0.0494
  607MOL0     C81867   3.685   3.170   2.525  0.3443  0.7912  0.3967
  607MOL0     C81868   3.816   3.145   2.563  0.6235 -0.2377  0.1873
  607MOL0     O81869   3.915   3.235   2.563 -0.0518  0.0363 -0.2558
  607MOL0     C81870   3.887   3.376   2.547  0.2530  0.0504 -0.9371
  607MOL0     C81871   4.018   3.456   2.576  0.6562 -0.5154 -0.1294
  607MOL0     C81872   4.134   3.418   2.472 -0.3129 -0.7282  0.9974
  607MOL0     C81873   4.263   3.476   2.529  0.5024  0.4769 -0.6625
  607MOL0     C81874   4.364   3.484   2.425  0.3335  0.6947 -0.1413
  607MOL0     C81875   4.449   3.486   2.340  0.3581  0.2727 -0.3832
  607MOL0     C81876   3.848   3.018   2.603 -0.3961 -0.0668  0.8800
  607MOL0     C81877   3.751   2.923   2.616 -0.0502  0.5227  0.4782
  607MOL0     H81878   3.520   2.600   2.854 -1.6816  0.7794  1.9190
  607MOL0     H81879   3.356   2.412   2.899 -1.5435  0.9605  0.1051
  607MOL0     H81880   3.217   2.224   2.881 -1.0321 -1.0441  2.5077
  607MOL0     H81881   3.126   2.372   2.896 -0.1912  1.2657 -1.4897
  607MOL0     H81882   3.044   2.133   2.728  2.2572 -0.2724  0.3878
  607MOL0     H81883   3.000   2.132   2.907  0.6283 -0.1238  0.4228
  607MOL0     H81884   2.881   2.349   2.889  0.2819  0.9737 -0.4517
  607MOL0     H81885   2.903   2.337   2.712  3.4503 -1.5072 -0.6567
  607MOL0     H81886   2.784   2.155   2.679 -2.4933  0.8917 -1.1654
  607MOL0     H81887   2.760   2.106   2.848  2.3151  0.4281  1.1811
  607MOL0     H81888   2.593   2.247   2.878 -2.5598 -3.0549 -0.5516
  607MOL0     H81889   2.632   2.355   2.738 -0.7649 -1.2893 -2.6642
  607MOL0     H81890   2.575   2.176   2.574 -0.4509  2.2557  0.1620
  607MOL0     H81891   2.566   2.065   2.713  3.1851 -0.4226 -1.4334
  607MOL0     H81892   2.365   2.195   2.795 -1.9327  0.9326 -0.3532
  607MOL0     H81893   2.378   2.309   2.660  1.0295  0.4784 -0.3413
  607MOL0     H81894   2.379   2.013   2.613 -0.8538  0.0429  0.4609
  607MOL0     H81895   2.332   2.129   2.499  1.0958 -2.1343 -1.3552
  607MOL0     H81896   2.145   2.312   2.662 -1.2085 -0.2496  0.0837
  607MOL0     H81897   1.806   2.194   2.833  3.7700 -3.7023  0.6126
  607MOL0     H81898   1.898   2.340   2.785  1.5148  0.0883 -2.4820
  607MOL0     H81899   1.728   2.190   2.591  0.6598 -1.4052  3.4096
  607MOL0     H81900   1.804   2.344   2.554  4.2533  1.1646  2.3990
  607MOL0     H81901   1.678   2.421   2.780  1.3931  0.3453 -1.6703
  607MOL0     H81902   1.570   2.282   2.760 -1.2414 -0.9730 -2.1851
  607MOL0     H81903   1.597   2.487   2.541 -1.0198  1.1271 -0.0063
  607MOL0     H81904   1.488   2.492   2.679  2.2943  1.5956  0.0768
  607MOL0     H81905   1.313   2.167   2.441  2.7027  1.6707 -0.5997
  607MOL0     H81906   0.973   2.116   2.359 -0.6712  3.0581  2.1903
  607MOL0     H81907   1.028   2.207   2.214  3.3237 -2.3488 -2.5380
  607MOL0     H81908   1.138   2.096   2.290 -0.9597 -1.1015 -0.5512
  607MOL0     H81909   0.829   2.675   2.152 -0.2129 -1.0989 -1.2521
  607MOL0     H81910   0.595   2.731   2.078  0.2634  0.5222  0.0228
  607MOL0     H81911   0.239   2.609   2.336  0.5654  0.6438  1.1479
  607MOL0     H81912   0.326   2.752   2.391 -1.4646 -0.1590  1.8079
  607MOL0     H81913   0.099   2.837   2.326  3.1642 -1.0279  2.3971
  607MOL0     H81914   0.227   2.899   2.235  1.0187 -0.7106  2.1015
  607MOL0     H81915   0.069   2.668   2.126 -2.1142  1.0664 -0.1834
  607MOL0     H81916   0.189   2.774   2.043  1.3953  0.4391  0.4682
  607MOL0     H81917  -0.080   2.883   2.159 -0.0510  0.8819 -0.9455
  607MOL0     H81918   0.047   2.962   2.057 -0.4545 -0.2920 -1.4843
  607MOL0     H81919  -0.100   2.723   1.934 -0.7078  0.3410 -0.1685
  607MOL0     H81920  -0.015   2.860   1.864 -1.4589  0.2655 -1.6578
  607MOL0     H81921  -0.285   2.875   1.999 -1.9985  0.0435 -0.4879
  607MOL0     H81922  -0.186   3.014   1.936  1.9547 -1.4576  4.1462
  607MOL0     H81923  -0.265   2.769   1.763 -0.3497  0.7718 -2.6057
  607MOL0     H81924  -0.190   2.926   1.726 -0.8489  1.1898  0.6845
  607MOL0     H81925  -0.427   2.893   1.637 -2.8174  1.8350 -0.3672
  607MOL0     H81926  -0.392   3.041   1.723 -2.6862  0.5788 -0.2703
  607MOL0     H81927   0.451   2.535   2.436  1.1664 -3.9344 -0.1169
  607MOL0     H81928   0.658   2.490   2.502 -1.1117 -0.7198 -0.0801
  607MOL0     H81929   1.081   2.585   2.534 -3.0548  0.4550 -3.9739
  607MOL0     H81930   1.294   2.553   2.623 -0.7754  0.4493 -0.3371
  607MOL0     H81931   3.230   2.438   2.493 -3.9651 -1.3318  3.3151
  607MOL0     H81932   3.363   2.641   2.456 -0.8487 -0.6737 -0.2852
  607MOL0     H81933   3.480   3.118   2.516 -1.2066 -1.2388  2.4734
  607MOL0     H81934   3.650   3.264   2.483 -2.0079  0.0490  0.5205
  607MOL0     H81935   3.837   3.416   2.458 -0.3109  2.7078  0.4530
  607MOL0     H81936   3.821   3.398   2.630  2.2049 -1.1853  1.0455
  607MOL0     H81937   4.044   3.431   2.680  2.6629 -1.0889 -0.7229
  607MOL0     H81938   3.991   3.561   2.568 -0.7198 -0.9220 -1.2370
  607MOL0     H81939   4.112   3.463   2.374 -2.1571  0.0619  1.7210
  607MOL0     H81940   4.136   3.309   2.470 -1.4507 -0.7510 -0.5443
  607MOL0     H81941   4.296   3.411   2.610 -2.3094 -0.2001  0.0602
  607MOL0     H81942   4.251   3.579   2.567  1.3758  0.4011 -0.1441
  607MOL0     H81943   4.511   3.488   2.253 -1.8340  2.4051 -2.0372
  607MOL0     H81944   3.949   2.987   2.628  1.0844  2.4001 -1.4546
  607MOL0     H81945   3.794   2.827   2.641 -0.2862  0.3162  0.0930
  608MOL0     O81946   3.325   0.913   6.230 -0.7072 -0.5515 -0.3007
  608MOL0     C81947   3.386   0.845   6.155 -0.7711  0.1539 -0.1539
  608MOL0     O81948   3.328   0.763   6.065  0.3032 -0.2197 -0.3652
  608MOL0     C81949   3.197   0.771   6.044 -0.2527  0.5575  0.0807
  608MOL0     C81950   3.102   0.729   6.130  0.9200 -0.0372  0.3759
  608MOL0     C81951   2.960   0.741   6.107  0.4468 -0.0762 -0.4053
  608MOL0     C81952   2.914   0.796   5.991 -0.2608 -0.5349 -0.0379
  608MOL0     O81953   2.787   0.813   5.983  0.4625 -0.4044  0.1473
  608MOL0     C81954   2.740   0.922   5.896 -0.3460  0.3280  0.1399
  608MOL0     C81955   2.596   0.958   5.926  0.0166 -0.1329 -0.0773
  608MOL0     C81956   2.493   0.861   5.879  0.0069 -1.0483  0.8176
  608MOL0     C81957   2.348   0.927   5.863  0.1792  0.0563 -0.5896
  608MOL0     C81958   2.247   0.817   5.825  0.4053  0.1504 -0.3430
  608MOL0     C81959   2.115   0.880   5.772 -0.1331 -0.2405  0.2517
  608MOL0     C81960   1.997   0.791   5.765 -0.1003 -0.4688 -0.2490
  608MOL0     C81961   2.016   0.702   5.642  0.0565 -0.3623  0.0555
  608MOL0     N81962   1.891   0.632   5.610 -0.2085 -0.8584  0.7950
  608MOL0     C81963   1.800   0.670   5.516 -0.0862 -0.3047  0.3802
  608MOL0     C81964   1.712   0.569   5.511 -0.3395 -0.1054 -0.5459
  608MOL0     C81965   1.591   0.580   5.422  0.1521  0.1425  0.7051
  608MOL0     C81966   1.512   0.449   5.403 -1.2273 -0.4336 -0.4646
  608MOL0     C81967   1.379   0.469   5.326 -0.8166 -0.3793 -0.1202
  608MOL0     C81968   1.317   0.331   5.316 -0.2729  0.2036  0.3398
  608MOL0     O81969   1.190   0.323   5.260 -0.2962  0.4514  0.0797
  608MOL0     C81970   1.085   0.330   5.356  0.9503  0.7349 -0.4489
  608MOL0     C81971   1.082   0.371   5.496  0.1174  0.9347  0.8447
  608MOL0     C81972   0.968   0.368   5.576  0.1706 -0.4040  0.6222
  608MOL0     C81973   0.991   0.429   5.711 -0.0873  0.2756 -0.5207
  608MOL0     C81974   0.837   0.337   5.523 -0.3615  0.3368 -0.0638
  608MOL0     C81975   0.703   0.355   5.587 -0.9916  0.5203  0.4549
  608MOL0     O81976   0.585   0.340   5.516  0.0393 -0.8856  0.1886
  608MOL0     C81977   0.460   0.358   5.581 -0.7018 -0.5102 -0.5267
  608MOL0     C81978   0.351   0.413   5.512 -1.0130 -0.2394  0.7454
  608MOL0     C81979   0.229   0.439   5.584  0.2976 -0.3272  0.7390
  608MOL0     C81980   0.200   0.388   5.709  0.4982  1.0247 -0.4889
  608MOL0     O81981   0.069   0.408   5.752  0.3577  0.2250 -0.0906
  608MOL0     C81982   0.004   0.321   5.848 -1.0852  0.6177 -0.5660
  608MOL0     C81983  -0.148   0.311   5.820 -0.4020 -0.3098 -0.4497
  608MOL0     C81984  -0.173   0.301   5.673 -0.1428 -0.1501 -0.1753
  608MOL0     C81985  -0.318   0.344   5.647  0.3257 -0.0213 -0.0516
  608MOL0     C81986  -0.354   0.316   5.498 -0.2924 -0.0914  0.1660
  608MOL0     C81987  -0.502   0.309   5.484  0.1391  0.2119  0.6250
  608MOL0     C81988  -0.582   0.428   5.547  0.6382 -0.8043 -0.0592
  608MOL0     C81989  -0.591   0.561   5.454  0.3218  0.7549  0.1894
  608MOL0    Cl81990  -0.688   0.526   5.302  0.2554 -0.3279 -0.0699
  608MOL0     C81991   0.306   0.315   5.777 -0.4294  0.3488  0.2300
  608MOL0     C81992   0.430   0.316   5.714  0.1059  0.3485 -0.6379
  608MOL0     O81993   0.704   0.405   5.701 -0.1988 -0.0573 -0.5520
  608MOL0     C81994   0.841   0.313   5.383  0.1286  0.0949 -1.0614
  608MOL0     C81995   0.955   0.295   5.310  0.0963  0.0430  0.7686
  608MOL0     N81996   1.763   0.466   5.595 -0.0034  0.9250  0.1010
  608MOL0     N81997   1.869   0.510   5.654  0.4171  0.0145 -0.2935
  608MOL0     C81998   3.015   0.830   5.897 -0.5098 -0.3214 -0.2234
  608MOL0     C81999   3.152   0.814   5.920  0.5144 -0.0821 -0.2760
  608MOL0     C82000   3.537   0.847   6.174 -0.0800 -0.2008  0.7012
  608MOL0     C82001   3.614   0.732   6.137  0.3023 -0.2254 -0.3874
  608MOL0     C82002   3.750   0.741   6.156  0.0376 -0.1879 -0.0267
  608MOL0     C82003   3.814   0.846   6.221 -0.8880  0.1301  0.9422
  608MOL0     O82004   3.948   0.855   6.233  0.6368 -0.1164 -0.3227
  608MOL0     C82005   4.029   0.754   6.162  0.0708  0.0052  0.0819
  608MOL0     C82006   4.170   0.789   6.189 -0.5236 -1.5390 -0.1162
  608MOL0     C82007   4.257   0.677   6.147 -0.4337 -0.0553 -0.5979
  608MOL0     C82008   4.405   0.711   6.151  0.5451  0.2259 -0.7050
  608MOL0     C82009   4.441   0.740   6.291 -0.5553 -0.3852 -0.6582
  608MOL0     C82010   4.471   0.764   6.408  1.3478 -0.6819  0.9305
  608MOL0     C82011   3.740   0.957   6.256  0.7182  0.4921  0.4643
  608MOL0     C82012   3.600   0.958   6.238 -0.0825 -0.0749 -0.3642
  608MOL0     H82013   3.126   0.674   6.221  2.0387 -0.6526 -0.2606
  608MOL0     H82014   2.884   0.708   6.177  2.0857 -0.5218  1.2570
  608MOL0     H82015   2.796   1.015   5.911 -1.3414  1.0431 -0.4570
  608MOL0     H82016   2.742   0.896   5.789 -0.9184  0.5584  0.0698
  608MOL0     H82017   2.584   0.969   6.034  2.1547  0.3109  0.1725
  608MOL0     H82018   2.586   1.056   5.879  2.2978  0.3089  0.2394
  608MOL0     H82019   2.524   0.804   5.791 -0.3976  0.6843 -0.5095
  608MOL0     H82020   2.482   0.789   5.961  1.8569 -0.6227  1.4961
  608MOL0     H82021   2.312   0.977   5.953 -0.8116 -3.2499  0.9989
  608MOL0     H82022   2.352   1.000   5.782 -1.4924  1.2535  0.3619
  608MOL0     H82023   2.282   0.760   5.738 -0.0207 -2.0754  0.8519
  608MOL0     H82024   2.224   0.746   5.905  0.4737 -0.8637 -1.2022
  608MOL0     H82025   2.104   0.967   5.837  0.1815  0.6529 -0.8684
  608MOL0     H82026   2.120   0.932   5.676 -0.4554 -0.2528  0.2263
  608MOL0     H82027   1.978   0.725   5.850  0.0711 -1.6135 -1.0715
  608MOL0     H82028   1.917   0.863   5.748 -0.2901 -1.1971 -2.8623
  608MOL0     H82029   2.081   0.616   5.662 -3.1571 -3.0940 -0.2740
  608MOL0     H82030   2.042   0.761   5.553 -1.5623 -0.2323 -0.3573
  608MOL0     H82031   1.797   0.757   5.452 -0.9924 -2.7959 -3.2666
  608MOL0     H82032   1.521   0.652   5.464  0.2177 -1.4629  3.8399
  608MOL0     H82033   1.635   0.603   5.324  0.5292  1.8696  1.2478
  608MOL0     H82034   1.500   0.410   5.505  1.5639 -1.1830 -0.3399
  608MOL0     H82035   1.578   0.379   5.351  0.2371  2.0671 -2.2138
  608MOL0     H82036   1.396   0.493   5.221  2.8039 -0.9320  0.1927
  608MOL0     H82037   1.320   0.546   5.377  0.4678  0.0671  0.7598
  608MOL0     H82038   1.308   0.300   5.421  0.2012 -1.5156 -0.0961
  608MOL0     H82039   1.392   0.262   5.276 -2.5490 -1.3565 -1.5147
  608MOL0     H82040   1.173   0.415   5.536 -0.9004  1.0685  3.1778
  608MOL0     H82041   1.093   0.405   5.741 -0.4432 -1.1754 -0.3799
  608MOL0     H82042   0.969   0.536   5.706 -0.1525  0.2330 -1.2838
  608MOL0     H82043   0.924   0.387   5.786  2.0485  1.0733  1.9626
  608MOL0     H82044   0.355   0.425   5.404  0.5485 -1.6687  0.6080
  608MOL0     H82045   0.152   0.496   5.533  2.0748  0.6390 -1.0010
  608MOL0     H82046   0.058   0.227   5.862 -2.8287  0.0576  4.5769
  608MOL0     H82047   0.021   0.369   5.945  1.7783 -3.6168  1.3397
  608MOL0     H82048  -0.194   0.223   5.866 -2.1022  1.4738  1.4572
  608MOL0     H82049  -0.194   0.403   5.857 -0.9475 -0.3223 -1.0796
  608MOL0     H82050  -0.155   0.197   5.646 -1.0956 -0.3379 -0.1175
  608MOL0     H82051  -0.107   0.364   5.613  1.9921 -1.2349  0.9473
  608MOL0     H82052  -0.376   0.292   5.724 -1.9229  1.5450 -0.5937
  608MOL0     H82053  -0.334   0.449   5.670 -0.6170 -0.6434  2.3605
  608MOL0     H82054  -0.307   0.223   5.463  3.3565  1.2651  0.9710
  608MOL0     H82055  -0.307   0.396   5.440 -2.3501  1.1300  0.0707
  608MOL0     H82056  -0.503   0.310   5.375 -2.8656 -1.0298  0.5409
  608MOL0     H82057  -0.546   0.219   5.528 -0.4577  0.0566 -0.2672
  608MOL0     H82058  -0.537   0.464   5.640  1.1593 -0.7705 -0.3193
  608MOL0     H82059  -0.685   0.402   5.573  0.3458  1.2602  1.0583
  608MOL0     H82060  -0.490   0.591   5.425  1.6581 -2.4722  1.0663
  608MOL0     H82061  -0.631   0.643   5.515 -0.5357  0.6036 -0.1462
  608MOL0     H82062   0.298   0.281   5.880 -0.9553  0.2154  0.1456
  608MOL0     H82063   0.507   0.259   5.765  0.1258 -1.2917 -2.3828
  608MOL0     H82064   0.744   0.298   5.337 -0.5119  2.5840 -0.6977
  608MOL0     H82065   0.950   0.252   5.210 -0.3530 -2.2167  1.7045
  608MOL0     H82066   2.984   0.871   5.802 -1.3387 -0.9645 -0.2423
  608MOL0     H82067   3.227   0.834   5.844  2.8157  0.1182  1.9082
  608MOL0     H82068   3.565   0.639   6.109 -1.5352  0.6257 -0.1529
  608MOL0     H82069   3.808   0.654   6.125  0.8347 -0.0588  1.0180
  608MOL0     H82070   4.022   0.655   6.207  0.4867 -0.8629 -1.6975
  608MOL0     H82071   4.003   0.748   6.056 -0.6516  0.2465  0.2340
  608MOL0     H82072   4.190   0.831   6.288  0.0499  3.2149 -1.9888
  608MOL0     H82073   4.196   0.874   6.125 -0.5060  0.8589  2.8153
  608MOL0     H82074   4.239   0.648   6.043  1.6389  0.5128 -1.1567
  608MOL0     H82075   4.249   0.592   6.215  0.6173  0.2162 -0.1225
  608MOL0     H82076   4.418   0.805   6.097 -1.5197  2.3199  2.1318
  608MOL0     H82077   4.473   0.639   6.104 -0.9443 -0.6583 -1.6107
  608MOL0     H82078   4.488   0.794   6.510 -2.1213  1.9100  0.9417
  608MOL0     H82079   3.788   1.050   6.288  0.1965  0.9375 -0.0253
  608MOL0     H82080   3.560   1.050   6.280  0.5731  1.3178 -2.6127
  609MOL0     O82081   6.404   2.827   5.193 -0.4871  0.1614  0.3436
  609MOL0     C82082   6.441   2.710   5.212 -0.2608 -0.1191  0.1625
  609MOL0     O82083   6.352   2.616   5.261 -0.8624  0.5402  0.0958
  609MOL0     C82084   6.217   2.634   5.274  0.1775 -0.9353  0.6966
  609MOL0     C82085   6.141   2.710   5.182 -0.6750  0.3008  1.0784
  609MOL0     C82086   6.006   2.730   5.204 -0.9339  0.6825 -0.4504
  609MOL0     C82087   5.954   2.696   5.334  0.1538  0.1770  0.8995
  609MOL0     O82088   5.825   2.731   5.354  0.7103 -0.2695 -0.6662
  609MOL0     C82089   5.725   2.631   5.335 -0.2227  0.3689 -0.6845
  609MOL0     C82090   5.681   2.620   5.186  0.2749 -0.2650 -0.1460
  609MOL0     C82091   5.612   2.752   5.122 -0.3646 -0.4297 -0.1499
  609MOL0     C82092   5.460   2.746   5.122  0.5815 -0.3959  0.3212
  609MOL0     C82093   5.408   2.751   5.268  0.1080 -0.0836 -0.6928
  609MOL0     C82094   5.258   2.762   5.281 -0.2639 -0.1756  0.6976
  609MOL0     C82095   5.214   2.745   5.430  0.4432  0.0029 -0.1702
  609MOL0     C82096   5.091   2.647   5.446 -0.2916 -0.5037 -0.2212
  609MOL0     N82097   4.972   2.714   5.389 -0.3748 -0.7903  0.0078
  609MOL0     C82098   4.926   2.842   5.403 -0.2469  0.5879 -0.6349
  609MOL0     C82099   4.840   2.859   5.298 -0.5648 -0.0970 -0.4374
  609MOL0     C82100   4.756   2.986   5.284 -0.1179  0.3081  0.8268
  609MOL0     C82101   4.616   2.968   5.326  0.1866  0.1257  0.0026
  609MOL0     C82102   4.598   2.942   5.479  0.0999  0.1711  0.2305
  609MOL0     C82103   4.457   2.887   5.505  0.0385  0.2234 -0.6691
  609MOL0     O82104   4.365   2.977   5.466  0.1190 -0.0282  0.1196
  609MOL0     C82105   4.227   2.972   5.505  0.6053 -0.1962 -0.1656
  609MOL0     C82106   4.146   3.085   5.481  0.4233  0.4243 -1.1573
  609MOL0     C82107   4.014   3.076   5.519  0.9072  0.6911  0.2865
  609MOL0     C82108   3.927   3.199   5.487 -0.4296  0.2539  0.0150
  609MOL0     C82109   3.952   2.955   5.566 -0.5857 -0.2920  0.2056
  609MOL0     C82110   3.805   2.932   5.604  0.0366 -0.3999 -0.0475
  609MOL0     O82111   3.763   2.804   5.629  0.0812  0.9493  0.0928
  609MOL0     C82112   3.630   2.778   5.666 -0.2999 -0.1687  0.5838
  609MOL0     C82113   3.520   2.828   5.603  0.8354 -0.0614 -0.6615
  609MOL0     C82114   3.392   2.799   5.652 -0.2377 -0.0791 -0.6154
  609MOL0     C82115   3.365   2.707   5.761 -0.5631  0.0601  0.4281
  609MOL0     O82116   3.235   2.711   5.812 -0.6679 -0.2913 -0.5273
  609MOL0     C82117   3.213   2.686   5.952 -0.6874  0.0308  0.4396
  609MOL0     C82118   3.070   2.726   5.998  0.3024 -1.1404  0.4733
  609MOL0     C82119   2.960   2.655   5.918 -0.5022  1.0158  0.0821
  609MOL0     C82120   2.975   2.497   5.931  0.1008 -0.8592  0.7221
  609MOL0     C82121   2.965   2.453   6.078  0.0754 -0.6544 -0.5473
  609MOL0     C82122   2.966   2.301   6.113 -0.8278 -0.5875  0.4804
  609MOL0     C82123   3.110   2.233   6.086  0.9254  0.2903 -0.0006
  609MOL0     C82124   3.150   2.156   6.208  0.4954  0.2795  0.4138
  609MOL0    Cl82125   3.039   2.018   6.233  0.0413  0.1447 -0.0125
  609MOL0     C82126   3.486   2.659   5.825 -0.2256 -0.0552  0.3125
  609MOL0     C82127   3.614   2.687   5.776 -0.9451 -0.1207  0.5415
  609MOL0     O82128   3.739   3.030   5.617 -0.0913  0.0266  0.8717
  609MOL0     C82129   4.039   2.849   5.586  0.6710  0.1780 -0.2804
  609MOL0     C82130   4.174   2.860   5.561 -0.7180  0.4855  0.8459
  609MOL0     N82131   4.825   2.737   5.235  0.4308  0.0706  0.5836
  609MOL0     N82132   4.905   2.656   5.285 -0.3988  0.3825 -0.3280
  609MOL0     C82133   6.032   2.635   5.429 -0.4578 -0.2187 -0.0569
  609MOL0     C82134   6.167   2.600   5.395 -0.6336  0.3266  0.2577
  609MOL0     C82135   6.579   2.666   5.176  0.3035 -0.5684  1.0960
  609MOL0     C82136   6.617   2.531   5.147  0.5245 -0.6395 -0.2924
  609MOL0     C82137   6.741   2.486   5.105 -1.0669  0.4837  0.2746
  609MOL0     C82138   6.841   2.576   5.076 -0.5384 -0.4173 -0.5378
  609MOL0     O82139   6.968   2.547   5.036 -0.3987  0.3188  0.4936
  609MOL0     C82140   7.007   2.417   5.020 -0.1444 -0.3638 -1.4730
  609MOL0     C82141   7.160   2.424   4.980  0.3636  0.0379 -0.5451
  609MOL0     C82142   7.216   2.279   4.960 -0.3687  0.1931 -0.5290
  609MOL0     C82143   7.357   2.255   5.012 -0.8664  0.5728 -0.3070
  609MOL0     C82144   7.443   2.375   5.008 -0.4594 -0.5104 -0.8362
  609MOL0     C82145   7.498   2.482   5.009  0.0857  0.4732 -0.6096
  609MOL0     C82146   6.811   2.709   5.095 -0.4169  0.6476 -0.0315
  609MOL0     C82147   6.690   2.759   5.148 -0.6239 -0.2147 -0.4819
  609MOL0     H82148   6.179   2.740   5.085  1.2357  0.7571  1.9139
  609MOL0     H82149   5.927   2.766   5.139 -1.9013 -0.4337  0.0710
  609MOL0     H82150   5.752   2.530   5.367  0.6548  0.5114 -0.9454
  609MOL0     H82151   5.647   2.658   5.407  4.6165  1.9107  4.7087
  609MOL0     H82152   5.766   2.585   5.127  2.8304  0.4337  2.8208
  609MOL0     H82153   5.603   2.544   5.188  1.1002 -1.1282  0.2268
  609MOL0     H82154   5.659   2.837   5.173  0.2141 -1.2665  0.7527
  609MOL0     H82155   5.652   2.770   5.022  2.1345  0.5628  0.9349
  609MOL0     H82156   5.418   2.828   5.062 -1.2868 -1.8458 -0.4448
  609MOL0     H82157   5.419   2.655   5.078 -1.8440  1.1129 -0.7634
  609MOL0     H82158   5.421   2.649   5.305 -0.1605  0.2614  0.3769
  609MOL0     H82159   5.457   2.824   5.333  1.3205 -1.8314  0.4226
  609MOL0     H82160   5.225   2.859   5.242  2.5882  0.2474 -0.9598
  609MOL0     H82161   5.208   2.687   5.218 -0.6809  1.2871 -0.7835
  609MOL0     H82162   5.289   2.687   5.485 -1.1471 -0.7598  1.2684
  609MOL0     H82163   5.205   2.845   5.472  1.4620  0.2438 -0.4957
  609MOL0     H82164   5.066   2.626   5.551  0.6224 -1.2109 -0.1348
  609MOL0     H82165   5.091   2.547   5.402 -1.9711  0.0207 -1.5160
  609MOL0     H82166   4.942   2.919   5.477  0.4220  2.9018 -3.0195
  609MOL0     H82167   4.807   3.065   5.341  2.4621 -0.0634 -0.8055
  609MOL0     H82168   4.749   3.005   5.177 -1.9305 -1.7748  0.5030
  609MOL0     H82169   4.571   2.882   5.278  0.5437  0.4963 -1.0158
  609MOL0     H82170   4.560   3.061   5.312 -2.3424 -1.0488  1.5123
  609MOL0     H82171   4.610   3.036   5.533  1.0156 -0.1515  0.6219
  609MOL0     H82172   4.679   2.873   5.507  0.5333 -0.0075 -1.3061
  609MOL0     H82173   4.445   2.877   5.613 -2.1319 -1.5370 -0.9924
  609MOL0     H82174   4.445   2.789   5.457  1.1596  0.4799 -1.5315
  609MOL0     H82175   4.185   3.174   5.433  1.2722 -0.2983 -1.8293
  609MOL0     H82176   3.898   3.246   5.582 -0.5194  1.1111 -0.4296
  609MOL0     H82177   3.989   3.266   5.426 -0.7590 -1.1650 -1.9669
  609MOL0     H82178   3.831   3.175   5.441 -0.4689  1.6057 -0.6633
  609MOL0     H82179   3.533   2.892   5.516  0.7598  0.5025 -0.2634
  609MOL0     H82180   3.300   2.843   5.614 -0.7628 -0.6692 -0.0353
  609MOL0     H82181   3.232   2.582   5.979  1.9604  0.6088  1.0387
  609MOL0     H82182   3.292   2.742   6.002 -0.2823 -0.9487  0.9140
  609MOL0     H82183   3.076   2.701   6.105  3.4119 -0.4328  0.5868
  609MOL0     H82184   3.049   2.833   5.987 -0.1564 -1.3877 -1.3830
  609MOL0     H82185   2.947   2.675   5.811 -0.4761  0.9201  0.0612
  609MOL0     H82186   2.867   2.684   5.969 -0.0971  1.0679  0.8079
  609MOL0     H82187   2.885   2.458   5.882  1.5852 -2.1711 -1.1556
  609MOL0     H82188   3.057   2.465   5.866 -0.8728 -0.1751 -0.8919
  609MOL0     H82189   2.877   2.500   6.123  1.1032  0.6654  0.1753
  609MOL0     H82190   3.043   2.498   6.140  1.6114 -1.2171 -2.0018
  609MOL0     H82191   2.939   2.297   6.219  2.0684  2.3319  1.5069
  609MOL0     H82192   2.891   2.249   6.054  0.9113 -1.5662 -0.9399
  609MOL0     H82193   3.188   2.310   6.083  2.0547 -0.8324 -2.4513
  609MOL0     H82194   3.110   2.173   5.995  0.5859  1.1320 -0.5694
  609MOL0     H82195   3.154   2.211   6.303 -1.1477  3.3572 -1.1243
  609MOL0     H82196   3.250   2.116   6.193  0.9156  0.3881  2.5461
  609MOL0     H82197   3.470   2.604   5.917 -2.5724  2.3068  1.4637
  609MOL0     H82198   3.706   2.657   5.825  0.1992  1.4964 -0.5085
  609MOL0     H82199   4.004   2.759   5.635 -2.6316  1.5605  0.1301
  609MOL0     H82200   4.243   2.783   5.594 -1.8660  0.3463  3.1821
  609MOL0     H82201   5.986   2.599   5.520 -0.3281  2.1850  1.0323
  609MOL0     H82202   6.228   2.551   5.470  1.6345  4.3033  1.3002
  609MOL0     H82203   6.546   2.455   5.179  1.0281 -1.3372 -0.8031
  609MOL0     H82204   6.763   2.382   5.081  0.8247  0.7741  0.5879
  609MOL0     H82205   6.995   2.365   5.115  1.6450 -1.1338 -1.6324
  609MOL0     H82206   6.942   2.359   4.954  1.7126 -0.6581 -3.1387
  609MOL0     H82207   7.215   2.468   5.065 -0.0240  0.6053 -0.5839
  609MOL0     H82208   7.169   2.490   4.893  0.3422 -0.3353 -0.8308
  609MOL0     H82209   7.216   2.250   4.854 -0.1758 -1.7164 -0.0443
  609MOL0     H82210   7.154   2.209   5.017 -0.8842 -1.2079 -2.6842
  609MOL0     H82211   7.412   2.181   4.953  1.3066  2.0210 -0.2104
  609MOL0     H82212   7.361   2.217   5.114  5.1953 -3.1570 -1.3966
  609MOL0     H82213   7.549   2.574   4.986 -1.4001  1.1905 -1.1581
  609MOL0     H82214   6.886   2.786   5.080 -1.3988  1.2290 -2.4248
  609MOL0     H82215   6.690   2.865   5.170  0.2575  0.1768 -2.1583
  610MOL0     O82216  10.552   1.092   8.432  0.8637  0.4547 -0.3162
  610MOL0     C82217  10.626   0.993   8.457  0.1286  0.0931 -0.5302
  610MOL0     O82218  10.581   0.873   8.491 -0.9561 -0.2067 -0.2696
  610MOL0     C82219  10.452   0.852   8.537  0.1608  0.4038  0.4667
  610MOL0     C82220  10.393   0.729   8.493 -0.1350 -0.1179  0.1116
  610MOL0     C82221  10.271   0.697   8.544  0.5244 -0.6227  0.8032
  610MOL0     C82222  10.196   0.784   8.631  0.4001  0.1619 -0.2194
  610MOL0     O82223  10.066   0.747   8.673 -0.4643  0.1007 -0.6566
  610MOL0     C82224   9.970   0.849   8.718 -0.7153 -0.6662  0.2828
  610MOL0     C82225   9.837   0.792   8.723  0.0214  0.6783 -0.5037
  610MOL0     C82226   9.738   0.896   8.762  0.4522 -0.4723 -0.7300
  610MOL0     C82227   9.601   0.883   8.681 -0.0166  0.6836  0.0152
  610MOL0     C82228   9.487   0.966   8.731  0.2755 -0.4921 -0.0692
  610MOL0     C82229   9.354   0.922   8.654 -0.1423  0.2164 -0.2571
  610MOL0     C82230   9.221   0.973   8.708  0.6049 -0.5379  0.1854
  610MOL0     C82231   9.182   0.905   8.838 -0.2721 -0.0339  0.5283
  610MOL0     N82232   9.061   0.959   8.901 -0.5296 -0.1329  0.2745
  610MOL0     C82233   8.959   1.033   8.838 -0.5303 -0.0804 -0.9507
  610MOL0     C82234   8.872   1.077   8.928  0.1857  0.2522 -1.1855
  610MOL0     C82235   8.756   1.166   8.905 -0.2095 -0.5069  0.6070
  610MOL0     C82236   8.623   1.117   8.966 -0.0765  0.5045  0.1688
  610MOL0     C82237   8.488   1.205   8.931 -0.4899  0.5501 -0.7011
  610MOL0     C82238   8.476   1.342   9.000  0.2457  0.1908 -0.4311
  610MOL0     O82239   8.360   1.424   8.956  0.2298 -0.1582 -0.5976
  610MOL0     C82240   8.342   1.553   9.001  0.0989  0.4543  0.3812
  610MOL0     C82241   8.429   1.629   9.077 -0.5283 -0.3818  0.1176
  610MOL0     C82242   8.412   1.765   9.115 -0.9497 -0.6332  0.0660
  610MOL0     C82243   8.515   1.835   9.203 -0.9456 -0.6426 -0.4184
  610MOL0     C82244   8.299   1.829   9.071  1.0754  0.5709  0.4507
  610MOL0     C82245   8.262   1.965   9.107  0.1911 -0.3354 -0.4800
  610MOL0     O82246   8.225   2.037   8.991 -0.2505 -0.3154 -0.5415
  610MOL0     C82247   8.156   2.156   9.021 -0.9344  0.4934  0.7673
  610MOL0     C82248   8.021   2.154   9.017  0.3068  0.5256  0.3800
  610MOL0     C82249   7.959   2.274   9.055  0.8887  0.4064 -0.0944
  610MOL0     C82250   8.017   2.398   9.082  0.0075  1.3146  0.5397
  610MOL0     O82251   7.936   2.509   9.100 -0.5775  0.3341 -0.9281
  610MOL0     C82252   7.999   2.601   9.194 -0.0244  0.3178  0.7465
  610MOL0     C82253   7.913   2.704   9.254  0.2665 -0.2603  0.3642
  610MOL0     C82254   8.002   2.820   9.312  0.4961 -0.5360  0.4297
  610MOL0     C82255   7.922   2.934   9.387  0.2126 -0.0496 -0.0913
  610MOL0     C82256   8.006   3.024   9.471 -1.0323 -0.0411  0.1552
  610MOL0     C82257   7.918   3.074   9.591 -1.2121 -0.3953  0.6749
  610MOL0     C82258   8.002   3.173   9.679 -0.3679 -0.4382  0.9932
  610MOL0     C82259   7.928   3.245   9.793 -0.3553  0.3260  0.3088
  610MOL0    Cl82260   7.793   3.346   9.741  0.1529  0.4473 -0.2920
  610MOL0     C82261   8.163   2.395   9.071 -0.4482 -0.1861 -0.1423
  610MOL0     C82262   8.227   2.279   9.033 -0.6586 -0.2029  0.3224
  610MOL0     O82263   8.275   2.015   9.224  0.2397 -0.0288  0.2135
  610MOL0     C82264   8.213   1.757   8.992  0.0174  0.2537  0.0118
  610MOL0     C82265   8.223   1.626   8.959  0.5458 -0.1909 -0.5044
  610MOL0     N82266   8.910   1.019   9.046  0.1601 -0.2926 -0.5994
  610MOL0     N82267   9.022   0.951   9.033  0.2069  0.6794  0.4286
  610MOL0     C82268  10.250   0.908   8.662 -0.0996 -0.2862 -0.2430
  610MOL0     C82269  10.378   0.941   8.617 -0.0181  0.5686  0.4306
  610MOL0     C82270  10.771   1.012   8.421  0.2300  0.4152  0.3653
  610MOL0     C82271  10.818   1.132   8.350 -0.3176 -0.9624 -0.0566
  610MOL0     C82272  10.951   1.138   8.311  0.2431  0.0064 -0.2146
  610MOL0     C82273  11.042   1.030   8.337  0.1816 -1.4137 -0.1626
  610MOL0     O82274  11.178   1.034   8.295 -0.7268 -0.2125 -0.0075
  610MOL0     C82275  11.244   1.140   8.351 -0.6782 -0.7402 -0.6218
  610MOL0     C82276  11.394   1.130   8.323  0.2825  0.2898  0.1985
  610MOL0     C82277  11.493   1.216   8.398  0.5822 -0.6415 -0.5807
  610MOL0     C82278  11.634   1.178   8.363 -0.2723  0.3998  0.5448
  610MOL0     C82279  11.745   1.238   8.427 -0.1883 -1.4265  0.5884
  610MOL0     C82280  11.833   1.303   8.487  0.8244  0.7025  0.3004
  610MOL0     C82281  10.986   0.924   8.402 -0.2817  0.5342  0.3986
  610MOL0     C82282  10.861   0.905   8.448 -0.4819 -0.9542 -0.1682
  610MOL0     H82283  10.451   0.655   8.440  0.3438 -1.1854  2.0459
  610MOL0     H82284  10.230   0.600   8.517 -2.9091  0.7521  0.5762
  610MOL0     H82285   9.985   0.901   8.813  0.2972 -1.8089  0.7653
  610MOL0     H82286   9.974   0.920   8.635 -1.2388 -1.0863 -0.1050
  610MOL0     H82287   9.819   0.736   8.631  0.7205  0.4513 -0.5138
  610MOL0     H82288   9.840   0.724   8.809  1.7922 -1.1364 -1.8895
  610MOL0     H82289   9.704   0.884   8.866  0.3653 -1.1606 -0.8356
  610MOL0     H82290   9.775   0.998   8.750 -1.3329  0.6460  2.0162
  610MOL0     H82291   9.624   0.918   8.580  1.9935  0.5995  0.4116
  610MOL0     H82292   9.569   0.778   8.682 -0.9414  0.8774  3.6644
  610MOL0     H82293   9.480   0.962   8.840  0.6234  1.4624  0.0620
  610MOL0     H82294   9.505   1.072   8.711 -4.4227  0.8215  1.1912
  610MOL0     H82295   9.371   0.961   8.554 -1.3620 -0.5540 -0.7754
  610MOL0     H82296   9.348   0.813   8.645 -2.3983  0.3272 -0.4619
  610MOL0     H82297   9.224   1.082   8.717  1.6479 -0.4675 -0.8144
  610MOL0     H82298   9.147   0.946   8.632  0.1995  1.3524 -0.1530
  610MOL0     H82299   9.264   0.918   8.909 -1.1277  2.3274  1.1886
  610MOL0     H82300   9.171   0.797   8.821 -0.0975 -0.0498  0.5143
  610MOL0     H82301   8.948   1.062   8.734 -2.7945  0.9477 -0.5117
  610MOL0     H82302   8.779   1.269   8.932 -3.1972  0.9292 -1.6215
  610MOL0     H82303   8.739   1.184   8.798  0.0466  2.3949  0.9586
  610MOL0     H82304   8.640   1.120   9.074  0.0010 -1.4425  0.2368
  610MOL0     H82305   8.610   1.012   8.937  1.9359  0.6020 -1.3129
  610MOL0     H82306   8.403   1.150   8.973  0.6197 -0.0087  0.9307
  610MOL0     H82307   8.485   1.225   8.824  2.9956  2.1258 -0.6492
  610MOL0     H82308   8.570   1.394   8.982 -0.4617  2.3226  1.4612
  610MOL0     H82309   8.461   1.324   9.107  0.4598  0.2553 -0.3917
  610MOL0     H82310   8.520   1.573   9.096  0.3407  0.8961 -0.2008
  610MOL0     H82311   8.582   1.760   9.245 -0.0707 -1.2315 -2.7495
  610MOL0     H82312   8.567   1.912   9.145 -1.7884  0.3692  0.1445
  610MOL0     H82313   8.465   1.888   9.284  1.7460 -0.6375  1.3876
  610MOL0     H82314   7.960   2.067   8.995  0.3837  0.6701 -0.4370
  610MOL0     H82315   7.850   2.272   9.050  0.8761 -0.6508  0.2584
  610MOL0     H82316   8.036   2.536   9.274 -1.2740 -1.2632  0.0965
  610MOL0     H82317   8.083   2.647   9.142  0.3051 -0.8247  0.2522
  610MOL0     H82318   7.865   2.741   9.163 -3.3057 -1.2242  1.6890
  610MOL0     H82319   7.841   2.662   9.324 -0.3255  1.0331  0.5503
  610MOL0     H82320   8.068   2.859   9.234 -1.3402 -1.6812 -1.8235
  610MOL0     H82321   8.057   2.773   9.394 -3.1962 -1.2310  2.7190
  610MOL0     H82322   7.861   2.997   9.322  0.9083  1.5186  0.7085
  610MOL0     H82323   7.853   2.887   9.458 -0.2237  1.8184  0.7903
  610MOL0     H82324   8.040   3.111   9.413 -0.7815 -0.8662 -0.9736
  610MOL0     H82325   8.089   2.962   9.508 -0.7926 -0.9932 -1.8441
  610MOL0     H82326   7.831   3.127   9.551  0.1488  0.5981 -1.0898
  610MOL0     H82327   7.887   2.987   9.651  3.7154 -1.3014  2.3662
  610MOL0     H82328   8.049   3.251   9.618 -1.1405 -3.5022 -4.1023
  610MOL0     H82329   8.089   3.120   9.719 -0.6095 -1.4668  0.2266
  610MOL0     H82330   8.000   3.290   9.862 -1.8159 -2.9695  4.3890
  610MOL0     H82331   7.892   3.165   9.859  1.9454  0.1146  1.4123
  610MOL0     H82332   8.221   2.486   9.072 -0.8103  0.1270  3.4677
  610MOL0     H82333   8.333   2.285   9.008 -0.5529  0.1004  0.8459
  610MOL0     H82334   8.123   1.802   8.951  0.2233 -0.9952 -1.9407
  610MOL0     H82335   8.140   1.585   8.903  0.1342 -0.5018  0.3117
  610MOL0     H82336  10.189   0.976   8.720  0.1007 -0.1190 -0.2263
  610MOL0     H82337  10.426   1.035   8.644 -0.5856  0.9367  0.1837
  610MOL0     H82338  10.752   1.215   8.328  1.3505 -0.0360 -1.8638
  610MOL0     H82339  10.970   1.224   8.247 -0.1113  0.3152  0.0948
  610MOL0     H82340  11.216   1.240   8.317  1.4978  0.4261  0.7166
  610MOL0     H82341  11.228   1.141   8.459  0.7823  1.1651 -0.3663
  610MOL0     H82342  11.401   1.168   8.220  0.3049  1.9073  0.7703
  610MOL0     H82343  11.421   1.026   8.342  0.3835  0.5321  1.4351
  610MOL0     H82344  11.469   1.204   8.505  0.2185  1.7308 -0.3486
  610MOL0     H82345  11.470   1.320   8.377 -0.3226 -0.8486 -0.6851
  610MOL0     H82346  11.640   1.194   8.255 -0.7406 -1.4830  0.2113
  610MOL0     H82347  11.656   1.074   8.389 -0.1483  0.3926  0.4071
  610MOL0     H82348  11.897   1.363   8.548  2.0270 -0.6642  0.4407
  610MOL0     H82349  11.066   0.853   8.414  0.3169  0.7998 -1.5793
  610MOL0     H82350  10.832   0.810   8.492  0.4282 -0.9707  0.4214
  611MOL0     O82351   7.259   0.772   4.625  0.0453 -0.2232  0.3492
  611MOL0     C82352   7.287   0.851   4.717  0.4205  0.5874  0.3200
  611MOL0     O82353   7.196   0.908   4.807 -0.3490  0.5757 -0.4805
  611MOL0     C82354   7.065   0.884   4.803  0.4601  0.0270 -0.5819
  611MOL0     C82355   6.995   1.007   4.836 -0.6146 -0.1474  0.1023
  611MOL0     C82356   6.854   1.013   4.809  0.3063  1.1050  0.0840
  611MOL0     C82357   6.788   0.900   4.751 -0.2368 -0.9544 -0.1933
  611MOL0     O82358   6.655   0.933   4.716  0.0186 -0.0800 -0.5268
  611MOL0     C82359   6.643   0.933   4.574  0.1093 -0.2792  0.3760
  611MOL0     C82360   6.517   0.993   4.530  0.6138  0.0622  0.0445
  611MOL0     C82361   6.390   0.917   4.575  0.1536 -0.0979 -0.1563
  611MOL0     C82362   6.266   0.988   4.536 -0.4224 -0.5294  0.9183
  611MOL0     C82363   6.139   0.927   4.593  1.1206  0.7932 -0.6330
  611MOL0     C82364   5.997   0.988   4.541 -0.4770  0.3079  0.0910
  611MOL0     C82365   5.890   0.880   4.587  0.7251  0.7026 -0.8790
  611MOL0     C82366   5.759   0.921   4.506 -0.2933  0.1566 -0.3488
  611MOL0     N82367   5.686   1.029   4.577 -0.5713  0.8103  0.7814
  611MOL0     C82368   5.661   1.043   4.715 -0.0111 -0.5692 -0.1204
  611MOL0     C82369   5.580   1.154   4.724  0.0663 -0.6960  0.4159
  611MOL0     C82370   5.524   1.213   4.846  0.7068 -0.8246  0.0836
  611MOL0     C82371   5.389   1.155   4.868  0.8641 -0.8013 -0.4884
  611MOL0     C82372   5.302   1.227   4.973  0.0478  0.8792  0.2599
  611MOL0     C82373   5.170   1.143   5.003 -0.3928 -0.5001 -0.8478
  611MOL0     O82374   5.102   1.204   5.109 -0.4032 -0.0368 -0.3616
  611MOL0     C82375   4.975   1.163   5.152 -0.5397 -0.7324  0.0864
  611MOL0     C82376   4.912   1.050   5.096 -0.3714  0.0315 -0.6188
  611MOL0     C82377   4.780   1.022   5.129 -0.0513 -0.1173  0.3244
  611MOL0     C82378   4.727   0.890   5.058  0.2521 -0.4072 -0.0473
  611MOL0     C82379   4.708   1.096   5.231 -0.4251  0.1805 -0.7368
  611MOL0     C82380   4.576   1.052   5.297  0.9273 -0.0168 -0.4267
  611MOL0     O82381   4.504   0.956   5.239 -0.2603  0.4383 -0.6449
  611MOL0     C82382   4.370   0.949   5.276 -0.4675  0.5945  0.1176
  611MOL0     C82383   4.267   0.981   5.190  0.8053 -0.1231 -0.4109
  611MOL0     C82384   4.132   0.974   5.223  0.1325  1.0740 -0.7867
  611MOL0     C82385   4.096   0.939   5.350 -0.1792  0.1240  0.2478
  611MOL0     O82386   3.966   0.933   5.386  0.4288  0.5357  0.2125
  611MOL0     C82387   3.922   1.048   5.462 -0.3208 -0.4520  0.2155
  611MOL0     C82388   3.770   1.048   5.486  0.8794  0.2315  0.3961
  611MOL0     C82389   3.695   0.961   5.384 -0.0497  0.4706 -1.4143
  611MOL0     C82390   3.543   0.979   5.370 -0.0159  0.3896 -0.2578
  611MOL0     C82391   3.497   1.080   5.272  0.3181 -0.4597 -0.4008
  611MOL0     C82392   3.361   1.128   5.304  0.1662 -0.9707 -0.4443
  611MOL0     C82393   3.299   1.221   5.195 -0.3478 -0.2165  0.4396
  611MOL0     C82394   3.149   1.232   5.209  0.3328  0.2361  0.0049
  611MOL0    Cl82395   3.109   1.323   5.350 -0.1908 -0.2475 -0.0269
  611MOL0     C82396   4.193   0.910   5.447 -0.1560  0.2696  0.5415
  611MOL0     C82397   4.332   0.915   5.403  0.2437 -0.1316 -1.4106
  611MOL0     O82398   4.548   1.107   5.403 -0.5747  1.0350 -0.3267
  611MOL0     C82399   4.773   1.202   5.284 -1.1338  0.2423  0.5738
  611MOL0     C82400   4.907   1.227   5.250  0.5563 -0.4076  0.4096
  611MOL0     N82401   5.589   1.216   4.602  1.4883 -0.1924 -0.2758
  611MOL0     N82402   5.647   1.144   4.520 -0.8008  0.4952  0.1658
  611MOL0     C82403   6.855   0.784   4.719 -1.0017 -0.7456 -0.2738
  611MOL0     C82404   6.989   0.772   4.754 -0.4504  0.2426 -0.3141
  611MOL0     C82405   7.430   0.905   4.731 -0.0149  1.1921 -0.1179
  611MOL0     C82406   7.460   0.990   4.838  0.5296  0.3360  0.3278
  611MOL0     C82407   7.586   1.043   4.863  0.0788 -0.4288  0.4905
  611MOL0     C82408   7.692   0.994   4.780 -0.6885 -0.4305  0.0937
  611MOL0     O82409   7.810   1.065   4.794 -0.0835  0.0552  0.3165
  611MOL0     C82410   7.928   1.030   4.718 -0.5501  0.1590  0.0681
  611MOL0     C82411   8.045   1.116   4.763 -0.3413  0.3569 -0.1134
  611MOL0     C82412   8.078   1.096   4.917 -0.4351 -0.6635  0.2283
  611MOL0     C82413   8.216   1.162   4.960  0.1756 -0.2533  0.4127
  611MOL0     C82414   8.236   1.296   4.909 -0.7120 -0.2171  0.8352
  611MOL0     C82415   8.259   1.409   4.866  0.1041  0.1741  0.7760
  611MOL0     C82416   7.667   0.887   4.686 -0.1173  0.0514 -0.6010
  611MOL0     C82417   7.538   0.854   4.655 -0.4014 -0.0951 -0.5675
  611MOL0     H82418   7.043   1.091   4.886 -1.3907  0.4733 -0.1696
  611MOL0     H82419   6.790   1.098   4.826 -1.5505  0.0690 -1.2982
  611MOL0     H82420   6.724   0.997   4.536  0.7254 -0.8621  0.6892
  611MOL0     H82421   6.662   0.833   4.536  0.0771 -0.3496  0.5442
  611MOL0     H82422   6.510   1.096   4.565  0.5713 -0.3242  1.2117
  611MOL0     H82423   6.520   0.999   4.420  1.4386 -2.0303 -0.0994
  611MOL0     H82424   6.387   0.814   4.539  1.8957 -0.8621  1.7363
  611MOL0     H82425   6.393   0.905   4.684 -1.3358  2.9820  0.3513
  611MOL0     H82426   6.278   1.091   4.572 -0.8724 -0.1795  0.1156
  611MOL0     H82427   6.265   0.994   4.426 -1.2302  2.2294  0.9821
  611MOL0     H82428   6.152   0.821   4.571 -1.0707  0.8648 -2.7527
  611MOL0     H82429   6.142   0.934   4.702 -1.4243 -0.2901 -0.4275
  611MOL0     H82430   5.977   1.088   4.579 -1.5710 -0.7522  2.5784
  611MOL0     H82431   5.997   0.980   4.432 -0.0799  2.3043 -0.0940
  611MOL0     H82432   5.920   0.781   4.550 -0.1565 -0.6243  1.6718
  611MOL0     H82433   5.876   0.870   4.695 -2.1314  1.2930 -1.1134
  611MOL0     H82434   5.694   0.833   4.501 -0.4271  0.3190 -1.9270
  611MOL0     H82435   5.786   0.952   4.404  1.8844 -1.9135 -0.4869
  611MOL0     H82436   5.690   0.981   4.799  1.1005  0.3468  0.1894
  611MOL0     H82437   5.588   1.197   4.933  1.5732 -1.4061 -0.6331
  611MOL0     H82438   5.518   1.322   4.832  0.9682 -0.8209 -0.0102
  611MOL0     H82439   5.402   1.054   4.908 -1.3260 -0.4761  1.2298
  611MOL0     H82440   5.332   1.160   4.774  0.8595 -1.4946 -0.5318
  611MOL0     H82441   5.272   1.329   4.947 -2.7874  0.4008  1.2941
  611MOL0     H82442   5.366   1.237   5.061  1.4542 -2.1007 -0.3001
  611MOL0     H82443   5.184   1.036   5.021  0.4185 -0.4102 -0.9138
  611MOL0     H82444   5.121   1.152   4.906 -0.4592  0.2197 -0.7536
  611MOL0     H82445   4.962   0.985   5.025 -1.9054 -3.4494  1.2208
  611MOL0     H82446   4.633   0.920   5.010  1.3809  1.3008 -1.3002
  611MOL0     H82447   4.795   0.840   4.989  1.6115 -0.2030  1.1210
  611MOL0     H82448   4.700   0.823   5.141 -5.1555  0.1116 -1.0235
  611MOL0     H82449   4.286   1.017   5.089 -0.0416  0.3223 -0.4184
  611MOL0     H82450   4.051   0.993   5.154  0.7009 -1.3520 -2.2563
  611MOL0     H82451   3.975   1.044   5.558 -0.2153 -1.9842  0.1304
  611MOL0     H82452   3.951   1.144   5.418 -0.4811  0.1324  1.3426
  611MOL0     H82453   3.747   1.001   5.582  0.5055 -0.1678  0.1135
  611MOL0     H82454   3.724   1.148   5.483  0.6753  0.1412 -2.7014
  611MOL0     H82455   3.707   0.859   5.423  1.2330  0.4290 -1.8484
  611MOL0     H82456   3.732   0.976   5.282  1.0301  0.0991 -1.0898
  611MOL0     H82457   3.497   0.882   5.351  0.6720  0.0246 -0.0926
  611MOL0     H82458   3.520   1.013   5.471 -0.6333  0.7317 -0.5098
  611MOL0     H82459   3.489   1.034   5.173  2.8537  1.0070 -1.3653
  611MOL0     H82460   3.565   1.166   5.270 -0.1493 -0.0892 -1.7301
  611MOL0     H82461   3.290   1.048   5.326 -0.0371 -0.8881 -0.7872
  611MOL0     H82462   3.359   1.182   5.399 -0.8285 -1.2030 -0.3265
  611MOL0     H82463   3.309   1.175   5.096  0.8201 -0.5285  0.6953
  611MOL0     H82464   3.340   1.322   5.192 -0.6830  0.0368  2.8584
  611MOL0     H82465   3.108   1.130   5.216  1.9093 -0.4511 -0.1838
  611MOL0     H82466   3.107   1.289   5.125 -1.6994  0.3319  1.0276
  611MOL0     H82467   4.159   0.876   5.544 -0.3322 -0.9902  0.0526
  611MOL0     H82468   4.406   0.884   5.477 -0.0261 -0.1403 -1.1409
  611MOL0     H82469   4.740   1.273   5.359  1.3529  1.8015  0.3031
  611MOL0     H82470   4.959   1.303   5.308 -1.4977  1.3087  0.1257
  611MOL0     H82471   6.796   0.700   4.683 -1.8283 -0.2401 -0.1333
  611MOL0     H82472   7.040   0.682   4.721 -0.3708  0.4877 -0.8670
  611MOL0     H82473   7.374   1.023   4.896  0.6797  0.2434  0.6045
  611MOL0     H82474   7.607   1.119   4.938  4.4495 -2.6032  1.7924
  611MOL0     H82475   7.953   0.926   4.740  2.2282  0.8884  0.7329
  611MOL0     H82476   7.918   1.043   4.610 -0.9087 -3.0300 -0.3614
  611MOL0     H82477   8.036   1.224   4.744  1.7490  0.5277 -0.3522
  611MOL0     H82478   8.134   1.093   4.703 -0.8927 -2.5606  0.0507
  611MOL0     H82479   8.066   0.994   4.953  2.0841 -1.4754 -0.9989
  611MOL0     H82480   8.005   1.163   4.964 -1.0996 -0.9224 -0.4081
  611MOL0     H82481   8.305   1.101   4.939  0.6219 -0.7509  3.2683
  611MOL0     H82482   8.216   1.168   5.069  2.5306  1.0997  0.4118
  611MOL0     H82483   8.275   1.512   4.844 -3.3564  0.7411  0.3846
  611MOL0     H82484   7.745   0.853   4.620 -1.9281 -0.9758 -2.3383
  611MOL0     H82485   7.516   0.805   4.561  0.6112 -1.2106 -0.2541
  612MOL0     O82486   3.520   8.448   4.351  0.2123 -0.0234  0.5927
  612MOL0     C82487   3.566   8.402   4.247  0.8435  0.0328 -0.2383
  612MOL0     O82488   3.496   8.363   4.133 -0.1257  0.5237 -0.4701
  612MOL0     C82489   3.365   8.374   4.132  0.1110  0.5592 -0.9971
  612MOL0     C82490   3.301   8.463   4.047 -0.5762 -0.7095  0.4633
  612MOL0     C82491   3.168   8.464   4.030 -0.6794  0.2841 -0.5475
  612MOL0     C82492   3.092   8.395   4.120  0.2261 -0.0099 -0.1049
  612MOL0     O82493   2.958   8.421   4.145  0.5113 -0.0181  0.5455
  612MOL0     C82494   2.883   8.507   4.054  0.2550 -0.2994 -0.2784
  612MOL0     C82495   2.740   8.502   4.129 -0.7475  0.5668  0.2257
  612MOL0     C82496   2.638   8.575   4.048 -0.2309 -0.2383  0.0319
  612MOL0     C82497   2.512   8.606   4.121  0.5337  0.2247  0.2226
  612MOL0     C82498   2.392   8.652   4.035 -0.1613 -0.0810  0.2931
  612MOL0     C82499   2.419   8.754   3.923 -0.0983 -0.5499  0.0715
  612MOL0     C82500   2.288   8.788   3.852  1.0780 -0.1983 -0.1355
  612MOL0     C82501   2.314   8.870   3.724 -0.1009 -0.5771  0.4081
  612MOL0     N82502   2.206   8.854   3.623 -0.1384 -0.5492 -0.1949
  612MOL0     C82503   2.072   8.888   3.645  0.0566 -0.0240  1.2344
  612MOL0     C82504   2.013   8.854   3.527 -0.1797  0.9512  0.1397
  612MOL0     C82505   1.873   8.902   3.485  0.2603 -0.3791  0.5678
  612MOL0     C82506   1.762   8.816   3.559 -0.2051  0.2328  0.5492
  612MOL0     C82507   1.625   8.886   3.528  0.7837  0.7492  0.2440
  612MOL0     C82508   1.520   8.804   3.599 -0.1997  0.3226 -0.3835
  612MOL0     O82509   1.506   8.676   3.534 -0.2455 -0.0615  0.9666
  612MOL0     C82510   1.387   8.608   3.531  0.2136 -1.5381 -0.8659
  612MOL0     C82511   1.277   8.653   3.609  1.0294 -0.3854  0.5419
  612MOL0     C82512   1.153   8.577   3.609 -0.2515 -0.5645 -0.6028
  612MOL0     C82513   1.047   8.637   3.701 -0.4135  0.1547  0.0444
  612MOL0     C82514   1.136   8.461   3.532 -0.4541  0.3716 -0.0047
  612MOL0     C82515   1.015   8.382   3.515 -0.5061  0.5320 -0.2766
  612MOL0     O82516   0.907   8.435   3.578 -0.0800  0.1412 -0.4611
  612MOL0     C82517   0.780   8.396   3.555 -0.4785 -0.0411  0.9541
  612MOL0     C82518   0.724   8.411   3.430 -0.7477  0.1532 -0.5699
  612MOL0     C82519   0.593   8.383   3.416  1.1624  0.4524  0.2691
  612MOL0     C82520   0.512   8.343   3.524 -0.2837  0.1807 -0.1072
  612MOL0     O82521   0.381   8.327   3.503  0.2388  0.4369 -0.4044
  612MOL0     C82522   0.294   8.434   3.552 -0.1477  0.1589  0.1262
  612MOL0     C82523   0.145   8.398   3.543  0.0163 -0.3178 -0.0074
  612MOL0     C82524   0.092   8.380   3.402  0.2638  0.3214 -0.5902
  612MOL0     C82525  -0.059   8.407   3.389  0.6274 -0.8114  0.8077
  612MOL0     C82526  -0.127   8.322   3.282 -0.4711 -0.0668  0.6204
  612MOL0     C82527  -0.069   8.351   3.134 -0.8491 -0.3866 -0.5215
  612MOL0     C82528  -0.095   8.501   3.086 -0.2418 -0.6898 -0.3839
  612MOL0     C82529  -0.080   8.526   2.933  0.7068  0.2801 -0.6740
  612MOL0    Cl82530  -0.235   8.487   2.848  0.1691 -0.2834  0.2133
  612MOL0     C82531   0.568   8.324   3.653  0.0737  0.6208 -0.5816
  612MOL0     C82532   0.698   8.345   3.661 -0.8061  0.3107  0.5503
  612MOL0     O82533   1.016   8.279   3.448 -0.1334  1.2102 -0.4523
  612MOL0     C82534   1.250   8.427   3.449  0.6066  0.7485 -0.2599
  612MOL0     C82535   1.371   8.498   3.452  0.7146 -0.3195 -0.2156
  612MOL0     N82536   2.105   8.783   3.449  0.0851 -0.0562 -0.5501
  612MOL0     N82537   2.217   8.784   3.509  0.1399 -0.9148  0.1938
  612MOL0     C82538   3.152   8.314   4.212 -0.4031 -0.3053 -0.8957
  612MOL0     C82539   3.291   8.299   4.218  0.1012 -0.8467 -0.3800
  612MOL0     C82540   3.708   8.387   4.243 -0.0074 -0.1972 -1.0963
  612MOL0     C82541   3.774   8.329   4.131 -1.1509 -0.2711  0.2954
  612MOL0     C82542   3.912   8.302   4.136  0.4874  0.1405  0.7148
  612MOL0     C82543   3.991   8.334   4.246 -0.0705 -0.1175 -0.7376
  612MOL0     O82544   4.127   8.319   4.229  0.0991  0.3127 -1.1288
  612MOL0     C82545   4.210   8.363   4.337  0.2135  0.3757 -0.1054
  612MOL0     C82546   4.351   8.334   4.306  0.0448  0.1904  0.5377
  612MOL0     C82547   4.381   8.188   4.273  0.3173  0.1046  0.1622
  612MOL0     C82548   4.530   8.149   4.264 -0.0277 -0.0852  0.3292
  612MOL0     C82549   4.547   8.003   4.264 -0.0790  0.4847  0.4461
  612MOL0     C82550   4.539   7.880   4.246 -0.4985 -0.0500 -0.0082
  612MOL0     C82551   3.940   8.403   4.356  0.3353 -0.0304 -0.2185
  612MOL0     C82552   3.796   8.423   4.349  0.2673  0.8255 -1.2224
  612MOL0     H82553   3.363   8.529   3.987 -1.8418 -0.0431 -0.1493
  612MOL0     H82554   3.137   8.541   3.959 -0.6183 -0.0210 -0.9099
  612MOL0     H82555   2.928   8.606   4.049 -3.2846  1.4709 -0.7123
  612MOL0     H82556   2.885   8.464   3.953  1.5152 -1.0223  0.0314
  612MOL0     H82557   2.715   8.397   4.145  2.2586 -0.4732 -1.0372
  612MOL0     H82558   2.758   8.541   4.230  0.4760  0.3580  0.1093
  612MOL0     H82559   2.683   8.669   4.014 -0.3682  0.0830  0.7183
  612MOL0     H82560   2.617   8.521   3.955  2.7991 -1.3415 -0.1148
  612MOL0     H82561   2.468   8.517   4.167 -1.1471 -0.0577 -1.7610
  612MOL0     H82562   2.536   8.678   4.199 -1.2042 -1.6340  2.6108
  612MOL0     H82563   2.345   8.565   3.988  0.2623  0.0550 -0.3930
  612MOL0     H82564   2.322   8.695   4.107 -2.4045  0.9148 -2.2970
  612MOL0     H82565   2.462   8.848   3.961 -0.1592 -0.7541  0.6480
  612MOL0     H82566   2.485   8.703   3.852  1.9237 -1.7074  2.5961
  612MOL0     H82567   2.255   8.690   3.816  3.2031 -1.5622  1.3989
  612MOL0     H82568   2.211   8.832   3.917  0.8584 -1.8710  0.7962
  612MOL0     H82569   2.412   8.851   3.680 -0.0904  0.5223 -0.0712
  612MOL0     H82570   2.309   8.974   3.760 -0.3417 -1.0439  1.7909
  612MOL0     H82571   2.025   8.953   3.719 -0.5544  2.5359 -1.2408
  612MOL0     H82572   1.855   9.003   3.524  1.2844 -0.5082  1.4273
  612MOL0     H82573   1.859   8.894   3.377  1.6770  0.3377  0.3000
  612MOL0     H82574   1.783   8.817   3.666 -0.1154  0.4885  0.5286
  612MOL0     H82575   1.758   8.713   3.520 -1.5232 -0.1048  1.4893
  612MOL0     H82576   1.609   8.899   3.420 -0.5770  1.8023  0.5472
  612MOL0     H82577   1.625   8.982   3.580 -0.3576  1.1207 -0.3992
  612MOL0     H82578   1.424   8.856   3.598 -0.4086 -0.0637 -0.2572
  612MOL0     H82579   1.548   8.780   3.701 -4.3563 -0.0043  0.8577
  612MOL0     H82580   1.277   8.745   3.668 -0.8963  0.4648 -0.6761
  612MOL0     H82581   0.963   8.663   3.636 -1.4027  1.0800  1.6144
  612MOL0     H82582   1.013   8.558   3.769  0.7683  2.7964  4.0967
  612MOL0     H82583   1.082   8.713   3.772 -1.1331  1.4412 -0.9169
  612MOL0     H82584   0.787   8.454   3.353 -0.2828  0.6924  0.1007
  612MOL0     H82585   0.550   8.380   3.317  0.4019 -0.9163  0.6057
  612MOL0     H82586   0.314   8.454   3.657 -2.1760  0.1350  0.5640
  612MOL0     H82587   0.306   8.524   3.491 -0.9781  0.6440  0.6540
  612MOL0     H82588   0.123   8.306   3.597  0.0410  0.3086  1.1031
  612MOL0     H82589   0.096   8.483   3.590  1.8071  0.8227 -0.0835
  612MOL0     H82590   0.118   8.282   3.362 -0.2513 -0.1843  0.2826
  612MOL0     H82591   0.136   8.453   3.334 -0.3977 -1.4341 -3.0494
  612MOL0     H82592  -0.108   8.379   3.483 -3.2513  1.4878 -0.2903
  612MOL0     H82593  -0.082   8.514   3.381  0.3632 -0.9240 -0.0251
  612MOL0     H82594  -0.235   8.342   3.286 -0.6233 -0.9592  1.6477
  612MOL0     H82595  -0.109   8.216   3.303 -3.1775 -1.2027 -2.0016
  612MOL0     H82596   0.038   8.326   3.134 -1.0008 -1.0540 -0.2043
  612MOL0     H82597  -0.128   8.287   3.068  0.2286 -0.6712 -1.2441
  612MOL0     H82598  -0.013   8.559   3.131 -0.2371 -1.3069  0.4209
  612MOL0     H82599  -0.184   8.541   3.135  2.1204  0.6767  3.2702
  612MOL0     H82600  -0.006   8.450   2.908 -1.5191 -2.2265 -0.0399
  612MOL0     H82601  -0.039   8.625   2.909  2.1913 -0.7415 -2.6309
  612MOL0     H82602   0.500   8.288   3.729 -0.8769 -1.0373 -2.1184
  612MOL0     H82603   0.741   8.344   3.760  1.8213 -0.8977 -0.5119
  612MOL0     H82604   1.257   8.340   3.384  2.9544  0.4241  0.3183
  612MOL0     H82605   1.454   8.478   3.385  2.2768  0.5349  1.3923
  612MOL0     H82606   3.093   8.260   4.285  1.1028  0.0680  0.6550
  612MOL0     H82607   3.345   8.221   4.272  0.4917 -2.6460 -3.1174
  612MOL0     H82608   3.709   8.313   4.045 -0.6316  0.3914 -0.2295
  612MOL0     H82609   3.955   8.244   4.055  0.8072  0.2537  0.8003
  612MOL0     H82610   4.199   8.469   4.364 -1.2843 -0.3475  2.4029
  612MOL0     H82611   4.184   8.308   4.427 -0.3092  0.3271 -0.2810
  612MOL0     H82612   4.400   8.366   4.398  0.2044  0.0642  0.4966
  612MOL0     H82613   4.377   8.400   4.222 -2.1686  2.1896  1.3014
  612MOL0     H82614   4.329   8.177   4.177  0.0372  2.0827  0.0509
  612MOL0     H82615   4.335   8.118   4.344 -1.6589  0.2806 -0.8550
  612MOL0     H82616   4.589   8.191   4.346  1.2812 -0.4828 -0.3802
  612MOL0     H82617   4.569   8.195   4.172 -3.1143  1.2622 -0.4450
  612MOL0     H82618   4.541   7.776   4.222 -3.1210  0.2452 -1.9237
  612MOL0     H82619   3.989   8.431   4.449 -2.8800 -2.0814  2.3428
  612MOL0     H82620   3.746   8.469   4.434 -2.3793 -0.3247 -2.0295
  613MOL0     O82621   7.809   1.627   7.160 -0.1888  0.5922  0.4011
  613MOL0     C82622   7.797   1.727   7.092 -0.0899  0.2492  0.5667
  613MOL0     O82623   7.684   1.791   7.051  0.0958 -0.1510  0.0566
  613MOL0     C82624   7.561   1.743   7.083  0.2382 -0.6316  0.7651
  613MOL0     C82625   7.465   1.707   6.989  0.7513 -0.1524  0.0585
  613MOL0     C82626   7.328   1.680   7.019 -0.3224 -0.1912 -0.6164
  613MOL0     C82627   7.289   1.678   7.154 -0.0866  0.7013 -0.0405
  613MOL0     O82628   7.160   1.654   7.207 -0.7081 -0.2481  0.3852
  613MOL0     C82629   7.066   1.603   7.115 -0.0032  0.1269 -0.8214
  613MOL0     C82630   6.928   1.614   7.186 -0.5663  0.4154 -0.5144
  613MOL0     C82631   6.916   1.519   7.310  0.1338  1.3381  0.1898
  613MOL0     C82632   6.933   1.370   7.280  0.4780  0.0742 -0.5076
  613MOL0     C82633   6.945   1.283   7.402 -0.3146 -0.3773  0.0386
  613MOL0     C82634   6.851   1.300   7.526  0.2725  0.2567  0.1289
  613MOL0     C82635   6.872   1.187   7.626 -1.0016 -0.3670  0.0511
  613MOL0     C82636   6.804   1.205   7.761 -0.4554  0.1340  0.6636
  613MOL0     N82637   6.660   1.214   7.739 -0.3492  0.3553 -0.0813
  613MOL0     C82638   6.589   1.326   7.709  0.2087 -0.6687  0.9300
  613MOL0     C82639   6.455   1.284   7.699 -0.8618 -0.1534  0.6296
  613MOL0     C82640   6.355   1.390   7.666 -1.2485  0.5517  0.0890
  613MOL0     C82641   6.369   1.422   7.513 -0.8536 -0.1764 -0.2610
  613MOL0     C82642   6.277   1.540   7.459 -0.3032  0.6199  0.2765
  613MOL0     C82643   6.152   1.565   7.539 -0.4941 -0.2829  0.1834
  613MOL0     O82644   6.076   1.674   7.478 -0.7849  0.7159 -0.1478
  613MOL0     C82645   5.950   1.703   7.530 -1.3103 -0.1185 -0.5275
  613MOL0     C82646   5.866   1.780   7.443  0.3528  0.4934 -0.4696
  613MOL0     C82647   5.741   1.818   7.481 -0.4149 -0.7955 -0.0639
  613MOL0     C82648   5.670   1.893   7.371  0.2738  0.3511  0.5676
  613MOL0     C82649   5.684   1.776   7.607 -0.6245 -0.1670  0.1597
  613MOL0     C82650   5.541   1.819   7.642  0.0027 -0.2547 -0.5413
  613MOL0     O82651   5.492   1.936   7.590  0.3657  0.4167 -0.1167
  613MOL0     C82652   5.367   1.968   7.633  0.8562 -0.4593  0.0595
  613MOL0     C82653   5.252   1.923   7.566  0.4080 -0.2290 -0.2569
  613MOL0     C82654   5.124   1.969   7.608 -0.2933 -0.7801  0.4269
  613MOL0     C82655   5.113   2.061   7.713 -0.2617 -0.5282 -0.5235
  613MOL0     O82656   5.007   2.114   7.786  0.3096  0.1291  0.3587
  613MOL0     C82657   4.875   2.071   7.760 -0.1237 -0.0223 -0.2192
  613MOL0     C82658   4.806   2.082   7.894 -0.1714  0.4857  0.4754
  613MOL0     C82659   4.676   1.996   7.891  0.0998 -1.0586 -0.5622
  613MOL0     C82660   4.579   2.050   8.000  0.3941 -0.2166  0.1874
  613MOL0     C82661   4.457   1.969   7.994 -0.8190  0.2638  0.8001
  613MOL0     C82662   4.331   2.052   8.008 -0.3787  0.0451  0.2555
  613MOL0     C82663   4.231   1.959   8.068 -0.2780  0.1338 -0.8314
  613MOL0     C82664   4.082   2.018   8.082 -0.6610  0.7843  0.8657
  613MOL0    Cl82665   3.975   1.914   8.180  0.4200  0.2215  0.3184
  613MOL0     C82666   5.231   2.105   7.783  0.4944  0.1942  0.6703
  613MOL0     C82667   5.354   2.062   7.736 -0.7220 -0.1634  0.6914
  613MOL0     O82668   5.483   1.755   7.736  0.1267  0.0017  0.5728
  613MOL0     C82669   5.764   1.695   7.692 -0.0659 -0.5567  0.5813
  613MOL0     C82670   5.894   1.661   7.659 -0.3664  0.6874 -0.5683
  613MOL0     N82671   6.454   1.144   7.701  0.4268 -0.7080 -0.1803
  613MOL0     N82672   6.576   1.110   7.733  0.4041  0.4935 -0.9646
  613MOL0     C82673   7.382   1.722   7.251  0.7176 -0.5835  0.1371
  613MOL0     C82674   7.512   1.756   7.209 -0.5733  0.7471 -0.8219
  613MOL0     C82675   7.923   1.796   7.054  0.5354 -0.2032  0.5781
  613MOL0     C82676   8.024   1.808   7.147  0.0189  0.1855  0.5151
  613MOL0     C82677   8.138   1.884   7.117 -0.4175  0.3487  0.0528
  613MOL0     C82678   8.157   1.947   6.996  0.3251 -0.8212 -0.7459
  613MOL0     O82679   8.263   2.034   6.961 -0.0698  0.1966 -0.7119
  613MOL0     C82680   8.377   2.014   7.040  0.2172  0.1867 -0.6586
  613MOL0     C82681   8.502   2.088   6.984  0.0144  0.9910 -0.8094
  613MOL0     C82682   8.541   2.024   6.848 -0.3067 -0.3468 -0.5187
  613MOL0     C82683   8.671   2.080   6.803 -0.7511 -0.4908  0.1015
  613MOL0     C82684   8.670   2.228   6.796  0.2303 -0.6506  0.3721
  613MOL0     C82685   8.672   2.352   6.793 -0.7474  0.0083  0.2034
  613MOL0     C82686   8.047   1.938   6.908 -0.2828  0.6403  0.3228
  613MOL0     C82687   7.930   1.860   6.935  0.2276  0.4006  0.2664
  613MOL0     H82688   7.479   1.715   6.882 -0.2993 -1.1819 -0.1704
  613MOL0     H82689   7.258   1.649   6.942 -1.9628 -1.9065  1.4599
  613MOL0     H82690   7.062   1.669   7.028 -2.8445 -0.6090 -1.3499
  613MOL0     H82691   7.108   1.503   7.098  0.5003 -0.4588  2.9822
  613MOL0     H82692   6.912   1.718   7.215  1.3539 -0.0228  2.5194
  613MOL0     H82693   6.843   1.586   7.124 -0.5661 -2.6504  0.7275
  613MOL0     H82694   6.996   1.550   7.378 -0.1126 -1.2498  1.7683
  613MOL0     H82695   6.815   1.527   7.352 -1.4016 -0.1349 -2.9072
  613MOL0     H82696   6.846   1.341   7.221 -1.6234  1.4394  1.6978
  613MOL0     H82697   7.021   1.368   7.216  1.7294 -0.1849  1.1464
  613MOL0     H82698   6.939   1.180   7.365 -0.4850 -0.6980  0.9363
  613MOL0     H82699   7.047   1.299   7.438  0.5677 -0.8093 -2.1232
  613MOL0     H82700   6.883   1.390   7.580  0.5123  0.3757 -0.2065
  613MOL0     H82701   6.753   1.318   7.480  0.8896 -0.0614 -1.3694
  613MOL0     H82702   6.847   1.098   7.568 -1.0904 -0.2291 -0.1210
  613MOL0     H82703   6.975   1.187   7.664 -1.7984 -3.5633  2.6342
  613MOL0     H82704   6.830   1.302   7.803 -0.0729  1.3359 -2.1019
  613MOL0     H82705   6.830   1.121   7.826 -2.5013 -1.6856 -0.6849
  613MOL0     H82706   6.617   1.431   7.714 -1.6549 -0.1341  0.8882
  613MOL0     H82707   6.252   1.357   7.684 -0.9784 -0.8762 -0.8126
  613MOL0     H82708   6.389   1.476   7.724  1.3733  0.6449 -1.4500
  613MOL0     H82709   6.346   1.331   7.458  0.5930  0.1001 -1.3692
  613MOL0     H82710   6.472   1.449   7.487  0.1745 -2.7262  0.8804
  613MOL0     H82711   6.248   1.528   7.354 -0.2646  0.0100  0.3277
  613MOL0     H82712   6.333   1.634   7.453  2.5555 -0.8470  1.6356
  613MOL0     H82713   6.179   1.600   7.639 -0.1264  0.6162 -0.2215
  613MOL0     H82714   6.092   1.474   7.549 -3.6455  1.5152 -1.0269
  613MOL0     H82715   5.899   1.816   7.346  0.7791  1.6642  0.0878
  613MOL0     H82716   5.565   1.863   7.364  0.7958 -1.9837  1.8115
  613MOL0     H82717   5.685   1.998   7.398  0.8383  0.6371 -0.8056
  613MOL0     H82718   5.724   1.879   7.277  1.8635 -1.8208  1.7132
  613MOL0     H82719   5.259   1.860   7.478  1.9230  2.3152 -2.1022
  613MOL0     H82720   5.043   1.929   7.549 -0.1652  1.5525 -1.4519
  613MOL0     H82721   4.830   2.136   7.685  1.3787  1.2942 -0.0316
  613MOL0     H82722   4.868   1.966   7.729 -0.3996 -1.3892  3.8913
  613MOL0     H82723   4.874   2.039   7.968 -0.0217  2.3717  1.4966
  613MOL0     H82724   4.782   2.186   7.919 -2.0333  0.0595  0.6294
  613MOL0     H82725   4.693   1.890   7.909  0.2124 -0.8160  0.9100
  613MOL0     H82726   4.640   2.021   7.791  2.1139 -1.3415 -1.3862
  613MOL0     H82727   4.620   2.054   8.101  4.0173  3.7933 -1.1526
  613MOL0     H82728   4.552   2.153   7.973  0.3211 -0.3913 -0.4366
  613MOL0     H82729   4.472   1.888   8.066 -2.3494  0.5977  1.5441
  613MOL0     H82730   4.445   1.928   7.893 -3.9620 -1.6484  1.8097
  613MOL0     H82731   4.342   2.139   8.074 -0.0743  1.0522 -1.0827
  613MOL0     H82732   4.301   2.076   7.906  2.0882  0.0220 -0.5295
  613MOL0     H82733   4.263   1.941   8.171  0.8402  0.8302 -1.0351
  613MOL0     H82734   4.225   1.866   8.012  0.9648 -1.7769  1.9811
  613MOL0     H82735   4.044   2.032   7.980 -1.8689  1.8705  1.4321
  613MOL0     H82736   4.096   2.118   8.124 -0.1140  1.2740 -0.4369
  613MOL0     H82737   5.216   2.167   7.871 -4.9951  0.8361 -0.3489
  613MOL0     H82738   5.441   2.100   7.789 -2.1598  1.2828  2.1414
  613MOL0     H82739   5.727   1.666   7.790  1.1370  1.5143  1.7179
  613MOL0     H82740   5.959   1.601   7.723  0.6485  1.7216 -0.5878
  613MOL0     H82741   7.342   1.714   7.352 -1.1735 -0.3967 -0.5642
  613MOL0     H82742   7.585   1.771   7.288 -0.4468  1.1806 -1.0205
  613MOL0     H82743   8.020   1.763   7.245  1.2225  1.0754  0.9922
  613MOL0     H82744   8.213   1.900   7.194  0.8498 -1.6125 -0.6979
  613MOL0     H82745   8.356   2.039   7.144 -2.7218  0.5718 -1.2409
  613MOL0     H82746   8.398   1.907   7.033 -0.9954 -0.1425  0.2337
  613MOL0     H82747   8.580   2.076   7.060 -1.3980 -1.0171  0.4366
  613MOL0     H82748   8.491   2.197   6.982  0.5044  1.1766  2.0635
  613MOL0     H82749   8.467   2.043   6.769 -0.9344 -2.5579 -0.5542
  613MOL0     H82750   8.555   1.915   6.854  0.2081 -0.5394 -3.6185
  613MOL0     H82751   8.711   2.038   6.709  1.2977  2.1255 -0.3179
  613MOL0     H82752   8.739   2.044   6.881  0.8115  0.2300 -0.8652
  613MOL0     H82753   8.666   2.459   6.800  2.8473  0.3860 -0.5699
  613MOL0     H82754   8.057   2.002   6.821  1.9548  0.6301  0.5177
  613MOL0     H82755   7.846   1.850   6.868 -1.8270 -1.1281  2.8636
  614MOL0     O82756   6.710  10.356   3.042  0.0079  0.1840  0.5548
  614MOL0     C82757   6.799  10.278   3.004  0.0996 -0.0615  0.6897
  614MOL0     O82758   6.782  10.148   2.970  0.9626 -0.3330  0.3125
  614MOL0     C82759   6.651  10.089   2.960 -0.3808  0.9143 -0.1960
  614MOL0     C82760   6.531  10.164   2.940 -0.7269  0.0196 -0.3097
  614MOL0     C82761   6.409  10.082   2.945 -0.2585 -0.0899  0.9078
  614MOL0     C82762   6.406   9.942   2.969 -0.2273 -0.4001  0.2671
  614MOL0     O82763   6.283   9.890   2.974 -0.2322 -0.1949  0.0533
  614MOL0     C82764   6.268   9.757   3.012  0.1443 -0.2145 -0.4782
  614MOL0     C82765   6.126   9.739   3.066  0.0627 -0.5125  0.7077
  614MOL0     C82766   6.026   9.737   2.950  0.3458  0.2639 -0.1096
  614MOL0     C82767   5.879   9.714   2.995  0.6929 -0.1300  0.1677
  614MOL0     C82768   5.812   9.842   3.051 -0.6590 -0.2788 -0.7807
  614MOL0     C82769   5.666   9.833   3.087  0.4119  0.0692 -0.4419
  614MOL0     C82770   5.602   9.972   3.112  0.8207  0.1011  0.1419
  614MOL0     C82771   5.453   9.979   3.132 -0.5392  0.1237  0.6376
  614MOL0     N82772   5.402   9.879   3.225 -0.0639  0.0796 -0.6841
  614MOL0     C82773   5.370   9.750   3.202  0.1341 -0.6437 -1.0259
  614MOL0     C82774   5.325   9.692   3.318 -0.1970 -0.4839 -0.2471
  614MOL0     C82775   5.286   9.548   3.348  0.1795  0.7814 -0.0397
  614MOL0     C82776   5.128   9.546   3.358 -0.2322  0.6756  0.9782
  614MOL0     C82777   5.078   9.396   3.357  0.1166  0.6976 -0.0686
  614MOL0     C82778   5.076   9.361   3.510 -0.6812 -0.0061 -0.6574
  614MOL0     O82779   5.076   9.221   3.537  0.3031 -0.0430  0.0986
  614MOL0     C82780   4.955   9.158   3.539  0.2269  0.2523  0.5199
  614MOL0     C82781   4.962   9.018   3.555 -0.3307 -0.2945 -0.0742
  614MOL0     C82782   4.848   8.932   3.585  0.0191 -0.2190  0.2954
  614MOL0     C82783   4.876   8.785   3.604 -1.2072 -0.3031 -0.7982
  614MOL0     C82784   4.718   8.991   3.571  0.1905 -0.1759 -0.6943
  614MOL0     C82785   4.595   8.915   3.597 -0.1651 -0.0853  0.6989
  614MOL0     O82786   4.480   8.961   3.538 -0.6657 -0.1101  0.2314
  614MOL0     C82787   4.362   8.883   3.534  0.6295  0.1426  0.2130
  614MOL0     C82788   4.292   8.845   3.648  0.6383 -0.0865  0.6722
  614MOL0     C82789   4.159   8.800   3.638 -0.0508  0.7476  0.5429
  614MOL0     C82790   4.091   8.793   3.514  0.2052 -1.1531 -0.1972
  614MOL0     O82791   3.962   8.754   3.515 -0.0945  0.0044 -0.2154
  614MOL0     C82792   3.925   8.663   3.415 -0.2606 -0.1533 -0.0815
  614MOL0     C82793   3.791   8.605   3.467  0.2416 -0.2706  0.0525
  614MOL0     C82794   3.673   8.666   3.404 -0.2579 -0.7329 -0.4940
  614MOL0     C82795   3.538   8.612   3.462  0.7932 -0.7602 -0.2892
  614MOL0     C82796   3.417   8.679   3.407  0.4278 -0.2007  0.5840
  614MOL0     C82797   3.368   8.817   3.459  0.4025 -0.5099  0.6131
  614MOL0     C82798   3.228   8.852   3.406  0.4020  0.6282 -0.1557
  614MOL0     C82799   3.121   8.800   3.498  0.5690 -0.0299 -0.4914
  614MOL0    Cl82800   2.971   8.898   3.493 -0.2921 -0.3580  0.3125
  614MOL0     C82801   4.165   8.834   3.397  0.1069  0.6040 -0.1914
  614MOL0     C82802   4.297   8.878   3.416 -0.8671 -0.7261 -0.4619
  614MOL0     O82803   4.592   8.833   3.682  0.0181  0.5479  0.1004
  614MOL0     C82804   4.711   9.130   3.543 -0.3088 -0.1757  0.5703
  614MOL0     C82805   4.826   9.211   3.524  0.3935 -0.2702 -0.6891
  614MOL0     N82806   5.347   9.787   3.412 -0.1859  0.4446  0.3227
  614MOL0     N82807   5.387   9.897   3.362  0.4075 -0.3948  0.2790
  614MOL0     C82808   6.529   9.881   2.986  0.5223 -0.1404 -0.4291
  614MOL0     C82809   6.649   9.946   2.981 -0.1255  0.3327 -0.0198
  614MOL0     C82810   6.935  10.335   3.005  0.3618 -0.2550  0.7283
  614MOL0     C82811   7.041  10.279   2.931 -0.1534 -0.3257 -0.1672
  614MOL0     C82812   7.170  10.337   2.940  0.5868  0.7774  0.7424
  614MOL0     C82813   7.193  10.454   3.017 -0.6687 -0.3689  0.4524
  614MOL0     O82814   7.321  10.512   3.030  0.5952 -0.0430  1.0482
  614MOL0     C82815   7.438  10.442   2.972  0.3551  1.3216  0.3877
  614MOL0     C82816   7.573  10.513   2.999 -0.0003  0.3645 -0.3701
  614MOL0     C82817   7.605  10.536   3.154  0.1211  0.7889 -0.5256
  614MOL0     C82818   7.748  10.537   3.191  0.1344  0.3184  0.9465
  614MOL0     C82819   7.822  10.421   3.169  0.2543  0.2293  0.1941
  614MOL0     C82820   7.884  10.317   3.150  0.1301 -0.1289 -0.6679
  614MOL0     C82821   7.084  10.506   3.087 -0.9290 -0.7030 -0.8257
  614MOL0     C82822   6.960  10.454   3.081 -0.4456 -0.6154 -0.5565
  614MOL0     H82823   6.515  10.270   2.929 -1.3424 -0.1174 -0.7555
  614MOL0     H82824   6.312  10.125   2.922  0.0796 -0.4846 -1.5684
  614MOL0     H82825   6.295   9.693   2.928 -1.6856  1.8042 -2.7808
  614MOL0     H82826   6.329   9.730   3.099  1.9677  3.2571 -0.4953
  614MOL0     H82827   6.107   9.651   3.128  1.1474 -1.4854 -0.2879
  614MOL0     H82828   6.105   9.835   3.115  0.4921  0.0334 -0.1501
  614MOL0     H82829   6.032   9.833   2.898 -1.2051  1.2838  1.5053
  614MOL0     H82830   6.056   9.660   2.878 -3.8666  1.0371 -3.0211
  614MOL0     H82831   5.819   9.677   2.912 -2.4940  1.7711  1.4377
  614MOL0     H82832   5.882   9.632   3.068 -0.3842  0.2479  0.6625
  614MOL0     H82833   5.868   9.870   3.141 -1.2780 -2.4444  0.3686
  614MOL0     H82834   5.823   9.915   2.971  2.0007 -1.5180 -1.6634
  614MOL0     H82835   5.614   9.784   3.004  0.0561  0.4410 -0.4429
  614MOL0     H82836   5.650   9.771   3.176  2.3174 -0.2916 -0.3108
  614MOL0     H82837   5.648  10.024   3.196 -0.5528  0.6943  0.5607
  614MOL0     H82838   5.622  10.026   3.018  1.6816 -0.5707 -0.0728
  614MOL0     H82839   5.393   9.965   3.041 -1.4453  2.4367  0.7982
  614MOL0     H82840   5.427  10.081   3.162  1.2588 -0.1209  3.3405
  614MOL0     H82841   5.394   9.694   3.112 -0.6859 -0.0993 -1.5919
  614MOL0     H82842   5.328   9.477   3.276 -3.6952 -1.4564 -0.3273
  614MOL0     H82843   5.322   9.534   3.451  0.9581  2.4320 -0.0521
  614MOL0     H82844   5.075   9.596   3.276 -2.4683 -2.8711  0.0424
  614MOL0     H82845   5.098   9.586   3.455 -0.3763 -2.4737  2.3396
  614MOL0     H82846   5.132   9.329   3.288 -2.9764  1.6663 -3.8054
  614MOL0     H82847   4.976   9.398   3.317  0.0700  0.2596  0.0238
  614MOL0     H82848   5.002   9.412   3.572  2.3478  2.0763  1.5691
  614MOL0     H82849   5.165   9.402   3.558 -0.8557 -0.9258  0.5158
  614MOL0     H82850   5.060   8.972   3.555 -1.2630 -2.4649  1.6729
  614MOL0     H82851   4.798   8.741   3.540 -1.7617  0.5783 -0.7473
  614MOL0     H82852   4.964   8.758   3.546  0.9139  2.0259  1.1165
  614MOL0     H82853   4.865   8.761   3.710 -2.7345 -1.7806 -1.2487
  614MOL0     H82854   4.328   8.851   3.751 -0.5504  0.9503  1.0451
  614MOL0     H82855   4.099   8.771   3.724 -1.5123 -0.6870 -0.8795
  614MOL0     H82856   3.915   8.719   3.322 -0.4727  0.1307  0.1117
  614MOL0     H82857   3.994   8.580   3.396 -1.7061 -1.2013 -0.9385
  614MOL0     H82858   3.781   8.497   3.455 -1.0587 -0.6423  3.5648
  614MOL0     H82859   3.777   8.627   3.573  0.4033  1.3886 -0.2453
  614MOL0     H82860   3.676   8.637   3.298  0.9940  0.1346 -0.7185
  614MOL0     H82861   3.684   8.774   3.412 -1.0143 -0.3555 -3.5374
  614MOL0     H82862   3.533   8.504   3.446  0.2062 -1.0342  1.4869
  614MOL0     H82863   3.539   8.619   3.571 -0.7980 -4.0287  0.0742
  614MOL0     H82864   3.329   8.614   3.409 -0.7446  1.2204 -1.2563
  614MOL0     H82865   3.437   8.695   3.301 -2.5236  1.8775  0.2076
  614MOL0     H82866   3.374   8.830   3.568  0.6965 -0.6335  0.6135
  614MOL0     H82867   3.429   8.903   3.429  2.2601 -1.8341  0.3846
  614MOL0     H82868   3.226   8.822   3.301  0.8033  0.0899 -0.0158
  614MOL0     H82869   3.213   8.960   3.403 -1.1450  0.4276 -3.0887
  614MOL0     H82870   3.160   8.818   3.599  2.1203  2.0953 -1.3890
  614MOL0     H82871   3.092   8.695   3.485 -3.8475  0.9615 -0.0270
  614MOL0     H82872   4.131   8.832   3.294 -1.7775  2.5981  0.3213
  614MOL0     H82873   4.334   8.921   3.323 -2.3741 -1.0698 -1.2469
  614MOL0     H82874   4.614   9.179   3.548 -0.3140 -0.3352  2.8251
  614MOL0     H82875   4.797   9.315   3.514 -2.6033 -0.8066  1.0039
  614MOL0     H82876   6.523   9.773   2.983 -1.3130 -0.0678 -0.2900
  614MOL0     H82877   6.738   9.884   2.982 -2.0718 -2.9632 -4.0482
  614MOL0     H82878   7.021  10.198   2.860  1.2072  0.7548 -1.8806
  614MOL0     H82879   7.246  10.284   2.883 -0.1719  0.5252 -0.0618
  614MOL0     H82880   7.438  10.344   3.020 -5.1245  0.5383 -0.5785
  614MOL0     H82881   7.429  10.438   2.863  0.4205 -0.9454  0.4319
  614MOL0     H82882   7.587  10.599   2.934  1.0587  0.3901 -0.1324
  614MOL0     H82883   7.651  10.448   2.957 -0.0232 -1.7611  2.5592
  614MOL0     H82884   7.555  10.453   3.205  0.9842 -0.3774 -1.4765
  614MOL0     H82885   7.556  10.630   3.179 -0.0939  0.5830 -0.1810
  614MOL0     H82886   7.750  10.543   3.300 -1.4013 -2.3942  1.2296
  614MOL0     H82887   7.797  10.619   3.139  2.5992 -1.3274  0.4787
  614MOL0     H82888   7.943  10.231   3.124  2.2689  1.1313 -0.2268
  614MOL0     H82889   7.111  10.574   3.167 -0.8739 -0.3293 -1.1522
  614MOL0     H82890   6.879  10.493   3.141 -0.6378 -0.9478 -0.5990
  615MOL0     O82891   6.171   3.252   4.526  0.0669 -0.2426 -0.2373
  615MOL0     C82892   6.223   3.337   4.461 -0.6693 -0.2042  0.1155
  615MOL0     O82893   6.178   3.468   4.446 -0.6898 -0.5095  0.1654
  615MOL0     C82894   6.059   3.511   4.508  0.5810  0.3918 -0.4891
  615MOL0     C82895   5.967   3.587   4.438  0.3319  0.4915  1.0203
  615MOL0     C82896   5.853   3.628   4.503 -0.0193 -0.7894  0.9026
  615MOL0     C82897   5.828   3.601   4.632  0.9339  1.5423 -0.3287
  615MOL0     O82898   5.705   3.638   4.681 -0.4723 -0.8737 -0.3761
  615MOL0     C82899   5.620   3.538   4.750 -0.5262 -0.3118 -0.1197
  615MOL0     C82900   5.549   3.615   4.864  0.3482 -0.0122  0.0523
  615MOL0     C82901   5.454   3.727   4.812 -0.4709 -0.0157 -0.1468
  615MOL0     C82902   5.403   3.829   4.917 -0.2028  0.7815  0.8205
  615MOL0     C82903   5.310   3.933   4.858  0.2898  0.3190 -0.0944
  615MOL0     C82904   5.370   4.030   4.761  0.7329 -0.6478  0.5408
  615MOL0     C82905   5.259   4.137   4.736 -0.5516 -0.5298  0.7488
  615MOL0     C82906   5.314   4.217   4.617 -0.1553  0.4871 -0.5733
  615MOL0     N82907   5.212   4.307   4.561  0.9063  0.2276  0.5671
  615MOL0     C82908   5.153   4.415   4.623  0.9397  0.0222  0.7460
  615MOL0     C82909   5.095   4.483   4.522 -0.0445 -0.1074 -0.4090
  615MOL0     C82910   5.030   4.618   4.527  0.4100 -0.2752  0.3704
  615MOL0     C82911   4.879   4.605   4.508  0.5602  0.1587  0.6179
  615MOL0     C82912   4.813   4.738   4.547  0.3285 -0.4358 -0.8815
  615MOL0     C82913   4.663   4.734   4.513  0.7865 -0.3201  0.6642
  615MOL0     O82914   4.599   4.651   4.608 -0.3601 -0.1589  0.2671
  615MOL0     C82915   4.470   4.692   4.640  0.5812 -0.0185 -0.5886
  615MOL0     C82916   4.360   4.721   4.561 -0.3272  0.1861  0.1192
  615MOL0     C82917   4.235   4.763   4.603  0.4131  0.8703  0.0746
  615MOL0     C82918   4.141   4.801   4.494 -0.0709  0.8097 -0.5994
  615MOL0     C82919   4.210   4.769   4.744  0.5601 -0.8911 -0.3691
  615MOL0     C82920   4.070   4.809   4.803 -0.3778 -0.0226  0.4835
  615MOL0     O82921   4.061   4.810   4.943 -0.7246 -0.3933  0.1629
  615MOL0     C82922   3.934   4.825   4.997 -0.1370  0.2387  0.2922
  615MOL0     C82923   3.892   4.921   5.092 -0.4104 -0.0346 -0.3385
  615MOL0     C82924   3.762   4.923   5.144  0.7127  0.0218 -0.1334
  615MOL0     C82925   3.669   4.819   5.102 -0.2303 -0.8762 -0.0341
  615MOL0     O82926   3.541   4.814   5.134  1.6509  0.0201 -0.3441
  615MOL0     C82927   3.496   4.917   5.217  0.4508 -0.0391 -0.0582
  615MOL0     C82928   3.353   4.875   5.248  0.0443 -0.0793 -1.0683
  615MOL0     C82929   3.254   4.878   5.138 -0.3652  0.3288  0.0735
  615MOL0     C82930   3.119   4.873   5.212  0.2613 -1.1553 -0.9209
  615MOL0     C82931   3.008   4.875   5.116  0.7475 -0.3481  0.0080
  615MOL0     C82932   2.882   4.883   5.198  0.6872  0.8407  0.4486
  615MOL0     C82933   2.766   4.846   5.112  0.1853  0.4378 -0.3427
  615MOL0     C82934   2.687   4.725   5.174 -0.3973 -0.7727  0.3296
  615MOL0    Cl82935   2.801   4.588   5.192  0.4978 -0.0279  0.1585
  615MOL0     C82936   3.705   4.721   5.020  0.2507  0.1809  0.1872
  615MOL0     C82937   3.837   4.723   4.971 -0.1259 -0.0237 -0.3293
  615MOL0     O82938   3.980   4.840   4.728 -0.1398  0.6816  0.4017
  615MOL0     C82939   4.319   4.737   4.828  0.3986 -0.1359  0.5813
  615MOL0     C82940   4.445   4.701   4.783 -0.9619 -0.1518  0.3648
  615MOL0     N82941   5.110   4.420   4.403 -0.0141 -0.5237 -0.7035
  615MOL0     N82942   5.176   4.312   4.427 -0.8932  0.2828 -0.4211
  615MOL0     C82943   5.917   3.521   4.701 -0.7813 -0.0655  0.0401
  615MOL0     C82944   6.037   3.483   4.641  0.3556  0.6973 -0.7935
  615MOL0     C82945   6.346   3.307   4.391 -0.6792 -0.1061 -0.4909
  615MOL0     C82946   6.425   3.404   4.323  0.8498 -0.1330  0.5825
  615MOL0     C82947   6.545   3.381   4.276  0.2806 -0.5750 -0.7537
  615MOL0     C82948   6.602   3.254   4.283 -0.4868 -0.5259 -0.0157
  615MOL0     O82949   6.733   3.245   4.243  0.2940  0.0000  0.4076
  615MOL0     C82950   6.804   3.128   4.298  0.3839 -0.2661 -0.3919
  615MOL0     C82951   6.954   3.151   4.312  0.2328  0.0304  0.4273
  615MOL0     C82952   6.977   3.233   4.430  0.2831  0.1690  0.4096
  615MOL0     C82953   7.133   3.259   4.433 -0.4140  0.1191  0.2008
  615MOL0     C82954   7.212   3.131   4.478  0.7061  0.9355 -0.6127
  615MOL0     C82955   7.283   3.035   4.502  0.3977  0.2519 -0.0367
  615MOL0     C82956   6.523   3.144   4.338 -0.3373 -0.1981  0.2028
  615MOL0     C82957   6.399   3.172   4.399  0.8280 -0.3990 -0.2255
  615MOL0     H82958   5.976   3.605   4.332 -4.3793 -2.8278 -0.2743
  615MOL0     H82959   5.787   3.685   4.438  0.5935 -4.4942 -3.4722
  615MOL0     H82960   5.548   3.495   4.680 -1.9539  1.2546  0.2980
  615MOL0     H82961   5.680   3.458   4.794  0.2344  1.0576  1.4522
  615MOL0     H82962   5.488   3.551   4.929  1.0171 -0.8057 -0.0837
  615MOL0     H82963   5.620   3.665   4.931 -2.0738  1.5881  1.6023
  615MOL0     H82964   5.516   3.773   4.734  1.8920 -1.3070  0.8780
  615MOL0     H82965   5.375   3.674   4.757  0.6702  0.3651 -2.2956
  615MOL0     H82966   5.354   3.779   5.001  0.9231 -0.3176  0.8477
  615MOL0     H82967   5.495   3.879   4.950  0.3979  1.0370 -1.1008
  615MOL0     H82968   5.223   3.885   4.814 -0.3222  3.8646 -3.3385
  615MOL0     H82969   5.278   3.998   4.941  0.5470  2.9007 -1.8751
  615MOL0     H82970   5.461   4.079   4.796  1.3283 -0.2691 -1.4172
  615MOL0     H82971   5.404   3.978   4.671  1.6188 -0.0828  0.5426
  615MOL0     H82972   5.162   4.092   4.716 -1.1534  0.7458  0.7247
  615MOL0     H82973   5.246   4.197   4.827 -0.3466  0.8866 -0.1241
  615MOL0     H82974   5.346   4.144   4.543  1.7993  1.1063 -0.3935
  615MOL0     H82975   5.398   4.275   4.658 -1.9146  0.3796  3.7039
  615MOL0     H82976   5.155   4.445   4.727  0.5157  1.4301  0.3738
  615MOL0     H82977   5.052   4.665   4.622  2.6107  0.4276 -0.4382
  615MOL0     H82978   5.076   4.676   4.447 -1.1290  0.7084  0.1668
  615MOL0     H82979   4.845   4.518   4.566 -0.9383  0.0918 -0.3033
  615MOL0     H82980   4.861   4.578   4.404 -2.7964 -0.3322  1.2069
  615MOL0     H82981   4.853   4.819   4.486  2.8665 -0.5923  0.4363
  615MOL0     H82982   4.822   4.765   4.653 -1.9964  0.7995 -0.9274
  615MOL0     H82983   4.640   4.697   4.413  1.4870 -3.3803  1.5153
  615MOL0     H82984   4.619   4.833   4.522 -0.4925 -0.6410 -1.5489
  615MOL0     H82985   4.370   4.707   4.454 -1.3380 -2.3012  0.2701
  615MOL0     H82986   4.112   4.905   4.505  1.0763  1.2018 -1.0987
  615MOL0     H82987   4.186   4.783   4.396 -0.7742  0.7646 -0.9128
  615MOL0     H82988   4.055   4.734   4.499  0.1278  0.6409  2.0010
  615MOL0     H82989   3.969   4.994   5.117 -0.2425  0.0525 -1.0952
  615MOL0     H82990   3.735   5.003   5.211 -0.6594 -0.4414 -0.1065
  615MOL0     H82991   3.557   4.910   5.308 -1.0243 -0.8623  0.9127
  615MOL0     H82992   3.493   5.017   5.172 -0.0263 -0.5361 -1.1590
  615MOL0     H82993   3.356   4.782   5.305  1.0679  0.0568 -0.8820
  615MOL0     H82994   3.322   4.956   5.315  1.0015  0.3710 -1.1644
  615MOL0     H82995   3.268   4.791   5.075  0.7731  0.5915 -0.0564
  615MOL0     H82996   3.257   4.965   5.072 -3.7786 -0.5849 -1.4783
  615MOL0     H82997   3.112   4.789   5.282 -2.7812  2.0587  3.2488
  615MOL0     H82998   3.109   4.963   5.274 -0.1576 -1.1595 -0.9738
  615MOL0     H82999   3.003   4.788   5.050 -2.0001 -0.0396 -0.3134
  615MOL0     H83000   3.021   4.961   5.049  3.3432 -2.3392 -2.3112
  615MOL0     H83001   2.882   4.820   5.288  0.7940 -0.6965 -0.6074
  615MOL0     H83002   2.869   4.989   5.223  0.2797  0.9814 -0.3285
  615MOL0     H83003   2.789   4.840   5.006 -0.8605 -0.0005 -0.5520
  615MOL0     H83004   2.694   4.928   5.119 -0.9601 -0.6697  1.9821
  615MOL0     H83005   2.623   4.698   5.090  2.3343 -2.3248 -1.4387
  615MOL0     H83006   2.634   4.754   5.265  2.6866 -1.3877  2.5208
  615MOL0     H83007   3.634   4.651   4.977  1.9317 -0.5214 -1.5860
  615MOL0     H83008   3.857   4.655   4.889 -2.6709 -1.0078 -0.1973
  615MOL0     H83009   4.316   4.746   4.936 -0.0039 -2.5672  0.8273
  615MOL0     H83010   4.523   4.674   4.853  0.1203 -2.1986 -1.5147
  615MOL0     H83011   5.908   3.504   4.808 -0.9348 -0.2761 -0.0057
  615MOL0     H83012   6.112   3.438   4.705 -1.0783  0.1931  0.5894
  615MOL0     H83013   6.387   3.502   4.294  2.6869  0.3702 -0.2661
  615MOL0     H83014   6.611   3.458   4.235  2.0997 -0.8659  1.4456
  615MOL0     H83015   6.767   3.099   4.397  4.1285 -1.7227  0.7444
  615MOL0     H83016   6.789   3.038   4.237 -0.1100  0.3302 -1.1625
  615MOL0     H83017   6.999   3.199   4.225 -0.6704 -1.4157 -0.8919
  615MOL0     H83018   7.006   3.054   4.319  0.3531  0.0547 -0.1245
  615MOL0     H83019   6.941   3.173   4.514 -0.1736  0.5557  0.4907
  615MOL0     H83020   6.914   3.322   4.430 -1.1198 -0.7708  2.1211
  615MOL0     H83021   7.171   3.345   4.489 -0.5434  0.0208  0.4406
  615MOL0     H83022   7.179   3.274   4.335  0.2847 -0.1482  0.4786
  615MOL0     H83023   7.344   2.951   4.528 -2.8053 -2.5434 -0.8289
  615MOL0     H83024   6.554   3.040   4.335  0.3965 -0.1309  2.7271
  615MOL0     H83025   6.340   3.096   4.449 -0.2223 -1.1783 -2.5096
  616MOL0     O83026   8.075   6.117   7.404  0.2365  0.2263  0.2842
  616MOL0     C83027   8.130   6.085   7.505  0.4608 -0.2198 -0.0130
  616MOL0     O83028   8.076   6.016   7.604 -0.5190  0.0680 -0.0573
  616MOL0     C83029   7.939   6.001   7.622  0.0807 -0.1267 -0.1319
  616MOL0     C83030   7.885   5.866   7.622  0.3639  0.5516 -0.8532
  616MOL0     C83031   7.750   5.849   7.633  0.1693 -0.0347 -0.3762
  616MOL0     C83032   7.669   5.954   7.654  0.0521 -0.1663 -0.7202
  616MOL0     O83033   7.534   5.935   7.663  0.1767  0.0845 -0.0686
  616MOL0     C83034   7.454   5.977   7.552 -0.4585  0.4031  0.3317
  616MOL0     C83035   7.442   5.869   7.439 -0.5961 -0.2596 -0.3322
  616MOL0     C83036   7.338   5.765   7.488 -0.6631 -0.5337  0.8233
  616MOL0     C83037   7.192   5.807   7.465  0.1267 -0.4098  0.1221
  616MOL0     C83038   7.084   5.722   7.525 -0.8226 -0.2541 -0.0014
  616MOL0     C83039   6.968   5.813   7.564  0.6130  0.3503 -0.6330
  616MOL0     C83040   6.859   5.748   7.653  0.2449 -1.1850 -0.1581
  616MOL0     C83041   6.768   5.652   7.570 -0.6457  0.0038  0.3548
  616MOL0     N83042   6.651   5.601   7.644 -0.0856  0.3753  0.8214
  616MOL0     C83043   6.605   5.473   7.652  0.1096 -0.8660 -0.1269
  616MOL0     C83044   6.510   5.482   7.749  0.5650  0.6498 -0.1256
  616MOL0     C83045   6.431   5.378   7.816  0.3554  0.4591  0.7998
  616MOL0     C83046   6.504   5.308   7.924 -0.4205 -0.2651 -0.9005
  616MOL0     C83047   6.512   5.404   8.052 -0.2006  0.0999 -0.6283
  616MOL0     C83048   6.475   5.329   8.177 -0.7305 -0.3590 -0.1394
  616MOL0     O83049   6.344   5.312   8.203 -0.1972  0.8106  0.3294
  616MOL0     C83050   6.261   5.403   8.258 -0.1854  0.1617 -0.7744
  616MOL0     C83051   6.307   5.515   8.331  0.4083  0.1421  0.0238
  616MOL0     C83052   6.219   5.615   8.383  0.0747 -0.3758  1.0253
  616MOL0     C83053   6.289   5.738   8.458  0.4286  0.4651 -0.3230
  616MOL0     C83054   6.079   5.587   8.373  0.0623 -0.5344  0.1388
  616MOL0     C83055   5.976   5.680   8.431  0.2378 -0.0794  0.2531
  616MOL0     O83056   6.009   5.783   8.505 -0.7761  0.1571  0.0667
  616MOL0     C83057   5.914   5.866   8.558 -0.3553 -0.0001  0.5455
  616MOL0     C83058   5.890   5.994   8.492 -1.0695  0.1166 -0.0782
  616MOL0     C83059   5.807   6.090   8.542  1.0319 -0.5123 -0.7270
  616MOL0     C83060   5.745   6.065   8.662  0.2403 -0.3277 -0.2964
  616MOL0     O83061   5.669   6.167   8.713  0.1273 -0.4428  0.6966
  616MOL0     C83062   5.549   6.145   8.788  0.2976  0.3761 -0.2017
  616MOL0     C83063   5.449   6.236   8.719  0.5322  0.0405  0.3468
  616MOL0     C83064   5.308   6.215   8.791 -0.6776  0.5804  0.2286
  616MOL0     C83065   5.220   6.326   8.744 -0.2008  0.0550 -0.8953
  616MOL0     C83066   5.093   6.320   8.825 -0.9468  0.0398  0.1994
  616MOL0     C83067   4.993   6.419   8.782 -0.4411  0.5510 -0.3522
  616MOL0     C83068   4.883   6.421   8.899 -0.2721  0.6546 -0.0596
  616MOL0     C83069   4.814   6.283   8.916  0.2385 -0.0370  0.6033
  616MOL0    Cl83070   4.704   6.296   9.055 -0.0707  0.3020  0.2249
  616MOL0     C83071   5.768   5.947   8.738  0.0526 -0.2483 -0.0830
  616MOL0     C83072   5.852   5.846   8.677  0.7422 -0.3666 -0.9681
  616MOL0     O83073   5.857   5.651   8.401 -0.1130 -0.2859  0.0370
  616MOL0     C83074   6.037   5.468   8.311 -0.8526  0.9096  0.4857
  616MOL0     C83075   6.127   5.367   8.259  0.6963  0.1482 -0.0131
  616MOL0     N83076   6.482   5.618   7.779 -0.0212 -0.3537 -0.3636
  616MOL0     N83077   6.576   5.684   7.713  0.3970 -0.2177  0.4063
  616MOL0     C83078   7.716   6.085   7.672  0.6657  0.6163  0.1922
  616MOL0     C83079   7.852   6.106   7.643  0.5584  0.4015  0.9447
  616MOL0     C83080   8.273   6.127   7.530  0.2950 -0.4182 -0.3092
  616MOL0     C83081   8.348   6.092   7.646 -0.4590  0.3845  0.0146
  616MOL0     C83082   8.487   6.123   7.652  1.1141  0.0629  0.4240
  616MOL0     C83083   8.544   6.199   7.550 -0.3252 -0.0104 -0.1809
  616MOL0     O83084   8.678   6.219   7.556 -0.3713 -0.5409 -0.3765
  616MOL0     C83085   8.749   6.142   7.454  0.7999  0.3212 -0.4239
  616MOL0     C83086   8.887   6.093   7.497 -0.3595 -0.4306  0.0851
  616MOL0     C83087   8.908   6.012   7.629  0.1954  0.3533 -0.4141
  616MOL0     C83088   8.912   6.101   7.755  0.8713 -0.2048 -0.1825
  616MOL0     C83089   9.041   6.165   7.763  0.2194  0.9058 -0.0044
  616MOL0     C83090   9.146   6.215   7.774  0.2442 -0.2271  0.7523
  616MOL0     C83091   8.469   6.237   7.442  0.0514 -0.3295  0.2396
  616MOL0     C83092   8.331   6.217   7.438  0.1193  0.6859 -0.7861
  616MOL0     H83093   7.948   5.779   7.617 -1.4132 -1.7998  6.0749
  616MOL0     H83094   7.712   5.748   7.630 -1.1664  0.4510 -0.8158
  616MOL0     H83095   7.354   5.995   7.591 -0.8432 -0.3143 -0.2929
  616MOL0     H83096   7.489   6.066   7.498  1.2523  0.0473  0.7752
  616MOL0     H83097   7.415   5.930   7.352  0.0374  0.3736 -0.0903
  616MOL0     H83098   7.540   5.832   7.406 -1.5452 -2.1894 -1.1448
  616MOL0     H83099   7.352   5.679   7.423  0.3629 -0.3083  0.7304
  616MOL0     H83100   7.357   5.732   7.591  0.4562 -0.1330  0.7507
  616MOL0     H83101   7.175   5.909   7.502  1.2205  0.1248 -0.7839
  616MOL0     H83102   7.171   5.813   7.358  0.8959  0.9866  0.0176
  616MOL0     H83103   7.050   5.653   7.447  0.8354 -2.7700  1.3734
  616MOL0     H83104   7.125   5.667   7.611  0.0454  0.5066  0.0841
  616MOL0     H83105   6.994   5.900   7.624 -2.0781  1.1775 -0.5210
  616MOL0     H83106   6.919   5.861   7.480 -0.0218  0.2706 -0.3170
  616MOL0     H83107   6.899   5.690   7.736  0.1145 -2.3144 -0.8653
  616MOL0     H83108   6.800   5.827   7.701  0.5581  0.3509 -2.1344
  616MOL0     H83109   6.833   5.573   7.532 -2.0930  0.0464 -2.4471
  616MOL0     H83110   6.740   5.706   7.479  1.6299  1.5897  0.4794
  616MOL0     H83111   6.640   5.389   7.593 -0.1983  1.7313 -4.3679
  616MOL0     H83112   6.337   5.412   7.859 -0.5054 -0.4208 -0.3232
  616MOL0     H83113   6.408   5.298   7.745  3.7275 -0.6911  0.8157
  616MOL0     H83114   6.599   5.261   7.896 -0.4364  0.8364 -2.9616
  616MOL0     H83115   6.446   5.218   7.947 -0.5483  0.5124  2.3797
  616MOL0     H83116   6.444   5.490   8.052  1.9463  2.0514  2.8674
  616MOL0     H83117   6.618   5.431   8.059 -0.0202 -0.3507 -1.4562
  616MOL0     H83118   6.519   5.376   8.266  0.2028 -2.4065  0.5485
  616MOL0     H83119   6.521   5.231   8.190  0.5980 -0.0624 -2.1556
  616MOL0     H83120   6.411   5.542   8.343  0.0687  1.5377  0.0396
  616MOL0     H83121   6.245   5.837   8.446 -0.3603 -0.1155 -3.0294
  616MOL0     H83122   6.306   5.709   8.562  0.7614 -4.5277 -1.4739
  616MOL0     H83123   6.386   5.755   8.410  0.2074  0.4401 -0.7873
  616MOL0     H83124   5.950   6.022   8.406  1.4174  0.2976  1.6004
  616MOL0     H83125   5.782   6.185   8.496 -2.8457 -0.4208  1.1500
  616MOL0     H83126   5.514   6.041   8.789  0.1524  0.4090 -0.9548
  616MOL0     H83127   5.558   6.169   8.894  0.9135 -2.4133  0.4773
  616MOL0     H83128   5.468   6.343   8.724 -1.5546  0.4596  0.0949
  616MOL0     H83129   5.452   6.212   8.613  0.1686 -1.2560  0.6054
  616MOL0     H83130   5.321   6.224   8.899 -0.4327  0.6953  0.1906
  616MOL0     H83131   5.262   6.119   8.767 -1.8003  0.6286  2.0386
  616MOL0     H83132   5.270   6.423   8.753  1.1848 -0.7881  1.5019
  616MOL0     H83133   5.200   6.304   8.639  0.7562 -0.4629 -0.9713
  616MOL0     H83134   5.114   6.335   8.932 -0.1882  1.1953 -0.0893
  616MOL0     H83135   5.057   6.218   8.811 -0.7826 -0.3189  2.0622
  616MOL0     H83136   5.036   6.519   8.776  0.3623  0.1652 -1.1904
  616MOL0     H83137   4.946   6.403   8.685 -1.7700  0.4763  0.2695
  616MOL0     H83138   4.807   6.495   8.874  0.2440  0.9951 -0.6521
  616MOL0     H83139   4.925   6.449   8.995 -1.6848 -0.8064  1.0461
  616MOL0     H83140   4.886   6.202   8.928 -0.6060 -1.1014 -1.0836
  616MOL0     H83141   4.755   6.256   8.828  2.2270 -0.4198 -0.6860
  616MOL0     H83142   5.739   5.934   8.841  0.5166  1.1578  0.2489
  616MOL0     H83143   5.861   5.754   8.734  3.6718  0.5355  0.2368
  616MOL0     H83144   5.932   5.443   8.304 -0.3426 -1.0118 -1.0459
  616MOL0     H83145   6.091   5.279   8.209 -0.5689  0.6138  0.0486
  616MOL0     H83146   7.640   6.160   7.691 -0.4045 -0.7834  1.6016
  616MOL0     H83147   7.884   6.210   7.651  1.0371  0.1841  2.0051
  616MOL0     H83148   8.305   6.025   7.721 -1.4941  0.2255 -0.7032
  616MOL0     H83149   8.545   6.076   7.730  0.2281 -0.1928  0.9440
  616MOL0     H83150   8.694   6.058   7.412 -1.6449 -0.9323  4.4634
  616MOL0     H83151   8.764   6.222   7.381 -1.3343  0.9905 -0.1809
  616MOL0     H83152   8.942   6.187   7.507 -1.1560  0.2998 -1.8029
  616MOL0     H83153   8.939   6.047   7.413 -1.3941 -0.3681 -0.6064
  616MOL0     H83154   8.997   5.949   7.638 -0.7289 -0.7272  2.1050
  616MOL0     H83155   8.828   5.939   7.640  1.2215 -0.3804  4.3448
  616MOL0     H83156   8.905   6.041   7.847 -0.0953 -1.7861 -1.2452
  616MOL0     H83157   8.832   6.176   7.752  1.4253  0.3705 -0.6423
  616MOL0     H83158   9.231   6.280   7.776 -0.2202  0.4177 -0.0877
  616MOL0     H83159   8.515   6.295   7.363  0.9369  2.1470  2.4118
  616MOL0     H83160   8.282   6.260   7.352  0.9869  1.1481 -1.0653
  617MOL0     O83161   6.868  11.067   5.479 -0.3903  0.2824 -0.0041
  617MOL0     C83162   6.901  11.161   5.541  0.6863  0.3756  0.5090
  617MOL0     O83163   6.811  11.260   5.567  0.1766 -0.5196 -0.1507
  617MOL0     C83164   6.678  11.250   5.522  0.0130 -0.1208  0.0778
  617MOL0     C83165   6.588  11.178   5.599 -0.6516  0.9232 -0.0329
  617MOL0     C83166   6.453  11.176   5.557 -0.0752  0.3785 -0.4975
  617MOL0     C83167   6.412  11.250   5.449  1.2205 -0.4137  0.2789
  617MOL0     O83168   6.280  11.264   5.402  0.1503 -0.5910 -0.8112
  617MOL0     C83169   6.166  11.208   5.467  0.4340  0.1054 -0.0271
  617MOL0     C83170   6.041  11.216   5.380  0.3354 -0.0436 -0.3716
  617MOL0     C83171   5.898  11.172   5.441  0.0145 -0.0795 -0.4661
  617MOL0     C83172   5.788  11.157   5.336 -0.2290 -0.0011  0.1787
  617MOL0     C83173   5.664  11.107   5.408  0.0244  0.0957 -0.2014
  617MOL0     C83174   5.551  11.070   5.318 -0.0899  0.4376 -0.3935
  617MOL0     C83175   5.427  11.006   5.380  0.6639 -0.2032 -0.1541
  617MOL0     C83176   5.304  11.008   5.285  0.3563  0.1454  0.8874
  617MOL0     N83177   5.181  10.983   5.361  0.4182  0.5620 -0.1807
  617MOL0     C83178   5.128  11.078   5.445  0.7422  0.0909 -0.0308
  617MOL0     C83179   5.031  10.997   5.515  0.5344  0.5150 -0.1977
  617MOL0     C83180   4.929  11.046   5.616 -0.0057  0.0754  0.0804
  617MOL0     C83181   4.791  11.016   5.552 -0.3543  0.3030 -0.6072
  617MOL0     C83182   4.675  11.106   5.624  0.4225  0.3668  0.7621
  617MOL0     C83183   4.536  11.075   5.568 -0.4646 -0.3165  0.2128
  617MOL0     O83184   4.442  11.153   5.640  1.3990  0.0175  0.8296
  617MOL0     C83185   4.309  11.123   5.612  0.1184  1.0964  0.9433
  617MOL0     C83186   4.218  11.230   5.639  0.1711 -0.0895  0.3306
  617MOL0     C83187   4.082  11.214   5.621 -0.1494 -0.6370 -0.4339
  617MOL0     C83188   4.004  11.329   5.678  0.3157  0.2877 -0.4255
  617MOL0     C83189   4.031  11.102   5.549  0.0622 -0.5979  1.2535
  617MOL0     C83190   3.892  11.088   5.526  0.5939 -0.0074  0.2072
  617MOL0     O83191   3.839  10.966   5.545  0.0123 -0.2996  0.0804
  617MOL0     C83192   3.729  10.928   5.476 -0.4828 -1.4832 -0.8966
  617MOL0     C83193   3.622  10.879   5.555  0.9157  0.8305 -0.0671
  617MOL0     C83194   3.502  10.850   5.488 -1.0087  0.0623 -0.3450
  617MOL0     C83195   3.488  10.863   5.350 -0.4602 -0.5433  0.0768
  617MOL0     O83196   3.366  10.836   5.287  0.0549 -0.4983  0.7162
  617MOL0     C83197   3.340  10.859   5.147  0.2646  0.2654 -0.3719
  617MOL0     C83198   3.182  10.853   5.144  0.0976  0.5720 -0.2560
  617MOL0     C83199   3.140  10.711   5.119  0.0639  0.8479 -0.2136
  617MOL0     C83200   2.983  10.712   5.102 -0.1285 -0.5395  0.1471
  617MOL0     C83201   2.898  10.693   5.237 -0.2519 -0.7387  0.1926
  617MOL0     C83202   2.748  10.678   5.211  0.2105 -0.2726 -0.5657
  617MOL0     C83203   2.664  10.672   5.340  0.2067  0.3435 -0.1627
  617MOL0     C83204   2.528  10.707   5.307  0.4623  0.5142  0.8268
  617MOL0    Cl83205   2.427  10.665   5.449 -0.1075  0.3004  0.0153
  617MOL0     C83206   3.595  10.907   5.276  1.0958  0.3584 -0.1515
  617MOL0     C83207   3.712  10.949   5.334 -0.5247  0.2387  0.8822
  617MOL0     O83208   3.832  11.180   5.472  0.1654 -0.8584  0.4845
  617MOL0     C83209   4.119  11.004   5.509  0.2056  0.6007 -0.3984
  617MOL0     C83210   4.253  11.014   5.543 -0.3646  0.5204 -0.1484
  617MOL0     N83211   5.033  10.873   5.459  0.6161 -0.2615 -0.3603
  617MOL0     N83212   5.114  10.865   5.366  0.0382 -0.1401  0.1194
  617MOL0     C83213   6.503  11.321   5.369  1.0562 -0.6405  0.7950
  617MOL0     C83214   6.644  11.326   5.402  0.3617  0.3596 -0.5725
  617MOL0     C83215   7.037  11.181   5.576  0.2856 -0.3191 -0.4171
  617MOL0     C83216   7.132  11.086   5.559 -0.3226  0.6835  0.3138
  617MOL0     C83217   7.260  11.094   5.611 -0.0840  0.4933 -0.4891
  617MOL0     C83218   7.293  11.203   5.696 -0.6548  1.2450  0.3399
  617MOL0     O83219   7.409  11.240   5.747  0.3093  0.2166 -0.6351
  617MOL0     C83220   7.504  11.134   5.780 -0.1446  0.5101  0.7418
  617MOL0     C83221   7.620  11.198   5.860  0.6098 -0.6516 -0.5786
  617MOL0     C83222   7.721  11.089   5.896  0.2488  0.1612 -0.5721
  617MOL0     C83223   7.842  11.155   5.963  0.6756 -0.3587  0.1242
  617MOL0     C83224   7.955  11.062   5.964 -0.5198 -0.1730 -0.3393
  617MOL0     C83225   8.048  10.990   5.946 -0.2627  0.8088 -0.2233
  617MOL0     C83226   7.189  11.289   5.727  0.3240  0.5803  0.4689
  617MOL0     C83227   7.066  11.286   5.665 -0.2236 -0.2033 -0.2332
  617MOL0     H83228   6.623  11.115   5.680  0.1955 -2.6919 -2.9319
  617MOL0     H83229   6.388  11.107   5.610  2.2665 -1.9869 -0.4585
  617MOL0     H83230   6.188  11.105   5.497 -1.0881 -0.5833 -1.1515
  617MOL0     H83231   6.149  11.265   5.559  1.4972  0.8860 -0.2831
  617MOL0     H83232   6.036  11.322   5.354  0.5769  0.2744  0.8310
  617MOL0     H83233   6.055  11.163   5.286  2.4535 -3.3332  1.5778
  617MOL0     H83234   5.906  11.078   5.496 -2.0992  0.7377  1.3417
  617MOL0     H83235   5.863  11.250   5.508  0.3037  0.7987 -1.3158
  617MOL0     H83236   5.769  11.252   5.285  0.1168  0.7273  1.3792
  617MOL0     H83237   5.838  11.085   5.271  3.5305  0.8888  1.8681
  617MOL0     H83238   5.697  11.020   5.465  0.4110  2.0018  2.6951
  617MOL0     H83239   5.627  11.192   5.468  1.3741 -0.1676  1.0574
  617MOL0     H83240   5.524  11.161   5.264 -2.7123 -0.8172 -1.3778
  617MOL0     H83241   5.590  11.002   5.241  0.6584  1.2891 -0.7887
  617MOL0     H83242   5.454  10.903   5.404 -3.0798 -1.4985 -0.7551
  617MOL0     H83243   5.397  11.060   5.471  1.6207 -0.5849  0.3989
  617MOL0     H83244   5.317  10.933   5.207 -3.6309  0.6514 -0.5177
  617MOL0     H83245   5.281  11.105   5.240 -0.7102  0.1431  1.3856
  617MOL0     H83246   5.166  11.178   5.456  2.7495 -0.7539  1.1900
  617MOL0     H83247   4.935  10.992   5.712 -0.7583 -2.2157 -1.0763
  617MOL0     H83248   4.939  11.153   5.632  0.3688  0.1352 -0.5455
  617MOL0     H83249   4.776  10.908   5.557  0.4022  0.2311  0.2614
  617MOL0     H83250   4.804  11.047   5.448  2.1398  1.6878  0.0428
  617MOL0     H83251   4.692  11.210   5.596  1.0066  0.2972  0.8443
  617MOL0     H83252   4.669  11.081   5.730  0.2685 -1.1318  0.4281
  617MOL0     H83253   4.519  10.967   5.577 -0.2272 -0.7567 -3.2664
  617MOL0     H83254   4.534  11.101   5.462 -1.4456  1.0313  0.5442
  617MOL0     H83255   4.249  11.319   5.693 -1.8624 -0.4803  2.2764
  617MOL0     H83256   3.896  11.309   5.680  0.1717  0.8478 -1.7467
  617MOL0     H83257   4.053  11.333   5.776 -0.5109 -2.7126  0.2428
  617MOL0     H83258   4.014  11.424   5.626  2.6223  0.6036  0.4784
  617MOL0     H83259   3.631  10.875   5.664  1.4743  0.9311 -0.1035
  617MOL0     H83260   3.419  10.813   5.547 -0.6683  0.1333  0.1779
  617MOL0     H83261   3.371  10.961   5.123  0.3012  0.7194  1.4614
  617MOL0     H83262   3.393  10.784   5.087  4.9953  0.5556  2.8565
  617MOL0     H83263   3.136  10.895   5.233 -0.5752 -1.4060  0.3767
  617MOL0     H83264   3.159  10.906   5.051  0.9478 -1.1543 -1.5305
  617MOL0     H83265   3.182  10.639   5.190  0.5101 -1.1132 -2.3511
  617MOL0     H83266   3.185  10.682   5.023  2.5011 -0.0976  1.1224
  617MOL0     H83267   2.943  10.807   5.065  0.8387 -1.7654 -4.6525
  617MOL0     H83268   2.954  10.643   5.023  0.7490 -0.4390 -0.2645
  617MOL0     H83269   2.917  10.783   5.298  1.2647 -0.0680 -1.1881
  617MOL0     H83270   2.934  10.600   5.281  3.6940  0.4909  0.0286
  617MOL0     H83271   2.722  10.773   5.164 -1.8942 -0.2926  0.4243
  617MOL0     H83272   2.728  10.595   5.144  1.1840 -2.6012  1.8606
  617MOL0     H83273   2.694  10.736   5.424  1.8465 -0.8278  0.2166
  617MOL0     H83274   2.655  10.573   5.386  1.4179  0.4784  0.4040
  617MOL0     H83275   2.491  10.659   5.215  1.8780 -0.2090  0.6056
  617MOL0     H83276   2.507  10.812   5.286  0.4742  0.1468 -1.2665
  617MOL0     H83277   3.580  10.921   5.169 -0.7326  0.8988  0.1465
  617MOL0     H83278   3.790  10.992   5.272 -1.4037 -0.0551 -0.4570
  617MOL0     H83279   4.091  10.918   5.449  0.7702  0.3095 -0.2515
  617MOL0     H83280   4.304  10.922   5.517  0.3099  0.6082  0.8062
  617MOL0     H83281   6.471  11.373   5.279  1.8125 -0.1502  0.8037
  617MOL0     H83282   6.710  11.398   5.353  0.5797  2.2813  2.3422
  617MOL0     H83283   7.119  10.994   5.502  0.5083  0.3033  0.7195
  617MOL0     H83284   7.334  11.016   5.595 -2.1037 -1.4595 -0.7472
  617MOL0     H83285   7.455  11.053   5.835 -0.7838 -1.7134 -2.8404
  617MOL0     H83286   7.543  11.081   5.693  1.6396 -1.2067  2.4889
  617MOL0     H83287   7.588  11.244   5.954  2.3265 -2.8228  1.2227
  617MOL0     H83288   7.670  11.282   5.812  0.6281  1.0274  2.1542
  617MOL0     H83289   7.756  11.050   5.800  1.8126  0.8085 -0.3010
  617MOL0     H83290   7.680  11.011   5.960  1.4036  1.7093  2.1932
  617MOL0     H83291   7.824  11.185   6.067 -0.5096 -2.1795  0.5128
  617MOL0     H83292   7.876  11.243   5.909  2.0464 -0.6811  0.4121
  617MOL0     H83293   8.130  10.921   5.941 -0.1063  0.8985  0.8116
  617MOL0     H83294   7.213  11.369   5.796 -1.5184  2.1885 -0.6395
  617MOL0     H83295   6.999  11.367   5.693 -1.1169 -0.7104 -0.8410
  618MOL0     O83296   4.841   0.579   3.009 -0.4724  0.0247 -0.4326
  618MOL0     C83297   4.887   0.689   3.050  0.0935 -0.0421  0.0448
  618MOL0     O83298   4.810   0.790   3.097  0.1544  0.2459  0.9483
  618MOL0     C83299   4.679   0.773   3.076  0.4877  0.3388  0.1935
  618MOL0     C83300   4.602   0.792   3.189  0.2964  0.3300  0.6861
  618MOL0     C83301   4.460   0.783   3.177 -1.1099  0.4736  0.2823
  618MOL0     C83302   4.402   0.719   3.068  0.4144  0.3135 -0.0135
  618MOL0     O83303   4.264   0.683   3.063 -0.6860 -0.6543 -0.9224
  618MOL0     C83304   4.171   0.792   3.109  0.5193  0.3102 -0.1978
  618MOL0     C83305   4.033   0.756   3.041 -0.0149  0.6750  0.0278
  618MOL0     C83306   3.924   0.832   3.109  0.7435 -0.3542  0.3816
  618MOL0     C83307   3.800   0.739   3.125 -0.0729 -0.4574  0.4111
  618MOL0     C83308   3.686   0.834   3.146 -0.2623  0.3099 -0.4990
  618MOL0     C83309   3.553   0.751   3.108 -0.1872 -0.4041  0.0272
  618MOL0     C83310   3.528   0.631   3.196  0.4528 -0.2322 -0.5318
  618MOL0     C83311   3.378   0.587   3.206  0.2197  0.2609  0.3231
  618MOL0     N83312   3.290   0.677   3.287  0.1751  0.3476  0.1255
  618MOL0     C83313   3.153   0.679   3.276 -0.1460  0.4623  0.3160
  618MOL0     C83314   3.100   0.682   3.398  0.5068 -0.5296  0.5172
  618MOL0     C83315   2.956   0.682   3.443 -1.3942  0.1637 -0.5107
  618MOL0     C83316   2.897   0.549   3.470 -0.9372  0.7886 -0.1461
  618MOL0     C83317   2.862   0.469   3.344 -0.0804 -0.1324 -0.3363
  618MOL0     C83318   2.740   0.519   3.265  0.2502 -0.7005 -0.6102
  618MOL0     O83319   2.704   0.407   3.190  0.2504  0.0318  0.0541
  618MOL0     C83320   2.595   0.402   3.115  0.4460  0.7529 -0.7874
  618MOL0     C83321   2.557   0.275   3.066  0.4305  0.1301 -0.0658
  618MOL0     C83322   2.435   0.251   3.007 -0.9020  0.3157  0.0576
  618MOL0     C83323   2.420   0.110   2.950  0.0279  0.2057 -0.4055
  618MOL0     C83324   2.346   0.363   2.985 -0.6443 -0.8200  0.0775
  618MOL0     C83325   2.217   0.344   2.926  0.7357 -0.6673  0.1504
  618MOL0     O83326   2.148   0.456   2.880  0.1405 -0.5872  0.5054
  618MOL0     C83327   2.017   0.443   2.839 -0.0527 -0.3571  0.7972
  618MOL0     C83328   1.906   0.490   2.913  0.6250 -1.4359  0.4372
  618MOL0     C83329   1.771   0.480   2.855  0.2702 -0.1691  0.0160
  618MOL0     C83330   1.754   0.425   2.726  0.3400 -0.1773 -0.4358
  618MOL0     O83331   1.628   0.406   2.682 -1.0056  0.5151 -0.3844
  618MOL0     C83332   1.600   0.395   2.549  0.3700  0.2078  0.2226
  618MOL0     C83333   1.604   0.247   2.510  0.3598  0.1442 -0.1873
  618MOL0     C83334   1.466   0.191   2.566 -0.2553 -0.3983 -0.0197
  618MOL0     C83335   1.341   0.215   2.486 -0.4981 -0.5092  0.0526
  618MOL0     C83336   1.223   0.150   2.563 -0.4502 -0.0797 -1.0073
  618MOL0     C83337   1.092   0.192   2.493  0.0077  0.1318 -0.0007
  618MOL0     C83338   0.952   0.145   2.552  0.2161  0.4881  0.3820
  618MOL0     C83339   0.850   0.193   2.456  1.2562  0.5082  0.2717
  618MOL0    Cl83340   0.806   0.360   2.483  0.1405 -0.1819  0.0053
  618MOL0     C83341   1.869   0.385   2.652 -0.3671  0.3948  0.8951
  618MOL0     C83342   1.995   0.396   2.709  0.2293  0.4571  0.0500
  618MOL0     O83343   2.169   0.230   2.917  0.0011 -0.3504  1.0815
  618MOL0     C83344   2.382   0.486   3.030  0.0147 -0.1914 -0.2545
  618MOL0     C83345   2.509   0.509   3.094  0.2705 -0.2856  0.4123
  618MOL0     N83346   3.206   0.698   3.485  0.6397 -0.6775  0.4418
  618MOL0     N83347   3.317   0.691   3.420  0.1811  0.4455 -0.1941
  618MOL0     C83348   4.485   0.704   2.954 -1.1711  0.2930 -0.8317
  618MOL0     C83349   4.614   0.737   2.954 -0.8829 -0.7241  0.3429
  618MOL0     C83350   5.038   0.716   3.049  0.3373 -0.1265 -0.0759
  618MOL0     C83351   5.104   0.835   3.080  0.0925  0.5780  0.3665
  618MOL0     C83352   5.244   0.844   3.066  0.9710  0.6119  0.1762
  618MOL0     C83353   5.326   0.736   3.029  0.7278 -0.5695 -0.3585
  618MOL0     O83354   5.460   0.759   3.021 -0.6316  0.2048  0.3493
  618MOL0     C83355   5.562   0.658   3.028  0.1293 -0.1369 -0.2212
  618MOL0     C83356   5.704   0.710   3.042  0.3417 -0.6447  0.0573
  618MOL0     C83357   5.812   0.610   3.097  0.3783 -0.4649 -0.2730
  618MOL0     C83358   5.856   0.505   2.995  0.3785 -1.1640 -0.7697
  618MOL0     C83359   5.990   0.525   2.955  0.0347 -0.1339 -0.3365
  618MOL0     C83360   6.108   0.526   2.929  0.5209  0.7625 -0.4153
  618MOL0     C83361   5.265   0.613   2.996  0.4511  0.0624  0.3484
  618MOL0     C83362   5.126   0.606   3.016  0.4464  0.4227  0.3765
  618MOL0     H83363   4.662   0.806   3.279 -1.1211 -1.0050  1.9049
  618MOL0     H83364   4.400   0.802   3.266 -0.0358  0.9397  0.9333
  618MOL0     H83365   4.153   0.794   3.217  0.7951 -0.7919 -0.1189
  618MOL0     H83366   4.203   0.895   3.093  1.1590  0.6581  2.7438
  618MOL0     H83367   4.039   0.779   2.935  3.0714  0.4422  0.0597
  618MOL0     H83368   4.012   0.649   3.051  0.9336  0.4904  0.2168
  618MOL0     H83369   3.946   0.860   3.212 -2.1934  1.4850  0.6086
  618MOL0     H83370   3.903   0.923   3.051  1.3553 -0.7093 -0.4143
  618MOL0     H83371   3.789   0.690   3.028  0.2766 -0.4060  0.3440
  618MOL0     H83372   3.806   0.668   3.209  0.7711 -1.0009 -0.0920
  618MOL0     H83373   3.687   0.870   3.249  1.1823 -0.4123 -0.2321
  618MOL0     H83374   3.706   0.925   3.087  2.2058 -0.5227 -1.0951
  618MOL0     H83375   3.469   0.818   3.131  0.6196  1.3088 -1.6943
  618MOL0     H83376   3.553   0.728   3.001 -0.5903  1.6603 -0.4586
  618MOL0     H83377   3.588   0.550   3.154 -2.0694 -2.2149 -0.4867
  618MOL0     H83378   3.570   0.666   3.291  1.0691 -0.3366 -0.7592
  618MOL0     H83379   3.367   0.490   3.257  0.2033 -0.2275 -0.5993
  618MOL0     H83380   3.331   0.581   3.108  0.0850  0.0894  0.3976
  618MOL0     H83381   3.101   0.685   3.180 -0.7038 -1.3542  0.4672
  618MOL0     H83382   2.947   0.728   3.542  0.7567  1.3967 -0.8331
  618MOL0     H83383   2.893   0.745   3.380 -2.4394  0.0577  0.3922
  618MOL0     H83384   2.801   0.551   3.523 -1.0389 -3.9374  0.3193
  618MOL0     H83385   2.961   0.484   3.531 -0.3293  0.7885 -0.7722
  618MOL0     H83386   2.847   0.362   3.359 -1.2381  0.1242  0.4093
  618MOL0     H83387   2.945   0.465   3.273 -2.0283  4.0675 -3.2740
  618MOL0     H83388   2.787   0.600   3.207 -1.2295  0.0470 -0.7952
  618MOL0     H83389   2.658   0.557   3.326 -0.2829  0.6303 -2.0889
  618MOL0     H83390   2.638   0.203   3.067 -1.7848 -2.5419 -0.0401
  618MOL0     H83391   2.515   0.055   2.947  0.2407  0.4304  1.1485
  618MOL0     H83392   2.340   0.063   3.006  0.2188 -2.3261 -2.1290
  618MOL0     H83393   2.388   0.125   2.847  0.3791 -0.6121 -0.6381
  618MOL0     H83394   1.919   0.527   3.014  1.7684 -1.6763  0.3933
  618MOL0     H83395   1.678   0.519   2.897  0.3043  0.0612 -0.1189
  618MOL0     H83396   1.505   0.438   2.517  0.5963  0.5283 -0.0296
  618MOL0     H83397   1.680   0.436   2.486  1.6947 -2.1140  0.2691
  618MOL0     H83398   1.609   0.236   2.402  1.5113  0.8737 -0.2279
  618MOL0     H83399   1.692   0.197   2.552  1.9378  3.0050  0.1616
  618MOL0     H83400   1.455   0.232   2.667 -0.0162  2.6835 -1.1262
  618MOL0     H83401   1.485   0.084   2.580  4.4865  0.4273  1.9374
  618MOL0     H83402   1.328   0.322   2.472 -0.3832 -0.3398  1.1027
  618MOL0     H83403   1.346   0.167   2.388 -2.8297 -0.4310 -0.1415
  618MOL0     H83404   1.221   0.185   2.666  0.7371 -2.1498 -0.2023
  618MOL0     H83405   1.246   0.043   2.566  1.5989  0.2749 -2.0338
  618MOL0     H83406   1.090   0.300   2.482  1.9459  0.4277  1.9030
  618MOL0     H83407   1.095   0.155   2.391 -0.3483  0.2203 -0.0460
  618MOL0     H83408   0.938   0.174   2.657 -0.9904  0.3474  0.2735
  618MOL0     H83409   0.948   0.036   2.543 -1.6911  0.5812 -0.2148
  618MOL0     H83410   0.763   0.127   2.459  2.3531 -0.9982  2.6340
  618MOL0     H83411   0.882   0.186   2.352 -0.8464 -3.5072 -0.2984
  618MOL0     H83412   1.865   0.348   2.550 -0.9094 -0.7403  1.3133
  618MOL0     H83413   2.077   0.369   2.644 -0.2073 -0.3946 -0.1728
  618MOL0     H83414   2.310   0.567   3.031 -1.1495 -1.2082  0.1040
  618MOL0     H83415   2.536   0.608   3.131 -2.4295  0.6777  0.0509
  618MOL0     H83416   4.449   0.649   2.868  3.8809 -2.5123 -1.5656
  618MOL0     H83417   4.673   0.713   2.867 -1.0322  1.0003 -0.2704
  618MOL0     H83418   5.048   0.923   3.109 -0.4831  0.2422  0.2885
  618MOL0     H83419   5.288   0.941   3.084 -0.6193  1.4157 -0.1533
  618MOL0     H83420   5.529   0.599   3.114 -1.5222 -0.6407 -1.1755
  618MOL0     H83421   5.565   0.590   2.943  2.5028  0.4838 -0.7333
  618MOL0     H83422   5.697   0.796   3.109 -0.5190  0.9979 -2.0090
  618MOL0     H83423   5.718   0.746   2.940 -0.3393 -2.6878 -0.8167
  618MOL0     H83424   5.754   0.562   3.176 -3.8325 -0.2357 -2.8947
  618MOL0     H83425   5.897   0.666   3.138 -0.7545  0.8443  0.3675
  618MOL0     H83426   5.798   0.512   2.902 -0.7790 -1.4750 -0.0953
  618MOL0     H83427   5.839   0.406   3.040  1.5815 -1.8564 -1.7719
  618MOL0     H83428   6.208   0.519   2.890  0.8419 -2.9021  0.7087
  618MOL0     H83429   5.315   0.522   2.964  0.6548  0.8059 -1.5477
  618MOL0     H83430   5.082   0.509   2.996  1.7593  0.1042 -1.1559
  619MOL0     O83431   9.228   4.266   9.591  0.2746  0.1290 -0.7029
  619MOL0     C83432   9.257   4.213   9.696 -0.2019 -1.6181 -0.9296
  619MOL0     O83433   9.185   4.124   9.773  0.2962  0.2416  0.3391
  619MOL0     C83434   9.055   4.101   9.728  0.0538  0.1536  0.2199
  619MOL0     C83435   8.946   4.162   9.790  0.4640 -0.2921  0.7940
  619MOL0     C83436   8.817   4.130   9.747 -0.9427  0.0580  0.5727
  619MOL0     C83437   8.795   4.038   9.642 -0.5511 -0.4093  0.2167
  619MOL0     O83438   8.666   4.015   9.596  0.3655 -0.2501 -0.0174
  619MOL0     C83439   8.564   3.997   9.701  0.0083 -0.2811 -0.0845
  619MOL0     C83440   8.445   3.934   9.639  0.3299 -0.0915  0.7557
  619MOL0     C83441   8.361   4.032   9.557 -1.3617  0.4086 -0.3762
  619MOL0     C83442   8.272   3.954   9.454  1.3405 -0.4933  0.4616
  619MOL0     C83443   8.163   4.052   9.403 -0.2363 -0.2178  0.1661
  619MOL0     C83444   8.038   4.029   9.483 -0.8556 -0.2877  0.4002
  619MOL0     C83445   7.931   4.135   9.443  0.1391 -0.1070 -0.3773
  619MOL0     C83446   7.809   4.111   9.536  0.4346  0.3858  0.1707
  619MOL0     N83447   7.712   4.222   9.514  0.6527  0.3093 -0.0835
  619MOL0     C83448   7.738   4.359   9.470 -0.1139 -0.6765 -0.0869
  619MOL0     C83449   7.611   4.414   9.463  0.4216  0.4978  0.5358
  619MOL0     C83450   7.583   4.558   9.434 -0.2169 -0.0589 -0.8989
  619MOL0     C83451   7.490   4.575   9.317 -0.1050 -0.0882 -0.6453
  619MOL0     C83452   7.485   4.720   9.268  1.0223  0.8370  0.2537
  619MOL0     C83453   7.436   4.711   9.119 -0.0978  0.0666  0.1966
  619MOL0     O83454   7.323   4.620   9.095  0.5391 -0.2507  0.4184
  619MOL0     C83455   7.195   4.647   9.149  0.3584  0.6369 -0.6211
  619MOL0     C83456   7.141   4.776   9.186 -0.7496 -0.0948  0.3876
  619MOL0     C83457   7.011   4.792   9.239  0.7708 -0.0213 -0.6443
  619MOL0     C83458   6.968   4.933   9.278  0.6772 -0.6159 -0.7692
  619MOL0     C83459   6.927   4.673   9.260  0.3132  0.3836  1.1181
  619MOL0     C83460   6.792   4.682   9.322  0.6742  0.4079 -0.5481
  619MOL0     O83461   6.735   4.562   9.369 -0.3756  0.4222  0.2801
  619MOL0     C83462   6.613   4.562   9.419 -0.3408  0.8809  0.1112
  619MOL0     C83463   6.509   4.623   9.344  0.1183 -0.7857 -0.3267
  619MOL0     C83464   6.379   4.630   9.400 -0.3112 -0.2348  0.6489
  619MOL0     C83465   6.346   4.565   9.519  0.4026 -0.3533  0.0035
  619MOL0     O83466   6.212   4.564   9.545  0.2657  1.0394  1.0901
  619MOL0     C83467   6.164   4.433   9.592 -0.1876 -0.2462  0.4344
  619MOL0     C83468   6.017   4.394   9.556  0.3129 -0.2240  0.0536
  619MOL0     C83469   6.004   4.382   9.406  0.4001  0.8459  0.7887
  619MOL0     C83470   5.866   4.330   9.352 -0.2269 -0.2430  0.5190
  619MOL0     C83471   5.875   4.317   9.198 -0.2844 -0.4847 -0.5177
  619MOL0     C83472   5.768   4.238   9.126  0.6333 -0.5300  0.8985
  619MOL0     C83473   5.799   4.212   8.982 -0.8545 -0.6124  0.8501
  619MOL0     C83474   5.896   4.090   8.953 -0.5401 -0.3162 -0.6804
  619MOL0    Cl83475   5.827   3.944   8.995 -0.2234 -0.4850  0.0459
  619MOL0     C83476   6.445   4.513   9.601 -0.5661 -0.0364 -0.5043
  619MOL0     C83477   6.575   4.510   9.550  0.1922  0.9443  0.2646
  619MOL0     O83478   6.738   4.791   9.326  0.6334  0.7710 -0.7492
  619MOL0     C83479   6.989   4.545   9.242 -0.9503  1.1555 -0.9464
  619MOL0     C83480   7.123   4.540   9.182 -0.3141  0.0108 -0.5170
  619MOL0     N83481   7.514   4.318   9.485  0.0324  0.5564 -0.4741
  619MOL0     N83482   7.574   4.206   9.523  0.0718  0.8458 -0.7198
  619MOL0     C83483   8.903   3.989   9.576 -0.0197 -0.0743  0.0579
  619MOL0     C83484   9.040   4.013   9.620  0.5816  0.6366  0.1043
  619MOL0     C83485   9.403   4.238   9.731  0.2693  0.5797  0.4876
  619MOL0     C83486   9.471   4.127   9.776 -0.3523  0.3421 -0.6539
  619MOL0     C83487   9.612   4.142   9.801 -0.2103 -0.6392 -0.6071
  619MOL0     C83488   9.682   4.264   9.781  0.2439  0.6473  0.5909
  619MOL0     O83489   9.812   4.284   9.817 -0.3934 -0.2117 -0.0639
  619MOL0     C83490   9.893   4.267   9.706 -0.9074  0.1798  0.1583
  619MOL0     C83491   9.906   4.119   9.668  0.0488 -0.1149  0.2953
  619MOL0     C83492   9.951   4.022   9.778  0.1719 -0.5744  0.6787
  619MOL0     C83493  10.081   4.076   9.840 -0.1354  0.0773  0.4182
  619MOL0     C83494  10.140   3.969   9.921  0.5340  0.2943 -0.4162
  619MOL0     C83495  10.184   3.885   9.995  0.2958  0.1104 -0.3468
  619MOL0     C83496   9.612   4.374   9.735  1.1715  0.0929 -0.6804
  619MOL0     C83497   9.473   4.360   9.700  0.1161 -0.2335  0.8012
  619MOL0     H83498   8.952   4.222   9.880  0.8912  1.0547 -0.0975
  619MOL0     H83499   8.744   4.186   9.805 -2.0359 -0.6637 -0.0687
  619MOL0     H83500   8.592   3.927   9.779 -0.2639 -1.9200 -1.4001
  619MOL0     H83501   8.529   4.089   9.748  1.0024  0.8151 -1.4023
  619MOL0     H83502   8.480   3.849   9.579 -1.2036 -1.4637  1.7177
  619MOL0     H83503   8.388   3.884   9.718  0.3940  0.3745  1.0987
  619MOL0     H83504   8.299   4.091   9.626 -0.4845  1.1002 -0.1564
  619MOL0     H83505   8.423   4.106   9.505 -1.6777  1.6522  0.9374
  619MOL0     H83506   8.333   3.930   9.366  2.3100  2.6745  0.1308
  619MOL0     H83507   8.238   3.859   9.494  1.1307 -0.9912 -0.8490
  619MOL0     H83508   8.192   4.157   9.394 -3.5755  0.7761 -0.1109
  619MOL0     H83509   8.133   4.024   9.302 -1.6873 -0.2758  0.5905
  619MOL0     H83510   7.992   3.930   9.469  0.1316 -0.5661 -1.1522
  619MOL0     H83511   8.066   4.035   9.588 -0.4483 -1.3471  0.3669
  619MOL0     H83512   7.979   4.228   9.473  0.4721 -0.6425  0.8308
  619MOL0     H83513   7.916   4.128   9.335  1.0833 -1.0747 -0.4687
  619MOL0     H83514   7.851   4.120   9.636  1.3859  0.2818 -0.2054
  619MOL0     H83515   7.750   4.022   9.512  1.8105 -1.0333  1.8500
  619MOL0     H83516   7.831   4.410   9.445 -0.2373 -0.1434  0.5182
  619MOL0     H83517   7.536   4.607   9.520 -0.4841 -0.1403 -1.0000
  619MOL0     H83518   7.680   4.602   9.409  0.9726 -1.1700  1.4423
  619MOL0     H83519   7.388   4.551   9.347  0.9783  0.1579  3.9311
  619MOL0     H83520   7.526   4.513   9.234  0.9111  3.5934 -3.2381
  619MOL0     H83521   7.583   4.769   9.271  1.0673  0.8141 -0.4629
  619MOL0     H83522   7.414   4.785   9.319 -0.4955  1.1486 -2.0993
  619MOL0     H83523   7.522   4.671   9.064 -0.0126 -1.8697  1.6271
  619MOL0     H83524   7.414   4.815   9.092 -1.4498 -0.1427  0.4303
  619MOL0     H83525   7.194   4.869   9.171  0.1901 -0.6816  0.0336
  619MOL0     H83526   7.046   5.009   9.281  2.3474 -2.2865  0.8649
  619MOL0     H83527   6.896   4.972   9.206  1.0312  1.6815  0.0288
  619MOL0     H83528   6.909   4.933   9.371 -3.1823  0.2837 -2.9683
  619MOL0     H83529   6.537   4.672   9.251  4.0230 -0.7017  0.7234
  619MOL0     H83530   6.296   4.680   9.353  0.5087 -0.2303 -0.8419
  619MOL0     H83531   6.227   4.359   9.543  0.3692  1.2463 -1.2071
  619MOL0     H83532   6.178   4.415   9.699  2.1194 -1.4726 -0.0170
  619MOL0     H83533   5.991   4.306   9.615 -2.6130  0.5552  0.1138
  619MOL0     H83534   5.952   4.480   9.579 -2.8176 -2.6958  1.1520
  619MOL0     H83535   6.072   4.306   9.366 -0.5596  1.4330 -2.1989
  619MOL0     H83536   6.026   4.482   9.365 -1.2190  0.0583 -2.2969
  619MOL0     H83537   5.836   4.234   9.394 -1.2182  0.2189  0.9112
  619MOL0     H83538   5.782   4.397   9.375 -0.8767 -1.0514  0.5374
  619MOL0     H83539   5.973   4.270   9.184  0.5095  1.1235 -0.5883
  619MOL0     H83540   5.887   4.418   9.158  0.7716 -0.0539  0.7932
  619MOL0     H83541   5.753   4.142   9.175 -0.2875  0.2070  2.1013
  619MOL0     H83542   5.672   4.290   9.134  1.3072  0.5320  2.5123
  619MOL0     H83543   5.853   4.295   8.936 -0.8260 -0.9766  0.2199
  619MOL0     H83544   5.709   4.197   8.923 -0.6054  2.0699 -0.3756
  619MOL0     H83545   5.993   4.092   9.005 -0.4028 -1.4993 -0.8658
  619MOL0     H83546   5.921   4.086   8.847  1.7358  0.5772 -0.2589
  619MOL0     H83547   6.441   4.476   9.703  0.6991  0.1375 -0.3778
  619MOL0     H83548   6.658   4.482   9.614  0.7046  0.2766 -0.6751
  619MOL0     H83549   6.939   4.453   9.272 -0.1050  1.0430  0.1765
  619MOL0     H83550   7.174   4.444   9.172  2.1146  1.2816 -1.0925
  619MOL0     H83551   8.891   3.926   9.489 -1.2455 -3.4496  2.4687
  619MOL0     H83552   9.130   3.978   9.570  0.0928 -1.1331  0.4077
  619MOL0     H83553   9.431   4.028   9.796  0.5139  0.4274  1.8020
  619MOL0     H83554   9.665   4.071   9.863 -0.0210 -0.7470 -0.8893
  619MOL0     H83555   9.858   4.319   9.617 -2.2334  0.4835  0.8401
  619MOL0     H83556   9.994   4.303   9.730 -1.7716  2.1386  1.0540
  619MOL0     H83557   9.982   4.135   9.591 -1.5462 -0.1030 -1.3399
  619MOL0     H83558   9.822   4.087   9.606  1.9088 -2.9247 -0.9587
  619MOL0     H83559   9.968   3.933   9.716 -0.7112 -1.1275  1.2227
  619MOL0     H83560   9.874   3.993   9.850  0.1996 -1.3355  0.4183
  619MOL0     H83561  10.063   4.150   9.918  2.8025  1.1584  0.1815
  619MOL0     H83562  10.149   4.115   9.764 -3.3811  1.5409 -1.9480
  619MOL0     H83563  10.226   3.804  10.051  2.4870  0.3349 -1.5834
  619MOL0     H83564   9.667   4.465   9.714 -0.0209  0.7988 -0.8223
  619MOL0     H83565   9.409   4.430   9.647 -2.8714 -2.5264  1.1603
  620MOL0     O83566   7.071   1.510  10.733  0.4336 -0.4671 -0.5751
  620MOL0     C83567   7.113   1.396  10.769  0.0260 -0.0271  0.8511
  620MOL0     O83568   7.040   1.305  10.841 -0.5887  0.5190 -0.0808
  620MOL0     C83569   6.902   1.331  10.856  0.8420  0.4026  0.1749
  620MOL0     C83570   6.848   1.335  10.980 -0.4211 -0.0633  0.3478
  620MOL0     C83571   6.711   1.355  10.997 -0.2169 -0.6663 -0.4972
  620MOL0     C83572   6.624   1.367  10.885  0.1228  0.4641  0.8324
  620MOL0     O83573   6.488   1.394  10.910 -0.4664 -0.5222  0.4349
  620MOL0     C83574   6.400   1.332  10.808  0.8836 -0.0135  0.0193
  620MOL0     C83575   6.357   1.443  10.699  0.7232  0.0776  0.0514
  620MOL0     C83576   6.281   1.548  10.765 -0.2923 -0.6360  0.6997
  620MOL0     C83577   6.135   1.502  10.767  0.0465  0.7262 -1.1701
  620MOL0     C83578   6.048   1.586  10.864 -0.2362 -0.7088  0.7557
  620MOL0     C83579   5.900   1.571  10.842  0.1706  0.2196  0.9404
  620MOL0     C83580   5.848   1.436  10.886  0.2988 -0.2354 -0.1114
  620MOL0     C83581   5.832   1.400  11.038  0.5588  0.5033 -0.2870
  620MOL0     N83582   5.730   1.484  11.105 -0.3079 -0.2927 -0.2572
  620MOL0     C83583   5.752   1.619  11.135 -0.5209  0.6295 -0.4656
  620MOL0     C83584   5.629   1.647  11.192 -1.0079 -0.5857 -0.2709
  620MOL0     C83585   5.602   1.780  11.254  0.0890 -1.0189  0.2691
  620MOL0     C83586   5.619   1.898  11.165 -0.5982 -0.5187  0.3642
  620MOL0     C83587   5.536   2.020  11.217 -0.3644  0.6126 -0.0622
  620MOL0     C83588   5.393   2.000  11.190 -0.3189  0.2910 -0.0910
  620MOL0     O83589   5.330   2.124  11.235 -0.3660  0.2373 -0.1530
  620MOL0     C83590   5.192   2.128  11.253  0.9852  0.3336 -0.3706
  620MOL0     C83591   5.139   2.253  11.292  0.5497  0.7810 -0.1549
  620MOL0     C83592   5.001   2.267  11.327 -0.5854  0.5567 -0.0646
  620MOL0     C83593   4.961   2.407  11.372  0.0114 -0.0587  0.6994
  620MOL0     C83594   4.914   2.148  11.318  0.1973 -0.3673 -1.0607
  620MOL0     C83595   4.780   2.151  11.360  0.8908  0.9256  0.0476
  620MOL0     O83596   4.712   2.037  11.346 -0.0252  0.1554  0.7867
  620MOL0     C83597   4.590   2.029  11.406 -0.4186 -1.4490  0.0734
  620MOL0     C83598   4.473   2.030  11.331 -0.6058  0.1537  0.2291
  620MOL0     C83599   4.348   2.020  11.384  0.1367 -0.7431  0.2984
  620MOL0     C83600   4.328   2.024  11.523 -0.1726  1.0127 -0.7020
  620MOL0     O83601   4.203   2.031  11.572  0.7231 -0.0144 -0.3819
  620MOL0     C83602   4.178   2.084  11.697  0.2860 -0.2213 -0.0972
  620MOL0     C83603   4.034   2.053  11.737 -0.5519 -1.0722 -0.6101
  620MOL0     C83604   3.932   2.092  11.626  0.1551 -0.1822  0.1392
  620MOL0     C83605   3.941   2.224  11.558  0.4624 -0.0651 -0.3866
  620MOL0     C83606   3.821   2.236  11.466  1.2136  0.3819  0.2084
  620MOL0     C83607   3.801   2.386  11.419  0.3534  0.0798 -0.1184
  620MOL0     C83608   3.685   2.395  11.324  0.5189  0.3112  0.4085
  620MOL0     C83609   3.654   2.537  11.272 -0.0977 -0.3218  0.1512
  620MOL0    Cl83610   3.513   2.528  11.162  0.4161 -0.0885 -0.1721
  620MOL0     C83611   4.444   2.038  11.605  0.0868 -0.2254 -0.4198
  620MOL0     C83612   4.578   2.030  11.551  0.8382 -0.6920  0.4102
  620MOL0     O83613   4.734   2.255  11.400 -0.5900 -0.0038  0.1784
  620MOL0     C83614   4.969   2.027  11.276  0.1154  0.5180  0.8414
  620MOL0     C83615   5.106   2.018  11.238 -0.0314  0.8621  0.3166
  620MOL0     N83616   5.546   1.539  11.191  0.1511 -0.1919 -0.0177
  620MOL0     N83617   5.611   1.444  11.141 -0.0060 -0.1090  0.1160
  620MOL0     C83618   6.681   1.361  10.758 -0.9596 -0.0009  0.4881
  620MOL0     C83619   6.821   1.339  10.743  0.5563 -0.3567 -0.2059
  620MOL0     C83620   7.256   1.374  10.728 -0.9766  0.5495  0.4017
  620MOL0     C83621   7.317   1.253  10.771  0.6658  0.5453 -0.8281
  620MOL0     C83622   7.450   1.229  10.739 -1.0091  0.0266  0.0262
  620MOL0     C83623   7.533   1.323  10.681  0.9130 -0.5075  0.5964
  620MOL0     O83624   7.656   1.280  10.646  0.2870 -0.1187 -0.0641
  620MOL0     C83625   7.709   1.329  10.520  0.4507 -1.2281  0.4029
  620MOL0     C83626   7.853   1.277  10.506  0.2964  0.3202  0.6992
  620MOL0     C83627   7.915   1.303  10.368 -0.3724  0.6066 -0.1234
  620MOL0     C83628   8.057   1.248  10.363 -0.0758 -0.6446 -0.0640
  620MOL0     C83629   8.126   1.317  10.257 -0.9868 -0.2313  0.6489
  620MOL0     C83630   8.160   1.362  10.154  0.6137  0.2388 -0.1084
  620MOL0     C83631   7.478   1.447  10.639 -0.5234  0.4537 -1.1151
  620MOL0     C83632   7.339   1.473  10.665  0.1818  0.2992 -0.4888
  620MOL0     H83633   6.920   1.328  11.061  1.2262 -0.3248 -1.0741
  620MOL0     H83634   6.655   1.334  11.088  0.0316 -1.7142 -0.5746
  620MOL0     H83635   6.448   1.243  10.767  0.8673 -0.1214  0.2376
  620MOL0     H83636   6.311   1.293  10.859  1.5220 -0.5399  0.7581
  620MOL0     H83637   6.438   1.493  10.646  2.1133  0.1855  2.1506
  620MOL0     H83638   6.293   1.389  10.629  0.8145 -2.3951  1.7004
  620MOL0     H83639   6.306   1.563  10.870  1.5674 -1.2030  0.3668
  620MOL0     H83640   6.299   1.637  10.704  3.4610  0.1728  2.6842
  620MOL0     H83641   6.088   1.496  10.668 -4.2011  0.6708  0.6301
  620MOL0     H83642   6.135   1.396  10.797 -3.2552  1.1024  0.6903
  620MOL0     H83643   6.069   1.567  10.970 -0.3675  0.1469  0.9418
  620MOL0     H83644   6.068   1.692  10.845 -0.8348 -0.8562 -0.8546
  620MOL0     H83645   5.839   1.653  10.881  0.2265  0.2007  1.0698
  620MOL0     H83646   5.895   1.581  10.733 -2.1660 -2.9730  0.6125
  620MOL0     H83647   5.753   1.422  10.832 -1.4905  0.1866  2.7350
  620MOL0     H83648   5.918   1.364  10.842  0.6338  1.3178 -2.2934
  620MOL0     H83649   5.927   1.418  11.089 -0.4530  0.4882  1.6866
  620MOL0     H83650   5.797   1.297  11.053 -3.2218  1.4724 -1.5750
  620MOL0     H83651   5.844   1.677  11.137  1.3489 -2.0816 -2.3424
  620MOL0     H83652   5.506   1.772  11.307  0.6203 -2.5096  1.0586
  620MOL0     H83653   5.670   1.805  11.336  2.0025 -0.7367 -1.3550
  620MOL0     H83654   5.602   1.880  11.059  1.0315  1.5443 -0.3111
  620MOL0     H83655   5.722   1.933  11.165 -1.2866  1.7193  1.9392
  620MOL0     H83656   5.567   2.112  11.167 -1.1963  0.8917 -0.0786
  620MOL0     H83657   5.554   2.049  11.321  2.0192 -0.2946 -0.1556
  620MOL0     H83658   5.356   1.910  11.240  0.9540 -1.3766 -1.9794
  620MOL0     H83659   5.378   1.982  11.083 -0.8608  2.8919 -0.5249
  620MOL0     H83660   5.210   2.335  11.295  3.7102 -1.7073 -1.3062
  620MOL0     H83661   5.038   2.485  11.363  1.5107 -1.4792  0.7320
  620MOL0     H83662   4.883   2.447  11.307  3.6421  2.6078 -2.5335
  620MOL0     H83663   4.934   2.414  11.478 -0.9373  1.4402  0.3894
  620MOL0     H83664   4.465   2.043  11.223 -1.3851  0.6204  0.3362
  620MOL0     H83665   4.259   2.027  11.323  1.6196 -1.1766 -2.0667
  620MOL0     H83666   4.239   2.032  11.772  1.2169 -0.5893 -1.0654
  620MOL0     H83667   4.198   2.189  11.718 -2.0541 -0.3076  3.0944
  620MOL0     H83668   4.022   1.946  11.755  0.7833 -1.4306 -1.6625
  620MOL0     H83669   4.014   2.118  11.823 -0.1555  1.0264 -2.0228
  620MOL0     H83670   3.835   2.089  11.676  1.2857  0.9429  2.5770
  620MOL0     H83671   3.924   2.014  11.549 -1.5329  1.6255 -1.6382
  620MOL0     H83672   3.933   2.297  11.639 -3.9500 -3.2511  2.5088
  620MOL0     H83673   4.040   2.238  11.514 -0.1908  2.3927 -1.2556
  620MOL0     H83674   3.737   2.209  11.531  2.0672  0.3321  1.3152
  620MOL0     H83675   3.826   2.167  11.382  4.4060 -1.3466  1.6276
  620MOL0     H83676   3.791   2.458  11.501  1.0469  2.9780 -2.3927
  620MOL0     H83677   3.893   2.414  11.367  0.8462  1.0537  1.2133
  620MOL0     H83678   3.602   2.358  11.386  1.4646  0.8652  2.0715
  620MOL0     H83679   3.698   2.327  11.239  2.6197  1.9360 -0.6608
  620MOL0     H83680   3.735   2.580  11.211  0.3774 -0.6284  0.5567
  620MOL0     H83681   3.622   2.605  11.352  0.3169  0.9987 -0.7648
  620MOL0     H83682   4.440   2.034  11.713  1.7187  2.4646 -0.1844
  620MOL0     H83683   4.669   2.024  11.611  0.5567  1.3231  1.1107
  620MOL0     H83684   4.913   1.934  11.267 -0.3312  0.8297  0.2821
  620MOL0     H83685   5.149   1.925  11.204  2.2127  1.4005  1.4731
  620MOL0     H83686   6.624   1.372  10.666 -1.9290 -0.5635  1.0111
  620MOL0     H83687   6.863   1.346  10.643  0.5128  2.2415 -0.0904
  620MOL0     H83688   7.258   1.179  10.823  0.9507 -0.5704 -2.0253
  620MOL0     H83689   7.498   1.136  10.769  1.3669  1.0754 -0.2529
  620MOL0     H83690   7.640   1.288  10.446 -0.0789  0.7906 -0.3009
  620MOL0     H83691   7.723   1.437  10.515  0.6383 -1.0770  3.0770
  620MOL0     H83692   7.854   1.169  10.523  2.0408  0.1077 -0.4339
  620MOL0     H83693   7.920   1.321  10.580  2.0902  1.4515 -1.4629
  620MOL0     H83694   7.905   1.411  10.353 -2.2852  0.3826 -0.6759
  620MOL0     H83695   7.846   1.251  10.301 -2.6958  2.1525  0.9265
  620MOL0     H83696   8.059   1.139  10.349  0.2520 -0.5802 -0.5561
  620MOL0     H83697   8.112   1.275  10.453 -1.0942 -1.5398  0.8488
  620MOL0     H83698   8.181   1.410  10.060 -1.7063  1.2624 -0.1775
  620MOL0     H83699   7.541   1.515  10.583 -3.9264  3.0563 -2.0954
  620MOL0     H83700   7.308   1.571  10.632  1.0860  1.6152  2.2848
  621MOL0     O83701   5.107   9.332   6.034 -0.4606  0.3601  0.8413
  621MOL0     C83702   5.152   9.438   5.988 -0.2626 -0.6177 -0.0399
  621MOL0     O83703   5.087   9.555   5.982 -0.6369 -0.5701 -0.3300
  621MOL0     C83704   4.956   9.547   6.003  0.0029  0.1255  0.0262
  621MOL0     C83705   4.897   9.532   6.132  0.7983 -0.5307  0.7384
  621MOL0     C83706   4.761   9.525   6.145  0.5022 -0.1170 -0.4540
  621MOL0     C83707   4.674   9.526   6.031 -0.1067  0.3602  0.7134
  621MOL0     O83708   4.540   9.525   6.037 -0.3885  0.1551 -0.0352
  621MOL0     C83709   4.479   9.470   6.150 -0.2312 -0.0173 -0.4643
  621MOL0     C83710   4.483   9.318   6.152  0.1809  0.0142 -0.5955
  621MOL0     C83711   4.401   9.257   6.035 -0.2147  0.3301  0.5344
  621MOL0     C83712   4.485   9.240   5.903 -1.3169  0.0183  0.3140
  621MOL0     C83713   4.463   9.099   5.853  0.4135  0.9859  0.2884
  621MOL0     C83714   4.541   8.986   5.933  0.2732 -0.3884 -0.2887
  621MOL0     C83715   4.479   8.856   5.900  0.3220 -1.2653  0.8421
  621MOL0     C83716   4.552   8.741   5.958 -0.0673  0.5086  0.0113
  621MOL0     N83717   4.476   8.616   5.952  1.2475 -0.1583 -0.5599
  621MOL0     C83718   4.494   8.522   5.852  0.0000 -0.1556  0.9765
  621MOL0     C83719   4.393   8.433   5.863  0.0505  0.7137 -0.7172
  621MOL0     C83720   4.349   8.328   5.757  0.9752  0.1989 -0.5395
  621MOL0     C83721   4.462   8.234   5.741  0.4963  0.4592  0.5270
  621MOL0     C83722   4.437   8.106   5.661 -0.0548  0.0961 -0.1744
  621MOL0     C83723   4.371   8.126   5.522  0.0917  0.5957  0.6784
  621MOL0     O83724   4.451   8.220   5.442  0.2215 -0.7672  0.2473
  621MOL0     C83725   4.397   8.293   5.335 -0.8193  0.0017 -0.2547
  621MOL0     C83726   4.280   8.255   5.278 -0.3009 -0.7440 -0.8820
  621MOL0     C83727   4.219   8.332   5.177 -0.3487  0.3272 -0.1565
  621MOL0     C83728   4.096   8.296   5.109 -0.9726 -0.8861 -0.1940
  621MOL0     C83729   4.274   8.461   5.153  0.5518 -0.3856  0.7187
  621MOL0     C83730   4.234   8.542   5.049 -0.8566 -0.2526 -0.2090
  621MOL0     O83731   4.307   8.535   4.936  0.4549 -0.1780 -0.4109
  621MOL0     C83732   4.273   8.624   4.838  0.1417  0.0584 -0.2920
  621MOL0     C83733   4.327   8.759   4.835 -0.0112  0.8588  0.0980
  621MOL0     C83734   4.283   8.845   4.732 -0.3594  0.4996  0.3665
  621MOL0     C83735   4.199   8.802   4.620  0.1027  0.9767 -0.4457
  621MOL0     O83736   4.159   8.872   4.511  0.2521 -0.4560  0.0298
  621MOL0     C83737   4.122   9.011   4.543  0.2419 -0.2653 -0.0139
  621MOL0     C83738   4.089   9.095   4.421  0.2201  0.9912 -0.1161
  621MOL0     C83739   3.940   9.067   4.387  0.0889 -0.9788 -0.1222
  621MOL0     C83740   3.919   8.929   4.317 -0.0322  0.0018  0.0699
  621MOL0     C83741   3.759   8.918   4.287 -0.1092 -0.9900 -0.5630
  621MOL0     C83742   3.728   8.787   4.218  0.4765  0.5399  0.2381
  621MOL0     C83743   3.586   8.785   4.169 -0.1451  0.5933 -0.4469
  621MOL0     C83744   3.468   8.817   4.260 -0.2667  0.0525  0.3039
  621MOL0    Cl83745   3.322   8.778   4.164 -0.1624  0.2707  0.2538
  621MOL0     C83746   4.144   8.676   4.632  0.7239  0.7535 -0.0499
  621MOL0     C83747   4.184   8.593   4.741  0.1441 -0.6655  0.6263
  621MOL0     O83748   4.153   8.627   5.078 -0.0790  0.1730  0.2463
  621MOL0     C83749   4.392   8.504   5.214  0.6055 -0.2863  0.3629
  621MOL0     C83750   4.458   8.413   5.297 -0.0650 -0.0825 -0.1414
  621MOL0     N83751   4.320   8.470   5.989 -0.5084  0.0052  0.0669
  621MOL0     N83752   4.366   8.588   6.030 -0.5825  0.1479 -0.1796
  621MOL0     C83753   4.737   9.531   5.905  0.4211  0.0656 -0.2931
  621MOL0     C83754   4.873   9.534   5.889  0.0795  0.2609  0.4933
  621MOL0     C83755   5.294   9.432   5.927  0.3197  0.3944 -0.4358
  621MOL0     C83756   5.372   9.315   5.934 -0.3552  0.1403  0.4132
  621MOL0     C83757   5.490   9.305   5.858 -0.0241 -0.1462  0.7301
  621MOL0     C83758   5.530   9.399   5.767 -0.7243 -0.1367 -0.5015
  621MOL0     O83759   5.653   9.379   5.694  0.4366  0.4549 -0.1281
  621MOL0     C83760   5.690   9.479   5.603 -1.1529 -0.1154  0.2770
  621MOL0     C83761   5.821   9.456   5.535  0.1458  0.1283  0.1497
  621MOL0     C83762   5.840   9.317   5.489  0.1613 -0.2215  0.5222
  621MOL0     C83763   5.950   9.290   5.385  0.1438  0.4778  0.3003
  621MOL0     C83764   6.087   9.337   5.406 -0.2771 -0.0430 -0.1944
  621MOL0     C83765   6.191   9.400   5.431  0.8952  1.3544 -0.0814
  621MOL0     C83766   5.449   9.514   5.764 -0.8032  0.2594 -0.4704
  621MOL0     C83767   5.333   9.532   5.841  0.4098 -0.0865 -0.0996
  621MOL0     H83768   4.966   9.546   6.214  2.7715  1.2526 -1.0984
  621MOL0     H83769   4.725   9.510   6.246 -2.7735 -0.8430 -1.6006
  621MOL0     H83770   4.526   9.510   6.240  0.5748 -1.5604 -0.1667
  621MOL0     H83771   4.375   9.503   6.155 -0.4269 -0.7461  0.5591
  621MOL0     H83772   4.586   9.281   6.143 -0.6831 -2.1119 -2.9794
  621MOL0     H83773   4.430   9.280   6.240 -0.8802  2.2516 -0.2137
  621MOL0     H83774   4.361   9.159   6.064 -2.4052  0.4540 -1.7804
  621MOL0     H83775   4.311   9.314   6.010 -0.7013 -1.1696 -1.3191
  621MOL0     H83776   4.467   9.316   5.827  2.9828  2.2605  1.2382
  621MOL0     H83777   4.590   9.226   5.931 -1.0828 -1.8163 -1.2903
  621MOL0     H83778   4.356   9.078   5.845  0.8757 -1.3670 -0.5377
  621MOL0     H83779   4.498   9.104   5.749 -1.0714 -0.8225 -0.3521
  621MOL0     H83780   4.647   8.996   5.909  1.0787 -1.5237  2.4030
  621MOL0     H83781   4.532   9.010   6.039 -0.0655  2.4538 -0.8956
  621MOL0     H83782   4.376   8.850   5.937 -0.5467 -0.5936 -1.2984
  621MOL0     H83783   4.481   8.851   5.791  3.3703 -1.0864  0.7869
  621MOL0     H83784   4.564   8.768   6.063 -1.3369  0.5821  0.1572
  621MOL0     H83785   4.648   8.720   5.910 -1.9272 -1.4391 -3.2400
  621MOL0     H83786   4.568   8.516   5.773 -0.5533 -1.5619  0.5511
  621MOL0     H83787   4.260   8.278   5.796 -0.5986 -0.0595 -4.0104
  621MOL0     H83788   4.325   8.371   5.659 -0.1656 -2.4577 -1.5213
  621MOL0     H83789   4.494   8.191   5.837 -1.2730 -1.1722  0.4630
  621MOL0     H83790   4.542   8.286   5.688 -0.2383  0.4234 -0.6485
  621MOL0     H83791   4.377   8.040   5.724  1.1561  0.6199  1.6122
  621MOL0     H83792   4.528   8.052   5.635 -1.1715 -1.4021 -1.1679
  621MOL0     H83793   4.271   8.167   5.536 -1.2891 -2.0475 -0.7635
  621MOL0     H83794   4.357   8.025   5.481 -0.3071  1.5909 -1.8063
  621MOL0     H83795   4.225   8.168   5.312 -1.5388  1.0126  1.9798
  621MOL0     H83796   4.028   8.381   5.120 -2.2777 -1.4159 -3.2747
  621MOL0     H83797   4.120   8.283   5.003 -3.8742 -1.8515 -0.8175
  621MOL0     H83798   4.052   8.204   5.151 -0.8204 -0.8582  0.0310
  621MOL0     H83799   4.396   8.796   4.910  0.6255  0.5716 -0.3404
  621MOL0     H83800   4.321   8.947   4.723 -0.3427  0.4085 -0.7632
  621MOL0     H83801   4.035   8.996   4.608  0.5011  1.7980  0.8933
  621MOL0     H83802   4.183   9.072   4.610 -2.1679  2.0911  0.1966
  621MOL0     H83803   4.103   9.203   4.436 -0.1023  0.9445  0.5850
  621MOL0     H83804   4.156   9.057   4.343  0.8567  1.6665  0.0938
  621MOL0     H83805   3.900   9.144   4.320  0.9469 -0.4124  0.0193
  621MOL0     H83806   3.875   9.076   4.475  0.7659  2.7820  0.1317
  621MOL0     H83807   3.963   8.927   4.217 -4.1187 -0.0241 -1.9460
  621MOL0     H83808   3.951   8.847   4.383 -3.4085  0.2689  2.2704
  621MOL0     H83809   3.725   8.999   4.222 -3.3955 -1.8946 -0.1745
  621MOL0     H83810   3.697   8.932   4.376  0.0533 -0.2204 -0.5705
  621MOL0     H83811   3.794   8.760   4.135  1.8219 -0.3293  1.5544
  621MOL0     H83812   3.737   8.698   4.281 -0.7400 -0.8686 -1.4610
  621MOL0     H83813   3.559   8.684   4.137 -2.2010  1.3854 -1.4006
  621MOL0     H83814   3.582   8.858   4.087  0.2965  2.5138  1.1656
  621MOL0     H83815   3.466   8.921   4.294 -1.2724 -0.5556  2.2544
  621MOL0     H83816   3.470   8.762   4.354  1.3165  2.8295  2.0162
  621MOL0     H83817   4.060   8.639   4.574 -0.4019  0.0560  1.9194
  621MOL0     H83818   4.116   8.508   4.739 -1.3537  0.4003  2.6376
  621MOL0     H83819   4.451   8.591   5.185 -0.0748 -0.2479 -0.9604
  621MOL0     H83820   4.556   8.439   5.337  0.4825 -2.6487  0.3623
  621MOL0     H83821   4.668   9.532   5.821 -1.9513 -1.3977  1.4904
  621MOL0     H83822   4.917   9.520   5.791 -2.4083  3.4370 -1.2750
  621MOL0     H83823   5.345   9.239   6.007 -1.5104 -1.4381 -1.5505
  621MOL0     H83824   5.556   9.220   5.875 -0.1555 -0.3555  0.2153
  621MOL0     H83825   5.616   9.488   5.523 -2.4794 -0.2052  1.4510
  621MOL0     H83826   5.692   9.579   5.648 -2.2014  0.3849 -0.7271
  621MOL0     H83827   5.897   9.468   5.612  1.3056 -2.7461 -0.4238
  621MOL0     H83828   5.847   9.536   5.465 -1.0910 -1.5644 -2.4209
  621MOL0     H83829   5.741   9.290   5.451 -0.3253  0.9152  0.9554
  621MOL0     H83830   5.864   9.256   5.577  1.0960 -1.2862 -0.4236
  621MOL0     H83831   5.912   9.325   5.288  1.6238 -3.9094 -2.1409
  621MOL0     H83832   5.966   9.183   5.367  1.2882  0.6200  0.4223
  621MOL0     H83833   6.282   9.457   5.436  0.4761  2.0813 -0.5135
  621MOL0     H83834   5.479   9.593   5.696  0.8113  0.2380  0.1915
  621MOL0     H83835   5.275   9.621   5.821 -0.8379 -0.8296  0.0654
  622MOL0     O83836   2.100   8.414   1.801  1.7062 -0.0143 -0.2754
  622MOL0     C83837   2.125   8.305   1.754  0.2193  0.5760  0.1183
  622MOL0     O83838   2.033   8.206   1.740 -0.1182  0.2850 -0.6183
  622MOL0     C83839   1.903   8.234   1.755 -0.2223  0.1122 -0.1512
  622MOL0     C83840   1.824   8.239   1.637  0.0025 -0.0349  0.2649
  622MOL0     C83841   1.688   8.254   1.649 -0.2573 -0.2456  0.0854
  622MOL0     C83842   1.618   8.263   1.770 -0.3661  0.0615 -0.9570
  622MOL0     O83843   1.484   8.263   1.794 -0.1811 -0.1622  0.1953
  622MOL0     C83844   1.387   8.245   1.686  0.1705 -0.2878  0.2113
  622MOL0     C83845   1.242   8.251   1.742 -1.0124 -0.1419  0.0000
  622MOL0     C83846   1.185   8.384   1.755 -0.2804 -0.3157 -0.4262
  622MOL0     C83847   1.034   8.385   1.802 -0.3106 -0.2053  0.9140
  622MOL0     C83848   0.979   8.527   1.793 -0.0878  0.1704  0.1090
  622MOL0     C83849   0.833   8.537   1.838  0.2339 -0.3600 -0.9528
  622MOL0     C83850   0.814   8.527   1.991  0.0567  0.2879 -0.7781
  622MOL0     C83851   0.680   8.578   2.047  0.0098  0.0699  0.3432
  622MOL0     N83852   0.691   8.567   2.194 -0.2144 -0.2892  0.3496
  622MOL0     C83853   0.751   8.671   2.265 -0.0477  0.0535 -0.1147
  622MOL0     C83854   0.755   8.622   2.386  0.2558  0.3213  0.8952
  622MOL0     C83855   0.800   8.692   2.509  0.1905  1.2641  0.1810
  622MOL0     C83856   0.701   8.794   2.562  0.1993 -0.5521  1.2078
  622MOL0     C83857   0.725   8.932   2.494  0.2843 -1.5472  0.9830
  622MOL0     C83858   0.643   9.042   2.554  0.4842 -0.0869  0.0381
  622MOL0     O83859   0.505   9.000   2.528 -0.3572  0.2601 -0.3247
  622MOL0     C83860   0.401   9.073   2.569  0.2063  0.2056  0.8353
  622MOL0     C83861   0.417   9.198   2.635  0.7185 -0.3875 -0.6197
  622MOL0     C83862   0.307   9.279   2.660  0.6483 -0.1854  0.7281
  622MOL0     C83863   0.327   9.426   2.696  0.1742 -1.0770  0.0276
  622MOL0     C83864   0.175   9.227   2.644  0.4143  0.0879 -0.6300
  622MOL0     C83865   0.052   9.305   2.685 -0.7308 -0.4919  0.1414
  622MOL0     O83866  -0.067   9.284   2.611  0.0113 -0.1772 -0.0366
  622MOL0     C83867  -0.177   9.333   2.676  0.3098 -0.5549  0.5186
  622MOL0     C83868  -0.192   9.469   2.682 -0.4886  0.4233 -0.5022
  622MOL0     C83869  -0.299   9.510   2.751  0.8541  0.4016  0.3060
  622MOL0     C83870  -0.395   9.431   2.811  0.6686 -0.4579 -0.8707
  622MOL0     O83871  -0.497   9.493   2.886 -0.8528 -0.2344 -0.3954
  622MOL0     C83872  -0.619   9.461   2.806 -0.5223 -0.5881 -0.9468
  622MOL0     C83873  -0.734   9.518   2.888 -0.0676 -0.5171  1.2878
  622MOL0     C83874  -0.730   9.668   2.927  0.7344 -0.6522 -0.0927
  622MOL0     C83875  -0.859   9.707   3.002 -0.0326 -0.2226  0.1696
  622MOL0     C83876  -0.838   9.842   3.069  0.6374 -0.1327  0.1759
  622MOL0     C83877  -0.951   9.880   3.166 -0.1614 -0.0177 -0.1625
  622MOL0     C83878  -0.933  10.029   3.198  0.0086 -0.3900 -0.9359
  622MOL0     C83879  -0.994  10.088   3.333 -0.0657  0.0283 -0.1149
  622MOL0    Cl83880  -0.988  10.262   3.339 -0.1531 -0.1496  0.1232
  622MOL0     C83881  -0.383   9.293   2.806  0.2741 -0.4193  0.3274
  622MOL0     C83882  -0.279   9.240   2.728  0.2491 -0.0038  0.0867
  622MOL0     O83883   0.060   9.380   2.781 -0.1365 -0.1716 -0.1242
  622MOL0     C83884   0.157   9.104   2.587 -0.3564 -0.7663 -0.7804
  622MOL0     C83885   0.270   9.026   2.552 -0.4149  0.0863 -0.3754
  622MOL0     N83886   0.700   8.496   2.393  1.5258  0.4967 -0.7757
  622MOL0     N83887   0.659   8.462   2.274  0.5270 -0.5903  0.6846
  622MOL0     C83888   1.701   8.275   1.882 -0.1702  0.4968 -0.1861
  622MOL0     C83889   1.837   8.254   1.874  0.3662  0.3381  0.6934
  622MOL0     C83890   2.264   8.288   1.707  0.3766 -0.3115 -0.4844
  622MOL0     C83891   2.359   8.386   1.733 -0.4432  0.0626  0.4677
  622MOL0     C83892   2.486   8.369   1.680  0.2657 -0.4397 -0.5436
  622MOL0     C83893   2.521   8.257   1.603 -0.0531  0.3401 -1.0908
  622MOL0     O83894   2.650   8.236   1.546  0.3295 -0.0357 -1.1102
  622MOL0     C83895   2.729   8.354   1.548 -0.3926  0.2043 -0.0629
  622MOL0     C83896   2.866   8.316   1.490 -0.4753 -0.1394  1.1112
  622MOL0     C83897   2.946   8.442   1.457  0.1656  0.3638  0.0387
  622MOL0     C83898   3.078   8.404   1.392  0.0463  0.7089  0.1254
  622MOL0     C83899   3.147   8.520   1.351 -0.5890  0.4694 -0.2642
  622MOL0     C83900   3.219   8.619   1.325 -0.5786  0.7541  0.2383
  622MOL0     C83901   2.427   8.165   1.577  0.6800  0.0092  0.7304
  622MOL0     C83902   2.299   8.177   1.626  0.6131  0.1316  0.2473
  622MOL0     H83903   1.885   8.216   1.550  0.1588  4.2706 -0.9934
  622MOL0     H83904   1.627   8.253   1.559  3.0538 -3.2579 -2.4304
  622MOL0     H83905   1.412   8.309   1.601  0.2734 -0.8888 -0.2243
  622MOL0     H83906   1.396   8.138   1.662  0.4464 -0.0155 -0.9559
  622MOL0     H83907   1.165   8.197   1.685 -0.6192  0.8128 -1.5036
  622MOL0     H83908   1.238   8.204   1.841  3.2644  0.0987  0.4747
  622MOL0     H83909   1.247   8.447   1.819 -0.7106  1.1621 -1.3932
  622MOL0     H83910   1.181   8.432   1.656 -0.4501 -0.2252 -0.3744
  622MOL0     H83911   0.986   8.308   1.741  1.9232  0.7970 -2.3543
  622MOL0     H83912   1.019   8.345   1.903 -3.2307  0.7845  0.9797
  622MOL0     H83913   1.048   8.602   1.834 -0.1488 -0.2726  1.0559
  622MOL0     H83914   0.973   8.559   1.689 -1.6976  1.6664  0.6080
  622MOL0     H83915   0.780   8.630   1.814 -3.2340 -1.5837  1.0975
  622MOL0     H83916   0.777   8.451   1.801 -0.3443 -0.5186  0.2253
  622MOL0     H83917   0.814   8.421   2.016 -1.4917 -0.0952 -2.1903
  622MOL0     H83918   0.899   8.567   2.047 -0.6892 -0.3262  0.8444
  622MOL0     H83919   0.598   8.517   2.007 -3.2864  3.2159  1.7428
  622MOL0     H83920   0.669   8.684   2.022 -0.0934  0.3258  1.4258
  622MOL0     H83921   0.782   8.770   2.231 -2.5429  0.5975 -0.9772
  622MOL0     H83922   0.813   8.615   2.586 -2.3037  0.9316  0.3492
  622MOL0     H83923   0.897   8.739   2.489  1.5937 -1.5176 -0.1414
  622MOL0     H83924   0.698   8.809   2.670 -0.3463  0.5804  1.0518
  622MOL0     H83925   0.602   8.755   2.537  0.7015 -1.8700  1.1829
  622MOL0     H83926   0.700   8.912   2.390 -0.8759  1.5185  0.5828
  622MOL0     H83927   0.830   8.961   2.504  0.0607 -1.2318  2.7601
  622MOL0     H83928   0.664   9.134   2.499 -0.1173  1.5019  2.2985
  622MOL0     H83929   0.649   9.062   2.661 -2.3864  2.0563 -0.0749
  622MOL0     H83930   0.520   9.232   2.641  1.0596 -1.6030  1.1161
  622MOL0     H83931   0.422   9.467   2.659  0.5154 -0.7868  1.1911
  622MOL0     H83932   0.250   9.489   2.650  0.6378  2.4274  3.5292
  622MOL0     H83933   0.319   9.437   2.804  0.3954  1.3851 -0.1534
  622MOL0     H83934  -0.116   9.543   2.659  1.0682 -1.4345 -1.7259
  622MOL0     H83935  -0.307   9.618   2.763 -2.3964  0.1281  1.5381
  622MOL0     H83936  -0.629   9.511   2.710 -2.3191  1.9597  0.4393
  622MOL0     H83937  -0.626   9.352   2.809  2.4059 -0.8518 -0.2650
  622MOL0     H83938  -0.829   9.491   2.842  0.4793 -2.7739  1.3842
  622MOL0     H83939  -0.742   9.454   2.976 -2.3081 -1.2205  0.6333
  622MOL0     H83940  -0.727   9.728   2.835  0.8213 -0.9738 -0.3038
  622MOL0     H83941  -0.632   9.685   2.972  3.8083 -3.4384 -4.7934
  622MOL0     H83942  -0.936   9.723   2.926 -0.2477 -1.7626  0.0340
  622MOL0     H83943  -0.901   9.636   3.074 -0.9251 -1.1750 -1.2475
  622MOL0     H83944  -0.821   9.922   2.996 -0.2400  0.6184  0.7637
  622MOL0     H83945  -0.750   9.828   3.132 -0.9188 -1.0868  2.2942
  622MOL0     H83946  -1.048   9.864   3.117  0.1821 -1.9584 -0.2679
  622MOL0     H83947  -0.943   9.814   3.253 -1.5496  1.9568  1.5818
  622MOL0     H83948  -0.972  10.080   3.109  2.3408 -1.0335 -2.4098
  622MOL0     H83949  -0.826  10.051   3.196  0.8575 -2.3392  5.0544
  622MOL0     H83950  -0.937  10.054   3.421  2.3376  1.5970 -0.9667
  622MOL0     H83951  -1.098  10.058   3.343  0.0332  0.0017  0.9732
  622MOL0     H83952  -0.451   9.229   2.862 -0.8060 -1.3180 -1.8883
  622MOL0     H83953  -0.258   9.134   2.726  1.3942  0.2027  0.5960
  622MOL0     H83954   0.054   9.077   2.563 -0.8618 -0.2777  0.7244
  622MOL0     H83955   0.249   8.931   2.504  0.0343  0.6774 -1.7603
  622MOL0     H83956   1.663   8.285   1.983 -1.2658  2.0818 -0.7306
  622MOL0     H83957   1.887   8.248   1.970  0.4316  0.3370  0.6590
  622MOL0     H83958   2.347   8.477   1.791  2.2189  0.8016 -0.0225
  622MOL0     H83959   2.552   8.449   1.713 -1.5852  0.5780  0.8900
  622MOL0     H83960   2.683   8.429   1.483  0.5379 -0.1704 -1.2044
  622MOL0     H83961   2.747   8.401   1.644  3.9642 -2.9598  0.9739
  622MOL0     H83962   2.848   8.249   1.405  0.5320 -1.7805  2.1142
  622MOL0     H83963   2.928   8.257   1.559  0.8963  0.6156  0.5627
  622MOL0     H83964   2.968   8.500   1.547  2.4849  0.2977 -0.3992
  622MOL0     H83965   2.888   8.500   1.385  2.0992  0.4942 -1.4954
  622MOL0     H83966   3.065   8.340   1.304 -0.3170 -0.0191  0.6921
  622MOL0     H83967   3.142   8.353   1.466 -0.0430 -0.5155 -0.6211
  622MOL0     H83968   3.286   8.697   1.298 -1.9904  1.1334 -2.5595
  622MOL0     H83969   2.461   8.080   1.518  3.3070  0.4613  1.4879
  622MOL0     H83970   2.228   8.099   1.603  1.1144 -0.0519 -0.7194
  623MOL0     O83971   8.489   2.213  10.826  0.6757 -0.3262 -0.0312
  623MOL0     C83972   8.542   2.264  10.726  0.5434 -0.3801  0.4953
  623MOL0     O83973   8.496   2.375  10.665 -0.3591  0.1469 -0.0718
  623MOL0     C83974   8.378   2.432  10.700  0.0053  0.2143 -0.2263
  623MOL0     C83975   8.348   2.485  10.827  0.5003  0.4000 -1.1373
  623MOL0     C83976   8.225   2.546  10.852 -0.5811  0.2889 -0.8017
  623MOL0     C83977   8.131   2.562  10.745 -0.5286  0.4404  0.2063
  623MOL0     O83978   8.012   2.621  10.752 -0.3194  0.3186 -0.0832
  623MOL0     C83979   7.964   2.675  10.871 -0.2618  0.4259  0.1635
  623MOL0     C83980   7.811   2.666  10.865 -0.7002  0.1642  1.1040
  623MOL0     C83981   7.724   2.757  10.955  0.0455 -0.0964  0.1631
  623MOL0     C83982   7.778   2.904  10.966 -0.1191  0.2959 -0.5184
  623MOL0     C83983   7.684   2.999  11.041  1.0622 -0.1862 -0.5534
  623MOL0     C83984   7.746   3.143  11.040 -0.0679  0.5274  0.4608
  623MOL0     C83985   7.680   3.234  11.139  0.2557 -0.5664 -0.0691
  623MOL0     C83986   7.527   3.247  11.132 -0.2395 -0.6973  0.7086
  623MOL0     N83987   7.465   3.137  11.204  1.1055  0.1451 -0.3953
  623MOL0     C83988   7.351   3.065  11.158 -0.7185 -0.3101 -0.0300
  623MOL0     C83989   7.315   2.988  11.264  0.7041 -0.2077  0.0358
  623MOL0     C83990   7.190   2.901  11.267  0.2315  0.3380 -0.7444
  623MOL0     C83991   7.167   2.823  11.138  0.7851  0.6039 -0.0065
  623MOL0     C83992   7.042   2.730  11.138 -0.5286 -0.2356  0.1191
  623MOL0     C83993   6.911   2.781  11.190 -0.1192  0.3701 -0.4401
  623MOL0     O83994   6.873   2.915  11.135  0.1905  0.8217  0.2790
  623MOL0     C83995   6.763   2.968  11.191 -0.6669  0.3747 -0.3098
  623MOL0     C83996   6.740   2.976  11.326 -0.3601  0.6869 -0.4315
  623MOL0     C83997   6.622   3.015  11.380 -0.0686  0.7948 -0.6712
  623MOL0     C83998   6.604   3.024  11.525 -0.7772  0.3991  0.4790
  623MOL0     C83999   6.517   3.038  11.296  1.3362 -0.2868  0.6282
  623MOL0     C84000   6.374   3.080  11.337  0.4237 -0.0873 -0.5479
  623MOL0     O84001   6.348   3.127  11.467 -0.9098 -0.1223  0.9307
  623MOL0     C84002   6.220   3.140  11.490  0.7981  1.0383  0.4696
  623MOL0     C84003   6.149   3.059  11.580 -0.2706  0.0799 -0.8587
  623MOL0     C84004   6.016   3.078  11.602  0.3876 -0.4149 -0.3686
  623MOL0     C84005   5.943   3.180  11.541  0.1728  0.4529 -0.0689
  623MOL0     O84006   5.810   3.179  11.559 -0.7949 -0.6647 -0.4244
  623MOL0     C84007   5.740   3.270  11.482  0.3843 -1.0051 -1.0502
  623MOL0     C84008   5.593   3.265  11.526 -0.7045 -0.4481  0.2714
  623MOL0     C84009   5.584   3.347  11.660 -0.1937 -0.6419 -0.0771
  623MOL0     C84010   5.457   3.329  11.730  1.0034 -0.0751 -0.4350
  623MOL0     C84011   5.353   3.430  11.683  0.8355  0.2421  0.6166
  623MOL0     C84012   5.207   3.406  11.742 -0.0521 -0.2016  0.4556
  623MOL0     C84013   5.095   3.510  11.709 -1.2246 -0.0320 -0.0297
  623MOL0     C84014   4.962   3.462  11.762 -0.3592 -0.9300 -0.0761
  623MOL0    Cl84015   4.843   3.591  11.693  0.2997 -0.0810  0.1957
  623MOL0     C84016   6.017   3.277  11.467  0.1722  0.2973 -0.7478
  623MOL0     C84017   6.155   3.252  11.451 -0.0689 -1.4783 -0.0225
  623MOL0     O84018   6.288   3.059  11.249 -0.5071  0.1272 -0.2830
  623MOL0     C84019   6.537   3.035  11.159  0.1520 -0.4900 -0.2780
  623MOL0     C84020   6.663   3.013  11.108  0.0170  0.5140 -0.1292
  623MOL0     N84021   7.405   3.008  11.365  0.3585 -0.0006 -0.1394
  623MOL0     N84022   7.484   3.095  11.334  0.7093 -0.4043 -0.1014
  623MOL0     C84023   8.170   2.519  10.617  0.5216  0.8713 -0.6103
  623MOL0     C84024   8.289   2.451  10.600 -0.2106 -0.1172 -0.5551
  623MOL0     C84025   8.654   2.178  10.663  0.6676  0.0001  0.5124
  623MOL0     C84026   8.705   2.219  10.546 -0.0703  0.6616 -0.1519
  623MOL0     C84027   8.796   2.142  10.479  0.6397  0.0888 -0.2011
  623MOL0     C84028   8.849   2.022  10.531  0.0348  0.9060  1.1322
  623MOL0     O84029   8.941   1.935  10.481 -0.0387 -0.5952 -0.8263
  623MOL0     C84030   9.032   1.988  10.388  0.2543 -0.2255 -0.1814
  623MOL0     C84031   9.160   1.908  10.350  1.0299  0.3761  0.2266
  623MOL0     C84032   9.258   1.911  10.461 -0.5770 -0.0099  0.0352
  623MOL0     C84033   9.364   1.802  10.458 -0.9687 -0.5431 -0.6064
  623MOL0     C84034   9.463   1.814  10.349 -0.3253 -0.2667  0.1994
  623MOL0     C84035   9.555   1.815  10.267  0.1317 -0.0652 -0.1321
  623MOL0     C84036   8.789   1.976  10.652 -0.5069  0.3066 -0.2508
  623MOL0     C84037   8.688   2.053  10.715 -0.9388  0.5345  0.0829
  623MOL0     H84038   8.420   2.476  10.907 -1.3309  1.0912  0.6794
  623MOL0     H84039   8.206   2.590  10.950  0.0085 -0.8954 -0.1397
  623MOL0     H84040   7.998   2.629  10.964 -1.9927 -0.0179  0.6000
  623MOL0     H84041   7.995   2.780  10.869 -1.3633  0.7691 -2.1522
  623MOL0     H84042   7.781   2.672  10.760  2.4435  1.9952  0.1928
  623MOL0     H84043   7.799   2.562  10.896 -0.6194 -0.3549 -0.5064
  623MOL0     H84044   7.620   2.747  10.924  0.4755  0.9481 -1.7271
  623MOL0     H84045   7.723   2.709  11.054  0.2432  0.7988  0.6144
  623MOL0     H84046   7.877   2.899  11.012 -0.2919 -0.9170 -0.2373
  623MOL0     H84047   7.798   2.940  10.865  1.1723 -0.8803 -0.7118
  623MOL0     H84048   7.584   3.008  10.998  0.3227 -1.6394  0.7506
  623MOL0     H84049   7.668   2.966  11.144 -0.2167 -0.8967 -0.9553
  623MOL0     H84050   7.852   3.142  11.065 -0.3856  0.9757  1.9505
  623MOL0     H84051   7.727   3.177  10.938  0.6678 -1.5299 -0.4187
  623MOL0     H84052   7.717   3.200  11.236  0.2484  0.3333  0.2612
  623MOL0     H84053   7.731   3.330  11.127  1.8591 -1.0308  2.3461
  623MOL0     H84054   7.506   3.259  11.025  0.2234  1.4912  0.8093
  623MOL0     H84055   7.482   3.338  11.173 -2.8065 -2.6550  2.5533
  623MOL0     H84056   7.307   3.086  11.061 -0.9944 -0.3115  0.0969
  623MOL0     H84057   7.194   2.829  11.350  0.8870  0.5040 -0.6211
  623MOL0     H84058   7.114   2.973  11.298 -0.0907 -0.1857 -0.3017
  623MOL0     H84059   7.251   2.763  11.102 -0.4373 -0.3983 -1.3238
  623MOL0     H84060   7.151   2.900  11.063 -1.7461  0.8306  0.6833
  623MOL0     H84061   7.064   2.647  11.206 -0.9865 -1.7907 -1.5266
  623MOL0     H84062   7.037   2.694  11.034  0.7309  3.1275 -1.2566
  623MOL0     H84063   6.920   2.781  11.299 -1.8316 -2.2338 -0.2269
  623MOL0     H84064   6.826   2.715  11.174  0.1185  0.0912 -0.5552
  623MOL0     H84065   6.823   2.949  11.390  0.3486 -2.3023 -2.4417
  623MOL0     H84066   6.513   2.970  11.552 -2.1199  1.0130 -2.4382
  623MOL0     H84067   6.685   2.970  11.576 -1.7168 -1.0598  0.4657
  623MOL0     H84068   6.610   3.129  11.555 -0.4449  0.5687 -0.1714
  623MOL0     H84069   6.199   2.977  11.630  1.5101  0.1335 -2.4415
  623MOL0     H84070   5.970   2.992  11.648  1.6335 -2.4925 -2.7444
  623MOL0     H84071   5.784   3.368  11.502  2.2266 -1.9214 -0.4589
  623MOL0     H84072   5.750   3.252  11.374  2.2001  0.7389 -1.2441
  623MOL0     H84073   5.521   3.304  11.453 -1.8664  1.2242  2.1955
  623MOL0     H84074   5.566   3.163  11.555 -0.3355 -0.5421  0.2798
  623MOL0     H84075   5.601   3.454  11.646 -3.0975  0.5303  3.6446
  623MOL0     H84076   5.663   3.314  11.728 -0.8866 -2.8896 -0.2915
  623MOL0     H84077   5.411   3.231  11.720  0.7638 -0.1539  1.2444
  623MOL0     H84078   5.462   3.362  11.834 -1.0573 -0.2021 -0.2552
  623MOL0     H84079   5.355   3.433  11.573 -0.7356  1.2273  0.5823
  623MOL0     H84080   5.386   3.529  11.714 -1.1107  0.2843  2.8517
  623MOL0     H84081   5.171   3.307  11.714 -1.0029 -0.1254  1.3596
  623MOL0     H84082   5.220   3.402  11.850 -0.1033 -4.6567  0.4679
  623MOL0     H84083   5.083   3.521  11.601  2.1578 -0.9910 -0.5839
  623MOL0     H84084   5.128   3.604  11.755  2.1705 -0.9625 -0.3538
  623MOL0     H84085   4.954   3.459  11.871  1.6116  0.1412  0.1473
  623MOL0     H84086   4.929   3.369  11.715 -0.7364  0.2647 -2.3225
  623MOL0     H84087   5.976   3.373  11.435  2.2322  1.0449 -1.2918
  623MOL0     H84088   6.207   3.328  11.394  1.6452 -0.1687  3.0260
  623MOL0     H84089   6.458   3.061  11.088 -0.1158  2.0755  0.8476
  623MOL0     H84090   6.676   3.008  11.001 -1.3908 -0.1424 -0.2918
  623MOL0     H84091   8.095   2.510  10.539 -0.0387  0.5697 -0.0438
  623MOL0     H84092   8.310   2.409  10.502  1.8734  0.0030 -0.1990
  623MOL0     H84093   8.670   2.312  10.501 -0.9576 -0.2952 -1.5147
  623MOL0     H84094   8.825   2.174  10.380  0.7619 -0.8535 -0.4780
  623MOL0     H84095   8.979   2.011  10.294 -1.5587  0.8541  1.0403
  623MOL0     H84096   9.068   2.083  10.430  0.0056 -1.0243  1.9144
  623MOL0     H84097   9.209   1.951  10.262  0.5368 -0.8188 -0.6664
  623MOL0     H84098   9.138   1.802  10.334  2.1801  0.1632 -0.0180
  623MOL0     H84099   9.198   1.905  10.553  0.6512  0.3760  0.8928
  623MOL0     H84100   9.310   2.007  10.453 -0.0335 -0.2593  0.4991
  623MOL0     H84101   9.316   1.704  10.451 -0.0314 -1.0537 -0.0675
  623MOL0     H84102   9.419   1.799  10.553  1.7984  0.1271 -2.0725
  623MOL0     H84103   9.615   1.830  10.180  0.9607 -0.6851  0.3147
  623MOL0     H84104   8.822   1.880  10.692 -0.4079  0.5618  0.2874
  623MOL0     H84105   8.648   2.018  10.809  0.8638  0.2510  0.8003
  624MOL0     O84106   0.559   6.262  10.556  0.2079 -1.1494  0.1751
  624MOL0     C84107   0.575   6.137  10.552  0.6330 -0.0749  0.0751
  624MOL0     O84108   0.480   6.048  10.586  0.5581  0.1538 -0.2833
  624MOL0     C84109   0.359   6.093  10.642 -0.0900 -0.3548  0.3114
  624MOL0     C84110   0.258   6.003  10.616 -1.1550  0.1682 -0.2039
  624MOL0     C84111   0.138   6.013  10.669  0.1481 -0.8187  0.3443
  624MOL0     C84112   0.110   6.123  10.753 -1.3822 -0.0293 -0.4275
  624MOL0     O84113  -0.017   6.132  10.789 -0.1741 -0.4355  0.4981
  624MOL0     C84114  -0.043   6.218  10.903  0.5947  0.1523 -0.1022
  624MOL0     C84115  -0.197   6.220  10.920 -0.1748  0.2962 -0.1858
  624MOL0     C84116  -0.260   6.083  10.960 -0.4738 -0.1750 -0.2482
  624MOL0     C84117  -0.413   6.100  11.000 -0.1106 -0.0639  0.0782
  624MOL0     C84118  -0.479   5.970  11.059 -0.0713 -0.1294  0.0585
  624MOL0     C84119  -0.619   6.003  11.091 -0.8136  0.8506 -0.1619
  624MOL0     C84120  -0.696   5.897  11.157 -0.1260 -0.0843 -0.0670
  624MOL0     C84121  -0.707   5.768  11.068  0.0341 -0.5132  0.2598
  624MOL0     N84122  -0.832   5.688  11.099  0.0473 -0.7921  0.4802
  624MOL0     C84123  -0.954   5.710  11.034 -0.2415 -0.0457 -0.1723
  624MOL0     C84124  -1.039   5.646  11.114 -0.0356 -0.2296  0.5353
  624MOL0     C84125  -1.188   5.643  11.089 -1.0083 -0.3630  0.8688
  624MOL0     C84126  -1.242   5.500  11.092  0.2411  0.6865  0.1920
  624MOL0     C84127  -1.164   5.409  10.996  0.1908  0.6035 -0.1661
  624MOL0     C84128  -1.213   5.264  11.001  0.9366  0.5392 -0.8019
  624MOL0     O84129  -1.356   5.243  11.026  0.9733 -0.0046 -0.3619
  624MOL0     C84130  -1.435   5.219  10.918  0.7479 -0.3841 -0.0052
  624MOL0     C84131  -1.395   5.232  10.783  0.2996 -0.1564 -0.8191
  624MOL0     C84132  -1.489   5.219  10.672 -0.0844 -0.0584  0.9200
  624MOL0     C84133  -1.426   5.236  10.534  0.0347 -0.7600 -0.2292
  624MOL0     C84134  -1.618   5.185  10.704 -0.0132  0.3905  0.4036
  624MOL0     C84135  -1.729   5.146  10.607 -0.4248 -0.0018  0.5334
  624MOL0     O84136  -1.697   5.108  10.483  0.1299 -0.0375 -0.0049
  624MOL0     C84137  -1.800   5.108  10.390 -0.9900  0.2846 -0.7900
  624MOL0     C84138  -1.814   5.208  10.293  0.1060 -0.2547 -0.0117
  624MOL0     C84139  -1.918   5.214  10.200 -0.2073  0.0147  0.1276
  624MOL0     C84140  -2.011   5.105  10.202  0.4450 -0.3298 -0.7524
  624MOL0     O84141  -2.112   5.105  10.111  0.3930 -0.2642  0.3784
  624MOL0     C84142  -2.233   5.042  10.139  0.2320  0.3819 -0.1522
  624MOL0     C84143  -2.328   5.062  10.012  0.0422  0.6744 -0.0277
  624MOL0     C84144  -2.466   4.997  10.027  0.8879  0.2441 -0.0664
  624MOL0     C84145  -2.540   4.995   9.888 -0.3169 -0.0382  0.5185
  624MOL0     C84146  -2.662   4.898   9.901  0.0674 -0.8136 -0.5176
  624MOL0     C84147  -2.707   4.868   9.761  0.2989 -0.7361  0.7512
  624MOL0     C84148  -2.841   4.800   9.766 -0.5751  0.4337 -0.4840
  624MOL0     C84149  -2.919   4.789   9.635  0.2037 -1.0443 -0.6741
  624MOL0    Cl84150  -2.820   4.752   9.486  0.2248 -0.3461  0.1297
  624MOL0     C84151  -1.985   4.999  10.296  0.4710 -0.0520  0.7614
  624MOL0     C84152  -1.881   4.998  10.390 -0.2223 -1.3387 -0.1524
  624MOL0     O84153  -1.843   5.164  10.642 -0.6373 -0.1038 -0.2265
  624MOL0     C84154  -1.662   5.162  10.840 -0.1537 -0.6733  0.0239
  624MOL0     C84155  -1.570   5.190  10.942  0.3268  0.3144  0.0580
  624MOL0     N84156  -0.975   5.586  11.218 -0.1271  0.1989 -0.8187
  624MOL0     N84157  -0.852   5.614  11.213  0.2589  0.0595  0.2879
  624MOL0     C84158   0.219   6.214  10.788  0.9508  0.3335  0.2593
  624MOL0     C84159   0.347   6.191  10.730 -0.4499 -0.2156  0.2480
  624MOL0     C84160   0.700   6.077  10.517 -0.5264  0.4283  0.0753
  624MOL0     C84161   0.823   6.151  10.521  0.5920  0.7019 -0.4715
  624MOL0     C84162   0.949   6.098  10.494 -0.2238 -0.4712 -0.4649
  624MOL0     C84163   0.961   5.961  10.467  0.8743 -0.1941  0.5671
  624MOL0     O84164   1.081   5.898  10.451  0.3795  0.3457 -0.7763
  624MOL0     C84165   1.200   5.939  10.522  0.1132  0.2824 -0.3129
  624MOL0     C84166   1.337   5.892  10.467  0.7410  0.1372  0.5894
  624MOL0     C84167   1.464   5.938  10.558  0.7337 -0.5750 -0.1194
  624MOL0     C84168   1.586   5.921  10.481  0.1109 -0.1789 -0.1048
  624MOL0     C84169   1.700   5.911  10.584 -0.4529  1.0227 -0.7265
  624MOL0     C84170   1.794   5.923  10.666  0.0366 -0.0308  0.3220
  624MOL0     C84171   0.842   5.884  10.448 -1.3294 -0.3791 -0.3447
  624MOL0     C84172   0.717   5.940  10.482  0.4480 -0.4510  0.6813
  624MOL0     H84173   0.282   5.929  10.541  4.0824 -0.1249  1.3952
  624MOL0     H84174   0.057   5.946  10.644 -0.2558 -0.2575  0.1291
  624MOL0     H84175  -0.001   6.183  10.998  1.8854 -1.0528 -1.0570
  624MOL0     H84176  -0.012   6.320  10.879  2.7014 -0.2327  0.7100
  624MOL0     H84177  -0.238   6.296  10.987  1.1991 -0.2792  1.3601
  624MOL0     H84178  -0.234   6.245  10.820  1.3974  0.5514 -0.7294
  624MOL0     H84179  -0.248   6.004  10.885  0.1067 -2.1947  1.8484
  624MOL0     H84180  -0.211   6.049  11.052 -0.5091  0.3622 -0.0268
  624MOL0     H84181  -0.407   6.171  11.083  2.6245  0.9453 -0.8552
  624MOL0     H84182  -0.482   6.139  10.925  1.3406  1.2105 -0.6353
  624MOL0     H84183  -0.478   5.897  10.978 -3.0116 -1.1967  0.8748
  624MOL0     H84184  -0.427   5.941  11.151 -1.3675 -0.6009  0.6534
  624MOL0     H84185  -0.628   6.100  11.140  2.7045  0.4367  1.6036
  624MOL0     H84186  -0.668   6.021  10.995 -0.8019 -0.0954 -0.3616
  624MOL0     H84187  -0.646   5.876  11.252  2.2593  3.8209 -0.2098
  624MOL0     H84188  -0.799   5.931  11.173 -0.5092 -1.5914  0.8929
  624MOL0     H84189  -0.628   5.698  11.095 -0.1832 -0.2847  1.5338
  624MOL0     H84190  -0.707   5.785  10.960 -1.5924  1.5948  0.5268
  624MOL0     H84191  -0.986   5.772  10.951 -0.7643  0.8321  0.6542
  624MOL0     H84192  -1.243   5.697  11.167 -2.6538  1.1409 -1.2238
  624MOL0     H84193  -1.200   5.706  11.001 -0.5146 -0.1102  0.9805
  624MOL0     H84194  -1.350   5.497  11.073  0.2450 -0.6862  0.2765
  624MOL0     H84195  -1.227   5.465  11.195  1.1670  3.6479  1.1472
  624MOL0     H84196  -1.059   5.403  11.026 -0.6895  1.3380  3.6037
  624MOL0     H84197  -1.176   5.452  10.896 -1.4002  0.6824  0.0418
  624MOL0     H84198  -1.164   5.205  11.079  1.3825  0.4064 -1.1746
  624MOL0     H84199  -1.177   5.212  10.911 -1.5833  0.3885 -1.7884
  624MOL0     H84200  -1.296   5.272  10.762 -0.0956  1.8294  0.8333
  624MOL0     H84201  -1.503   5.283  10.472  0.3700 -2.1942 -1.8021
  624MOL0     H84202  -1.334   5.296  10.539 -1.6020  1.8864  0.6172
  624MOL0     H84203  -1.410   5.135  10.495  0.4501  0.1608 -2.6251
  624MOL0     H84204  -1.744   5.290  10.305  2.6769 -2.2461 -0.3193
  624MOL0     H84205  -1.938   5.297  10.133 -3.3682 -1.5887 -1.1349
  624MOL0     H84206  -2.228   4.933  10.149 -1.6561  0.4524  2.7163
  624MOL0     H84207  -2.273   5.083  10.232  1.3764 -0.7180  0.8632
  624MOL0     H84208  -2.342   5.168   9.988  1.4154  1.1894  1.2735
  624MOL0     H84209  -2.285   5.011   9.925  2.4236 -2.4607  2.7373
  624MOL0     H84210  -2.536   5.058  10.086 -1.0005 -0.6850 -1.2330
  624MOL0     H84211  -2.460   4.898  10.072 -0.7344  0.9373  1.8044
  624MOL0     H84212  -2.560   5.095   9.850 -1.4418 -2.0532 -5.2311
  624MOL0     H84213  -2.473   4.952   9.813  2.1784  2.2569  1.2772
  624MOL0     H84214  -2.741   4.951   9.955  0.0407  2.3135 -3.2779
  624MOL0     H84215  -2.635   4.805   9.951 -0.8093 -0.4847  0.6105
  624MOL0     H84216  -2.716   4.957   9.699  2.0877 -0.5185  0.7494
  624MOL0     H84217  -2.634   4.797   9.721 -2.0306 -3.1498  0.5123
  624MOL0     H84218  -2.915   4.841   9.836 -1.7098 -0.6719 -0.9896
  624MOL0     H84219  -2.819   4.703   9.813 -0.1586  1.4126  1.4647
  624MOL0     H84220  -2.955   4.891   9.616  2.7412 -0.1449 -1.0070
  624MOL0     H84221  -3.007   4.725   9.646 -3.0856  2.8154 -1.9468
  624MOL0     H84222  -2.051   4.914  10.309  2.2742 -1.3464  2.0161
  624MOL0     H84223  -1.869   4.902  10.440 -0.9021 -2.9274 -2.7739
  624MOL0     H84224  -1.765   5.143  10.866  0.2856 -0.7195  1.8752
  624MOL0     H84225  -1.604   5.191  11.045 -1.6343  0.0506 -0.5535
  624MOL0     H84226   0.210   6.297  10.856 -0.7730  0.3383  0.0573
  624MOL0     H84227   0.424   6.261  10.758 -1.1923  0.9331 -0.4983
  624MOL0     H84228   0.811   6.256  10.545 -5.1165  0.2592  0.0508
  624MOL0     H84229   1.035   6.164  10.500 -3.1903  3.7685  0.1256
  624MOL0     H84230   1.209   6.047  10.535  1.7402  0.0011  1.1862
  624MOL0     H84231   1.183   5.911  10.626 -1.1805  1.2801 -0.2270
  624MOL0     H84232   1.351   5.929  10.365 -0.0974  0.5824  0.6261
  624MOL0     H84233   1.347   5.783  10.466  0.0609  0.0465  1.6268
  624MOL0     H84234   1.464   5.880  10.651 -2.6841  2.6518  2.2083
  624MOL0     H84235   1.452   6.042  10.590  1.5804 -0.9317  1.4411
  624MOL0     H84236   1.603   6.005  10.413  2.8296 -0.9081 -0.4620
  624MOL0     H84237   1.586   5.823  10.432  0.2419 -0.2066 -0.0510
  624MOL0     H84238   1.878   5.921  10.733  1.8924 -0.4502 -1.9016
  624MOL0     H84239   0.848   5.783  10.410  3.2644 -1.8853  3.3819
  624MOL0     H84240   0.635   5.869  10.480  0.1461 -0.1979  2.6506
  625MOL0     O84241   5.192   9.018   9.616  0.0205  0.1682 -0.1938
  625MOL0     C84242   5.187   8.897   9.624 -0.4631 -0.2586  0.6153
  625MOL0     O84243   5.096   8.815   9.557  0.4507  0.9470 -0.2990
  625MOL0     C84244   4.972   8.863   9.515 -0.3429  0.4296  0.1344
  625MOL0     C84245   4.906   8.778   9.424  0.1033  0.1949 -0.1144
  625MOL0     C84246   4.774   8.802   9.388 -0.4078  0.3203  0.5407
  625MOL0     C84247   4.709   8.915   9.421  0.3601 -0.4088 -0.0840
  625MOL0     O84248   4.573   8.933   9.394  1.1416 -0.6374  0.5931
  625MOL0     C84249   4.542   9.052   9.323  0.2914  0.1824  0.0739
  625MOL0     C84250   4.403   9.027   9.263 -0.0319 -1.2012  0.9903
  625MOL0     C84251   4.289   9.014   9.370  1.0465 -0.8890 -0.2403
  625MOL0     C84252   4.153   9.028   9.308  0.3262  0.1191 -0.3081
  625MOL0     C84253   4.031   8.972   9.393 -0.5483  0.9228 -0.0005
  625MOL0     C84254   4.003   9.053   9.524 -0.8339 -0.4872  0.8484
  625MOL0     C84255   3.902   8.994   9.618  1.2438 -0.5899  1.0911
  625MOL0     C84256   3.894   9.062   9.762  0.0625  0.1337  0.4219
  625MOL0     N84257   3.787   9.010   9.843  0.3390 -0.1165 -0.9555
  625MOL0     C84258   3.788   8.908   9.930 -0.2800  0.5174 -0.3093
  625MOL0     C84259   3.671   8.924  10.004  0.1217 -0.4135 -1.2188
  625MOL0     C84260   3.617   8.838  10.117  0.4433  0.5897 -0.0203
  625MOL0     C84261   3.724   8.765  10.195  0.1838  0.0671 -0.2049
  625MOL0     C84262   3.663   8.691  10.322  0.0898 -1.0547  0.2799
  625MOL0     C84263   3.662   8.781  10.447  0.5159 -0.0266 -0.0860
  625MOL0     O84264   3.568   8.893  10.430 -0.5465 -0.5839 -0.4310
  625MOL0     C84265   3.553   8.976  10.534  0.6277  0.1868  0.4306
  625MOL0     C84266   3.458   9.078  10.502 -0.6002  0.1112 -0.0058
  625MOL0     C84267   3.447   9.189  10.589 -0.4100  0.5744 -0.4659
  625MOL0     C84268   3.358   9.299  10.541 -0.1416 -0.1728  0.6935
  625MOL0     C84269   3.506   9.180  10.713 -0.0608  0.1662  0.0640
  625MOL0     C84270   3.470   9.275  10.820 -0.3848  0.3532  0.4255
  625MOL0     O84271   3.493   9.233  10.948 -0.0274 -0.4770 -0.3359
  625MOL0     C84272   3.412   9.278  11.045 -0.5758 -0.3901 -0.2476
  625MOL0     C84273   3.466   9.353  11.153  0.0280 -0.3696  0.7386
  625MOL0     C84274   3.382   9.394  11.259 -0.3368  0.4698  0.4728
  625MOL0     C84275   3.252   9.358  11.259  0.1016 -0.0944 -0.8553
  625MOL0     O84276   3.165   9.397  11.358 -0.0852  0.5118  0.5456
  625MOL0     C84277   3.179   9.344  11.486 -1.0441  0.6250 -0.0830
  625MOL0     C84278   3.116   9.199  11.499  0.3040  0.3971  0.5378
  625MOL0     C84279   3.114   9.157  11.646  0.2165 -0.2458 -0.4388
  625MOL0     C84280   3.246   9.127  11.699  1.0162 -0.0335 -0.0321
  625MOL0     C84281   3.241   9.068  11.845  0.1409  0.0985  0.2454
  625MOL0     C84282   3.184   9.158  11.957 -0.0530  0.1505  0.2697
  625MOL0     C84283   3.243   9.297  11.964  0.2964  0.4726  0.3716
  625MOL0     C84284   3.135   9.406  11.938  0.2072 -0.7657  0.0794
  625MOL0    Cl84285   3.034   9.412  12.085 -0.0258  0.1442 -0.2078
  625MOL0     C84286   3.198   9.279  11.158  0.1554  0.2695  0.5162
  625MOL0     C84287   3.279   9.238  11.050 -0.4276  0.8379 -0.8762
  625MOL0     O84288   3.418   9.382  10.795  0.1954  0.3845  0.2820
  625MOL0     C84289   3.583   9.071  10.747  0.1889  0.5079 -0.5120
  625MOL0     C84290   3.617   8.973  10.656 -0.5543 -0.7810 -0.0238
  625MOL0     N84291   3.600   9.033   9.953 -0.0640  0.3077 -0.2578
  625MOL0     N84292   3.666   9.076   9.858  0.5191  0.0041 -0.2579
  625MOL0     C84293   4.772   9.004   9.511  0.1476 -0.1151 -0.7054
  625MOL0     C84294   4.905   8.980   9.558  0.0025 -0.5337  0.3369
  625MOL0     C84295   5.305   8.839   9.680 -0.5649 -0.5364  0.0159
  625MOL0     C84296   5.420   8.921   9.692 -0.7692 -0.0554 -0.1138
  625MOL0     C84297   5.532   8.870   9.748 -0.5352 -0.1052 -0.2168
  625MOL0     C84298   5.538   8.735   9.801  0.2704 -0.6811 -0.1775
  625MOL0     O84299   5.649   8.684   9.862  0.5177  0.1349 -0.1921
  625MOL0     C84300   5.731   8.605   9.779 -0.4228 -0.4543  0.3529
  625MOL0     C84301   5.835   8.692   9.699  0.3325  0.4883  0.4076
  625MOL0     C84302   5.916   8.781   9.800  0.4138 -0.0360 -0.8078
  625MOL0     C84303   6.032   8.705   9.864  0.1652  0.6007 -0.1033
  625MOL0     C84304   6.122   8.669   9.756  1.0456 -0.4165 -0.0342
  625MOL0     C84305   6.203   8.628   9.674 -0.1531  0.2068  0.1870
  625MOL0     C84306   5.416   8.660   9.806 -1.5362 -0.4850  0.1434
  625MOL0     C84307   5.310   8.710   9.731  0.2914  0.3316  0.4475
  625MOL0     H84308   4.952   8.686   9.387 -1.4151 -0.2956 -0.8764
  625MOL0     H84309   4.723   8.733   9.322 -0.2649  1.0583 -0.3764
  625MOL0     H84310   4.550   9.145   9.380  3.3752  0.2261 -0.2918
  625MOL0     H84311   4.608   9.070   9.238 -1.4797  1.8624 -1.0321
  625MOL0     H84312   4.383   9.113   9.199  2.6839 -2.5193 -1.9107
  625MOL0     H84313   4.393   8.936   9.203  1.1461 -0.2006 -0.7873
  625MOL0     H84314   4.297   8.918   9.422 -2.0743  0.1262  2.4403
  625MOL0     H84315   4.296   9.093   9.444 -1.1247  2.6188 -3.3818
  625MOL0     H84316   4.129   9.133   9.290 -0.8033 -0.2279 -0.9511
  625MOL0     H84317   4.148   8.977   9.211 -1.9322 -0.1632 -0.0869
  625MOL0     H84318   3.940   8.949   9.336 -1.0699 -3.6616  2.2045
  625MOL0     H84319   4.059   8.868   9.412  1.5831  0.3233 -4.8147
  625MOL0     H84320   4.101   9.074   9.568 -1.1423  1.7312  0.6092
  625MOL0     H84321   3.965   9.153   9.501  0.1834 -0.7015 -2.2220
  625MOL0     H84322   3.799   8.996   9.581  0.8839 -3.0745  1.7491
  625MOL0     H84323   3.919   8.886   9.625  1.2208 -0.6090  0.8571
  625MOL0     H84324   3.890   9.171   9.751  1.3545  0.1552  0.0882
  625MOL0     H84325   3.990   9.030   9.802 -0.0125 -3.1153 -1.6357
  625MOL0     H84326   3.857   8.826   9.941  0.1245  0.9731  0.6365
  625MOL0     H84327   3.550   8.899  10.178  0.9809  2.5458 -1.2678
  625MOL0     H84328   3.556   8.769  10.058  2.4942 -0.6083 -0.8496
  625MOL0     H84329   3.791   8.845  10.228  1.4557  0.4905 -3.4587
  625MOL0     H84330   3.774   8.695  10.128 -3.1204  1.4152 -4.5347
  625MOL0     H84331   3.729   8.604  10.334  0.7070 -0.6884 -0.3575
  625MOL0     H84332   3.564   8.654  10.294  0.4020 -0.7166 -1.4123
  625MOL0     H84333   3.762   8.817  10.474  0.0569 -0.4704  2.4496
  625MOL0     H84334   3.640   8.720  10.535  0.5281 -1.4355 -1.0455
  625MOL0     H84335   3.411   9.062  10.406 -1.7300  1.5918  0.2631
  625MOL0     H84336   3.258   9.302  10.586 -1.0800 -1.3719 -1.1924
  625MOL0     H84337   3.411   9.394  10.551  1.7480 -1.1191  0.1754
  625MOL0     H84338   3.351   9.294  10.432 -0.1044 -0.5217  0.7044
  625MOL0     H84339   3.572   9.376  11.159 -0.2334  0.9326  0.8007
  625MOL0     H84340   3.421   9.445  11.346 -0.2998 -2.0600  2.0536
  625MOL0     H84341   3.286   9.348  11.512 -0.4758 -0.2986 -2.1237
  625MOL0     H84342   3.136   9.412  11.559  0.9216 -0.1612  1.9535
  625MOL0     H84343   3.015   9.201  11.455  1.3399 -2.1023 -2.3349
  625MOL0     H84344   3.173   9.134  11.432  2.4537  1.0217  1.6628
  625MOL0     H84345   3.052   9.067  11.651  1.5320 -1.2018 -0.8955
  625MOL0     H84346   3.069   9.230  11.714  0.0868 -1.7168  1.1265
  625MOL0     H84347   3.291   9.042  11.647  0.4159 -1.2384  1.3379
  625MOL0     H84348   3.310   9.216  11.696  0.0474  0.8826  2.8710
  625MOL0     H84349   3.341   9.032  11.872 -0.1244 -0.6670  0.2342
  625MOL0     H84350   3.177   8.980  11.851  2.2887 -1.6189 -0.6960
  625MOL0     H84351   3.078   9.170  11.931  0.0242  0.0747 -0.0891
  625MOL0     H84352   3.191   9.117  12.058 -0.6620  1.8849  1.0715
  625MOL0     H84353   3.329   9.307  11.897 -0.0470 -2.1857 -0.5897
  625MOL0     H84354   3.283   9.304  12.065 -0.1229 -3.2379  0.9150
  625MOL0     H84355   3.077   9.394  11.846  2.6728  2.6453 -2.1656
  625MOL0     H84356   3.181   9.505  11.924 -0.8720  0.1937  2.5992
  625MOL0     H84357   3.093   9.251  11.157  0.2981 -0.4843  2.7740
  625MOL0     H84358   3.230   9.182  10.972  1.1073  0.6961 -1.7779
  625MOL0     H84359   3.635   9.065  10.842  3.1195 -3.1412 -2.1029
  625MOL0     H84360   3.685   8.897  10.693 -0.1168  0.2806  1.4735
  625MOL0     H84361   4.723   9.098   9.534 -1.8992 -1.7989  2.5099
  625MOL0     H84362   4.948   9.045   9.634  1.3786 -1.5949  0.5198
  625MOL0     H84363   5.422   9.027   9.665  1.4376 -0.1494 -0.5034
  625MOL0     H84364   5.630   8.917   9.749 -0.7466  0.3405 -0.0984
  625MOL0     H84365   5.786   8.546   9.852  0.4908 -2.3931 -1.7889
  625MOL0     H84366   5.669   8.540   9.716 -1.4940  0.5870  0.2962
  625MOL0     H84367   5.789   8.756   9.623  4.5105  1.3999 -1.5952
  625MOL0     H84368   5.905   8.630   9.642  0.2644  1.1191 -0.3723
  625MOL0     H84369   5.848   8.827   9.872 -0.5421 -0.0842 -1.6564
  625MOL0     H84370   5.961   8.869   9.752 -0.2202  1.3626  1.0491
  625MOL0     H84371   6.005   8.608   9.906 -2.6354  1.4840  0.2955
  625MOL0     H84372   6.089   8.763   9.937  0.2387  1.4349 -0.8095
  625MOL0     H84373   6.277   8.591   9.606 -1.1658 -0.9364 -0.3207
  625MOL0     H84374   5.419   8.563   9.856  2.1091 -2.3730 -3.1239
  625MOL0     H84375   5.225   8.643   9.720  0.7081  0.0585 -1.4030
  626MOL0     O84376   5.635  10.101   6.113  0.4460 -0.1743 -1.0838
  626MOL0     C84377   5.700  10.133   6.012 -0.6318  0.9816  0.0384
  626MOL0     O84378   5.658  10.221   5.914 -0.0591  1.1505 -0.3149
  626MOL0     C84379   5.529  10.257   5.897 -0.3403  0.0135 -0.3837
  626MOL0     C84380   5.470  10.256   5.776  0.0159  0.3016  0.7273
  626MOL0     C84381   5.339  10.307   5.755 -0.2263 -0.6303 -0.0344
  626MOL0     C84382   5.258  10.330   5.873 -0.1141 -0.0592 -0.4142
  626MOL0     O84383   5.125  10.358   5.865 -0.5653 -0.2414 -0.3623
  626MOL0     C84384   5.032  10.314   5.759 -0.3652 -0.0241 -0.7255
  626MOL0     C84385   4.886  10.345   5.791 -0.0745  0.5270 -0.5882
  626MOL0     C84386   4.834  10.292   5.924 -0.4268 -0.6280 -0.2040
  626MOL0     C84387   4.757  10.402   6.005 -0.6565 -0.2165 -0.1031
  626MOL0     C84388   4.639  10.472   5.942 -0.3944 -1.3179  0.0314
  626MOL0     C84389   4.529  10.370   5.924 -0.4227 -0.1319 -0.4071
  626MOL0     C84390   4.413  10.429   5.860 -0.2226  0.4457  0.0210
  626MOL0     C84391   4.302  10.324   5.832 -0.1717 -0.3592  0.0386
  626MOL0     N84392   4.177  10.376   5.783  0.6616  1.1121  0.5225
  626MOL0     C84393   4.104  10.462   5.852 -0.2416  0.6068 -0.0146
  626MOL0     C84394   4.000  10.494   5.761  0.1245  1.3944 -0.2422
  626MOL0     C84395   3.884  10.586   5.775 -0.5936 -0.5216  0.6237
  626MOL0     C84396   3.755  10.529   5.846 -0.7907  0.2321  0.4441
  626MOL0     C84397   3.643  10.618   5.840  0.5233  0.6648  0.1739
  626MOL0     C84398   3.523  10.564   5.917 -0.0903  0.6690 -0.4275
  626MOL0     O84399   3.406  10.619   5.852 -0.3884  0.2766  0.2350
  626MOL0     C84400   3.299  10.543   5.821 -0.5335  0.6842  0.1362
  626MOL0     C84401   3.200  10.614   5.757 -0.2632  0.7545  0.9340
  626MOL0     C84402   3.076  10.555   5.716 -0.3930  0.5317  0.1012
  626MOL0     C84403   2.976  10.648   5.652  0.0758 -0.5993 -0.2340
  626MOL0     C84404   3.040  10.428   5.756 -1.3217  0.4382  0.0875
  626MOL0     C84405   2.911  10.373   5.736 -0.8209  0.6769  0.2023
  626MOL0     O84406   2.865  10.370   5.608  0.3654 -0.4838 -0.3297
  626MOL0     C84407   2.751  10.304   5.579 -0.2265 -0.4330 -0.4773
  626MOL0     C84408   2.635  10.369   5.575  0.3317  0.2959  0.5353
  626MOL0     C84409   2.512  10.310   5.562  0.1566 -0.1014 -0.1926
  626MOL0     C84410   2.495  10.171   5.553  0.4350 -0.4543  0.3184
  626MOL0     O84411   2.369  10.110   5.553  0.3013  0.2544  0.6959
  626MOL0     C84412   2.269  10.163   5.465 -0.0392 -0.0698  0.1971
  626MOL0     C84413   2.302  10.177   5.311  0.1758  0.1199  0.9023
  626MOL0     C84414   2.409  10.275   5.275 -0.1200 -0.2496  0.0985
  626MOL0     C84415   2.405  10.324   5.127  0.0169 -0.0564 -0.0021
  626MOL0     C84416   2.279  10.397   5.079 -0.4499  0.0667  0.5535
  626MOL0     C84417   2.302  10.470   4.951 -0.2747 -0.0184  0.2989
  626MOL0     C84418   2.256  10.382   4.822 -0.0201 -1.3468 -0.6758
  626MOL0     C84419   2.134  10.436   4.748 -0.8136  0.3429  0.6911
  626MOL0    Cl84420   1.989  10.399   4.830 -0.3224 -0.0654 -0.2808
  626MOL0     C84421   2.618  10.097   5.548 -0.6814  0.0563  0.1258
  626MOL0     C84422   2.741  10.164   5.566 -0.4538 -0.1500  0.6599
  626MOL0     O84423   2.863  10.303   5.828  0.2477 -0.5359 -0.6127
  626MOL0     C84424   3.141  10.356   5.824  1.3146  0.3955  0.2094
  626MOL0     C84425   3.264  10.408   5.859 -1.4832  0.1251 -0.2178
  626MOL0     N84426   4.014  10.407   5.652 -0.7625 -0.2611  0.2175
  626MOL0     N84427   4.115  10.331   5.668  0.1116  0.3182 -1.0086
  626MOL0     C84428   5.328  10.334   5.994  0.1796  0.0686 -0.5189
  626MOL0     C84429   5.465  10.306   6.006  0.0804 -0.0438 -0.5376
  626MOL0     C84430   5.833  10.063   5.993 -0.0768 -0.5608 -0.6298
  626MOL0     C84431   5.881   9.970   6.081  0.0244  0.5170  0.5825
  626MOL0     C84432   6.006   9.900   6.056  0.7255 -0.3691 -0.2729
  626MOL0     C84433   6.076   9.927   5.945 -0.3158 -0.0297 -0.7230
  626MOL0     O84434   6.197   9.865   5.924 -0.2169 -0.0062  0.7093
  626MOL0     C84435   6.307   9.924   5.849  0.0102 -0.2332  0.4235
  626MOL0     C84436   6.429   9.828   5.835 -0.1429  0.2921  0.0876
  626MOL0     C84437   6.412   9.698   5.742  0.1927  0.2340 -0.1642
  626MOL0     C84438   6.527   9.593   5.773  0.0581  0.2725  0.2591
  626MOL0     C84439   6.519   9.482   5.677  0.9370  0.2535 -0.1871
  626MOL0     C84440   6.501   9.398   5.596  0.1013 -0.3699  1.2010
  626MOL0     C84441   6.027  10.025   5.861  0.1370  0.1737  0.3230
  626MOL0     C84442   5.902  10.086   5.879 -0.3089  0.3621  0.2503
  626MOL0     H84443   5.522  10.218   5.688  1.0228 -0.4826  1.6234
  626MOL0     H84444   5.294  10.299   5.656  0.2576  1.4705 -0.4788
  626MOL0     H84445   5.065  10.363   5.667  3.6668  0.5079  0.7997
  626MOL0     H84446   5.042  10.207   5.737 -0.4713  0.0450 -1.1158
  626MOL0     H84447   4.877  10.454   5.791 -0.5609  0.7000  4.0543
  626MOL0     H84448   4.819  10.304   5.715 -1.1192 -2.5811  1.7901
  626MOL0     H84449   4.767  10.206   5.912 -2.0756  0.3284  1.5709
  626MOL0     H84450   4.917  10.261   5.989 -1.9264 -3.9947  0.2963
  626MOL0     H84451   4.739  10.363   6.105  2.9231  1.2955  1.2983
  626MOL0     H84452   4.828  10.484   6.019  1.1124 -1.4839 -1.1296
  626MOL0     H84453   4.585  10.552   5.993 -2.0113 -1.7552 -0.9083
  626MOL0     H84454   4.660  10.516   5.844 -0.4113 -1.4494 -0.0319
  626MOL0     H84455   4.553  10.293   5.851  3.5810  1.2262 -0.7571
  626MOL0     H84456   4.507  10.320   6.019 -1.8102 -1.5941 -1.4520
  626MOL0     H84457   4.365  10.516   5.907 -1.5442  1.0725 -2.3147
  626MOL0     H84458   4.441  10.469   5.763  2.3453 -0.9791  0.0944
  626MOL0     H84459   4.283  10.282   5.931 -0.7319  1.2311  0.6356
  626MOL0     H84460   4.342  10.252   5.760 -1.6927 -0.9086 -0.2732
  626MOL0     H84461   4.124  10.508   5.948 -3.2594 -0.3430  1.1888
  626MOL0     H84462   3.911  10.665   5.846 -3.8876  1.4217 -0.0751
  626MOL0     H84463   3.854  10.634   5.681 -0.4491  0.4810  1.0798
  626MOL0     H84464   3.788  10.500   5.946  0.3789 -0.0129  0.0019
  626MOL0     H84465   3.734  10.435   5.795  0.5204  0.9233 -1.4781
  626MOL0     H84466   3.613  10.629   5.735  0.7957 -1.3521 -0.1688
  626MOL0     H84467   3.682  10.713   5.877  3.6849 -0.2108 -0.5474
  626MOL0     H84468   3.529  10.607   6.018 -0.5419  3.1410 -1.3778
  626MOL0     H84469   3.508  10.456   5.927 -2.7482  1.0026  0.1543
  626MOL0     H84470   3.222  10.716   5.729 -0.2455  0.6064  0.3997
  626MOL0     H84471   2.932  10.610   5.559  0.0075 -4.2445  1.0919
  626MOL0     H84472   2.898  10.669   5.725  2.4013  0.0124  2.2425
  626MOL0     H84473   3.022  10.746   5.642  1.0100 -0.7880  1.7999
  626MOL0     H84474   2.635  10.476   5.598  0.6442 -0.0799  2.4989
  626MOL0     H84475   2.424  10.374   5.571 -0.1559 -0.4740 -0.5994
  626MOL0     H84476   2.185  10.095   5.477  1.9812 -2.4302  1.9704
  626MOL0     H84477   2.237  10.266   5.480 -0.5230  0.6348 -4.2767
  626MOL0     H84478   2.318  10.076   5.272  1.4889  0.7005 -0.1375
  626MOL0     H84479   2.210  10.214   5.265  1.6000  1.2438 -1.2033
  626MOL0     H84480   2.501  10.228   5.311 -0.4968 -1.4575 -0.4510
  626MOL0     H84481   2.387  10.363   5.336  0.7560 -1.1304  1.7384
  626MOL0     H84482   2.493  10.389   5.113  1.1156 -1.7226 -1.2522
  626MOL0     H84483   2.428  10.240   5.061  0.6296 -0.5400  0.8042
  626MOL0     H84484   2.259  10.477   5.150 -2.2882 -0.9931  1.2986
  626MOL0     H84485   2.185  10.342   5.073 -1.0118  0.8116  2.1497
  626MOL0     H84486   2.234  10.555   4.957 -3.3110 -2.3555  2.1859
  626MOL0     H84487   2.407  10.496   4.939 -0.7361  1.9406  0.2074
  626MOL0     H84488   2.226  10.283   4.860 -0.9308 -0.3994  1.2057
  626MOL0     H84489   2.336  10.370   4.748  0.4036 -1.3821 -0.2213
  626MOL0     H84490   2.123  10.390   4.650 -1.4756 -1.6250  1.6347
  626MOL0     H84491   2.157  10.541   4.731  0.7284 -0.0141  0.3583
  626MOL0     H84492   2.618   9.989   5.536  2.3202 -0.1271  0.8676
  626MOL0     H84493   2.825  10.097   5.582  0.8626  0.7225 -1.9625
  626MOL0     H84494   3.119  10.252   5.848  0.1708 -0.0050 -2.2679
  626MOL0     H84495   3.340  10.352   5.913  0.1506  0.9051 -1.5759
  626MOL0     H84496   5.269  10.357   6.082  1.3920  3.0539 -0.3446
  626MOL0     H84497   5.502  10.322   6.107  1.2492  1.6688 -1.1961
  626MOL0     H84498   5.826   9.948   6.172 -0.4016  0.6426  0.3586
  626MOL0     H84499   6.027   9.819   6.125 -2.6174 -0.4320  0.8667
  626MOL0     H84500   6.274   9.952   5.748 -1.1284 -0.0297  0.8399
  626MOL0     H84501   6.339  10.012   5.904  2.3440 -0.5176 -0.3776
  626MOL0     H84502   6.481   9.788   5.923 -0.1004  0.5223  0.1690
  626MOL0     H84503   6.502   9.892   5.784 -0.3441  0.3569 -0.1186
  626MOL0     H84504   6.423   9.726   5.637  0.7578  1.1695  0.1433
  626MOL0     H84505   6.314   9.650   5.755  1.0947 -2.1418 -1.4935
  626MOL0     H84506   6.511   9.547   5.872  0.9988 -0.5904  0.0227
  626MOL0     H84507   6.627   9.636   5.767  0.4149 -0.4292  0.9204
  626MOL0     H84508   6.490   9.309   5.537 -2.0397  0.5383  0.1296
  626MOL0     H84509   6.087  10.059   5.778  3.0673 -3.9917  0.4086
  626MOL0     H84510   5.878  10.145   5.791  3.6604  0.7890 -0.7136
  627MOL0     O84511   5.369   9.103   1.092  0.2355 -0.1794  0.8086
  627MOL0     C84512   5.404   9.146   1.201  0.2685  0.0348 -0.2086
  627MOL0     O84513   5.317   9.181   1.309 -0.5646 -0.5004  0.6108
  627MOL0     C84514   5.182   9.136   1.299 -0.6221 -0.2063 -0.7124
  627MOL0     C84515   5.080   9.211   1.250 -0.0299  0.0626  0.1688
  627MOL0     C84516   4.950   9.159   1.246  0.3797  0.4472 -1.0486
  627MOL0     C84517   4.922   9.040   1.323 -0.1448 -0.4796 -0.0828
  627MOL0     O84518   4.786   9.019   1.330 -0.6136 -0.3833  0.0137
  627MOL0     C84519   4.734   8.954   1.440 -0.4463  0.4903 -0.3773
  627MOL0     C84520   4.611   9.036   1.500 -0.2166 -0.5316 -0.3469
  627MOL0     C84521   4.541   8.974   1.617 -0.4108 -0.0231 -0.1539
  627MOL0     C84522   4.394   9.023   1.645 -0.3768 -0.7401  0.1944
  627MOL0     C84523   4.290   8.954   1.556 -0.0598  0.4738 -0.0592
  627MOL0     C84524   4.268   8.799   1.592 -0.0776 -0.1179 -0.2246
  627MOL0     C84525   4.151   8.747   1.523  1.0609 -0.0025 -0.0735
  627MOL0     C84526   4.166   8.593   1.541  0.4002  0.1322  0.0469
  627MOL0     N84527   4.048   8.515   1.506 -0.2433  0.1996  0.1883
  627MOL0     C84528   4.021   8.439   1.394  0.4139  0.6201  1.1429
  627MOL0     C84529   3.906   8.383   1.422  0.8951 -0.3473 -0.6448
  627MOL0     C84530   3.821   8.280   1.341 -0.2782 -0.7560 -0.0523
  627MOL0     C84531   3.738   8.338   1.222  0.0322 -1.2367 -0.5991
  627MOL0     C84532   3.616   8.427   1.269  0.8972  0.0316 -0.5934
  627MOL0     C84533   3.518   8.453   1.157  0.4037 -0.2713  0.0270
  627MOL0     O84534   3.449   8.338   1.118  0.1497  0.0305  0.0234
  627MOL0     C84535   3.322   8.351   1.072  0.7587  0.3504  0.0579
  627MOL0     C84536   3.241   8.243   1.061  1.0608  1.1217 -1.0794
  627MOL0     C84537   3.098   8.243   1.034 -0.8906 -0.0727 -0.1027
  627MOL0     C84538   3.022   8.107   1.041 -0.2472 -0.2429 -0.2723
  627MOL0     C84539   3.041   8.372   1.015 -0.3744  0.0061  0.3338
  627MOL0     C84540   2.900   8.397   0.993 -0.5903  0.4947 -0.3137
  627MOL0     O84541   2.814   8.314   1.065 -0.3011 -0.0978  0.2876
  627MOL0     C84542   2.687   8.355   1.099  0.2151 -0.2714  0.4096
  627MOL0     C84543   2.613   8.254   1.152  0.3848  0.4435 -0.2577
  627MOL0     C84544   2.478   8.268   1.185 -0.1137  0.8482 -0.4548
  627MOL0     C84545   2.427   8.396   1.184 -0.2839  0.5204 -0.3550
  627MOL0     O84546   2.304   8.413   1.243  0.5890  0.3765  0.4223
  627MOL0     C84547   2.298   8.465   1.378 -0.1194 -0.2600 -0.6964
  627MOL0     C84548   2.155   8.462   1.426  0.9372 -0.2488  0.4620
  627MOL0     C84549   2.067   8.574   1.365 -1.5472  0.5661  0.0329
  627MOL0     C84550   1.931   8.585   1.425 -0.3673 -1.0675 -0.0641
  627MOL0     C84551   1.843   8.685   1.342  0.5183  0.4210 -0.0060
  627MOL0     C84552   1.887   8.831   1.363  0.1320 -0.3721 -0.2595
  627MOL0     C84553   1.807   8.935   1.279  0.2945  0.3389 -0.2452
  627MOL0     C84554   1.663   8.934   1.329  0.4105  1.1036  0.4395
  627MOL0    Cl84555   1.561   9.069   1.271  0.3182 -0.6016 -0.1518
  627MOL0     C84556   2.504   8.503   1.139  0.5270 -0.8936 -0.6776
  627MOL0     C84557   2.633   8.488   1.093 -0.9404 -0.1517 -0.0930
  627MOL0     O84558   2.873   8.470   0.903  0.2902  0.4379 -0.0816
  627MOL0     C84559   3.125   8.481   1.013  0.3393 -0.1503  0.3115
  627MOL0     C84560   3.264   8.472   1.035 -0.2191 -0.7473  0.0747
  627MOL0     N84561   3.862   8.414   1.552  0.4247 -1.4634  0.8642
  627MOL0     N84562   3.947   8.501   1.592  0.2359  0.4770  0.0292
  627MOL0     C84563   5.030   8.971   1.384 -0.5648 -0.0218 -0.3046
  627MOL0     C84564   5.160   9.015   1.366 -0.6240  0.4569 -0.2264
  627MOL0     C84565   5.549   9.160   1.228 -0.6288  0.0900  0.0889
  627MOL0     C84566   5.647   9.135   1.125 -0.4660 -0.7165  0.1040
  627MOL0     C84567   5.786   9.154   1.157 -0.0734  0.2373  0.0628
  627MOL0     C84568   5.827   9.210   1.282 -1.0072  0.4282  0.6461
  627MOL0     O84569   5.957   9.232   1.312 -0.1491 -0.1431  0.2542
  627MOL0     C84570   6.058   9.230   1.209 -0.3605  0.1474  0.1567
  627MOL0     C84571   6.189   9.302   1.247  0.7758  0.5474  0.4517
  627MOL0     C84572   6.259   9.207   1.343  0.5449  0.3138 -0.0972
  627MOL0     C84573   6.391   9.270   1.394 -0.2513  0.2653 -0.6021
  627MOL0     C84574   6.350   9.368   1.491  0.0946 -0.3445 -0.2397
  627MOL0     C84575   6.322   9.455   1.577 -0.4591  0.7849  0.2492
  627MOL0     C84576   5.730   9.240   1.376 -0.2810 -0.3996  0.8735
  627MOL0     C84577   5.595   9.210   1.351  0.0922 -0.4529 -0.5550
  627MOL0     H84578   5.100   9.311   1.212  2.1180 -0.7272 -0.9657
  627MOL0     H84579   4.858   9.199   1.205 -0.3354  0.4293  0.4717
  627MOL0     H84580   4.713   8.850   1.412  0.0514 -0.5724  2.7714
  627MOL0     H84581   4.817   8.955   1.511  1.2019  1.0806 -2.2132
  627MOL0     H84582   4.662   9.130   1.523  2.8737 -2.2507  0.3976
  627MOL0     H84583   4.535   9.050   1.423  2.1698  0.7317 -2.6248
  627MOL0     H84584   4.543   8.866   1.607 -1.7603 -0.1088  0.1738
  627MOL0     H84585   4.603   8.998   1.704 -0.8667 -1.0563  0.4739
  627MOL0     H84586   4.359   8.996   1.745  1.3086 -1.9277  0.4970
  627MOL0     H84587   4.385   9.131   1.633  1.5761 -0.5664  0.0425
  627MOL0     H84588   4.198   9.010   1.576  0.8142  1.7634  0.5177
  627MOL0     H84589   4.320   8.977   1.453 -0.9880  0.1965 -0.4013
  627MOL0     H84590   4.355   8.737   1.568  0.1375  0.0726  0.0579
  627MOL0     H84591   4.250   8.784   1.699  2.1803  0.2734  0.2610
  627MOL0     H84592   4.061   8.792   1.566 -1.0995 -1.8794 -2.3528
  627MOL0     H84593   4.156   8.767   1.416 -0.0464 -1.8962 -0.5251
  627MOL0     H84594   4.200   8.567   1.641 -0.7426 -2.0163 -0.0508
  627MOL0     H84595   4.254   8.571   1.479  0.8930  0.1754  0.7135
  627MOL0     H84596   4.077   8.416   1.304 -0.3602 -0.3338  0.8997
  627MOL0     H84597   3.880   8.190   1.323  1.6130  0.2111  0.9210
  627MOL0     H84598   3.751   8.235   1.411  0.5428 -1.5934  0.2581
  627MOL0     H84599   3.704   8.246   1.174  0.4786 -0.9714 -1.4414
  627MOL0     H84600   3.796   8.395   1.149  0.5318 -0.5364  0.3282
  627MOL0     H84601   3.657   8.521   1.308 -3.5047  2.2504 -0.7365
  627MOL0     H84602   3.561   8.389   1.356  0.4981  3.2226  0.6970
  627MOL0     H84603   3.564   8.499   1.069 -1.2788  2.2733  0.3700
  627MOL0     H84604   3.450   8.531   1.194  0.9489  0.2327 -0.0350
  627MOL0     H84605   3.289   8.146   1.070  0.1769  0.4695 -2.8879
  627MOL0     H84606   2.965   8.103   1.134 -1.2292  0.6457 -0.8109
  627MOL0     H84607   2.949   8.096   0.960 -0.2716 -1.6170 -0.0828
  627MOL0     H84608   3.090   8.021   1.049 -1.7000 -1.5053 -0.9826
  627MOL0     H84609   2.670   8.162   1.149  1.4527  1.1203 -2.7566
  627MOL0     H84610   2.421   8.185   1.226 -2.6686  2.8599  0.2590
  627MOL0     H84611   2.360   8.398   1.438 -0.3457 -2.6878 -3.0059
  627MOL0     H84612   2.342   8.565   1.385 -0.5551 -0.1718  1.3243
  627MOL0     H84613   2.106   8.371   1.390  2.5705 -1.0938  0.2851
  627MOL0     H84614   2.161   8.467   1.535  0.7229 -0.1280  0.4680
  627MOL0     H84615   2.054   8.538   1.263 -1.3565  1.0819 -0.1753
  627MOL0     H84616   2.129   8.664   1.353  0.4078 -0.9982 -2.7492
  627MOL0     H84617   1.886   8.486   1.413 -0.7635 -0.8792 -0.1527
  627MOL0     H84618   1.929   8.614   1.530  0.0587  0.2621 -0.4002
  627MOL0     H84619   1.740   8.665   1.370  0.7246 -0.9997 -0.2194
  627MOL0     H84620   1.852   8.660   1.236  0.4568 -0.0547  0.1000
  627MOL0     H84621   1.873   8.845   1.471  1.5680 -2.5221  0.2579
  627MOL0     H84622   1.992   8.849   1.341  0.4464  1.2981  2.1546
  627MOL0     H84623   1.807   8.889   1.180 -1.8906 -1.4621  0.4952
  627MOL0     H84624   1.856   9.032   1.272  0.3194  0.2882 -0.8643
  627MOL0     H84625   1.676   8.944   1.438  0.3172  0.5799  0.4988
  627MOL0     H84626   1.607   8.844   1.304 -1.4782  2.1809  0.6252
  627MOL0     H84627   2.461   8.603   1.131  2.1543  0.0276  1.2647
  627MOL0     H84628   2.684   8.576   1.057  0.0200 -1.1725 -1.3068
  627MOL0     H84629   3.081   8.579   0.993  3.2102  0.9501 -1.1954
  627MOL0     H84630   3.298   8.575   1.037 -0.8820 -0.5237  0.4616
  627MOL0     H84631   5.017   8.877   1.436  1.0124 -0.5774 -0.8610
  627MOL0     H84632   5.250   8.966   1.402  0.2087  0.7057 -1.8672
  627MOL0     H84633   5.620   9.107   1.023 -0.4951 -0.2325 -0.0252
  627MOL0     H84634   5.861   9.136   1.080 -0.5921 -2.5559  0.1116
  627MOL0     H84635   6.097   9.132   1.179 -2.3019 -0.1302 -1.7596
  627MOL0     H84636   6.030   9.280   1.116 -0.1432 -0.7546 -0.4100
  627MOL0     H84637   6.171   9.403   1.286  1.2525  0.8363 -0.0571
  627MOL0     H84638   6.251   9.306   1.156 -1.8963  2.5556 -1.4517
  627MOL0     H84639   6.275   9.115   1.287 -1.4137 -0.4539  0.5073
  627MOL0     H84640   6.189   9.178   1.423  0.2542 -2.6410 -1.2937
  627MOL0     H84641   6.446   9.316   1.312  1.1424 -1.9359 -0.9993
  627MOL0     H84642   6.443   9.193   1.453  1.1235 -0.2258 -2.3653
  627MOL0     H84643   6.314   9.531   1.652 -2.4722  1.6536 -0.7706
  627MOL0     H84644   5.762   9.283   1.471  1.3710 -1.5879  0.8991
  627MOL0     H84645   5.537   9.245   1.436  4.3556 -0.0918  2.4832
  628MOL0     O84646   6.100   3.309   1.245  0.0602  0.2787  0.4867
  628MOL0     C84647   6.074   3.380   1.339 -0.2885 -0.1469 -0.2877
  628MOL0     O84648   5.955   3.430   1.370  1.0319 -0.0358 -0.9696
  628MOL0     C84649   5.836   3.402   1.304  0.3639 -0.1974 -0.0109
  628MOL0     C84650   5.726   3.489   1.333 -0.0313 -0.3125 -0.4158
  628MOL0     C84651   5.602   3.476   1.270 -0.0185 -0.1756  0.6876
  628MOL0     C84652   5.578   3.371   1.172  0.2269  0.7151  0.2597
  628MOL0     O84653   5.453   3.368   1.108 -0.9639 -0.0387 -0.8084
  628MOL0     C84654   5.392   3.237   1.094 -0.0879 -0.7035 -0.7963
  628MOL0     C84655   5.244   3.257   1.075 -0.4729  0.5920  0.4157
  628MOL0     C84656   5.175   3.286   1.203  0.2768  0.8654 -0.5155
  628MOL0     C84657   5.026   3.318   1.171  0.2173 -0.3403 -0.1820
  628MOL0     C84658   4.952   3.186   1.140  0.6474  0.0244  0.0613
  628MOL0     C84659   4.804   3.207   1.107 -0.3240 -0.6766 -0.0523
  628MOL0     C84660   4.737   3.079   1.060 -0.4261  0.2439 -0.5528
  628MOL0     C84661   4.591   3.115   1.027 -0.6592  0.2078 -0.9940
  628MOL0     N84662   4.511   3.161   1.141  0.5096  0.2948  0.6110
  628MOL0     C84663   4.471   3.093   1.259 -0.6433 -1.1899 -0.4360
  628MOL0     C84664   4.412   3.202   1.326 -0.4050  0.0610  0.2554
  628MOL0     C84665   4.375   3.206   1.472 -0.7328 -0.0802  0.6785
  628MOL0     C84666   4.228   3.231   1.500 -1.2491  0.7328 -0.1201
  628MOL0     C84667   4.186   3.230   1.648 -0.0704  0.3793  0.0128
  628MOL0     C84668   4.031   3.212   1.651 -0.4121 -0.0479  0.3144
  628MOL0     O84669   3.971   3.088   1.601  0.3006 -0.2368 -0.0432
  628MOL0     C84670   3.833   3.080   1.611 -0.2429  0.1261  0.2774
  628MOL0     C84671   3.756   3.092   1.494  0.9275 -0.9374  0.0845
  628MOL0     C84672   3.613   3.083   1.491 -0.2937  0.7148 -0.2014
  628MOL0     C84673   3.541   3.132   1.365  0.4408  0.2659  0.5800
  628MOL0     C84674   3.541   3.042   1.611 -0.0905 -0.2566  0.2224
  628MOL0     C84675   3.396   3.033   1.632  0.4796  0.1844  0.4593
  628MOL0     O84676   3.348   3.033   1.761 -0.5843 -0.1653 -0.9310
  628MOL0     C84677   3.213   3.073   1.778  0.0407  0.5786  0.4038
  628MOL0     C84678   3.183   3.198   1.816 -0.6159 -0.4900  0.2749
  628MOL0     C84679   3.046   3.232   1.832 -0.4295 -0.2591  0.9926
  628MOL0     C84680   2.947   3.138   1.831 -0.3786 -0.1320 -0.8062
  628MOL0     O84681   2.822   3.173   1.867 -0.1479 -0.4936  0.3796
  628MOL0     C84682   2.801   3.236   1.994  1.0206  0.5713 -0.0668
  628MOL0     C84683   2.658   3.243   2.034 -0.0512  0.2847 -0.3240
  628MOL0     C84684   2.645   3.316   2.163  0.6004  0.1430 -0.5060
  628MOL0     C84685   2.506   3.312   2.210  0.5031  0.0387  0.1536
  628MOL0     C84686   2.481   3.383   2.342 -1.1479 -0.2751 -0.3428
  628MOL0     C84687   2.339   3.425   2.341 -0.2699 -0.4385 -0.2016
  628MOL0     C84688   2.297   3.470   2.485 -1.4607 -1.1661  0.2332
  628MOL0     C84689   2.151   3.509   2.504  0.6333  0.7476 -0.5210
  628MOL0    Cl84690   2.111   3.664   2.431  0.0818 -0.0833 -0.1035
  628MOL0     C84691   2.982   3.003   1.810 -1.3736  0.2320  0.3656
  628MOL0     C84692   3.108   2.974   1.779  0.5199  0.6287  0.1651
  628MOL0     O84693   3.324   3.027   1.538 -0.3800  0.1258 -0.2382
  628MOL0     C84694   3.623   3.035   1.735 -0.6489 -0.2989  0.4809
  628MOL0     C84695   3.766   3.054   1.727  1.0768 -0.2812  0.5248
  628MOL0     N84696   4.407   3.321   1.258 -0.0282  0.1504  0.2849
  628MOL0     N84697   4.464   3.285   1.148  0.2530 -0.3528  0.5745
  628MOL0     C84698   5.681   3.277   1.146  0.3954  0.4076  0.1504
  628MOL0     C84699   5.810   3.302   1.208  1.1294  0.0592 -1.0346
  628MOL0     C84700   6.188   3.394   1.425 -0.5240 -0.9006  0.3651
  628MOL0     C84701   6.305   3.307   1.415 -0.7310  0.1157 -0.4549
  628MOL0     C84702   6.417   3.329   1.494  0.2080  0.1915 -1.5222
  628MOL0     C84703   6.418   3.416   1.609 -0.7643  0.7118  0.6873
  628MOL0     O84704   6.523   3.453   1.688 -0.3142 -0.3507 -0.0946
  628MOL0     C84705   6.659   3.414   1.661 -0.2087  0.0251  0.0292
  628MOL0     C84706   6.733   3.540   1.617  0.2725 -0.4282 -0.0655
  628MOL0     C84707   6.707   3.672   1.684 -0.2718 -0.1741 -0.2399
  628MOL0     C84708   6.808   3.781   1.658  0.4481  0.4672 -1.2686
  628MOL0     C84709   6.810   3.809   1.518 -0.0783 -0.3027  0.7776
  628MOL0     C84710   6.822   3.844   1.399 -0.1906 -0.0094  0.1915
  628MOL0     C84711   6.295   3.479   1.630  0.3830 -0.1067 -0.8614
  628MOL0     C84712   6.182   3.473   1.544  0.6787 -0.4928 -0.0322
  628MOL0     H84713   5.753   3.572   1.398 -1.1108 -0.4382  0.2060
  628MOL0     H84714   5.522   3.545   1.295  0.2878 -0.0099  1.2195
  628MOL0     H84715   5.441   3.199   1.004  2.6432  0.7140 -0.0150
  628MOL0     H84716   5.405   3.177   1.185  2.2072 -0.4164 -0.8654
  628MOL0     H84717   5.232   3.340   1.006  3.5854  0.2204 -1.0034
  628MOL0     H84718   5.206   3.167   1.027 -0.5505  1.5549 -1.4052
  628MOL0     H84719   5.180   3.207   1.278 -1.9348  1.9953  0.9551
  628MOL0     H84720   5.211   3.380   1.244  0.1789  0.1417  1.2916
  628MOL0     H84721   4.984   3.380   1.250  2.7657  0.2147  0.8595
  628MOL0     H84722   5.022   3.386   1.085 -0.9431  3.6476  2.7446
  628MOL0     H84723   5.000   3.135   1.056  0.6239  0.1323 -0.0183
  628MOL0     H84724   4.971   3.122   1.227  0.3913 -1.0900 -0.6870
  628MOL0     H84725   4.750   3.243   1.195 -0.6021 -1.7991  0.2481
  628MOL0     H84726   4.792   3.281   1.027  0.1384  0.9830  1.3464
  628MOL0     H84727   4.793   3.039   0.975  3.7710 -0.7263  2.3628
  628MOL0     H84728   4.737   3.000   1.135  0.5753  1.4216  0.7481
  628MOL0     H84729   4.539   3.025   0.991 -0.9181  0.6611 -1.7769
  628MOL0     H84730   4.593   3.187   0.945 -2.5962  0.2252 -1.0814
  628MOL0     H84731   4.471   2.992   1.299 -0.9534 -2.2696 -2.9438
  628MOL0     H84732   4.399   3.107   1.513 -1.3956 -1.2961 -1.7039
  628MOL0     H84733   4.427   3.290   1.519 -4.1223  1.8323  1.2704
  628MOL0     H84734   4.170   3.156   1.445 -0.9406 -0.1223  0.6807
  628MOL0     H84735   4.214   3.332   1.461 -0.9437  1.6385  1.9980
  628MOL0     H84736   4.208   3.328   1.690 -2.9270  1.2465 -0.3126
  628MOL0     H84737   4.235   3.147   1.700  0.7086 -0.0817 -1.3907
  628MOL0     H84738   3.981   3.292   1.595  1.4269 -0.5788 -2.2637
  628MOL0     H84739   4.019   3.216   1.759 -1.7659 -0.2697  0.1894
  628MOL0     H84740   3.805   3.117   1.400 -1.1818 -0.3704 -0.9336
  628MOL0     H84741   3.592   3.206   1.302 -1.1939  1.5013  0.6413
  628MOL0     H84742   3.511   3.048   1.302 -0.2819  1.1119 -0.2242
  628MOL0     H84743   3.457   3.190   1.405 -0.2999 -1.1550  1.1828
  628MOL0     H84744   3.268   3.263   1.830 -2.3754  1.9010  0.5706
  628MOL0     H84745   3.025   3.329   1.875  1.4653  0.2621  0.8151
  628MOL0     H84746   2.857   3.173   2.064  0.1955 -2.4775 -1.9640
  628MOL0     H84747   2.843   3.336   2.002  0.3932  0.7644  1.0679
  628MOL0     H84748   2.601   3.300   1.960 -0.9626 -0.0378  0.1079
  628MOL0     H84749   2.627   3.138   2.027  3.1346 -0.6214 -3.7625
  628MOL0     H84750   2.668   3.423   2.164 -1.0276  0.5169 -0.0208
  628MOL0     H84751   2.715   3.272   2.236  1.5679  1.9755 -0.2721
  628MOL0     H84752   2.435   3.361   2.143 -1.4430  1.4542  2.9880
  628MOL0     H84753   2.470   3.209   2.209  2.5093 -0.7092  0.6135
  628MOL0     H84754   2.543   3.474   2.337  0.4312 -1.3156 -0.5006
  628MOL0     H84755   2.522   3.326   2.426  0.0308 -0.0801 -0.7556
  628MOL0     H84756   2.330   3.500   2.262  1.3654  1.1640  1.0087
  628MOL0     H84757   2.274   3.340   2.321 -0.8435 -0.2074  0.6574
  628MOL0     H84758   2.364   3.555   2.503  1.6537 -3.3699 -0.0310
  628MOL0     H84759   2.327   3.396   2.559 -0.3236 -3.6384 -2.4872
  628MOL0     H84760   2.132   3.512   2.612  1.9511 -3.4614  0.0062
  628MOL0     H84761   2.093   3.425   2.466  0.1409  0.8648 -0.0338
  628MOL0     H84762   2.902   2.931   1.819 -1.3630  0.3785  1.9253
  628MOL0     H84763   3.142   2.874   1.755 -0.5176  0.0316  1.1147
  628MOL0     H84764   3.581   3.017   1.833 -0.2909  0.7871  0.8492
  628MOL0     H84765   3.821   3.055   1.821 -0.4619 -0.1148  1.4525
  628MOL0     H84766   5.676   3.198   1.073 -1.6745  2.9010 -2.6442
  628MOL0     H84767   5.894   3.240   1.178  0.6664 -1.5425  0.7364
  628MOL0     H84768   6.324   3.243   1.329 -1.9863 -0.6316 -0.1979
  628MOL0     H84769   6.509   3.277   1.471 -0.0060 -0.9906  0.0659
  628MOL0     H84770   6.695   3.377   1.757 -2.5069 -0.5669  0.7241
  628MOL0     H84771   6.659   3.332   1.589 -0.6529  2.1515 -2.5354
  628MOL0     H84772   6.724   3.548   1.508 -0.3797 -0.0240  0.0099
  628MOL0     H84773   6.838   3.512   1.621  0.2055 -0.5661  1.0870
  628MOL0     H84774   6.708   3.663   1.793 -1.2040  1.4437 -0.0698
  628MOL0     H84775   6.605   3.708   1.667 -0.1418  0.0980 -0.4369
  628MOL0     H84776   6.910   3.754   1.686  0.9627  1.8061 -1.7665
  628MOL0     H84777   6.776   3.865   1.719  1.9938  0.9892 -1.1368
  628MOL0     H84778   6.817   3.861   1.293 -1.4865  0.9235  0.3775
  628MOL0     H84779   6.292   3.542   1.718  3.2295  0.3391 -1.0084
  628MOL0     H84780   6.098   3.539   1.557 -0.0327 -1.1943 -0.9331
  629MOL0     O84781   6.061   7.493   7.066 -0.2141  0.4514  0.9188
  629MOL0     C84782   6.094   7.610   7.034  0.3720  0.5791 -0.0315
  629MOL0     O84783   6.009   7.709   6.998 -0.0722 -0.3556  0.5657
  629MOL0     C84784   5.869   7.691   7.020  0.1551 -0.4440 -0.7932
  629MOL0     C84785   5.776   7.730   6.918 -0.1726 -0.1111 -0.7419
  629MOL0     C84786   5.635   7.713   6.936  0.0256  0.9648  0.2699
  629MOL0     C84787   5.578   7.670   7.055  0.2451 -0.6715  0.0233
  629MOL0     O84788   5.438   7.665   7.072  0.0583 -0.3119 -0.0717
  629MOL0     C84789   5.380   7.633   7.203 -0.4373  0.2521  0.3451
  629MOL0     C84790   5.245   7.694   7.186 -0.2946 -0.2574  0.5984
  629MOL0     C84791   5.150   7.651   7.288  0.3918 -0.2001  0.3143
  629MOL0     C84792   5.160   7.711   7.425 -0.3351 -0.4957 -0.3718
  629MOL0     C84793   5.030   7.703   7.511 -0.3334  0.1898 -0.5742
  629MOL0     C84794   4.903   7.762   7.461 -0.3286  0.3006  0.5963
  629MOL0     C84795   4.806   7.785   7.575  1.7335 -0.4536 -0.2969
  629MOL0     C84796   4.835   7.904   7.670  0.2005  0.0353 -0.3078
  629MOL0     N84797   4.728   7.937   7.769  0.4659 -0.2069 -0.0032
  629MOL0     C84798   4.629   8.029   7.745  0.4686  0.4348  0.0528
  629MOL0     C84799   4.554   8.039   7.862  0.5828  1.3579  0.6659
  629MOL0     C84800   4.439   8.131   7.888 -0.5265  0.0316  0.2417
  629MOL0     C84801   4.311   8.084   7.816  0.4480  0.7647 -0.8487
  629MOL0     C84802   4.195   8.183   7.852 -0.2676  0.2184  0.1201
  629MOL0     C84803   4.062   8.134   7.791 -1.0982 -0.6881  0.5619
  629MOL0     O84804   4.009   8.030   7.867 -0.2934  0.6213 -0.0102
  629MOL0     C84805   3.887   7.985   7.826 -0.0820  0.0106  0.2338
  629MOL0     C84806   3.877   7.850   7.805 -0.0646 -0.0451  0.0542
  629MOL0     C84807   3.761   7.783   7.785  0.0372  0.3808  0.0742
  629MOL0     C84808   3.781   7.628   7.761 -0.1309  0.5429 -0.2044
  629MOL0     C84809   3.645   7.862   7.781 -0.2944 -0.8597  0.3759
  629MOL0     C84810   3.508   7.802   7.762  0.0531 -0.7366  0.6120
  629MOL0     O84811   3.404   7.894   7.754  0.4531  0.0210  0.2457
  629MOL0     C84812   3.281   7.844   7.787 -0.0843  0.0415  0.1946
  629MOL0     C84813   3.264   7.780   7.905 -0.6801 -0.5150 -0.6837
  629MOL0     C84814   3.131   7.737   7.944 -0.5191 -0.1475  0.3688
  629MOL0     C84815   3.027   7.749   7.852 -0.2060 -0.2786 -0.3667
  629MOL0     O84816   2.900   7.703   7.895  0.0864 -0.4239  0.2536
  629MOL0     C84817   2.791   7.692   7.809 -0.7942 -0.8487  0.3118
  629MOL0     C84818   2.685   7.585   7.844 -0.2530  0.3807 -0.6481
  629MOL0     C84819   2.573   7.587   7.737 -0.0233  0.5598  0.1173
  629MOL0     C84820   2.453   7.493   7.777  0.1868  0.4241  0.2249
  629MOL0     C84821   2.357   7.499   7.659  0.6786 -0.0165  0.8573
  629MOL0     C84822   2.218   7.446   7.718  0.3858 -0.4900 -0.5762
  629MOL0     C84823   2.099   7.433   7.624  1.1450 -0.2215  0.3801
  629MOL0     C84824   2.041   7.574   7.591  0.4948  0.2928 -0.0065
  629MOL0    Cl84825   1.953   7.584   7.442  0.0023 -0.2223 -0.7516
  629MOL0     C84826   3.045   7.832   7.739  0.3131 -0.3607  0.2405
  629MOL0     C84827   3.172   7.872   7.708  0.6173  0.1515  0.6078
  629MOL0     O84828   3.487   7.680   7.744  0.0811 -1.6040 -0.3973
  629MOL0     C84829   3.652   7.998   7.798  0.0777  0.0839  0.3450
  629MOL0     C84830   3.775   8.062   7.815 -0.5753 -0.2063  0.6250
  629MOL0     N84831   4.607   7.944   7.950  0.7159 -0.2155  0.3012
  629MOL0     N84832   4.705   7.880   7.892  0.0646 -0.5044 -0.2500
  629MOL0     C84833   5.667   7.640   7.157  0.5731  0.1762 -0.2968
  629MOL0     C84834   5.808   7.646   7.145  0.9395  0.1183  0.3991
  629MOL0     C84835   6.237   7.645   7.039 -0.6596 -1.4098 -0.0500
  629MOL0     C84836   6.284   7.754   6.977  0.0802 -0.0916 -0.3020
  629MOL0     C84837   6.414   7.805   6.986 -0.2481 -0.4072  0.8920
  629MOL0     C84838   6.513   7.728   7.050  0.5199 -0.3507  0.3442
  629MOL0     O84839   6.648   7.761   7.051 -0.5603 -0.7196  0.4319
  629MOL0     C84840   6.681   7.896   7.101 -0.2520 -0.2635  0.1591
  629MOL0     C84841   6.759   7.893   7.237 -0.3029 -0.0918 -0.7558
  629MOL0     C84842   6.885   7.803   7.227 -0.7997 -0.0351 -0.2080
  629MOL0     C84843   6.997   7.877   7.154 -0.4763  0.2234  0.2370
  629MOL0     C84844   7.039   8.004   7.209  0.4724  0.3039  0.4187
  629MOL0     C84845   7.070   8.120   7.241 -1.0114 -0.0727  0.5502
  629MOL0     C84846   6.466   7.609   7.116  0.5710 -0.6279  0.0648
  629MOL0     C84847   6.332   7.563   7.101  0.5129 -0.7033  0.2991
  629MOL0     H84848   5.815   7.767   6.823  0.4491  3.6944  0.7961
  629MOL0     H84849   5.567   7.741   6.856 -2.5440  0.9641  2.3354
  629MOL0     H84850   5.368   7.527   7.226  0.5015 -0.1710 -0.9914
  629MOL0     H84851   5.439   7.680   7.282  0.9541 -0.3838 -0.2691
  629MOL0     H84852   5.244   7.803   7.181  1.1220 -0.1880  1.3148
  629MOL0     H84853   5.193   7.656   7.098  0.8154  0.3075 -0.3222
  629MOL0     H84854   5.048   7.658   7.249  0.4061 -1.2656  0.0550
  629MOL0     H84855   5.154   7.542   7.298 -1.2600 -0.2702  0.6212
  629MOL0     H84856   5.243   7.678   7.487 -0.6557  1.3466  1.1357
  629MOL0     H84857   5.161   7.820   7.414  0.8894 -0.1587  2.3894
  629MOL0     H84858   5.012   7.599   7.541 -1.4686  0.7713  0.8645
  629MOL0     H84859   5.048   7.768   7.598 -1.6232 -0.2672  0.0566
  629MOL0     H84860   4.928   7.852   7.404  1.8445 -2.6539 -3.6716
  629MOL0     H84861   4.863   7.691   7.388 -0.2120  0.3717  0.4620
  629MOL0     H84862   4.705   7.804   7.539  1.0178 -1.7016  0.9473
  629MOL0     H84863   4.799   7.700   7.643  2.4576  0.7211  1.3127
  629MOL0     H84864   4.864   7.989   7.608  1.1934 -0.1213 -0.0881
  629MOL0     H84865   4.918   7.878   7.737 -0.7762 -0.8021  0.6139
  629MOL0     H84866   4.615   8.088   7.655  1.3797 -0.3504 -0.6335
  629MOL0     H84867   4.434   8.130   7.997  0.1984  2.0893  0.3251
  629MOL0     H84868   4.468   8.233   7.864  2.4093 -0.5628  0.8474
  629MOL0     H84869   4.280   7.983   7.847  0.9256  0.7887 -0.2711
  629MOL0     H84870   4.311   8.078   7.707 -2.3955  2.3554 -1.0394
  629MOL0     H84871   4.226   8.279   7.810 -0.9518  0.2541 -0.3117
  629MOL0     H84872   4.183   8.184   7.960  2.7232  1.8985  0.5653
  629MOL0     H84873   4.086   8.106   7.689 -0.3143  0.7191  0.3437
  629MOL0     H84874   3.998   8.222   7.780  0.5382  0.3695 -1.0254
  629MOL0     H84875   3.973   7.802   7.816  1.0304  2.4726  2.9357
  629MOL0     H84876   3.886   7.600   7.767 -0.5628 -0.8560  1.5823
  629MOL0     H84877   3.736   7.566   7.839 -0.8008 -1.1123 -1.8252
  629MOL0     H84878   3.742   7.618   7.659  1.7797  2.5513 -1.2262
  629MOL0     H84879   3.347   7.761   7.972  0.3867  1.1023 -1.4801
  629MOL0     H84880   3.110   7.676   8.031 -1.3775  1.4046  1.2947
  629MOL0     H84881   2.747   7.793   7.808  0.0017 -0.4967 -0.3189
  629MOL0     H84882   2.836   7.672   7.711  0.1051  0.3885  0.4471
  629MOL0     H84883   2.733   7.487   7.844 -1.7184 -0.3703 -0.6230
  629MOL0     H84884   2.642   7.596   7.944 -2.8971 -0.1619 -1.6331
  629MOL0     H84885   2.617   7.540   7.648 -0.9535  0.0643 -0.0855
  629MOL0     H84886   2.545   7.689   7.710  0.4448  1.0483  1.3549
  629MOL0     H84887   2.493   7.392   7.795  1.5331  0.6626 -1.1821
  629MOL0     H84888   2.408   7.528   7.870 -3.5354  2.6334 -2.1537
  629MOL0     H84889   2.398   7.435   7.580 -1.6815  0.5165 -0.9077
  629MOL0     H84890   2.344   7.603   7.629  4.6927  1.0054  2.0620
  629MOL0     H84891   2.233   7.349   7.767 -1.9250  0.0172  1.2890
  629MOL0     H84892   2.186   7.508   7.802 -0.0280  0.0810 -1.1460
  629MOL0     H84893   2.014   7.383   7.670  0.9591 -1.3461 -1.1007
  629MOL0     H84894   2.125   7.386   7.528  0.9095  0.8062 -0.2052
  629MOL0     H84895   2.130   7.638   7.586  0.7609  0.0651  1.3821
  629MOL0     H84896   1.981   7.609   7.676  0.9508 -0.6188  0.7087
  629MOL0     H84897   2.961   7.843   7.671 -2.2455  0.4239  3.3488
  629MOL0     H84898   3.189   7.925   7.615 -3.3632 -2.1341 -1.6889
  629MOL0     H84899   3.572   8.072   7.790 -0.1061  0.0091  1.2896
  629MOL0     H84900   3.792   8.165   7.843  2.4631 -1.0436  2.3480
  629MOL0     H84901   5.634   7.605   7.254  0.2992  1.3346  0.0507
  629MOL0     H84902   5.866   7.623   7.234 -1.8967  2.6598  3.1703
  629MOL0     H84903   6.228   7.807   6.900  1.8671  0.5481 -1.2240
  629MOL0     H84904   6.443   7.897   6.937  2.4724 -1.9564 -0.6726
  629MOL0     H84905   6.741   7.941   7.022 -0.8941 -2.9508 -2.0529
  629MOL0     H84906   6.592   7.956   7.124  0.8333  2.1396 -1.5249
  629MOL0     H84907   6.691   7.849   7.311 -0.9909  2.4026  0.2044
  629MOL0     H84908   6.791   7.992   7.273  1.0020 -1.0013  0.7465
  629MOL0     H84909   6.855   7.710   7.177 -0.9164 -0.1437  0.0644
  629MOL0     H84910   6.915   7.778   7.329 -1.4117  1.1163  0.2748
  629MOL0     H84911   6.967   7.888   7.050 -1.1455 -1.1304  0.2574
  629MOL0     H84912   7.081   7.807   7.149 -1.6105 -1.3072  1.4618
  629MOL0     H84913   7.097   8.216   7.282  0.6725 -1.6459  3.4805
  629MOL0     H84914   6.537   7.541   7.163  1.1569  0.4061  0.7101
  629MOL0     H84915   6.309   7.464   7.137 -1.1850 -0.4550  0.0143
  630MOL0     O84916   1.873   9.110   7.462  0.5425 -0.6149  0.0452
  630MOL0     C84917   1.954   9.177   7.399  0.2133 -0.4171  0.2523
  630MOL0     O84918   1.923   9.290   7.321 -0.2785 -0.1362 -0.6497
  630MOL0     C84919   1.795   9.337   7.324  0.1809  0.6781 -0.2999
  630MOL0     C84920   1.685   9.252   7.286 -0.6883  0.0431 -0.0669
  630MOL0     C84921   1.557   9.303   7.275  0.2997  0.6150 -0.1320
  630MOL0     C84922   1.535   9.439   7.309 -0.6462 -0.4059  0.8118
  630MOL0     O84923   1.413   9.501   7.291 -0.6709 -0.7898  0.4702
  630MOL0     C84924   1.286   9.449   7.337 -0.0326 -0.9789  0.3132
  630MOL0     C84925   1.184   9.550   7.377  0.4388 -0.9275 -0.0249
  630MOL0     C84926   1.125   9.642   7.268  0.2300  0.2497  0.3538
  630MOL0     C84927   1.020   9.570   7.177  0.3228 -0.4197 -0.8975
  630MOL0     C84928   0.880   9.616   7.227  0.4315 -0.3973  0.3112
  630MOL0     C84929   0.841   9.761   7.180 -0.3238 -0.2816  0.3850
  630MOL0     C84930   0.690   9.777   7.178 -0.5119 -0.4095  0.4296
  630MOL0     C84931   0.620   9.743   7.315  1.1583  0.1229 -0.0541
  630MOL0     N84932   0.466   9.760   7.327 -0.7368  0.0417 -0.1192
  630MOL0     C84933   0.396   9.867   7.300 -0.3129 -0.1866  0.6090
  630MOL0     C84934   0.270   9.836   7.331 -0.8089  0.1695 -0.1379
  630MOL0     C84935   0.150   9.915   7.315 -0.3956 -0.5372  0.5453
  630MOL0     C84936   0.097   9.880   7.179 -0.4272  0.1327  0.1819
  630MOL0     C84937  -0.038   9.954   7.173  0.6524 -0.4220  0.5530
  630MOL0     C84938  -0.141   9.891   7.071  0.8240 -0.7811  0.0464
  630MOL0     O84939  -0.269   9.855   7.144  0.2732 -0.4834 -0.6452
  630MOL0     C84940  -0.355   9.955   7.197 -0.6113  0.0458  0.3587
  630MOL0     C84941  -0.329  10.097   7.194 -0.1503  0.2700  0.8884
  630MOL0     C84942  -0.405  10.195   7.254  0.3141 -0.2281 -0.3252
  630MOL0     C84943  -0.349  10.334   7.257  0.0925 -0.4304 -0.1628
  630MOL0     C84944  -0.525  10.147   7.304 -0.6226  0.0185 -0.2052
  630MOL0     C84945  -0.637  10.236   7.345 -0.0978 -0.0894  0.2112
  630MOL0     O84946  -0.754  10.173   7.366  0.1822  0.6424  0.3599
  630MOL0     C84947  -0.870  10.240   7.407 -0.6752  0.0363  0.2876
  630MOL0     C84948  -0.879  10.346   7.497 -1.2035  0.1661 -0.7032
  630MOL0     C84949  -1.000  10.402   7.532  0.1668 -0.2616 -0.5826
  630MOL0     C84950  -1.121  10.364   7.482 -0.2799 -0.2966  0.5829
  630MOL0     O84951  -1.242  10.424   7.511  0.0024  0.1058  0.6401
  630MOL0     C84952  -1.357  10.395   7.431  0.7728  0.6933  0.1322
  630MOL0     C84953  -1.479  10.459   7.502  0.6496  0.1346  0.3210
  630MOL0     C84954  -1.585  10.496   7.390  0.1801  0.0364  0.3216
  630MOL0     C84955  -1.726  10.471   7.451  0.0991 -0.1712 -0.7958
  630MOL0     C84956  -1.768  10.608   7.515  0.4968 -0.1219  0.7569
  630MOL0     C84957  -1.803  10.713   7.406  0.7349  0.1786  0.0359
  630MOL0     C84958  -1.763  10.854   7.437  0.0207 -0.5886  0.8444
  630MOL0     C84959  -1.781  10.937   7.303 -0.2424  0.7895 -0.7834
  630MOL0    Cl84960  -1.957  10.930   7.263  0.1427  0.8495 -0.2538
  630MOL0     C84961  -1.108  10.270   7.379 -0.6564  0.3465  0.5454
  630MOL0     C84962  -0.991  10.197   7.346 -0.1753  0.1729  0.7224
  630MOL0     O84963  -0.630  10.360   7.351 -0.1342  0.2465 -0.3424
  630MOL0     C84964  -0.548  10.003   7.315 -0.3165 -0.7421  0.3643
  630MOL0     C84965  -0.470   9.916   7.262 -0.2347  0.3386 -0.4684
  630MOL0     N84966   0.262   9.712   7.386  0.7383 -0.0855  0.5573
  630MOL0     N84967   0.380   9.668   7.383  0.5130 -0.3993 -0.8232
  630MOL0     C84968   1.643   9.524   7.331 -0.8110 -0.2865  1.0106
  630MOL0     C84969   1.770   9.474   7.331  0.1167  0.4955 -0.2335
  630MOL0     C84970   2.090   9.136   7.397 -0.1723 -0.2108 -0.0967
  630MOL0     C84971   2.130   9.021   7.458  0.6741  0.3211 -0.0355
  630MOL0     C84972   2.261   8.980   7.460  0.1873 -0.0189  0.0954
  630MOL0     C84973   2.361   9.052   7.398  0.0169  0.0676 -0.9842
  630MOL0     O84974   2.481   8.992   7.419 -0.5633  0.2362 -0.2862
  630MOL0     C84975   2.596   9.062   7.367 -0.6143 -0.5142  0.5462
  630MOL0     C84976   2.715   8.966   7.371 -0.3077  0.5618  1.4443
  630MOL0     C84977   2.843   9.009   7.295 -0.0299  0.0219 -0.2874
  630MOL0     C84978   2.917   9.127   7.363  1.3063  1.0231 -0.2282
  630MOL0     C84979   3.036   9.147   7.289 -0.4699 -0.5449  0.3259
  630MOL0     C84980   3.139   9.170   7.233 -0.8735 -0.2158 -0.1337
  630MOL0     C84981   2.321   9.166   7.339 -0.8569 -0.3452  0.1976
  630MOL0     C84982   2.189   9.205   7.331 -0.3875 -0.5401 -0.5165
  630MOL0     H84983   1.695   9.147   7.260  0.9778  0.8867 -3.2691
  630MOL0     H84984   1.472   9.247   7.238 -0.1703  1.4109 -0.2972
  630MOL0     H84985   1.238   9.388   7.260  0.7774 -1.3097  0.0590
  630MOL0     H84986   1.309   9.384   7.422 -1.3024 -1.1521  0.5418
  630MOL0     H84987   1.100   9.496   7.421  0.5378  0.2219  1.6641
  630MOL0     H84988   1.240   9.624   7.435  0.7283  0.3078 -1.7765
  630MOL0     H84989   1.076   9.736   7.295  2.6069  2.4280 -2.3280
  630MOL0     H84990   1.206   9.673   7.202 -1.5936  3.7130 -0.4917
  630MOL0     H84991   1.037   9.594   7.072  0.5027  2.2520 -0.3278
  630MOL0     H84992   1.025   9.462   7.197 -2.0637 -0.3999  0.1733
  630MOL0     H84993   0.815   9.541   7.181  1.9809 -0.8921 -1.2043
  630MOL0     H84994   0.877   9.613   7.336  1.6777  0.8873  0.4144
  630MOL0     H84995   0.889   9.831   7.249  0.1699 -2.2187  2.1140
  630MOL0     H84996   0.872   9.769   7.075 -0.2224  0.8772  0.4958
  630MOL0     H84997   0.666   9.883   7.160 -4.1483 -0.9049  1.6420
  630MOL0     H84998   0.657   9.736   7.083  1.6219 -0.7513 -0.2201
  630MOL0     H84999   0.659   9.814   7.389  1.5147 -1.0732  0.9429
  630MOL0     H85000   0.635   9.641   7.352 -0.2972  0.9819  3.3533
  630MOL0     H85001   0.444   9.954   7.258  0.9195 -1.0868  0.0952
  630MOL0     H85002   0.091   9.888   7.403  1.8581  1.1876  2.7402
  630MOL0     H85003   0.177  10.021   7.322  1.1265 -1.0208  3.9240
  630MOL0     H85004   0.091   9.771   7.174  0.6712  0.1149 -1.4536
  630MOL0     H85005   0.159   9.908   7.093 -0.1746  0.9062  0.6059
  630MOL0     H85006  -0.017  10.054   7.133 -0.4940 -0.7834 -1.0639
  630MOL0     H85007  -0.077   9.969   7.274  0.1375 -1.1860  0.4760
  630MOL0     H85008  -0.098   9.804   7.021 -0.0258 -0.5827 -1.0954
  630MOL0     H85009  -0.152   9.969   6.994  1.5634  0.3411  1.0491
  630MOL0     H85010  -0.232  10.124   7.154  1.1962 -3.0046  1.6387
  630MOL0     H85011  -0.386  10.391   7.171  0.2346 -1.0975 -0.6753
  630MOL0     H85012  -0.375  10.388   7.349 -1.4154 -2.8357  0.9383
  630MOL0     H85013  -0.241  10.324   7.262  0.2946  1.6152  4.0585
  630MOL0     H85014  -0.792  10.389   7.545 -2.0143 -0.8630  1.9104
  630MOL0     H85015  -1.001  10.492   7.593 -1.6732 -0.7532  0.1679
  630MOL0     H85016  -1.341  10.434   7.330  3.2682 -3.0111 -1.1265
  630MOL0     H85017  -1.379  10.288   7.428  0.9834  0.6465  0.2154
  630MOL0     H85018  -1.520  10.394   7.580 -0.5672  1.1917  0.5951
  630MOL0     H85019  -1.449  10.552   7.552 -0.6308  1.0823 -0.6101
  630MOL0     H85020  -1.581  10.432   7.302 -1.0068  1.4115 -0.7728
  630MOL0     H85021  -1.572  10.603   7.371 -0.4630  0.3481  1.5015
  630MOL0     H85022  -1.808  10.443   7.385 -1.6708 -1.1383  1.6411
  630MOL0     H85023  -1.726  10.401   7.535 -1.0982 -1.0805 -1.5284
  630MOL0     H85024  -1.690  10.649   7.581  0.2445  2.8209 -0.5990
  630MOL0     H85025  -1.859  10.589   7.572 -2.4208 -1.2999 -3.7917
  630MOL0     H85026  -1.758  10.677   7.313  1.8764  0.2407  0.5552
  630MOL0     H85027  -1.913  10.709   7.397  0.8117 -0.7866 -0.6972
  630MOL0     H85028  -1.657  10.848   7.466  0.5256 -1.1495 -0.9683
  630MOL0     H85029  -1.829  10.897   7.512 -1.9626 -0.6304 -0.7948
  630MOL0     H85030  -1.716  10.894   7.226  1.2641  0.5391  0.5970
  630MOL0     H85031  -1.751  11.040   7.322  2.1854  0.1478 -0.8264
  630MOL0     H85032  -1.193  10.239   7.319  1.2961  0.9553 -2.8080
  630MOL0     H85033  -1.003  10.124   7.266  0.9469  1.0522 -0.2948
  630MOL0     H85034  -0.641   9.970   7.360 -2.0096  0.7021 -1.8689
  630MOL0     H85035  -0.499   9.813   7.284 -0.8008  0.5405 -0.2431
  630MOL0     H85036   1.624   9.631   7.339 -0.3658  0.0476 -1.3857
  630MOL0     H85037   1.851   9.545   7.341 -1.8242  2.6777  1.3827
  630MOL0     H85038   2.058   8.942   7.477  0.2185  0.7906  0.2032
  630MOL0     H85039   2.281   8.890   7.516  1.2558 -0.1909 -0.5423
  630MOL0     H85040   2.589   9.088   7.261 -3.2907 -3.5091 -0.1649
  630MOL0     H85041   2.617   9.153   7.423 -1.4466 -1.1176  1.9043
  630MOL0     H85042   2.689   8.869   7.327  1.8095  0.4938  0.2178
  630MOL0     H85043   2.737   8.947   7.476  2.3511 -1.9723  0.5750
  630MOL0     H85044   2.828   9.040   7.191 -0.6295  2.2761  0.4274
  630MOL0     H85045   2.911   8.923   7.292 -1.2046 -1.1425  2.5256
  630MOL0     H85046   2.946   9.102   7.466  0.6212  1.7778  0.1681
  630MOL0     H85047   2.863   9.222   7.369  1.0458  0.8233  0.8518
  630MOL0     H85048   3.226   9.204   7.181  1.9884 -1.1241  3.6261
  630MOL0     H85049   2.397   9.216   7.280  0.9791 -2.0387  1.0079
  630MOL0     H85050   2.159   9.298   7.285  2.0686  1.6572  1.9566
  631MOL0     O85051   2.868   7.262   0.256  0.3806 -0.1293  0.5575
  631MOL0     C85052   2.899   7.263   0.136 -0.7620 -0.3556  0.9803
  631MOL0     O85053   2.812   7.241   0.029  0.0093  0.5443 -0.4593
  631MOL0     C85054   2.675   7.246   0.062 -0.5577  0.4251 -1.0226
  631MOL0     C85055   2.589   7.152   0.002  0.0749 -0.7842 -0.2483
  631MOL0     C85056   2.449   7.169   0.015  0.3412  0.4840  0.3093
  631MOL0     C85057   2.391   7.272   0.092  0.1963  0.3109  0.5475
  631MOL0     O85058   2.252   7.300   0.104  0.4632 -0.4986  0.1467
  631MOL0     C85059   2.163   7.198   0.060 -0.3291  0.5696  0.2112
  631MOL0     C85060   2.017   7.243   0.073 -0.2673  0.7295  0.6977
  631MOL0     C85061   1.960   7.272   0.206 -0.3513  0.2369  0.2627
  631MOL0     C85062   1.818   7.329   0.194  0.0688  1.0130  0.3333
  631MOL0     C85063   1.750   7.343   0.333 -1.0448  0.3130 -1.1302
  631MOL0     C85064   1.600   7.356   0.315  0.5434 -0.5875 -0.1623
  631MOL0     C85065   1.541   7.395   0.454  0.5942  0.2357  0.6017
  631MOL0     C85066   1.392   7.412   0.461 -0.5838  0.1815  1.0976
  631MOL0     N85067   1.351   7.450   0.593  0.0103 -0.3894  0.3706
  631MOL0     C85068   1.293   7.357   0.678 -0.4290 -0.3235 -0.4862
  631MOL0     C85069   1.208   7.424   0.758  0.0383 -0.2412  0.2076
  631MOL0     C85070   1.109   7.382   0.871 -0.3839 -0.7317 -0.0442
  631MOL0     C85071   0.973   7.342   0.817  0.0147  0.3135 -0.0172
  631MOL0     C85072   0.891   7.287   0.934 -0.4214  1.0644  0.1898
  631MOL0     C85073   0.743   7.262   0.901  0.3913 -0.0730 -0.2776
  631MOL0     O85074   0.680   7.210   1.023 -0.0505 -0.2766  0.0482
  631MOL0     C85075   0.540   7.208   1.023 -0.5361  0.1024  0.4764
  631MOL0     C85076   0.482   7.148   1.136 -0.5259  0.6632 -0.6154
  631MOL0     C85077   0.341   7.142   1.162  0.0435 -0.0240  0.3809
  631MOL0     C85078   0.296   7.112   1.304  0.0777 -0.4344  0.1708
  631MOL0     C85079   0.257   7.176   1.053 -0.0879  0.0760  0.2499
  631MOL0     C85080   0.110   7.160   1.040  0.2708 -0.3038 -0.2914
  631MOL0     O85081   0.043   7.204   0.924  0.7763  0.4060  1.1199
  631MOL0     C85082  -0.089   7.158   0.902 -0.7334  1.0698  0.2298
  631MOL0     C85083  -0.186   7.255   0.886  0.4550 -0.1778 -0.0979
  631MOL0     C85084  -0.321   7.228   0.853  0.3133 -0.1071 -0.7553
  631MOL0     C85085  -0.357   7.093   0.831  0.1257 -1.3063  0.0451
  631MOL0     O85086  -0.486   7.069   0.792 -0.1776  0.0011 -0.2276
  631MOL0     C85087  -0.551   6.954   0.835  0.1322  0.1574  0.0993
  631MOL0     C85088  -0.661   6.926   0.739  0.3251  0.1765  0.5567
  631MOL0     C85089  -0.728   6.793   0.774 -0.3176 -0.0269  0.9799
  631MOL0     C85090  -0.872   6.780   0.719  0.4972 -0.2622  0.2668
  631MOL0     C85091  -0.955   6.658   0.774 -0.5479  0.4637  0.4428
  631MOL0     C85092  -1.104   6.669   0.768 -0.6241  0.0681  0.5088
  631MOL0     C85093  -1.173   6.573   0.864  0.2004  0.1307  0.2989
  631MOL0     C85094  -1.317   6.609   0.857 -0.1750  0.8515  0.2431
  631MOL0    Cl85095  -1.408   6.542   0.985 -0.0762  0.1320 -0.3740
  631MOL0     C85096  -0.250   6.995   0.821  0.7593  1.3415  0.0152
  631MOL0     C85097  -0.116   7.025   0.858 -1.0415  0.4303  0.3376
  631MOL0     O85098   0.049   7.105   1.138 -0.2620  0.1549 -0.2078
  631MOL0     C85099   0.321   7.224   0.936 -0.2985  0.0557 -0.7416
  631MOL0     C85100   0.458   7.235   0.916 -0.3372  0.5149  0.6629
  631MOL0     N85101   1.217   7.555   0.718 -0.6915 -0.5027 -0.5815
  631MOL0     N85102   1.307   7.568   0.623  0.1250 -1.0880 -0.3073
  631MOL0     C85103   2.476   7.360   0.156 -0.7511  1.7138  0.2773
  631MOL0     C85104   2.616   7.342   0.138 -1.1285 -0.1655 -0.1679
  631MOL0     C85105   3.040   7.288   0.109 -0.2739 -0.5715 -0.2066
  631MOL0     C85106   3.120   7.366   0.208 -0.4844 -0.0986  0.5647
  631MOL0     C85107   3.258   7.392   0.180 -0.1053 -0.2492 -0.0886
  631MOL0     C85108   3.324   7.341   0.067 -0.2463 -0.6074  0.3295
  631MOL0     O85109   3.462   7.355   0.041  0.2606  0.2350 -0.3047
  631MOL0     C85110   3.536   7.448   0.125 -0.7566  0.0871 -0.2870
  631MOL0     C85111   3.687   7.459   0.075 -0.2114 -0.3592 -0.3931
  631MOL0     C85112   3.705   7.552  -0.053 -0.0864 -0.2512 -0.0600
  631MOL0     C85113   3.851   7.603  -0.069 -0.1444  1.1739  0.4827
  631MOL0     C85114   3.945   7.493  -0.041  0.0766 -0.5090 -0.6788
  631MOL0     C85115   4.022   7.402  -0.025 -0.3513 -0.6876 -0.3791
  631MOL0     C85116   3.250   7.251  -0.016  0.4078  0.6996 -0.5128
  631MOL0     C85117   3.109   7.242  -0.003  0.5516 -0.9721 -0.4452
  631MOL0     H85118   2.630   7.068  -0.054  3.1444  1.1393 -1.0971
  631MOL0     H85119   2.392   7.099  -0.046 -0.8202  0.0273  1.8568
  631MOL0     H85120   2.181   7.169  -0.044 -1.1930 -0.2177  0.2695
  631MOL0     H85121   2.167   7.110   0.124  2.3042 -0.6670 -1.5019
  631MOL0     H85122   1.998   7.328   0.007 -0.9957  1.7471  2.1344
  631MOL0     H85123   1.955   7.167   0.024 -0.1743  2.4738 -2.3614
  631MOL0     H85124   1.963   7.180   0.265  0.2852  0.4765  0.6121
  631MOL0     H85125   2.028   7.349   0.243  0.7650 -1.3789  1.7434
  631MOL0     H85126   1.812   7.426   0.144 -2.2841  0.7718  0.0084
  631MOL0     H85127   1.748   7.264   0.141  3.8710 -1.1984 -2.4752
  631MOL0     H85128   1.781   7.261   0.398 -1.2064  1.1556  0.0371
  631MOL0     H85129   1.792   7.428   0.388  0.8617 -0.2107 -1.6846
  631MOL0     H85130   1.578   7.442   0.251  1.5764 -0.5858 -0.5219
  631MOL0     H85131   1.556   7.260   0.288 -1.5214 -0.5366  2.4951
  631MOL0     H85132   1.586   7.321   0.522  1.2381 -1.2330 -1.3375
  631MOL0     H85133   1.582   7.488   0.493 -0.3187  1.0303 -0.2790
  631MOL0     H85134   1.341   7.322   0.425 -0.8497  1.1489 -1.1190
  631MOL0     H85135   1.366   7.489   0.387 -1.0825  0.4670  1.5569
  631MOL0     H85136   1.321   7.252   0.676  2.3664  0.3301 -1.6238
  631MOL0     H85137   1.145   7.298   0.932 -0.2536 -0.2438  0.5633
  631MOL0     H85138   1.088   7.464   0.940  1.8036  0.4319 -0.6512
  631MOL0     H85139   0.990   7.260   0.746  1.0121  0.1589  0.3795
  631MOL0     H85140   0.921   7.425   0.768 -1.4621 -0.8017 -0.4285
  631MOL0     H85141   0.890   7.368   1.007 -0.0790  0.4188  0.9167
  631MOL0     H85142   0.940   7.199   0.975  0.9670  1.5790 -0.2884
  631MOL0     H85143   0.728   7.193   0.817 -0.6884 -1.7046  1.1777
  631MOL0     H85144   0.692   7.354   0.872 -0.6888 -0.5528  0.0497
  631MOL0     H85145   0.547   7.109   1.214 -1.0751 -0.9047 -0.9151
  631MOL0     H85146   0.245   7.016   1.310 -1.9921  0.6530  1.0172
  631MOL0     H85147   0.381   7.113   1.373  1.6064  1.7494 -1.6093
  631MOL0     H85148   0.228   7.192   1.335  0.0614 -0.3407 -0.1085
  631MOL0     H85149  -0.152   7.357   0.897 -1.4038  0.4765 -0.1089
  631MOL0     H85150  -0.394   7.307   0.844 -0.0628  0.0174  2.4217
  631MOL0     H85151  -0.489   6.863   0.839 -1.6589 -1.3360 -2.8105
  631MOL0     H85152  -0.599   6.972   0.931  1.1234  0.9148  0.4777
  631MOL0     H85153  -0.724   7.015   0.744 -0.6585 -0.5725  3.0195
  631MOL0     H85154  -0.627   6.916   0.635 -2.3372  2.3771 -0.6500
  631MOL0     H85155  -0.726   6.770   0.881 -2.5074 -0.1344  1.0557
  631MOL0     H85156  -0.665   6.715   0.731 -1.2309  0.6719 -1.8004
  631MOL0     H85157  -0.928   6.869   0.749 -0.7388 -1.1715  0.7898
  631MOL0     H85158  -0.865   6.780   0.610 -0.5354 -2.7408  0.1155
  631MOL0     H85159  -0.940   6.649   0.882 -0.7592  2.8010  0.7334
  631MOL0     H85160  -0.914   6.570   0.725  0.1359  0.6057  0.7501
  631MOL0     H85161  -1.142   6.771   0.774 -0.5018  0.1280  0.2400
  631MOL0     H85162  -1.133   6.624   0.673 -1.6053  0.3304  0.6773
  631MOL0     H85163  -1.141   6.595   0.966 -0.0272 -0.0998  0.4200
  631MOL0     H85164  -1.162   6.468   0.838  0.4223  0.4600 -1.0153
  631MOL0     H85165  -1.364   6.570   0.766  1.5203 -2.2383  0.5678
  631MOL0     H85166  -1.338   6.716   0.865  0.2316  0.8910  0.8424
  631MOL0     H85167  -0.275   6.892   0.797  3.5440  0.2066  1.3948
  631MOL0     H85168  -0.041   6.948   0.873 -1.5803  0.1270  1.6081
  631MOL0     H85169   0.254   7.255   0.857 -0.1959  1.9471 -0.1550
  631MOL0     H85170   0.491   7.267   0.817  0.8641 -4.0532 -0.6418
  631MOL0     H85171   2.431   7.432   0.224  0.0631  0.9140  1.7067
  631MOL0     H85172   2.687   7.413   0.180  1.8627 -1.9574 -1.8082
  631MOL0     H85173   3.080   7.396   0.305  2.6061  0.4537  1.7932
  631MOL0     H85174   3.312   7.459   0.247 -1.2590  2.5255 -1.7334
  631MOL0     H85175   3.484   7.542   0.147  0.2861  0.4217  0.8604
  631MOL0     H85176   3.549   7.411   0.227  1.1950 -0.6782 -0.7579
  631MOL0     H85177   3.719   7.355   0.064 -0.0342 -0.4400  0.7428
  631MOL0     H85178   3.746   7.512   0.150 -0.0302 -0.7529 -0.2601
  631MOL0     H85179   3.643   7.641  -0.038  0.5019 -0.0559  1.3830
  631MOL0     H85180   3.674   7.496  -0.142 -2.4379 -0.1039  0.5988
  631MOL0     H85181   3.876   7.680   0.005  1.6446  0.1144  1.0592
  631MOL0     H85182   3.856   7.648  -0.168  0.1226  2.0405  0.8832
  631MOL0     H85183   4.101   7.331  -0.008  1.4777  0.7792 -2.2973
  631MOL0     H85184   3.296   7.212  -0.106  1.2327  2.7799 -1.0490
  631MOL0     H85185   3.064   7.194  -0.089  2.6400 -3.3684 -0.3214
  632MOL0     O85186   0.549   9.768   4.265  0.7637  0.3065  0.1159
  632MOL0     C85187   0.535   9.881   4.221 -0.2574 -0.9771 -0.4534
  632MOL0     O85188   0.457   9.917   4.118 -1.1404  0.3790  0.0818
  632MOL0     C85189   0.374   9.839   4.053  0.1192  0.5875  0.6414
  632MOL0     C85190   0.324   9.715   4.100 -0.4647  0.3630 -0.0715
  632MOL0     C85191   0.241   9.645   4.018  0.5232 -0.0134  0.9134
  632MOL0     C85192   0.202   9.694   3.893 -0.6405  0.3677 -0.2315
  632MOL0     O85193   0.120   9.613   3.822  0.0770 -0.2221  1.0913
  632MOL0     C85194   0.061   9.675   3.704  0.3390 -0.0901 -0.6174
  632MOL0     C85195  -0.063   9.597   3.667 -0.3995  0.4849  1.2467
  632MOL0     C85196  -0.167   9.576   3.781 -0.2515  0.6094 -0.0867
  632MOL0     C85197  -0.295   9.502   3.731 -0.1239 -0.0788  0.4091
  632MOL0     C85198  -0.335   9.397   3.836 -0.2860 -0.0460  0.2473
  632MOL0     C85199  -0.370   9.452   3.973 -0.0538 -0.0590  1.3250
  632MOL0     C85200  -0.447   9.347   4.049  0.5596 -1.0290 -0.0295
  632MOL0     C85201  -0.480   9.394   4.191  0.0274  0.0167  0.2664
  632MOL0     N85202  -0.521   9.280   4.263  0.0546 -0.4340 -0.4814
  632MOL0     C85203  -0.604   9.181   4.219  0.4246 -0.2113 -0.0458
  632MOL0     C85204  -0.615   9.101   4.331  0.9594  0.5961 -0.6282
  632MOL0     C85205  -0.727   9.001   4.341 -0.0483  0.3719  1.1986
  632MOL0     C85206  -0.870   9.061   4.359 -0.3159  0.1153  0.1470
  632MOL0     C85207  -0.878   9.148   4.484  0.5252  0.8511 -0.0695
  632MOL0     C85208  -1.020   9.176   4.538 -0.8699  0.2856  0.5974
  632MOL0     O85209  -1.101   9.067   4.563 -0.3143  0.9191  0.0967
  632MOL0     C85210  -1.225   9.087   4.610 -1.1229  0.5477 -0.6184
  632MOL0     C85211  -1.249   9.068   4.744  0.1061  0.0477 -0.0851
  632MOL0     C85212  -1.381   9.095   4.790 -0.5852  0.2842  0.0985
  632MOL0     C85213  -1.412   9.067   4.927 -0.6960  0.0671 -0.5004
  632MOL0     C85214  -1.482   9.144   4.697 -0.2046  0.6471 -0.7600
  632MOL0     C85215  -1.623   9.147   4.734  0.7703  1.1324 -0.2390
  632MOL0     O85216  -1.665   9.034   4.800  0.6271 -0.1521 -0.5028
  632MOL0     C85217  -1.790   9.020   4.859  0.3405  0.1412 -0.5764
  632MOL0     C85218  -1.804   8.954   4.981  0.1084  0.3407  0.0489
  632MOL0     C85219  -1.930   8.933   5.041 -0.2544 -0.4361  0.8798
  632MOL0     C85220  -2.044   8.960   4.971  0.0858 -0.1518  0.5861
  632MOL0     O85221  -2.158   8.926   5.037  0.5508 -0.5288 -0.5014
  632MOL0     C85222  -2.278   8.902   4.959 -0.2769  0.7372 -0.5031
  632MOL0     C85223  -2.394   8.915   5.065 -0.8144 -0.7505 -0.5806
  632MOL0     C85224  -2.531   8.918   5.004  0.1878  0.4057  0.1216
  632MOL0     C85225  -2.640   8.972   5.096 -0.5572  0.8812 -0.4475
  632MOL0     C85226  -2.769   9.007   5.014  0.3629  0.1142 -0.5760
  632MOL0     C85227  -2.896   9.026   5.099 -0.0085  0.0903 -0.7702
  632MOL0     C85228  -2.879   9.148   5.193  0.9572 -0.3358 -0.0359
  632MOL0     C85229  -2.809   9.279   5.136 -0.2492 -0.0321  0.0552
  632MOL0    Cl85230  -2.894   9.332   4.985 -0.7404  0.1738 -0.1375
  632MOL0     C85231  -2.037   9.031   4.853 -0.0191 -0.1412 -0.8626
  632MOL0     C85232  -1.912   9.060   4.799  0.1955 -0.1129  0.2361
  632MOL0     O85233  -1.693   9.239   4.703  0.9512 -0.4685 -0.0924
  632MOL0     C85234  -1.445   9.161   4.564  0.5450 -0.5047 -0.4958
  632MOL0     C85235  -1.319   9.130   4.521  0.3927  0.0586 -0.0317
  632MOL0     N85236  -0.532   9.141   4.437 -0.5725  0.4156 -0.2660
  632MOL0     N85237  -0.472   9.249   4.391 -0.1818  0.4222 -0.6169
  632MOL0     C85238   0.254   9.815   3.849  0.8199  0.6457 -0.4068
  632MOL0     C85239   0.332   9.893   3.929  0.1861  0.1004 -0.5682
  632MOL0     C85240   0.615   9.986   4.284  0.4298  0.2304 -0.2669
  632MOL0     C85241   0.637  10.106   4.223  0.1373 -0.4202  0.3933
  632MOL0     C85242   0.733  10.198   4.272  0.5391  0.0070  0.4817
  632MOL0     C85243   0.812  10.160   4.385 -0.6305 -0.7409 -0.7525
  632MOL0     O85244   0.909  10.260   4.416  0.2997  0.5385 -0.0025
  632MOL0     C85245   1.050  10.240   4.379  0.4399  0.4654 -0.4918
  632MOL0     C85246   1.083  10.320   4.253 -0.1630 -0.4610  1.2413
  632MOL0     C85247   1.239  10.336   4.247  0.2199 -0.9397  0.1100
  632MOL0     C85248   1.278  10.449   4.337  0.2127  0.0001 -0.5106
  632MOL0     C85249   1.417  10.459   4.360  0.0172  0.2839  0.1170
  632MOL0     C85250   1.537  10.471   4.362  0.4445 -0.0380 -0.2472
  632MOL0     C85251   0.794  10.042   4.455 -0.0534  0.9473 -0.0644
  632MOL0     C85252   0.697   9.960   4.395 -0.4021  0.5061  0.8879
  632MOL0     H85253   0.359   9.671   4.193  1.1732 -1.6010 -1.5348
  632MOL0     H85254   0.214   9.545   4.050  0.0752 -0.7774 -1.6219
  632MOL0     H85255   0.033   9.779   3.723  1.8631  0.2291  0.0030
  632MOL0     H85256   0.135   9.654   3.626 -0.7650 -2.2089 -1.1667
  632MOL0     H85257  -0.114   9.643   3.582  1.4551  1.3239  0.5343
  632MOL0     H85258  -0.034   9.494   3.645 -0.2996  0.5259  1.1865
  632MOL0     H85259  -0.127   9.518   3.864 -1.0933 -1.0190 -0.7465
  632MOL0     H85260  -0.202   9.674   3.814 -1.7912  0.2514 -0.5577
  632MOL0     H85261  -0.368   9.583   3.724 -1.0985 -0.8827  0.9629
  632MOL0     H85262  -0.280   9.467   3.629  0.1938  0.3097  0.3199
  632MOL0     H85263  -0.421   9.345   3.791 -0.2768  1.0639 -1.1190
  632MOL0     H85264  -0.262   9.316   3.847  1.4337  1.2301 -1.2490
  632MOL0     H85265  -0.278   9.468   4.030  0.0913  0.3929  0.9699
  632MOL0     H85266  -0.425   9.546   3.959 -2.5266 -1.6864 -0.9853
  632MOL0     H85267  -0.538   9.321   3.994  1.2710 -0.9815 -1.2662
  632MOL0     H85268  -0.391   9.254   4.063  3.3957  0.6785  0.7896
  632MOL0     H85269  -0.558   9.468   4.172  1.7180  1.1714 -2.9567
  632MOL0     H85270  -0.399   9.446   4.243 -0.5771  1.4818 -0.2070
  632MOL0     H85271  -0.665   9.190   4.129  0.1062  1.9686  0.3159
  632MOL0     H85272  -0.724   8.928   4.260  1.3149  0.5059  1.0961
  632MOL0     H85273  -0.699   8.944   4.431 -1.5852  1.6218  2.5345
  632MOL0     H85274  -0.942   8.978   4.362  0.5768 -0.6473  1.5576
  632MOL0     H85275  -0.897   9.121   4.272  0.5666 -0.8465 -0.8193
  632MOL0     H85276  -0.839   9.247   4.457  0.4290  1.6018  2.3218
  632MOL0     H85277  -0.813   9.103   4.560  1.2308 -0.6241 -1.4836
  632MOL0     H85278  -1.069   9.231   4.458 -3.1824 -1.4831  0.7223
  632MOL0     H85279  -1.014   9.234   4.631 -2.8018 -1.6362  2.0230
  632MOL0     H85280  -1.169   9.048   4.816  0.3953 -1.5564 -0.8138
  632MOL0     H85281  -1.328   9.091   4.993  0.4656 -1.4383 -1.3412
  632MOL0     H85282  -1.500   9.120   4.964 -0.6693 -0.1427 -0.1271
  632MOL0     H85283  -1.423   8.958   4.935  0.6868 -0.1486 -1.2358
  632MOL0     H85284  -1.715   8.930   5.039  0.7283  3.7131  0.6470
  632MOL0     H85285  -1.947   8.893   5.141 -1.8159 -1.5373  0.2264
  632MOL0     H85286  -2.295   8.970   4.875  1.8446 -0.2689 -1.8256
  632MOL0     H85287  -2.269   8.801   4.918 -0.8813 -0.4853  2.1488
  632MOL0     H85288  -2.382   8.837   5.141  0.2037  0.6365  0.7488
  632MOL0     H85289  -2.387   9.011   5.118 -2.0583 -2.0213  2.1043
  632MOL0     H85290  -2.561   8.821   4.964 -1.1530  0.5334  0.7715
  632MOL0     H85291  -2.512   8.989   4.923  4.1381 -0.5557 -0.0295
  632MOL0     H85292  -2.666   8.889   5.161 -2.1964  1.1426 -0.7400
  632MOL0     H85293  -2.604   9.059   5.152  0.7390 -1.5405  2.8074
  632MOL0     H85294  -2.799   8.943   4.930 -0.3873 -0.5305  0.1698
  632MOL0     H85295  -2.743   9.101   4.965 -1.0368  3.2326  4.0108
  632MOL0     H85296  -2.979   9.036   5.029 -0.5600 -1.6214 -0.3886
  632MOL0     H85297  -2.916   8.936   5.156  1.2220  1.4439  1.9802
  632MOL0     H85298  -2.820   9.105   5.275 -0.5305 -3.6173 -0.5380
  632MOL0     H85299  -2.979   9.173   5.230  1.2124 -1.5835  1.6152
  632MOL0     H85300  -2.703   9.264   5.117 -0.4716 -1.4841 -0.2265
  632MOL0     H85301  -2.808   9.352   5.218 -2.4981 -0.0731  0.1821
  632MOL0     H85302  -2.128   9.076   4.815 -1.9922 -1.1413  2.3186
  632MOL0     H85303  -1.906   9.092   4.696 -2.8348 -1.8891 -0.6106
  632MOL0     H85304  -1.523   9.202   4.501  1.3485  0.9936 -0.5629
  632MOL0     H85305  -1.281   9.137   4.419  2.3728 -1.9027  0.4831
  632MOL0     H85306   0.230   9.860   3.753  0.7667  0.4075 -0.5039
  632MOL0     H85307   0.353   9.993   3.892  2.8614 -0.6114 -1.1356
  632MOL0     H85308   0.595  10.123   4.124  1.4554  0.0979 -0.0966
  632MOL0     H85309   0.751  10.294   4.223  1.6330 -0.1382  0.5678
  632MOL0     H85310   1.105  10.271   4.469 -1.0085 -0.6990  0.8545
  632MOL0     H85311   1.064  10.134   4.356 -2.9796 -0.8621  2.4248
  632MOL0     H85312   1.024  10.412   4.256 -0.5383 -0.3969 -2.5824
  632MOL0     H85313   1.063  10.261   4.163 -0.4944 -1.5255  1.9867
  632MOL0     H85314   1.275  10.365   4.148 -2.0807  1.1955 -0.2167
  632MOL0     H85315   1.293  10.244   4.271 -1.1922 -1.4541  1.5182
  632MOL0     H85316   1.227  10.454   4.434  2.5565  0.3069  0.7772
  632MOL0     H85317   1.257  10.546   4.292  1.9162  0.8821  0.4996
  632MOL0     H85318   1.644  10.471   4.350  0.4953 -3.3644 -0.6652
  632MOL0     H85319   0.872  10.016   4.526 -2.1047 -0.5750  1.7226
  632MOL0     H85320   0.703   9.858   4.433  1.4167  0.6315  1.0578
  633MOL0     O85321   9.058   3.990   4.183  0.0336  0.2153  0.2772
  633MOL0     C85322   9.047   4.002   4.305 -0.3978 -0.9048  0.5532
  633MOL0     O85323   8.954   4.078   4.359  0.4049  0.8825 -0.7181
  633MOL0     C85324   8.841   4.098   4.285 -0.5145 -0.2758 -0.0695
  633MOL0     C85325   8.787   4.228   4.286  0.6402 -0.9614  0.0040
  633MOL0     C85326   8.658   4.253   4.234 -0.7360 -0.0036 -0.2678
  633MOL0     C85327   8.585   4.156   4.167  0.4819  0.6283  0.0260
  633MOL0     O85328   8.463   4.182   4.107 -0.3628  0.3167  0.1263
  633MOL0     C85329   8.397   4.306   4.134  1.0764  0.4833  0.0309
  633MOL0     C85330   8.255   4.287   4.085  0.5785  0.0806  0.0425
  633MOL0     C85331   8.185   4.418   4.097 -0.3201 -1.2019  0.0471
  633MOL0     C85332   8.036   4.402   4.049  0.8969 -0.6261  0.0695
  633MOL0     C85333   7.970   4.545   4.056  0.0595  0.6994  0.6843
  633MOL0     C85334   7.932   4.588   3.916  0.3551 -0.3186  0.0482
  633MOL0     C85335   7.877   4.733   3.927  0.3613 -0.6812  0.1765
  633MOL0     C85336   7.823   4.784   3.792  0.6729  0.4355  0.9818
  633MOL0     N85337   7.702   4.728   3.738  0.0409  0.8140  0.3710
  633MOL0     C85338   7.687   4.621   3.658  0.7175 -0.2055 -0.5639
  633MOL0     C85339   7.556   4.598   3.641 -0.0768 -0.2673  0.0924
  633MOL0     C85340   7.496   4.497   3.556  0.9663 -0.3561 -0.0975
  633MOL0     C85341   7.546   4.356   3.593  0.4579 -0.0471  0.3804
  633MOL0     C85342   7.462   4.242   3.528 -0.1723 -0.1295 -0.3637
  633MOL0     C85343   7.494   4.104   3.602  0.2294  0.2149 -0.6287
  633MOL0     O85344   7.640   4.081   3.602 -0.1755  0.5577 -0.0481
  633MOL0     C85345   7.681   3.949   3.636  0.0473 -0.5481  0.8088
  633MOL0     C85346   7.596   3.840   3.665  0.2804  0.5285 -0.2736
  633MOL0     C85347   7.651   3.720   3.700 -0.1416  0.1705  0.3756
  633MOL0     C85348   7.554   3.604   3.732 -0.9134 -0.6786 -0.6042
  633MOL0     C85349   7.786   3.695   3.710  0.1826  0.1637  0.1812
  633MOL0     C85350   7.829   3.563   3.754  0.7439 -0.2327 -0.7061
  633MOL0     O85351   7.851   3.461   3.667  1.0419 -0.3736  0.3338
  633MOL0     C85352   7.945   3.372   3.686 -0.4125 -0.1934 -0.2263
  633MOL0     C85353   8.043   3.367   3.787  0.6523 -0.2111 -1.1415
  633MOL0     C85354   8.136   3.266   3.799  0.3308 -0.2391 -0.5907
  633MOL0     C85355   8.132   3.157   3.708 -0.3823  0.2696  0.4462
  633MOL0     O85356   8.230   3.059   3.698 -0.1983 -0.3028  0.7010
  633MOL0     C85357   8.336   3.060   3.796 -0.5055  0.0542 -0.4551
  633MOL0     C85358   8.431   2.953   3.774  0.0982  0.1689 -0.2402
  633MOL0     C85359   8.364   2.813   3.780 -0.1946 -1.1745 -0.4969
  633MOL0     C85360   8.463   2.696   3.764  0.7111 -0.4517 -0.8518
  633MOL0     C85361   8.515   2.686   3.623  0.8326  0.2455 -0.4729
  633MOL0     C85362   8.609   2.560   3.617  0.0498  0.8372 -0.0031
  633MOL0     C85363   8.724   2.564   3.724  0.5132  0.3141  0.7613
  633MOL0     C85364   8.817   2.446   3.669 -0.2590 -1.2828  0.2667
  633MOL0    Cl85365   8.965   2.438   3.759  0.2539 -0.1751  0.4320
  633MOL0     C85366   8.036   3.171   3.604  0.6278  1.3316 -0.2251
  633MOL0     C85367   7.945   3.272   3.592 -0.3786  0.7321 -0.3516
  633MOL0     O85368   7.814   3.543   3.871  0.4780  0.2443 -0.4566
  633MOL0     C85369   7.871   3.804   3.679 -0.2804  0.7508  0.2588
  633MOL0     C85370   7.814   3.933   3.645  0.3185  0.7935 -0.3168
  633MOL0     N85371   7.491   4.697   3.722  0.2463 -0.1526  0.0797
  633MOL0     N85372   7.582   4.770   3.777  0.1273 -0.1875 -0.1004
  633MOL0     C85373   8.649   4.030   4.158 -0.0781 -0.0945 -0.3075
  633MOL0     C85374   8.772   3.999   4.217  0.2184 -0.0777 -0.4510
  633MOL0     C85375   9.144   3.924   4.389  0.3509 -0.6092  0.0384
  633MOL0     C85376   9.250   3.843   4.341  0.5601  0.1655  0.7159
  633MOL0     C85377   9.329   3.765   4.427 -0.2764  0.6303 -0.5251
  633MOL0     C85378   9.299   3.764   4.568  0.2144  0.6020 -0.4366
  633MOL0     O85379   9.366   3.685   4.661  0.3030 -0.0052 -0.5860
  633MOL0     C85380   9.506   3.653   4.638 -0.2710 -0.0653  0.0808
  633MOL0     C85381   9.559   3.559   4.753 -0.4164  0.7274  0.1109
  633MOL0     C85382   9.710   3.519   4.736 -0.7688 -0.5670 -0.2432
  633MOL0     C85383   9.760   3.424   4.846  0.3571 -0.5644 -0.1798
  633MOL0     C85384   9.906   3.403   4.826 -0.2126  0.6027  0.6854
  633MOL0     C85385  10.028   3.390   4.803  0.9791  0.2073 -0.7752
  633MOL0     C85386   9.189   3.840   4.617 -0.0340 -0.2197  1.5192
  633MOL0     C85387   9.120   3.919   4.530  0.0473  0.6455 -0.1959
  633MOL0     H85388   8.851   4.302   4.332 -1.2798 -0.4827  2.0597
  633MOL0     H85389   8.625   4.356   4.240  1.2275  0.6377  0.4855
  633MOL0     H85390   8.385   4.304   4.242 -0.4978 -1.3501 -0.1204
  633MOL0     H85391   8.454   4.384   4.083 -0.4612  1.2442 -0.5923
  633MOL0     H85392   8.241   4.254   3.982 -0.5944  0.4763  0.0536
  633MOL0     H85393   8.195   4.215   4.143 -0.8461 -0.2987 -1.7825
  633MOL0     H85394   8.190   4.448   4.202  2.1328  2.2416 -0.9032
  633MOL0     H85395   8.236   4.488   4.030  1.4276 -0.7300  1.7752
  633MOL0     H85396   8.028   4.364   3.947 -2.2604 -1.4344  0.4934
  633MOL0     H85397   7.989   4.334   4.121 -2.2912 -2.4759 -3.4029
  633MOL0     H85398   7.873   4.534   4.105  0.3303  1.6684  1.4693
  633MOL0     H85399   8.025   4.624   4.106 -1.3370  2.0227  0.2314
  633MOL0     H85400   8.024   4.582   3.858  1.8259 -2.3313  2.4252
  633MOL0     H85401   7.861   4.522   3.865 -0.4043 -0.1829  0.8904
  633MOL0     H85402   7.800   4.742   4.003 -0.0670 -0.6724 -0.2582
  633MOL0     H85403   7.960   4.798   3.957 -0.4893 -0.6766  2.7281
  633MOL0     H85404   7.907   4.776   3.722 -1.5673  2.4022 -2.2300
  633MOL0     H85405   7.802   4.888   3.815 -2.1929  0.6242 -1.8441
  633MOL0     H85406   7.756   4.566   3.595 -0.2796 -0.6472 -1.2740
  633MOL0     H85407   7.387   4.496   3.562  0.7920 -2.3738 -1.9562
  633MOL0     H85408   7.511   4.535   3.454 -0.5548  2.2930  0.5589
  633MOL0     H85409   7.534   4.346   3.702 -3.8473  1.2164  0.2241
  633MOL0     H85410   7.650   4.346   3.562 -0.4667  1.2811 -3.6801
  633MOL0     H85411   7.484   4.250   3.421  0.5965  2.4688 -0.0658
  633MOL0     H85412   7.354   4.261   3.528 -0.5273 -1.4955 -3.4890
  633MOL0     H85413   7.441   4.028   3.544  0.5433 -0.7394  0.3085
  633MOL0     H85414   7.453   4.105   3.704  1.1572 -0.2012 -0.2414
  633MOL0     H85415   7.487   3.843   3.665  0.0127 -3.6138  0.9467
  633MOL0     H85416   7.563   3.513   3.673  1.2835 -0.5138 -0.6338
  633MOL0     H85417   7.564   3.575   3.837  1.3306 -3.8196 -1.5375
  633MOL0     H85418   7.453   3.641   3.715 -1.3966 -1.5253  0.3366
  633MOL0     H85419   8.029   3.449   3.857 -0.5842 -0.9006 -0.5477
  633MOL0     H85420   8.208   3.266   3.881 -0.5164 -0.1394  0.1616
  633MOL0     H85421   8.390   3.154   3.791  1.4361 -0.9802  0.0436
  633MOL0     H85422   8.288   3.059   3.894 -3.2626  0.3919 -1.7213
  633MOL0     H85423   8.472   2.971   3.674  0.6573  1.5649  0.2136
  633MOL0     H85424   8.511   2.955   3.848  2.0428 -0.5706 -2.2252
  633MOL0     H85425   8.277   2.797   3.715 -1.0041  2.0875 -0.3939
  633MOL0     H85426   8.321   2.816   3.880  2.7476  2.0499  0.8332
  633MOL0     H85427   8.545   2.709   3.834  0.6518  1.1682 -1.0547
  633MOL0     H85428   8.416   2.601   3.791  3.0328 -1.7738 -1.2199
  633MOL0     H85429   8.568   2.774   3.586  0.1430  1.3669  1.1260
  633MOL0     H85430   8.429   2.679   3.556 -0.4676  2.9038  0.8260
  633MOL0     H85431   8.562   2.463   3.635  2.8769 -1.1432 -2.4278
  633MOL0     H85432   8.649   2.545   3.516 -3.1247  0.4248 -1.3170
  633MOL0     H85433   8.690   2.527   3.821  3.1851 -2.0081  0.9557
  633MOL0     H85434   8.770   2.663   3.724  0.2014  0.4598  0.2212
  633MOL0     H85435   8.845   2.467   3.565  1.1806  0.0906  0.8927
  633MOL0     H85436   8.768   2.350   3.688 -1.7826 -0.4910  0.5318
  633MOL0     H85437   8.041   3.096   3.525 -3.1012  0.0764  0.5324
  633MOL0     H85438   7.880   3.260   3.506 -0.2704  1.1796 -0.4946
  633MOL0     H85439   7.978   3.798   3.698 -0.2771 -0.6138 -0.1116
  633MOL0     H85440   7.877   4.020   3.630  0.5988  0.9236  1.4466
  633MOL0     H85441   8.597   3.950   4.105 -3.8469  1.5490  0.5356
  633MOL0     H85442   8.807   3.896   4.219  2.4477  0.6430 -0.2225
  633MOL0     H85443   9.258   3.837   4.233  0.6414 -1.6263  0.7877
  633MOL0     H85444   9.409   3.699   4.396  0.6809  0.9174  1.2103
  633MOL0     H85445   9.509   3.592   4.547  0.0162 -1.9682  1.2984
  633MOL0     H85446   9.564   3.745   4.643 -0.0525 -0.2347  3.5559
  633MOL0     H85447   9.502   3.465   4.750 -0.3027  0.6264  0.9848
  633MOL0     H85448   9.549   3.599   4.854 -2.7980 -1.7726  0.9945
  633MOL0     H85449   9.770   3.606   4.711 -0.8767 -1.0276 -2.2715
  633MOL0     H85450   9.708   3.454   4.648 -2.4090 -1.0997  0.1375
  633MOL0     H85451   9.710   3.326   4.838 -1.9897  0.5478 -0.0906
  633MOL0     H85452   9.736   3.461   4.947 -0.7326 -1.2511 -0.1649
  633MOL0     H85453  10.133   3.377   4.786  1.1424 -1.9290  1.3043
  633MOL0     H85454   9.164   3.841   4.723  1.0773 -0.0499  1.7869
  633MOL0     H85455   9.038   3.972   4.578  1.1890  1.2990  1.0854
  634MOL0     O85456   1.106   1.080   1.198  0.9159 -0.2283 -0.2896
  634MOL0     C85457   1.182   1.156   1.258  0.6764  0.0016 -0.7251
  634MOL0     O85458   1.152   1.276   1.306 -0.5801 -0.7632 -0.3381
  634MOL0     C85459   1.020   1.316   1.299 -0.3615  0.1905 -0.6277
  634MOL0     C85460   0.965   1.381   1.184  0.4987 -0.0743 -0.0768
  634MOL0     C85461   0.825   1.417   1.181 -0.5783  0.4643 -0.1126
  634MOL0     C85462   0.746   1.401   1.305 -0.3566 -0.8011  0.6838
  634MOL0     O85463   0.614   1.453   1.307  0.0805 -0.3722  0.0994
  634MOL0     C85464   0.550   1.476   1.433 -0.0197  0.8081 -0.3916
  634MOL0     C85465   0.423   1.560   1.419  0.3940 -0.1339  0.3581
  634MOL0     C85466   0.326   1.500   1.318 -0.2106 -0.3224  0.1919
  634MOL0     C85467   0.193   1.566   1.328 -0.1896 -0.0912 -0.2500
  634MOL0     C85468   0.095   1.499   1.225 -0.6163 -1.1442 -0.1132
  634MOL0     C85469  -0.045   1.556   1.225 -1.0712 -0.8384  1.0352
  634MOL0     C85470  -0.126   1.494   1.117  0.7123  0.7842  0.7198
  634MOL0     C85471  -0.241   1.589   1.076 -0.2155 -0.1215 -0.0577
  634MOL0     N85472  -0.340   1.519   0.995 -0.1216 -0.3110  0.6506
  634MOL0     C85473  -0.465   1.495   1.036  0.5270  1.0870  1.0553
  634MOL0     C85474  -0.510   1.423   0.929  0.0878 -0.1567 -0.1821
  634MOL0     C85475  -0.653   1.365   0.922 -0.4867 -0.5193 -0.1630
  634MOL0     C85476  -0.774   1.442   0.980  0.1269 -0.1615  0.6023
  634MOL0     C85477  -0.885   1.479   0.873 -0.8572  0.4230  0.7109
  634MOL0     C85478  -0.998   1.576   0.924  0.2506  0.4204 -0.4523
  634MOL0     O85479  -1.067   1.624   0.805  0.3536  0.1209 -0.8648
  634MOL0     C85480  -1.151   1.736   0.816  0.2681 -0.5891  0.9171
  634MOL0     C85481  -1.201   1.786   0.697  0.7497 -0.5991  0.2033
  634MOL0     C85482  -1.294   1.894   0.690 -0.1575 -0.6983  0.5171
  634MOL0     C85483  -1.353   1.934   0.555 -0.0772  0.0553  0.9147
  634MOL0     C85484  -1.332   1.963   0.804  0.0993 -1.3582  0.3786
  634MOL0     C85485  -1.428   2.073   0.805 -0.3766  0.3775 -0.2901
  634MOL0     O85486  -1.555   2.060   0.747 -0.1665 -0.2695  0.1137
  634MOL0     C85487  -1.649   2.162   0.769  0.2174  0.6372 -0.1136
  634MOL0     C85488  -1.700   2.183   0.899 -0.3628 -0.5893 -0.5453
  634MOL0     C85489  -1.803   2.263   0.928 -0.2189  0.1743 -0.1466
  634MOL0     C85490  -1.861   2.334   0.820 -0.1100  0.1932  0.4831
  634MOL0     O85491  -1.936   2.441   0.853 -0.5040 -0.2992 -0.0508
  634MOL0     C85492  -1.938   2.546   0.755 -0.2588  0.8030  0.4345
  634MOL0     C85493  -2.035   2.650   0.797  0.5689 -0.4167 -0.6591
  634MOL0     C85494  -2.068   2.752   0.695  0.2667 -0.2389  0.4104
  634MOL0     C85495  -2.164   2.860   0.744  0.9463  0.4706 -0.2867
  634MOL0     C85496  -2.245   2.923   0.629  0.5550 -0.0740 -0.0213
  634MOL0     C85497  -2.274   3.076   0.638  0.0740  0.8552 -0.0778
  634MOL0     C85498  -2.381   3.121   0.750 -0.0496  0.8227  0.0727
  634MOL0     C85499  -2.483   3.006   0.805  0.0728  0.3230  0.1672
  634MOL0    Cl85500  -2.598   2.941   0.671 -0.4461 -0.3094  0.0024
  634MOL0     C85501  -1.817   2.304   0.682  0.5786 -1.4212 -0.0316
  634MOL0     C85502  -1.710   2.211   0.660  0.3388 -0.1256  0.3642
  634MOL0     O85503  -1.396   2.171   0.874  0.3258  0.3998  0.5745
  634MOL0     C85504  -1.279   1.915   0.918 -0.9486 -0.4624 -0.1481
  634MOL0     C85505  -1.189   1.808   0.926  0.6200 -0.0246  0.1181
  634MOL0     N85506  -0.413   1.423   0.825  0.1213 -0.5847 -0.4812
  634MOL0     N85507  -0.313   1.483   0.868  0.2600 -0.3509 -0.7718
  634MOL0     C85508   0.797   1.332   1.416 -0.7179  0.4463  0.1813
  634MOL0     C85509   0.937   1.292   1.414 -0.2949 -0.6925  0.2617
  634MOL0     C85510   1.329   1.122   1.261  0.3212  0.1577 -0.2283
  634MOL0     C85511   1.429   1.221   1.260 -0.0059 -0.1217 -0.2043
  634MOL0     C85512   1.554   1.182   1.225 -0.9135 -0.3491  0.2333
  634MOL0     C85513   1.598   1.052   1.209  0.4596 -0.1667 -1.3122
  634MOL0     O85514   1.729   1.032   1.165 -0.8116  0.2352  0.5749
  634MOL0     C85515   1.785   0.895   1.158 -0.5102  0.7051 -0.1004
  634MOL0     C85516   1.802   0.834   1.298 -0.4848 -0.1296 -0.4037
  634MOL0     C85517   1.935   0.873   1.363  0.6121 -0.0489 -1.0411
  634MOL0     C85518   2.022   0.759   1.409 -0.5260 -0.5479 -0.2646
  634MOL0     C85519   2.144   0.797   1.473 -0.1939  0.1366  0.4255
  634MOL0     C85520   2.246   0.827   1.526 -0.0028 -0.7285  0.5272
  634MOL0     C85521   1.498   0.952   1.231 -0.0165 -0.4708  0.0337
  634MOL0     C85522   1.364   0.985   1.250 -0.1072 -0.1153  0.0292
  634MOL0     H85523   1.031   1.394   1.098  1.9907 -3.0970  0.4881
  634MOL0     H85524   0.778   1.465   1.095  1.2337  0.9783 -0.8805
  634MOL0     H85525   0.519   1.376   1.464 -1.8612  0.4687 -2.9899
  634MOL0     H85526   0.627   1.524   1.495  2.9439  0.9225 -3.7665
  634MOL0     H85527   0.377   1.576   1.517  0.3911  0.4465  0.2676
  634MOL0     H85528   0.458   1.661   1.393  0.7581 -0.0915  0.9878
  634MOL0     H85529   0.359   1.542   1.222 -1.3087  4.2100  1.5464
  634MOL0     H85530   0.305   1.393   1.324 -1.1297 -0.2002 -0.5974
  634MOL0     H85531   0.160   1.555   1.431  2.3483 -3.0659  0.3893
  634MOL0     H85532   0.195   1.672   1.300 -0.2613 -0.8894 -3.8774
  634MOL0     H85533   0.139   1.508   1.125 -0.3205  1.1970  0.1698
  634MOL0     H85534   0.090   1.390   1.238  0.4829 -1.3712 -1.3187
  634MOL0     H85535  -0.087   1.559   1.326  0.5362 -0.6423  1.7274
  634MOL0     H85536  -0.041   1.662   1.199 -0.9845 -1.3518 -1.1726
  634MOL0     H85537  -0.071   1.452   1.032 -1.8087  0.5635 -0.9198
  634MOL0     H85538  -0.166   1.401   1.159  3.0015 -1.2722 -1.3466
  634MOL0     H85539  -0.197   1.668   1.014 -1.4819  0.8015  0.1717
  634MOL0     H85540  -0.290   1.646   1.155  1.0118  0.0251  0.6178
  634MOL0     H85541  -0.521   1.543   1.116  1.7039  2.5793  1.0248
  634MOL0     H85542  -0.662   1.337   0.817  3.5425 -2.1714 -0.2221
  634MOL0     H85543  -0.656   1.271   0.977  0.0375 -1.5745 -1.8761
  634MOL0     H85544  -0.737   1.537   1.019 -1.4815  0.7943 -0.0890
  634MOL0     H85545  -0.813   1.385   1.064  0.9057  1.1545  1.8934
  634MOL0     H85546  -0.932   1.389   0.832  0.1991 -0.0024  0.3883
  634MOL0     H85547  -0.837   1.528   0.787 -2.5992  0.1600 -0.4698
  634MOL0     H85548  -0.953   1.663   0.973  1.2005 -1.7444  2.8471
  634MOL0     H85549  -1.066   1.519   0.988 -0.2507  1.6016  0.1112
  634MOL0     H85550  -1.167   1.739   0.605  3.4909 -0.7135  1.1933
  634MOL0     H85551  -1.339   2.040   0.534 -0.6414  0.1956  1.2317
  634MOL0     H85552  -1.297   1.880   0.478  0.6913 -0.7901  2.0251
  634MOL0     H85553  -1.457   1.902   0.546  0.2549 -1.1874  1.2340
  634MOL0     H85554  -1.646   2.130   0.976  2.0523  3.9057  1.2315
  634MOL0     H85555  -1.833   2.277   1.031  1.5472 -2.4035  0.8017
  634MOL0     H85556  -1.841   2.593   0.737  1.7417 -2.5507  1.5227
  634MOL0     H85557  -1.975   2.502   0.662 -0.2961 -0.8761  1.1934
  634MOL0     H85558  -2.133   2.616   0.830  0.4258  1.9931  1.7908
  634MOL0     H85559  -1.991   2.707   0.880 -0.3646  2.8285 -2.1994
  634MOL0     H85560  -2.098   2.697   0.606  0.9812  1.8285 -1.1642
  634MOL0     H85561  -1.973   2.802   0.673  1.2511 -1.9412  0.5615
  634MOL0     H85562  -2.224   2.833   0.831  0.8847  1.9163  0.1469
  634MOL0     H85563  -2.091   2.922   0.797  2.1925 -2.3255  1.5881
  634MOL0     H85564  -2.335   2.869   0.596  2.0044 -1.4849 -1.8924
  634MOL0     H85565  -2.176   2.912   0.545  0.7175 -2.0755  0.3406
  634MOL0     H85566  -2.176   3.123   0.648  1.0789 -1.2665  0.5081
  634MOL0     H85567  -2.314   3.123   0.548 -0.4764  2.2820  0.8570
  634MOL0     H85568  -2.448   3.198   0.711 -0.2325  0.0822 -1.1457
  634MOL0     H85569  -2.329   3.157   0.839  2.0554  1.4476 -1.3300
  634MOL0     H85570  -2.544   3.045   0.887  2.0236  1.3582  1.1916
  634MOL0     H85571  -2.428   2.915   0.830 -1.6328 -1.3482 -1.8295
  634MOL0     H85572  -1.847   2.362   0.596  4.4576 -0.3028 -0.8259
  634MOL0     H85573  -1.677   2.176   0.563 -3.0592 -3.3126  0.1275
  634MOL0     H85574  -1.309   1.968   1.008 -0.8461  1.4969 -1.2165
  634MOL0     H85575  -1.141   1.768   1.015  0.3148 -0.3574  0.1357
  634MOL0     H85576   0.737   1.311   1.503 -0.2697 -2.0719 -0.0344
  634MOL0     H85577   0.969   1.231   1.497  0.2547 -1.3791 -0.4434
  634MOL0     H85578   1.421   1.329   1.268  4.1841  0.4198 -1.2456
  634MOL0     H85579   1.629   1.257   1.204  0.3434 -1.5852  0.1101
  634MOL0     H85580   1.720   0.825   1.106  0.0111 -0.9901  1.4389
  634MOL0     H85581   1.879   0.886   1.103 -0.6056 -0.8653 -0.0247
  634MOL0     H85582   1.807   0.726   1.280  0.8852 -0.0640 -0.4618
  634MOL0     H85583   1.715   0.842   1.364  1.2490  0.4205  1.9558
  634MOL0     H85584   1.898   0.908   1.459  4.5739  0.8948  0.3562
  634MOL0     H85585   1.975   0.951   1.298 -1.2802 -1.5602 -4.3050
  634MOL0     H85586   2.071   0.708   1.326  1.9071  0.0119  0.7357
  634MOL0     H85587   1.960   0.695   1.472  0.0683 -1.4695 -0.5905
  634MOL0     H85588   2.338   0.864   1.566  0.4463 -2.4320  1.1617
  634MOL0     H85589   1.528   0.847   1.232  0.6777 -0.2812 -0.4372
  634MOL0     H85590   1.290   0.907   1.238 -1.2892  1.2159 -1.9772
  635MOL0     O85591   6.899   7.277   6.643  0.6368  0.4909 -0.3692
  635MOL0     C85592   6.913   7.259   6.526  0.3419  0.0426  0.4337
  635MOL0     O85593   6.804   7.270   6.434  0.0874  0.0513 -0.2122
  635MOL0     C85594   6.704   7.363   6.463 -0.6440  0.5999  0.2357
  635MOL0     C85595   6.581   7.319   6.418  0.2312  0.6402 -0.2890
  635MOL0     C85596   6.477   7.411   6.417 -0.1821  0.2827  0.4079
  635MOL0     C85597   6.491   7.537   6.475 -0.5534  0.4007 -0.1751
  635MOL0     O85598   6.377   7.616   6.478 -0.3965  0.3059  0.3336
  635MOL0     C85599   6.402   7.755   6.508  0.6825 -0.2681  0.1101
  635MOL0     C85600   6.263   7.823   6.523 -0.0667  0.1843  0.2652
  635MOL0     C85601   6.187   7.814   6.391  1.2406  0.0328  0.1743
  635MOL0     C85602   6.039   7.870   6.413 -0.3879  0.2167 -0.1937
  635MOL0     C85603   6.035   8.018   6.422 -0.4246 -0.1947 -0.4535
  635MOL0     C85604   5.906   8.088   6.385  0.1025 -0.2456 -0.1799
  635MOL0     C85605   5.810   8.073   6.496  0.1264 -0.9734 -0.1423
  635MOL0     C85606   5.679   8.128   6.447 -0.3213  0.9081  0.7715
  635MOL0     N85607   5.593   8.026   6.386 -0.0316  0.5624  0.1763
  635MOL0     C85608   5.473   7.983   6.442 -0.0441 -0.1737  0.3613
  635MOL0     C85609   5.441   7.874   6.368  1.2369 -0.1486  0.4514
  635MOL0     C85610   5.321   7.780   6.375  0.3829  0.1830 -0.6567
  635MOL0     C85611   5.194   7.850   6.443 -0.2722  0.0182  0.1211
  635MOL0     C85612   5.075   7.751   6.448 -0.4751  0.2921  0.0737
  635MOL0     C85613   4.945   7.821   6.480 -0.0802 -0.7361 -0.3104
  635MOL0     O85614   4.839   7.714   6.473 -0.3525  0.6248 -0.1159
  635MOL0     C85615   4.714   7.759   6.482  0.2299 -0.8433  0.4184
  635MOL0     C85616   4.675   7.893   6.512 -0.0883  0.7265  0.4099
  635MOL0     C85617   4.541   7.925   6.502  0.2586  0.0826  0.2393
  635MOL0     C85618   4.494   8.068   6.534  0.2322  0.1945  0.0803
  635MOL0     C85619   4.437   7.822   6.470 -0.0054 -0.9591 -0.0256
  635MOL0     C85620   4.286   7.836   6.462 -0.5074  0.0994 -0.0458
  635MOL0     O85621   4.207   7.717   6.477 -0.4371  0.1388  0.0949
  635MOL0     C85622   4.070   7.734   6.469 -0.2228 -0.5517  0.2753
  635MOL0     C85623   3.997   7.812   6.379  0.3057  0.0745 -0.3871
  635MOL0     C85624   3.860   7.817   6.386  0.0708 -0.0383 -0.4057
  635MOL0     C85625   3.788   7.737   6.477 -0.3242  0.0689  1.1622
  635MOL0     O85626   3.649   7.722   6.494 -0.2772  0.2273  0.1359
  635MOL0     C85627   3.558   7.807   6.412 -0.0361  0.3677 -0.4444
  635MOL0     C85628   3.412   7.774   6.424 -0.1663 -0.1766 -0.1875
  635MOL0     C85629   3.335   7.868   6.332 -0.5846  0.0016 -0.1845
  635MOL0     C85630   3.182   7.883   6.382 -0.6598  0.1857  0.6750
  635MOL0     C85631   3.106   7.752   6.363 -0.3886  0.2680  0.3078
  635MOL0     C85632   2.963   7.766   6.410 -1.0435 -0.4785 -0.3251
  635MOL0     C85633   2.874   7.636   6.396 -0.3996 -0.5693  0.3765
  635MOL0     C85634   2.731   7.666   6.453 -0.6927  0.1946 -0.4526
  635MOL0    Cl85635   2.625   7.520   6.417  0.0792 -0.3805 -0.1950
  635MOL0     C85636   3.865   7.653   6.563  0.7943  0.0073 -0.1022
  635MOL0     C85637   4.007   7.656   6.561  0.4578 -0.3749  0.1439
  635MOL0     O85638   4.239   7.943   6.442 -0.4030 -0.4670  0.3341
  635MOL0     C85639   4.483   7.698   6.435 -0.4281  0.2301  0.1857
  635MOL0     C85640   4.620   7.668   6.440 -0.3557  0.4741 -0.0032
  635MOL0     N85641   5.544   7.843   6.282  0.6582  0.2247  0.8808
  635MOL0     N85642   5.636   7.930   6.299 -0.1876 -0.3838  0.0937
  635MOL0     C85643   6.621   7.580   6.510 -0.6866  0.2400  0.0846
  635MOL0     C85644   6.729   7.494   6.497 -0.3739 -0.0580 -0.3589
  635MOL0     C85645   7.038   7.209   6.471  0.0496 -0.7404 -0.4390
  635MOL0     C85646   7.155   7.217   6.551  0.1320  0.3807  0.5009
  635MOL0     C85647   7.277   7.167   6.494  0.5049 -0.1743 -0.1365
  635MOL0     C85648   7.277   7.103   6.370  0.0823  0.1481  0.3836
  635MOL0     O85649   7.390   7.050   6.311  0.2346  0.2707 -0.0182
  635MOL0     C85650   7.520   7.061   6.372 -1.0765 -0.4894  0.1479
  635MOL0     C85651   7.632   7.003   6.292 -0.4637  0.2388 -0.4732
  635MOL0     C85652   7.766   7.042   6.359 -0.2710  0.5367 -0.0968
  635MOL0     C85653   7.872   6.953   6.309 -0.8265 -0.3048  0.0892
  635MOL0     C85654   7.883   6.833   6.388 -0.5031  1.2902  0.5804
  635MOL0     C85655   7.894   6.719   6.424  0.4212  0.3174  0.3615
  635MOL0     C85656   7.157   7.101   6.294 -0.7705  0.0912  0.7455
  635MOL0     C85657   7.045   7.152   6.340  0.0763 -0.0971 -0.3958
  635MOL0     H85658   6.578   7.223   6.368  2.4522  0.9158 -1.0639
  635MOL0     H85659   6.378   7.382   6.381  0.3073  0.4420 -1.1472
  635MOL0     H85660   6.458   7.771   6.600 -1.2562 -0.5327  1.4113
  635MOL0     H85661   6.446   7.808   6.423  1.1981 -1.8747 -0.6523
  635MOL0     H85662   6.198   7.779   6.599  0.3668 -0.8023  0.0855
  635MOL0     H85663   6.287   7.923   6.560  3.6214 -0.2804 -0.4536
  635MOL0     H85664   6.237   7.877   6.317 -2.1205  3.0095  0.1462
  635MOL0     H85665   6.176   7.714   6.347 -2.5924  0.6011 -0.4843
  635MOL0     H85666   5.976   7.845   6.327 -3.0001 -0.3163  1.7287
  635MOL0     H85667   5.988   7.831   6.502  0.7128 -0.9402 -0.0518
  635MOL0     H85668   6.085   8.058   6.511  1.8155  1.1435 -2.2042
  635MOL0     H85669   6.095   8.045   6.335 -0.2601  0.9632 -0.0041
  635MOL0     H85670   5.929   8.193   6.364 -0.4472 -0.2992 -1.0982
  635MOL0     H85671   5.867   8.055   6.289 -1.3756  4.1557 -1.3104
  635MOL0     H85672   5.800   7.979   6.551  1.2780 -1.5088 -0.8037
  635MOL0     H85673   5.835   8.146   6.574 -1.7463  0.1137 -0.5035
  635MOL0     H85674   5.693   8.206   6.372 -1.4194 -0.2791 -0.7237
  635MOL0     H85675   5.620   8.171   6.529 -0.4083 -0.0976  1.2535
  635MOL0     H85676   5.423   8.040   6.520 -2.7168 -0.5680 -0.9345
  635MOL0     H85677   5.290   7.758   6.272  1.5198 -1.6325 -0.6441
  635MOL0     H85678   5.347   7.698   6.442 -1.4005  0.9950  1.1218
  635MOL0     H85679   5.168   7.935   6.379 -1.5934  0.1171  0.7509
  635MOL0     H85680   5.219   7.883   6.544 -0.1547 -0.1681  0.1531
  635MOL0     H85681   5.100   7.680   6.528 -0.7929  3.2349  2.9777
  635MOL0     H85682   5.073   7.682   6.363  1.3325  1.1131 -0.6789
  635MOL0     H85683   4.924   7.894   6.401 -0.7057 -0.6258 -0.0480
  635MOL0     H85684   4.949   7.869   6.578  2.9700 -1.3244 -0.0469
  635MOL0     H85685   4.743   7.965   6.556  0.7456  0.3359 -0.2132
  635MOL0     H85686   4.485   8.135   6.447 -0.2198  0.4110  0.2953
  635MOL0     H85687   4.401   8.070   6.590  0.1050 -2.0682  0.0502
  635MOL0     H85688   4.570   8.113   6.599  1.6642 -2.9010  0.7105
  635MOL0     H85689   4.047   7.865   6.298  4.2222  0.4291  2.0286
  635MOL0     H85690   3.805   7.876   6.314  1.4824  1.2485 -0.4982
  635MOL0     H85691   3.583   7.910   6.440 -0.6859  1.3044 -3.0586
  635MOL0     H85692   3.580   7.810   6.305 -2.5280  1.2536 -0.9851
  635MOL0     H85693   3.403   7.666   6.411  1.4463 -0.3643  0.1116
  635MOL0     H85694   3.367   7.799   6.520 -2.0010 -0.4733 -0.9258
  635MOL0     H85695   3.339   7.846   6.225  5.4079  2.7286 -0.9116
  635MOL0     H85696   3.383   7.966   6.342  0.9754 -0.7702  0.1372
  635MOL0     H85697   3.174   7.903   6.490 -2.3235  1.5036  0.3472
  635MOL0     H85698   3.118   7.956   6.332 -1.9562 -0.3916  1.4238
  635MOL0     H85699   3.145   7.668   6.422  0.0608 -0.6652 -1.2773
  635MOL0     H85700   3.107   7.715   6.260 -1.4664 -3.4938  1.4861
  635MOL0     H85701   2.972   7.794   6.515 -1.1809 -0.9599 -0.1841
  635MOL0     H85702   2.917   7.847   6.352  1.1760 -1.0920 -3.1549
  635MOL0     H85703   2.917   7.544   6.436  1.3749 -0.2528 -0.7177
  635MOL0     H85704   2.856   7.619   6.289 -1.7529  0.8661  0.3338
  635MOL0     H85705   2.699   7.764   6.418  0.1255 -0.3828 -3.0593
  635MOL0     H85706   2.734   7.665   6.562 -1.1801 -0.8841 -0.4374
  635MOL0     H85707   3.820   7.579   6.627  2.1866  0.4708  1.4996
  635MOL0     H85708   4.073   7.606   6.632 -0.4785 -1.7813  0.0643
  635MOL0     H85709   4.421   7.616   6.399 -0.5031  0.4176 -0.1093
  635MOL0     H85710   4.665   7.571   6.420 -2.6537 -0.4546 -0.9277
  635MOL0     H85711   6.642   7.682   6.538 -1.1911  0.7585 -1.3465
  635MOL0     H85712   6.833   7.518   6.515 -0.1180 -2.6089  2.2466
  635MOL0     H85713   7.146   7.263   6.649  0.8896  1.3325  0.1299
  635MOL0     H85714   7.362   7.168   6.561 -0.3939 -2.1381  1.1150
  635MOL0     H85715   7.536   7.168   6.384  0.7710 -0.3092 -2.9860
  635MOL0     H85716   7.537   7.009   6.467  1.6034  0.3601  0.2293
  635MOL0     H85717   7.635   7.044   6.190 -1.9612  0.1191 -0.5887
  635MOL0     H85718   7.625   6.894   6.292  1.3144  0.0441  1.7036
  635MOL0     H85719   7.768   7.043   6.469 -3.4707 -0.6787  0.0715
  635MOL0     H85720   7.797   7.146   6.344  3.3117 -0.1229  1.6507
  635MOL0     H85721   7.971   7.001   6.315  0.2827 -2.6233  2.0930
  635MOL0     H85722   7.854   6.930   6.204 -1.4967  2.7889 -0.5751
  635MOL0     H85723   7.910   6.615   6.444  1.0578  0.2552 -0.4259
  635MOL0     H85724   7.157   7.038   6.205  0.4392 -2.9570  2.7280
  635MOL0     H85725   6.959   7.141   6.274  1.7569 -1.6778 -2.4816
  636MOL0     O85726   6.616   4.630   6.443 -0.4501 -0.4690 -0.0259
  636MOL0     C85727   6.674   4.517   6.442  0.2482  1.0024  0.3501
  636MOL0     O85728   6.609   4.395   6.432  0.2070  0.3811  0.3684
  636MOL0     C85729   6.475   4.392   6.412 -0.5766 -0.5238 -0.2420
  636MOL0     C85730   6.390   4.408   6.519  0.5794  0.7928 -0.0369
  636MOL0     C85731   6.254   4.435   6.492  0.5290  0.0653 -0.2651
  636MOL0     C85732   6.199   4.432   6.361  0.6920 -0.7226  0.5034
  636MOL0     O85733   6.061   4.453   6.345  0.6817 -0.1560  0.1514
  636MOL0     C85734   6.006   4.463   6.206  0.6476  0.3263 -0.6233
  636MOL0     C85735   5.855   4.487   6.201  1.0508  0.1704 -0.5826
  636MOL0     C85736   5.781   4.377   6.275 -0.4116 -0.3515  0.0099
  636MOL0     C85737   5.639   4.421   6.286  0.7586  0.8583  0.7987
  636MOL0     C85738   5.543   4.297   6.311 -0.0863  1.1045 -0.1044
  636MOL0     C85739   5.412   4.336   6.382  0.8814 -0.4601  0.3572
  636MOL0     C85740   5.321   4.426   6.294  0.7678 -0.4510  0.6111
  636MOL0     C85741   5.187   4.460   6.356  0.1795 -0.3353 -0.3469
  636MOL0     N85742   5.091   4.528   6.260 -0.4827 -0.2061 -0.2264
  636MOL0     C85743   4.973   4.570   6.307  0.1798  0.1300 -0.3092
  636MOL0     C85744   4.902   4.596   6.199  0.3742 -0.2960 -1.0304
  636MOL0     C85745   4.768   4.666   6.196  0.0890 -0.1770 -0.2928
  636MOL0     C85746   4.634   4.585   6.206  0.6965  0.2563  0.1758
  636MOL0     C85747   4.614   4.485   6.329 -0.3911 -0.7476 -0.2631
  636MOL0     C85748   4.637   4.561   6.462  0.1317  0.2486  0.7899
  636MOL0     O85749   4.538   4.663   6.493 -0.0288 -0.3404  0.3191
  636MOL0     C85750   4.409   4.625   6.511  0.1019  0.0942 -0.5971
  636MOL0     C85751   4.357   4.499   6.536  0.2932  0.3818 -0.3949
  636MOL0     C85752   4.228   4.471   6.591  0.2639  0.4407  0.3143
  636MOL0     C85753   4.203   4.318   6.619 -0.0258 -0.0262  0.1473
  636MOL0     C85754   4.142   4.575   6.619 -0.7567 -1.2449  0.2553
  636MOL0     C85755   4.011   4.558   6.681 -0.5793 -0.3631  0.5715
  636MOL0     O85756   3.973   4.654   6.766  0.1289 -0.1310  0.3111
  636MOL0     C85757   3.861   4.631   6.845  0.3194 -1.1763 -0.4872
  636MOL0     C85758   3.876   4.649   6.983  0.3430  0.1709 -0.3991
  636MOL0     C85759   3.766   4.622   7.070  0.3159  0.3133 -0.0078
  636MOL0     C85760   3.643   4.572   7.024  0.0902  0.1213  0.8109
  636MOL0     O85761   3.535   4.546   7.099 -0.1760 -0.3542 -0.0067
  636MOL0     C85762   3.556   4.507   7.237  0.1036  0.2884 -0.6007
  636MOL0     C85763   3.535   4.625   7.327  0.5186 -0.1602  0.4417
  636MOL0     C85764   3.493   4.584   7.468 -0.3143  0.4637  0.2088
  636MOL0     C85765   3.450   4.703   7.550 -0.3737 -0.1651 -0.7353
  636MOL0     C85766   3.384   4.643   7.673  0.8592 -0.1250  0.3113
  636MOL0     C85767   3.332   4.753   7.766 -0.1566 -0.0812  0.0878
  636MOL0     C85768   3.253   4.699   7.877 -0.0464  0.3391 -0.4320
  636MOL0     C85769   3.102   4.666   7.859 -0.5610 -0.0902 -0.0300
  636MOL0    Cl85770   3.010   4.817   7.864  0.1320  0.1756  0.2367
  636MOL0     C85771   3.632   4.565   6.885  0.1098 -0.1407  0.6634
  636MOL0     C85772   3.738   4.591   6.799 -0.1680  0.0186  0.5211
  636MOL0     O85773   3.943   4.461   6.660 -0.5687  0.7255  0.5258
  636MOL0     C85774   4.192   4.703   6.591  0.2684 -0.5701 -0.1089
  636MOL0     C85775   4.321   4.724   6.540 -0.3300 -0.0134  0.0098
  636MOL0     N85776   4.986   4.574   6.093 -0.2462 -0.0493  0.1186
  636MOL0     N85777   5.100   4.531   6.120 -0.1953 -0.6843 -0.2048
  636MOL0     C85778   6.287   4.411   6.251  0.3702  0.4698 -0.3984
  636MOL0     C85779   6.425   4.400   6.285  0.9657  0.7201 -0.5445
  636MOL0     C85780   6.822   4.530   6.467  0.3540 -1.1696  0.5278
  636MOL0     C85781   6.897   4.422   6.515  0.3511  0.3814  0.6834
  636MOL0     C85782   7.031   4.423   6.534  0.5511 -0.0441  0.5064
  636MOL0     C85783   7.097   4.546   6.527 -0.6054  0.2097  0.0028
  636MOL0     O85784   7.235   4.570   6.553 -0.1079  0.1493 -0.1871
  636MOL0     C85785   7.316   4.471   6.624 -0.1519 -0.0610  0.5381
  636MOL0     C85786   7.465   4.522   6.627  0.0879 -0.2107  0.0888
  636MOL0     C85787   7.482   4.639   6.728  0.4277  0.1119 -0.2732
  636MOL0     C85788   7.629   4.686   6.731 -0.0956 -0.3437 -0.3312
  636MOL0     C85789   7.633   4.816   6.805 -1.0619  0.3146  0.3354
  636MOL0     C85790   7.640   4.915   6.879  0.4465 -0.0331  0.4912
  636MOL0     C85791   7.028   4.661   6.487  0.4301 -0.1211  0.2556
  636MOL0     C85792   6.889   4.656   6.463 -0.1409  0.1222  0.1967
  636MOL0     H85793   6.437   4.404   6.616 -1.9754  1.0721  1.2955
  636MOL0     H85794   6.174   4.457   6.563 -0.1150  2.1246 -1.5260
  636MOL0     H85795   6.052   4.551   6.163  1.3610  0.6246  0.7164
  636MOL0     H85796   6.036   4.378   6.144  1.6452  1.6531 -2.0003
  636MOL0     H85797   5.848   4.588   6.244 -2.7353  0.3815 -1.4373
  636MOL0     H85798   5.807   4.486   6.103 -4.1012 -1.6583  1.6337
  636MOL0     H85799   5.801   4.282   6.224  0.3020 -1.7372  2.6611
  636MOL0     H85800   5.805   4.367   6.381  1.8287 -1.2849 -0.5210
  636MOL0     H85801   5.633   4.482   6.376  0.9915  2.2418 -0.0908
  636MOL0     H85802   5.613   4.481   6.198 -2.3560  2.7558  2.8146
  636MOL0     H85803   5.504   4.257   6.217 -1.5840  1.1159  0.4828
  636MOL0     H85804   5.597   4.225   6.372  0.3408  1.3144 -0.2271
  636MOL0     H85805   5.344   4.252   6.396 -0.4225 -0.3107 -3.7313
  636MOL0     H85806   5.429   4.382   6.480 -1.5205  0.1925  0.5363
  636MOL0     H85807   5.379   4.516   6.274  2.5036 -0.5287  4.3819
  636MOL0     H85808   5.308   4.385   6.194 -2.1997  0.1365  0.6433
  636MOL0     H85809   5.202   4.531   6.438 -1.7663  3.3825 -2.9257
  636MOL0     H85810   5.137   4.369   6.390  1.8141 -0.9682  0.4581
  636MOL0     H85811   4.937   4.575   6.409 -2.1006  1.6669 -1.0928
  636MOL0     H85812   4.752   4.743   6.272 -5.4173  0.1515 -1.3331
  636MOL0     H85813   4.759   4.724   6.104  0.4796  4.5328  2.3076
  636MOL0     H85814   4.605   4.522   6.122 -1.6323  1.5175 -0.0620
  636MOL0     H85815   4.553   4.658   6.214  0.6253  0.1059  0.8483
  636MOL0     H85816   4.673   4.393   6.329  1.4470  0.3554  1.3715
  636MOL0     H85817   4.512   4.447   6.319 -0.5419 -1.1910  2.2305
  636MOL0     H85818   4.735   4.607   6.450  1.1624 -2.2115 -1.0599
  636MOL0     H85819   4.631   4.504   6.555 -2.0867 -0.1766  0.4401
  636MOL0     H85820   4.414   4.407   6.531 -0.7903 -0.2409 -2.1005
  636MOL0     H85821   4.279   4.288   6.691  0.1155  0.4579  0.2053
  636MOL0     H85822   4.100   4.293   6.646  0.1610  1.7988  2.9095
  636MOL0     H85823   4.214   4.264   6.524  1.3803 -0.9384  0.8055
  636MOL0     H85824   3.966   4.692   7.026  0.7219 -1.0935  0.1039
  636MOL0     H85825   3.781   4.645   7.175 -0.1930  2.9554 -0.4352
  636MOL0     H85826   3.474   4.441   7.267  1.6685 -1.8102 -0.7726
  636MOL0     H85827   3.655   4.472   7.265 -0.4224  0.3091  1.4576
  636MOL0     H85828   3.627   4.684   7.329  1.3457 -1.3163 -1.5657
  636MOL0     H85829   3.457   4.685   7.279 -0.0241 -2.0660 -1.1458
  636MOL0     H85830   3.573   4.527   7.517 -1.9375 -0.5866  1.7324
  636MOL0     H85831   3.410   4.514   7.461  0.2402 -0.0568 -2.4986
  636MOL0     H85832   3.536   4.766   7.577 -1.1295 -0.7150  3.6043
  636MOL0     H85833   3.374   4.759   7.495  1.1108  1.3682 -1.3348
  636MOL0     H85834   3.449   4.576   7.731  2.2910 -0.2017 -1.2934
  636MOL0     H85835   3.300   4.587   7.631  2.3280 -1.1961 -1.3320
  636MOL0     H85836   3.420   4.807   7.804  0.2650 -0.5916 -0.1442
  636MOL0     H85837   3.269   4.824   7.712 -0.3551  1.2351  1.9430
  636MOL0     H85838   3.271   4.769   7.959 -0.2425  1.2544 -1.1681
  636MOL0     H85839   3.294   4.602   7.910 -2.4068 -0.7671 -0.5583
  636MOL0     H85840   3.058   4.598   7.932  0.6013 -1.8402 -0.8869
  636MOL0     H85841   3.084   4.630   7.757 -4.0275 -0.5436  0.6189
  636MOL0     H85842   3.542   4.533   6.834 -0.1842  2.6857 -0.7929
  636MOL0     H85843   3.724   4.603   6.692  1.6223  1.3601  0.3954
  636MOL0     H85844   4.122   4.784   6.609 -0.9703 -1.4033 -0.9778
  636MOL0     H85845   4.358   4.826   6.537  0.1930 -0.1433  1.3915
  636MOL0     H85846   6.240   4.407   6.153 -0.8088 -2.3393  0.1680
  636MOL0     H85847   6.500   4.388   6.207  1.5069  1.1436 -0.1003
  636MOL0     H85848   6.840   4.329   6.523  0.4070  0.4074  1.5123
  636MOL0     H85849   7.084   4.338   6.576  0.1745  0.9380  3.1361
  636MOL0     H85850   7.283   4.445   6.724  1.1245 -3.2569  0.2651
  636MOL0     H85851   7.309   4.378   6.566 -2.9677 -0.6016  1.6142
  636MOL0     H85852   7.489   4.563   6.528  0.6204  1.5735  0.9260
  636MOL0     H85853   7.530   4.438   6.654 -0.4253 -1.0452 -1.1462
  636MOL0     H85854   7.456   4.618   6.832 -2.8568  2.0625 -0.5542
  636MOL0     H85855   7.411   4.719   6.705 -3.7830 -3.3728 -0.6443
  636MOL0     H85856   7.671   4.708   6.632  2.1195  1.2344  0.8528
  636MOL0     H85857   7.687   4.606   6.779 -0.3016 -1.9955 -2.6657
  636MOL0     H85858   7.638   4.989   6.956 -0.8633 -0.0465  0.4841
  636MOL0     H85859   7.077   4.758   6.491 -0.4211  0.2970  0.8387
  636MOL0     H85860   6.840   4.748   6.433  1.9977  2.3404  2.9195
  637MOL0     O85861   5.168   4.887   1.922 -1.1196  0.3958  0.3661
  637MOL0     C85862   5.240   4.947   2.002 -0.2468 -0.1883  0.6960
  637MOL0     O85863   5.208   5.046   2.090  0.1680 -0.5790  0.4497
  637MOL0     C85864   5.074   5.082   2.112 -0.4817 -0.0637 -0.2152
  637MOL0     C85865   4.976   5.071   2.009 -0.5316  0.2834  0.0867
  637MOL0     C85866   4.837   5.097   2.046  0.2940 -0.1485  1.0297
  637MOL0     C85867   4.805   5.134   2.173 -0.2061 -0.3052 -0.5130
  637MOL0     O85868   4.682   5.183   2.213 -0.2312  0.0094 -0.8819
  637MOL0     C85869   4.575   5.101   2.170 -0.1106 -0.6539 -0.1451
  637MOL0     C85870   4.466   5.136   2.281 -0.4414  0.3851  0.5157
  637MOL0     C85871   4.344   5.036   2.257 -0.4432 -0.3881 -0.2138
  637MOL0     C85872   4.238   5.060   2.374 -0.6308 -0.7800  0.2414
  637MOL0     C85873   4.106   4.995   2.335  0.0132 -0.7143  0.6750
  637MOL0     C85874   4.016   4.992   2.453  0.2083 -0.7139 -0.2326
  637MOL0     C85875   3.874   4.943   2.416  0.3082 -0.2252 -0.5461
  637MOL0     C85876   3.847   4.795   2.453 -0.6734  0.2459  0.0724
  637MOL0     N85877   3.710   4.756   2.421 -0.5466 -0.4580 -0.7826
  637MOL0     C85878   3.638   4.670   2.501  0.1057 -0.0029  0.3235
  637MOL0     C85879   3.518   4.664   2.435 -0.5299  0.7826 -0.3081
  637MOL0     C85880   3.383   4.599   2.468  0.3976  0.5217  0.1550
  637MOL0     C85881   3.366   4.596   2.619  0.4670  0.6112  0.0858
  637MOL0     C85882   3.219   4.586   2.678  0.4354 -0.6110  0.5660
  637MOL0     C85883   3.219   4.551   2.821  0.0166 -0.2939 -0.1293
  637MOL0     O85884   3.094   4.587   2.883 -0.5636  0.2844  0.0342
  637MOL0     C85885   2.977   4.516   2.857 -0.3032 -0.1235 -0.0044
  637MOL0     C85886   2.970   4.391   2.785  0.6832  0.3559 -1.2640
  637MOL0     C85887   2.846   4.336   2.759  0.4177  1.0481  0.6909
  637MOL0     C85888   2.840   4.202   2.680  0.6736 -0.7143 -0.1577
  637MOL0     C85889   2.726   4.408   2.790  0.3262 -0.3214  0.2167
  637MOL0     C85890   2.581   4.373   2.751  0.3691  0.3249  0.0234
  637MOL0     O85891   2.478   4.423   2.817  0.1163  1.2364  0.9605
  637MOL0     C85892   2.351   4.361   2.808  0.0841  0.7304 -0.0347
  637MOL0     C85893   2.264   4.395   2.913 -0.4255 -0.3889  0.5117
  637MOL0     C85894   2.127   4.366   2.914  0.8802 -0.1330 -0.3171
  637MOL0     C85895   2.066   4.305   2.800 -0.7151 -1.5398  0.1227
  637MOL0     O85896   1.927   4.282   2.812 -0.3997 -0.0569  0.7463
  637MOL0     C85897   1.850   4.250   2.697  0.2743  0.9000  0.7296
  637MOL0     C85898   1.697   4.277   2.705 -0.1767 -0.0282  0.1551
  637MOL0     C85899   1.656   4.416   2.735  0.3848 -0.8781 -0.9809
  637MOL0     C85900   1.706   4.523   2.632  0.7605 -0.0473  0.1728
  637MOL0     C85901   1.653   4.664   2.653 -0.0998 -0.3930  0.1976
  637MOL0     C85902   1.511   4.692   2.599  0.1641 -0.4370 -0.7258
  637MOL0     C85903   1.439   4.807   2.674  0.5809  0.6252 -0.5462
  637MOL0     C85904   1.335   4.869   2.597 -0.6919  0.7700  0.5423
  637MOL0    Cl85905   1.207   4.753   2.562 -0.3086  0.1981  0.1040
  637MOL0     C85906   2.152   4.275   2.696 -0.6698 -0.0621 -0.2260
  637MOL0     C85907   2.289   4.296   2.703  0.0995  0.5785 -0.3938
  637MOL0     O85908   2.570   4.312   2.649 -0.1284 -0.1845 -0.2120
  637MOL0     C85909   2.738   4.528   2.860 -0.0128 -0.3250  0.0159
  637MOL0     C85910   2.860   4.583   2.891  0.1966 -0.0658  0.2515
  637MOL0     N85911   3.534   4.733   2.315  1.1220  0.2828  0.1599
  637MOL0     N85912   3.652   4.777   2.310  0.4863  0.2406  0.7309
  637MOL0     C85913   4.902   5.139   2.276  0.8895 -0.3861  0.2330
  637MOL0     C85914   5.034   5.124   2.243  0.2775  1.1617 -0.0440
  637MOL0     C85915   5.384   4.917   2.009  0.4955  0.5270  0.1446
  637MOL0     C85916   5.452   4.907   2.134 -0.3170 -0.2668 -0.2542
  637MOL0     C85917   5.588   4.880   2.139  0.6048  0.0170 -0.5893
  637MOL0     C85918   5.654   4.845   2.020 -0.0302 -0.0423 -0.4093
  637MOL0     O85919   5.778   4.784   2.034 -0.3043 -0.2655 -0.1670
  637MOL0     C85920   5.881   4.876   2.013  0.7062 -1.0620  0.0788
  637MOL0     C85921   6.006   4.841   2.090  0.3315  0.3092 -0.2704
  637MOL0     C85922   5.987   4.864   2.238 -0.6138 -0.8989  0.5850
  637MOL0     C85923   6.097   4.797   2.318 -0.3569 -0.0252 -0.1686
  637MOL0     C85924   6.085   4.652   2.347 -0.3141  0.3454  0.2637
  637MOL0     C85925   6.060   4.539   2.378 -0.2068 -0.9653  0.1216
  637MOL0     C85926   5.592   4.850   1.897  0.6133 -0.1546 -0.0527
  637MOL0     C85927   5.459   4.880   1.897  0.5941  0.1441  0.2145
  637MOL0     H85928   5.003   5.055   1.906 -0.0633  0.1669  0.2284
  637MOL0     H85929   4.775   5.098   1.956  2.0076  0.6278 -0.2052
  637MOL0     H85930   4.548   5.131   2.068  4.1058  0.9673 -1.0093
  637MOL0     H85931   4.589   4.993   2.183  0.5765 -0.5461  0.1004
  637MOL0     H85932   4.503   5.106   2.379  1.1602  1.6795  0.3494
  637MOL0     H85933   4.441   5.243   2.282 -0.0655  0.4925 -0.3516
  637MOL0     H85934   4.297   5.059   2.162  2.1056  0.8553 -1.2647
  637MOL0     H85935   4.369   4.929   2.249  0.0093 -0.2811 -0.2637
  637MOL0     H85936   4.270   5.024   2.472 -1.5499  3.0338  2.1351
  637MOL0     H85937   4.225   5.168   2.391 -3.9311 -1.1006  0.4112
  637MOL0     H85938   4.045   5.044   2.259 -0.7740 -0.5018  1.4237
  637MOL0     H85939   4.136   4.898   2.295 -1.1645 -0.1729 -1.7110
  637MOL0     H85940   4.054   4.934   2.538  1.4139  2.7530  1.7893
  637MOL0     H85941   4.003   5.093   2.491  2.4064 -0.3491 -0.2923
  637MOL0     H85942   3.803   5.009   2.467  0.6119 -0.1648 -0.1974
  637MOL0     H85943   3.865   4.962   2.308 -1.0893  0.1658 -0.3842
  637MOL0     H85944   3.849   4.784   2.562 -2.4913  2.1430  0.3586
  637MOL0     H85945   3.925   4.731   2.411 -1.3144 -2.2006  2.3540
  637MOL0     H85946   3.665   4.627   2.597 -1.9178 -0.9164  0.5408
  637MOL0     H85947   3.305   4.646   2.407  2.2462  1.2655 -1.7741
  637MOL0     H85948   3.375   4.499   2.425 -2.2207  1.7256 -2.5176
  637MOL0     H85949   3.418   4.684   2.660  2.6621  0.1153 -1.4119
  637MOL0     H85950   3.414   4.503   2.652 -4.8080 -2.4378  0.2196
  637MOL0     H85951   3.172   4.512   2.612 -1.3741 -2.5640  3.7700
  637MOL0     H85952   3.184   4.687   2.655  2.5743 -0.5383 -3.1455
  637MOL0     H85953   3.306   4.601   2.866 -1.4009  0.8439  1.4751
  637MOL0     H85954   3.228   4.443   2.834 -1.6148 -0.2443  1.9974
  637MOL0     H85955   3.060   4.346   2.745  1.2029 -0.9365  1.1843
  637MOL0     H85956   2.814   4.229   2.577 -0.9594  2.6684  0.9854
  637MOL0     H85957   2.928   4.137   2.688  0.3961 -1.0712  0.0553
  637MOL0     H85958   2.756   4.147   2.724  0.0342  1.7278  1.8908
  637MOL0     H85959   2.307   4.461   2.989  1.0831 -0.2261 -0.4451
  637MOL0     H85960   2.060   4.388   2.997 -1.3290 -1.2095 -1.6943
  637MOL0     H85961   1.897   4.296   2.610  1.9593 -1.0824  0.5184
  637MOL0     H85962   1.857   4.142   2.684  1.3418  0.8685  1.4839
  637MOL0     H85963   1.645   4.241   2.615 -0.7576 -1.5183  1.0448
  637MOL0     H85964   1.665   4.211   2.787  0.6595 -1.1527 -0.3864
  637MOL0     H85965   1.691   4.445   2.835  1.0893  0.8540 -1.6866
  637MOL0     H85966   1.547   4.415   2.740  0.4441 -1.1246  0.9210
  637MOL0     H85967   1.813   4.529   2.650  0.6527  0.0772  0.7940
  637MOL0     H85968   1.702   4.485   2.529 -0.1046 -1.8684  0.8201
  637MOL0     H85969   1.715   4.743   2.609 -1.9125  0.5494 -0.7735
  637MOL0     H85970   1.631   4.679   2.759 -0.9537  1.0152 -0.1577
  637MOL0     H85971   1.522   4.706   2.491 -1.7700 -3.8567 -1.4889
  637MOL0     H85972   1.459   4.600   2.626  1.2584 -0.9430 -0.2955
  637MOL0     H85973   1.515   4.883   2.699 -1.0602  2.4194 -0.8044
  637MOL0     H85974   1.392   4.774   2.767  0.5974 -0.6544 -0.9715
  637MOL0     H85975   1.371   4.909   2.502  0.8245 -2.3807 -0.3455
  637MOL0     H85976   1.292   4.950   2.657  1.3129  0.8038  2.0298
  637MOL0     H85977   2.117   4.231   2.603  0.2330  3.0404 -2.2075
  637MOL0     H85978   2.347   4.261   2.618 -0.1859  0.1130 -0.4027
  637MOL0     H85979   2.652   4.582   2.899 -0.1567 -2.6970  3.5527
  637MOL0     H85980   2.870   4.682   2.934 -1.7530  0.7057 -0.9355
  637MOL0     H85981   4.864   5.164   2.375  1.2854 -0.0686  0.3040
  637MOL0     H85982   5.107   5.124   2.323 -1.8715  2.3360  2.0242
  637MOL0     H85983   5.399   4.934   2.224 -0.7505 -0.9325 -0.3023
  637MOL0     H85984   5.623   4.874   2.241 -1.6471 -2.5184  0.1557
  637MOL0     H85985   5.909   4.870   1.907  0.1183  2.6901 -0.3997
  637MOL0     H85986   5.852   4.978   2.040  0.9126 -1.1483  0.6333
  637MOL0     H85987   6.083   4.912   2.057 -1.0645  2.1050  0.2077
  637MOL0     H85988   6.040   4.739   2.068 -0.0344 -0.1134  1.0370
  637MOL0     H85989   5.891   4.833   2.281  0.0021  0.0207  2.8058
  637MOL0     H85990   6.008   4.971   2.249 -0.1225 -0.6070 -2.4513
  637MOL0     H85991   6.104   4.853   2.412  5.1450  1.5104 -1.1198
  637MOL0     H85992   6.188   4.815   2.260 -1.2706 -0.8228 -1.9216
  637MOL0     H85993   6.067   4.437   2.409 -2.3064 -0.6846  1.7411
  637MOL0     H85994   5.640   4.833   1.801  0.3904  2.1355 -0.6340
  637MOL0     H85995   5.392   4.868   1.812 -1.7483  0.2627  1.9517
  638MOL0     O85996   0.359   4.542   6.959  0.5103  0.7552  0.1969
  638MOL0     C85997   0.477   4.513   6.947  0.7972  1.1683 -0.1989
  638MOL0     O85998   0.528   4.384   6.936  0.5275  0.0546  0.3764
  638MOL0     C85999   0.440   4.286   6.913  1.3961 -0.7530 -0.0218
  638MOL0     C86000   0.358   4.282   6.808  0.1515  0.2033  0.7377
  638MOL0     C86001   0.265   4.177   6.792  0.1594 -0.0553 -0.8787
  638MOL0     C86002   0.271   4.068   6.879  0.8958  0.8150 -0.8944
  638MOL0     O86003   0.200   3.946   6.860 -0.4930 -0.3013 -0.1989
  638MOL0     C86004   0.077   3.939   6.787 -0.3010 -0.2460  0.9918
  638MOL0     C86005   0.001   3.824   6.854  0.8994  0.5523 -0.4248
  638MOL0     C86006  -0.066   3.871   6.976  0.2545  0.7491 -0.4824
  638MOL0     C86007  -0.159   3.769   7.037  0.0105 -0.0981  0.3948
  638MOL0     C86008  -0.104   3.638   7.074 -0.4706 -0.1709 -0.8109
  638MOL0     C86009   0.018   3.638   7.174 -0.0364 -0.0205  0.8251
  638MOL0     C86010  -0.010   3.723   7.296 -0.6055 -0.1417 -0.2751
  638MOL0     C86011   0.099   3.681   7.394  0.4969 -1.0225  0.8983
  638MOL0     N86012   0.083   3.553   7.461  0.7594  0.7560  0.6040
  638MOL0     C86013   0.011   3.526   7.573  0.5666 -0.0959  0.8710
  638MOL0     C86014   0.037   3.397   7.599 -1.3331  0.2661 -0.4652
  638MOL0     C86015  -0.006   3.311   7.714 -0.2480 -0.0915  0.2652
  638MOL0     C86016  -0.045   3.173   7.683 -0.6076 -0.2088  0.2425
  638MOL0     C86017  -0.166   3.162   7.589 -1.1999  0.2923  0.9775
  638MOL0     C86018  -0.184   3.023   7.531 -0.0234  0.3129  0.1088
  638MOL0     O86019  -0.213   2.931   7.635  0.0528 -0.5287  0.1223
  638MOL0     C86020  -0.262   2.798   7.615  0.4779  0.0523  0.0925
  638MOL0     C86021  -0.280   2.720   7.727 -0.1356 -0.6123 -0.1402
  638MOL0     C86022  -0.324   2.585   7.721 -1.0773 -0.8401  1.0020
  638MOL0     C86023  -0.357   2.515   7.852  0.0019 -0.4518  0.1348
  638MOL0     C86024  -0.344   2.524   7.589 -0.2759 -0.2016 -0.1932
  638MOL0     C86025  -0.392   2.382   7.568  0.6182 -0.5009 -0.2570
  638MOL0     O86026  -0.447   2.354   7.446  0.1851  0.5889  0.4080
  638MOL0     C86027  -0.457   2.224   7.402 -0.8468  1.1910 -0.4028
  638MOL0     C86028  -0.583   2.175   7.381 -0.4890 -0.2467  0.6356
  638MOL0     C86029  -0.603   2.046   7.334 -0.0571  1.1121  0.4831
  638MOL0     C86030  -0.489   1.964   7.306  0.3658  0.0181 -0.1184
  638MOL0     O86031  -0.514   1.837   7.254  0.1347  0.2068 -0.8249
  638MOL0     C86032  -0.404   1.746   7.234  0.5939 -0.0285 -1.2873
  638MOL0     C86033  -0.451   1.612   7.192 -0.4948  0.2017 -0.1163
  638MOL0     C86034  -0.332   1.515   7.172  0.8142  0.1052  0.2988
  638MOL0     C86035  -0.270   1.558   7.033 -0.1481 -0.0392 -0.1844
  638MOL0     C86036  -0.163   1.458   6.996 -0.3270  0.7222  0.1171
  638MOL0     C86037  -0.081   1.504   6.874 -0.3312  1.2172  0.2882
  638MOL0     C86038   0.032   1.410   6.874 -0.5722 -0.7397  0.6396
  638MOL0     C86039   0.106   1.404   6.743 -0.6454 -0.6415  0.6655
  638MOL0    Cl86040   0.221   1.267   6.721  0.1348  0.4733  0.2159
  638MOL0     C86041  -0.361   2.021   7.330  0.3387  0.4657  0.3382
  638MOL0     C86042  -0.345   2.148   7.382 -0.3316 -1.3167 -0.5449
  638MOL0     O86043  -0.349   2.295   7.646  0.5233 -0.0484  0.4711
  638MOL0     C86044  -0.321   2.615   7.478  1.2880 -0.0151  0.1668
  638MOL0     C86045  -0.289   2.750   7.489 -0.0414  0.1011  0.4118
  638MOL0     N86046   0.127   3.344   7.510 -0.7161 -0.8670 -0.5482
  638MOL0     N86047   0.162   3.444   7.430  0.1019 -1.2586  0.2766
  638MOL0     C86048   0.350   4.075   6.989  0.0334 -0.3099  0.1978
  638MOL0     C86049   0.423   4.190   7.012 -1.0031 -0.7578  0.3959
  638MOL0     C86050   0.577   4.617   6.958  0.4427  0.5627  0.1626
  638MOL0     C86051   0.548   4.745   6.926  1.1076 -0.5314 -0.5600
  638MOL0     C86052   0.637   4.850   6.935 -0.3507 -0.6296  0.4815
  638MOL0     C86053   0.764   4.828   6.991 -0.0221  1.2059  0.8944
  638MOL0     O86054   0.855   4.929   7.013 -0.4951 -0.1008  0.0332
  638MOL0     C86055   0.837   5.064   6.968 -0.2157  0.7459  0.3291
  638MOL0     C86056   0.945   5.155   7.023  0.6458  0.9479 -0.0097
  638MOL0     C86057   0.920   5.303   6.984  0.1503  0.5494  0.0918
  638MOL0     C86058   1.035   5.408   7.014  0.0596 -0.0073  0.2000
  638MOL0     C86059   1.152   5.383   6.930  0.2630 -0.4385 -0.2646
  638MOL0     C86060   1.247   5.358   6.857 -0.0345  0.0352  0.0976
  638MOL0     C86061   0.794   4.700   7.028  0.2081 -0.2692 -0.3032
  638MOL0     C86062   0.706   4.596   7.008  0.0821  1.3883 -0.4626
  638MOL0     H86063   0.345   4.358   6.733 -2.6510 -0.4655  0.4177
  638MOL0     H86064   0.198   4.176   6.706 -0.7342 -0.8343 -0.1878
  638MOL0     H86065   0.016   4.029   6.778  1.2831  0.7685 -0.1613
  638MOL0     H86066   0.089   3.921   6.680 -0.0942  0.6129  0.8631
  638MOL0     H86067  -0.071   3.771   6.791 -0.0255 -0.7937  1.6599
  638MOL0     H86068   0.064   3.741   6.888 -1.2555 -2.1810 -2.5909
  638MOL0     H86069   0.007   3.898   7.053 -0.6750  2.7934 -0.2520
  638MOL0     H86070  -0.125   3.962   6.962 -0.3736  1.2064  3.7113
  638MOL0     H86071  -0.203   3.820   7.123  1.3993  2.3116 -0.2567
  638MOL0     H86072  -0.243   3.757   6.967  0.6497 -0.0905 -0.3891
  638MOL0     H86073  -0.184   3.576   7.114 -0.2276  0.7554  1.2146
  638MOL0     H86074  -0.075   3.576   6.988  0.1523  0.2740 -0.9263
  638MOL0     H86075   0.032   3.535   7.206  1.4461  0.5999  2.2832
  638MOL0     H86076   0.103   3.680   7.118 -0.9237 -0.6051 -1.0430
  638MOL0     H86077  -0.007   3.830   7.272 -1.2315  0.2224  1.2072
  638MOL0     H86078  -0.112   3.703   7.331  0.4881  0.8154  4.0652
  638MOL0     H86079   0.103   3.765   7.464  2.2859 -1.3873  1.2840
  638MOL0     H86080   0.199   3.679   7.349  0.6433 -1.1650  1.2301
  638MOL0     H86081  -0.058   3.590   7.627 -0.7793  1.5155 -2.5146
  638MOL0     H86082   0.066   3.311   7.797 -1.7521 -0.6807  1.6302
  638MOL0     H86083  -0.090   3.361   7.763  0.4199  2.1514 -0.7080
  638MOL0     H86084  -0.068   3.115   7.772  0.4522 -1.3576 -0.2039
  638MOL0     H86085   0.041   3.129   7.632 -0.8293  0.2164 -0.5203
  638MOL0     H86086  -0.154   3.228   7.503  1.2184 -0.4853  0.6180
  638MOL0     H86087  -0.260   3.196   7.632 -1.4839 -0.6368  1.1095
  638MOL0     H86088  -0.105   2.990   7.463 -1.9889 -1.5741 -1.4311
  638MOL0     H86089  -0.277   3.037   7.475  0.4914 -0.0114 -0.8531
  638MOL0     H86090  -0.254   2.763   7.823  0.7778 -0.8232 -0.2827
  638MOL0     H86091  -0.281   2.439   7.875  1.2022  1.2943  2.3266
  638MOL0     H86092  -0.360   2.587   7.935 -1.1390 -0.0061 -0.2833
  638MOL0     H86093  -0.451   2.461   7.843  0.3191 -1.1803  1.0216
  638MOL0     H86094  -0.657   2.252   7.402  0.3127  2.5132 -4.8305
  638MOL0     H86095  -0.705   2.010   7.324 -0.1633  1.3159  0.8262
  638MOL0     H86096  -0.346   1.792   7.155  1.0612  2.7609  0.5383
  638MOL0     H86097  -0.341   1.733   7.322  1.6046  2.8160 -1.5053
  638MOL0     H86098  -0.521   1.574   7.268 -2.3108 -2.8788 -3.0272
  638MOL0     H86099  -0.505   1.624   7.098 -0.1615  1.0164 -0.2130
  638MOL0     H86100  -0.359   1.410   7.172  5.0432 -1.1937  0.1354
  638MOL0     H86101  -0.267   1.532   7.259 -0.7923  1.0013  1.3616
  638MOL0     H86102  -0.352   1.543   6.963  0.0801 -3.9636  0.1609
  638MOL0     H86103  -0.230   1.660   7.030  0.1975 -0.1456  0.4518
  638MOL0     H86104  -0.219   1.364   6.992  3.2850 -1.6404  0.9283
  638MOL0     H86105  -0.099   1.449   7.084 -1.9105 -0.6042  1.2007
  638MOL0     H86106  -0.134   1.488   6.780 -0.8466  1.0206  0.6085
  638MOL0     H86107  -0.050   1.609   6.871  0.3173  1.0553 -3.5100
  638MOL0     H86108   0.000   1.310   6.904 -2.1964  0.1804  2.1357
  638MOL0     H86109   0.105   1.446   6.948  0.5084 -2.3766  0.4290
  638MOL0     H86110   0.152   1.498   6.713 -1.9696 -0.2429 -0.1800
  638MOL0     H86111   0.020   1.372   6.682  0.0908  1.1145 -1.4309
  638MOL0     H86112  -0.279   1.952   7.311 -0.9532 -0.1868 -3.8771
  638MOL0     H86113  -0.247   2.181   7.415 -0.6201  0.2315 -1.1385
  638MOL0     H86114  -0.346   2.582   7.377  0.4107  1.3675 -0.1003
  638MOL0     H86115  -0.271   2.812   7.401  0.8968  0.4813  0.8634
  638MOL0     H86116   0.344   3.985   7.050 -0.6831  0.7632  1.7764
  638MOL0     H86117   0.497   4.203   7.091  0.0027  0.6138 -0.7293
  638MOL0     H86118   0.449   4.756   6.882  1.5095  0.5606 -1.2465
  638MOL0     H86119   0.615   4.950   6.900 -1.5980 -1.4461 -1.1648
  638MOL0     H86120   0.844   5.069   6.859  0.5091  0.7282  0.3650
  638MOL0     H86121   0.739   5.097   7.003 -0.4094 -0.3381  0.8639
  638MOL0     H86122   1.048   5.130   6.995  0.7716 -0.4698  1.5605
  638MOL0     H86123   0.941   5.150   7.132 -0.6176  2.5767  0.0556
  638MOL0     H86124   0.827   5.333   7.033  0.4876 -1.2529  1.9668
  638MOL0     H86125   0.891   5.311   6.879 -0.2113  3.0305  0.3138
  638MOL0     H86126   1.054   5.418   7.122 -1.1843 -0.4836  0.4781
  638MOL0     H86127   1.000   5.510   6.994  1.6363  0.8277  1.4413
  638MOL0     H86128   1.328   5.307   6.809  1.5979  0.3604  2.3323
  638MOL0     H86129   0.896   4.677   7.059 -0.9338 -1.9749  2.6685
  638MOL0     H86130   0.735   4.494   7.032 -0.4267  1.3265 -0.0987
  639MOL0     O86131   5.411   9.915   8.973  0.3210 -0.1729  0.5309
  639MOL0     C86132   5.469   9.801   8.965 -0.2734  0.3458  0.1140
  639MOL0     O86133   5.407   9.683   8.993 -0.2662 -0.7237  0.1786
  639MOL0     C86134   5.269   9.688   8.994 -0.9120 -1.5332  0.3148
  639MOL0     C86135   5.204   9.699   9.119 -0.0938  0.6341 -0.4704
  639MOL0     C86136   5.055   9.696   9.123  0.5967 -0.0384 -0.0585
  639MOL0     C86137   4.978   9.709   9.008  0.1676 -0.3431  0.3157
  639MOL0     O86138   4.843   9.721   9.003  0.6562 -0.1081 -0.3735
  639MOL0     C86139   4.775   9.713   9.130  0.1658  0.4987  0.2356
  639MOL0     C86140   4.630   9.741   9.121  0.9583  0.6859  0.7519
  639MOL0     C86141   4.535   9.625   9.070 -0.7772  0.3609 -0.1029
  639MOL0     C86142   4.396   9.688   9.067  0.0624 -0.0441  0.2676
  639MOL0     C86143   4.297   9.605   8.995 -0.2257  0.6939  0.5241
  639MOL0     C86144   4.155   9.650   9.006  0.7186  0.4997  0.4815
  639MOL0     C86145   4.099   9.646   9.149 -0.4565 -0.0879  0.0501
  639MOL0     C86146   4.096   9.506   9.225  0.3779 -0.7976  0.1512
  639MOL0     N86147   3.985   9.495   9.314 -0.1559 -0.6234  1.0235
  639MOL0     C86148   3.960   9.582   9.421 -0.7024 -0.0566  0.1105
  639MOL0     C86149   3.866   9.514   9.489 -0.3367 -0.2096  0.5157
  639MOL0     C86150   3.773   9.579   9.589  0.0708  0.8037 -0.7264
  639MOL0     C86151   3.652   9.492   9.613  0.5340 -0.9228  0.9058
  639MOL0     C86152   3.595   9.520   9.753 -0.6591  0.3579  0.9171
  639MOL0     C86153   3.496   9.398   9.793  0.6651 -0.3232 -0.1988
  639MOL0     O86154   3.395   9.413   9.698 -0.3438  0.8850  0.0247
  639MOL0     C86155   3.293   9.323   9.692  0.1084  0.3840 -0.2706
  639MOL0     C86156   3.295   9.200   9.766  0.1534 -0.8472 -0.2086
  639MOL0     C86157   3.185   9.114   9.770  0.4226 -0.4702 -1.0184
  639MOL0     C86158   3.203   8.989   9.853 -0.2114 -0.5183 -0.7315
  639MOL0     C86159   3.058   9.156   9.708  0.5913 -0.2819 -0.5948
  639MOL0     C86160   2.931   9.087   9.716  0.3944 -0.2753  0.3923
  639MOL0     O86161   2.823   9.145   9.657  0.1572  0.7250  0.5625
  639MOL0     C86162   2.688   9.102   9.671 -0.6528 -0.0882  0.7221
  639MOL0     C86163   2.583   9.198   9.665  0.7510  0.1061 -0.0197
  639MOL0     C86164   2.449   9.170   9.668  0.0593  0.0987 -0.0047
  639MOL0     C86165   2.411   9.035   9.684 -1.0205  0.4812 -0.3274
  639MOL0     O86166   2.278   8.998   9.677 -0.0537  0.5088  0.7395
  639MOL0     C86167   2.216   8.899   9.765 -0.4539  0.1379  0.3249
  639MOL0     C86168   2.103   8.962   9.850 -0.5276  0.1078 -0.8159
  639MOL0     C86169   1.996   9.032   9.764  0.0799 -0.2551  0.2498
  639MOL0     C86170   1.876   9.082   9.836  0.0969 -0.2229  0.1067
  639MOL0     C86171   1.846   9.016   9.971  0.7197  0.2785 -0.1764
  639MOL0     C86172   1.721   9.065  10.034 -0.1977 -0.1813  0.2612
  639MOL0     C86173   1.610   8.964  10.014 -0.3766 -0.0118 -0.1501
  639MOL0     C86174   1.472   9.037  10.007 -0.3854  0.2205 -0.2039
  639MOL0    Cl86175   1.344   8.916   9.994  0.0110  0.0356  0.3318
  639MOL0     C86176   2.514   8.940   9.699 -0.6426  0.0224 -0.3936
  639MOL0     C86177   2.653   8.971   9.694 -0.3940  0.1425  0.2567
  639MOL0     O86178   2.931   8.982   9.781  0.3535 -0.1183 -0.0404
  639MOL0     C86179   3.064   9.278   9.636  0.1276 -0.2397 -0.5755
  639MOL0     C86180   3.175   9.360   9.626 -0.2727  0.2645 -0.4082
  639MOL0     N86181   3.828   9.400   9.424  0.0314  0.7616  0.1662
  639MOL0     N86182   3.896   9.391   9.323  0.2812  0.0860 -0.0292
  639MOL0     C86183   5.049   9.702   8.885  0.2334 -0.2620  0.5830
  639MOL0     C86184   5.190   9.690   8.881  0.6229  0.7305 -0.3487
  639MOL0     C86185   5.613   9.784   8.915 -0.3635 -0.4431  0.6263
  639MOL0     C86186   5.665   9.901   8.866 -0.4537 -0.8308  0.3488
  639MOL0     C86187   5.803   9.910   8.831 -0.0507  0.5078 -0.0974
  639MOL0     C86188   5.883   9.794   8.836  0.7777 -0.4742  1.2739
  639MOL0     O86189   6.008   9.800   8.787 -0.5154  0.4041 -0.3032
  639MOL0     C86190   6.091   9.685   8.803  0.4054  0.0974 -0.0895
  639MOL0     C86191   6.070   9.591   8.684 -0.6321  0.3034 -0.2651
  639MOL0     C86192   6.114   9.445   8.722 -0.3044 -0.3409 -0.2608
  639MOL0     C86193   6.083   9.341   8.613  0.2517 -0.1110 -0.0689
  639MOL0     C86194   6.163   9.379   8.492 -0.3709  0.5611 -0.8719
  639MOL0     C86195   6.225   9.418   8.388  0.2385 -0.1290  0.0935
  639MOL0     C86196   5.825   9.673   8.877 -0.0700  0.1998 -0.3079
  639MOL0     C86197   5.687   9.670   8.920  0.2258 -0.1500 -0.2170
  639MOL0     H86198   5.266   9.701   9.209 -0.5603  0.7923 -0.1513
  639MOL0     H86199   5.006   9.696   9.220 -0.2296 -0.0773 -0.4673
  639MOL0     H86200   4.793   9.618   9.180  3.3272  1.5236  1.2324
  639MOL0     H86201   4.818   9.777   9.208 -0.9234 -2.1786  3.2391
  639MOL0     H86202   4.593   9.770   9.220  0.0935 -0.1164  0.6778
  639MOL0     H86203   4.610   9.829   9.059 -1.3639 -0.5963 -0.4376
  639MOL0     H86204   4.565   9.565   8.984  0.9814 -0.6800  1.1628
  639MOL0     H86205   4.531   9.548   9.147 -0.1162 -1.5276 -1.8655
  639MOL0     H86206   4.352   9.712   9.165 -0.6299 -0.2731  0.0128
  639MOL0     H86207   4.389   9.787   9.021  1.8756  0.7676  1.5994
  639MOL0     H86208   4.327   9.594   8.890 -2.8798 -0.3680 -0.1890
  639MOL0     H86209   4.305   9.506   9.039 -1.8278  2.0059  4.0907
  639MOL0     H86210   4.155   9.756   8.980  1.4968  0.9191  2.0536
  639MOL0     H86211   4.090   9.590   8.942 -0.9381 -0.3803  2.8453
  639MOL0     H86212   4.162   9.711   9.210  1.9182 -1.8692 -0.3539
  639MOL0     H86213   4.000   9.692   9.140  0.8238  3.2836  1.7376
  639MOL0     H86214   4.186   9.471   9.276  0.2571 -0.5353  0.5493
  639MOL0     H86215   4.093   9.438   9.139  0.7271 -0.9974  0.2987
  639MOL0     H86216   4.016   9.666   9.460 -0.0077 -0.0047 -0.9604
  639MOL0     H86217   3.834   9.599   9.678  0.0970 -0.8357 -0.3402
  639MOL0     H86218   3.737   9.673   9.548 -2.5536 -0.2125 -0.9045
  639MOL0     H86219   3.660   9.383   9.604 -0.9920 -0.9671 -0.3158
  639MOL0     H86220   3.581   9.506   9.531  3.0200 -0.1296 -1.2762
  639MOL0     H86221   3.540   9.614   9.758 -0.3086  0.5465  1.3059
  639MOL0     H86222   3.672   9.527   9.831 -1.8574  1.0014  2.0870
  639MOL0     H86223   3.465   9.404   9.898  1.4780 -0.2109  0.0438
  639MOL0     H86224   3.555   9.306   9.785  0.7543 -0.3311  0.4458
  639MOL0     H86225   3.387   9.163   9.809  0.4464 -2.5186 -2.1218
  639MOL0     H86226   3.310   8.969   9.865 -0.0539 -1.6424 -3.3907
  639MOL0     H86227   3.159   9.019   9.949 -0.2090 -0.2449 -0.8143
  639MOL0     H86228   3.150   8.898   9.827  0.1310 -0.8096 -0.4259
  639MOL0     H86229   2.598   9.305   9.654  0.0901  0.1352 -0.7885
  639MOL0     H86230   2.365   9.238   9.663 -0.9401 -0.9562  1.3992
  639MOL0     H86231   2.172   8.814   9.713  0.6567 -0.0953 -0.2649
  639MOL0     H86232   2.294   8.862   9.832  0.8322  3.0598  0.5949
  639MOL0     H86233   2.055   8.894   9.921 -0.2416  0.0760 -0.6552
  639MOL0     H86234   2.148   9.037   9.916  0.7348  1.3783 -2.9986
  639MOL0     H86235   1.965   8.952   9.697  1.0967 -2.5861  2.3974
  639MOL0     H86236   2.046   9.101   9.696 -0.0324  0.3535  0.7697
  639MOL0     H86237   1.888   9.189   9.855  0.0421 -0.1995  0.0060
  639MOL0     H86238   1.793   9.079   9.766 -0.9310  2.2310  1.1068
  639MOL0     H86239   1.925   9.046  10.041  2.4844  0.8960 -2.3297
  639MOL0     H86240   1.843   8.907   9.967 -0.4324  0.2844  0.1160
  639MOL0     H86241   1.744   9.087  10.139  1.0508 -2.5563  0.5733
  639MOL0     H86242   1.704   9.162   9.987 -0.9860 -0.4437 -0.0148
  639MOL0     H86243   1.611   8.900  10.103  0.9920 -1.9669 -1.4523
  639MOL0     H86244   1.632   8.907   9.923 -1.8755 -1.6251  0.4447
  639MOL0     H86245   1.469   9.104   9.921 -0.4795  1.6072  0.8454
  639MOL0     H86246   1.457   9.100  10.095  0.7452  0.2239  0.0079
  639MOL0     H86247   2.484   8.836   9.708 -0.3369  0.0050  0.5768
  639MOL0     H86248   2.724   8.891   9.711  1.6174  1.8070  0.0395
  639MOL0     H86249   2.975   9.305   9.579 -0.7971 -1.4867  0.2503
  639MOL0     H86250   3.173   9.458   9.580  2.1868  0.7978  0.4193
  639MOL0     H86251   4.995   9.713   8.791 -0.6264  2.0174  1.2840
  639MOL0     H86252   5.228   9.688   8.779  2.3571 -0.7624  0.2678
  639MOL0     H86253   5.620   9.998   8.844  0.8940 -0.3280 -0.3776
  639MOL0     H86254   5.850   9.999   8.790  0.3105  0.8363  0.9849
  639MOL0     H86255   6.195   9.721   8.801  0.7532 -0.6294  1.9761
  639MOL0     H86256   6.074   9.629   8.895  0.0366 -3.0713 -1.9445
  639MOL0     H86257   6.131   9.617   8.597  1.2475 -1.4370  0.4377
  639MOL0     H86258   5.968   9.593   8.645 -1.7674 -0.5339  2.4364
  639MOL0     H86259   6.051   9.410   8.804  0.6450  0.9850  1.0917
  639MOL0     H86260   6.217   9.433   8.754  0.7159  0.2918 -2.9803
  639MOL0     H86261   5.976   9.356   8.592  0.1108  0.1469  0.7926
  639MOL0     H86262   6.103   9.239   8.646 -1.1274 -0.3816 -0.0002
  639MOL0     H86263   6.270   9.453   8.297  0.3765 -2.3244 -0.7539
  639MOL0     H86264   5.872   9.575   8.884  0.4289  0.3721 -1.1053
  639MOL0     H86265   5.648   9.572   8.945  1.3990 -0.4702  0.4337
  640MOL0     O86266   8.705   0.546   8.370 -0.7447 -0.1494  0.6534
  640MOL0     C86267   8.695   0.430   8.402 -0.2296  0.3106 -0.8268
  640MOL0     O86268   8.578   0.368   8.437  0.6152 -0.1253 -0.3997
  640MOL0     C86269   8.456   0.436   8.448 -0.4178 -0.1460  0.3997
  640MOL0     C86270   8.353   0.352   8.455  1.0631 -0.4793 -0.7399
  640MOL0     C86271   8.220   0.396   8.463 -0.5301 -0.1227  0.7171
  640MOL0     C86272   8.200   0.530   8.485  0.2659 -1.0745  0.4209
  640MOL0     O86273   8.068   0.564   8.517  0.6326 -0.7047 -0.2528
  640MOL0     C86274   8.039   0.699   8.572 -0.1863  0.4219  0.0846
  640MOL0     C86275   7.894   0.688   8.615  0.0574  0.7056  0.7076
  640MOL0     C86276   7.848   0.821   8.673 -0.6039  0.2855  0.2255
  640MOL0     C86277   7.874   0.946   8.587 -0.0205 -0.4178  0.4903
  640MOL0     C86278   7.770   1.056   8.610  0.2834  0.8205  0.2510
  640MOL0     C86279   7.795   1.200   8.541  1.1766  0.2560 -0.6486
  640MOL0     C86280   7.698   1.316   8.591 -0.0435  0.6488 -0.0341
  640MOL0     C86281   7.551   1.273   8.565  0.3478  0.3259 -0.4050
  640MOL0     N86282   7.472   1.383   8.624  0.6812 -0.6053  0.0857
  640MOL0     C86283   7.418   1.388   8.747  0.2307 -0.4011 -0.2893
  640MOL0     C86284   7.371   1.514   8.762  0.3233  0.5723 -0.4403
  640MOL0     C86285   7.316   1.558   8.889 -0.7160  0.3353  0.6491
  640MOL0     C86286   7.182   1.623   8.868 -0.0169 -0.1478  0.4203
  640MOL0     C86287   7.109   1.624   9.004  0.2900  0.6869 -1.0716
  640MOL0     C86288   6.968   1.682   8.996  1.0810 -0.0262  0.1932
  640MOL0     O86289   6.897   1.681   9.125 -0.0057  0.3493 -0.1747
  640MOL0     C86290   6.774   1.746   9.126 -0.1177  0.6486  1.1131
  640MOL0     C86291   6.669   1.721   9.033  0.3304  0.0490  0.1832
  640MOL0     C86292   6.548   1.795   9.038  0.5728  0.2516 -0.6869
  640MOL0     C86293   6.441   1.761   8.923 -1.0729  0.2745 -0.2222
  640MOL0     C86294   6.532   1.905   9.136  0.6142  0.2981  0.1108
  640MOL0     C86295   6.408   1.988   9.147  0.4014  0.2431 -0.2336
  640MOL0     O86296   6.296   1.944   9.082  0.5068 -0.2079  0.6971
  640MOL0     C86297   6.175   2.003   9.102  0.0212  0.4360 -0.1173
  640MOL0     C86298   6.151   2.140   9.101 -0.3841 -0.6572 -0.9192
  640MOL0     C86299   6.018   2.186   9.095  0.2555 -0.1042  1.4523
  640MOL0     C86300   5.905   2.097   9.093  0.2471  0.7182 -0.2279
  640MOL0     O86301   5.775   2.154   9.085 -0.5752 -0.1099 -0.6181
  640MOL0     C86302   5.714   2.182   9.212 -0.5650 -0.6560 -0.9539
  640MOL0     C86303   5.582   2.241   9.175 -0.1867  0.5743  0.2953
  640MOL0     C86304   5.482   2.267   9.288 -0.3578  0.0834 -0.1628
  640MOL0     C86305   5.378   2.153   9.312 -0.2569  0.2909  0.2014
  640MOL0     C86306   5.275   2.175   9.421 -0.2549  0.6155  0.0713
  640MOL0     C86307   5.203   2.307   9.421  0.2040  0.3707 -0.2196
  640MOL0     C86308   5.074   2.297   9.514  0.2136 -0.2337  1.4106
  640MOL0     C86309   5.008   2.439   9.515 -0.4961  0.0727  0.1341
  640MOL0    Cl86310   4.858   2.412   9.615 -0.3496  0.2157 -0.0874
  640MOL0     C86311   5.932   1.959   9.101 -0.6446  0.5269  0.1383
  640MOL0     C86312   6.063   1.919   9.111 -0.9993 -0.3320 -0.6942
  640MOL0     O86313   6.412   2.079   9.224 -0.3558  0.3559 -0.6270
  640MOL0     C86314   6.645   1.927   9.219  1.1301 -0.3006 -0.2632
  640MOL0     C86315   6.762   1.851   9.214 -0.0615 -0.7668 -0.0304
  640MOL0     N86316   7.388   1.582   8.639 -0.4698  0.0893 -0.3578
  640MOL0     N86317   7.451   1.502   8.564  0.5613  0.2079 -0.1375
  640MOL0     C86318   8.309   0.623   8.492 -0.2986  0.4336  0.1163
  640MOL0     C86319   8.435   0.573   8.475 -0.7040  0.4377  0.0475
  640MOL0     C86320   8.823   0.356   8.425 -0.3496 -0.2527  0.7909
  640MOL0     C86321   8.950   0.411   8.391 -0.5084 -0.3964 -0.0310
  640MOL0     C86322   9.070   0.348   8.417  0.5047 -0.2743  0.2187
  640MOL0     C86323   9.071   0.220   8.474  0.0184  0.3491 -0.5308
  640MOL0     O86324   9.198   0.172   8.496 -0.4281  0.0843 -0.4533
  640MOL0     C86325   9.213   0.030   8.525  0.3264 -0.6509  0.4314
  640MOL0     C86326   9.340  -0.030   8.458  0.7583 -0.3942 -0.1034
  640MOL0     C86327   9.470   0.048   8.488 -0.0091 -0.5755  0.0297
  640MOL0     C86328   9.582  -0.050   8.475  0.4573  0.5235 -0.0549
  640MOL0     C86329   9.716   0.011   8.474 -0.3737  0.4396  0.0649
  640MOL0     C86330   9.826   0.062   8.472  0.9599 -1.0684  0.1078
  640MOL0     C86331   8.946   0.157   8.519 -0.9647 -0.0245  0.5766
  640MOL0     C86332   8.827   0.230   8.485  0.5680 -0.4216  0.2521
  640MOL0     H86333   8.376   0.246   8.459  0.9102 -0.4922  2.1298
  640MOL0     H86334   8.136   0.327   8.470 -1.6125  0.9785 -0.7124
  640MOL0     H86335   8.106   0.714   8.657 -1.5381  1.8307  0.9530
  640MOL0     H86336   8.059   0.776   8.497 -2.0578  2.5305  1.6388
  640MOL0     H86337   7.823   0.660   8.537  0.5308 -0.7158  0.7739
  640MOL0     H86338   7.887   0.607   8.688  2.8557  0.1672  0.4665
  640MOL0     H86339   7.741   0.809   8.693 -0.8019 -0.3713 -1.1280
  640MOL0     H86340   7.896   0.827   8.772 -1.6161 -2.0683  0.9303
  640MOL0     H86341   7.972   0.994   8.600 -0.2431  0.3567 -0.5399
  640MOL0     H86342   7.872   0.920   8.481 -1.6305 -0.8498  0.5990
  640MOL0     H86343   7.674   1.011   8.583 -1.1765  2.3458  2.5298
  640MOL0     H86344   7.762   1.075   8.717 -2.5833  0.2386  0.2294
  640MOL0     H86345   7.898   1.237   8.552  0.4191  1.8544  1.8896
  640MOL0     H86346   7.772   1.177   8.437 -1.1889 -3.7854  0.5261
  640MOL0     H86347   7.723   1.330   8.697  0.4367  0.4883 -0.1239
  640MOL0     H86348   7.711   1.410   8.536 -1.7347  0.0516 -1.5161
  640MOL0     H86349   7.524   1.183   8.622 -0.1506  1.0259  0.4892
  640MOL0     H86350   7.538   1.250   8.459  0.2062 -3.5549  0.2816
  640MOL0     H86351   7.420   1.310   8.823 -3.3732  0.2353  0.6472
  640MOL0     H86352   7.317   1.480   8.965  0.6174 -1.0844 -0.7608
  640MOL0     H86353   7.395   1.631   8.909  2.0295 -2.1161 -0.5288
  640MOL0     H86354   7.114   1.568   8.801 -0.3899 -0.9967  1.4679
  640MOL0     H86355   7.178   1.721   8.821 -4.5920 -0.2452  0.1868
  640MOL0     H86356   7.154   1.677   9.089  0.0705 -2.4779  1.1847
  640MOL0     H86357   7.104   1.521   9.039 -3.6869  1.1084  0.0953
  640MOL0     H86358   6.908   1.628   8.922 -1.9026  1.6854  1.1967
  640MOL0     H86359   6.973   1.786   8.964 -0.3980 -0.0997 -0.3725
  640MOL0     H86360   6.680   1.652   8.950 -1.0020  0.7674 -0.6206
  640MOL0     H86361   6.347   1.721   8.965 -1.9683  1.7040 -0.7970
  640MOL0     H86362   6.411   1.848   8.865 -0.1387  0.9074  0.2214
  640MOL0     H86363   6.473   1.679   8.858  1.0513 -0.2655  1.3941
  640MOL0     H86364   6.236   2.207   9.103 -0.3601 -0.5520 -3.1267
  640MOL0     H86365   6.010   2.294   9.085  0.8307 -0.0205  1.8666
  640MOL0     H86366   5.696   2.089   9.267  0.3385 -1.3183 -1.7299
  640MOL0     H86367   5.772   2.247   9.277 -0.8621 -0.3200 -1.0261
  640MOL0     H86368   5.602   2.331   9.118  0.9756 -0.5610 -1.1742
  640MOL0     H86369   5.539   2.171   9.103  1.4725 -0.0556 -0.1398
  640MOL0     H86370   5.433   2.359   9.255  0.3165 -0.1682 -1.9887
  640MOL0     H86371   5.527   2.292   9.385 -0.1133  1.2859 -0.5664
  640MOL0     H86372   5.326   2.131   9.218  2.1104 -2.9578 -0.5166
  640MOL0     H86373   5.427   2.056   9.328  0.2959  0.0773 -2.3197
  640MOL0     H86374   5.313   2.158   9.522 -2.4781 -0.0725  0.8647
  640MOL0     H86375   5.193   2.103   9.411  0.6102 -0.7283  2.0454
  640MOL0     H86376   5.264   2.392   9.453 -2.6506  2.6746 -0.4712
  640MOL0     H86377   5.176   2.345   9.322 -0.9191  2.3195  0.7655
  640MOL0     H86378   5.098   2.274   9.618  1.1949  1.3914  1.5679
  640MOL0     H86379   4.994   2.226   9.492  0.7372  0.0250 -1.8954
  640MOL0     H86380   4.976   2.460   9.412 -0.2373 -0.7721 -0.1341
  640MOL0     H86381   5.078   2.520   9.537 -1.2582  0.8727 -0.3117
  640MOL0     H86382   5.852   1.885   9.103  0.9454 -1.3468 -1.5357
  640MOL0     H86383   6.069   1.810   9.115  2.4305 -0.2567 -1.1301
  640MOL0     H86384   6.643   2.000   9.299  0.9439 -4.2378  3.6549
  640MOL0     H86385   6.847   1.877   9.275 -0.1200  1.7224 -0.8933
  640MOL0     H86386   8.293   0.726   8.521 -0.6068  0.2948  0.4308
  640MOL0     H86387   8.515   0.644   8.462 -0.5691 -0.2527 -5.0430
  640MOL0     H86388   8.959   0.505   8.338  2.9062 -1.1739 -1.1124
  640MOL0     H86389   9.167   0.394   8.401  2.0189 -2.9356  1.0317
  640MOL0     H86390   9.221   0.018   8.633  1.3398 -1.2508  0.3032
  640MOL0     H86391   9.125  -0.023   8.489  1.3576 -1.0440 -1.7204
  640MOL0     H86392   9.336  -0.031   8.348  0.2587 -0.4767 -0.0864
  640MOL0     H86393   9.344  -0.130   8.501  0.2587  0.4212  1.9223
  640MOL0     H86394   9.458   0.074   8.594  0.4208 -0.8146  0.1446
  640MOL0     H86395   9.487   0.131   8.420  1.4757 -1.4746 -0.7474
  640MOL0     H86396   9.568  -0.108   8.383  1.9736 -2.1339  1.3056
  640MOL0     H86397   9.595  -0.117   8.560  4.3935 -0.3942 -1.1463
  640MOL0     H86398   9.922   0.108   8.476  2.6947 -4.4350  1.0549
  640MOL0     H86399   8.934   0.066   8.576  0.1410 -0.5477 -0.0067
  640MOL0     H86400   8.733   0.198   8.530 -0.6359  3.0712  0.5250
  641MOL0     O86401   0.205   4.338   2.896  0.1226  0.0544  0.4108
  641MOL0     C86402   0.322   4.358   2.927 -0.4993  0.6521  0.1533
  641MOL0     O86403   0.410   4.264   2.965  0.6284  0.2412 -0.2399
  641MOL0     C86404   0.376   4.129   2.952  0.6146 -1.2484  0.3321
  641MOL0     C86405   0.259   4.061   2.983 -0.2428  0.0664 -0.3275
  641MOL0     C86406   0.259   3.923   2.984 -0.1170  0.2997 -1.0540
  641MOL0     C86407   0.368   3.843   2.943  0.1483 -0.1512 -0.0565
  641MOL0     O86408   0.378   3.709   2.955  0.0635 -0.8637 -0.6411
  641MOL0     C86409   0.269   3.637   3.009  0.3959 -0.0990  0.0944
  641MOL0     C86410   0.292   3.494   2.994 -0.5596  0.8571 -0.6851
  641MOL0     C86411   0.418   3.453   3.062 -0.1610  0.7857  0.4901
  641MOL0     C86412   0.536   3.435   2.955  0.0837 -0.4643  0.7504
  641MOL0     C86413   0.680   3.415   3.017 -0.3455 -0.1416 -0.0804
  641MOL0     C86414   0.722   3.534   3.095 -0.6237 -0.1377 -0.1735
  641MOL0     C86415   0.858   3.538   3.154 -0.6038 -0.2512  0.1538
  641MOL0     C86416   0.913   3.680   3.191 -0.7695 -0.6768  0.5518
  641MOL0     N86417   0.932   3.772   3.078  0.3128 -0.4305  0.7744
  641MOL0     C86418   1.024   3.750   2.985  0.0404  0.2380  0.0938
  641MOL0     C86419   1.014   3.857   2.900  0.6209 -0.4682 -0.6496
  641MOL0     C86420   1.107   3.894   2.784  0.0105 -0.9128  0.4870
  641MOL0     C86421   1.046   3.864   2.646 -0.3191  0.1095  0.2930
  641MOL0     C86422   1.131   3.919   2.523 -0.0683 -0.0635 -0.7178
  641MOL0     C86423   1.277   3.879   2.530 -0.3379 -0.4346  0.3248
  641MOL0     O86424   1.286   3.739   2.499  0.0393  0.1308 -0.4935
  641MOL0     C86425   1.411   3.676   2.510  0.0891  0.1743 -0.0821
  641MOL0     C86426   1.399   3.538   2.487  0.2961 -0.9900 -0.0325
  641MOL0     C86427   1.506   3.452   2.501  0.8072  0.3760  0.8421
  641MOL0     C86428   1.470   3.308   2.477  0.4519  0.3417 -0.3344
  641MOL0     C86429   1.637   3.507   2.543 -0.7520 -0.6948  0.1606
  641MOL0     C86430   1.763   3.428   2.561  0.0042 -0.2565 -0.1421
  641MOL0     O86431   1.753   3.287   2.530  0.1661 -0.2726  0.4450
  641MOL0     C86432   1.874   3.225   2.533 -0.2320  0.1097 -0.5636
  641MOL0     C86433   1.946   3.207   2.651  0.5154 -0.6100  0.8786
  641MOL0     C86434   2.076   3.164   2.654  0.3073 -0.0959  0.4313
  641MOL0     C86435   2.138   3.131   2.536  0.2851 -0.7957 -0.6820
  641MOL0     O86436   2.269   3.128   2.522 -0.0759 -0.5508 -0.2248
  641MOL0     C86437   2.332   3.022   2.577  0.8201  1.1847 -0.5074
  641MOL0     C86438   2.476   3.035   2.575 -0.3756 -0.4809 -1.2845
  641MOL0     C86439   2.543   3.007   2.435  0.4443 -0.5382  0.3718
  641MOL0     C86440   2.544   2.852   2.412  0.1590  0.5085 -0.2974
  641MOL0     C86441   2.601   2.822   2.271 -0.0357 -0.0683  0.3601
  641MOL0     C86442   2.494   2.823   2.162 -0.6407  0.9069 -0.1198
  641MOL0     C86443   2.425   2.688   2.159 -0.3911 -0.4828 -0.7046
  641MOL0     C86444   2.314   2.672   2.058  0.0600  0.3051 -0.0465
  641MOL0    Cl86445   2.173   2.794   2.083 -0.1965 -0.0840  0.0361
  641MOL0     C86446   2.066   3.127   2.422 -0.2174 -0.0483 -0.0994
  641MOL0     C86447   1.941   3.189   2.420  0.0598 -0.5779  1.1808
  641MOL0     O86448   1.862   3.488   2.603 -0.2312 -0.8073  0.4630
  641MOL0     C86449   1.642   3.644   2.565 -0.3160  0.1265 -0.1380
  641MOL0     C86450   1.524   3.724   2.552 -0.4244  0.0577 -0.4768
  641MOL0     N86451   0.913   3.937   2.955  0.6154 -0.0380 -0.8560
  641MOL0     N86452   0.861   3.885   3.054 -0.5053  0.3552 -0.0875
  641MOL0     C86453   0.484   3.917   2.916  0.4445  0.6064 -0.3314
  641MOL0     C86454   0.490   4.057   2.914  0.7328  0.6365 -0.4410
  641MOL0     C86455   0.373   4.498   2.951 -0.1527  0.0930  0.1226
  641MOL0     C86456   0.300   4.600   2.903 -0.9434  0.1257 -0.5006
  641MOL0     C86457   0.347   4.738   2.920  0.1098  0.2042  0.0564
  641MOL0     C86458   0.476   4.764   2.962  0.2360  0.0094 -0.1476
  641MOL0     O86459   0.537   4.887   2.963  0.6721  0.0521 -0.2297
  641MOL0     C86460   0.482   4.995   2.888  0.4836 -0.2565  0.3570
  641MOL0     C86461   0.548   5.129   2.920  0.9511 -0.4923  0.5256
  641MOL0     C86462   0.495   5.238   2.833  0.3211  0.2773 -0.0274
  641MOL0     C86463   0.598   5.345   2.790  0.2111  0.3107  0.6152
  641MOL0     C86464   0.690   5.400   2.889  1.3076  0.8298  0.1487
  641MOL0     C86465   0.760   5.442   2.983  0.3953 -0.3114  0.0173
  641MOL0     C86466   0.560   4.653   2.994  0.7257  0.5246 -0.5053
  641MOL0     C86467   0.507   4.520   2.993 -0.0735  0.2037  1.3219
  641MOL0     H86468   0.178   4.119   3.024 -0.8148  0.6988 -2.2365
  641MOL0     H86469   0.164   3.874   3.004  1.0013 -2.0663 -1.2438
  641MOL0     H86470   0.246   3.670   3.111 -0.8432  1.1367 -0.5418
  641MOL0     H86471   0.179   3.644   2.947 -0.3825 -2.9354  0.7731
  641MOL0     H86472   0.208   3.434   3.031 -0.0202  1.4056  1.6155
  641MOL0     H86473   0.292   3.457   2.891 -0.8623 -1.4030  0.0620
  641MOL0     H86474   0.443   3.525   3.141 -1.9074  1.6706  0.2949
  641MOL0     H86475   0.400   3.359   3.115  1.5275  0.1397 -0.0275
  641MOL0     H86476   0.511   3.345   2.898  1.7816 -0.5520  0.0707
  641MOL0     H86477   0.537   3.523   2.889  0.8627 -0.8977  0.1603
  641MOL0     H86478   0.677   3.332   3.089  1.1862 -1.9562 -2.0049
  641MOL0     H86479   0.755   3.372   2.950 -0.3863 -3.1781  1.6197
  641MOL0     H86480   0.716   3.621   3.028 -0.9353  0.4475  0.5920
  641MOL0     H86481   0.655   3.563   3.178  0.2686 -0.1084  0.5547
  641MOL0     H86482   0.862   3.468   3.237 -1.5505  0.0908  0.5036
  641MOL0     H86483   0.931   3.495   3.085  0.0118 -1.0881  1.2960
  641MOL0     H86484   1.006   3.672   3.247 -1.1539 -1.0659  1.1511
  641MOL0     H86485   0.844   3.724   3.264  0.9351  4.6631 -0.6690
  641MOL0     H86486   1.104   3.677   2.985 -1.3354 -1.3531  0.5012
  641MOL0     H86487   1.119   4.000   2.808 -2.5723 -1.0958  3.0980
  641MOL0     H86488   1.204   3.844   2.781  0.0693 -0.7966 -1.6903
  641MOL0     H86489   0.948   3.913   2.648 -1.0052 -1.0880 -1.1933
  641MOL0     H86490   1.036   3.755   2.637 -2.7560  0.2860  0.2051
  641MOL0     H86491   1.117   4.028   2.526  0.3325  0.1234 -3.5099
  641MOL0     H86492   1.090   3.880   2.429  1.1993 -0.3889 -1.1420
  641MOL0     H86493   1.323   3.911   2.624  0.2177 -1.4165  0.3960
  641MOL0     H86494   1.324   3.939   2.451 -0.7464 -0.0562  0.3639
  641MOL0     H86495   1.307   3.513   2.434  0.4127  2.2727 -2.0807
  641MOL0     H86496   1.470   3.266   2.578  0.5016  3.9056  1.3097
  641MOL0     H86497   1.370   3.285   2.438 -0.2564  1.0162  1.0025
  641MOL0     H86498   1.544   3.269   2.407 -0.5487  0.0833 -1.2701
  641MOL0     H86499   1.905   3.256   2.738  3.5597  1.7636  1.1550
  641MOL0     H86500   2.134   3.162   2.746  1.6800  0.2652 -0.3907
  641MOL0     H86501   2.296   2.998   2.677 -3.7382  0.3310 -2.1057
  641MOL0     H86502   2.301   2.931   2.525 -0.5221  1.3230  0.0086
  641MOL0     H86503   2.489   3.134   2.621 -4.3684 -0.5086  0.3360
  641MOL0     H86504   2.519   2.967   2.649 -1.0654  1.5471  1.1380
  641MOL0     H86505   2.646   3.038   2.452 -0.1907  2.1772 -0.2277
  641MOL0     H86506   2.485   3.064   2.361 -0.9420 -0.6418  1.3427
  641MOL0     H86507   2.616   2.814   2.484  1.8722  1.0783 -1.6530
  641MOL0     H86508   2.442   2.812   2.421 -0.1853  1.2251 -0.8528
  641MOL0     H86509   2.660   2.731   2.280 -0.4919 -0.1337  4.8557
  641MOL0     H86510   2.671   2.902   2.244 -1.7593  1.7325  0.9859
  641MOL0     H86511   2.417   2.900   2.162 -1.3371  0.2348 -0.9287
  641MOL0     H86512   2.544   2.830   2.064  1.8375 -0.9491  0.9040
  641MOL0     H86513   2.381   2.692   2.259 -1.1304  4.1103 -0.9803
  641MOL0     H86514   2.493   2.604   2.145 -0.7544 -0.9848  0.4129
  641MOL0     H86515   2.269   2.573   2.072 -0.5520  0.3666 -1.3734
  641MOL0     H86516   2.358   2.677   1.958  0.6349  2.1752  0.2609
  641MOL0     H86517   2.135   3.109   2.340  1.6132  1.0384  1.1035
  641MOL0     H86518   1.889   3.211   2.327 -1.3783 -1.2341  1.8039
  641MOL0     H86519   1.734   3.693   2.593  0.9138 -0.6259 -2.5845
  641MOL0     H86520   1.526   3.831   2.571 -0.3997 -0.0607  0.1989
  641MOL0     H86521   0.577   3.867   2.893 -0.0615 -0.1749 -0.7213
  641MOL0     H86522   0.586   4.106   2.900  1.6138 -0.8270  0.1964
  641MOL0     H86523   0.204   4.590   2.854 -0.9673  0.9472 -0.6384
  641MOL0     H86524   0.283   4.821   2.890  0.3913  0.0514 -0.9955
  641MOL0     H86525   0.489   4.976   2.780 -1.9959 -0.5240  0.1837
  641MOL0     H86526   0.376   5.009   2.910  0.6365 -0.8915  1.5567
  641MOL0     H86527   0.657   5.131   2.920  0.9911  1.9994  1.7678
  641MOL0     H86528   0.519   5.151   3.023 -0.1591  0.6072  0.0009
  641MOL0     H86529   0.423   5.300   2.887  0.8848  1.7400 -0.8795
  641MOL0     H86530   0.440   5.206   2.744 -1.0565  1.2180  0.4530
  641MOL0     H86531   0.549   5.429   2.739 -1.1567 -0.9753 -0.2796
  641MOL0     H86532   0.658   5.308   2.706 -1.0633 -1.1428  0.2893
  641MOL0     H86533   0.819   5.480   3.064  1.7977  3.4877 -2.5146
  641MOL0     H86534   0.662   4.658   3.032  0.6670 -0.4689 -0.1923
  641MOL0     H86535   0.561   4.429   3.018 -0.7427 -1.3153 -2.0860
  642MOL0     O86536   1.797   1.178  11.076 -0.0022 -0.1424  0.2179
  642MOL0     C86537   1.814   1.064  11.037 -0.0874  0.0636  0.0585
  642MOL0     O86538   1.718   0.979  10.991 -0.2300  0.0902 -0.0907
  642MOL0     C86539   1.589   1.018  10.995  0.1281 -0.3374  0.1420
  642MOL0     C86540   1.505   0.982  10.893 -0.0226 -0.4525  0.5222
  642MOL0     C86541   1.368   1.005  10.886  0.4985  0.5085  0.1124
  642MOL0     C86542   1.310   1.069  10.981  0.9646 -0.2956 -0.2246
  642MOL0     O86543   1.172   1.087  10.979 -0.7120 -0.4841 -0.1012
  642MOL0     C86544   1.112   1.177  11.069 -0.5185  0.1583 -0.7737
  642MOL0     C86545   0.967   1.187  11.021  0.2929  1.0514  0.1787
  642MOL0     C86546   0.882   1.258  11.117 -0.0426 -0.1104  1.1078
  642MOL0     C86547   0.749   1.256  11.058 -0.3818 -0.2814  0.4103
  642MOL0     C86548   0.642   1.335  11.136  0.2923 -0.0609 -0.0134
  642MOL0     C86549   0.560   1.239  11.224 -0.6391  0.1664 -0.1445
  642MOL0     C86550   0.432   1.275  11.306  0.6441 -0.1395  0.2615
  642MOL0     C86551   0.340   1.378  11.228 -0.1392 -0.4909 -0.3333
  642MOL0     N86552   0.277   1.320  11.114  1.2180  0.1810  0.4912
  642MOL0     C86553   0.172   1.228  11.123  0.7098 -0.0421 -0.0970
  642MOL0     C86554   0.147   1.201  10.991 -0.3369 -0.1061 -0.0114
  642MOL0     C86555   0.043   1.105  10.941 -0.3849 -0.3615 -0.2668
  642MOL0     C86556  -0.062   1.175  10.847 -0.1801  0.2335  0.2461
  642MOL0     C86557  -0.177   1.074  10.817  0.1593  0.4127 -0.0541
  642MOL0     C86558  -0.310   1.138  10.800  0.5789 -0.4676 -1.2728
  642MOL0     O86559  -0.413   1.037  10.806  0.1407  0.0652 -1.0737
  642MOL0     C86560  -0.548   1.071  10.791 -0.8962  0.1931  0.6202
  642MOL0     C86561  -0.644   0.970  10.795  0.0602 -0.4964  0.4700
  642MOL0     C86562  -0.783   0.998  10.782  0.5772  0.0465 -1.0847
  642MOL0     C86563  -0.875   0.887  10.811 -1.2883 -0.2778  0.7264
  642MOL0     C86564  -0.826   1.130  10.777  0.3134 -0.1740 -0.2306
  642MOL0     C86565  -0.976   1.169  10.780 -0.8448 -0.1157 -0.2032
  642MOL0     O86566  -1.016   1.255  10.685  0.2552  0.2700  0.0797
  642MOL0     C86567  -1.153   1.285  10.695 -0.1729  0.5356 -0.3121
  642MOL0     C86568  -1.256   1.198  10.644  0.7367  0.5843 -0.5553
  642MOL0     C86569  -1.392   1.234  10.631 -0.3691  0.1359  0.3436
  642MOL0     C86570  -1.426   1.365  10.654  0.4465  0.6236  0.3276
  642MOL0     O86571  -1.554   1.410  10.632 -0.3559 -0.0588 -0.0382
  642MOL0     C86572  -1.645   1.346  10.539 -0.0865 -0.0921 -0.5441
  642MOL0     C86573  -1.787   1.420  10.541  0.2427 -0.0271  0.1361
  642MOL0     C86574  -1.901   1.354  10.460  1.1391  0.0166 -0.4800
  642MOL0     C86575  -2.013   1.287  10.542 -0.6458 -0.0864 -0.5537
  642MOL0     C86576  -2.091   1.381  10.630  0.4545 -0.2695  0.4337
  642MOL0     C86577  -2.197   1.313  10.714  0.4630  0.5264 -1.6505
  642MOL0     C86578  -2.266   1.416  10.800 -0.0419  0.0321  0.1748
  642MOL0     C86579  -2.399   1.347  10.845  0.4526 -0.3958  1.3377
  642MOL0    Cl86580  -2.485   1.448  10.961  0.5604 -0.0081 -0.5319
  642MOL0     C86581  -1.324   1.455  10.693  0.0241 -0.2128 -0.4848
  642MOL0     C86582  -1.192   1.415  10.721 -1.2462  1.0421  0.1644
  642MOL0     O86583  -1.048   1.116  10.865  0.0836 -0.5488  0.4109
  642MOL0     C86584  -0.725   1.229  10.768 -0.1322 -0.2553  0.2244
  642MOL0     C86585  -0.589   1.207  10.776  0.3478 -0.1916 -0.2779
  642MOL0     N86586   0.226   1.289  10.914  0.5578  0.4175  1.1797
  642MOL0     N86587   0.300   1.362  10.988 -0.7655 -0.8644  0.6991
  642MOL0     C86588   1.389   1.121  11.092  0.5206 -0.1094 -0.4068
  642MOL0     C86589   1.524   1.098  11.097  0.2102  0.4611 -0.8229
  642MOL0     C86590   1.951   1.000  11.055 -1.1667 -0.3372 -0.0889
  642MOL0     C86591   1.957   0.861  11.039  0.6644 -0.2133 -0.1495
  642MOL0     C86592   2.071   0.789  11.061 -0.3714  0.0805 -0.0063
  642MOL0     C86593   2.189   0.857  11.093  0.3627  0.8514 -0.1664
  642MOL0     O86594   2.306   0.795  11.125  0.2949 -0.5651 -0.5753
  642MOL0     C86595   2.301   0.657  11.171 -0.0363 -0.1302 -0.7379
  642MOL0     C86596   2.409   0.620  11.277  0.0903  0.2011  0.0022
  642MOL0     C86597   2.387   0.701  11.403  0.6717  0.0882  0.2987
  642MOL0     C86598   2.498   0.684  11.504 -1.3271 -0.0983 -0.3640
  642MOL0     C86599   2.622   0.736  11.445 -0.0703  0.0002  0.6597
  642MOL0     C86600   2.711   0.803  11.390 -0.0989  0.5319  0.4636
  642MOL0     C86601   2.189   0.995  11.110 -0.3799 -0.4436 -0.2084
  642MOL0     C86602   2.065   1.068  11.102 -0.0076 -0.3526 -0.1259
  642MOL0     H86603   1.548   0.919  10.815  2.2067  3.2747 -1.5361
  642MOL0     H86604   1.315   0.957  10.804  2.5530  0.4290 -1.2417
  642MOL0     H86605   1.113   1.130  11.167  2.3178 -0.6958 -1.1165
  642MOL0     H86606   1.166   1.269  11.090  1.7647 -1.2341 -0.2178
  642MOL0     H86607   0.952   1.216  10.916 -2.8230 -1.9631 -0.3707
  642MOL0     H86608   0.935   1.083  11.021  1.6732  0.5125 -3.0115
  642MOL0     H86609   0.884   1.211  11.216 -0.9741 -2.6846 -0.0111
  642MOL0     H86610   0.919   1.360  11.125 -1.4357  0.3865  1.3135
  642MOL0     H86611   0.749   1.310  10.963 -4.8624  0.4727  0.6136
  642MOL0     H86612   0.710   1.155  11.045 -1.4770  0.1394  0.3626
  642MOL0     H86613   0.698   1.406  11.198  1.1771  1.1496 -2.1111
  642MOL0     H86614   0.583   1.397  11.068 -0.2383  1.2182  1.5383
  642MOL0     H86615   0.530   1.158  11.158  2.3332 -0.7262 -0.5456
  642MOL0     H86616   0.640   1.197  11.285 -0.2195  0.8751 -0.1860
  642MOL0     H86617   0.371   1.186  11.322 -1.7055  0.8788 -2.1309
  642MOL0     H86618   0.465   1.327  11.396  0.8509  1.4121 -0.6719
  642MOL0     H86619   0.412   1.449  11.186  1.4264 -1.1555  1.0732
  642MOL0     H86620   0.269   1.426  11.296  0.3122  0.8426 -0.7823
  642MOL0     H86621   0.136   1.178  11.212  0.4366  2.0528  1.0225
  642MOL0     H86622   0.093   1.027  10.883  0.5571  0.4918 -0.6440
  642MOL0     H86623  -0.011   1.059  11.025 -1.6031  0.8596 -0.3389
  642MOL0     H86624  -0.015   1.214  10.756  0.6587 -0.5981  0.3080
  642MOL0     H86625  -0.104   1.265  10.892 -0.5422  0.7268 -1.0328
  642MOL0     H86626  -0.191   1.005  10.901 -1.6722  0.0376 -0.6326
  642MOL0     H86627  -0.155   1.022  10.724 -0.6362  0.3835 -0.2317
  642MOL0     H86628  -0.323   1.197  10.708  1.0458  3.5684  1.0146
  642MOL0     H86629  -0.334   1.207  10.881 -3.0531 -1.1405 -1.6183
  642MOL0     H86630  -0.616   0.865  10.799 -2.9521 -1.4017  4.2496
  642MOL0     H86631  -0.909   0.894  10.914  1.1988  1.3086  1.5323
  642MOL0     H86632  -0.959   0.888  10.741 -0.8177  0.7847  0.1603
  642MOL0     H86633  -0.818   0.794  10.808  1.3751  1.2466  1.1839
  642MOL0     H86634  -1.223   1.097  10.622 -0.0231  0.5593 -1.6844
  642MOL0     H86635  -1.455   1.157  10.589 -0.1648  0.7935 -1.2253
  642MOL0     H86636  -1.610   1.367  10.438 -1.3114 -1.4638 -1.2837
  642MOL0     H86637  -1.659   1.239  10.552  1.9552 -0.5485 -1.6656
  642MOL0     H86638  -1.815   1.451  10.642  0.3445  0.5851 -0.0207
  642MOL0     H86639  -1.761   1.516  10.496  0.0628 -0.6534 -1.3542
  642MOL0     H86640  -1.854   1.283  10.390 -1.3927 -0.4483 -1.8078
  642MOL0     H86641  -1.933   1.430  10.388  2.7911  1.2772  0.0305
  642MOL0     H86642  -2.082   1.243  10.470 -0.9587  0.3235 -0.5020
  642MOL0     H86643  -1.964   1.207  10.598 -1.7148 -1.2823 -1.2852
  642MOL0     H86644  -2.140   1.459  10.571 -0.4552  0.2539  1.8082
  642MOL0     H86645  -2.016   1.411  10.703 -1.1274  1.8269  1.3141
  642MOL0     H86646  -2.271   1.254  10.659  1.7906 -1.6400 -1.2385
  642MOL0     H86647  -2.154   1.243  10.786  1.5491  3.5765  0.9153
  642MOL0     H86648  -2.296   1.502  10.738 -2.2631 -1.1764 -0.5145
  642MOL0     H86649  -2.212   1.451  10.888 -0.1572 -1.9940  1.0893
  642MOL0     H86650  -2.373   1.249  10.884  0.8186 -0.1422  1.7466
  642MOL0     H86651  -2.469   1.334  10.762 -1.7647  0.1794  3.0265
  642MOL0     H86652  -1.337   1.561  10.714  1.8728  0.0372 -0.3561
  642MOL0     H86653  -1.124   1.490  10.760  2.4065  0.6066 -4.5068
  642MOL0     H86654  -0.758   1.331  10.746 -3.0028 -1.0501  0.4517
  642MOL0     H86655  -0.524   1.293  10.761 -1.0483  1.0274  0.4040
  642MOL0     H86656   1.345   1.157  11.184  2.3712  1.2106  0.0161
  642MOL0     H86657   1.577   1.133  11.186  0.8850 -0.9502 -0.6505
  642MOL0     H86658   1.874   0.798  11.008 -1.5661  2.0211  0.9117
  642MOL0     H86659   2.079   0.684  11.036  1.1386  0.3474 -0.7507
  642MOL0     H86660   2.203   0.642  11.217 -1.0340  1.1500 -2.2971
  642MOL0     H86661   2.313   0.592  11.084  0.1331 -1.0530 -0.0405
  642MOL0     H86662   2.508   0.646  11.238 -0.2573  3.5596  1.0794
  642MOL0     H86663   2.403   0.514  11.306 -3.7223 -0.0022 -0.9343
  642MOL0     H86664   2.292   0.675  11.452 -1.3844  0.8261 -2.9310
  642MOL0     H86665   2.375   0.806  11.372 -0.1246  0.2247  1.0337
  642MOL0     H86666   2.496   0.578  11.533  0.3215  0.2337  1.1366
  642MOL0     H86667   2.482   0.742  11.595 -1.9529  0.8519 -1.0618
  642MOL0     H86668   2.795   0.847  11.339 -0.2270  0.4198  0.1569
  642MOL0     H86669   2.284   1.047  11.109  0.1825 -1.4370 -0.8020
  642MOL0     H86670   2.067   1.176  11.112 -2.7984 -0.2681  0.3595
  643MOL0     O86671   4.075   8.558   2.944  0.1329 -0.0092 -0.0792
  643MOL0     C86672   4.149   8.463   2.925 -0.0440 -0.2315 -0.6033
  643MOL0     O86673   4.116   8.349   2.855  0.7018 -0.4361 -0.3375
  643MOL0     C86674   3.986   8.353   2.805 -0.2004 -0.2115  0.4608
  643MOL0     C86675   3.974   8.433   2.687 -0.4775  0.0051 -0.0044
  643MOL0     C86676   3.857   8.414   2.616 -0.6959  0.5828  0.9224
  643MOL0     C86677   3.749   8.341   2.659 -0.4354  0.1602 -0.5573
  643MOL0     O86678   3.635   8.348   2.581 -0.8410 -0.8811 -0.7572
  643MOL0     C86679   3.513   8.287   2.627  0.6899  1.1268  0.3497
  643MOL0     C86680   3.411   8.301   2.517  0.1104 -0.3520 -0.1070
  643MOL0     C86681   3.273   8.258   2.556  0.4879  0.1365  0.2854
  643MOL0     C86682   3.163   8.273   2.451  0.5330 -0.1562  1.0216
  643MOL0     C86683   3.028   8.215   2.494  0.6600 -0.3438 -0.3396
  643MOL0     C86684   2.906   8.238   2.407  0.7016 -0.2208 -0.1575
  643MOL0     C86685   2.765   8.196   2.472 -0.2437 -0.3838  0.7060
  643MOL0     C86686   2.655   8.253   2.380 -0.9662  0.0813 -0.0604
  643MOL0     N86687   2.535   8.160   2.370  0.0786  0.6398 -0.1162
  643MOL0     C86688   2.529   8.026   2.324 -0.7111 -0.3777 -0.4470
  643MOL0     C86689   2.427   7.961   2.381  1.1529  0.5127  0.1668
  643MOL0     C86690   2.368   7.820   2.346 -0.4733 -0.5581  0.0498
  643MOL0     C86691   2.308   7.747   2.466  0.4608 -0.1053  0.3510
  643MOL0     C86692   2.235   7.614   2.440  0.7246 -0.2259  0.2001
  643MOL0     C86693   2.110   7.639   2.357  0.5728 -0.0800  0.5397
  643MOL0     O86694   2.045   7.513   2.351 -0.7438  0.0065  0.7141
  643MOL0     C86695   1.935   7.498   2.272 -0.4506  0.1324 -0.9435
  643MOL0     C86696   1.887   7.365   2.272 -1.3228 -0.9267  0.4083
  643MOL0     C86697   1.769   7.326   2.216  0.9256  0.2914 -0.1496
  643MOL0     C86698   1.740   7.180   2.218 -0.2188  0.6521  0.9239
  643MOL0     C86699   1.677   7.423   2.175 -0.3060  0.7145 -0.0208
  643MOL0     C86700   1.538   7.404   2.136 -0.3233  0.5151 -0.1488
  643MOL0     O86701   1.459   7.512   2.153  0.5451  0.2620  0.0310
  643MOL0     C86702   1.340   7.506   2.089  0.5882 -0.0830  0.4714
  643MOL0     C86703   1.229   7.531   2.171 -0.0006  0.0225  0.1504
  643MOL0     C86704   1.103   7.560   2.110  0.0280 -0.4187  0.3102
  643MOL0     C86705   1.093   7.558   1.970  0.0133  1.0742  0.0739
  643MOL0     O86706   0.980   7.591   1.895 -0.9664  0.0911  0.4048
  643MOL0     C86707   0.860   7.599   1.974 -0.9201 -0.2290 -0.3168
  643MOL0     C86708   0.742   7.619   1.880 -0.0271  0.0794  0.7117
  643MOL0     C86709   0.613   7.621   1.974 -0.0681 -0.3915  0.0546
  643MOL0     C86710   0.494   7.676   1.895  0.3827 -0.8031 -0.4580
  643MOL0     C86711   0.477   7.827   1.908 -0.1572 -0.2593  0.3568
  643MOL0     C86712   0.350   7.874   1.840 -0.1053  0.5415 -0.4249
  643MOL0     C86713   0.227   7.866   1.930 -0.6835 -0.9979 -0.6347
  643MOL0     C86714   0.093   7.878   1.863  0.1103  0.8136 -1.5583
  643MOL0    Cl86715  -0.030   7.844   1.994  0.0845 -0.0886 -0.0430
  643MOL0     C86716   1.206   7.525   1.889 -0.5382  0.6324 -0.1218
  643MOL0     C86717   1.329   7.499   1.948 -0.1330 -0.1726  0.0469
  643MOL0     O86718   1.495   7.292   2.100 -0.6177 -0.2179  0.3768
  643MOL0     C86719   1.719   7.556   2.178  0.1124  0.1203  0.1407
  643MOL0     C86720   1.842   7.602   2.220 -0.5897 -0.5882  0.3548
  643MOL0     N86721   2.368   8.047   2.466  0.4146 -0.5913 -0.1050
  643MOL0     N86722   2.430   8.164   2.467  0.0310 -0.2423  0.5975
  643MOL0     C86723   3.763   8.260   2.776 -0.6984  0.1168  0.3172
  643MOL0     C86724   3.891   8.263   2.845  0.4569  0.2554  0.4860
  643MOL0     C86725   4.278   8.473   3.000  0.6143  0.3861  0.4806
  643MOL0     C86726   4.386   8.387   2.974  0.0180  0.1470  0.1701
  643MOL0     C86727   4.502   8.402   3.052  0.0458  1.1294  1.1616
  643MOL0     C86728   4.504   8.486   3.163 -0.3275 -0.2237  0.1669
  643MOL0     O86729   4.616   8.484   3.240  0.3628  0.3995  1.1376
  643MOL0     C86730   4.602   8.530   3.375 -0.2079  0.4076 -0.0055
  643MOL0     C86731   4.724   8.490   3.465 -0.5674 -0.0010 -0.8252
  643MOL0     C86732   4.743   8.341   3.454 -0.0108 -0.1086  0.3246
  643MOL0     C86733   4.866   8.298   3.523  0.4385  0.0650  0.4887
  643MOL0     C86734   4.867   8.154   3.509  0.4415  0.4650  0.2198
  643MOL0     C86735   4.864   8.031   3.510  0.0803  0.1475  1.2018
  643MOL0     C86736   4.395   8.580   3.182  0.1274 -0.1195 -0.5898
  643MOL0     C86737   4.282   8.566   3.106  0.1328  0.0331  0.2673
  643MOL0     H86738   4.052   8.505   2.663 -2.1681  2.3706  1.1600
  643MOL0     H86739   3.849   8.475   2.527  1.7868  1.5433  1.3084
  643MOL0     H86740   3.530   8.184   2.659  0.0775  0.8868 -0.0722
  643MOL0     H86741   3.471   8.340   2.712 -0.1965  0.0872  0.5885
  643MOL0     H86742   3.410   8.408   2.493 -1.3949 -0.1079  0.8797
  643MOL0     H86743   3.436   8.247   2.425  0.4840  1.5579 -1.1813
  643MOL0     H86744   3.268   8.152   2.582  0.9320 -0.6573 -2.5767
  643MOL0     H86745   3.242   8.305   2.650  1.4005 -2.1241  1.8157
  643MOL0     H86746   3.142   8.377   2.424 -2.5606  0.0034  3.4569
  643MOL0     H86747   3.189   8.228   2.355 -2.8970  0.2357 -0.2514
  643MOL0     H86748   3.040   8.106   2.496  1.9139 -0.2171 -0.2105
  643MOL0     H86749   3.011   8.253   2.596  0.9832  0.8124 -0.7087
  643MOL0     H86750   2.901   8.344   2.380  1.5583 -0.9545 -3.8131
  643MOL0     H86751   2.928   8.179   2.317  0.1955  0.0109 -0.4357
  643MOL0     H86752   2.764   8.087   2.469 -2.7439 -0.3961  0.0501
  643MOL0     H86753   2.772   8.240   2.572  0.8066  3.2685 -0.8041
  643MOL0     H86754   2.702   8.266   2.282  0.2130 -0.7908  0.3688
  643MOL0     H86755   2.617   8.356   2.390 -1.9112  0.4828 -5.0062
  643MOL0     H86756   2.602   7.978   2.261  0.0841  0.3923 -0.1354
  643MOL0     H86757   2.293   7.835   2.267 -1.4368  0.5384  1.1305
  643MOL0     H86758   2.440   7.752   2.300  0.5974 -0.8568  2.0657
  643MOL0     H86759   2.238   7.814   2.516  0.4071 -0.5277  0.8525
  643MOL0     H86760   2.383   7.735   2.545 -0.4265  1.8556  1.5696
  643MOL0     H86761   2.191   7.573   2.532 -0.1295  1.1682  0.4540
  643MOL0     H86762   2.303   7.547   2.387  0.0874 -0.8102  0.1065
  643MOL0     H86763   2.125   7.668   2.253  1.5142  3.7518  1.6106
  643MOL0     H86764   2.042   7.713   2.399 -0.7199 -0.0801 -1.3999
  643MOL0     H86765   1.956   7.292   2.314 -1.1129  0.0967  1.9246
  643MOL0     H86766   1.650   7.152   2.273 -1.1238  0.1499 -0.7342
  643MOL0     H86767   1.733   7.141   2.116 -0.8070  0.0602  1.1859
  643MOL0     H86768   1.818   7.123   2.268 -1.5155 -0.7404  1.4404
  643MOL0     H86769   1.241   7.543   2.278  1.1368 -0.3408  0.0779
  643MOL0     H86770   1.030   7.590   2.185 -0.8123 -0.6079 -0.4257
  643MOL0     H86771   0.838   7.505   2.027 -1.5621  0.4796  0.7278
  643MOL0     H86772   0.862   7.683   2.044 -1.4206 -1.0373  0.7154
  643MOL0     H86773   0.749   7.712   1.824 -0.6476  0.8182  1.8395
  643MOL0     H86774   0.733   7.542   1.803  0.3071  0.2001  0.5529
  643MOL0     H86775   0.626   7.683   2.063  2.2906 -1.5082  0.5609
  643MOL0     H86776   0.596   7.522   2.016 -1.0155  0.2997  1.3560
  643MOL0     H86777   0.507   7.659   1.788  1.0142  1.7359 -0.8515
  643MOL0     H86778   0.404   7.620   1.923  0.1753 -0.4247 -0.3668
  643MOL0     H86779   0.564   7.875   1.863 -1.5955 -1.0323 -3.6307
  643MOL0     H86780   0.469   7.846   2.016  4.3633 -0.9374  1.0200
  643MOL0     H86781   0.369   7.981   1.827  0.2046  0.6584  0.8161
  643MOL0     H86782   0.337   7.821   1.745 -1.0056  0.1715 -0.1020
  643MOL0     H86783   0.239   7.948   2.001 -0.1293  0.7017 -2.6162
  643MOL0     H86784   0.216   7.767   1.976  0.3513 -1.8281 -2.0726
  643MOL0     H86785   0.086   7.802   1.785  1.3425 -0.5516 -0.3946
  643MOL0     H86786   0.067   7.975   1.818 -3.9859  1.5069  1.6557
  643MOL0     H86787   1.188   7.520   1.782  2.1440 -0.1852 -0.6206
  643MOL0     H86788   1.415   7.467   1.890 -1.7337 -0.7241 -2.1618
  643MOL0     H86789   1.653   7.636   2.146 -1.7358  0.5091  4.3236
  643MOL0     H86790   1.861   7.709   2.218 -3.2501 -0.0566 -0.0775
  643MOL0     H86791   3.677   8.201   2.806 -0.0652 -0.9766  0.0524
  643MOL0     H86792   3.913   8.206   2.935  1.7069 -0.5036 -0.2746
  643MOL0     H86793   4.389   8.320   2.889 -0.3859 -0.5190  0.6656
  643MOL0     H86794   4.588   8.340   3.030 -0.1894  0.3892  2.2134
  643MOL0     H86795   4.583   8.637   3.368  0.0334  0.4256 -5.9161
  643MOL0     H86796   4.512   8.492   3.423 -0.8125 -1.1966 -2.2071
  643MOL0     H86797   4.699   8.506   3.570  0.1484 -0.3835 -0.5896
  643MOL0     H86798   4.820   8.534   3.435  0.4438 -1.1833  0.5174
  643MOL0     H86799   4.744   8.308   3.349 -0.7279 -1.0022  0.5848
  643MOL0     H86800   4.656   8.291   3.499  0.8983 -2.1337 -0.0661
  643MOL0     H86801   4.850   8.338   3.624 -0.2429  2.4438 -0.5022
  643MOL0     H86802   4.954   8.356   3.493  0.3607  1.0227  1.9819
  643MOL0     H86803   4.864   7.925   3.519  0.3009  0.1795  1.5930
  643MOL0     H86804   4.396   8.671   3.241 -1.7341  0.3215 -1.1491
  643MOL0     H86805   4.196   8.627   3.133  0.9790  1.8519 -0.9402
  644MOL0     O86806   4.136   1.124   3.188  0.2580 -0.1981 -0.5849
  644MOL0     C86807   4.153   1.246   3.186 -1.6252  0.6078 -0.1037
  644MOL0     O86808   4.062   1.343   3.181  0.3550  0.4946  0.2232
  644MOL0     C86809   3.935   1.295   3.164  0.2758 -0.1411  0.1578
  644MOL0     C86810   3.886   1.246   3.045 -0.3237  0.3108  0.2618
  644MOL0     C86811   3.758   1.195   3.035  0.3795 -0.0113 -0.5581
  644MOL0     C86812   3.667   1.206   3.140  0.3847  0.9093  0.0859
  644MOL0     O86813   3.537   1.163   3.114 -0.4796 -0.1703 -0.0623
  644MOL0     C86814   3.452   1.140   3.220 -0.0048 -0.4856 -0.3247
  644MOL0     C86815   3.311   1.134   3.158 -0.8403  0.6742  0.2560
  644MOL0     C86816   3.201   1.126   3.264  0.6176 -0.4573 -1.0523
  644MOL0     C86817   3.073   1.095   3.189  0.3493 -1.5414  0.5844
  644MOL0     C86818   2.957   1.101   3.290 -0.9566 -0.8249 -0.3639
  644MOL0     C86819   2.826   1.091   3.213  0.3036  0.5181 -0.0694
  644MOL0     C86820   2.703   1.126   3.295  0.2254  0.2602  0.1914
  644MOL0     C86821   2.566   1.079   3.250 -0.1556 -0.4295  0.1146
  644MOL0     N86822   2.528   0.949   3.307 -0.2585  0.6555  0.2782
  644MOL0     C86823   2.423   0.868   3.269  0.2945  0.1847  0.4868
  644MOL0     C86824   2.427   0.764   3.352  0.4747 -0.0466 -0.9830
  644MOL0     C86825   2.325   0.643   3.369  0.5577  0.2441 -0.6765
  644MOL0     C86826   2.292   0.623   3.518  0.2031  0.0444  0.7106
  644MOL0     C86827   2.197   0.738   3.557  0.4915  0.0044  0.1452
  644MOL0     C86828   2.154   0.740   3.702  0.3338 -0.3795  0.2129
  644MOL0     O86829   2.057   0.835   3.733  0.0278  0.1540  0.2131
  644MOL0     C86830   1.925   0.812   3.695 -0.7663  0.0290  0.2572
  644MOL0     C86831   1.850   0.735   3.770  0.3686 -0.3061 -0.5843
  644MOL0     C86832   1.717   0.698   3.742  0.3599 -0.0953 -0.3730
  644MOL0     C86833   1.634   0.620   3.843 -0.3133  0.2782 -0.2646
  644MOL0     C86834   1.652   0.744   3.628 -0.0302 -0.1627  0.1382
  644MOL0     C86835   1.516   0.721   3.590 -0.2521 -0.3023  0.2444
  644MOL0     O86836   1.444   0.832   3.562  0.4413  0.3455 -0.0139
  644MOL0     C86837   1.318   0.821   3.499  0.0973  0.0238 -0.2017
  644MOL0     C86838   1.208   0.758   3.563  1.0287  0.3534  0.5420
  644MOL0     C86839   1.084   0.752   3.493 -0.7336 -0.0092  0.9334
  644MOL0     C86840   1.076   0.813   3.368  0.4572  0.4892  0.5443
  644MOL0     O86841   0.946   0.831   3.318  0.3388  0.2147  0.9842
  644MOL0     C86842   0.928   0.832   3.178 -0.5584 -0.5966 -0.1211
  644MOL0     C86843   0.970   0.696   3.118 -0.3160  0.4528  0.7751
  644MOL0     C86844   0.933   0.689   2.972  0.0178 -0.2751  0.4518
  644MOL0     C86845   0.782   0.684   2.934 -1.2243  0.0393 -1.2713
  644MOL0     C86846   0.757   0.642   2.797  0.1851 -0.0343  0.2087
  644MOL0     C86847   0.609   0.671   2.750  0.0783 -0.0978  0.0681
  644MOL0     C86848   0.575   0.814   2.733 -0.5584 -0.0786 -0.0281
  644MOL0     C86849   0.432   0.831   2.702 -0.2510 -0.2791  0.1905
  644MOL0    Cl86850   0.395   0.980   2.596  0.0977 -0.1035 -0.4103
  644MOL0     C86851   1.188   0.878   3.306 -0.3070  1.1300  0.3524
  644MOL0     C86852   1.303   0.880   3.376 -0.0381  0.9061 -0.1393
  644MOL0     O86853   1.471   0.606   3.584 -0.1263  0.0464 -0.0102
  644MOL0     C86854   1.733   0.835   3.552 -0.8145  0.6016 -0.5279
  644MOL0     C86855   1.867   0.860   3.578  0.0045  0.3319 -0.1074
  644MOL0     N86856   2.531   0.779   3.439 -0.4117 -0.5115  0.3655
  644MOL0     N86857   2.602   0.887   3.407 -0.1771  0.2604  1.0648
  644MOL0     C86858   3.713   1.260   3.264  0.4187  0.9659 -0.4756
  644MOL0     C86859   3.849   1.297   3.280  0.1439 -0.0312 -0.4466
  644MOL0     C86860   4.295   1.282   3.199 -0.5674  0.2296  0.7210
  644MOL0     C86861   4.330   1.415   3.234  0.5995 -0.5642 -0.0386
  644MOL0     C86862   4.467   1.457   3.231  0.3493 -0.1530  0.3708
  644MOL0     C86863   4.568   1.361   3.209 -0.4871  0.3014  0.0171
  644MOL0     O86864   4.693   1.410   3.223  0.2357 -0.2555  0.2228
  644MOL0     C86865   4.778   1.338   3.326 -0.1261 -0.1737 -0.0711
  644MOL0     C86866   4.931   1.338   3.282  0.9773  0.4208  0.7554
  644MOL0     C86867   4.949   1.248   3.161  0.0856  0.2943 -0.0514
  644MOL0     C86868   5.095   1.220   3.129 -0.1771  0.0777 -1.1516
  644MOL0     C86869   5.111   1.162   2.994  0.1607 -0.2549  0.0415
  644MOL0     C86870   5.138   1.112   2.890 -0.6646  0.3808 -0.3631
  644MOL0     C86871   4.537   1.233   3.175  0.3667  0.3299 -0.1235
  644MOL0     C86872   4.400   1.189   3.170 -0.5717 -0.4078 -0.0538
  644MOL0     H86873   3.951   1.232   2.959 -1.5241  0.1314 -0.6515
  644MOL0     H86874   3.728   1.148   2.941  0.5145  2.0176 -1.6731
  644MOL0     H86875   3.481   1.046   3.269 -4.0287 -0.2986  2.9317
  644MOL0     H86876   3.452   1.220   3.295  1.4971 -0.8264  0.0744
  644MOL0     H86877   3.304   1.229   3.104  1.1828  0.2086 -0.9128
  644MOL0     H86878   3.314   1.046   3.092  2.2075 -1.0631  2.4663
  644MOL0     H86879   3.225   1.044   3.333 -2.8473 -0.8185 -0.0809
  644MOL0     H86880   3.197   1.214   3.328 -0.7611 -0.1709 -1.5132
  644MOL0     H86881   3.066   1.177   3.117  4.2255 -0.7729  0.8727
  644MOL0     H86882   3.075   0.998   3.139  1.0534 -1.6407  0.7964
  644MOL0     H86883   2.961   1.018   3.361 -3.0900 -0.6941 -0.0043
  644MOL0     H86884   2.971   1.192   3.349  1.3904 -0.0678 -1.9624
  644MOL0     H86885   2.823   1.159   3.127 -2.5079 -0.3225 -0.7529
  644MOL0     H86886   2.817   0.987   3.180  0.7229  0.0129  1.3244
  644MOL0     H86887   2.722   1.077   3.391  0.5344 -1.6661 -0.8049
  644MOL0     H86888   2.694   1.234   3.311 -0.6091  0.0970  0.8486
  644MOL0     H86889   2.563   1.062   3.142  1.1470 -1.9092  0.2701
  644MOL0     H86890   2.499   1.158   3.285  0.8213  0.2356  0.5588
  644MOL0     H86891   2.356   0.881   3.185  4.1458 -0.1891 -2.9471
  644MOL0     H86892   2.238   0.674   3.311 -0.8501 -2.2351 -0.0356
  644MOL0     H86893   2.367   0.553   3.323 -0.1321  0.6006 -2.0595
  644MOL0     H86894   2.376   0.626   3.587 -0.4578 -1.4045  1.6079
  644MOL0     H86895   2.241   0.527   3.528  0.7054 -0.4080 -0.7517
  644MOL0     H86896   2.113   0.727   3.489  1.0418 -1.8789 -0.2953
  644MOL0     H86897   2.239   0.833   3.523 -0.8842  0.2372 -0.9711
  644MOL0     H86898   2.254   0.754   3.745 -0.8089 -1.7761  3.6411
  644MOL0     H86899   2.114   0.645   3.738 -2.5439  1.0087  0.9344
  644MOL0     H86900   1.900   0.700   3.860 -1.3406 -0.8673  0.1813
  644MOL0     H86901   1.696   0.578   3.923 -1.4129  0.1058  0.5292
  644MOL0     H86902   1.563   0.696   3.879  0.0334  0.8092 -0.6964
  644MOL0     H86903   1.579   0.536   3.799  0.7551 -1.5279  1.6722
  644MOL0     H86904   1.215   0.712   3.661 -3.7283  0.3864  1.1412
  644MOL0     H86905   0.996   0.706   3.538  1.1257 -3.0316  1.7888
  644MOL0     H86906   0.822   0.857   3.169 -0.0933  1.3142 -0.5848
  644MOL0     H86907   0.990   0.910   3.135  0.7387 -0.6359  1.5534
  644MOL0     H86908   1.074   0.671   3.143 -0.8175  0.2062  2.6965
  644MOL0     H86909   0.909   0.619   3.164  1.1201 -1.3580 -0.2286
  644MOL0     H86910   0.977   0.594   2.941  0.2948 -0.2613  0.7887
  644MOL0     H86911   0.979   0.778   2.927 -0.6016 -0.4012 -0.4662
  644MOL0     H86912   0.715   0.626   2.998 -1.4972  1.8485  0.1821
  644MOL0     H86913   0.750   0.789   2.938 -0.2959  0.3825 -2.1827
  644MOL0     H86914   0.783   0.537   2.779 -1.2092 -0.2252 -0.8218
  644MOL0     H86915   0.820   0.705   2.733 -2.4152  3.1902  0.5590
  644MOL0     H86916   0.599   0.617   2.655 -1.7279  1.3383 -0.6235
  644MOL0     H86917   0.549   0.623   2.828  2.6114 -0.8118  1.6797
  644MOL0     H86918   0.631   0.849   2.645 -1.2037 -3.2801 -1.8813
  644MOL0     H86919   0.602   0.873   2.821 -0.5467 -1.4915  0.9462
  644MOL0     H86920   0.383   0.844   2.799 -0.1623 -1.3004  0.3768
  644MOL0     H86921   0.392   0.745   2.648 -0.1476  0.6150 -1.3713
  644MOL0     H86922   1.190   0.929   3.210  1.9660 -0.4598 -0.5283
  644MOL0     H86923   1.381   0.935   3.324 -2.1777  5.3333  0.8063
  644MOL0     H86924   1.678   0.894   3.479  0.4323 -0.4734 -2.4450
  644MOL0     H86925   1.925   0.919   3.508  0.6849 -1.4295 -1.0964
  644MOL0     H86926   3.646   1.250   3.349  0.7904 -0.8407 -0.3448
  644MOL0     H86927   3.888   1.322   3.378 -1.1147 -0.2282  0.1250
  644MOL0     H86928   4.255   1.486   3.266 -0.3313 -1.8830  0.7862
  644MOL0     H86929   4.508   1.555   3.251  1.1093 -0.2387 -0.6468
  644MOL0     H86930   4.768   1.388   3.423 -2.6240 -0.3197 -0.1956
  644MOL0     H86931   4.746   1.235   3.341  1.5836 -0.7498 -0.1539
  644MOL0     H86932   4.995   1.292   3.359  0.6086 -0.9056  0.3043
  644MOL0     H86933   4.962   1.441   3.263 -1.0871  0.4681 -3.3523
  644MOL0     H86934   4.895   1.294   3.077 -1.3736 -1.8422 -0.3626
  644MOL0     H86935   4.902   1.151   3.176  2.1508 -0.6550  0.6222
  644MOL0     H86936   5.138   1.143   3.194  0.3597 -0.3731 -2.0178
  644MOL0     H86937   5.147   1.314   3.148  2.4661 -1.3118 -1.0279
  644MOL0     H86938   5.153   1.073   2.791  1.5984 -1.5345  0.6415
  644MOL0     H86939   4.612   1.155   3.160 -0.3667 -0.4952  0.4568
  644MOL0     H86940   4.383   1.087   3.137 -0.7492  0.3600 -2.5315
  645MOL0     O86941   2.864   5.086   2.341  0.4492  0.1264  0.0019
  645MOL0     C86942   2.860   5.084   2.468  0.1466 -0.2400  0.3020
  645MOL0     O86943   2.754   5.120   2.546 -0.1164 -0.0615 -0.4315
  645MOL0     C86944   2.640   5.164   2.487  0.6708 -0.7170  0.5578
  645MOL0     C86945   2.524   5.104   2.520  0.2400  0.1597 -0.2765
  645MOL0     C86946   2.403   5.120   2.463 -0.6838  0.0775 -0.0186
  645MOL0     C86947   2.388   5.234   2.382  0.4180 -0.3643  0.5644
  645MOL0     O86948   2.274   5.282   2.322 -0.3602  0.6314 -0.6557
  645MOL0     C86949   2.195   5.176   2.274 -0.3745 -0.3429 -0.5460
  645MOL0     C86950   2.103   5.242   2.174  0.7386 -0.1711 -0.0912
  645MOL0     C86951   2.014   5.139   2.099  0.4402  0.5984 -0.1530
  645MOL0     C86952   1.937   5.221   1.994 -0.2261  0.5225  0.1654
  645MOL0     C86953   1.816   5.135   1.946 -0.0995 -0.5616 -0.1149
  645MOL0     C86954   1.738   5.231   1.851  1.1566 -0.3922 -0.1430
  645MOL0     C86955   1.608   5.168   1.803  1.2252  0.6692  0.4588
  645MOL0     C86956   1.522   5.276   1.732 -0.4039 -0.0223 -0.4539
  645MOL0     N86957   1.395   5.214   1.688 -0.4859  0.0730  0.1383
  645MOL0     C86958   1.298   5.165   1.773 -0.6679 -0.4989 -0.2500
  645MOL0     C86959   1.222   5.091   1.693  0.2503  0.7216  0.2408
  645MOL0     C86960   1.098   5.021   1.735  0.5491 -0.0809 -0.5160
  645MOL0     C86961   1.000   5.121   1.811 -0.2108 -0.1297  0.4632
  645MOL0     C86962   0.883   5.036   1.860  0.9634  0.7988  0.9198
  645MOL0     C86963   0.785   5.113   1.938 -0.1496  0.2769 -0.3061
  645MOL0     O86964   0.693   5.019   1.985 -0.3578 -0.6976 -0.7749
  645MOL0     C86965   0.572   5.068   2.026 -0.4573  0.2168  1.3616
  645MOL0     C86966   0.464   4.981   2.053  0.2568  0.3268  0.3453
  645MOL0     C86967   0.347   5.024   2.103 -0.6178  0.4897 -0.3159
  645MOL0     C86968   0.245   4.915   2.125  0.0851 -0.1926 -0.0069
  645MOL0     C86969   0.329   5.152   2.136 -0.7027 -0.3536 -0.0808
  645MOL0     C86970   0.207   5.218   2.197  0.1957  0.2811  0.7469
  645MOL0     O86971   0.144   5.162   2.300 -0.2058 -0.2750 -0.1732
  645MOL0     C86972   0.032   5.225   2.352  0.2623 -0.0816  0.0696
  645MOL0     C86973   0.043   5.302   2.464 -0.0714  0.0340  0.2577
  645MOL0     C86974  -0.059   5.382   2.517 -0.1431 -0.4772  0.3911
  645MOL0     C86975  -0.182   5.368   2.462  0.0740 -0.6119 -0.2226
  645MOL0     O86976  -0.286   5.428   2.526  0.8988  0.1166  0.0102
  645MOL0     C86977  -0.408   5.353   2.541 -0.5171  0.3727  0.0832
  645MOL0     C86978  -0.488   5.442   2.630  0.4726 -0.7359  0.6972
  645MOL0     C86979  -0.626   5.381   2.655  0.4169  0.4638  1.0769
  645MOL0     C86980  -0.722   5.485   2.713  0.1134  0.3838  0.4586
  645MOL0     C86981  -0.857   5.424   2.739  1.1157  0.0944 -0.2533
  645MOL0     C86982  -0.939   5.522   2.827 -1.4819 -0.2001 -0.2843
  645MOL0     C86983  -1.024   5.616   2.734  0.0488 -0.0167 -0.8998
  645MOL0     C86984  -1.105   5.708   2.817  0.3910 -0.3364 -0.1979
  645MOL0    Cl86985  -1.210   5.618   2.937  0.2226 -0.3102 -0.4551
  645MOL0     C86986  -0.199   5.285   2.351 -0.5980 -0.6976 -0.0441
  645MOL0     C86987  -0.095   5.212   2.302 -0.0600 -1.0816  0.4684
  645MOL0     O86988   0.171   5.324   2.147 -0.5490 -0.0270 -0.2037
  645MOL0     C86989   0.430   5.249   2.105  0.3729  0.3332 -0.0462
  645MOL0     C86990   0.550   5.204   2.050  0.3345  0.2623 -0.2372
  645MOL0     N86991   1.268   5.100   1.563 -0.0754  0.2496 -0.0663
  645MOL0     N86992   1.373   5.178   1.560  0.6942 -0.1621 -0.3395
  645MOL0     C86993   2.499   5.318   2.363  0.9790 -0.4563  0.8090
  645MOL0     C86994   2.630   5.277   2.408 -0.8701 -1.2246  0.5863
  645MOL0     C86995   2.997   5.053   2.520  0.1321 -0.1476  0.7540
  645MOL0     C86996   3.109   5.040   2.436  0.6750 -0.2121  0.2023
  645MOL0     C86997   3.232   5.011   2.490  0.2869 -0.4624  0.1908
  645MOL0     C86998   3.254   4.994   2.627 -0.0061  0.2215 -0.2578
  645MOL0     O86999   3.383   4.967   2.668  0.3324 -0.2491  0.2369
  645MOL0     C87000   3.405   4.957   2.811  0.5824 -0.4369 -0.1705
  645MOL0     C87001   3.537   5.021   2.845 -0.9719 -1.0573  0.2435
  645MOL0     C87002   3.667   4.967   2.775 -0.2245  0.7309  0.0885
  645MOL0     C87003   3.797   5.046   2.821  0.4197 -0.2692 -0.1989
  645MOL0     C87004   3.815   5.169   2.738 -0.3678  0.1368 -0.4058
  645MOL0     C87005   3.855   5.263   2.683 -0.1400 -0.1391 -0.2600
  645MOL0     C87006   3.143   5.008   2.709  0.1114  1.0676 -0.0463
  645MOL0     C87007   3.018   5.040   2.651 -0.0440 -0.0959  0.9868
  645MOL0     H87008   2.522   5.027   2.597 -3.3189  0.0697 -0.3058
  645MOL0     H87009   2.324   5.047   2.472 -1.4172  0.7426 -0.8791
  645MOL0     H87010   2.260   5.100   2.230  0.5235 -0.4359  0.8642
  645MOL0     H87011   2.130   5.138   2.353 -0.0175  1.0889  0.4821
  645MOL0     H87012   2.044   5.319   2.224 -0.2162 -1.4214  0.8121
  645MOL0     H87013   2.160   5.282   2.090  1.0339  0.8467  0.5779
  645MOL0     H87014   2.076   5.070   2.042 -0.7968 -1.3400  0.7443
  645MOL0     H87015   1.948   5.085   2.168 -0.6110 -0.6994 -2.0992
  645MOL0     H87016   1.908   5.318   2.035  2.3963  1.7152 -0.6190
  645MOL0     H87017   2.003   5.241   1.909 -1.3867 -0.9134 -1.1678
  645MOL0     H87018   1.858   5.050   1.891  1.5732  0.3351 -0.2746
  645MOL0     H87019   1.751   5.103   2.028  2.5752 -2.2094  1.5218
  645MOL0     H87020   1.707   5.323   1.902 -0.8195 -0.9556 -0.2446
  645MOL0     H87021   1.810   5.255   1.773  1.1623 -1.6087 -0.5283
  645MOL0     H87022   1.631   5.098   1.722 -0.9569 -1.2086  1.3282
  645MOL0     H87023   1.560   5.114   1.885  1.8421  3.4996  2.8132
  645MOL0     H87024   1.578   5.310   1.644  2.9118  0.2237  1.5518
  645MOL0     H87025   1.500   5.365   1.791 -0.2298 -1.8397  2.5547
  645MOL0     H87026   1.271   5.192   1.875 -1.9059  0.4211 -0.8021
  645MOL0     H87027   1.039   4.978   1.654 -1.1206 -1.3273  1.2641
  645MOL0     H87028   1.132   4.939   1.798  2.1725 -0.3150 -1.6261
  645MOL0     H87029   0.960   5.201   1.749 -1.7355 -1.5553 -0.4638
  645MOL0     H87030   1.055   5.150   1.901  1.9049  0.9319 -1.0873
  645MOL0     H87031   0.917   4.948   1.915  1.6492 -1.8759 -3.2581
  645MOL0     H87032   0.836   4.993   1.770  2.0623  1.1346  0.1652
  645MOL0     H87033   0.731   5.179   1.869 -0.4736 -0.7447 -1.0387
  645MOL0     H87034   0.837   5.176   2.011  0.0264  1.6593 -1.5797
  645MOL0     H87035   0.478   4.878   2.022  1.1966  0.8594 -1.0741
  645MOL0     H87036   0.172   4.946   2.201  1.9268  2.3518  0.8778
  645MOL0     H87037   0.205   4.882   2.028  0.5815 -1.2137  0.1243
  645MOL0     H87038   0.291   4.822   2.160 -2.2396 -1.4110  0.0599
  645MOL0     H87039   0.138   5.326   2.511 -0.3663  0.7161  0.5354
  645MOL0     H87040  -0.034   5.432   2.610 -0.3583 -1.7636  1.1723
  645MOL0     H87041  -0.457   5.327   2.447 -0.5071  0.7102 -0.0156
  645MOL0     H87042  -0.388   5.266   2.605 -1.2647  1.0754  1.3166
  645MOL0     H87043  -0.435   5.463   2.723 -0.2449 -2.5387  1.5506
  645MOL0     H87044  -0.502   5.537   2.576 -2.0851 -2.5514 -2.1525
  645MOL0     H87045  -0.620   5.296   2.724 -0.7919 -1.4083 -0.9975
  645MOL0     H87046  -0.654   5.347   2.555  2.1142 -1.9377  1.3187
  645MOL0     H87047  -0.681   5.515   2.810  0.3483  1.3367  0.0753
  645MOL0     H87048  -0.739   5.575   2.653 -0.2546 -0.4820 -0.7795
  645MOL0     H87049  -0.833   5.333   2.793 -0.7977 -0.6810 -0.6155
  645MOL0     H87050  -0.917   5.402   2.650 -0.9695 -1.3084  1.3925
  645MOL0     H87051  -1.009   5.463   2.887  1.7464 -1.6809  2.2987
  645MOL0     H87052  -0.876   5.576   2.898  0.8892  0.1921 -2.5254
  645MOL0     H87053  -1.100   5.560   2.679 -0.2561  1.2510 -1.7999
  645MOL0     H87054  -0.960   5.670   2.664 -0.0714  0.6087 -0.5408
  645MOL0     H87055  -1.167   5.775   2.756  0.3432  0.6311  0.8793
  645MOL0     H87056  -1.040   5.776   2.872 -1.2918  1.2034 -0.0082
  645MOL0     H87057  -0.292   5.267   2.298 -0.8136 -0.3891  0.2253
  645MOL0     H87058  -0.103   5.156   2.209 -0.5913 -3.4646  1.8678
  645MOL0     H87059   0.415   5.355   2.122  0.7117  0.3545  0.1035
  645MOL0     H87060   0.618   5.287   2.031  1.5248 -0.5271  0.4012
  645MOL0     H87061   2.498   5.411   2.308  1.9055  0.1520  1.7794
  645MOL0     H87062   2.720   5.332   2.379 -0.6380 -2.2208 -0.6934
  645MOL0     H87063   3.100   5.048   2.329 -0.9485 -1.1567  0.2362
  645MOL0     H87064   3.311   4.999   2.416 -0.1424 -0.0972 -0.3387
  645MOL0     H87065   3.341   5.018   2.874  0.4282  0.2259 -0.9540
  645MOL0     H87066   3.396   4.854   2.848  0.3120 -0.1319  0.6296
  645MOL0     H87067   3.551   5.014   2.953 -4.2167  1.2843  0.9828
  645MOL0     H87068   3.531   5.128   2.827  0.9777 -1.1005 -0.9401
  645MOL0     H87069   3.644   4.987   2.670  0.0544  2.1316  0.2651
  645MOL0     H87070   3.678   4.860   2.789 -0.3250  0.7294  0.1603
  645MOL0     H87071   3.879   4.979   2.794 -0.5416 -0.4575 -2.9735
  645MOL0     H87072   3.791   5.073   2.927  1.7012  0.6040 -0.3200
  645MOL0     H87073   3.888   5.359   2.649 -0.8857  0.0235 -0.5438
  645MOL0     H87074   3.137   5.000   2.817  0.5760 -0.0341 -0.0882
  645MOL0     H87075   2.934   5.063   2.715 -0.6135  1.8207 -0.3600
  646MOL0     O87076   8.964  11.190   8.154  0.8035 -0.6069  0.1476
  646MOL0     C87077   8.994  11.077   8.115  0.0677 -0.2468  0.2194
  646MOL0     O87078   8.905  10.976   8.078  0.6116 -0.3413  0.2176
  646MOL0     C87079   8.765  10.999   8.093 -0.1163 -0.5015 -0.8257
  646MOL0     C87080   8.697  11.089   8.012 -0.6094 -0.0454  0.2967
  646MOL0     C87081   8.560  11.107   8.025  0.5416 -0.3718  0.5701
  646MOL0     C87082   8.490  11.038   8.119  0.4382  0.4597  0.2027
  646MOL0     O87083   8.358  11.048   8.139  0.4350  0.3292  0.0310
  646MOL0     C87084   8.269  11.045   8.022 -0.7567 -0.3159  0.0136
  646MOL0     C87085   8.129  11.014   8.060  0.0709 -0.5470 -0.2834
  646MOL0     C87086   8.044  10.986   7.934 -0.1671 -0.3580 -0.9301
  646MOL0     C87087   7.891  10.997   7.949  0.1174 -0.0673 -0.7905
  646MOL0     C87088   7.816  10.894   8.040 -0.5991  0.1886  0.3558
  646MOL0     C87089   7.667  10.909   8.029 -0.2979 -0.0153  1.0137
  646MOL0     C87090   7.587  10.783   8.058 -0.5639 -0.4953  0.3432
  646MOL0     C87091   7.446  10.807   8.133 -0.2296 -0.3877  0.4180
  646MOL0     N87092   7.346  10.867   8.047  0.0235 -0.0200  0.5058
  646MOL0     C87093   7.277  10.802   7.947 -0.0046 -0.0934 -0.4855
  646MOL0     C87094   7.219  10.907   7.876  0.5012 -0.2567 -1.1591
  646MOL0     C87095   7.137  10.897   7.749  0.5323  0.1252  0.2717
  646MOL0     C87096   7.007  10.974   7.778  0.2172 -0.0460  0.2349
  646MOL0     C87097   6.917  10.958   7.656 -0.0883 -0.2571  0.2989
  646MOL0     C87098   6.785  11.029   7.688  0.0138 -0.4532 -0.3600
  646MOL0     O87099   6.684  10.947   7.642  0.6520 -0.5302 -0.2388
  646MOL0     C87100   6.560  10.966   7.682 -0.0024 -0.5290 -0.5464
  646MOL0     C87101   6.482  11.070   7.632 -0.3547  0.1342 -0.0486
  646MOL0     C87102   6.350  11.086   7.683 -0.4852 -0.4237 -0.0297
  646MOL0     C87103   6.279  11.211   7.625  0.4738 -0.0713  0.0880
  646MOL0     C87104   6.293  10.989   7.776  0.2490  0.3378  0.1185
  646MOL0     C87105   6.152  10.989   7.821 -0.4773  0.2812  1.1807
  646MOL0     O87106   6.118  10.866   7.874  0.2408 -0.2194  0.0068
  646MOL0     C87107   5.983  10.858   7.921 -1.2816 -0.1203 -0.2901
  646MOL0     C87108   5.945  10.903   8.048  0.0955  0.4550 -0.9357
  646MOL0     C87109   5.811  10.914   8.096  0.6806 -0.0982 -0.0967
  646MOL0     C87110   5.712  10.852   8.019 -0.2474 -0.1672  0.5487
  646MOL0     O87111   5.580  10.843   8.056 -0.0170  0.1499  0.0549
  646MOL0     C87112   5.556  10.787   8.188  0.2424 -0.0785  0.9231
  646MOL0     C87113   5.418  10.824   8.254 -1.1594 -0.3218  0.6006
  646MOL0     C87114   5.304  10.726   8.209 -0.5659 -1.1784  0.0871
  646MOL0     C87115   5.174  10.799   8.172 -0.5388  0.0308 -0.3288
  646MOL0     C87116   5.181  10.873   8.037 -0.1729 -0.0864 -0.7241
  646MOL0     C87117   5.123  10.782   7.921  0.9011 -0.3383 -0.6257
  646MOL0     C87118   5.184  10.647   7.893  0.4771 -0.5976  0.4542
  646MOL0     C87119   5.135  10.586   7.765  0.5488 -0.2621  0.3357
  646MOL0    Cl87120   4.967  10.518   7.796  0.1273 -0.2052 -0.0324
  646MOL0     C87121   5.749  10.806   7.887  0.5378 -0.4045 -0.2224
  646MOL0     C87122   5.884  10.799   7.840 -0.4724  0.6905  0.2337
  646MOL0     O87123   6.073  11.081   7.808 -0.5735  0.3447 -0.6069
  646MOL0     C87124   6.379  10.886   7.822 -0.1205  1.0412 -0.7571
  646MOL0     C87125   6.513  10.867   7.778 -0.2168 -0.6468 -0.2613
  646MOL0     N87126   7.252  11.024   7.948  0.0100  0.4624 -0.8536
  646MOL0     N87127   7.334  10.995   8.037  0.3326 -0.7402  0.7896
  646MOL0     C87128   8.559  10.955   8.205 -0.0853 -0.3432  0.7117
  646MOL0     C87129   8.694  10.931   8.194 -0.2390 -0.6976 -0.4437
  646MOL0     C87130   9.137  11.051   8.101  0.1659  0.9229 -0.1919
  646MOL0     C87131   9.185  10.923   8.057 -0.2869 -0.6596 -0.4818
  646MOL0     C87132   9.320  10.904   8.039 -0.3688  0.4974  0.4887
  646MOL0     C87133   9.414  10.999   8.081  0.1764 -0.7578  0.7162
  646MOL0     O87134   9.538  10.960   8.059  0.2099  0.2574  0.3747
  646MOL0     C87135   9.647  11.035   8.119  0.5404  0.2730  0.0804
  646MOL0     C87136   9.788  10.974   8.109 -0.2008  0.8128 -0.0384
  646MOL0     C87137   9.892  11.079   8.153 -0.1086 -1.3210 -0.1241
  646MOL0     C87138  10.029  11.017   8.120  0.5468 -0.5487  0.0758
  646MOL0     C87139  10.129  11.072   8.213  1.2974 -0.2060 -0.0047
  646MOL0     C87140  10.192  11.144   8.291 -0.3346 -0.8302  0.1410
  646MOL0     C87141   9.367  11.123   8.137 -0.9206  0.1540 -0.2767
  646MOL0     C87142   9.232  11.151   8.140 -0.1137  0.7742 -0.0531
  646MOL0     H87143   8.754  11.141   7.936 -2.1997  1.4130  0.0325
  646MOL0     H87144   8.503  11.175   7.962  0.3019  0.3365  1.5277
  646MOL0     H87145   8.273  11.130   7.954  0.3480 -0.4451 -0.1095
  646MOL0     H87146   8.303  10.959   7.964 -2.3831 -0.4553 -0.7708
  646MOL0     H87147   8.140  10.919   8.113  1.4556 -1.0334 -1.3881
  646MOL0     H87148   8.076  11.085   8.125 -1.1349 -2.1779  0.6077
  646MOL0     H87149   8.074  11.056   7.855  0.8257 -2.3127 -2.3990
  646MOL0     H87150   8.069  10.883   7.904 -0.0820 -0.6421  0.0805
  646MOL0     H87151   7.867  11.095   7.991 -1.8051 -1.1792  0.8480
  646MOL0     H87152   7.842  10.996   7.851  0.3187  1.6258 -0.9461
  646MOL0     H87153   7.853  10.792   8.023  1.5708  0.8610  0.8048
  646MOL0     H87154   7.836  10.913   8.146 -3.8989  0.4143  1.0573
  646MOL0     H87155   7.630  10.983   8.100 -0.8556  0.2381  0.4680
  646MOL0     H87156   7.633  10.946   7.932 -1.1609 -2.6152  0.2577
  646MOL0     H87157   7.575  10.726   7.966 -0.0192 -2.5594  1.4724
  646MOL0     H87158   7.644  10.719   8.126 -1.3640 -2.2148 -0.5397
  646MOL0     H87159   7.466  10.872   8.219  2.7732 -0.1752 -0.3171
  646MOL0     H87160   7.420  10.704   8.158  2.1028 -2.2053 -3.7713
  646MOL0     H87161   7.265  10.698   7.917 -2.6690 -0.9704  2.9641
  646MOL0     H87162   7.181  10.952   7.665 -0.8874  0.7047 -0.1296
  646MOL0     H87163   7.119  10.794   7.717 -0.7082  1.3730 -3.6657
  646MOL0     H87164   7.023  11.082   7.790  2.1904 -0.4808  2.2313
  646MOL0     H87165   6.965  10.930   7.869  1.6464 -1.2467  0.3460
  646MOL0     H87166   6.904  10.850   7.644  1.2347 -0.4535  0.5022
  646MOL0     H87167   6.976  11.001   7.574  1.7720 -1.3699  1.0054
  646MOL0     H87168   6.786  11.125   7.635  1.0292 -0.9182 -1.2544
  646MOL0     H87169   6.774  11.050   7.794  2.4800  0.8860 -0.2859
  646MOL0     H87170   6.529  11.140   7.564  0.2201  0.3913  0.6032
  646MOL0     H87171   6.328  11.242   7.532  0.5140 -3.0704 -1.0165
  646MOL0     H87172   6.177  11.183   7.598  0.7901 -1.7580  0.4870
  646MOL0     H87173   6.269  11.296   7.693  1.4058 -0.9581  1.3869
  646MOL0     H87174   6.008  10.951   8.122 -0.3934 -1.6969  1.0082
  646MOL0     H87175   5.780  10.964   8.187 -1.9667  0.4760 -1.2053
  646MOL0     H87176   5.556  10.679   8.173 -0.0793  0.2672 -2.5648
  646MOL0     H87177   5.627  10.812   8.267  0.1875  1.6499  0.4779
  646MOL0     H87178   5.425  10.822   8.363 -1.2697 -0.8070  0.6010
  646MOL0     H87179   5.396  10.928   8.227  0.3950  0.2856  1.5737
  646MOL0     H87180   5.291  10.653   8.289 -2.1280 -0.8514  0.1609
  646MOL0     H87181   5.336  10.679   8.115 -0.9813 -3.2132  0.9250
  646MOL0     H87182   5.089  10.731   8.184 -0.6858  0.7170  4.3775
  646MOL0     H87183   5.156  10.876   8.247 -0.0497  0.2319 -0.4168
  646MOL0     H87184   5.288  10.892   8.022  0.7694 -4.7314 -1.3899
  646MOL0     H87185   5.117  10.962   8.043  0.6766  0.7337 -2.7278
  646MOL0     H87186   5.020  10.762   7.952  1.7615 -2.1818  1.2706
  646MOL0     H87187   5.124  10.849   7.834  0.7497 -0.7300 -0.9315
  646MOL0     H87188   5.162  10.583   7.979 -2.6680  2.7245  2.4240
  646MOL0     H87189   5.292  10.663   7.889  0.7503 -1.0832  3.3627
  646MOL0     H87190   5.203  10.506   7.735  0.0624 -0.1453 -1.2160
  646MOL0     H87191   5.125  10.659   7.684  1.3157  1.0243  1.3609
  646MOL0     H87192   5.663  10.767   7.833 -0.1112 -1.9096  1.7567
  646MOL0     H87193   5.905  10.752   7.744  0.4790 -0.8618  1.1637
  646MOL0     H87194   6.345  10.806   7.887  0.1691 -0.5848 -2.5222
  646MOL0     H87195   6.578  10.785   7.806  0.4423  0.0528  0.2879
  646MOL0     H87196   8.500  10.910   8.284  3.0684  0.6733  3.9343
  646MOL0     H87197   8.743  10.877   8.274  0.3244  0.3120 -0.0841
  646MOL0     H87198   9.106  10.855   8.027 -3.0363  2.0294  0.1705
  646MOL0     H87199   9.354  10.807   8.004  2.0452  0.5054  2.5284
  646MOL0     H87200   9.652  11.137   8.079  0.8619  0.3646  0.3476
  646MOL0     H87201   9.623  11.033   8.226  0.0122 -0.9465 -0.0379
  646MOL0     H87202   9.791  10.955   8.001 -3.0426 -0.6102  0.0399
  646MOL0     H87203   9.801  10.887   8.174 -1.5912  2.1004  2.0959
  646MOL0     H87204   9.886  11.102   8.260  2.5980  0.5647 -0.2776
  646MOL0     H87205   9.875  11.169   8.094  0.7978 -2.2306 -1.8755
  646MOL0     H87206  10.065  11.041   8.020  1.2620  1.8565  0.8416
  646MOL0     H87207  10.029  10.910   8.143  0.6703 -0.1195  2.2364
  646MOL0     H87208  10.230  11.219   8.357  0.0024  0.7223 -1.7285
  646MOL0     H87209   9.437  11.203   8.161  0.6990 -1.6632  1.3411
  646MOL0     H87210   9.203  11.254   8.161  1.2555  1.1649  0.0117
  647MOL0     O87211   6.387   5.032  10.303  0.2027  0.2560  0.2318
  647MOL0     C87212   6.458   4.936  10.338  0.7786 -0.0069 -0.9602
  647MOL0     O87213   6.412   4.831  10.417  0.1298  0.8091 -0.1204
  647MOL0     C87214   6.285   4.824  10.466  0.3257  0.1174  0.8974
  647MOL0     C87215   6.170   4.815  10.386  0.6633  0.3249  0.2522
  647MOL0     C87216   6.044   4.801  10.439 -0.4168 -0.9801 -0.6681
  647MOL0     C87217   6.021   4.785  10.581 -0.2602  0.6312 -0.0330
  647MOL0     O87218   5.898   4.778  10.635 -0.4243 -0.1275  0.8951
  647MOL0     C87219   5.767   4.789  10.572 -0.5400  0.1963  0.0552
  647MOL0     C87220   5.666   4.755  10.681  0.1361  0.6228  0.7677
  647MOL0     C87221   5.521   4.773  10.623  0.3794  0.1624 -0.2715
  647MOL0     C87222   5.405   4.760  10.714  0.2056  0.0626 -0.8508
  647MOL0     C87223   5.266   4.810  10.663 -0.1004 -0.4146 -0.3394
  647MOL0     C87224   5.153   4.773  10.758  0.9325  0.1236 -0.0202
  647MOL0     C87225   5.139   4.843  10.896  0.4250 -0.0630 -0.1641
  647MOL0     C87226   5.110   4.990  10.896 -0.1331  0.0892  0.5873
  647MOL0     N87227   4.984   5.018  10.820  0.1112  0.6199  0.1445
  647MOL0     C87228   4.861   4.968  10.864  0.2618 -0.8471 -0.1516
  647MOL0     C87229   4.783   4.962  10.752 -0.2559  0.3088 -0.4295
  647MOL0     C87230   4.637   4.926  10.739 -0.0655  0.0860  0.2580
  647MOL0     C87231   4.548   5.023  10.809 -0.8042  0.4187  0.2592
  647MOL0     C87232   4.547   5.150  10.740  0.0092  0.3644  0.5066
  647MOL0     C87233   4.441   5.245  10.799 -0.2928 -1.0853  0.3858
  647MOL0     O87234   4.413   5.331  10.686 -0.2707  0.0565 -0.0077
  647MOL0     C87235   4.296   5.405  10.687  0.6159  0.0658  0.4650
  647MOL0     C87236   4.212   5.402  10.571  0.5879  0.6504  0.1963
  647MOL0     C87237   4.101   5.488  10.554 -0.4188 -0.3376  0.2196
  647MOL0     C87238   4.023   5.485  10.427  0.0194  0.3832  0.6653
  647MOL0     C87239   4.080   5.588  10.658  0.3081  0.7299 -0.4165
  647MOL0     C87240   3.959   5.670  10.673 -0.7213 -0.8624  0.1256
  647MOL0     O87241   3.983   5.801  10.724  0.7586  0.1157  0.1498
  647MOL0     C87242   3.861   5.870  10.757  0.0887  0.2926 -0.9936
  647MOL0     C87243   3.793   5.928  10.643  0.2177 -0.6418  0.3973
  647MOL0     C87244   3.673   5.991  10.660  0.3738 -0.1432 -0.5592
  647MOL0     C87245   3.622   6.012  10.784 -0.1537 -0.4317 -0.5156
  647MOL0     O87246   3.488   6.042  10.811 -0.2381 -0.6041 -0.1158
  647MOL0     C87247   3.441   6.164  10.749  0.3405  0.2936 -0.0621
  647MOL0     C87248   3.362   6.237  10.860  0.4627  0.2399 -0.5124
  647MOL0     C87249   3.445   6.310  10.962 -0.9517 -0.5858 -0.2848
  647MOL0     C87250   3.351   6.352  11.078 -1.1852  0.5310  0.0870
  647MOL0     C87251   3.447   6.420  11.179 -0.0431  1.1908  0.0374
  647MOL0     C87252   3.368   6.484  11.288  0.2945 -0.5769 -1.0611
  647MOL0     C87253   3.333   6.374  11.392  0.6123 -0.1358 -0.5600
  647MOL0     C87254   3.241   6.420  11.512  0.1917  0.2412  0.7569
  647MOL0    Cl87255   3.078   6.443  11.443 -0.2462 -0.1678 -0.1650
  647MOL0     C87256   3.696   5.979  10.893 -0.0072  0.2650 -0.0716
  647MOL0     C87257   3.819   5.904  10.882  0.9682  0.5290  0.4991
  647MOL0     O87258   3.853   5.630  10.635  0.0352  0.0406 -0.0278
  647MOL0     C87259   4.172   5.601  10.763  0.0146  0.1954  0.0724
  647MOL0     C87260   4.274   5.512  10.775 -0.2198 -0.4842 -0.3331
  647MOL0     N87261   4.865   4.998  10.643 -0.6281 -0.4751  0.3294
  647MOL0     N87262   4.978   5.032  10.687 -0.0293 -0.5778 -0.5367
  647MOL0     C87263   6.135   4.799  10.657  0.2041  1.1989 -0.2426
  647MOL0     C87264   6.261   4.819  10.606 -0.0692  0.4162  0.5302
  647MOL0     C87265   6.595   4.930  10.289 -0.1737  0.4058  1.3577
  647MOL0     C87266   6.634   5.022  10.191 -1.4623  0.1199 -0.0753
  647MOL0     C87267   6.771   5.032  10.149  0.5740 -0.8455 -0.0511
  647MOL0     C87268   6.872   4.955  10.208 -0.0817 -0.0787 -0.2733
  647MOL0     O87269   6.999   4.962  10.157  0.1113 -0.2264 -0.0091
  647MOL0     C87270   7.104   4.908  10.233 -0.9977 -0.3229  0.5338
  647MOL0     C87271   7.229   4.928  10.138  0.5452  0.1495  0.0123
  647MOL0     C87272   7.241   4.810  10.046  0.1710  0.9104 -0.1579
  647MOL0     C87273   7.343   4.835   9.939 -0.0327  0.1403  0.2060
  647MOL0     C87274   7.472   4.791   9.976 -0.6484  0.3871  0.1377
  647MOL0     C87275   7.577   4.744  10.016 -0.0166 -0.2633 -1.2905
  647MOL0     C87276   6.830   4.861  10.304  0.2835 -0.0105 -0.2785
  647MOL0     C87277   6.689   4.849  10.347  0.2124 -0.6269  0.0467
  647MOL0     H87278   6.181   4.809  10.278  0.5599 -3.0677  0.3156
  647MOL0     H87279   5.960   4.813  10.371  0.6221  3.4356 -1.4956
  647MOL0     H87280   5.761   4.894  10.540  1.6326  1.1938  2.5446
  647MOL0     H87281   5.747   4.722  10.488 -0.8755  1.1775 -0.6684
  647MOL0     H87282   5.690   4.654  10.716 -1.9136  0.9186  3.3677
  647MOL0     H87283   5.671   4.813  10.774  0.4295 -1.5913  2.2221
  647MOL0     H87284   5.512   4.877  10.590 -1.1116  1.5495  3.7997
  647MOL0     H87285   5.507   4.713  10.534 -1.8096 -0.1134  0.2030
  647MOL0     H87286   5.391   4.653  10.729  0.8677  0.1977  0.8659
  647MOL0     H87287   5.414   4.803  10.814  1.9064 -4.6587  1.3005
  647MOL0     H87288   5.259   4.917  10.642 -2.6853  0.1020  2.4736
  647MOL0     H87289   5.254   4.759  10.567  1.4209 -3.0116  0.7430
  647MOL0     H87290   5.063   4.786  10.696  1.1512 -2.4769 -1.0037
  647MOL0     H87291   5.150   4.667  10.786 -0.7792 -0.6798 -2.7677
  647MOL0     H87292   5.052   4.790  10.934 -0.0193  0.2606 -0.7125
  647MOL0     H87293   5.225   4.815  10.958  0.3094  1.0332  0.5254
  647MOL0     H87294   5.196   5.039  10.850  1.4431 -1.4264  1.7849
  647MOL0     H87295   5.100   5.028  10.998  0.7223  0.3962  0.5602
  647MOL0     H87296   4.841   4.939  10.966 -3.4872 -0.9690 -0.7869
  647MOL0     H87297   4.610   4.906  10.635 -0.1563  1.2935  0.0428
  647MOL0     H87298   4.630   4.829  10.790 -1.6623 -0.1579 -0.3492
  647MOL0     H87299   4.596   5.036  10.906  0.7863 -0.3448 -0.4030
  647MOL0     H87300   4.455   4.964  10.807  0.4378 -1.6271 -0.6275
  647MOL0     H87301   4.506   5.141  10.639 -0.4226  0.9891  0.6218
  647MOL0     H87302   4.647   5.195  10.746  0.5800 -1.0299  2.3498
  647MOL0     H87303   4.472   5.308  10.883  0.7847 -0.3670 -0.5166
  647MOL0     H87304   4.356   5.186  10.834 -0.8115 -1.0657 -0.7829
  647MOL0     H87305   4.237   5.329  10.495  0.0555  2.0730 -1.3949
  647MOL0     H87306   4.091   5.466  10.342  0.2251  0.9098  0.7038
  647MOL0     H87307   3.937   5.420  10.443 -0.2309  1.2050  2.8997
  647MOL0     H87308   3.975   5.578  10.396  1.3606  1.1675  0.8545
  647MOL0     H87309   3.832   5.906  10.544  0.0223 -2.3437  0.6684
  647MOL0     H87310   3.600   5.998  10.580 -0.1779  1.8148  0.0561
  647MOL0     H87311   3.525   6.231  10.726  2.0738 -0.8137  2.5248
  647MOL0     H87312   3.376   6.144  10.664 -0.9377 -2.4156  1.4364
  647MOL0     H87313   3.281   6.298  10.820 -0.5738 -1.5126 -1.1736
  647MOL0     H87314   3.307   6.158  10.911 -1.0158  0.9010 -1.0370
  647MOL0     H87315   3.493   6.395  10.913 -2.1286  0.0379 -0.4141
  647MOL0     H87316   3.524   6.244  10.996  2.8683  2.9824 -1.4559
  647MOL0     H87317   3.282   6.424  11.032 -0.1746  1.1066 -0.5660
  647MOL0     H87318   3.298   6.269  11.125  3.1428 -1.7739  1.4490
  647MOL0     H87319   3.505   6.503  11.137  1.5022  0.3405  0.4444
  647MOL0     H87320   3.519   6.351  11.224  0.3628  0.9020 -1.0199
  647MOL0     H87321   3.434   6.551  11.343  0.4609 -1.4623 -0.1440
  647MOL0     H87322   3.286   6.543  11.247  1.5206  1.7558 -0.2906
  647MOL0     H87323   3.425   6.335  11.436 -0.8365 -2.9408  0.2277
  647MOL0     H87324   3.277   6.294  11.344 -1.2729 -1.2812  3.1537
  647MOL0     H87325   3.274   6.518  11.549  0.4261  0.4489  0.0123
  647MOL0     H87326   3.244   6.351  11.597  0.9360 -1.3982 -0.5443
  647MOL0     H87327   3.647   6.004  10.987  0.9853  0.4797  0.3964
  647MOL0     H87328   3.861   5.857  10.972 -1.2628  2.2090  2.5350
  647MOL0     H87329   4.175   5.676  10.841  1.1747 -0.1445  0.3794
  647MOL0     H87330   4.343   5.526  10.858  2.0166  2.0967 -2.4507
  647MOL0     H87331   6.123   4.795  10.764 -0.0417 -2.8924 -0.2590
  647MOL0     H87332   6.348   4.807  10.671 -0.3342 -2.4936  0.4914
  647MOL0     H87333   6.562   5.083  10.138  0.0836  0.2410 -2.1457
  647MOL0     H87334   6.788   5.098  10.064 -2.9439 -1.2748 -1.2281
  647MOL0     H87335   7.118   4.961  10.327  1.9485  1.4523 -0.7472
  647MOL0     H87336   7.083   4.803  10.256  0.3599 -0.1605  2.8215
  647MOL0     H87337   7.323   4.945  10.190  0.1176 -0.2705  0.9345
  647MOL0     H87338   7.203   5.019  10.083  2.0450  2.4646  2.8373
  647MOL0     H87339   7.145   4.793   9.997  1.0595 -1.3127 -1.2643
  647MOL0     H87340   7.278   4.720  10.096  0.9224  0.1541 -1.9830
  647MOL0     H87341   7.347   4.940   9.909 -0.7778  0.5336  1.4037
  647MOL0     H87342   7.309   4.776   9.854  2.4794  1.0109 -1.5360
  647MOL0     H87343   7.665   4.713  10.069  0.4026 -0.8053 -2.2655
  647MOL0     H87344   6.890   4.778  10.340 -0.4664 -0.6298 -0.4052
  647MOL0     H87345   6.656   4.776  10.420 -1.9919 -2.1747 -2.3263
  648MOL0     O87346   1.519   8.642   8.000 -0.4667 -0.0009  0.5684
  648MOL0     C87347   1.559   8.718   7.916 -0.4511 -0.7303  0.1060
  648MOL0     O87348   1.475   8.785   7.829 -0.4506 -0.1419 -0.8234
  648MOL0     C87349   1.341   8.783   7.836  0.4697 -0.6202 -0.1774
  648MOL0     C87350   1.259   8.773   7.956 -0.7202  0.3599 -0.1557
  648MOL0     C87351   1.124   8.776   7.947  0.2253 -0.3190 -0.1804
  648MOL0     C87352   1.058   8.792   7.830  0.0256  0.5542 -0.5026
  648MOL0     O87353   0.923   8.815   7.830  1.0782  0.0459 -0.5633
  648MOL0     C87354   0.847   8.836   7.707  0.1652 -0.3818  0.5227
  648MOL0     C87355   0.697   8.829   7.734  0.5282  0.4108  0.3164
  648MOL0     C87356   0.604   8.808   7.602  0.4551 -0.4248  0.4131
  648MOL0     C87357   0.468   8.877   7.620  0.4769 -0.4744  0.4386
  648MOL0     C87358   0.404   8.887   7.480 -0.4431  0.0441  0.2835
  648MOL0     C87359   0.257   8.925   7.494 -0.8884 -0.1611  0.0160
  648MOL0     C87360   0.173   8.889   7.371 -0.0785  1.1427 -0.2484
  648MOL0     C87361   0.191   8.961   7.240  0.0996  0.3042  0.2984
  648MOL0     N87362   0.174   9.112   7.262 -0.2344  0.2660  0.1381
  648MOL0     C87363   0.053   9.173   7.296  0.1790 -0.0829  0.3203
  648MOL0     C87364   0.080   9.305   7.299  0.6701  0.7889  0.5817
  648MOL0     C87365  -0.009   9.428   7.309  0.3001 -0.1606 -0.5080
  648MOL0     C87366  -0.090   9.440   7.172 -0.1543  0.2036  0.3648
  648MOL0     C87367  -0.217   9.524   7.189  0.3491  0.7513  0.9930
  648MOL0     C87368  -0.331   9.443   7.260  0.3802 -0.0282 -0.4592
  648MOL0     O87369  -0.459   9.512   7.260  0.6082 -0.1428 -0.0650
  648MOL0     C87370  -0.541   9.460   7.157 -0.4922 -0.4256  0.1575
  648MOL0     C87371  -0.533   9.522   7.034 -0.2562  0.0631  0.4009
  648MOL0     C87372  -0.607   9.467   6.919  0.2659 -0.5136 -0.2488
  648MOL0     C87373  -0.606   9.553   6.800 -0.2986  0.3108  0.0488
  648MOL0     C87374  -0.671   9.336   6.932  0.1281  0.1302 -0.4218
  648MOL0     C87375  -0.737   9.278   6.814  0.9080  0.6845  0.2598
  648MOL0     O87376  -0.800   9.152   6.842  0.5916  0.0424 -0.5250
  648MOL0     C87377  -0.838   9.087   6.728 -0.2158  0.3790  0.1399
  648MOL0     C87378  -0.745   9.024   6.642  0.4210 -0.0880 -0.8675
  648MOL0     C87379  -0.797   8.946   6.539  0.4504 -1.3115 -0.0483
  648MOL0     C87380  -0.939   8.943   6.513 -0.8759 -0.7305  0.0892
  648MOL0     O87381  -0.977   8.883   6.401  1.3077  0.3760  0.0265
  648MOL0     C87382  -1.064   8.770   6.433 -0.3700 -0.5443  0.1507
  648MOL0     C87383  -1.042   8.662   6.328  0.6206 -0.3086  0.5722
  648MOL0     C87384  -0.898   8.618   6.324 -0.3117  0.2540  0.0910
  648MOL0     C87385  -0.876   8.489   6.237  0.7125 -0.9567 -0.1687
  648MOL0     C87386  -0.732   8.422   6.252  0.7893 -0.4613  0.0165
  648MOL0     C87387  -0.605   8.519   6.220 -0.2267  0.2257  0.5565
  648MOL0     C87388  -0.634   8.593   6.085 -0.5342  1.1761 -0.4420
  648MOL0     C87389  -0.508   8.678   6.057  0.3722  0.6096 -0.0115
  648MOL0    Cl87390  -0.441   8.763   6.203  0.4884 -0.4343 -0.0818
  648MOL0     C87391  -1.023   9.003   6.604  0.0427 -0.0037  0.4165
  648MOL0     C87392  -0.978   9.078   6.710 -0.0960  1.2810 -0.6074
  648MOL0     O87393  -0.745   9.331   6.708  0.1396 -0.4154  0.7632
  648MOL0     C87394  -0.661   9.268   7.062  0.3902 -0.4406 -0.1840
  648MOL0     C87395  -0.598   9.335   7.167 -1.3680  0.4670  0.5515
  648MOL0     N87396   0.211   9.324   7.274 -0.1810  0.4770 -0.1111
  648MOL0     N87397   0.270   9.212   7.252  0.7604  0.0656  0.8346
  648MOL0     C87398   1.140   8.800   7.713  0.1688 -0.5817  0.4627
  648MOL0     C87399   1.280   8.803   7.715 -0.2368  0.4318  0.6588
  648MOL0     C87400   1.698   8.725   7.878 -1.0760  0.5016 -0.3668
  648MOL0     C87401   1.799   8.647   7.945  1.1956  0.6248 -0.2263
  648MOL0     C87402   1.928   8.654   7.899  0.2228 -0.6973  0.5432
  648MOL0     C87403   1.958   8.742   7.787  0.6769 -0.4888  1.4877
  648MOL0     O87404   2.081   8.770   7.727  0.4988  0.5135 -0.9945
  648MOL0     C87405   2.190   8.683   7.764  0.0114 -0.3178 -0.4320
  648MOL0     C87406   2.185   8.544   7.699 -0.1943 -0.3182  0.3846
  648MOL0     C87407   2.302   8.464   7.744 -1.0600  0.2125 -0.1413
  648MOL0     C87408   2.321   8.336   7.665  0.2386  0.3981  0.0006
  648MOL0     C87409   2.222   8.229   7.685 -0.4304 -0.3107  0.5784
  648MOL0     C87410   2.144   8.139   7.708 -0.2384  0.6624  0.5964
  648MOL0     C87411   1.853   8.796   7.712 -0.3267 -0.4732  0.3533
  648MOL0     C87412   1.733   8.800   7.771  0.8643  0.2755 -0.3621
  648MOL0     H87413   1.295   8.769   8.058 -2.0831 -0.1317  0.3267
  648MOL0     H87414   1.053   8.775   8.030 -1.6971 -0.3357 -1.7389
  648MOL0     H87415   0.874   8.933   7.663  2.5047  0.9051  4.2767
  648MOL0     H87416   0.863   8.752   7.639 -2.9325  0.1163 -0.9647
  648MOL0     H87417   0.677   8.740   7.794  0.8356 -0.7900 -1.2949
  648MOL0     H87418   0.663   8.918   7.788 -0.2913  1.0462 -1.1934
  648MOL0     H87419   0.648   8.860   7.516 -0.6919  0.6731  0.4543
  648MOL0     H87420   0.595   8.701   7.581  1.7587 -0.8546  1.8704
  648MOL0     H87421   0.404   8.819   7.687  0.1674 -2.1204 -1.2075
  648MOL0     H87422   0.480   8.972   7.672  0.6246 -0.9439  1.2796
  648MOL0     H87423   0.443   8.971   7.421 -0.5431  0.9002  1.4131
  648MOL0     H87424   0.412   8.790   7.430 -1.7181 -1.0382  2.0662
  648MOL0     H87425   0.221   8.882   7.588  4.3246 -0.4710  2.1764
  648MOL0     H87426   0.255   9.034   7.502 -0.4769 -0.1178 -0.4303
  648MOL0     H87427   0.179   8.783   7.343  1.1580  1.1105  0.0990
  648MOL0     H87428   0.069   8.899   7.402 -0.0253 -0.0415  0.3831
  648MOL0     H87429   0.112   8.933   7.170  1.6299 -0.0330 -1.3747
  648MOL0     H87430   0.292   8.947   7.200  0.0207 -1.6784  0.6853
  648MOL0     H87431  -0.039   9.117   7.310 -0.3486  0.4810 -0.7815
  648MOL0     H87432  -0.077   9.416   7.393  1.0105  0.0633  0.1038
  648MOL0     H87433   0.053   9.512   7.341  1.8355 -1.5837  0.3920
  648MOL0     H87434  -0.119   9.340   7.137  4.9657 -1.1248 -1.0807
  648MOL0     H87435  -0.017   9.485   7.104  2.8531  1.5405  4.0884
  648MOL0     H87436  -0.247   9.560   7.090  0.5015  0.3573  0.8026
  648MOL0     H87437  -0.200   9.616   7.246  1.0018  0.6253  1.0000
  648MOL0     H87438  -0.309   9.418   7.364 -0.5980  1.1875  0.0575
  648MOL0     H87439  -0.329   9.352   7.198  1.4704  0.0579 -0.5716
  648MOL0     H87440  -0.474   9.613   7.031 -0.2287  0.0785  1.1427
  648MOL0     H87441  -0.706   9.575   6.761 -0.2805 -1.0260 -0.7974
  648MOL0     H87442  -0.543   9.641   6.820 -0.9148  0.2734  2.4840
  648MOL0     H87443  -0.551   9.497   6.724 -2.7339 -0.1176 -1.5379
  648MOL0     H87444  -0.644   9.041   6.677  0.1918  1.1363 -0.7588
  648MOL0     H87445  -0.724   8.893   6.478  0.3217 -5.1678  2.7679
  648MOL0     H87446  -1.038   8.726   6.529 -1.7068 -1.7831 -0.0284
  648MOL0     H87447  -1.169   8.799   6.434 -0.0921  0.4980  0.7187
  648MOL0     H87448  -1.110   8.583   6.361 -1.0057  2.1918  3.8073
  648MOL0     H87449  -1.073   8.702   6.231 -2.4224  0.1249  1.6077
  648MOL0     H87450  -0.861   8.600   6.425  0.3312  0.9938  0.0022
  648MOL0     H87451  -0.832   8.699   6.291  1.5849 -1.7583 -1.2605
  648MOL0     H87452  -0.950   8.414   6.266  0.7567 -0.8575  0.2129
  648MOL0     H87453  -0.891   8.508   6.130 -0.1770  2.7211  0.4610
  648MOL0     H87454  -0.725   8.338   6.182 -2.5593  0.3347 -1.5220
  648MOL0     H87455  -0.706   8.395   6.355  1.0689  1.1801  0.4041
  648MOL0     H87456  -0.612   8.587   6.305 -1.9516 -0.1888  0.7878
  648MOL0     H87457  -0.507   8.471   6.225 -0.1251  0.5427  2.4569
  648MOL0     H87458  -0.721   8.659   6.097 -0.6535  0.8895  0.2928
  648MOL0     H87459  -0.655   8.518   6.009 -1.1136  1.3752 -0.4875
  648MOL0     H87460  -0.528   8.757   5.984 -0.7927  0.5463  0.2166
  648MOL0     H87461  -0.429   8.616   6.014 -0.6319 -0.0773 -0.9035
  648MOL0     H87462  -1.129   8.989   6.586  0.2542 -2.1513  0.5582
  648MOL0     H87463  -1.045   9.124   6.782 -0.1921 -0.7832  0.7061
  648MOL0     H87464  -0.698   9.168   7.080  0.9972 -0.2881  2.1596
  648MOL0     H87465  -0.590   9.287   7.264  2.1645  0.3434  0.3157
  648MOL0     H87466   1.091   8.819   7.618  0.0498 -0.0919  0.6235
  648MOL0     H87467   1.346   8.821   7.632  1.7328 -2.2705  1.5095
  648MOL0     H87468   1.768   8.590   8.032 -1.5137 -0.0073 -1.5227
  648MOL0     H87469   1.999   8.592   7.954  0.1280 -0.3895  1.0189
  648MOL0     H87470   2.285   8.733   7.742 -0.9985  2.4113  0.9975
  648MOL0     H87471   2.191   8.672   7.873 -0.5484  0.0744 -0.3803
  648MOL0     H87472   2.166   8.554   7.592 -1.3667 -0.3186  0.5767
  648MOL0     H87473   2.090   8.504   7.737 -1.4121  0.3962 -1.7659
  648MOL0     H87474   2.284   8.431   7.847  1.4931  0.4843  0.4533
  648MOL0     H87475   2.385   8.531   7.720 -0.5098 -0.6007 -0.5397
  648MOL0     H87476   2.420   8.292   7.683  0.1601 -0.9993 -2.5297
  648MOL0     H87477   2.327   8.362   7.559  0.7986  1.1111  0.1993
  648MOL0     H87478   2.081   8.055   7.729 -2.4946  2.2785  0.6963
  648MOL0     H87479   1.860   8.839   7.613  3.7466 -1.4277  0.0808
  648MOL0     H87480   1.660   8.861   7.719  0.4268 -0.5139 -0.6942
  649MOL0     O87481   1.415   8.236   9.683 -0.1455  0.3021  0.1487
  649MOL0     C87482   1.390   8.229   9.558 -0.3945 -0.9029 -0.9274
  649MOL0     O87483   1.261   8.211   9.498 -0.1699  0.1339  0.2062
  649MOL0     C87484   1.154   8.232   9.580  0.2809 -0.2064  0.8053
  649MOL0     C87485   1.072   8.129   9.606  0.6961 -0.2885  0.7524
  649MOL0     C87486   0.946   8.142   9.652  0.0479 -0.6354 -1.4082
  649MOL0     C87487   0.892   8.268   9.694 -0.0411 -0.9358  1.0534
  649MOL0     O87488   0.769   8.288   9.748  0.1787  0.5912 -0.0578
  649MOL0     C87489   0.664   8.266   9.654  0.0810  0.4579  0.5845
  649MOL0     C87490   0.543   8.215   9.728  0.3206 -0.3461 -0.5301
  649MOL0     C87491   0.423   8.205   9.635 -0.2523  0.8098 -0.1450
  649MOL0     C87492   0.331   8.104   9.694  0.1859  0.0732 -0.1582
  649MOL0     C87493   0.207   8.103   9.613  0.7996 -0.1362  0.4195
  649MOL0     C87494   0.112   7.997   9.662 -0.4125  0.5000 -0.5370
  649MOL0     C87495  -0.038   8.021   9.636 -0.2095  0.1048  0.2251
  649MOL0     C87496  -0.126   7.896   9.661 -0.6984 -0.0547 -0.7348
  649MOL0     N87497  -0.273   7.922   9.657  0.1099  0.0646  0.1142
  649MOL0     C87498  -0.371   7.890   9.560 -0.4323  0.1467 -0.2089
  649MOL0     C87499  -0.486   7.925   9.610 -0.3425 -0.0928 -0.1880
  649MOL0     C87500  -0.626   7.936   9.531 -0.4740 -0.2357 -1.1153
  649MOL0     C87501  -0.733   7.868   9.624 -0.1674 -0.3186  0.4494
  649MOL0     C87502  -0.752   7.945   9.757 -0.1178  0.8315  0.3798
  649MOL0     C87503  -0.893   7.933   9.801  0.1543  0.5964 -0.2574
  649MOL0     O87504  -0.971   8.009   9.706 -0.1400  0.0603  0.1578
  649MOL0     C87505  -1.103   7.975   9.692 -0.6020 -0.5055 -0.1179
  649MOL0     C87506  -1.168   8.030   9.586 -0.7635 -0.3657 -0.3192
  649MOL0     C87507  -1.307   8.036   9.563 -0.8490  0.1323  0.1211
  649MOL0     C87508  -1.352   8.103   9.442 -1.1451 -0.3103  0.4070
  649MOL0     C87509  -1.393   7.978   9.661 -0.7942  0.1104  0.0024
  649MOL0     C87510  -1.548   7.980   9.654 -0.7631 -0.2449 -0.1377
  649MOL0     O87511  -1.624   8.020   9.545 -0.0387  0.2534  0.2232
  649MOL0     C87512  -1.758   8.026   9.545  0.4710 -0.3565 -0.3875
  649MOL0     C87513  -1.834   7.961   9.447  0.3268 -0.3783 -0.3088
  649MOL0     C87514  -1.973   7.955   9.456 -0.0703 -0.2494  0.2487
  649MOL0     C87515  -2.028   8.014   9.569  0.2666  0.0298 -0.3269
  649MOL0     O87516  -2.166   8.015   9.568  0.0153 -0.2642 -0.9592
  649MOL0     C87517  -2.246   8.091   9.665 -0.0515  0.2572  0.0114
  649MOL0     C87518  -2.250   8.016   9.795 -0.1064 -0.0045  0.6205
  649MOL0     C87519  -2.368   7.913   9.799  0.3037  0.2185  0.1126
  649MOL0     C87520  -2.353   7.814   9.919  0.4854  0.3398  0.2782
  649MOL0     C87521  -2.449   7.688   9.916 -0.6312 -0.0731 -0.0052
  649MOL0     C87522  -2.590   7.734   9.918 -0.4647 -0.1838 -0.0937
  649MOL0     C87523  -2.680   7.617   9.904 -0.2420  0.6186 -0.6876
  649MOL0     C87524  -2.822   7.661   9.873  0.6407  0.4650 -0.1384
  649MOL0    Cl87525  -2.869   7.793   9.980 -0.2201  0.0635 -0.5913
  649MOL0     C87526  -1.954   8.082   9.664  0.9417  0.5067  0.0521
  649MOL0     C87527  -1.820   8.094   9.653  0.1761  0.4190  0.8362
  649MOL0     O87528  -1.595   7.955   9.761 -0.0580 -0.6772 -0.1141
  649MOL0     C87529  -1.322   7.916   9.771  0.2299 -0.9944 -0.2592
  649MOL0     C87530  -1.187   7.922   9.790 -0.5551 -0.2927 -0.8815
  649MOL0     N87531  -0.463   7.978   9.738  0.2797  0.1998  0.1242
  649MOL0     N87532  -0.335   7.975   9.759  0.2388 -0.0686 -0.4512
  649MOL0     C87533   0.976   8.378   9.673 -1.3193  0.3538  0.1629
  649MOL0     C87534   1.109   8.364   9.610 -0.4764  0.1294 -1.4281
  649MOL0     C87535   1.505   8.244   9.471 -1.7673 -0.5158  0.5841
  649MOL0     C87536   1.634   8.273   9.529  0.0727  0.0125 -0.3638
  649MOL0     C87537   1.749   8.274   9.450 -0.9963  0.4293 -0.4095
  649MOL0     C87538   1.745   8.254   9.313 -0.3836 -0.3219  0.3953
  649MOL0     O87539   1.863   8.244   9.242  0.1779  0.0981  0.1189
  649MOL0     C87540   1.866   8.203   9.100 -0.0758 -0.8500 -0.3356
  649MOL0     C87541   2.000   8.219   9.043  0.2655 -0.7321  1.1466
  649MOL0     C87542   2.104   8.124   9.113  0.5179  1.0813 -0.3513
  649MOL0     C87543   2.240   8.119   9.046 -0.3514  0.2497 -0.2304
  649MOL0     C87544   2.317   8.242   9.050  0.2545 -0.2226  0.2736
  649MOL0     C87545   2.386   8.338   9.064 -0.3760  0.5609 -0.0871
  649MOL0     C87546   1.612   8.245   9.254 -0.6078 -0.0925  0.6061
  649MOL0     C87547   1.498   8.235   9.332  0.1370 -0.2624  0.9427
  649MOL0     H87548   1.112   8.035   9.568 -0.7351 -0.2523 -0.9708
  649MOL0     H87549   0.878   8.058   9.665  0.5157 -1.1631 -2.2518
  649MOL0     H87550   0.641   8.349   9.586  0.2565 -0.9336 -1.2567
  649MOL0     H87551   0.680   8.183   9.585  1.1060  0.6232  0.6018
  649MOL0     H87552   0.560   8.118   9.776  0.0123  0.5020  1.3888
  649MOL0     H87553   0.513   8.286   9.806 -0.7015 -0.1241 -1.1039
  649MOL0     H87554   0.370   8.301   9.641  1.0260  1.6548 -1.5352
  649MOL0     H87555   0.445   8.184   9.530  1.2307  1.1248  0.0834
  649MOL0     H87556   0.362   7.999   9.688 -0.8371 -0.2348 -0.0907
  649MOL0     H87557   0.318   8.124   9.801 -1.9704  1.7624 -0.6757
  649MOL0     H87558   0.160   8.202   9.610 -4.8665 -2.4981 -1.8306
  649MOL0     H87559   0.236   8.086   9.509 -1.8172  0.6775 -0.5150
  649MOL0     H87560   0.137   7.909   9.602 -2.4760  0.5488 -1.5733
  649MOL0     H87561   0.122   7.985   9.770  0.9607  2.7104 -0.3567
  649MOL0     H87562  -0.075   8.096   9.707 -3.3029  0.0460 -1.1754
  649MOL0     H87563  -0.053   8.048   9.531  3.0947 -0.4688 -0.5054
  649MOL0     H87564  -0.102   7.861   9.761 -2.5545 -0.3090 -0.3386
  649MOL0     H87565  -0.106   7.813   9.593  0.4994 -0.8315  0.5329
  649MOL0     H87566  -0.349   7.845   9.464  1.2272  2.5848 -1.0806
  649MOL0     H87567  -0.652   8.043   9.531  2.5021  0.5943 -0.4193
  649MOL0     H87568  -0.632   7.889   9.433 -3.5103  2.8198 -2.6142
  649MOL0     H87569  -0.713   7.762   9.641  2.9827  0.4657  2.5402
  649MOL0     H87570  -0.826   7.866   9.567  0.2405 -2.6072 -0.2378
  649MOL0     H87571  -0.740   8.054   9.747 -0.9706  0.9996  1.1023
  649MOL0     H87572  -0.682   7.902   9.829  0.3024 -1.4651 -1.3080
  649MOL0     H87573  -0.911   7.973   9.901 -2.5821  1.5490 -1.0415
  649MOL0     H87574  -0.913   7.826   9.801  2.2547  0.1169  1.9750
  649MOL0     H87575  -1.107   8.065   9.503 -0.7888 -0.3764 -0.3426
  649MOL0     H87576  -1.374   8.026   9.367 -2.3045 -0.4235  0.8431
  649MOL0     H87577  -1.439   8.168   9.458 -1.1723 -0.2727  0.1213
  649MOL0     H87578  -1.274   8.172   9.410  0.0211 -0.6733  2.3238
  649MOL0     H87579  -1.781   7.918   9.363  1.3014 -1.0604  0.6136
  649MOL0     H87580  -2.043   7.904   9.392 -0.1783 -1.5235  1.3491
  649MOL0     H87581  -2.224   8.196   9.685  0.3863  0.6790 -2.2983
  649MOL0     H87582  -2.349   8.089   9.629 -0.5069 -3.0573  1.1302
  649MOL0     H87583  -2.150   7.974   9.807  1.7011  2.7063 -3.0495
  649MOL0     H87584  -2.281   8.089   9.870 -3.4836 -1.5007  0.9108
  649MOL0     H87585  -2.372   7.845   9.713  0.1191 -2.0431  1.8186
  649MOL0     H87586  -2.454   7.981   9.801  1.2380  1.4437  0.8626
  649MOL0     H87587  -2.250   7.783   9.934  0.4938  0.2636  0.0728
  649MOL0     H87588  -2.368   7.873  10.009  1.6793  1.4710 -0.2270
  649MOL0     H87589  -2.417   7.623   9.998  1.8811  0.8156 -0.1862
  649MOL0     H87590  -2.428   7.623   9.831  0.2984 -1.1117  0.9840
  649MOL0     H87591  -2.603   7.780  10.016  2.2600 -1.0760  0.7587
  649MOL0     H87592  -2.601   7.794   9.827  2.5685 -0.8084 -0.9781
  649MOL0     H87593  -2.684   7.572  10.003  0.8254  3.2502  0.6654
  649MOL0     H87594  -2.646   7.538   9.836 -0.7655 -2.6542  2.5502
  649MOL0     H87595  -2.901   7.585   9.868 -0.1063  1.1200  0.9218
  649MOL0     H87596  -2.815   7.695   9.770  0.5895 -2.0013 -1.0026
  649MOL0     H87597  -2.001   8.136   9.745 -1.5891 -2.0146  0.4110
  649MOL0     H87598  -1.752   8.146   9.720  1.8792 -1.1015  0.3303
  649MOL0     H87599  -1.393   7.872   9.840 -0.3819 -0.3892 -0.4895
  649MOL0     H87600  -1.144   7.880   9.880  1.5658  0.5765 -1.4197
  649MOL0     H87601   0.934   8.477   9.692  0.3115  1.6966 -2.6366
  649MOL0     H87602   1.158   8.461   9.602 -0.8629  0.7069  1.8366
  649MOL0     H87603   1.648   8.292   9.635  1.2156 -0.7488 -0.3563
  649MOL0     H87604   1.840   8.278   9.510 -1.5887  1.2237  0.4810
  649MOL0     H87605   1.832   8.099   9.102 -2.9287 -0.0155  0.2960
  649MOL0     H87606   1.789   8.243   9.034  0.0579 -0.2130 -0.1181
  649MOL0     H87607   2.027   8.325   9.052 -1.0460 -0.0134 -2.0823
  649MOL0     H87608   1.997   8.209   8.934 -3.2085  2.0288  0.8361
  649MOL0     H87609   2.059   8.024   9.109  0.0386  1.2899 -0.3292
  649MOL0     H87610   2.124   8.140   9.219  0.7920 -2.4185  0.2525
  649MOL0     H87611   2.226   8.084   8.944 -1.4309  0.0443 -0.0188
  649MOL0     H87612   2.295   8.039   9.096 -2.1092 -1.0751 -0.3246
  649MOL0     H87613   2.456   8.413   9.094  2.6815 -2.5451  1.1592
  649MOL0     H87614   1.600   8.233   9.146 -0.0309  1.2798  0.3677
  649MOL0     H87615   1.403   8.239   9.279  1.6824 -0.8279 -2.1132
  650MOL0     O87616   2.330   1.888   0.333  0.1055 -0.6068 -0.2721
  650MOL0     C87617   2.373   1.993   0.283  0.5158  0.2807 -0.2278
  650MOL0     O87618   2.359   2.027   0.156 -0.2991 -0.0206  0.5344
  650MOL0     C87619   2.301   1.946   0.069 -0.2535  0.0512  0.2987
  650MOL0     C87620   2.374   1.858  -0.007 -0.0379  0.4090 -0.1663
  650MOL0     C87621   2.310   1.777  -0.106 -0.2389  0.5846  0.3536
  650MOL0     C87622   2.166   1.785  -0.120 -0.2306  0.4459  0.1087
  650MOL0     O87623   2.094   1.714  -0.222 -0.1790 -0.1265 -0.0026
  650MOL0     C87624   2.154   1.633  -0.322  0.2677  0.3015 -0.0916
  650MOL0     C87625   2.109   1.660  -0.459 -0.0344 -0.5973  0.2273
  650MOL0     C87626   1.959   1.621  -0.470 -1.3644  0.4498  0.0909
  650MOL0     C87627   1.926   1.604  -0.616 -1.0324  0.2902 -0.1717
  650MOL0     C87628   1.786   1.575  -0.645  0.3306  0.0069  0.0126
  650MOL0     C87629   1.694   1.689  -0.603  1.0478  0.4176  0.2350
  650MOL0     C87630   1.543   1.662  -0.618 -0.4162  0.3224 -0.6799
  650MOL0     C87631   1.431   1.755  -0.563 -0.1426  0.7691  0.3885
  650MOL0     N87632   1.472   1.895  -0.582 -0.7228 -0.7121 -0.7568
  650MOL0     C87633   1.472   1.956  -0.706  0.0305 -0.6370  0.8626
  650MOL0     C87634   1.523   2.079  -0.687 -0.2716 -0.8212  0.8613
  650MOL0     C87635   1.542   2.193  -0.788  0.0785  0.2067  0.6231
  650MOL0     C87636   1.692   2.255  -0.790  0.4418  0.3181 -0.0191
  650MOL0     C87637   1.689   2.384  -0.868  0.0554  0.6706  0.1582
  650MOL0     C87638   1.831   2.440  -0.894  0.0391 -0.4465  1.3077
  650MOL0     O87639   1.926   2.332  -0.894  0.2396  0.0664  0.1662
  650MOL0     C87640   2.034   2.363  -0.805  0.8914  0.5374  0.0236
  650MOL0     C87641   2.026   2.332  -0.668  0.1729 -0.0619 -0.4154
  650MOL0     C87642   2.137   2.352  -0.576 -0.2302 -0.1747  0.4655
  650MOL0     C87643   2.121   2.312  -0.434 -0.4919 -0.1725  0.0001
  650MOL0     C87644   2.261   2.404  -0.637  0.2796 -0.2979 -0.5039
  650MOL0     C87645   2.373   2.436  -0.561 -0.3984 -0.0517 -0.3212
  650MOL0     O87646   2.359   2.542  -0.475  0.0218  0.0571  0.3725
  650MOL0     C87647   2.471   2.568  -0.400 -0.7124 -0.0601  0.3980
  650MOL0     C87648   2.516   2.477  -0.309 -0.7045 -0.2625 -0.2531
  650MOL0     C87649   2.634   2.510  -0.238  0.4413  0.2407 -0.5850
  650MOL0     C87650   2.699   2.632  -0.258  0.9727  0.7931  0.0980
  650MOL0     O87651   2.807   2.677  -0.186 -0.0264  0.3649  0.1769
  650MOL0     C87652   2.836   2.594  -0.069 -0.3130 -0.2297 -0.6155
  650MOL0     C87653   2.958   2.659   0.003  0.6139  0.2510 -0.2822
  650MOL0     C87654   2.920   2.788   0.085 -0.0650 -0.2616  0.4364
  650MOL0     C87655   3.053   2.869   0.108  0.5317 -0.3444  0.4131
  650MOL0     C87656   3.033   3.021   0.142  0.7098  0.4580 -0.7147
  650MOL0     C87657   2.944   3.059   0.271 -1.1829 -0.8653 -0.0837
  650MOL0     C87658   2.954   3.212   0.294 -0.8740  0.3495  0.5015
  650MOL0     C87659   2.892   3.244   0.436 -0.4468  0.0077 -0.0478
  650MOL0    Cl87660   2.735   3.170   0.480 -0.2139 -0.2074  0.5585
  650MOL0     C87661   2.647   2.719  -0.350 -0.2251  0.1435 -0.1885
  650MOL0     C87662   2.542   2.684  -0.428  0.7324  0.3049 -0.0581
  650MOL0     O87663   2.478   2.380  -0.589  0.2645  0.5539  0.8489
  650MOL0     C87664   2.264   2.429  -0.772 -1.2225 -0.0301 -0.0096
  650MOL0     C87665   2.150   2.421  -0.854  0.5703  0.2035  0.2413
  650MOL0     N87666   1.564   2.083  -0.553 -0.4250 -0.3982 -0.3475
  650MOL0     N87667   1.536   1.970  -0.497 -0.7164  0.4185  0.4507
  650MOL0     C87668   2.095   1.872  -0.036  0.4652 -1.0381  0.4219
  650MOL0     C87669   2.162   1.962   0.050 -0.5967  1.0030  1.3488
  650MOL0     C87670   2.433   2.084   0.368 -0.1981  0.5502  0.4391
  650MOL0     C87671   2.459   2.052   0.502  0.2498  0.5572  0.2821
  650MOL0     C87672   2.504   2.151   0.585 -0.2260 -0.1000 -0.7941
  650MOL0     C87673   2.543   2.271   0.542  0.2284  0.3425 -1.0897
  650MOL0     O87674   2.593   2.357   0.634 -0.2524 -0.7955 -0.4390
  650MOL0     C87675   2.568   2.499   0.625  0.2891  0.2960  0.8069
  650MOL0     C87676   2.638   2.577   0.740 -0.3262  0.2946 -0.0531
  650MOL0     C87677   2.658   2.718   0.692  0.1683 -0.2701  0.4195
  650MOL0     C87678   2.533   2.810   0.684  0.4795 -0.4539  0.4796
  650MOL0     C87679   2.481   2.845   0.819 -0.2364 -1.1202  0.0905
  650MOL0     C87680   2.417   2.847   0.927 -0.3382 -0.2444  0.2960
  650MOL0     C87681   2.512   2.310   0.411 -0.6330 -0.2630  0.0203
  650MOL0     C87682   2.450   2.215   0.330 -0.2989 -0.1236  0.7701
  650MOL0     H87683   2.479   1.857   0.019 -0.2650  2.6167  1.1107
  650MOL0     H87684   2.362   1.707  -0.170  0.4195  1.8592 -0.5485
  650MOL0     H87685   2.264   1.636  -0.322  0.3043 -0.6847 -0.3287
  650MOL0     H87686   2.116   1.532  -0.302 -1.8060  0.7851 -1.3735
  650MOL0     H87687   2.120   1.766  -0.485  1.4850 -0.7558  0.1157
  650MOL0     H87688   2.163   1.613  -0.542 -1.3087  1.1961 -1.7437
  650MOL0     H87689   1.940   1.528  -0.414  1.0570 -0.9403 -1.2213
  650MOL0     H87690   1.906   1.705  -0.425  0.9100  0.4400  3.1704
  650MOL0     H87691   1.955   1.686  -0.682 -1.1274 -0.9720 -1.8367
  650MOL0     H87692   1.977   1.517  -0.657 -0.7580  0.9214 -1.1861
  650MOL0     H87693   1.784   1.557  -0.753  1.2768  2.3775 -0.4723
  650MOL0     H87694   1.765   1.486  -0.585 -1.9305 -0.2931 -1.1121
  650MOL0     H87695   1.704   1.717  -0.497  0.1711  0.0590  0.4187
  650MOL0     H87696   1.722   1.782  -0.652 -1.8199  1.3942  0.3166
  650MOL0     H87697   1.529   1.657  -0.726 -0.1440 -1.6441 -0.6506
  650MOL0     H87698   1.530   1.564  -0.571  0.5473 -0.3203 -1.7162
  650MOL0     H87699   1.424   1.737  -0.455  1.4446  0.8480  0.5340
  650MOL0     H87700   1.341   1.726  -0.618  1.2540 -2.1216 -0.5786
  650MOL0     H87701   1.433   1.916  -0.799  1.1738  3.9614 -1.9491
  650MOL0     H87702   1.517   2.161  -0.890  0.5786  1.3589  0.1230
  650MOL0     H87703   1.476   2.277  -0.763 -0.8950  0.2076 -1.6890
  650MOL0     H87704   1.754   2.178  -0.837 -0.2662  0.6723 -1.5981
  650MOL0     H87705   1.727   2.272  -0.688 -2.0832 -0.3649  1.0592
  650MOL0     H87706   1.633   2.456  -0.808 -2.6870 -1.1389 -0.0809
  650MOL0     H87707   1.636   2.372  -0.962  1.2063  4.8336 -1.2666
  650MOL0     H87708   1.855   2.519  -0.823  1.2835  2.1313 -1.7544
  650MOL0     H87709   1.836   2.486  -0.992 -1.0413  1.0741  1.9314
  650MOL0     H87710   1.939   2.273  -0.639  1.0730 -2.3554 -2.0842
  650MOL0     H87711   2.097   2.399  -0.372 -1.0828  0.2814 -0.8576
  650MOL0     H87712   2.036   2.245  -0.421 -0.2504 -0.8138 -1.5451
  650MOL0     H87713   2.200   2.246  -0.396 -2.3639 -1.2089  2.3645
  650MOL0     H87714   2.447   2.395  -0.291 -0.1085 -1.2986 -2.3298
  650MOL0     H87715   2.672   2.431  -0.174  0.5576  0.8468  0.1059
  650MOL0     H87716   2.747   2.597  -0.005 -0.3156 -1.6611 -0.5319
  650MOL0     H87717   2.850   2.488  -0.091 -4.5020 -1.0081 -0.3914
  650MOL0     H87718   2.985   2.590   0.085 -1.1046 -0.8097 -0.5507
  650MOL0     H87719   3.040   2.681  -0.065  0.8280 -3.8519 -1.6230
  650MOL0     H87720   2.871   2.774   0.182  0.6564 -0.8376  0.7269
  650MOL0     H87721   2.863   2.856   0.020  0.9368  0.1013 -0.0889
  650MOL0     H87722   3.118   2.815   0.177  0.4602  0.0367  0.7863
  650MOL0     H87723   3.110   2.867   0.015 -3.1685 -1.0217 -2.0737
  650MOL0     H87724   2.994   3.085   0.062 -0.4641 -1.3716 -1.6750
  650MOL0     H87725   3.136   3.055   0.156  0.7795  1.3423 -2.9706
  650MOL0     H87726   2.841   3.037   0.240 -0.4946 -0.5369 -2.7993
  650MOL0     H87727   2.979   3.021   0.368  1.6293  0.6577 -0.4203
  650MOL0     H87728   2.906   3.274   0.217  0.7952  0.4981 -0.4751
  650MOL0     H87729   3.059   3.241   0.282 -1.0465 -0.1677 -4.0972
  650MOL0     H87730   2.891   3.352   0.456  2.3818 -0.0536  0.9136
  650MOL0     H87731   2.956   3.204   0.515  1.6831  3.1301 -0.0076
  650MOL0     H87732   2.694   2.816  -0.361 -0.8113  0.5152  0.5030
  650MOL0     H87733   2.497   2.745  -0.505  0.1418 -0.8129 -0.6154
  650MOL0     H87734   2.355   2.462  -0.821 -1.3714 -3.8406 -3.3694
  650MOL0     H87735   2.150   2.443  -0.960 -3.7570  1.7689  0.3691
  650MOL0     H87736   1.987   1.880  -0.038  0.4891  0.3688  2.1785
  650MOL0     H87737   2.114   2.024   0.125  2.0887  3.9499  0.8402
  650MOL0     H87738   2.442   1.954   0.547 -0.0019  0.1624 -0.6477
  650MOL0     H87739   2.520   2.124   0.689 -1.0831 -3.8863 -1.5024
  650MOL0     H87740   2.616   2.527   0.531  0.9808 -1.7581  0.4973
  650MOL0     H87741   2.463   2.530   0.614  0.3740 -0.0970 -1.6594
  650MOL0     H87742   2.733   2.525   0.753 -1.8810 -2.7677  0.2751
  650MOL0     H87743   2.579   2.576   0.833 -1.7836  0.1318 -0.9470
  650MOL0     H87744   2.671   2.722   0.583  0.2526  0.9747  0.4652
  650MOL0     H87745   2.742   2.766   0.741 -0.1118  1.1460 -0.4278
  650MOL0     H87746   2.451   2.767   0.627  1.0629 -0.9274 -0.0221
  650MOL0     H87747   2.562   2.901   0.631  1.7657 -0.0365  1.8080
  650MOL0     H87748   2.347   2.871   1.005 -1.2647 -0.6031 -0.4069
  650MOL0     H87749   2.530   2.409   0.372 -0.8397 -1.0335 -2.1334
  650MOL0     H87750   2.414   2.252   0.234 -0.4647 -0.6139  0.6391
  651MOL0     O87751   0.506   4.696   5.097  0.2760 -0.3338 -0.1716
  651MOL0     C87752   0.546   4.809   5.129 -0.6723  0.3568 -0.2126
  651MOL0     O87753   0.468   4.917   5.148  0.9175 -0.5032 -0.5894
  651MOL0     C87754   0.331   4.897   5.164 -0.3181 -0.2620  0.3780
  651MOL0     C87755   0.271   4.824   5.269  0.7407  0.3917 -0.4091
  651MOL0     C87756   0.138   4.826   5.276  1.0560 -0.3266  0.2394
  651MOL0     C87757   0.049   4.894   5.188  0.3113  0.6892  0.5051
  651MOL0     O87758  -0.084   4.869   5.196 -0.6850 -0.7836  0.2885
  651MOL0     C87759  -0.180   4.958   5.125  0.3380 -0.3210  0.1483
  651MOL0     C87760  -0.319   4.934   5.182  0.2985  0.3528 -0.2102
  651MOL0     C87761  -0.420   5.017   5.114  0.7686 -0.5479  0.6858
  651MOL0     C87762  -0.568   4.989   5.132  0.3950  0.0218 -0.4602
  651MOL0     C87763  -0.669   5.077   5.053  0.4834 -0.5525  0.1693
  651MOL0     C87764  -0.815   5.049   5.088  0.7944 -0.7126  0.2478
  651MOL0     C87765  -0.917   5.136   5.019  0.1460  0.5067 -0.4782
  651MOL0     C87766  -1.057   5.075   5.031 -0.3883  0.2718 -0.0858
  651MOL0     N87767  -1.149   5.151   5.112 -0.5962 -0.3071 -0.1567
  651MOL0     C87768  -1.260   5.220   5.071  0.4679 -0.6686 -0.4679
  651MOL0     C87769  -1.322   5.261   5.185 -0.3195 -0.8243  0.1570
  651MOL0     C87770  -1.451   5.326   5.203  0.0961  0.1837  0.3320
  651MOL0     C87771  -1.439   5.475   5.209  0.1821  0.2398 -0.3405
  651MOL0     C87772  -1.421   5.540   5.075  0.1253  0.0945 -0.5961
  651MOL0     C87773  -1.367   5.677   5.098  0.5583  0.1971  0.2931
  651MOL0     O87774  -1.440   5.762   5.173 -0.3116  0.6026  0.2422
  651MOL0     C87775  -1.570   5.800   5.131 -0.3606  0.3983 -0.1308
  651MOL0     C87776  -1.683   5.772   5.208 -0.2350  0.6045 -0.3998
  651MOL0     C87777  -1.801   5.848   5.186  0.1953  0.4155 -0.7932
  651MOL0     C87778  -1.917   5.801   5.265 -1.1778 -0.2424 -0.6584
  651MOL0     C87779  -1.810   5.962   5.104 -0.2701 -0.6209  0.3489
  651MOL0     C87780  -1.923   6.053   5.088 -0.4187 -1.1007  0.4361
  651MOL0     O87781  -2.024   6.046   5.175 -0.0365  0.1241 -0.2720
  651MOL0     C87782  -2.138   6.128   5.183 -0.1138  0.9126 -0.3371
  651MOL0     C87783  -2.190   6.199   5.083 -0.1237 -0.9783  0.4270
  651MOL0     C87784  -2.311   6.259   5.093  1.2069 -0.0903 -0.6662
  651MOL0     C87785  -2.386   6.238   5.210 -0.1954  0.3592  0.1614
  651MOL0     O87786  -2.499   6.316   5.228 -0.0922  0.2571  0.6274
  651MOL0     C87787  -2.500   6.416   5.329  0.1094 -0.8273  0.1147
  651MOL0     C87788  -2.597   6.520   5.274  0.0147 -0.1484 -0.4907
  651MOL0     C87789  -2.752   6.463   5.297 -0.5498 -0.2449 -0.3003
  651MOL0     C87790  -2.794   6.479   5.450 -0.0608  0.0146  0.0222
  651MOL0     C87791  -2.943   6.480   5.479 -0.3117 -0.1341  0.8870
  651MOL0     C87792  -3.025   6.586   5.414  0.5013  0.3263 -0.1315
  651MOL0     C87793  -2.993   6.735   5.460 -1.1106  0.6466  0.2177
  651MOL0     C87794  -3.043   6.771   5.592  0.5442 -0.2808 -0.1670
  651MOL0    Cl87795  -3.217   6.849   5.575  0.5140 -0.1774 -0.0892
  651MOL0     C87796  -2.342   6.151   5.309  0.1686  0.6629  0.8542
  651MOL0     C87797  -2.213   6.093   5.293 -0.2498  0.2928  0.0283
  651MOL0     O87798  -1.917   6.135   4.996  0.4776  0.2162 -0.2808
  651MOL0     C87799  -1.692   5.978   5.026 -0.3429  0.3777  0.5228
  651MOL0     C87800  -1.580   5.904   5.048 -0.1392 -0.3918  0.4688
  651MOL0     N87801  -1.242   5.222   5.287  0.1309  0.5508 -0.7877
  651MOL0     N87802  -1.146   5.146   5.245  0.0328 -0.5996  0.4867
  651MOL0     C87803   0.112   4.965   5.089  0.1562  0.5116 -0.1067
  651MOL0     C87804   0.251   4.976   5.082  0.2195 -0.5604  0.0104
  651MOL0     C87805   0.689   4.818   5.165 -0.0420  1.4602  0.4934
  651MOL0     C87806   0.744   4.722   5.253 -0.7742 -0.0341  0.0325
  651MOL0     C87807   0.879   4.731   5.288  0.4731  0.8636  0.0427
  651MOL0     C87808   0.964   4.824   5.225  0.1028  0.6172  0.0972
  651MOL0     O87809   1.094   4.834   5.270  0.2355  0.1591 -0.5956
  651MOL0     C87810   1.193   4.858   5.168 -1.1987  0.3021 -0.2879
  651MOL0     C87811   1.333   4.851   5.239 -0.1065  0.3307 -0.8661
  651MOL0     C87812   1.355   4.698   5.274  0.0382  0.5810 -0.8277
  651MOL0     C87813   1.394   4.606   5.156 -0.1900  0.7504 -0.4707
  651MOL0     C87814   1.468   4.491   5.204 -0.4038  0.3076  0.2136
  651MOL0     C87815   1.518   4.396   5.261  0.0432  0.5184 -0.1028
  651MOL0     C87816   0.910   4.918   5.132  0.4493  0.2869  0.5803
  651MOL0     C87817   0.772   4.917   5.117 -0.5804 -0.6515 -0.1361
  651MOL0     H87818   0.326   4.758   5.336  0.4303 -0.9012 -1.3779
  651MOL0     H87819   0.096   4.760   5.352  1.3397 -1.5623 -0.6411
  651MOL0     H87820  -0.145   5.061   5.139 -0.4442 -0.1070  0.5921
  651MOL0     H87821  -0.175   4.924   5.021  0.6697 -1.4819  0.5331
  651MOL0     H87822  -0.340   4.828   5.170  1.9990  0.0769 -1.0767
  651MOL0     H87823  -0.323   4.968   5.286  0.3422 -0.2667 -0.0012
  651MOL0     H87824  -0.406   5.119   5.150 -0.7780 -0.0403 -0.0891
  651MOL0     H87825  -0.393   5.016   5.008 -0.9445  1.9106  0.1455
  651MOL0     H87826  -0.589   4.884   5.113 -0.2936 -0.1160  0.9077
  651MOL0     H87827  -0.582   4.996   5.241  2.1048 -1.3531 -0.0980
  651MOL0     H87828  -0.649   5.182   5.075 -2.6059 -0.1296  1.3909
  651MOL0     H87829  -0.654   5.050   4.948  1.9590 -1.6280  0.6160
  651MOL0     H87830  -0.833   4.943   5.067  1.3323 -1.7385  4.1745
  651MOL0     H87831  -0.820   5.069   5.196  2.2941  1.8970 -0.0922
  651MOL0     H87832  -0.911   5.230   5.074 -0.0889 -0.0773  0.5793
  651MOL0     H87833  -0.880   5.148   4.917 -1.1372  1.6062 -0.8382
  651MOL0     H87834  -1.057   4.975   5.074  1.3109 -0.3847 -1.4841
  651MOL0     H87835  -1.100   5.067   4.931 -1.0170  1.0775  0.1094
  651MOL0     H87836  -1.300   5.236   4.972 -2.3082 -1.5837  0.4190
  651MOL0     H87837  -1.531   5.302   5.133 -3.3138  2.6956  3.0511
  651MOL0     H87838  -1.485   5.295   5.302 -2.5188  0.4359 -0.4296
  651MOL0     H87839  -1.355   5.507   5.271  0.0930  0.4919 -0.3480
  651MOL0     H87840  -1.532   5.515   5.250  0.7757  3.6649 -1.9371
  651MOL0     H87841  -1.517   5.549   5.022  0.2173 -0.6857 -0.8950
  651MOL0     H87842  -1.355   5.492   5.003  2.7304  1.4489  0.7581
  651MOL0     H87843  -1.345   5.722   5.001  0.0818  2.2432  1.0939
  651MOL0     H87844  -1.271   5.677   5.150  0.5277  0.4519  0.3466
  651MOL0     H87845  -1.685   5.687   5.276  0.1468  0.5032 -0.5160
  651MOL0     H87846  -1.943   5.858   5.354 -0.9693 -2.4898  0.9189
  651MOL0     H87847  -1.997   5.788   5.192  0.5586  2.1426 -3.2119
  651MOL0     H87848  -1.902   5.705   5.314  2.8087  1.6372  2.4497
  651MOL0     H87849  -2.146   6.207   4.984  0.1463 -1.0913  0.5378
  651MOL0     H87850  -2.353   6.316   5.011  0.3633 -1.5875 -1.3327
  651MOL0     H87851  -2.538   6.385   5.427  0.1815  0.5391  0.5983
  651MOL0     H87852  -2.398   6.452   5.341 -1.3135  4.0016  0.1342
  651MOL0     H87853  -2.596   6.620   5.318 -2.1503  0.7346 -2.2285
  651MOL0     H87854  -2.574   6.544   5.170  0.5292  0.1451 -0.3160
  651MOL0     H87855  -2.762   6.354   5.285 -0.0413 -0.1933 -1.2765
  651MOL0     H87856  -2.808   6.528   5.230 -1.4978  0.1849  0.8625
  651MOL0     H87857  -2.759   6.388   5.498  1.1126  0.5703  0.2544
  651MOL0     H87858  -2.745   6.563   5.501 -0.0415  0.0427 -0.0432
  651MOL0     H87859  -2.951   6.486   5.588  0.6165  0.5702  0.9331
  651MOL0     H87860  -2.970   6.383   5.437  0.7025  0.4013 -1.1657
  651MOL0     H87861  -3.014   6.579   5.306  1.6179  0.6552 -0.0552
  651MOL0     H87862  -3.130   6.571   5.441 -0.2065  4.6861  0.3019
  651MOL0     H87863  -3.032   6.807   5.388  0.5727  2.4176  0.9952
  651MOL0     H87864  -2.885   6.751   5.474 -0.8784  0.4781 -1.2972
  651MOL0     H87865  -2.980   6.851   5.631 -0.6490  0.2458  0.7134
  651MOL0     H87866  -3.049   6.681   5.654  0.1516  0.0495  0.2863
  651MOL0     H87867  -2.402   6.126   5.396  1.8550  0.2505  1.9619
  651MOL0     H87868  -2.174   6.009   5.350  0.6927 -0.6200 -1.8615
  651MOL0     H87869  -1.691   6.070   4.969 -1.9551  1.4444  2.0911
  651MOL0     H87870  -1.496   5.945   4.993 -2.0131  2.7302 -0.3494
  651MOL0     H87871   0.050   5.017   5.017 -1.0673  1.3737  1.5177
  651MOL0     H87872   0.288   5.026   4.993  0.2558  0.2864  0.4838
  651MOL0     H87873   0.681   4.644   5.292  0.2901 -0.4445  0.9674
  651MOL0     H87874   0.924   4.653   5.349 -0.6419  0.2184  0.0715
  651MOL0     H87875   1.179   4.778   5.095 -0.1129  0.2263 -0.4271
  651MOL0     H87876   1.188   4.955   5.116  1.9870 -0.0566 -1.5193
  651MOL0     H87877   1.336   4.919   5.326  1.1688  1.5755 -1.8299
  651MOL0     H87878   1.408   4.885   5.167 -2.5857  2.4162 -2.6798
  651MOL0     H87879   1.270   4.662   5.333  0.7692  0.3008  0.0840
  651MOL0     H87880   1.444   4.695   5.338 -0.3728  3.1268 -0.0142
  651MOL0     H87881   1.459   4.673   5.097  2.8634 -2.0089 -0.4981
  651MOL0     H87882   1.317   4.572   5.086  2.1122 -3.0399 -1.4411
  651MOL0     H87883   1.552   4.318   5.326 -0.5098 -0.1109 -0.5510
  651MOL0     H87884   0.969   4.997   5.087 -1.7295  1.7157  0.0932
  651MOL0     H87885   0.736   4.997   5.053  1.8293  0.4244 -0.2224
  652MOL0     O87886   5.092   1.383   7.281 -0.1024  0.5343 -0.1754
  652MOL0     C87887   5.164   1.464   7.341 -0.3912  0.1530  0.2196
  652MOL0     O87888   5.131   1.594   7.378  0.6514  0.5594 -0.3772
  652MOL0     C87889   4.994   1.614   7.381  0.7637 -0.2192 -0.1287
  652MOL0     C87890   4.915   1.546   7.468  0.6151 -0.1198  0.5703
  652MOL0     C87891   4.775   1.568   7.472  0.4241  0.5267 -0.7049
  652MOL0     C87892   4.720   1.661   7.394 -0.0116 -0.3129  0.1318
  652MOL0     O87893   4.587   1.703   7.402  0.2517  0.7211 -0.2150
  652MOL0     C87894   4.506   1.709   7.510  0.4543 -0.2937  0.3480
  652MOL0     C87895   4.374   1.788   7.484  0.1054 -0.5178 -0.1904
  652MOL0     C87896   4.288   1.754   7.604 -0.1270 -0.0435  0.4247
  652MOL0     C87897   4.174   1.856   7.605 -0.1215  0.4881  0.3459
  652MOL0     C87898   4.103   1.835   7.740  0.0899  0.2495  0.3580
  652MOL0     C87899   4.003   1.730   7.726  0.0815 -0.2926  0.2215
  652MOL0     C87900   3.907   1.734   7.837 -0.5302  0.5388 -0.6437
  652MOL0     C87901   3.793   1.838   7.848 -0.2234  0.1063  0.5849
  652MOL0     N87902   3.719   1.851   7.721 -0.6816  0.0188  0.8323
  652MOL0     C87903   3.659   1.750   7.646  0.4153  0.4098 -0.7387
  652MOL0     C87904   3.622   1.805   7.534  0.4698 -0.9542 -1.2363
  652MOL0     C87905   3.530   1.750   7.431 -0.5376 -0.2397 -0.0542
  652MOL0     C87906   3.391   1.821   7.448 -0.2709 -0.7862  0.3957
  652MOL0     C87907   3.313   1.774   7.568  0.5385  0.4484 -0.1472
  652MOL0     C87908   3.185   1.853   7.594  0.3721 -0.8796  0.3413
  652MOL0     O87909   3.130   1.830   7.727  0.9135 -0.0082  0.9671
  652MOL0     C87910   2.991   1.840   7.741  1.0067 -0.0266 -0.1544
  652MOL0     C87911   2.883   1.826   7.643 -0.6093 -0.2934 -0.5992
  652MOL0     C87912   2.747   1.851   7.671 -0.4719 -0.0799 -0.1897
  652MOL0     C87913   2.655   1.852   7.554 -0.0935 -0.2838  0.2513
  652MOL0     C87914   2.705   1.888   7.802  0.6208 -0.3110  0.0269
  652MOL0     C87915   2.562   1.937   7.834 -0.6001  0.7329 -0.6010
  652MOL0     O87916   2.450   1.902   7.758  0.7850 -0.2337  0.9857
  652MOL0     C87917   2.332   1.951   7.806  0.3953  0.0763  0.0704
  652MOL0     C87918   2.295   1.965   7.943  0.1746  0.0639  0.6567
  652MOL0     C87919   2.175   2.023   7.984  1.0724  0.5208  0.3518
  652MOL0     C87920   2.079   2.061   7.884  0.5841  0.3417  1.0115
  652MOL0     O87921   1.959   2.119   7.913 -0.3114  0.2451 -0.7329
  652MOL0     C87922   1.889   2.085   8.036  1.2955 -0.1710 -0.1723
  652MOL0     C87923   1.753   2.162   8.050  0.2407  0.1222  0.4939
  652MOL0     C87924   1.656   2.143   7.933  0.2769 -0.1031 -0.0314
  652MOL0     C87925   1.520   2.205   7.936 -0.1090 -0.0299 -0.3305
  652MOL0     C87926   1.429   2.208   7.809  0.4245  0.2721  0.5489
  652MOL0     C87927   1.276   2.232   7.839  0.1170 -0.7767  0.1691
  652MOL0     C87928   1.223   2.124   7.926  0.0702 -0.0182  0.1037
  652MOL0     C87929   1.092   2.187   7.978 -0.4879  0.7501 -0.4257
  652MOL0    Cl87930   0.988   2.257   7.843  0.0410 -0.3776  0.3275
  652MOL0     C87931   2.113   2.050   7.749 -0.4478  0.0665 -0.0980
  652MOL0     C87932   2.235   1.994   7.705 -0.2820  0.3270 -0.1600
  652MOL0     O87933   2.560   2.011   7.929 -0.6584  0.7229 -0.4876
  652MOL0     C87934   2.808   1.899   7.895  0.3650 -0.9359  0.3068
  652MOL0     C87935   2.945   1.873   7.865  0.2389  0.0583 -0.7213
  652MOL0     N87936   3.668   1.939   7.536  0.9537  0.2957 -0.5084
  652MOL0     N87937   3.727   1.962   7.647 -0.3349 -0.0842 -0.5882
  652MOL0     C87938   4.798   1.741   7.310 -0.5299  0.9950 -0.2968
  652MOL0     C87939   4.942   1.712   7.296  1.0800  0.3778  0.6691
  652MOL0     C87940   5.297   1.413   7.369 -0.4030  0.2082 -0.3345
  652MOL0     C87941   5.339   1.296   7.310  0.3644 -0.4036  0.6053
  652MOL0     C87942   5.468   1.248   7.348  0.0228 -0.1296 -0.2237
  652MOL0     C87943   5.558   1.317   7.426 -0.2723  0.8557  0.7133
  652MOL0     O87944   5.685   1.268   7.455 -0.7715 -0.3497  0.2301
  652MOL0     C87945   5.728   1.133   7.429 -0.0221 -0.4250 -0.4082
  652MOL0     C87946   5.788   1.069   7.557  0.3886  0.1644  0.7866
  652MOL0     C87947   5.820   0.926   7.511 -0.9761 -0.6242  0.4676
  652MOL0     C87948   5.930   0.896   7.410 -0.7801 -0.8830 -0.2325
  652MOL0     C87949   6.060   0.950   7.459 -1.2127  0.2677  1.1759
  652MOL0     C87950   6.163   0.995   7.497 -0.8576 -0.4669 -0.5378
  652MOL0     C87951   5.509   1.427   7.489 -0.7392 -0.0791 -0.4601
  652MOL0     C87952   5.383   1.483   7.457  0.1678 -0.2877 -0.3658
  652MOL0     H87953   4.971   1.476   7.529  1.3257  1.3015  1.6317
  652MOL0     H87954   4.720   1.508   7.544  1.7062  0.2364  0.0576
  652MOL0     H87955   4.480   1.609   7.547  0.2457  0.4464  2.3450
  652MOL0     H87956   4.568   1.752   7.590  0.1650 -1.6763  1.3723
  652MOL0     H87957   4.381   1.897   7.479 -1.9080 -0.3435 -0.1580
  652MOL0     H87958   4.330   1.746   7.393 -0.0926  1.1297 -0.9051
  652MOL0     H87959   4.252   1.651   7.598 -2.8892  0.5344  3.5719
  652MOL0     H87960   4.345   1.742   7.697  0.7797 -3.3563 -0.4283
  652MOL0     H87961   4.217   1.955   7.590  0.3719  0.3224  0.6418
  652MOL0     H87962   4.093   1.845   7.532 -2.0139 -2.7416  2.6288
  652MOL0     H87963   4.177   1.822   7.820  0.4958  0.2628 -0.0084
  652MOL0     H87964   4.047   1.923   7.773  0.7590  0.9442 -0.3093
  652MOL0     H87965   3.945   1.738   7.634 -0.2920  1.8599  0.5742
  652MOL0     H87966   4.053   1.634   7.735  0.2967 -0.3011 -0.9760
  652MOL0     H87967   3.851   1.640   7.836  0.7813 -0.3246  1.0577
  652MOL0     H87968   3.965   1.720   7.929 -0.3719  2.3727 -0.4256
  652MOL0     H87969   3.833   1.938   7.869  0.9597  0.1869 -1.7801
  652MOL0     H87970   3.726   1.803   7.927 -0.1235  0.1227  0.6765
  652MOL0     H87971   3.648   1.650   7.687  1.7924  1.7440  3.4034
  652MOL0     H87972   3.561   1.773   7.328 -2.9055 -3.8979 -1.7992
  652MOL0     H87973   3.524   1.641   7.434  2.8923 -0.6165 -1.8775
  652MOL0     H87974   3.337   1.815   7.353  0.5831  0.0399 -0.1520
  652MOL0     H87975   3.404   1.927   7.472 -6.0577  1.1703 -3.0537
  652MOL0     H87976   3.377   1.783   7.656 -0.7050  1.8821  0.6508
  652MOL0     H87977   3.283   1.670   7.556 -0.4090  0.8176 -1.1442
  652MOL0     H87978   3.118   1.825   7.512  1.3114 -0.6487 -0.5362
  652MOL0     H87979   3.227   1.954   7.583  1.0126 -1.3259 -1.8552
  652MOL0     H87980   2.908   1.799   7.541 -1.2775 -2.6438 -0.1909
  652MOL0     H87981   2.709   1.839   7.459  3.1738  1.0250  1.7753
  652MOL0     H87982   2.586   1.769   7.564 -0.9907  0.4454  0.2365
  652MOL0     H87983   2.596   1.944   7.549  0.7043  0.2967  1.1312
  652MOL0     H87984   2.365   1.937   8.021  0.5413 -0.6089  0.0951
  652MOL0     H87985   2.143   2.047   8.085 -0.9943 -2.8095  0.6694
  652MOL0     H87986   1.861   1.979   8.030 -1.2012  0.2052  2.8429
  652MOL0     H87987   1.938   2.102   8.132  2.3604 -0.2725 -0.6811
  652MOL0     H87988   1.705   2.113   8.136 -0.3611 -2.7175 -1.3229
  652MOL0     H87989   1.775   2.264   8.082  2.8101  0.4489 -1.9427
  652MOL0     H87990   1.657   2.040   7.897 -1.5701  1.0575 -3.9777
  652MOL0     H87991   1.710   2.192   7.852  1.2537 -2.2397 -0.7422
  652MOL0     H87992   1.469   2.164   8.024 -1.8260  1.8845 -0.3640
  652MOL0     H87993   1.526   2.311   7.963  0.7229  0.1539 -1.1878
  652MOL0     H87994   1.451   2.112   7.760  0.3533  0.6049 -0.1434
  652MOL0     H87995   1.459   2.291   7.745 -2.9488  2.2381  1.2733
  652MOL0     H87996   1.270   2.328   7.891 -1.1442 -0.8603  0.1935
  652MOL0     H87997   1.220   2.244   7.746  0.8583  1.3722 -0.0624
  652MOL0     H87998   1.279   2.103   8.018  0.7154 -1.2952 -0.5510
  652MOL0     H87999   1.200   2.033   7.870 -2.7045  0.9161 -0.4378
  652MOL0     H88000   1.110   2.261   8.055 -1.8154  0.5047  0.1485
  652MOL0     H88001   1.035   2.115   8.037  1.1429 -0.8328 -0.6720
  652MOL0     H88002   2.033   2.069   7.678 -1.4207  0.8242  1.1628
  652MOL0     H88003   2.265   1.987   7.601 -0.8460  0.9374 -0.3716
  652MOL0     H88004   2.787   1.947   7.990 -1.0954  0.6573 -0.7418
  652MOL0     H88005   3.026   1.891   7.936 -1.0720  2.0221  0.3736
  652MOL0     H88006   4.750   1.822   7.256 -0.0969  1.6651  0.3052
  652MOL0     H88007   4.996   1.768   7.220  2.3710 -1.8303 -0.1675
  652MOL0     H88008   5.284   1.230   7.243 -1.1697 -0.2916  1.7101
  652MOL0     H88009   5.493   1.157   7.295 -1.1211 -0.7983  0.3564
  652MOL0     H88010   5.646   1.070   7.393  0.6453 -1.3643 -0.3152
  652MOL0     H88011   5.804   1.120   7.352  2.7113 -0.9950  2.1685
  652MOL0     H88012   5.720   1.082   7.641 -2.8567 -1.0488 -1.4448
  652MOL0     H88013   5.879   1.124   7.584 -0.7504  2.5960 -0.0285
  652MOL0     H88014   5.731   0.878   7.469  0.1174 -1.8742 -0.5025
  652MOL0     H88015   5.844   0.867   7.599  0.2748 -1.9867 -0.7276
  652MOL0     H88016   5.893   0.932   7.313 -0.9081 -0.6113 -0.0830
  652MOL0     H88017   5.943   0.788   7.396  2.3309 -1.1460  3.2128
  652MOL0     H88018   6.249   1.044   7.539 -0.9025 -1.3991  0.7176
  652MOL0     H88019   5.575   1.478   7.558 -0.7459 -0.5110 -0.1337
  652MOL0     H88020   5.346   1.571   7.508  0.4668 -0.2199 -0.2613
  653MOL0     O88021   1.163  10.737   0.861  0.7609 -0.0960 -0.4449
  653MOL0     C88022   1.254  10.713   0.777  0.3804 -1.1559  0.1350
  653MOL0     O88023   1.238  10.643   0.661  0.0808 -0.7056 -0.1794
  653MOL0     C88024   1.123  10.596   0.612  0.5070 -0.3966  0.2399
  653MOL0     C88025   1.001  10.663   0.622 -0.6748 -0.2330  0.1079
  653MOL0     C88026   0.887  10.614   0.582 -0.0059  0.6087  1.3903
  653MOL0     C88027   0.878  10.491   0.521 -0.8343 -0.0710  0.9142
  653MOL0     O88028   0.754  10.435   0.488  0.4458  0.1151  0.8451
  653MOL0     C88029   0.639  10.526   0.482  0.0026  0.1678 -0.2735
  653MOL0     C88030   0.509  10.456   0.414 -0.2505  0.0146  0.0160
  653MOL0     C88031   0.375  10.536   0.430  0.7121 -0.9369  0.8699
  653MOL0     C88032   0.291  10.564   0.298 -0.1161  0.6523 -0.5723
  653MOL0     C88033   0.150  10.617   0.335 -0.4547 -0.0952 -0.5676
  653MOL0     C88034   0.083  10.671   0.209  0.7845 -0.2406  0.5735
  653MOL0     C88035  -0.060  10.720   0.240  0.1852 -0.0757 -0.5934
  653MOL0     C88036  -0.148  10.743   0.114  0.5516 -0.1452  0.3551
  653MOL0     N88037  -0.185  10.617   0.052 -0.0317  0.0874 -0.5373
  653MOL0     C88038  -0.292  10.536   0.091 -0.5672  0.4329  0.2840
  653MOL0     C88039  -0.299  10.442  -0.004 -0.0960  1.4916 -0.2068
  653MOL0     C88040  -0.400  10.328  -0.013  0.8460  0.9352 -0.7568
  653MOL0     C88041  -0.530  10.378  -0.080  0.4368  0.3451  0.0408
  653MOL0     C88042  -0.624  10.251  -0.089  0.3914 -0.0478  0.0964
  653MOL0     C88043  -0.766  10.282  -0.135 -0.4043  0.0260  0.4262
  653MOL0     O88044  -0.829  10.372  -0.057 -0.1526 -0.0769 -0.2821
  653MOL0     C88045  -0.966  10.385  -0.059  1.0711  0.0515  0.0235
  653MOL0     C88046  -1.042  10.394  -0.172 -0.4648 -0.4469 -0.1940
  653MOL0     C88047  -1.185  10.409  -0.171 -0.5472 -0.7746 -0.2559
  653MOL0     C88048  -1.257  10.423  -0.301 -0.0435  0.1799  0.6623
  653MOL0     C88049  -1.251  10.398  -0.045 -0.6244 -0.3565  0.2169
  653MOL0     C88050  -1.394  10.406  -0.029 -0.0364 -0.8207  0.0035
  653MOL0     O88051  -1.475  10.441  -0.133 -0.1196 -1.2197  0.8178
  653MOL0     C88052  -1.616  10.428  -0.152 -0.0230 -0.2689 -1.3102
  653MOL0     C88053  -1.699  10.406  -0.036  0.8736  0.8785  0.7013
  653MOL0     C88054  -1.840  10.430  -0.054 -0.4509 -0.5102 -1.3234
  653MOL0     C88055  -1.897  10.462  -0.180 -0.7176 -0.2812 -0.2043
  653MOL0     O88056  -2.027  10.490  -0.195  0.3219  0.1451  0.4669
  653MOL0     C88057  -2.128  10.433  -0.112  0.0574 -0.2183 -0.3582
  653MOL0     C88058  -2.264  10.452  -0.178 -0.7120  0.8213 -0.8403
  653MOL0     C88059  -2.385  10.376  -0.107 -0.7992 -0.0294 -0.3867
  653MOL0     C88060  -2.412  10.419   0.036 -0.5675  0.5950  0.2859
  653MOL0     C88061  -2.555  10.367   0.063  0.4294 -0.1589 -0.2110
  653MOL0     C88062  -2.603  10.385   0.208 -0.1851  0.4691  0.9674
  653MOL0     C88063  -2.720  10.285   0.231  1.1570 -0.4273  0.2607
  653MOL0     C88064  -2.669  10.148   0.266 -0.1036  0.6128 -0.0512
  653MOL0    Cl88065  -2.805  10.019   0.255  0.4010  0.5084  0.0068
  653MOL0     C88066  -1.809  10.476  -0.288 -0.0595  0.2202 -0.2981
  653MOL0     C88067  -1.676  10.474  -0.274  0.2360 -0.3437  0.2567
  653MOL0     O88068  -1.438  10.390   0.084  0.0934 -0.4130 -0.7762
  653MOL0     C88069  -1.170  10.404   0.071  0.7800  0.6530  1.1285
  653MOL0     C88070  -1.033  10.398   0.058  0.2011  0.4896  0.2297
  653MOL0     N88071  -0.199  10.465  -0.095 -0.4503 -0.3783  0.0672
  653MOL0     N88072  -0.125  10.568  -0.059  0.2872  0.2125  0.9947
  653MOL0     C88073   0.998  10.428   0.495  1.0114  0.0784  0.2035
  653MOL0     C88074   1.119  10.482   0.537  0.8467  0.2846 -0.5220
  653MOL0     C88075   1.389  10.758   0.795 -1.0769  0.0131  0.0278
  653MOL0     C88076   1.466  10.804   0.679 -0.1799  0.9315 -0.4335
  653MOL0     C88077   1.598  10.834   0.703 -0.8507 -1.6533  0.2312
  653MOL0     C88078   1.653  10.846   0.833 -0.3510 -0.7847 -0.2491
  653MOL0     O88079   1.788  10.885   0.843  0.5756 -0.0893  0.3897
  653MOL0     C88080   1.845  10.886   0.975  0.3582  0.2096  0.2916
  653MOL0     C88081   1.976  10.966   0.952  0.5003  0.8299  0.0815
  653MOL0     C88082   2.076  10.884   0.866 -0.7346  0.1281 -0.6196
  653MOL0     C88083   2.215  10.951   0.849  0.1336  0.4491  0.3414
  653MOL0     C88084   2.286  10.941   0.976  1.1657  0.3291  0.5036
  653MOL0     C88085   2.343  10.950   1.081 -0.6052  0.2169  0.4139
  653MOL0     C88086   1.578  10.803   0.945  0.3937 -0.5669 -0.1621
  653MOL0     C88087   1.450  10.752   0.922  0.5597  0.2244 -0.1595
  653MOL0     H88088   1.003  10.752   0.685  1.1114  1.9213 -2.7162
  653MOL0     H88089   0.796  10.665   0.610 -0.3645 -0.2283  1.8190
  653MOL0     H88090   0.616  10.543   0.587  1.5300  3.2109 -0.3348
  653MOL0     H88091   0.662  10.618   0.428  0.1004  0.5599  0.4395
  653MOL0     H88092   0.537  10.456   0.308  4.3440 -0.5981  1.0082
  653MOL0     H88093   0.483  10.355   0.447 -0.1581 -0.8451 -2.3553
  653MOL0     H88094   0.309  10.482   0.499 -0.7894  0.1130  0.2740
  653MOL0     H88095   0.411  10.633   0.465  2.4322 -0.8934 -0.8537
  653MOL0     H88096   0.343  10.639   0.238  1.0678  0.2671 -0.0625
  653MOL0     H88097   0.265  10.472   0.245 -1.9496 -0.6427  2.3049
  653MOL0     H88098   0.096  10.535   0.383 -0.6428  1.8914  2.9746
  653MOL0     H88099   0.148  10.703   0.403  0.2984 -1.4367  1.2068
  653MOL0     H88100   0.138  10.751   0.159 -0.8031 -1.4533 -3.5434
  653MOL0     H88101   0.077  10.594   0.132 -4.4870  1.8646 -1.6415
  653MOL0     H88102  -0.108  10.642   0.300  0.5826  0.2371  0.1524
  653MOL0     H88103  -0.041  10.809   0.301  0.4864  0.3622 -1.3165
  653MOL0     H88104  -0.089  10.799   0.041 -0.5930  1.3252  0.5221
  653MOL0     H88105  -0.233  10.806   0.140  1.7194  0.9511  1.6436
  653MOL0     H88106  -0.360  10.548   0.175  0.3419  1.0589  0.9410
  653MOL0     H88107  -0.364  10.244  -0.074  1.1919 -0.5708  1.4241
  653MOL0     H88108  -0.423  10.291   0.087 -1.9074  3.2812 -0.3921
  653MOL0     H88109  -0.503  10.419  -0.177 -0.8582 -1.3429 -1.0891
  653MOL0     H88110  -0.579  10.454  -0.017 -3.0698 -4.2208  3.5150
  653MOL0     H88111  -0.632  10.205   0.010 -0.4845 -0.1141  0.0008
  653MOL0     H88112  -0.581  10.182  -0.162 -1.4300 -1.8118  0.5968
  653MOL0     H88113  -0.828  10.191  -0.133  0.7855 -0.8174  0.1091
  653MOL0     H88114  -0.761  10.330  -0.233  2.3858 -2.1191 -0.6208
  653MOL0     H88115  -0.979  10.385  -0.260 -0.0354  2.1670 -0.2271
  653MOL0     H88116  -1.182  10.425  -0.380 -0.0099 -0.3212  0.6819
  653MOL0     H88117  -1.325  10.339  -0.319  0.2862  0.4333 -2.3872
  653MOL0     H88118  -1.315  10.516  -0.315  0.1129  0.0522 -1.1245
  653MOL0     H88119  -1.660  10.386   0.063  0.3044 -0.2775  0.7134
  653MOL0     H88120  -1.906  10.430   0.033  1.4113 -0.4989  0.1570
  653MOL0     H88121  -2.112  10.325  -0.107  1.5400 -0.0218 -0.5206
  653MOL0     H88122  -2.124  10.472  -0.010 -1.5704  0.9799 -0.7065
  653MOL0     H88123  -2.290  10.558  -0.171  0.8412  1.2146 -0.7970
  653MOL0     H88124  -2.255  10.437  -0.286  3.3129  0.8553 -0.6302
  653MOL0     H88125  -2.358  10.270  -0.108  1.8159  0.5370  1.1361
  653MOL0     H88126  -2.474  10.390  -0.169 -2.2302 -0.7247  1.4097
  653MOL0     H88127  -2.341  10.374   0.106 -1.4333  0.2758  0.9774
  653MOL0     H88128  -2.414  10.528   0.047 -0.2361  0.7454 -0.9554
  653MOL0     H88129  -2.563  10.263   0.030  0.3938 -0.0770 -0.4574
  653MOL0     H88130  -2.633  10.424   0.011  0.2213  1.3723  1.6398
  653MOL0     H88131  -2.520  10.372   0.278 -2.9359  1.3770  4.7103
  653MOL0     H88132  -2.649  10.483   0.228  0.4153  0.3165  3.4619
  653MOL0     H88133  -2.788  10.280   0.145 -1.3912  1.8939  1.9682
  653MOL0     H88134  -2.777  10.307   0.322 -0.1677 -3.4598  0.2659
  653MOL0     H88135  -2.610  10.143   0.357 -2.8435 -0.4702  1.8070
  653MOL0     H88136  -2.600  10.131   0.183 -0.5107  1.2280 -0.5329
  653MOL0     H88137  -1.850  10.481  -0.389 -2.4154  1.4059  0.6403
  653MOL0     H88138  -1.610  10.498  -0.357  2.5874 -4.7333  0.4911
  653MOL0     H88139  -1.220  10.414   0.167 -1.6025 -1.3635  0.2017
  653MOL0     H88140  -0.973  10.388   0.148 -1.0598 -0.2580  1.0111
  653MOL0     H88141   0.993  10.345   0.425  3.1979  0.1555 -0.1356
  653MOL0     H88142   1.207  10.437   0.492  1.3620  0.8211 -0.0689
  653MOL0     H88143   1.425  10.807   0.578 -0.5187 -1.9000 -0.4623
  653MOL0     H88144   1.664  10.864   0.622 -0.1207 -2.3417  0.5567
  653MOL0     H88145   1.792  10.934   1.058  0.3486 -0.6792  0.8093
  653MOL0     H88146   1.857  10.780   1.001 -0.7689 -0.3657 -1.4472
  653MOL0     H88147   2.014  10.996   1.050 -1.0676 -0.5554  1.1700
  653MOL0     H88148   1.960  11.060   0.898 -0.0974 -0.3103 -1.8376
  653MOL0     H88149   2.034  10.873   0.765  0.2034 -1.2583 -0.8937
  653MOL0     H88150   2.088  10.782   0.906  0.5272  1.5849  3.1271
  653MOL0     H88151   2.215  11.060   0.837  1.3509  0.5258  0.8676
  653MOL0     H88152   2.263  10.912   0.758 -2.5139 -1.2387 -0.4258
  653MOL0     H88153   2.403  10.972   1.167 -2.2638  3.0883  0.9913
  653MOL0     H88154   1.627  10.785   1.039  0.8575  1.5268  0.0368
  653MOL0     H88155   1.387  10.711   1.000  1.0993  1.7088  1.0990
  654MOL0     O88156   0.708   7.287   3.429  0.2123  0.0062  0.0927
  654MOL0     C88157   0.771   7.271   3.322  0.1592 -0.1776 -0.5621
  654MOL0     O88158   0.714   7.231   3.209 -0.0073  0.2689  0.1475
  654MOL0     C88159   0.583   7.170   3.209 -0.1933 -0.6685 -0.0346
  654MOL0     C88160   0.470   7.252   3.197 -0.3031 -0.0253 -0.0496
  654MOL0     C88161   0.342   7.194   3.194  0.3157  0.0927 -0.1823
  654MOL0     C88162   0.325   7.059   3.207 -0.5110  1.0523 -0.2567
  654MOL0     O88163   0.199   7.006   3.218  0.3742  0.2918  0.3228
  654MOL0     C88164   0.181   6.868   3.203  0.7710 -0.2255  0.7724
  654MOL0     C88165   0.030   6.819   3.186 -0.5875 -0.0520 -0.1451
  654MOL0     C88166  -0.038   6.876   3.071  0.0042  0.0908  0.2024
  654MOL0     C88167  -0.145   6.982   3.099  0.2121 -0.3428 -0.5203
  654MOL0     C88168  -0.268   6.927   3.169  0.1971 -0.7746 -0.3246
  654MOL0     C88169  -0.356   6.857   3.061 -0.6415 -0.3522 -0.2977
  654MOL0     C88170  -0.504   6.838   3.114  0.1189  0.2139  0.0778
  654MOL0     C88171  -0.610   6.816   2.988  0.3003 -0.6838  0.4842
  654MOL0     N88172  -0.668   6.944   2.948  0.4757  0.6810  0.1341
  654MOL0     C88173  -0.781   7.004   2.997 -0.1832 -0.4317 -0.1662
  654MOL0     C88174  -0.780   7.121   2.935  0.1770  0.0107  0.2145
  654MOL0     C88175  -0.869   7.235   2.964  0.3397  0.0261  0.4157
  654MOL0     C88176  -1.018   7.209   2.938 -0.8271  0.1667  0.8670
  654MOL0     C88177  -1.050   7.155   2.802 -0.2618 -0.2864 -0.0861
  654MOL0     C88178  -1.206   7.146   2.787 -0.9660  0.0462 -0.3348
  654MOL0     O88179  -1.226   7.067   2.672 -0.0650 -0.5614  0.6544
  654MOL0     C88180  -1.344   7.088   2.605  0.3653 -0.0496  0.8336
  654MOL0     C88181  -1.384   6.987   2.513 -0.2357 -0.6174 -0.7435
  654MOL0     C88182  -1.508   6.988   2.450 -0.0006 -0.1816 -0.1580
  654MOL0     C88183  -1.539   6.869   2.352  1.2481 -0.1643 -1.0475
  654MOL0     C88184  -1.599   7.093   2.473  0.3490  0.0697  0.3464
  654MOL0     C88185  -1.742   7.088   2.419  0.0345 -0.6106 -0.2105
  654MOL0     O88186  -1.807   6.968   2.405 -0.0914  0.2449  0.3714
  654MOL0     C88187  -1.913   6.957   2.324  0.6529  0.4302  0.5895
  654MOL0     C88188  -1.931   6.832   2.256  1.3397 -0.4275  0.1922
  654MOL0     C88189  -2.040   6.815   2.174 -0.0712  0.8163  0.3634
  654MOL0     C88190  -2.142   6.916   2.155  1.0283 -0.2778 -0.5381
  654MOL0     O88191  -2.259   6.886   2.098 -0.3929 -0.1707 -0.0109
  654MOL0     C88192  -2.293   6.749   2.080 -0.4822  0.6252  0.4940
  654MOL0     C88193  -2.430   6.735   2.013  0.1401  0.6895 -0.0078
  654MOL0     C88194  -2.540   6.750   2.119 -0.9437 -0.8112 -0.9060
  654MOL0     C88195  -2.679   6.752   2.054 -0.5269  0.4323 -0.0807
  654MOL0     C88196  -2.772   6.700   2.155 -0.1035  0.0123 -0.0228
  654MOL0     C88197  -2.911   6.700   2.096  0.0071 -0.0855  0.0158
  654MOL0     C88198  -3.016   6.665   2.191 -0.0168  0.4796 -0.6508
  654MOL0     C88199  -3.111   6.552   2.144 -0.3776 -0.1634  0.8314
  654MOL0    Cl88200  -3.276   6.583   2.200  0.1258 -0.2895 -0.1655
  654MOL0     C88201  -2.116   7.040   2.213  0.4296  0.3245 -0.0679
  654MOL0     C88202  -2.009   7.055   2.303  0.4265  0.5655  0.4403
  654MOL0     O88203  -1.786   7.194   2.382  0.1833 -0.0378  0.0546
  654MOL0     C88204  -1.561   7.204   2.556  0.5144  0.3560 -0.5074
  654MOL0     C88205  -1.431   7.202   2.619  0.0433  0.1697  0.1464
  654MOL0     N88206  -0.673   7.135   2.851  0.1970 -0.0578  0.6739
  654MOL0     N88207  -0.606   7.030   2.860  0.4903  0.3877  0.0939
  654MOL0     C88208   0.442   6.979   3.215 -0.3140  0.6362  0.6177
  654MOL0     C88209   0.566   7.037   3.200 -1.5879 -0.6564 -0.1432
  654MOL0     C88210   0.915   7.298   3.326 -0.2338 -0.2174 -0.3282
  654MOL0     C88211   1.005   7.292   3.211 -0.1580  1.0079  0.0280
  654MOL0     C88212   1.140   7.325   3.226  0.5049  0.1885 -0.3140
  654MOL0     C88213   1.187   7.357   3.351 -0.5656 -0.2822 -0.1429
  654MOL0     O88214   1.321   7.392   3.364  0.4514  0.7933  0.8282
  654MOL0     C88215   1.406   7.280   3.376 -0.9677 -0.3876 -0.1752
  654MOL0     C88216   1.509   7.311   3.498 -0.2512  0.2318 -0.1502
  654MOL0     C88217   1.603   7.422   3.461 -0.2740  1.1325  0.3387
  654MOL0     C88218   1.697   7.481   3.562  0.0900 -0.4055 -0.4445
  654MOL0     C88219   1.788   7.572   3.498 -0.4858 -0.4640  0.2739
  654MOL0     C88220   1.864   7.648   3.435  0.1936 -0.2572  0.9365
  654MOL0     C88221   1.105   7.356   3.465  0.1234  0.4292  0.2398
  654MOL0     C88222   0.971   7.331   3.457 -0.4099 -0.4118  0.2768
  654MOL0     H88223   0.482   7.360   3.193  0.4842 -0.1401 -1.0559
  654MOL0     H88224   0.257   7.258   3.174 -2.2930 -3.0218 -0.0505
  654MOL0     H88225   0.232   6.833   3.113 -0.4368  0.8849 -0.3861
  654MOL0     H88226   0.233   6.824   3.289  2.3412  1.6637  0.8743
  654MOL0     H88227   0.036   6.711   3.169  1.2529  0.1535 -1.1110
  654MOL0     H88228  -0.029   6.840   3.276 -1.7360 -1.5511 -0.5121
  654MOL0     H88229   0.034   6.918   3.000  1.4308 -1.6068  0.5647
  654MOL0     H88230  -0.092   6.793   3.024 -1.3237  2.1826 -2.1799
  654MOL0     H88231  -0.111   7.072   3.151 -1.4919  0.1257 -0.1380
  654MOL0     H88232  -0.178   7.020   3.003  0.0464  0.6657 -0.0703
  654MOL0     H88233  -0.239   6.852   3.243  0.5859  0.2012  0.5339
  654MOL0     H88234  -0.329   7.015   3.195 -2.0774 -0.8129 -4.6537
  654MOL0     H88235  -0.369   6.921   2.973  2.5930 -0.5578 -1.0623
  654MOL0     H88236  -0.315   6.764   3.019  0.3410  0.2688 -0.7340
  654MOL0     H88237  -0.508   6.748   3.175 -1.6264  0.3268  0.1906
  654MOL0     H88238  -0.537   6.925   3.172  0.7275  1.3806 -1.2489
  654MOL0     H88239  -0.695   6.751   3.012 -1.4258  1.1341 -0.4398
  654MOL0     H88240  -0.555   6.773   2.903 -1.8420 -0.3829 -1.1513
  654MOL0     H88241  -0.845   6.978   3.082 -1.3936 -0.6612 -1.1093
  654MOL0     H88242  -0.859   7.288   3.060  0.6410  0.0813  0.3559
  654MOL0     H88243  -0.844   7.318   2.897 -1.5496 -0.5160 -1.0430
  654MOL0     H88244  -1.070   7.304   2.953  1.8997  1.6462  1.5783
  654MOL0     H88245  -1.051   7.132   3.009 -0.3809 -0.7521  0.0953
  654MOL0     H88246  -1.004   7.057   2.790 -2.3983 -1.4921  1.0253
  654MOL0     H88247  -1.008   7.215   2.721  0.7953 -1.2511 -0.2783
  654MOL0     H88248  -1.238   7.251   2.782 -1.9337 -0.0353  2.3853
  654MOL0     H88249  -1.246   7.104   2.880 -0.0143 -0.9580 -0.3639
  654MOL0     H88250  -1.319   6.901   2.498  2.3659  1.3700 -1.6372
  654MOL0     H88251  -1.591   6.896   2.260 -1.2279 -1.6737 -0.1848
  654MOL0     H88252  -1.452   6.809   2.328  0.7550 -0.3565 -2.4374
  654MOL0     H88253  -1.602   6.791   2.395 -1.5639  0.8618 -3.0029
  654MOL0     H88254  -1.858   6.754   2.270 -0.3728 -1.7710  2.1300
  654MOL0     H88255  -2.040   6.715   2.130  3.5854  0.6026  0.5095
  654MOL0     H88256  -2.211   6.711   2.019 -0.5076 -1.0801  1.4488
  654MOL0     H88257  -2.281   6.700   2.177  2.4916  1.4775  0.6314
  654MOL0     H88258  -2.449   6.813   1.939  0.2601 -0.8832 -1.7624
  654MOL0     H88259  -2.441   6.635   1.969 -4.3532  2.1660 -2.8864
  654MOL0     H88260  -2.532   6.842   2.178  0.9276 -2.8735  2.3811
  654MOL0     H88261  -2.538   6.664   2.186 -0.1294 -2.0687 -2.4660
  654MOL0     H88262  -2.697   6.854   2.018  2.9900  1.7336  1.3643
  654MOL0     H88263  -2.676   6.679   1.972  0.4687  0.9978 -0.5764
  654MOL0     H88264  -2.759   6.774   2.235  3.0234 -0.3214 -0.1005
  654MOL0     H88265  -2.750   6.602   2.199 -2.2250  0.1989  1.6198
  654MOL0     H88266  -2.931   6.802   2.061  0.9290  0.2375  0.3967
  654MOL0     H88267  -2.905   6.627   2.015  0.9840 -1.4805  1.3083
  654MOL0     H88268  -3.074   6.756   2.210 -0.5431 -0.3252  1.9889
  654MOL0     H88269  -2.976   6.642   2.290 -1.6569  0.4874  0.0394
  654MOL0     H88270  -3.076   6.449   2.159 -1.8207 -1.1209 -1.6495
  654MOL0     H88271  -3.115   6.551   2.034 -0.9969  0.2145  0.8454
  654MOL0     H88272  -2.195   7.113   2.197  0.5398  0.4114 -0.2174
  654MOL0     H88273  -2.012   7.156   2.342 -1.7933  0.8931 -0.3956
  654MOL0     H88274  -1.624   7.293   2.561  0.7019  0.5114 -0.8452
  654MOL0     H88275  -1.411   7.293   2.674 -1.2155 -0.5140  1.8142
  654MOL0     H88276   0.430   6.872   3.229  0.0400  0.1871 -1.9320
  654MOL0     H88277   0.650   6.972   3.181  0.3275  1.9783 -1.2892
  654MOL0     H88278   0.973   7.268   3.110 -0.0603 -2.6539  0.7292
  654MOL0     H88279   1.204   7.338   3.140  0.3588  0.2694 -0.4093
  654MOL0     H88280   1.355   7.183   3.371  1.5713 -1.9305  1.6518
  654MOL0     H88281   1.460   7.282   3.281 -2.2886 -0.8482 -0.9711
  654MOL0     H88282   1.571   7.222   3.513  1.2228  0.5350 -3.4325
  654MOL0     H88283   1.457   7.331   3.592  0.4966  1.6942 -0.0291
  654MOL0     H88284   1.545   7.507   3.422  2.6181  1.8773 -2.8674
  654MOL0     H88285   1.661   7.390   3.374 -1.1301 -0.3715  0.2881
  654MOL0     H88286   1.746   7.412   3.632 -0.1402  2.0321  2.3493
  654MOL0     H88287   1.641   7.548   3.629  0.2434  0.4204 -1.1174
  654MOL0     H88288   1.939   7.706   3.386  1.0423 -1.0371  1.2920
  654MOL0     H88289   1.166   7.375   3.553  1.6751  2.0272 -1.1081
  654MOL0     H88290   0.912   7.336   3.548 -1.3136 -1.1964 -0.2547
  655MOL0     O88291  10.373   8.179  10.068  0.0840 -0.8014 -0.3936
  655MOL0     C88292  10.447   8.232   9.986 -0.3404 -0.2617 -0.4664
  655MOL0     O88293  10.410   8.318   9.887 -0.4655  0.0285  0.1703
  655MOL0     C88294  10.280   8.340   9.852  0.5987 -0.2723  0.4983
  655MOL0     C88295  10.174   8.254   9.884 -0.5088  0.6726  0.0952
  655MOL0     C88296  10.044   8.282   9.850  0.0262 -0.1055 -0.4416
  655MOL0     C88297  10.015   8.392   9.774 -0.1808 -0.4869 -0.0505
  655MOL0     O88298   9.888   8.413   9.719 -0.5584 -0.2050  0.8556
  655MOL0     C88299   9.802   8.484   9.801  0.3899 -0.0047 -1.0058
  655MOL0     C88300   9.655   8.440   9.773  0.1485 -0.4617  0.5409
  655MOL0     C88301   9.562   8.476   9.885  0.2768  0.6283  0.0868
  655MOL0     C88302   9.428   8.402   9.871  0.4398 -0.5268 -0.1225
  655MOL0     C88303   9.326   8.455   9.970 -0.4172  0.6376 -0.3114
  655MOL0     C88304   9.199   8.377   9.956  0.3832  0.3967  0.6253
  655MOL0     C88305   9.104   8.426   9.839  1.0477 -0.4634 -0.8779
  655MOL0     C88306   9.025   8.551   9.887  0.2953 -0.0335 -0.1377
  655MOL0     N88307   8.934   8.598   9.786  0.7629  1.0937 -0.2632
  655MOL0     C88308   8.979   8.646   9.665  1.1113 -0.0786 -0.2185
  655MOL0     C88309   8.863   8.670   9.592  0.2888  0.9082  0.1876
  655MOL0     C88310   8.867   8.727   9.446  0.5882 -0.8585 -0.6356
  655MOL0     C88311   8.820   8.882   9.436 -0.2573 -0.0140 -0.7704
  655MOL0     C88312   8.682   8.908   9.494  0.2895 -0.0254  0.6570
  655MOL0     C88313   8.638   9.052   9.455  0.5695 -0.0795  0.4849
  655MOL0     O88314   8.501   9.049   9.496  0.1417 -0.2763 -0.3825
  655MOL0     C88315   8.402   9.112   9.422 -0.3192 -0.1226  0.1293
  655MOL0     C88316   8.418   9.187   9.306 -0.1590 -0.3523 -0.0411
  655MOL0     C88317   8.315   9.264   9.243  0.3945  0.4886  0.3746
  655MOL0     C88318   8.352   9.353   9.124 -0.8844  0.2849 -0.1667
  655MOL0     C88319   8.189   9.266   9.305  0.4290  0.5689 -0.0533
  655MOL0     C88320   8.073   9.333   9.246 -0.0793 -0.2068 -0.1647
  655MOL0     O88321   7.985   9.369   9.339  0.0365  0.2968 -0.3325
  655MOL0     C88322   7.888   9.455   9.297 -0.1138  0.2917  0.5843
  655MOL0     C88323   7.923   9.591   9.269 -0.1215 -0.4671  0.1111
  655MOL0     C88324   7.815   9.674   9.244 -0.3166 -0.3189 -0.4580
  655MOL0     C88325   7.676   9.641   9.262  0.0989  0.3473  0.1861
  655MOL0     O88326   7.579   9.735   9.245  0.4424 -0.0323  0.3807
  655MOL0     C88327   7.474   9.690   9.156  0.5137  0.6349  0.1086
  655MOL0     C88328   7.337   9.755   9.194  0.5411 -0.7141 -0.9666
  655MOL0     C88329   7.337   9.917   9.185  0.1771  0.8886 -0.0940
  655MOL0     C88330   7.196   9.987   9.203 -0.4081 -0.4429  0.4458
  655MOL0     C88331   7.220  10.141   9.233 -0.3665  0.3525  0.4712
  655MOL0     C88332   7.082  10.218   9.247 -0.0645  0.4323 -0.7976
  655MOL0     C88333   7.096  10.373   9.242  0.2632  0.1053 -0.6910
  655MOL0     C88334   7.177  10.423   9.355 -0.2995  0.4247 -0.0280
  655MOL0    Cl88335   7.121  10.367   9.514  0.2018 -0.1915 -0.3573
  655MOL0     C88336   7.658   9.503   9.288 -0.0572  0.3208  0.1761
  655MOL0     C88337   7.756   9.413   9.320  0.6307  0.5269 -0.3308
  655MOL0     O88338   8.062   9.353   9.132  0.5553 -0.0566  0.0231
  655MOL0     C88339   8.176   9.183   9.417 -0.3339  0.1567  0.3228
  655MOL0     C88340   8.276   9.105   9.472  0.4294 -0.1271 -0.6434
  655MOL0     N88341   8.758   8.623   9.672  0.1659  0.0256  0.2906
  655MOL0     N88342   8.799   8.569   9.786 -0.0319 -0.5466  0.6067
  655MOL0     C88343  10.112   8.488   9.749 -1.1316  0.1420  0.1743
  655MOL0     C88344  10.244   8.460   9.790  0.1486  0.1685 -0.7094
  655MOL0     C88345  10.591   8.195   9.997 -0.6966  0.5847 -0.2002
  655MOL0     C88346  10.689   8.266   9.916 -0.2317 -0.2365 -0.7862
  655MOL0     C88347  10.827   8.245   9.939 -0.2406  0.3947 -0.8800
  655MOL0     C88348  10.873   8.162  10.045  0.6294 -0.1417 -0.1465
  655MOL0     O88349  11.003   8.146  10.081  0.2192  0.3542 -0.1420
  655MOL0     C88350  11.106   8.196   9.991  0.4330 -0.3067 -0.2504
  655MOL0     C88351  11.237   8.127  10.027 -0.1444  0.3991 -0.6521
  655MOL0     C88352  11.297   8.166  10.158 -0.1673  0.1318  0.1027
  655MOL0     C88353  11.453   8.131  10.143 -0.1364 -0.5585 -0.6010
  655MOL0     C88354  11.483   7.994  10.090  0.3385  0.2260 -0.0803
  655MOL0     C88355  11.509   7.886  10.035 -0.3403 -0.2885 -0.3997
  655MOL0     C88356  10.784   8.095  10.124  0.6757  0.3225  0.1793
  655MOL0     C88357  10.643   8.108  10.091  0.2433 -0.7367 -0.8569
  655MOL0     H88358  10.198   8.166   9.942 -1.0162  1.7695  2.0914
  655MOL0     H88359   9.969   8.211   9.884 -1.6906  1.2075 -1.3258
  655MOL0     H88360   9.836   8.468   9.904  2.5656  0.1627 -1.6476
  655MOL0     H88361   9.805   8.591   9.781 -0.2023 -0.2352 -2.4342
  655MOL0     H88362   9.621   8.491   9.683  0.9124 -0.0555  0.4655
  655MOL0     H88363   9.657   8.333   9.754  2.0058 -0.3747  0.0349
  655MOL0     H88364   9.593   8.452   9.988 -3.4352  0.5056  1.3241
  655MOL0     H88365   9.547   8.583   9.868 -0.4475  0.6423  0.7330
  655MOL0     H88366   9.393   8.418   9.769  0.9517 -1.6559 -0.4988
  655MOL0     H88367   9.449   8.295   9.882 -1.0690 -0.7102  1.1815
  655MOL0     H88368   9.369   8.438  10.070  0.4044 -0.2947 -0.8012
  655MOL0     H88369   9.300   8.561   9.960  0.8293  1.0798  0.7987
  655MOL0     H88370   9.227   8.272   9.945 -0.8867  0.1410 -0.4804
  655MOL0     H88371   9.134   8.382  10.043 -2.0941  0.6621 -1.1194
  655MOL0     H88372   9.169   8.452   9.755  1.2238 -0.0406 -0.6136
  655MOL0     H88373   9.032   8.351   9.804 -1.0315  0.8455  0.3866
  655MOL0     H88374   9.096   8.630   9.913  1.1183 -1.7145  3.3139
  655MOL0     H88375   8.967   8.532   9.977 -0.3261 -1.8038 -0.8498
  655MOL0     H88376   9.081   8.654   9.630  0.6586  1.5919 -1.2829
  655MOL0     H88377   8.966   8.725   9.400  1.6939  0.7290  1.5164
  655MOL0     H88378   8.800   8.667   9.384 -0.4177  0.1964 -0.6069
  655MOL0     H88379   8.833   8.922   9.335  0.2537 -0.2869 -0.8155
  655MOL0     H88380   8.889   8.941   9.497  0.7224 -1.1977 -0.6889
  655MOL0     H88381   8.689   8.893   9.602  2.7654  1.8110  0.8627
  655MOL0     H88382   8.616   8.835   9.447  0.5306 -0.1965  0.5833
  655MOL0     H88383   8.652   9.072   9.348  1.7121  2.0631  0.9622
  655MOL0     H88384   8.693   9.128   9.511 -2.0264  1.9609  0.4701
  655MOL0     H88385   8.515   9.201   9.261  0.5854  2.3882  2.1472
  655MOL0     H88386   8.462   9.359   9.124 -0.7143 -0.7482  3.4307
  655MOL0     H88387   8.328   9.305   9.028 -0.9903  1.9178 -0.9933
  655MOL0     H88388   8.319   9.456   9.140 -1.7313 -0.1924  1.3783
  655MOL0     H88389   8.027   9.621   9.268  0.1643 -0.9755  3.4544
  655MOL0     H88390   7.847   9.772   9.210  0.5705 -0.5882 -0.4012
  655MOL0     H88391   7.500   9.709   9.051  1.7585 -0.5193  0.1720
  655MOL0     H88392   7.457   9.582   9.160 -1.3393  0.9227  1.2972
  655MOL0     H88393   7.250   9.709   9.146  0.8523 -0.9251 -1.3327
  655MOL0     H88394   7.318   9.734   9.300  1.6719  0.6212 -0.4694
  655MOL0     H88395   7.391   9.954   9.097  0.1704  0.2999 -0.3500
  655MOL0     H88396   7.400   9.944   9.270  2.2357 -0.5907 -1.0636
  655MOL0     H88397   7.145   9.975   9.107 -1.3359  2.9545  0.3757
  655MOL0     H88398   7.141   9.940   9.285  2.2860 -1.1635  1.9972
  655MOL0     H88399   7.264  10.179   9.140 -3.0352  0.4949 -0.8619
  655MOL0     H88400   7.283  10.145   9.322 -0.2723 -2.6010  0.6207
  655MOL0     H88401   7.019  10.189   9.162 -0.8623 -1.9539  0.5417
  655MOL0     H88402   7.042  10.195   9.346  0.7951  0.8508 -0.3445
  655MOL0     H88403   6.999  10.420   9.225  0.9398  1.5076 -0.8142
  655MOL0     H88404   7.145  10.405   9.150 -1.0523  1.8388 -0.8503
  655MOL0     H88405   7.172  10.533   9.354 -0.5487  0.4226 -1.6911
  655MOL0     H88406   7.284  10.401   9.348 -0.1733  0.4921  1.2986
  655MOL0     H88407   7.555   9.471   9.296  0.4961 -2.5259 -2.2888
  655MOL0     H88408   7.726   9.311   9.344  1.3929  0.5316  0.7304
  655MOL0     H88409   8.083   9.178   9.472  0.7707  1.2512  2.4031
  655MOL0     H88410   8.253   9.055   9.566  1.6028  2.7356  1.3151
  655MOL0     H88411  10.096   8.583   9.699 -2.0724 -0.3225 -0.4434
  655MOL0     H88412  10.332   8.518   9.767  0.4298 -0.0537 -0.2128
  655MOL0     H88413  10.658   8.320   9.827 -0.0918  1.3660  0.1049
  655MOL0     H88414  10.901   8.290   9.874  3.6812 -2.0953  1.4378
  655MOL0     H88415  11.081   8.168   9.888 -2.1044  0.2067  0.1564
  655MOL0     H88416  11.115   8.304  10.005  1.4991 -0.6154  1.7591
  655MOL0     H88417  11.307   8.150   9.946  1.8010  1.6915  1.2936
  655MOL0     H88418  11.212   8.020  10.023 -0.5727  0.5171 -4.1219
  655MOL0     H88419  11.231   8.121  10.233 -1.5400  1.3247 -0.3391
  655MOL0     H88420  11.295   8.271  10.186 -0.6526  0.4517 -1.0481
  655MOL0     H88421  11.496   8.137  10.243 -0.8075  0.2547 -0.3527
  655MOL0     H88422  11.510   8.196  10.076 -0.6450 -0.2996 -0.7895
  655MOL0     H88423  11.535   7.790   9.997 -1.7348 -0.7606 -0.1990
  655MOL0     H88424  10.802   8.037  10.214 -0.2003  0.7390  0.6350
  655MOL0     H88425  10.572   8.056  10.154 -0.0925  0.6559 -0.0556
  656MOL0     O88426   1.625   2.153   4.604 -0.2910  0.0579 -0.2157
  656MOL0     C88427   1.693   2.111   4.513  0.0967  1.1109 -0.2852
  656MOL0     O88428   1.645   2.060   4.393 -0.2166  0.5527  0.5474
  656MOL0     C88429   1.513   2.033   4.364 -0.4663  0.0079 -0.0079
  656MOL0     C88430   1.474   2.034   4.234  0.1607  0.2521  0.5652
  656MOL0     C88431   1.345   2.010   4.197  0.0929  0.5147  0.6235
  656MOL0     C88432   1.245   1.982   4.289  0.8366 -0.3649  0.4530
  656MOL0     O88433   1.116   1.949   4.236  0.1543 -0.3409 -0.4474
  656MOL0     C88434   1.006   1.914   4.325 -0.5854  0.0945 -0.0164
  656MOL0     C88435   0.874   1.918   4.256 -0.4338  0.0853 -1.1645
  656MOL0     C88436   0.871   1.815   4.136  0.2848  0.1054  0.0286
  656MOL0     C88437   0.765   1.840   4.033 -0.5798 -0.3088  0.5011
  656MOL0     C88438   0.782   1.732   3.919 -0.2767  0.2873 -0.0872
  656MOL0     C88439   0.742   1.786   3.779 -0.0850  0.2153  0.1787
  656MOL0     C88440   0.595   1.813   3.766  0.0432 -0.5484 -0.1305
  656MOL0     C88441   0.522   1.688   3.713  0.2475 -0.3501  0.8674
  656MOL0     N88442   0.391   1.737   3.665 -0.4719 -0.1264 -0.0777
  656MOL0     C88443   0.295   1.793   3.743  0.6173  0.4935  0.6560
  656MOL0     C88444   0.187   1.812   3.660 -1.1744  0.2206  0.1323
  656MOL0     C88445   0.060   1.892   3.706  0.7291 -0.2607 -0.8964
  656MOL0     C88446  -0.044   1.812   3.774 -0.7688  0.0505  0.5739
  656MOL0     C88447  -0.113   1.708   3.692 -0.1184 -0.3120  0.1272
  656MOL0     C88448  -0.156   1.755   3.560  0.3676 -0.5987  0.3085
  656MOL0     O88449  -0.238   1.644   3.506  0.1364 -0.6983 -0.8246
  656MOL0     C88450  -0.342   1.675   3.418 -0.2597 -1.1119  0.5413
  656MOL0     C88451  -0.450   1.581   3.403  0.1139 -0.3250  0.4069
  656MOL0     C88452  -0.568   1.612   3.338  0.1360 -0.1448  0.8563
  656MOL0     C88453  -0.678   1.505   3.340 -0.1642  0.5643  0.1999
  656MOL0     C88454  -0.579   1.742   3.281  1.0628  1.0224 -0.2590
  656MOL0     C88455  -0.701   1.784   3.214  0.8654 -0.6276  0.3314
  656MOL0     O88456  -0.824   1.736   3.255 -0.0722 -0.5311  0.1673
  656MOL0     C88457  -0.935   1.748   3.177 -0.2961  0.1804 -0.2153
  656MOL0     C88458  -0.942   1.784   3.032  0.2993 -0.0645 -0.6679
  656MOL0     C88459  -1.066   1.808   2.975 -0.5193  0.4899 -0.1140
  656MOL0     C88460  -1.187   1.794   3.043 -0.0881  0.4718  0.5518
  656MOL0     O88461  -1.312   1.826   2.994 -0.1919 -1.1621  0.3528
  656MOL0     C88462  -1.349   1.789   2.857  0.1550 -0.6218 -0.1392
  656MOL0     C88463  -1.492   1.840   2.849 -0.2063  0.0662  0.0673
  656MOL0     C88464  -1.583   1.731   2.911 -0.5065  0.0226  0.1938
  656MOL0     C88465  -1.733   1.777   2.912  0.1441  0.4988  0.0673
  656MOL0     C88466  -1.815   1.762   2.782  0.7763 -0.0758 -0.7785
  656MOL0     C88467  -1.953   1.848   2.802  0.4436  0.1633 -0.3375
  656MOL0     C88468  -2.068   1.780   2.737 -0.2529 -0.5492 -0.0445
  656MOL0     C88469  -2.201   1.848   2.763  0.0702  0.3452 -0.3000
  656MOL0    Cl88470  -2.233   1.985   2.650 -0.1269 -0.0854 -0.2783
  656MOL0     C88471  -1.182   1.770   3.180 -0.9157 -0.1884  0.7414
  656MOL0     C88472  -1.061   1.751   3.248 -0.9892 -0.2072 -0.6003
  656MOL0     O88473  -0.684   1.874   3.129  0.3882 -0.0060  0.1934
  656MOL0     C88474  -0.469   1.829   3.275  0.0780 -0.6946  0.0919
  656MOL0     C88475  -0.356   1.799   3.350 -0.5776  0.2287 -0.2735
  656MOL0     N88476   0.216   1.765   3.533  0.7294 -0.1215  0.5009
  656MOL0     N88477   0.339   1.719   3.539 -0.7743  0.4754  0.1906
  656MOL0     C88478   1.284   1.981   4.428  1.0766  0.4007 -0.7658
  656MOL0     C88479   1.418   1.997   4.460 -0.1055 -0.8979  0.6516
  656MOL0     C88480   1.838   2.134   4.525 -0.8639  0.3153 -0.4035
  656MOL0     C88481   1.918   2.094   4.415 -0.0236  0.9790 -0.0456
  656MOL0     C88482   2.061   2.097   4.427 -0.0859  0.6364 -0.1425
  656MOL0     C88483   2.121   2.139   4.545  0.5201  0.2338 -0.7773
  656MOL0     O88484   2.259   2.140   4.578 -0.5234  0.2789  0.0382
  656MOL0     C88485   2.355   2.112   4.467 -0.0871 -0.2934  0.6566
  656MOL0     C88486   2.502   2.138   4.503  0.2769 -1.0007  0.0858
  656MOL0     C88487   2.552   2.057   4.628  0.4528 -0.8129  0.3812
  656MOL0     C88488   2.678   2.108   4.696 -0.1817  0.2060 -0.1117
  656MOL0     C88489   2.710   2.251   4.702 -0.5814  0.0453  0.5719
  656MOL0     C88490   2.717   2.369   4.722 -0.2726  0.1116 -0.1299
  656MOL0     C88491   2.044   2.166   4.656  0.6334 -0.1321  0.8976
  656MOL0     C88492   1.904   2.161   4.646  1.0093  0.7629  0.2779
  656MOL0     H88493   1.545   2.064   4.158 -1.4240  1.3307 -0.5506
  656MOL0     H88494   1.327   2.005   4.090  3.2520 -0.3459  0.0320
  656MOL0     H88495   1.027   1.814   4.364 -1.0864 -0.3741 -0.9256
  656MOL0     H88496   1.010   1.976   4.414 -0.7135  0.4102 -0.2292
  656MOL0     H88497   0.795   1.902   4.329 -0.3828 -1.1991 -1.3729
  656MOL0     H88498   0.873   2.017   4.210  1.9106  0.9715  0.4971
  656MOL0     H88499   0.967   1.808   4.084  0.1785 -1.6376  0.0106
  656MOL0     H88500   0.858   1.717   4.183 -0.0944  0.3381  0.4136
  656MOL0     H88501   0.667   1.848   4.081 -1.8138  2.5476 -2.1556
  656MOL0     H88502   0.774   1.940   3.991 -2.8457  0.3669  1.5077
  656MOL0     H88503   0.884   1.696   3.904  0.7397  2.7367  0.4962
  656MOL0     H88504   0.722   1.644   3.943 -2.3874  1.8672  0.7466
  656MOL0     H88505   0.789   1.885   3.773 -0.0973  0.1390 -2.1013
  656MOL0     H88506   0.782   1.725   3.697 -0.9385 -1.2828  0.8285
  656MOL0     H88507   0.554   1.843   3.863  0.2128  0.4246 -0.3520
  656MOL0     H88508   0.586   1.905   3.707  0.8753  0.3831  1.1301
  656MOL0     H88509   0.506   1.614   3.792 -2.0422 -1.7007 -0.7432
  656MOL0     H88510   0.577   1.626   3.641  0.2041 -0.8289  1.2427
  656MOL0     H88511   0.309   1.812   3.849 -0.7863 -1.0736  1.1609
  656MOL0     H88512   0.080   1.973   3.777 -2.3702 -0.7224  0.6812
  656MOL0     H88513   0.013   1.942   3.621 -1.9191 -0.0026  0.6172
  656MOL0     H88514  -0.112   1.880   3.826  0.0990 -1.9392  4.7450
  656MOL0     H88515  -0.002   1.751   3.854  0.9372 -2.4860 -2.0731
  656MOL0     H88516  -0.201   1.670   3.744 -1.3014  0.9991 -0.8325
  656MOL0     H88517  -0.047   1.624   3.671 -0.2425 -0.0759 -1.3843
  656MOL0     H88518  -0.074   1.784   3.493  0.6380 -1.0903  0.4191
  656MOL0     H88519  -0.214   1.844   3.582 -1.6718 -2.0680  1.1425
  656MOL0     H88520  -0.420   1.486   3.447  0.4430  0.2614  1.4735
  656MOL0     H88521  -0.745   1.492   3.255  1.3182 -1.9246 -0.7109
  656MOL0     H88522  -0.629   1.408   3.351 -0.1568  0.7383  2.1076
  656MOL0     H88523  -0.734   1.513   3.434 -3.6282 -0.5484 -1.5740
  656MOL0     H88524  -0.854   1.802   2.972  0.6416 -2.0622 -0.8296
  656MOL0     H88525  -1.064   1.853   2.876  3.0645  0.6305 -0.1072
  656MOL0     H88526  -1.287   1.837   2.781  1.3292 -1.2062  0.4260
  656MOL0     H88527  -1.350   1.681   2.838  1.1774 -0.7580  0.4920
  656MOL0     H88528  -1.498   1.938   2.898  1.5021  0.4898 -0.4952
  656MOL0     H88529  -1.532   1.855   2.748  0.3242  2.3997  0.1442
  656MOL0     H88530  -1.553   1.719   3.016 -0.0065  0.3954  0.0921
  656MOL0     H88531  -1.580   1.637   2.855 -2.0473 -0.1712  0.3721
  656MOL0     H88532  -1.795   1.723   2.984 -2.9970 -0.9985 -3.4309
  656MOL0     H88533  -1.735   1.879   2.951  1.7225  0.1820  1.0964
  656MOL0     H88534  -1.831   1.654   2.769  1.6996 -0.9777  3.8893
  656MOL0     H88535  -1.763   1.802   2.694  2.4142 -4.0248 -1.8287
  656MOL0     H88536  -1.958   1.863   2.911  1.3659  2.7016 -0.5747
  656MOL0     H88537  -1.950   1.952   2.768 -0.8184  0.3290  0.0018
  656MOL0     H88538  -2.067   1.678   2.776  2.5645 -0.7446 -0.4186
  656MOL0     H88539  -2.052   1.779   2.629 -0.2775  2.4887 -0.1601
  656MOL0     H88540  -2.202   1.880   2.868  2.2728  0.5007 -0.2705
  656MOL0     H88541  -2.284   1.779   2.742  0.0813 -0.0521  0.8708
  656MOL0     H88542  -1.276   1.784   3.233 -1.8670 -0.3288 -0.8473
  656MOL0     H88543  -1.052   1.733   3.354  1.4393 -0.7241 -0.8294
  656MOL0     H88544  -0.461   1.922   3.220  3.9084 -0.4405  0.8191
  656MOL0     H88545  -0.272   1.868   3.352 -0.1126 -0.3387  0.0341
  656MOL0     H88546   1.218   1.950   4.508  3.6428 -1.0337  0.9474
  656MOL0     H88547   1.451   1.991   4.563 -1.1496  2.1422  1.2810
  656MOL0     H88548   1.880   2.067   4.317  0.7190 -0.0274 -0.0742
  656MOL0     H88549   2.115   2.070   4.336  2.4432  3.3294  0.4183
  656MOL0     H88550   2.352   2.009   4.432  4.6389 -0.7470  1.0409
  656MOL0     H88551   2.329   2.179   4.385  0.0920  0.7941  1.4686
  656MOL0     H88552   2.498   2.243   4.534  1.0245 -0.4787 -1.5267
  656MOL0     H88553   2.567   2.131   4.416 -0.6853  2.2515 -1.0477
  656MOL0     H88554   2.540   1.951   4.602 -0.6290 -0.4696 -0.6143
  656MOL0     H88555   2.476   2.061   4.706 -2.8305  3.3569 -2.5716
  656MOL0     H88556   2.753   2.044   4.651 -0.9109 -0.0987 -0.9225
  656MOL0     H88557   2.670   2.072   4.799  1.2777  3.7384  1.4019
  656MOL0     H88558   2.739   2.469   4.753  1.5428 -0.8627  1.9849
  656MOL0     H88559   2.095   2.195   4.747  1.8249  3.8748 -0.8322
  656MOL0     H88560   1.841   2.167   4.734 -0.5118  1.4787 -0.7989
  657MOL0     O88561   6.440   0.268   9.678 -0.4690 -0.3169 -0.4041
  657MOL0     C88562   6.563   0.265   9.701  0.2282  0.2767  0.0374
  657MOL0     O88563   6.637   0.348   9.788 -0.2252  0.0496  0.1629
  657MOL0     C88564   6.567   0.431   9.878 -0.3414  0.7379 -0.0255
  657MOL0     C88565   6.570   0.572   9.884  0.5644 -0.1592  0.4162
  657MOL0     C88566   6.468   0.643   9.947 -0.2425 -1.0063  0.9944
  657MOL0     C88567   6.363   0.582  10.024  0.0774  0.2837 -0.4055
  657MOL0     O88568   6.275   0.674  10.074  0.1102  0.2077  0.2581
  657MOL0     C88569   6.189   0.641  10.178  0.3119 -0.4408  0.5696
  657MOL0     C88570   6.136   0.777  10.223  0.8603 -0.5464  0.5089
  657MOL0     C88571   6.039   0.838  10.120  0.7002  0.2557  0.4103
  657MOL0     C88572   6.021   0.987  10.147 -0.3943  0.0841  0.9406
  657MOL0     C88573   5.978   1.061  10.022 -0.0399 -0.5937  0.3787
  657MOL0     C88574   5.975   1.217  10.050  0.2576  0.5542  1.0994
  657MOL0     C88575   5.855   1.266  10.142 -0.6472  0.1812 -0.3463
  657MOL0     C88576   5.720   1.247  10.088 -0.0179 -0.1191  0.9935
  657MOL0     N88577   5.624   1.335  10.155  0.2379  0.6929 -0.2981
  657MOL0     C88578   5.617   1.333  10.292 -0.3066 -1.0754  0.2717
  657MOL0     C88579   5.547   1.448  10.330 -0.4308 -0.0854 -0.4081
  657MOL0     C88580   5.493   1.489  10.461  0.2895  0.3599 -0.0621
  657MOL0     C88581   5.345   1.521  10.454  0.8634  0.1791  0.0035
  657MOL0     C88582   5.265   1.398  10.410 -0.2173 -0.7384 -0.1909
  657MOL0     C88583   5.120   1.422  10.436  0.6359  0.1336 -0.2041
  657MOL0     O88584   5.036   1.312  10.395  0.3115 -0.6763 -0.0369
  657MOL0     C88585   4.914   1.290  10.454  1.1702 -0.5588  0.2195
  657MOL0     C88586   4.849   1.392  10.535 -0.4688  0.1617  0.3281
  657MOL0     C88587   4.735   1.364  10.604  0.2841  0.2322  0.1188
  657MOL0     C88588   4.675   1.466  10.692  0.6138  0.2655 -0.2026
  657MOL0     C88589   4.675   1.237  10.594 -0.0974 -0.2780 -0.0847
  657MOL0     C88590   4.545   1.214  10.666 -0.4266  0.5560  1.0582
  657MOL0     O88591   4.554   1.095  10.733  0.1131 -0.7089 -0.7759
  657MOL0     C88592   4.454   1.079  10.830 -0.1974  0.4911  0.0687
  657MOL0     C88593   4.419   0.949  10.857  0.5292  0.1412  0.0504
  657MOL0     C88594   4.326   0.915  10.959 -0.3873  0.9396  0.2336
  657MOL0     C88595   4.261   1.009  11.038 -0.0764 -0.0659 -0.3802
  657MOL0     O88596   4.164   0.974  11.127 -0.2955  0.2476 -0.0432
  657MOL0     C88597   4.186   0.884  11.233  0.6941 -0.0829  0.3130
  657MOL0     C88598   4.064   0.801  11.255  0.0603 -0.1619  0.5017
  657MOL0     C88599   4.005   0.716  11.138 -1.1551 -0.2825  0.6101
  657MOL0     C88600   3.888   0.626  11.181 -0.6706 -0.7730  0.3419
  657MOL0     C88601   3.796   0.597  11.061 -0.0852 -0.0042  0.1248
  657MOL0     C88602   3.687   0.491  11.085 -0.8168 -0.0566 -0.0868
  657MOL0     C88603   3.642   0.452  10.949  0.2337  0.0417 -0.0475
  657MOL0     C88604   3.500   0.390  10.965 -0.1596 -0.1564 -0.4562
  657MOL0    Cl88605   3.511   0.240  11.051  0.3062 -0.0509  0.2540
  657MOL0     C88606   4.292   1.143  11.008  0.0357  0.3386  0.4556
  657MOL0     C88607   4.391   1.181  10.914 -0.4896 -0.5579  0.6070
  657MOL0     O88608   4.457   1.294  10.662  0.5423  0.2145  0.3595
  657MOL0     C88609   4.728   1.141  10.509 -0.2496  0.4675  0.7126
  657MOL0     C88610   4.853   1.160  10.438  0.2521 -0.0435  0.5418
  657MOL0     N88611   5.542   1.522  10.216 -0.5536 -0.2321  0.1195
  657MOL0     N88612   5.582   1.453  10.114  0.3603  0.7971 -0.2932
  657MOL0     C88613   6.371   0.445  10.037 -0.9770 -1.1567  0.2217
  657MOL0     C88614   6.472   0.370   9.968  0.0441 -0.1638  0.1825
  657MOL0     C88615   6.632   0.151   9.630  0.0907 -0.4432  0.2417
  657MOL0     C88616   6.586   0.084   9.519  0.3688 -1.5295  0.4802
  657MOL0     C88617   6.661  -0.025   9.464 -0.6740 -0.3836 -0.0335
  657MOL0     C88618   6.791  -0.059   9.512  0.3423  0.0897  0.0759
  657MOL0     O88619   6.871  -0.172   9.483 -0.2845 -0.9159  0.6831
  657MOL0     C88620   6.849  -0.227   9.350 -0.1455  0.2135  0.4850
  657MOL0     C88621   6.960  -0.321   9.304  0.0925 -0.2012  0.0695
  657MOL0     C88622   6.969  -0.444   9.394  0.6199 -0.3042 -1.2000
  657MOL0     C88623   7.044  -0.420   9.527  0.2521  0.1923  0.2175
  657MOL0     C88624   7.063  -0.554   9.578  0.7542  0.8430 -0.4022
  657MOL0     C88625   7.081  -0.661   9.631  0.1908  0.4571  0.4281
  657MOL0     C88626   6.829   0.012   9.629  0.2574 -0.3995  0.6198
  657MOL0     C88627   6.750   0.110   9.683 -0.1988 -0.0520 -0.4938
  657MOL0     H88628   6.643   0.618   9.818 -2.1171  1.2513 -1.8022
  657MOL0     H88629   6.475   0.752   9.951  0.4024 -0.8670 -1.6216
  657MOL0     H88630   6.117   0.571  10.134  1.8557 -1.7681  0.0654
  657MOL0     H88631   6.241   0.584  10.256  1.2143  0.0836  0.3689
  657MOL0     H88632   6.086   0.776  10.320  0.2205  1.7933  0.2592
  657MOL0     H88633   6.221   0.843  10.243  1.6954 -1.9926  2.0529
  657MOL0     H88634   6.071   0.817  10.018 -2.3856  1.9511 -1.0409
  657MOL0     H88635   5.941   0.788  10.123 -0.6429  2.6795 -0.3786
  657MOL0     H88636   5.955   1.007  10.232 -1.5504  2.4519 -0.4142
  657MOL0     H88637   6.119   1.026  10.177 -0.4918  0.7702  0.3828
  657MOL0     H88638   6.046   1.036   9.940 -0.0655 -1.2046  0.5376
  657MOL0     H88639   5.883   1.015   9.994  0.3788 -1.0746 -0.2529
  657MOL0     H88640   6.072   1.241  10.094  1.4983 -3.0281  0.6446
  657MOL0     H88641   5.961   1.272   9.957 -2.0521 -0.6471  0.6628
  657MOL0     H88642   5.857   1.216  10.239 -0.7432 -0.6133 -0.7465
  657MOL0     H88643   5.863   1.375  10.149 -2.6334  0.3619 -0.1646
  657MOL0     H88644   5.693   1.141  10.096  2.6410 -0.9065  0.4673
  657MOL0     H88645   5.713   1.261   9.980  1.2933  0.3065  0.9565
  657MOL0     H88646   5.654   1.249  10.351  0.1010 -0.9807  0.1526
  657MOL0     H88647   5.522   1.413  10.534 -1.0410  0.9066  1.0745
  657MOL0     H88648   5.560   1.571  10.488  1.7415 -0.6702 -0.4138
  657MOL0     H88649   5.321   1.596  10.378 -1.5735 -1.1149 -0.6125
  657MOL0     H88650   5.307   1.552  10.552  0.6339 -0.3110  0.0743
  657MOL0     H88651   5.294   1.308  10.466  0.8679  1.2481  2.6676
  657MOL0     H88652   5.278   1.362  10.307  4.1782 -1.2696  0.3588
  657MOL0     H88653   5.090   1.518  10.393  0.4817  0.5538  0.8239
  657MOL0     H88654   5.099   1.451  10.539 -3.7312  0.3564 -0.9658
  657MOL0     H88655   4.888   1.493  10.540 -1.1527  0.4222  0.5012
  657MOL0     H88656   4.582   1.506  10.650  0.3054 -1.7068 -1.5474
  657MOL0     H88657   4.640   1.427  10.788  2.1014  2.8284  1.4965
  657MOL0     H88658   4.739   1.552  10.713  0.9000 -0.0453  0.2085
  657MOL0     H88659   4.482   0.871  10.815 -0.2636  0.2545 -1.4424
  657MOL0     H88660   4.305   0.810  10.974  2.7256  0.1369 -0.2395
  657MOL0     H88661   4.266   0.812  11.215  1.4088  0.3897  1.4404
  657MOL0     H88662   4.217   0.944  11.320 -1.5285  1.0889  0.3880
  657MOL0     H88663   4.090   0.730  11.334  2.4207 -2.9550 -2.5041
  657MOL0     H88664   3.978   0.865  11.278 -0.5275 -1.0816  0.9067
  657MOL0     H88665   4.084   0.652  11.097  0.2066  2.1444 -0.7848
  657MOL0     H88666   3.982   0.785  11.057  2.5784  0.6143  0.0958
  657MOL0     H88667   3.935   0.535  11.219  1.0879 -0.1124 -0.1307
  657MOL0     H88668   3.838   0.672  11.266  0.1092  0.7769  0.0099
  657MOL0     H88669   3.861   0.540  10.994 -2.4147 -0.4998 -1.8501
  657MOL0     H88670   3.756   0.689  11.018  0.7613  0.0752 -0.5171
  657MOL0     H88671   3.726   0.404  11.137 -0.4924  0.3105  0.2926
  657MOL0     H88672   3.606   0.547  11.133 -0.4001  2.3764 -1.9793
  657MOL0     H88673   3.709   0.379  10.902  1.0132  2.7234 -3.4988
  657MOL0     H88674   3.624   0.538  10.883  1.5374 -0.1549 -0.6833
  657MOL0     H88675   3.458   0.376  10.865 -2.1247  0.8325  0.1618
  657MOL0     H88676   3.428   0.446  11.026  1.2188  0.6179  0.4937
  657MOL0     H88677   4.238   1.224  11.056 -1.8079 -1.5566  1.7771
  657MOL0     H88678   4.404   1.287  10.892 -3.7082 -0.3223 -0.7661
  657MOL0     H88679   4.676   1.050  10.481 -0.3924  0.7969 -0.1216
  657MOL0     H88680   4.914   1.093  10.378  0.6307  1.9283 -1.3997
  657MOL0     H88681   6.285   0.396  10.082 -2.7994  0.0091 -1.7480
  657MOL0     H88682   6.453   0.263   9.975  1.5922 -0.3406  2.8865
  657MOL0     H88683   6.490   0.113   9.477  1.0699 -0.2001 -0.2549
  657MOL0     H88684   6.632  -0.090   9.382 -0.2850  0.1629 -0.6194
  657MOL0     H88685   6.760  -0.289   9.356  0.7354 -1.4368 -2.0328
  657MOL0     H88686   6.821  -0.144   9.284 -0.7292 -0.2154  0.1901
  657MOL0     H88687   7.058  -0.272   9.308  0.1867 -0.4435  2.1889
  657MOL0     H88688   6.940  -0.361   9.205 -0.3802 -3.4169  1.3432
  657MOL0     H88689   7.019  -0.523   9.337 -1.0444 -0.9821 -1.7944
  657MOL0     H88690   6.866  -0.478   9.406  0.5830  0.1475 -0.0831
  657MOL0     H88691   6.996  -0.357   9.603  0.8922  1.6766 -0.5561
  657MOL0     H88692   7.141  -0.370   9.517  0.1299  0.1636 -1.2541
  657MOL0     H88693   7.084  -0.753   9.686 -0.6645  0.4815  0.5211
  657MOL0     H88694   6.922  -0.017   9.676  0.9369  1.0785  0.2258
  657MOL0     H88695   6.785   0.157   9.774  0.0303  0.6579 -0.9421
  658MOL0     O88696   2.809   3.779   6.273  0.7720 -1.1344 -1.0549
  658MOL0     C88697   2.851   3.874   6.210  0.3426 -0.6204 -0.3799
  658MOL0     O88698   2.769   3.977   6.166 -0.2154 -0.0887  0.0698
  658MOL0     C88699   2.638   3.979   6.163  0.2606  0.6743  0.0864
  658MOL0     C88700   2.558   3.869   6.126  0.0598 -0.0087 -0.0817
  658MOL0     C88701   2.425   3.879   6.116  0.9482  0.2342 -0.7116
  658MOL0     C88702   2.358   3.994   6.150 -0.5940  0.2676  0.2693
  658MOL0     O88703   2.219   4.015   6.137 -0.3968  0.6236 -0.8257
  658MOL0     C88704   2.142   3.897   6.137  0.6858  0.3580  0.3907
  658MOL0     C88705   2.004   3.968   6.152  0.0736  0.2554 -0.2088
  658MOL0     C88706   1.952   4.012   6.005 -0.0311 -0.1716 -0.0483
  658MOL0     C88707   1.904   3.893   5.925 -0.5304 -0.7168  0.3734
  658MOL0     C88708   1.820   3.930   5.804  0.8209 -0.1185  0.1848
  658MOL0     C88709   1.679   3.965   5.854 -0.5704 -0.4230 -0.0880
  658MOL0     C88710   1.614   4.029   5.733 -0.4561 -0.9276  0.4369
  658MOL0     C88711   1.472   4.076   5.767  0.2204 -0.0141 -0.7995
  658MOL0     N88712   1.399   4.125   5.651 -0.3873 -0.2944  0.1793
  658MOL0     C88713   1.312   4.227   5.658  0.2463 -0.0735  0.6350
  658MOL0     C88714   1.275   4.245   5.530  0.3316  0.3614  0.3466
  658MOL0     C88715   1.177   4.347   5.476 -0.5324 -0.0296  0.1553
  658MOL0     C88716   1.048   4.271   5.454  1.1642  0.0085  0.1247
  658MOL0     C88717   0.936   4.364   5.437  1.1325  0.3108  0.5393
  658MOL0     C88718   0.810   4.291   5.394  0.1384 -0.6843 -0.1863
  658MOL0     O88719   0.702   4.382   5.371  0.1234  0.2977 -0.0475
  658MOL0     C88720   0.583   4.329   5.324 -0.1687  0.0430 -0.0803
  658MOL0     C88721   0.556   4.194   5.291  1.2608 -0.1792  0.0608
  658MOL0     C88722   0.420   4.153   5.253 -0.2575  0.6097  0.2973
  658MOL0     C88723   0.400   4.007   5.198 -0.5603 -0.1651 -0.2457
  658MOL0     C88724   0.315   4.257   5.254  0.0042  0.9328  0.3206
  658MOL0     C88725   0.173   4.231   5.235  0.4840 -0.9215  0.4012
  658MOL0     O88726   0.105   4.338   5.178 -1.1182 -0.9864 -0.8596
  658MOL0     C88727  -0.023   4.365   5.216  0.4169  0.3700  0.1936
  658MOL0     C88728  -0.041   4.465   5.315 -0.1268 -0.2265  0.2449
  658MOL0     C88729  -0.168   4.501   5.357  1.3096  0.0950 -0.1814
  658MOL0     C88730  -0.279   4.428   5.317 -0.6431  0.0068  0.9928
  658MOL0     O88731  -0.401   4.452   5.372  0.3287 -0.1934  0.0812
  658MOL0     C88732  -0.465   4.562   5.295  0.2049  0.3212  0.5820
  658MOL0     C88733  -0.599   4.613   5.349 -0.0337  0.4765 -1.1774
  658MOL0     C88734  -0.707   4.510   5.343  0.6021  0.2735 -0.5058
  658MOL0     C88735  -0.841   4.571   5.375 -0.1220  1.1832 -0.9803
  658MOL0     C88736  -0.939   4.458   5.411  0.2933  0.5264 -0.3100
  658MOL0     C88737  -1.086   4.504   5.449 -0.2273  0.8107 -0.5664
  658MOL0     C88738  -1.083   4.574   5.583 -0.5380  0.1396 -1.2275
  658MOL0     C88739  -1.225   4.616   5.638 -0.6849  0.0996  0.2879
  658MOL0    Cl88740  -1.331   4.480   5.674 -0.1236 -0.0404 -0.0205
  658MOL0     C88741  -0.263   4.322   5.235 -0.4631  0.5213  0.2541
  658MOL0     C88742  -0.137   4.288   5.182  0.2038 -0.0047 -0.5785
  658MOL0     O88743   0.123   4.125   5.264 -0.4666 -0.6629 -0.2554
  658MOL0     C88744   0.345   4.388   5.279  0.1893 -0.6915 -0.3856
  658MOL0     C88745   0.483   4.424   5.310  0.6214  0.1249 -0.1215
  658MOL0     N88746   1.329   4.143   5.457 -0.3885 -0.1737  0.2574
  658MOL0     N88747   1.407   4.070   5.530  0.2340  0.2381 -0.1244
  658MOL0     C88748   2.433   4.107   6.190 -0.7654 -0.0823 -0.4394
  658MOL0     C88749   2.571   4.098   6.194  0.0271  0.8260  0.0576
  658MOL0     C88750   2.998   3.871   6.159 -0.0357  0.4471 -0.1084
  658MOL0     C88751   3.083   3.769   6.196  0.1022 -0.1920  0.0438
  658MOL0     C88752   3.220   3.783   6.177 -0.3646  0.2324  0.8108
  658MOL0     C88753   3.280   3.897   6.111  0.2749  0.4946 -0.3358
  658MOL0     O88754   3.417   3.906   6.099 -0.1068 -0.3985 -0.1750
  658MOL0     C88755   3.471   4.028   6.044 -0.9298  0.5554 -0.6777
  658MOL0     C88756   3.621   4.016   6.056  0.4963  0.5955 -0.0399
  658MOL0     C88757   3.672   3.913   5.949  1.0369 -0.4393  0.4476
  658MOL0     C88758   3.827   3.912   5.944  0.3766  0.2220  0.1156
  658MOL0     C88759   3.871   3.793   5.864 -0.5180 -0.2283 -0.1442
  658MOL0     C88760   3.891   3.699   5.790  0.1261 -0.2917  1.0472
  658MOL0     C88761   3.191   3.989   6.051  0.1482 -0.1747  0.1167
  658MOL0     C88762   3.050   3.976   6.081 -0.8788 -0.0318  0.0092
  658MOL0     H88763   2.606   3.774   6.105  0.0911  0.2283 -1.1284
  658MOL0     H88764   2.366   3.793   6.085  0.6883  0.3656 -0.5783
  658MOL0     H88765   2.131   3.830   6.051 -1.6089  1.3145 -0.1157
  658MOL0     H88766   2.164   3.841   6.229 -0.1833  0.4800  0.6852
  658MOL0     H88767   1.936   3.896   6.198  1.2051  1.2829  3.5139
  658MOL0     H88768   1.999   4.056   6.218 -0.7544  0.2339 -0.2321
  658MOL0     H88769   1.860   4.067   6.023 -0.1123 -0.0720 -0.7669
  658MOL0     H88770   2.024   4.073   5.949  0.5043  2.0954  2.8590
  658MOL0     H88771   1.986   3.836   5.882 -0.8343  0.0914 -1.3813
  658MOL0     H88772   1.842   3.828   5.987  0.7620 -0.3228  2.1905
  658MOL0     H88773   1.868   4.004   5.740  0.0795  0.2810  0.0847
  658MOL0     H88774   1.806   3.843   5.739  0.1753  0.1500 -0.0411
  658MOL0     H88775   1.625   3.873   5.881 -0.1458 -0.3254  1.1633
  658MOL0     H88776   1.673   4.017   5.950 -2.9889 -0.0989 -0.3480
  658MOL0     H88777   1.670   4.113   5.691 -2.3655  0.3710  0.3196
  658MOL0     H88778   1.607   3.957   5.651  2.7445  0.6445 -1.4165
  658MOL0     H88779   1.492   4.155   5.840 -1.3117 -0.8464  0.5890
  658MOL0     H88780   1.419   3.991   5.810 -2.6286  1.7381 -0.5794
  658MOL0     H88781   1.272   4.274   5.748 -0.3104  0.7807 -0.0357
  658MOL0     H88782   1.148   4.420   5.552 -2.5847 -1.2430  0.6353
  658MOL0     H88783   1.215   4.409   5.394 -1.7019  1.6384  0.8078
  658MOL0     H88784   1.012   4.213   5.539 -3.4551  3.2616  0.7411
  658MOL0     H88785   1.047   4.198   5.372  0.1202  1.2847 -1.0395
  658MOL0     H88786   0.970   4.432   5.358 -1.0262  1.1107  0.2533
  658MOL0     H88787   0.908   4.416   5.529 -1.1277 -0.4289  0.3342
  658MOL0     H88788   0.784   4.220   5.474 -1.0507 -1.5390 -1.2931
  658MOL0     H88789   0.837   4.242   5.301  1.3423 -1.7038  0.6649
  658MOL0     H88790   0.635   4.121   5.300  1.2217  0.0879  3.9148
  658MOL0     H88791   0.429   4.007   5.092 -1.0745  2.2790 -0.4349
  658MOL0     H88792   0.466   3.943   5.257 -0.7787  1.3934  1.7689
  658MOL0     H88793   0.297   3.971   5.197 -0.8229  0.5313  0.4941
  658MOL0     H88794   0.047   4.517   5.352  0.8508 -1.9588  0.4683
  658MOL0     H88795  -0.179   4.587   5.423  3.5708 -1.4014  2.3290
  658MOL0     H88796  -0.392   4.643   5.296  0.9228 -0.3114  0.4690
  658MOL0     H88797  -0.480   4.531   5.191 -1.3505  0.1102  0.8429
  658MOL0     H88798  -0.585   4.642   5.453  1.1397 -2.1543 -0.5223
  658MOL0     H88799  -0.641   4.699   5.296  0.0277  1.0079 -0.3687
  658MOL0     H88800  -0.698   4.429   5.415  0.8188 -1.4228 -2.3458
  658MOL0     H88801  -0.719   4.469   5.242 -0.3807  1.8481 -1.0647
  658MOL0     H88802  -0.831   4.633   5.465  1.5202  0.5684 -0.7064
  658MOL0     H88803  -0.884   4.625   5.290 -1.6769  1.7546  0.1400
  658MOL0     H88804  -0.914   4.389   5.491 -2.7815  0.4787  0.7235
  658MOL0     H88805  -0.947   4.404   5.316  1.7552  0.9964 -0.7268
  658MOL0     H88806  -1.133   4.565   5.371 -1.6552 -0.9530 -1.1567
  658MOL0     H88807  -1.155   4.419   5.453 -2.2553  2.3751 -0.5380
  658MOL0     H88808  -1.014   4.659   5.576 -3.0140  2.2367 -1.9652
  658MOL0     H88809  -1.029   4.512   5.656  3.5002  1.2328 -2.9713
  658MOL0     H88810  -1.269   4.683   5.563 -2.0146 -0.7969  0.2260
  658MOL0     H88811  -1.210   4.675   5.728  2.8293  2.2650 -1.4717
  658MOL0     H88812  -0.352   4.267   5.204 -1.1475  0.8444  1.5450
  658MOL0     H88813  -0.135   4.196   5.124 -0.8827  0.6332 -1.6775
  658MOL0     H88814   0.270   4.466   5.273  1.6478  0.6877 -1.6791
  658MOL0     H88815   0.497   4.531   5.322 -2.2434  0.4527  1.0034
  658MOL0     H88816   2.387   4.200   6.222  2.1952  0.9886  1.0624
  658MOL0     H88817   2.627   4.191   6.209 -1.9697  2.4767 -2.0198
  658MOL0     H88818   3.044   3.683   6.249 -2.8734  1.1058  0.1857
  658MOL0     H88819   3.288   3.710   6.220  0.0862  1.0786  1.5697
  658MOL0     H88820   3.458   4.048   5.937  1.4015 -0.4294 -1.2041
  658MOL0     H88821   3.439   4.114   6.104  0.3083  0.4112  0.2135
  658MOL0     H88822   3.654   3.981   6.154 -0.8226 -1.3688 -0.2397
  658MOL0     H88823   3.664   4.113   6.029  2.5946 -0.7526 -1.8450
  658MOL0     H88824   3.635   3.941   5.850 -3.0201  1.9272  2.3422
  658MOL0     H88825   3.636   3.810   5.959 -0.1374 -0.2935 -1.7124
  658MOL0     H88826   3.862   3.911   6.047  0.4629  0.6906  0.0910
  658MOL0     H88827   3.861   4.008   5.904 -0.6733  0.1821 -0.9329
  658MOL0     H88828   3.903   3.618   5.721 -0.7376  0.3717  0.0990
  658MOL0     H88829   3.222   4.077   5.995 -2.7298  1.3194  0.7023
  658MOL0     H88830   2.983   4.051   6.039 -1.4608 -0.4242  0.2270
  659MOL0     O88831   1.667   8.925  10.436  0.1489  0.1717  0.2492
  659MOL0     C88832   1.718   8.812  10.443 -0.1652  0.5849 -0.5382
  659MOL0     O88833   1.652   8.687  10.443 -0.0616  0.3199 -0.2914
  659MOL0     C88834   1.516   8.693  10.438 -0.2178 -0.9615  0.3282
  659MOL0     C88835   1.441   8.648  10.544  0.1332 -1.7649  0.4041
  659MOL0     C88836   1.303   8.661  10.550  0.2185 -0.5239 -0.1651
  659MOL0     C88837   1.236   8.722  10.435  0.4078 -0.0076  0.0603
  659MOL0     O88838   1.099   8.731  10.432 -0.3963 -0.3217 -0.6617
  659MOL0     C88839   1.022   8.684  10.553  0.3516  0.3379 -0.8432
  659MOL0     C88840   0.875   8.712  10.528 -0.0323  0.7258  0.0092
  659MOL0     C88841   0.792   8.598  10.466  0.8607 -0.0449  0.2050
  659MOL0     C88842   0.724   8.518  10.578 -0.2004 -0.3895  0.1904
  659MOL0     C88843   0.645   8.402  10.533  0.1428 -0.2506  1.2052
  659MOL0     C88844   0.629   8.293  10.635 -0.4015 -0.2853 -0.0331
  659MOL0     C88845   0.531   8.191  10.587 -0.3709 -0.4643  0.1988
  659MOL0     C88846   0.381   8.226  10.575 -0.3104 -0.1256  0.1070
  659MOL0     N88847   0.325   8.265  10.702  1.0096  0.5700  0.2610
  659MOL0     C88848   0.277   8.177  10.795  0.6605  0.8940 -0.0041
  659MOL0     C88849   0.228   8.248  10.899 -0.3363 -0.3247 -0.2832
  659MOL0     C88850   0.174   8.193  11.030 -0.3947  0.6104  0.1897
  659MOL0     C88851   0.027   8.172  11.035 -0.0169 -0.2576  0.2631
  659MOL0     C88852  -0.029   8.112  11.166  0.6018 -0.4463 -0.5456
  659MOL0     C88853   0.014   8.180  11.304 -0.3611 -0.1717 -0.6494
  659MOL0     O88854  -0.050   8.309  11.331 -0.1937  0.0164  0.0308
  659MOL0     C88855  -0.185   8.327  11.332 -0.1217 -0.3670 -0.4372
  659MOL0     C88856  -0.232   8.449  11.295 -0.3396  0.1138  0.0003
  659MOL0     C88857  -0.366   8.479  11.288  0.2676 -0.2380 -0.0316
  659MOL0     C88858  -0.391   8.616  11.227  0.2621 -0.4141  1.0184
  659MOL0     C88859  -0.470   8.388  11.331  0.4879 -0.2345  1.0173
  659MOL0     C88860  -0.616   8.419  11.338 -0.1749  0.7639 -0.4914
  659MOL0     O88861  -0.697   8.308  11.368  0.1934  0.6139 -0.3252
  659MOL0     C88862  -0.822   8.342  11.418 -0.7619  1.0302  0.1344
  659MOL0     C88863  -0.832   8.425  11.525 -0.4732 -0.0460 -0.0064
  659MOL0     C88864  -0.955   8.462  11.579 -0.4454  0.4332 -0.0819
  659MOL0     C88865  -1.075   8.403  11.535 -0.8225  0.2704  1.0066
  659MOL0     O88866  -1.194   8.414  11.605 -0.4123 -0.1508  0.4960
  659MOL0     C88867  -1.214   8.512  11.711 -0.1294  0.4515  0.9590
  659MOL0     C88868  -1.369   8.497  11.748 -0.2920 -0.0030 -0.6126
  659MOL0     C88869  -1.408   8.362  11.809  0.9856 -0.7010  0.3661
  659MOL0     C88870  -1.556   8.343  11.830  0.5158  0.2096 -0.1164
  659MOL0     C88871  -1.594   8.208  11.891  0.1753 -0.1709  0.4910
  659MOL0     C88872  -1.732   8.223  11.952  0.2780  0.0522 -0.7360
  659MOL0     C88873  -1.781   8.093  12.029 -0.7266  0.1590  0.4945
  659MOL0     C88874  -1.835   7.990  11.942  0.0420 -0.3014 -0.1036
  659MOL0    Cl88875  -1.994   8.037  11.857  0.0417 -0.1648 -0.1541
  659MOL0     C88876  -1.066   8.320  11.425  0.1808  0.3923  0.8243
  659MOL0     C88877  -0.942   8.289  11.366 -0.3923 -0.2808  0.4537
  659MOL0     O88878  -0.653   8.535  11.327 -0.6562 -0.2692 -0.1374
  659MOL0     C88879  -0.416   8.267  11.383  0.3790  0.6267  0.1540
  659MOL0     C88880  -0.278   8.234  11.379  0.4801 -0.1441  0.7585
  659MOL0     N88881   0.260   8.384  10.867  0.1730  0.1533 -0.0423
  659MOL0     N88882   0.306   8.388  10.747 -0.2555  0.4162  0.0873
  659MOL0     C88883   1.309   8.763  10.323  0.5599 -0.0005 -0.4967
  659MOL0     C88884   1.448   8.754  10.324  0.2476  0.0169 -0.5569
  659MOL0     C88885   1.866   8.806  10.443  0.0292 -0.0254  0.5446
  659MOL0     C88886   1.928   8.689  10.489 -0.7371  0.5223 -0.0303
  659MOL0     C88887   2.067   8.684  10.486 -0.0465 -0.3126  0.0524
  659MOL0     C88888   2.140   8.773  10.404 -0.9402  0.8476  0.5960
  659MOL0     O88889   2.274   8.763  10.404  0.6366  0.0889 -0.3348
  659MOL0     C88890   2.357   8.883  10.368  0.3002 -0.3639 -0.1261
  659MOL0     C88891   2.385   8.902  10.218  0.0747 -0.1745  0.0421
  659MOL0     C88892   2.414   8.768  10.144  0.2240  0.3317 -0.2666
  659MOL0     C88893   2.512   8.775  10.034 -0.3517  0.0573 -0.4541
  659MOL0     C88894   2.645   8.820  10.084  0.6061  0.3469 -0.0639
  659MOL0     C88895   2.739   8.872  10.143  0.3529  1.3096  0.7099
  659MOL0     C88896   2.071   8.888  10.353  0.0135  0.0447 -0.0463
  659MOL0     C88897   1.938   8.912  10.385  1.3038  0.5228  1.1723
  659MOL0     H88898   1.495   8.614  10.632  1.4387  2.8291  1.6580
  659MOL0     H88899   1.245   8.615  10.629  2.1232 -0.7881  1.1448
  659MOL0     H88900   1.025   8.575  10.566  1.2812  0.6499  2.2749
  659MOL0     H88901   1.044   8.737  10.645 -1.2444 -1.1967  0.4966
  659MOL0     H88902   0.830   8.736  10.625  1.4415 -1.4262  1.3222
  659MOL0     H88903   0.858   8.805  10.472 -2.1369 -0.8176 -2.1241
  659MOL0     H88904   0.715   8.634  10.397 -2.0183 -4.9513  0.3525
  659MOL0     H88905   0.862   8.534  10.413  1.3691  0.0321  0.7750
  659MOL0     H88906   0.798   8.488  10.654  0.4177 -1.2770 -0.7395
  659MOL0     H88907   0.655   8.582  10.635 -1.4755 -1.8329  0.3194
  659MOL0     H88908   0.545   8.442  10.512  0.9027  0.7492 -0.7880
  659MOL0     H88909   0.687   8.361  10.441 -1.2675 -0.4940  0.6319
  659MOL0     H88910   0.719   8.232  10.650  1.9661  1.9222 -3.6918
  659MOL0     H88911   0.600   8.327  10.735 -3.2911 -2.3177 -0.0703
  659MOL0     H88912   0.561   8.154  10.488 -0.7032 -0.5054  0.1136
  659MOL0     H88913   0.533   8.106  10.656 -3.1231 -0.3103  0.5774
  659MOL0     H88914   0.326   8.141  10.534 -0.5975 -0.6404  1.5075
  659MOL0     H88915   0.362   8.307  10.504 -0.2328 -2.1765 -2.4177
  659MOL0     H88916   0.260   8.070  10.783  1.0434  0.7848  0.4221
  659MOL0     H88917   0.212   8.092  11.044  0.5216  0.4890 -2.5485
  659MOL0     H88918   0.216   8.259  11.107 -3.7051 -0.0347  2.7503
  659MOL0     H88919   0.003   8.117  10.944 -0.8806 -0.5512  0.6591
  659MOL0     H88920  -0.009   8.275  11.029  1.0253  0.0376 -1.6148
  659MOL0     H88921   0.014   8.011  11.170  2.7611  0.4522  1.5237
  659MOL0     H88922  -0.138   8.107  11.172  0.6269  0.4555  1.7567
  659MOL0     H88923   0.123   8.190  11.301 -0.4823  1.9463  0.4590
  659MOL0     H88924  -0.022   8.116  11.385 -1.3029 -1.1673 -1.8009
  659MOL0     H88925  -0.158   8.518  11.255 -0.8860 -0.2311 -1.6676
  659MOL0     H88926  -0.301   8.671  11.196 -0.2623 -1.4937 -2.8397
  659MOL0     H88927  -0.449   8.604  11.136  1.3521  2.6578 -0.2315
  659MOL0     H88928  -0.455   8.672  11.296  0.3216 -3.4899  3.8114
  659MOL0     H88929  -0.741   8.466  11.568 -1.5500  2.7482 -0.1441
  659MOL0     H88930  -0.960   8.529  11.664 -2.7032 -1.0145  1.0306
  659MOL0     H88931  -1.148   8.498  11.797  1.0983  1.2524  0.1760
  659MOL0     H88932  -1.196   8.614  11.677 -1.1957  0.0058 -1.1389
  659MOL0     H88933  -1.386   8.571  11.827  4.1520 -0.0083  0.6738
  659MOL0     H88934  -1.430   8.511  11.659  1.7740 -0.4755 -2.1816
  659MOL0     H88935  -1.364   8.358  11.909  0.9150 -0.1627  0.4223
  659MOL0     H88936  -1.374   8.272  11.757 -1.9474 -1.1619 -0.9596
  659MOL0     H88937  -1.599   8.422  11.893 -0.9778  0.2178 -1.0946
  659MOL0     H88938  -1.611   8.350  11.735  0.3608  0.7558  0.0082
  659MOL0     H88939  -1.523   8.181  11.970  2.9105  3.5981 -0.3702
  659MOL0     H88940  -1.577   8.133  11.814 -2.4888  0.6944 -1.0720
  659MOL0     H88941  -1.745   8.305  12.023 -2.3182  0.1857 -1.2695
  659MOL0     H88942  -1.806   8.240  11.873 -1.3959  4.4278  1.4971
  659MOL0     H88943  -1.864   8.118  12.097 -3.0707  0.5425 -2.3338
  659MOL0     H88944  -1.693   8.044  12.072 -1.5980 -0.4728  1.6316
  659MOL0     H88945  -1.854   7.891  11.983 -1.7074 -0.2732 -0.7620
  659MOL0     H88946  -1.752   7.975  11.871  0.2071 -0.1719  0.0590
  659MOL0     H88947  -1.157   8.279  11.382  1.1474 -1.5145  0.4576
  659MOL0     H88948  -0.941   8.223  11.280  0.5896  1.2078 -0.7307
  659MOL0     H88949  -0.482   8.191  11.424 -1.5079  1.5812 -0.9735
  659MOL0     H88950  -0.240   8.141  11.421  0.9089  0.6810  2.2646
  659MOL0     H88951   1.258   8.818  10.245  0.4624 -1.2745 -1.3618
  659MOL0     H88952   1.497   8.789  10.233 -1.4978  2.3038 -0.6856
  659MOL0     H88953   1.866   8.605  10.518 -2.0643  2.1470  2.1619
  659MOL0     H88954   2.115   8.600  10.534  2.3775  0.9713  0.0385
  659MOL0     H88955   2.309   8.977  10.398  0.7281 -0.1578 -0.0686
  659MOL0     H88956   2.455   8.873  10.415 -0.1879 -0.5131  0.8801
  659MOL0     H88957   2.470   8.969  10.204 -1.6636  1.8043 -1.9655
  659MOL0     H88958   2.308   8.954  10.160 -0.2281 -0.5183  0.1310
  659MOL0     H88959   2.327   8.740  10.083  0.2543 -0.1586 -0.0872
  659MOL0     H88960   2.445   8.686  10.208  0.3292  0.4028 -0.2259
  659MOL0     H88961   2.470   8.846   9.962  2.5667  0.9680 -1.3965
  659MOL0     H88962   2.526   8.678   9.987  1.3554  0.2102 -0.3376
  659MOL0     H88963   2.819   8.920  10.197  0.9393  0.0069  1.0225
  659MOL0     H88964   2.134   8.958  10.299  2.9315 -2.4173 -0.0689
  659MOL0     H88965   1.877   8.996  10.352  0.5163 -0.3145  0.4316
  660MOL0     O88966   8.132   4.937   2.039 -0.1687 -0.3989 -0.6033
  660MOL0     C88967   8.159   4.988   1.929  0.6616 -0.3339 -0.2363
  660MOL0     O88968   8.066   5.050   1.841 -0.4051  0.5350  0.1719
  660MOL0     C88969   7.937   5.037   1.879  0.6501  0.0661  0.1627
  660MOL0     C88970   7.847   4.975   1.787 -0.0720  0.4338  0.2931
  660MOL0     C88971   7.714   4.944   1.825  0.1996 -0.1346 -0.1085
  660MOL0     C88972   7.670   4.984   1.950 -0.5402  0.1385 -0.0849
  660MOL0     O88973   7.542   4.956   1.994  0.7214  0.2698  0.1438
  660MOL0     C88974   7.517   4.954   2.131 -0.0859 -0.1133 -0.9725
  660MOL0     C88975   7.380   4.900   2.159  0.2207  0.7772 -0.0812
  660MOL0     C88976   7.269   4.981   2.093 -0.0061  0.0705  0.1532
  660MOL0     C88977   7.129   4.913   2.131 -0.3413  0.7306  0.5151
  660MOL0     C88978   7.036   4.953   2.017  0.3221  0.4287  0.4618
  660MOL0     C88979   6.895   4.880   2.011  0.2595  0.9150 -1.0069
  660MOL0     C88980   6.799   4.910   2.127  0.1620 -0.4314  0.4167
  660MOL0     C88981   6.669   4.828   2.110 -0.3477  0.5151 -0.6736
  660MOL0     N88982   6.588   4.853   2.231 -0.5471  0.5373  0.2698
  660MOL0     C88983   6.530   4.979   2.251  0.1001  0.2327  0.7034
  660MOL0     C88984   6.462   4.962   2.370 -0.2779  0.6608 -0.0008
  660MOL0     C88985   6.376   5.069   2.428 -0.9080 -0.4204 -0.0272
  660MOL0     C88986   6.304   5.031   2.562  0.5462 -0.6117  0.1213
  660MOL0     C88987   6.227   5.157   2.624 -0.5782  1.1375 -0.0048
  660MOL0     C88988   6.106   5.205   2.558  0.8501 -0.4985 -0.2009
  660MOL0     O88989   5.995   5.119   2.593 -0.5405  0.5545 -0.2105
  660MOL0     C88990   5.863   5.156   2.559  0.2384  0.0775  0.3057
  660MOL0     C88991   5.831   5.281   2.506  0.2071 -0.6134 -0.5578
  660MOL0     C88992   5.691   5.314   2.469 -0.1006  0.0879  0.2599
  660MOL0     C88993   5.674   5.454   2.405  0.1426  0.1856  0.0198
  660MOL0     C88994   5.586   5.225   2.495  0.5755 -0.3021 -0.4263
  660MOL0     C88995   5.441   5.261   2.476  0.5888 -0.3646 -0.0196
  660MOL0     O88996   5.408   5.395   2.487  0.5785  0.5250  0.5933
  660MOL0     C88997   5.270   5.423   2.479 -0.5832 -0.1820  0.1868
  660MOL0     C88998   5.203   5.448   2.595 -0.3813 -0.4062 -0.4136
  660MOL0     C88999   5.067   5.465   2.607  0.5257  0.3174 -0.4175
  660MOL0     C89000   4.988   5.471   2.487 -0.0274  0.8059 -0.3332
  660MOL0     O89001   4.859   5.502   2.502  0.5969 -0.4845 -0.4592
  660MOL0     C89002   4.763   5.494   2.394  0.0222 -0.1485  0.4439
  660MOL0     C89003   4.622   5.523   2.435  0.4670  0.1640 -0.1793
  660MOL0     C89004   4.567   5.405   2.519  0.2113  0.1502 -0.0223
  660MOL0     C89005   4.455   5.448   2.609  0.3259  0.9160 -0.0016
  660MOL0     C89006   4.388   5.323   2.679 -0.1403 -0.2635  0.4308
  660MOL0     C89007   4.285   5.347   2.783 -0.2602  0.2643  0.2517
  660MOL0     C89008   4.229   5.214   2.844 -0.3641  0.1830  0.3540
  660MOL0     C89009   4.122   5.251   2.942  0.4618  0.6201 -0.2810
  660MOL0    Cl89010   4.162   5.388   3.046 -0.2101  0.0579 -0.3090
  660MOL0     C89011   5.056   5.446   2.366 -0.5089  0.7224 -0.3714
  660MOL0     C89012   5.193   5.417   2.358  0.1990 -0.6309  0.8366
  660MOL0     O89013   5.362   5.167   2.459  0.0578  0.2110  0.5213
  660MOL0     C89014   5.627   5.097   2.546  0.1953 -0.0065 -0.2750
  660MOL0     C89015   5.763   5.064   2.578  0.0593 -0.0919 -0.1939
  660MOL0     N89016   6.502   4.835   2.422  0.2308 -0.4227 -0.2923
  660MOL0     N89017   6.575   4.771   2.338 -0.8467  0.1733  0.2426
  660MOL0     C89018   7.751   5.058   2.032  0.8257  0.6102 -0.0089
  660MOL0     C89019   7.885   5.087   2.004 -0.5916  1.5379  0.2643
  660MOL0     C89020   8.307   4.991   1.898 -0.4164  1.2176  0.2870
  660MOL0     C89021   8.341   4.992   1.765 -1.1989  0.8111 -0.1663
  660MOL0     C89022   8.470   4.975   1.716  0.2917 -0.1717 -0.3945
  660MOL0     C89023   8.575   4.959   1.815 -0.2356 -0.9850 -0.6212
  660MOL0     O89024   8.712   4.945   1.790 -0.0833  0.6581  0.1354
  660MOL0     C89025   8.770   4.988   1.668  0.3621 -0.1350  0.2243
  660MOL0     C89026   8.914   4.942   1.649 -0.7168  0.5867 -0.5386
  660MOL0     C89027   9.002   4.969   1.777 -0.5537  0.2559 -0.3867
  660MOL0     C89028   9.160   4.982   1.746 -0.5777  1.0921 -1.0139
  660MOL0     C89029   9.225   4.866   1.685  0.2797  0.6262 -0.6771
  660MOL0     C89030   9.288   4.772   1.642 -0.2250  0.0862 -0.9198
  660MOL0     C89031   8.534   4.969   1.952 -0.6574  0.2493 -0.5719
  660MOL0     C89032   8.407   4.980   1.991  0.3548 -0.4527  0.4684
  660MOL0     H89033   7.884   4.959   1.687 -0.4170 -3.9639  0.6923
  660MOL0     H89034   7.649   4.896   1.753  1.0201  2.2043 -2.5832
  660MOL0     H89035   7.591   4.893   2.184  0.2704  0.6298 -0.6163
  660MOL0     H89036   7.538   5.050   2.179 -0.5140  0.4780 -1.9393
  660MOL0     H89037   7.372   4.797   2.122 -1.2364  0.3514  1.3096
  660MOL0     H89038   7.361   4.892   2.267 -2.4223 -0.3741 -0.5531
  660MOL0     H89039   7.271   5.088   2.114  1.4110  0.5307 -2.0877
  660MOL0     H89040   7.279   4.990   1.985 -0.6915 -2.8356 -0.2350
  660MOL0     H89041   7.136   4.804   2.137 -1.3284  0.6730  0.7936
  660MOL0     H89042   7.084   4.953   2.222 -0.6299  0.2325  0.5982
  660MOL0     H89043   7.013   5.060   2.019  0.0730  0.3638  1.7505
  660MOL0     H89044   7.074   4.926   1.918  2.8516  1.4327  1.0965
  660MOL0     H89045   6.853   4.920   1.918  1.6809  2.8015 -0.8992
  660MOL0     H89046   6.904   4.771   2.001  0.1423  0.7551  0.3569
  660MOL0     H89047   6.847   4.879   2.220  0.1470 -0.2086  0.4985
  660MOL0     H89048   6.778   5.017   2.135 -1.0898 -0.5125 -1.0977
  660MOL0     H89049   6.695   4.722   2.104  4.6022  1.4940 -0.9336
  660MOL0     H89050   6.612   4.857   2.022 -3.9177 -0.9873  0.9175
  660MOL0     H89051   6.534   5.060   2.179  1.5110  0.1811  0.7029
  660MOL0     H89052   6.434   5.161   2.442 -3.0340  0.5664  3.7316
  660MOL0     H89053   6.302   5.083   2.348 -1.7795  1.2501  1.0198
  660MOL0     H89054   6.370   4.977   2.630  0.9758 -0.4762 -0.1806
  660MOL0     H89055   6.226   4.959   2.535  0.0483  0.1307 -0.4600
  660MOL0     H89056   6.299   5.239   2.636 -3.0917  3.8498 -2.0026
  660MOL0     H89057   6.207   5.125   2.726  0.0247 -3.1902 -1.0729
  660MOL0     H89058   6.109   5.215   2.449 -0.8354 -0.6895 -0.2919
  660MOL0     H89059   6.096   5.302   2.606  3.2520 -0.2775 -0.0118
  660MOL0     H89060   5.905   5.356   2.482  0.4810 -1.9010 -4.3926
  660MOL0     H89061   5.664   5.525   2.487  1.3001 -0.9900  1.2318
  660MOL0     H89062   5.759   5.484   2.343 -0.4831  1.5389 -0.2143
  660MOL0     H89063   5.586   5.452   2.340 -0.3694  3.3148  0.4630
  660MOL0     H89064   5.269   5.449   2.682  1.7477  0.7705 -1.9653
  660MOL0     H89065   5.021   5.474   2.705 -0.0729 -1.5018 -0.5029
  660MOL0     H89066   4.785   5.566   2.314  2.3084 -1.3209 -0.0668
  660MOL0     H89067   4.770   5.396   2.346 -2.6953  0.0032 -0.4637
  660MOL0     H89068   4.626   5.618   2.489  2.5293 -0.4432  0.8744
  660MOL0     H89069   4.549   5.533   2.354 -0.8956  3.0341  1.2670
  660MOL0     H89070   4.637   5.348   2.581  0.5526  1.6122  0.9851
  660MOL0     H89071   4.545   5.334   2.439 -0.6874 -0.6233  0.8851
  660MOL0     H89072   4.476   5.531   2.677 -1.5394  2.1210 -0.8130
  660MOL0     H89073   4.375   5.485   2.545 -0.4274 -0.7122 -0.0542
  660MOL0     H89074   4.466   5.270   2.733 -0.0402 -0.0448  0.5033
  660MOL0     H89075   4.350   5.258   2.600  2.3238  1.2406 -2.2198
  660MOL0     H89076   4.333   5.395   2.868 -1.8889 -1.5239  2.3238
  660MOL0     H89077   4.205   5.415   2.751  0.9876  1.4537 -0.4190
  660MOL0     H89078   4.311   5.172   2.904  0.8727  1.7444 -0.1826
  660MOL0     H89079   4.183   5.141   2.777 -0.4998  0.3446  0.2708
  660MOL0     H89080   4.082   5.168   3.002  0.8906  1.0468  0.6016
  660MOL0     H89081   4.032   5.277   2.886 -0.7260 -1.3396  0.5876
  660MOL0     H89082   4.993   5.467   2.280  1.2471 -0.3715 -2.0115
  660MOL0     H89083   5.254   5.400   2.269 -1.4395 -0.3650 -0.3692
  660MOL0     H89084   5.544   5.029   2.560 -0.3518  0.6622 -0.1631
  660MOL0     H89085   5.792   4.964   2.609  0.5199  1.0923  3.6157
  660MOL0     H89086   7.721   5.092   2.131  0.9014 -1.5245  0.8203
  660MOL0     H89087   7.952   5.134   2.075  0.5037  0.6570 -0.1649
  660MOL0     H89088   8.267   5.007   1.687 -0.6270  0.1875 -0.8361
  660MOL0     H89089   8.496   4.976   1.610 -1.3379 -1.9854 -0.8714
  660MOL0     H89090   8.709   4.960   1.582  1.3033 -0.9107 -0.2121
  660MOL0     H89091   8.764   5.097   1.668 -2.4418 -0.2254 -0.0065
  660MOL0     H89092   8.956   4.994   1.562 -1.5404  0.2653 -1.1428
  660MOL0     H89093   8.918   4.834   1.634 -2.7545  0.3047  0.5937
  660MOL0     H89094   8.991   4.893   1.854  2.1788 -1.3173 -1.4109
  660MOL0     H89095   8.966   5.067   1.810  0.2178  0.8932 -1.3753
  660MOL0     H89096   9.211   4.990   1.842  2.0136  1.1744 -2.3037
  660MOL0     H89097   9.178   5.073   1.689 -0.3766  1.8585  0.2385
  660MOL0     H89098   9.348   4.702   1.588 -0.7897  0.4490 -2.0608
  660MOL0     H89099   8.608   4.962   2.031 -1.4115 -2.7170  0.0102
  660MOL0     H89100   8.388   4.962   2.097 -2.8690  0.4189  0.1282
  661MOL0     O89101   3.013   4.488   7.421  0.0172  0.6788  0.3197
  661MOL0     C89102   2.978   4.473   7.303  0.3080  0.3289  0.4549
  661MOL0     O89103   2.865   4.407   7.266  0.6543  0.0359  0.6068
  661MOL0     C89104   2.790   4.346   7.365  0.7989  0.6470 -0.7533
  661MOL0     C89105   2.824   4.232   7.432  0.4571 -0.2788 -0.1120
  661MOL0     C89106   2.744   4.171   7.526 -0.8867  0.1263 -0.3480
  661MOL0     C89107   2.620   4.222   7.552 -0.9068 -0.4276 -0.0911
  661MOL0     O89108   2.533   4.159   7.639 -0.0151  0.1070  0.1814
  661MOL0     C89109   2.402   4.211   7.654  0.3686 -0.1226 -0.6657
  661MOL0     C89110   2.339   4.137   7.769 -0.3004  0.5910 -0.2129
  661MOL0     C89111   2.194   4.169   7.793 -0.8505  0.1432  0.6948
  661MOL0     C89112   2.110   4.064   7.714  0.8911 -0.6545 -0.4564
  661MOL0     C89113   1.967   4.064   7.747  0.8162 -0.3271  0.0246
  661MOL0     C89114   1.888   4.190   7.748  0.3154 -0.0083 -0.3544
  661MOL0     C89115   1.851   4.258   7.614 -0.9751 -0.4508  0.0136
  661MOL0     C89116   1.777   4.169   7.522 -0.7636  0.2607 -0.5863
  661MOL0     N89117   1.645   4.138   7.577 -0.6254 -0.9288 -0.4760
  661MOL0     C89118   1.565   4.215   7.659  0.0186  0.0874  0.4420
  661MOL0     C89119   1.448   4.146   7.658 -0.3060 -0.6887  0.4162
  661MOL0     C89120   1.334   4.178   7.750 -0.0838  0.6223  0.1624
  661MOL0     C89121   1.206   4.221   7.675 -0.4373 -0.8434  0.1526
  661MOL0     C89122   1.222   4.328   7.565 -0.4388  0.1096  0.1880
  661MOL0     C89123   1.087   4.383   7.518 -0.8059  0.2090 -0.1560
  661MOL0     O89124   0.982   4.285   7.500 -0.7350 -0.5404 -0.1850
  661MOL0     C89125   0.851   4.334   7.531 -0.4916 -0.2807  0.5474
  661MOL0     C89126   0.817   4.387   7.661  0.7015  0.9690 -0.1579
  661MOL0     C89127   0.681   4.418   7.690  0.1433 -0.1168 -0.8256
  661MOL0     C89128   0.643   4.464   7.840 -0.4641  0.4118  0.2894
  661MOL0     C89129   0.584   4.408   7.584  0.9400  0.0871 -0.7574
  661MOL0     C89130   0.439   4.429   7.615  0.6704 -0.9233  0.4080
  661MOL0     O89131   0.355   4.412   7.505 -0.6573 -0.0338  0.2131
  661MOL0     C89132   0.236   4.482   7.488 -0.9922 -1.1024  0.6059
  661MOL0     C89133   0.181   4.571   7.588 -0.7336  1.0686 -0.2231
  661MOL0     C89134   0.056   4.623   7.565 -0.2142 -1.3036  0.2896
  661MOL0     C89135  -0.019   4.598   7.450  0.5341  1.0101 -0.0853
  661MOL0     O89136  -0.136   4.666   7.439  0.3683 -0.1238 -0.1945
  661MOL0     C89137  -0.171   4.708   7.304 -0.3170 -0.3868  0.3166
  661MOL0     C89138  -0.313   4.770   7.285 -0.0739  0.0673 -0.5285
  661MOL0     C89139  -0.326   4.912   7.348  1.2574  0.7070  0.8687
  661MOL0     C89140  -0.387   4.889   7.485 -0.5765 -1.0339  0.3495
  661MOL0     C89141  -0.417   5.023   7.553  1.0646 -0.2315 -0.7077
  661MOL0     C89142  -0.468   5.014   7.700  0.2763 -0.6391 -0.1910
  661MOL0     C89143  -0.513   5.148   7.757  0.0715  0.2894  1.3546
  661MOL0     C89144  -0.569   5.136   7.898 -0.2155  0.3800  0.7797
  661MOL0    Cl89145  -0.425   5.149   8.019 -0.5189 -0.2852 -0.3206
  661MOL0     C89146   0.036   4.515   7.353 -0.2030 -0.5736  0.2971
  661MOL0     C89147   0.162   4.461   7.373 -0.4204 -0.1718 -0.6545
  661MOL0     O89148   0.395   4.440   7.728  0.0017  0.0052 -0.7043
  661MOL0     C89149   0.628   4.361   7.461  0.0578  0.1224  0.7652
  661MOL0     C89150   0.757   4.327   7.431 -0.7733  0.5632 -1.3333
  661MOL0     N89151   1.446   4.053   7.561 -0.1745  0.2882  0.2168
  661MOL0     N89152   1.569   4.035   7.531 -0.4611  0.4194  0.4675
  661MOL0     C89153   2.578   4.337   7.479  0.2329 -0.2971 -0.0449
  661MOL0     C89154   2.662   4.399   7.393 -0.6966 -0.1953 -0.7454
  661MOL0     C89155   3.061   4.538   7.199 -0.4849  1.1100 -0.0186
  661MOL0     C89156   3.039   4.511   7.065  0.5643  0.6837  0.2803
  661MOL0     C89157   3.106   4.581   6.969  0.2452  0.3560 -0.1772
  661MOL0     C89158   3.204   4.677   7.004  0.3458 -0.6348  0.0785
  661MOL0     O89159   3.253   4.761   6.905 -0.0269 -0.4877  0.0206
  661MOL0     C89160   3.372   4.834   6.939 -0.4100 -0.2691 -0.1244
  661MOL0     C89161   3.452   4.856   6.807  0.3111 -0.2627 -0.2301
  661MOL0     C89162   3.598   4.915   6.822  0.1705  0.0344  0.6650
  661MOL0     C89163   3.680   4.938   6.701  0.8329  0.6694 -0.3456
  661MOL0     C89164   3.610   5.055   6.648 -0.2083 -1.2224  0.1579
  661MOL0     C89165   3.559   5.147   6.589  0.2483 -0.1182 -0.1587
  661MOL0     C89166   3.231   4.702   7.138  0.1895  0.4838 -0.8871
  661MOL0     C89167   3.161   4.632   7.238 -0.2470  0.3280  1.3493
  661MOL0     H89168   2.927   4.209   7.409  1.6204  2.8833  1.3819
  661MOL0     H89169   2.792   4.092   7.582  1.4846  1.2391 -0.6602
  661MOL0     H89170   2.410   4.313   7.694 -0.7006 -0.5731  0.8066
  661MOL0     H89171   2.333   4.203   7.569 -0.1429 -1.2990 -0.1628
  661MOL0     H89172   2.353   4.033   7.739  2.4410  1.2637 -1.5925
  661MOL0     H89173   2.396   4.162   7.858  0.1398  1.2453 -0.6653
  661MOL0     H89174   2.179   4.156   7.901  1.1110  2.1238  1.2955
  661MOL0     H89175   2.155   4.268   7.766  0.6284  0.1626 -1.6470
  661MOL0     H89176   2.110   4.080   7.606  0.4980  2.2510 -0.1082
  661MOL0     H89177   2.152   3.964   7.726 -3.8649 -2.5710  5.0406
  661MOL0     H89178   1.917   3.998   7.676  1.7146  1.3394 -2.3024
  661MOL0     H89179   1.949   4.016   7.843 -1.1089  0.2373 -0.0207
  661MOL0     H89180   1.795   4.159   7.796  2.4130 -2.0353  2.7505
  661MOL0     H89181   1.932   4.260   7.819  2.0620 -1.9972  0.6242
  661MOL0     H89182   1.784   4.341   7.638 -0.2791  0.8768 -2.2974
  661MOL0     H89183   1.937   4.297   7.558 -1.7952  1.7751  0.2245
  661MOL0     H89184   1.836   4.079   7.508 -0.9185  0.0179  0.2340
  661MOL0     H89185   1.755   4.212   7.424  0.6628  0.9733 -0.6143
  661MOL0     H89186   1.599   4.300   7.717  1.1982 -0.5925  0.7731
  661MOL0     H89187   1.319   4.080   7.795  0.0938 -0.2558 -1.5904
  661MOL0     H89188   1.358   4.250   7.828 -1.9907  2.8121 -1.1175
  661MOL0     H89189   1.138   4.254   7.755 -2.1854  2.0882 -2.3048
  661MOL0     H89190   1.164   4.137   7.620  3.5233 -0.5359 -3.8811
  661MOL0     H89191   1.277   4.296   7.476  0.8711  2.6351  0.0194
  661MOL0     H89192   1.277   4.403   7.623  0.9219  0.3502 -1.3380
  661MOL0     H89193   1.099   4.438   7.424 -4.0913  1.9109  0.2572
  661MOL0     H89194   1.048   4.459   7.586 -0.1067 -0.3033  0.8308
  661MOL0     H89195   0.892   4.396   7.739 -0.0002 -2.3557  1.0225
  661MOL0     H89196   0.561   4.400   7.876 -3.1309  2.7221 -1.2751
  661MOL0     H89197   0.734   4.464   7.900  1.9042 -0.3776 -3.0418
  661MOL0     H89198   0.606   4.567   7.839  1.4005  1.1102 -0.4622
  661MOL0     H89199   0.237   4.608   7.673 -0.3827 -0.3638  0.1873
  661MOL0     H89200   0.030   4.689   7.647 -0.5881 -2.3442  1.0275
  661MOL0     H89201  -0.087   4.771   7.273 -0.2419 -0.2828  0.7361
  661MOL0     H89202  -0.173   4.621   7.237  0.0250  0.1557 -0.4138
  661MOL0     H89203  -0.332   4.780   7.178 -1.7266 -1.1998 -0.4029
  661MOL0     H89204  -0.391   4.703   7.323  0.6900 -1.9237 -2.2763
  661MOL0     H89205  -0.407   4.960   7.291 -1.2212 -3.4477  0.4935
  661MOL0     H89206  -0.235   4.972   7.345 -0.9366  4.3328 -1.7734
  661MOL0     H89207  -0.482   4.836   7.475 -1.1388  0.2203 -1.3891
  661MOL0     H89208  -0.317   4.839   7.553  0.0828 -2.9412 -1.6095
  661MOL0     H89209  -0.491   5.071   7.489  0.0200  0.2102  0.7834
  661MOL0     H89210  -0.330   5.088   7.562  1.3561 -0.7492  0.4165
  661MOL0     H89211  -0.556   4.948   7.705  0.1258 -0.4728 -0.6333
  661MOL0     H89212  -0.391   4.977   7.768 -2.8181 -2.8025  2.4902
  661MOL0     H89213  -0.575   5.195   7.679  0.5878  0.7525  1.2152
  661MOL0     H89214  -0.426   5.215   7.762 -0.4031  0.9542  0.9017
  661MOL0     H89215  -0.627   5.044   7.912  0.7451 -0.3365  0.1607
  661MOL0     H89216  -0.639   5.220   7.906  0.3345  0.7817  1.4898
  661MOL0     H89217   0.003   4.497   7.252  3.2505  1.1032 -1.3020
  661MOL0     H89218   0.210   4.410   7.291 -1.6242 -1.3931 -0.6282
  661MOL0     H89219   0.559   4.363   7.377 -0.8976  2.8108  1.5024
  661MOL0     H89220   0.777   4.291   7.331  1.2869 -0.6638 -0.5376
  661MOL0     H89221   2.491   4.401   7.495  0.6760  1.5010 -3.8376
  661MOL0     H89222   2.632   4.498   7.361 -1.1502  0.0299  0.3115
  661MOL0     H89223   2.967   4.439   7.028  3.3231 -1.0937 -2.0927
  661MOL0     H89224   3.085   4.573   6.863 -2.7328 -0.2220  0.3758
  661MOL0     H89225   3.349   4.918   7.005  0.1893 -2.1018  2.5578
  661MOL0     H89226   3.436   4.766   6.996  1.1831 -0.2088 -1.7373
  661MOL0     H89227   3.394   4.924   6.745 -0.9304  1.3106  2.5193
  661MOL0     H89228   3.445   4.760   6.754 -0.5233 -0.2486 -0.1439
  661MOL0     H89229   3.657   4.845   6.883  2.6087  2.3807  1.1681
  661MOL0     H89230   3.588   5.005   6.883  1.8510  1.3656 -0.9232
  661MOL0     H89231   3.670   4.854   6.630 -4.5264  0.1896  0.5224
  661MOL0     H89232   3.787   4.945   6.720  0.7071  2.3328 -0.1405
  661MOL0     H89233   3.511   5.232   6.546 -0.3218  0.2944  1.2515
  661MOL0     H89234   3.302   4.776   7.174  1.5315 -0.4332 -1.6141
  661MOL0     H89235   3.178   4.656   7.343  0.6788 -0.4414  1.3886
  662MOL0     O89236   0.071   8.813  10.119  0.4683 -0.1233  0.0358
  662MOL0     C89237   0.138   8.804  10.014 -0.5077  0.2107  0.7475
  662MOL0     O89238   0.084   8.775   9.896  0.2222  0.3841  0.5047
  662MOL0     C89239  -0.052   8.766   9.891  0.0587 -0.4634  0.8347
  662MOL0     C89240  -0.124   8.868   9.833  0.1191  0.3440 -1.2317
  662MOL0     C89241  -0.265   8.872   9.837 -0.1577 -0.6852 -0.0710
  662MOL0     C89242  -0.334   8.760   9.894 -0.1115 -0.3813 -0.2560
  662MOL0     O89243  -0.471   8.770   9.875 -0.0079  0.5574 -0.5783
  662MOL0     C89244  -0.570   8.663   9.913  0.0863  0.0782  0.3632
  662MOL0     C89245  -0.639   8.713  10.044  0.2466  0.3718  0.7153
  662MOL0     C89246  -0.746   8.613  10.080  0.1318  0.1585  0.0660
  662MOL0     C89247  -0.791   8.635  10.229  0.3082 -0.0082  0.8207
  662MOL0     C89248  -0.893   8.528  10.272 -0.7992  0.6386  0.9798
  662MOL0     C89249  -1.015   8.510  10.184  1.2071 -1.0580  0.3823
  662MOL0     C89250  -1.131   8.583  10.239  0.0163 -0.0935 -0.6250
  662MOL0     C89251  -1.255   8.544  10.151  0.2901  0.1792 -0.4661
  662MOL0     N89252  -1.382   8.612  10.200 -0.3977  0.4168 -0.2178
  662MOL0     C89253  -1.444   8.576  10.320  0.3269  0.6310 -0.6388
  662MOL0     C89254  -1.543   8.672  10.327 -0.2369 -0.3350  0.2520
  662MOL0     C89255  -1.627   8.678  10.454 -0.2282  0.3355 -0.6251
  662MOL0     C89256  -1.769   8.617  10.455 -0.1115 -0.4029 -0.8003
  662MOL0     C89257  -1.860   8.729  10.395  0.1804 -0.5709  1.0857
  662MOL0     C89258  -2.009   8.689  10.411  0.3475 -0.8921 -0.6749
  662MOL0     O89259  -2.094   8.770  10.323 -0.0105  0.6106  0.1421
  662MOL0     C89260  -2.228   8.735  10.317  1.0741 -0.5291  0.1577
  662MOL0     C89261  -2.312   8.670  10.409 -0.8457  0.1069  0.4722
  662MOL0     C89262  -2.441   8.618  10.373  0.2895  0.3478 -0.6089
  662MOL0     C89263  -2.512   8.532  10.476  0.0243 -0.1233  0.6066
  662MOL0     C89264  -2.496   8.656  10.245 -0.0302 -0.2691 -0.4994
  662MOL0     C89265  -2.635   8.638  10.209 -0.1122 -0.1989 -0.2001
  662MOL0     O89266  -2.689   8.737  10.126  0.4081  0.7020 -0.2338
  662MOL0     C89267  -2.817   8.722  10.077  0.4607 -0.5038  0.0617
  662MOL0     C89268  -2.841   8.695   9.940 -0.0972 -0.9114 -0.1390
  662MOL0     C89269  -2.973   8.670   9.902  0.3429 -0.4528 -0.0978
  662MOL0     C89270  -3.081   8.674   9.982 -0.2247 -0.4133 -0.2810
  662MOL0     O89271  -3.202   8.655   9.931 -0.1434  0.0679  0.5732
  662MOL0     C89272  -3.323   8.640  10.013  0.0036  0.0587 -0.2601
  662MOL0     C89273  -3.449   8.664   9.931 -0.2841  0.4861 -0.6100
  662MOL0     C89274  -3.576   8.644  10.025  0.0758 -0.4023  0.3107
  662MOL0     C89275  -3.702   8.677   9.938  0.2391 -0.7806 -0.0002
  662MOL0     C89276  -3.813   8.739  10.032 -0.0878  0.1323 -0.2538
  662MOL0     C89277  -3.862   8.873   9.980 -0.8080  0.4052  0.0700
  662MOL0     C89278  -3.994   8.922  10.046 -0.0940  0.9366  0.7686
  662MOL0     C89279  -4.072   9.005   9.948  0.0817 -0.5291  0.0235
  662MOL0    Cl89280  -4.246   9.027  10.010 -0.2455  0.0014 -0.1540
  662MOL0     C89281  -3.061   8.724  10.114 -0.2550  0.3149  0.1775
  662MOL0     C89282  -2.935   8.740  10.161 -0.5273  0.2574  0.1982
  662MOL0     O89283  -2.701   8.543  10.254 -0.6895 -0.8247  0.0466
  662MOL0     C89284  -2.417   8.743  10.159 -1.1749 -0.0233  0.1882
  662MOL0     C89285  -2.282   8.773  10.195  0.9506  0.7535  0.1215
  662MOL0     N89286  -1.553   8.754  10.212  0.5377 -0.0428 -0.1296
  662MOL0     N89287  -1.454   8.713  10.132  0.9796  0.5227 -0.5886
  662MOL0     C89288  -0.263   8.651   9.940 -0.5273 -0.7719  0.1592
  662MOL0     C89289  -0.130   8.662   9.937 -0.1055 -0.1878 -0.5827
  662MOL0     C89290   0.286   8.829  10.009  0.1527 -0.4819 -0.0567
  662MOL0     C89291   0.352   8.831   9.889  0.3394  0.6812  0.2000
  662MOL0     C89292   0.495   8.837   9.886 -0.1201  0.7526  0.4390
  662MOL0     C89293   0.574   8.876   9.994 -0.7336  0.3375 -0.4111
  662MOL0     O89294   0.713   8.899   9.981  0.1470 -0.2959 -0.0651
  662MOL0     C89295   0.797   8.956  10.087 -0.0927 -0.0113 -0.6358
  662MOL0     C89296   0.930   8.997  10.041  0.1869 -0.5954 -0.3772
  662MOL0     C89297   1.010   9.080  10.146 -0.5405 -0.1830  0.0389
  662MOL0     C89298   1.030   9.011  10.283 -0.3226 -0.5404  0.9342
  662MOL0     C89299   0.914   9.041  10.371  1.2790 -0.0243 -1.2618
  662MOL0     C89300   0.816   9.072  10.443 -0.7252  0.5899  0.0872
  662MOL0     C89301   0.495   8.882  10.115  0.0508  0.1268  0.5986
  662MOL0     C89302   0.359   8.860  10.126 -0.7726  0.3019  0.8765
  662MOL0     H89303  -0.066   8.946   9.786  1.5324  0.0069 -0.1237
  662MOL0     H89304  -0.317   8.948   9.779  1.4526  0.8946  0.4720
  662MOL0     H89305  -0.648   8.655   9.837 -0.2055 -2.4877  0.8199
  662MOL0     H89306  -0.526   8.565   9.935 -0.5819 -0.0476  1.1876
  662MOL0     H89307  -0.570   8.705  10.128 -0.5283 -1.5447  1.2041
  662MOL0     H89308  -0.672   8.817  10.031  1.6036  0.6624 -0.7353
  662MOL0     H89309  -0.828   8.629  10.010  1.2519  0.4700 -1.2155
  662MOL0     H89310  -0.710   8.510  10.071 -0.8160 -0.1737 -0.0941
  662MOL0     H89311  -0.704   8.620  10.292  2.2341  2.9521 -0.8943
  662MOL0     H89312  -0.832   8.736  10.238  0.8026  0.3211 -0.4318
  662MOL0     H89313  -0.835   8.437  10.256 -1.8802  0.5206 -3.7933
  662MOL0     H89314  -0.925   8.537  10.376 -1.8839  1.2103  0.6122
  662MOL0     H89315  -1.006   8.538  10.079 -0.1849  0.8328  0.7094
  662MOL0     H89316  -1.044   8.405  10.189 -0.1695 -0.7524 -0.4518
  662MOL0     H89317  -1.152   8.544  10.339  1.2522 -0.3681 -0.4539
  662MOL0     H89318  -1.116   8.691  10.247  0.2704 -0.1452 -0.3675
  662MOL0     H89319  -1.267   8.436  10.151  4.0635 -0.4406 -2.5824
  662MOL0     H89320  -1.233   8.580  10.050  1.8936  0.1791 -0.1502
  662MOL0     H89321  -1.413   8.511  10.401 -0.7806  0.5927 -0.2380
  662MOL0     H89322  -1.569   8.623  10.528  0.9360  0.0148 -1.7397
  662MOL0     H89323  -1.630   8.785  10.475  3.0420  0.7763 -1.7600
  662MOL0     H89324  -1.814   8.615  10.554 -0.9555 -0.0916 -1.1665
  662MOL0     H89325  -1.777   8.520  10.405 -1.1867  0.6845 -2.8483
  662MOL0     H89326  -1.838   8.737  10.288  3.5134 -1.1109  1.6120
  662MOL0     H89327  -1.841   8.832  10.425  1.1813  1.1768 -4.4020
  662MOL0     H89328  -2.038   8.708  10.515  2.5955 -0.9058  0.0064
  662MOL0     H89329  -2.016   8.584  10.383 -0.9663 -0.2207 -3.1361
  662MOL0     H89330  -2.261   8.644  10.501 -1.1410 -1.5150  0.2091
  662MOL0     H89331  -2.444   8.495  10.553  0.6919  1.2117  0.6968
  662MOL0     H89332  -2.604   8.579  10.514  0.3421  5.0643 -3.7666
  662MOL0     H89333  -2.543   8.443  10.420 -2.1794  1.5405 -1.0343
  662MOL0     H89334  -2.762   8.696   9.865 -0.9350 -2.4042 -1.0902
  662MOL0     H89335  -2.991   8.628   9.804  1.2204 -0.3261 -0.3253
  662MOL0     H89336  -3.323   8.542  10.062  0.3674  0.4562  0.5641
  662MOL0     H89337  -3.329   8.711  10.096 -2.6094 -1.3982  0.9621
  662MOL0     H89338  -3.456   8.758   9.876  1.5969  1.1554  0.2087
  662MOL0     H89339  -3.442   8.577   9.865  0.3937 -1.5399  1.9449
  662MOL0     H89340  -3.548   8.706  10.110  2.1323 -1.7398  0.6957
  662MOL0     H89341  -3.584   8.545  10.071 -0.6213 -0.2090  0.6146
  662MOL0     H89342  -3.673   8.742   9.855 -1.0746 -2.0287 -1.5005
  662MOL0     H89343  -3.740   8.585   9.892 -0.5757  0.1226 -1.2075
  662MOL0     H89344  -3.767   8.755  10.129  0.2427  1.5816 -0.6274
  662MOL0     H89345  -3.899   8.674  10.054 -0.4975  0.8633  0.3295
  662MOL0     H89346  -3.778   8.942   9.993  1.4649 -1.7240 -2.2718
  662MOL0     H89347  -3.870   8.854   9.873  3.3271  1.0610 -0.5218
  662MOL0     H89348  -3.975   8.979  10.137 -3.8917  2.0293  1.0738
  662MOL0     H89349  -4.044   8.830  10.076  2.0171 -1.1853 -1.7264
  662MOL0     H89350  -4.075   8.950   9.853  2.0534 -0.8275  0.0825
  662MOL0     H89351  -4.021   9.098   9.922 -2.1154  0.8747  0.4308
  662MOL0     H89352  -3.139   8.720  10.189  1.1269 -0.4816  1.6447
  662MOL0     H89353  -2.917   8.761  10.266  1.3186 -2.0141  0.4112
  662MOL0     H89354  -2.441   8.780  10.060  2.8238 -1.4775 -1.5118
  662MOL0     H89355  -2.221   8.831  10.126 -1.4118 -0.6390 -3.4715
  662MOL0     H89356  -0.311   8.560   9.976  0.1618 -0.9350  0.6835
  662MOL0     H89357  -0.067   8.589   9.987 -1.9872 -1.0300  0.6877
  662MOL0     H89358   0.293   8.810   9.801 -1.9216  0.2430  1.7408
  662MOL0     H89359   0.562   8.835   9.801  0.6225  3.6035  0.8656
  662MOL0     H89360   0.747   9.042  10.132  1.5728  0.7792 -0.2076
  662MOL0     H89361   0.809   8.888  10.172 -0.2744  1.4837  0.6366
  662MOL0     H89362   0.924   9.057   9.950  0.6437  0.4612  0.2727
  662MOL0     H89363   0.985   8.911  10.003  0.2670 -0.8682  0.3334
  662MOL0     H89364   0.960   9.176  10.162  1.6461  0.6495  2.6385
  662MOL0     H89365   1.101   9.108  10.091 -1.3115  0.3759 -0.9949
  662MOL0     H89366   1.123   9.043  10.331  0.6756  2.2371 -2.4121
  662MOL0     H89367   1.045   8.905  10.263  4.8854 -0.2110  1.6887
  662MOL0     H89368   0.733   9.113  10.497  0.9201  1.6276  1.9744
  662MOL0     H89369   0.544   8.927  10.201 -0.9745  1.1803  0.6519
  662MOL0     H89370   0.299   8.861  10.216 -2.3523  4.4844  0.0103
  663MOL0     O89371   4.821   0.553  10.822 -1.2948 -0.4398  0.1370
  663MOL0     C89372   4.803   0.482  10.914 -0.2414 -0.1431 -0.7545
  663MOL0     O89373   4.895   0.395  10.969 -0.3413  0.2301  1.4730
  663MOL0     C89374   5.030   0.380  10.940 -0.1924 -0.1179 -0.9435
  663MOL0     C89375   5.097   0.262  10.984  1.2448 -0.0874  0.1727
  663MOL0     C89376   5.233   0.244  10.956  0.1155  0.9292 -0.6762
  663MOL0     C89377   5.301   0.339  10.872  0.2458 -0.1943 -0.7845
  663MOL0     O89378   5.435   0.320  10.834  0.1005 -0.6792  0.1868
  663MOL0     C89379   5.538   0.362  10.928 -0.0207 -0.7466  0.7289
  663MOL0     C89380   5.581   0.242  11.021  0.1052 -0.1575 -0.8714
  663MOL0     C89381   5.673   0.137  10.947  0.4830 -0.2092  0.5823
  663MOL0     C89382   5.596   0.022  10.886  0.6036 -0.3155  0.1164
  663MOL0     C89383   5.701  -0.071  10.826  1.0080 -0.0867  0.1617
  663MOL0     C89384   5.640  -0.176  10.727  0.0292  0.0365 -0.5763
  663MOL0     C89385   5.546  -0.116  10.622 -0.2452  0.7595  0.2557
  663MOL0     C89386   5.547  -0.203  10.496  0.1410  0.8495 -0.2591
  663MOL0     N89387   5.444  -0.152  10.400 -0.3029 -0.1045  0.4382
  663MOL0     C89388   5.315  -0.125  10.436  0.0082 -0.4371 -0.1506
  663MOL0     C89389   5.259  -0.052  10.341 -0.2844  0.0464  0.5697
  663MOL0     C89390   5.128   0.026  10.363 -0.8706  0.5810 -0.2982
  663MOL0     C89391   4.995  -0.050  10.358 -0.1411  0.5639  0.4689
  663MOL0     C89392   4.889   0.055  10.404  0.3233 -0.4562 -0.4056
  663MOL0     C89393   4.745   0.023  10.367 -0.4249  0.2885 -0.6698
  663MOL0     O89394   4.711  -0.113  10.386 -0.3319  0.4704  0.0428
  663MOL0     C89395   4.572  -0.137  10.408 -0.3561  0.5379  0.0593
  663MOL0     C89396   4.507  -0.105  10.523  0.4516 -0.9072  0.1343
  663MOL0     C89397   4.371  -0.135  10.548  0.2202 -0.5231  0.1529
  663MOL0     C89398   4.323  -0.115  10.685 -0.3681 -0.0255 -0.7884
  663MOL0     C89399   4.295  -0.190  10.449  0.7083  0.4328  0.8848
  663MOL0     C89400   4.143  -0.226  10.463 -0.6841 -0.4147 -0.3380
  663MOL0     O89401   4.075  -0.243  10.342 -0.5758 -0.4679 -0.1958
  663MOL0     C89402   3.944  -0.263  10.358  0.1815 -0.7153 -0.4651
  663MOL0     C89403   3.848  -0.160  10.346  0.2301 -0.0295  0.1862
  663MOL0     C89404   3.711  -0.183  10.362 -1.0963 -0.5493 -1.0200
  663MOL0     C89405   3.661  -0.316  10.371 -0.5982 -0.6326  1.1983
  663MOL0     O89406   3.530  -0.344  10.390  0.5964  0.2902 -0.5998
  663MOL0     C89407   3.435  -0.237  10.381 -0.2287  0.2268  0.1279
  663MOL0     C89408   3.298  -0.281  10.429 -0.0700 -0.2007 -1.1766
  663MOL0     C89409   3.304  -0.333  10.580  0.1212  0.0377  0.8283
  663MOL0     C89410   3.341  -0.222  10.678 -0.1262 -0.1406  0.5135
  663MOL0     C89411   3.363  -0.285  10.821  0.3003  0.0340 -0.4294
  663MOL0     C89412   3.237  -0.294  10.912 -0.2276  0.2450 -0.0636
  663MOL0     C89413   3.112  -0.359  10.860 -0.0408 -0.0923 -0.1599
  663MOL0     C89414   3.009  -0.394  10.975  0.0406  0.5139  0.9399
  663MOL0    Cl89415   2.943  -0.234  11.035 -0.5610  0.0314  0.5060
  663MOL0     C89416   3.753  -0.421  10.370  0.8477 -0.5181 -0.1937
  663MOL0     C89417   3.893  -0.392  10.370  0.0906 -0.1326 -0.3379
  663MOL0     O89418   4.087  -0.228  10.575 -0.2617 -0.0154  0.4205
  663MOL0     C89419   4.358  -0.222  10.323  0.6445  0.2280  0.4649
  663MOL0     C89420   4.498  -0.197  10.313 -1.1532 -0.1969 -0.8704
  663MOL0     N89421   5.356  -0.046  10.238 -0.1273 -0.7295  0.7427
  663MOL0     N89422   5.466  -0.104  10.276 -0.2522  0.0775  0.2380
  663MOL0     C89423   5.233   0.451  10.827  0.6144  0.0308  0.4240
  663MOL0     C89424   5.100   0.477  10.867 -0.3789  1.2711 -1.0276
  663MOL0     C89425   4.676   0.500  10.986 -0.0829 -0.2684 -0.0074
  663MOL0     C89426   4.562   0.538  10.923 -0.1556  1.1397  0.1802
  663MOL0     C89427   4.444   0.544  10.993 -0.3520  0.3674 -0.3027
  663MOL0     C89428   4.431   0.507  11.129  0.6173 -0.4145  0.3241
  663MOL0     O89429   4.310   0.528  11.184  0.3230  0.3607 -0.1010
  663MOL0     C89430   4.288   0.463  11.310  0.4542 -0.5351 -0.3001
  663MOL0     C89431   4.258   0.311  11.302  0.3191  0.6100 -0.0799
  663MOL0     C89432   4.114   0.283  11.253 -0.3147  0.1787  0.8366
  663MOL0     C89433   4.053   0.144  11.285  0.9824  0.2722  0.6283
  663MOL0     C89434   3.913   0.138  11.241 -0.1159 -0.2069 -0.3535
  663MOL0     C89435   3.798   0.119  11.206  0.2059 -0.1642 -1.2978
  663MOL0     C89436   4.543   0.462  11.193 -0.4814  1.3537 -0.4912
  663MOL0     C89437   4.663   0.456  11.120 -0.0238  0.4828 -0.4762
  663MOL0     H89438   5.046   0.190  11.048  3.0642 -0.9085  0.7515
  663MOL0     H89439   5.280   0.163  11.011 -1.8273  1.5454  2.1023
  663MOL0     H89440   5.627   0.400  10.877  0.0799 -1.6545  0.2093
  663MOL0     H89441   5.509   0.449  10.988 -1.5828 -0.5360 -0.2614
  663MOL0     H89442   5.638   0.282  11.106  2.4548 -3.0483 -0.9163
  663MOL0     H89443   5.488   0.204  11.064  0.7875 -0.1661  0.6496
  663MOL0     H89444   5.733   0.190  10.873  2.3408  1.2221  2.9547
  663MOL0     H89445   5.745   0.102  11.021  1.4183 -0.8572 -0.6139
  663MOL0     H89446   5.545  -0.018  10.974 -0.3866 -0.8756 -0.7054
  663MOL0     H89447   5.532   0.054  10.804  3.7781 -0.7627 -2.7458
  663MOL0     H89448   5.786  -0.013  10.788  0.4402  1.1016  0.6646
  663MOL0     H89449   5.746  -0.127  10.909 -0.2911 -1.9597 -0.3508
  663MOL0     H89450   5.723  -0.231  10.683  1.4572  1.1530  0.6350
  663MOL0     H89451   5.577  -0.242  10.788 -1.6130  1.7477 -0.3168
  663MOL0     H89452   5.442  -0.120  10.654 -0.5706  1.1930 -0.7029
  663MOL0     H89453   5.572  -0.014  10.591  0.3252  0.4820 -0.2215
  663MOL0     H89454   5.513  -0.304  10.520  0.0171  1.1269  0.7950
  663MOL0     H89455   5.648  -0.216  10.455  0.4483  0.6436  0.5381
  663MOL0     H89456   5.282  -0.141  10.538 -0.2041  2.3734  0.3052
  663MOL0     H89457   5.134   0.061  10.466  0.9232  2.4591 -0.9828
  663MOL0     H89458   5.126   0.113  10.296  1.7071  1.5095  0.7174
  663MOL0     H89459   5.000  -0.142  10.417  1.6504  2.2923  3.2601
  663MOL0     H89460   4.980  -0.079  10.254  1.5853  1.4391 -0.0699
  663MOL0     H89461   4.918   0.156  10.374 -0.0782  0.1974  1.2932
  663MOL0     H89462   4.899   0.056  10.513  0.6230 -0.6179 -0.4301
  663MOL0     H89463   4.728   0.049  10.261 -0.4174  1.8414 -0.3243
  663MOL0     H89464   4.686   0.085  10.435  1.0275  2.4325 -1.2346
  663MOL0     H89465   4.560  -0.056  10.604 -0.0752 -1.7707  1.0226
  663MOL0     H89466   4.290  -0.205  10.737  2.8284 -2.2361 -2.2930
  663MOL0     H89467   4.410  -0.087  10.746  0.8995  0.3350 -2.6703
  663MOL0     H89468   4.261  -0.025  10.697  0.8270  0.7627 -0.2417
  663MOL0     H89469   3.880  -0.059  10.325 -1.8624  1.0611  1.9722
  663MOL0     H89470   3.650  -0.097  10.337 -1.5122 -1.5021 -3.5495
  663MOL0     H89471   3.478  -0.146  10.425  0.7571  0.5421 -1.3936
  663MOL0     H89472   3.417  -0.215  10.275 -2.3357  1.0177  0.6089
  663MOL0     H89473   3.228  -0.198  10.417 -0.3687 -0.4941 -1.4797
  663MOL0     H89474   3.268  -0.366  10.368 -1.3565  0.8728 -2.0932
  663MOL0     H89475   3.372  -0.419  10.583  0.9912  0.6255 -0.8528
  663MOL0     H89476   3.204  -0.372  10.603  0.5763 -1.1961  0.8130
  663MOL0     H89477   3.439  -0.185  10.647 -0.4014 -0.6491 -1.0596
  663MOL0     H89478   3.272  -0.137  10.678 -2.2511 -1.7306  2.1938
  663MOL0     H89479   3.431  -0.219  10.874  0.0389  0.0440 -0.1028
  663MOL0     H89480   3.412  -0.382  10.810  0.8472  0.2384  0.1492
  663MOL0     H89481   3.267  -0.343  11.005  0.9261  0.7424 -0.1544
  663MOL0     H89482   3.207  -0.192  10.938  3.9906  1.7152 -0.1140
  663MOL0     H89483   3.130  -0.459  10.820 -1.4077 -0.4149 -0.0339
  663MOL0     H89484   3.060  -0.294  10.789  1.0177  1.7654  0.7013
  663MOL0     H89485   3.060  -0.444  11.058  0.6970  1.2035  0.9590
  663MOL0     H89486   2.939  -0.473  10.947  0.6089  0.1381  0.5651
  663MOL0     H89487   3.731  -0.527  10.376 -0.7866 -0.1614  1.0020
  663MOL0     H89488   3.955  -0.481  10.378  2.1801  1.0903 -1.9646
  663MOL0     H89489   4.298  -0.269  10.246 -0.8522  1.3014  0.9405
  663MOL0     H89490   4.550  -0.237  10.227  0.1251  1.9078 -1.1324
  663MOL0     H89491   5.284   0.523  10.765  0.5738  0.3919  0.8102
  663MOL0     H89492   5.056   0.571  10.834  0.2338  2.0439  0.2690
  663MOL0     H89493   4.553   0.565  10.818 -2.2230  2.7118  0.7065
  663MOL0     H89494   4.349   0.568  10.947 -0.2932 -0.4256 -0.8537
  663MOL0     H89495   4.364   0.476  11.388  0.0231  2.1414 -0.2370
  663MOL0     H89496   4.195   0.510  11.344  0.2658 -0.0727 -1.4135
  663MOL0     H89497   4.255   0.273  11.405 -2.6596 -2.7727 -1.2342
  663MOL0     H89498   4.328   0.251  11.243 -0.7970 -1.5741  0.7187
  663MOL0     H89499   4.117   0.297  11.144 -3.2453 -2.2856  0.3067
  663MOL0     H89500   4.054   0.360  11.303 -1.2573 -0.7413  1.1384
  663MOL0     H89501   4.051   0.119  11.391 -0.6504  0.8928  0.7640
  663MOL0     H89502   4.110   0.076  11.220 -0.1963  2.2450 -2.7423
  663MOL0     H89503   3.693   0.111  11.182 -0.7267 -0.9174  2.4828
  663MOL0     H89504   4.537   0.425  11.295  0.5798  2.0746 -0.1532
  663MOL0     H89505   4.747   0.428  11.183 -0.6228 -0.7256 -0.2039
  664MOL0     O89506   3.034   0.002  10.515  0.2234 -0.7206 -0.5596
  664MOL0     C89507   3.097   0.080  10.443 -0.9787 -0.2474 -0.0205
  664MOL0     O89508   3.059   0.133  10.320  0.2378 -0.2610  0.5769
  664MOL0     C89509   2.934   0.086  10.289  0.0054  0.7525 -0.2700
  664MOL0     C89510   2.818   0.125  10.358  0.5041  0.4171 -0.7036
  664MOL0     C89511   2.690   0.066  10.331 -0.0869 -0.7385  0.0129
  664MOL0     C89512   2.683  -0.037  10.242 -0.3457 -0.0830 -0.0477
  664MOL0     O89513   2.568  -0.107  10.241  0.1965  0.1362 -0.0294
  664MOL0     C89514   2.495  -0.143  10.359 -0.1600  0.4453 -0.0614
  664MOL0     C89515   2.407  -0.269  10.338  0.1614  0.2825 -0.6869
  664MOL0     C89516   2.300  -0.299  10.447  0.5541 -0.1143 -0.9666
  664MOL0     C89517   2.331  -0.257  10.594 -0.0371 -0.1372  0.4323
  664MOL0     C89518   2.215  -0.301  10.688 -0.1792  0.9211 -0.2774
  664MOL0     C89519   2.085  -0.224  10.690  0.8242  0.2195  0.2881
  664MOL0     C89520   1.971  -0.291  10.775 -0.1503  0.2686 -1.1353
  664MOL0     C89521   1.994  -0.259  10.926  0.6975  0.1491  0.9540
  664MOL0     N89522   1.995  -0.114  10.942  0.5053  0.1300 -0.5620
  664MOL0     C89523   1.888  -0.034  10.903 -0.0058  0.6272 -0.7623
  664MOL0     C89524   1.924   0.091  10.922 -0.2878 -0.0399 -0.5298
  664MOL0     C89525   1.833   0.200  10.894 -0.0205 -0.8950 -0.5403
  664MOL0     C89526   1.696   0.184  10.967  0.5852  0.0165 -0.0896
  664MOL0     C89527   1.694   0.126  11.108  0.4132 -0.1785 -0.6043
  664MOL0     C89528   1.545   0.122  11.160 -0.4788 -0.9640 -0.3224
  664MOL0     O89529   1.480   0.252  11.126 -0.1490 -0.4464 -0.3282
  664MOL0     C89530   1.347   0.251  11.120 -0.6723  0.1601  0.1855
  664MOL0     C89531   1.295   0.355  11.049 -0.7191 -0.1527  0.4465
  664MOL0     C89532   1.159   0.382  11.039 -0.0099  0.1417  0.0434
  664MOL0     C89533   1.108   0.494  10.956  0.3052  0.0181 -0.2112
  664MOL0     C89534   1.070   0.290  11.100  0.6231 -0.3443  1.1769
  664MOL0     C89535   0.923   0.308  11.098  0.4933 -0.2210 -0.4551
  664MOL0     O89536   0.857   0.420  11.063  0.2920 -0.1895 -0.6441
  664MOL0     C89537   0.717   0.424  11.056  0.4481 -0.1960 -1.1637
  664MOL0     C89538   0.619   0.352  11.124  0.1930 -0.3601 -0.1566
  664MOL0     C89539   0.483   0.366  11.091 -0.7182 -0.1051 -0.4140
  664MOL0     C89540   0.437   0.452  10.993  0.1975  0.2765  0.2002
  664MOL0     O89541   0.300   0.451  10.969 -0.1687  0.3456  0.5219
  664MOL0     C89542   0.259   0.536  10.862  0.4946 -0.1538 -0.3302
  664MOL0     C89543   0.109   0.540  10.840  0.3994 -0.2835 -0.4937
  664MOL0     C89544   0.065   0.663  10.751  0.8106 -0.3057 -0.2807
  664MOL0     C89545  -0.087   0.693  10.756 -0.3675 -0.9795 -0.7144
  664MOL0     C89546  -0.187   0.595  10.698 -0.7976  0.0912 -0.1492
  664MOL0     C89547  -0.326   0.662  10.673 -1.0358  0.3783 -0.3749
  664MOL0     C89548  -0.408   0.555  10.609 -0.2693 -0.3013  0.8812
  664MOL0     C89549  -0.559   0.584  10.601 -0.6200 -0.4067 -0.1105
  664MOL0    Cl89550  -0.571   0.733  10.503  0.4204  0.3947  0.2091
  664MOL0     C89551   0.537   0.534  10.935  0.4956 -0.0217 -0.1801
  664MOL0     C89552   0.668   0.521  10.963 -0.2882  0.2380 -0.2878
  664MOL0     O89553   0.865   0.201  11.116  0.6132  0.3127 -0.9446
  664MOL0     C89554   1.124   0.180  11.172  0.3820 -0.1574 -0.7458
  664MOL0     C89555   1.257   0.169  11.183  0.0562 -0.2681  0.0785
  664MOL0     N89556   2.055   0.090  10.968 -0.2772  0.3825  0.3097
  664MOL0     N89557   2.098  -0.031  10.972 -0.3702 -0.0386 -0.4259
  664MOL0     C89558   2.790  -0.073  10.167  0.7597  0.1627  0.6892
  664MOL0     C89559   2.918  -0.011  10.194 -0.7888 -0.0911 -0.1546
  664MOL0     C89560   3.225   0.136  10.502 -1.1180 -0.4258 -0.3043
  664MOL0     C89561   3.231   0.155  10.635 -0.4408 -0.0018 -0.3299
  664MOL0     C89562   3.349   0.193  10.702 -0.5192  0.3583  0.4789
  664MOL0     C89563   3.468   0.211  10.626  0.8546  0.3161 -0.1400
  664MOL0     O89564   3.594   0.246  10.682  0.5915  0.8086 -0.3109
  664MOL0     C89565   3.713   0.170  10.646  0.7337  0.1518  0.3248
  664MOL0     C89566   3.729   0.032  10.712 -1.1802  0.1145 -0.7771
  664MOL0     C89567   3.876   0.010  10.749  0.3715  1.4522 -0.9813
  664MOL0     C89568   3.904  -0.126  10.813 -0.2777  0.3588  0.1647
  664MOL0     C89569   3.831  -0.156  10.938  0.8985  0.3366  0.1772
  664MOL0     C89570   3.760  -0.185  11.030  0.5812 -0.2273 -0.1246
  664MOL0     C89571   3.462   0.190  10.485  0.3258 -0.9136 -0.1512
  664MOL0     C89572   3.333   0.156  10.424 -0.4511  0.4005  0.5833
  664MOL0     H89573   2.829   0.206  10.430 -2.7037 -1.2148  1.9461
  664MOL0     H89574   2.604   0.097  10.389  0.5993  2.4991 -0.5170
  664MOL0     H89575   2.554  -0.156  10.450 -2.0172  1.1615  1.3281
  664MOL0     H89576   2.431  -0.058  10.385 -0.0409  1.2954 -2.3759
  664MOL0     H89577   2.361  -0.269  10.239  0.1418  0.0070 -0.6784
  664MOL0     H89578   2.476  -0.354  10.339  1.9345  1.6517 -0.7818
  664MOL0     H89579   2.214  -0.237  10.420  0.2391  0.5870  1.4301
  664MOL0     H89580   2.269  -0.401  10.420 -2.7601  1.5078 -4.2618
  664MOL0     H89581   2.424  -0.301  10.629 -0.4121 -0.7578  0.6609
  664MOL0     H89582   2.335  -0.148  10.597  2.4295 -0.1893  0.3998
  664MOL0     H89583   2.193  -0.403  10.656 -0.8023  1.0574 -0.2894
  664MOL0     H89584   2.258  -0.297  10.788 -0.4052  3.2724 -0.2011
  664MOL0     H89585   2.106  -0.122  10.722 -3.0290  1.7954 -1.5017
  664MOL0     H89586   2.050  -0.228  10.586 -0.0853 -0.4590  0.6006
  664MOL0     H89587   1.871  -0.258  10.746 -0.5997 -1.6290 -1.9110
  664MOL0     H89588   1.970  -0.399  10.762  0.6640  0.1950 -0.6522
  664MOL0     H89589   2.082  -0.298  10.977  0.5946  2.5625  3.2111
  664MOL0     H89590   1.907  -0.298  10.981 -2.0292  0.0717 -3.0255
  664MOL0     H89591   1.792  -0.072  10.869  0.0212 -1.2344  1.0878
  664MOL0     H89592   1.883   0.290  10.932  1.3790 -2.4318  1.4654
  664MOL0     H89593   1.806   0.216  10.789 -1.4145  2.7818  0.2215
  664MOL0     H89594   1.627   0.125  10.906 -1.0006  0.5268  1.1205
  664MOL0     H89595   1.658   0.286  10.969  1.6789  0.6222 -3.5429
  664MOL0     H89596   1.757   0.180  11.179 -4.0463  0.9038  3.0779
  664MOL0     H89597   1.733   0.024  11.101  0.2249 -0.3278  0.3024
  664MOL0     H89598   1.548   0.100  11.267  2.8707 -0.3041 -0.1647
  664MOL0     H89599   1.496   0.039  11.108  1.3783 -2.2428 -0.1169
  664MOL0     H89600   1.371   0.421  11.008 -0.0023 -1.9349 -1.2209
  664MOL0     H89601   1.196   0.543  10.914 -0.5145  0.2545 -1.7083
  664MOL0     H89602   1.047   0.461  10.871 -2.9413  0.7670  1.6599
  664MOL0     H89603   1.042   0.565  11.006 -2.3403 -1.3987 -1.4872
  664MOL0     H89604   0.647   0.289  11.208 -1.3200 -0.4050  0.3456
  664MOL0     H89605   0.419   0.309  11.157 -0.8714 -1.0222 -1.3240
  664MOL0     H89606   0.297   0.632  10.899  0.7643 -0.2187 -0.4366
  664MOL0     H89607   0.306   0.525  10.764  0.0517  2.1074 -0.8539
  664MOL0     H89608   0.063   0.447  10.807  1.9625 -0.0742 -3.5655
  664MOL0     H89609   0.066   0.572  10.936 -0.2324  1.1437 -1.2221
  664MOL0     H89610   0.092   0.639  10.648 -1.4266 -3.8813 -0.1976
  664MOL0     H89611   0.123   0.750  10.784 -1.4708  1.1378  0.1184
  664MOL0     H89612  -0.119   0.720  10.856  0.3457  0.2693 -0.8080
  664MOL0     H89613  -0.098   0.786  10.699 -1.1812 -2.5708 -3.3423
  664MOL0     H89614  -0.213   0.515  10.768 -2.2991  1.4708  0.9437
  664MOL0     H89615  -0.146   0.556  10.604 -2.9295 -3.1767  0.1312
  664MOL0     H89616  -0.362   0.669  10.775 -1.5475 -2.2608 -0.3007
  664MOL0     H89617  -0.327   0.750  10.607  0.4427  1.8296  1.4013
  664MOL0     H89618  -0.389   0.457  10.653  2.3864 -0.7152 -0.9406
  664MOL0     H89619  -0.362   0.537  10.511  2.5280  1.3345  1.7840
  664MOL0     H89620  -0.609   0.605  10.695  0.3458  2.6044 -0.1495
  664MOL0     H89621  -0.604   0.500  10.548  0.3142 -1.0317  0.0701
  664MOL0     H89622   0.518   0.612  10.863  2.2287  0.0621 -0.6070
  664MOL0     H89623   0.737   0.591  10.917  2.4751 -1.2410  1.3187
  664MOL0     H89624   1.063   0.097  11.207 -0.2494  0.3933 -0.5279
  664MOL0     H89625   1.296   0.082  11.233 -1.5756 -1.5969 -0.8610
  664MOL0     H89626   2.769  -0.140  10.084  0.6805  1.7914 -0.6673
  664MOL0     H89627   3.006  -0.050  10.143 -0.4769  1.8495 -1.2108
  664MOL0     H89628   3.140   0.139  10.693 -0.3891  2.4767  0.5830
  664MOL0     H89629   3.347   0.223  10.806  1.3639  3.5337 -0.2797
  664MOL0     H89630   3.715   0.145  10.539  0.9570  1.3573  0.0349
  664MOL0     H89631   3.800   0.234  10.664  2.0256 -1.4143 -0.0923
  664MOL0     H89632   3.700  -0.051  10.647  3.3924 -0.8883 -1.9111
  664MOL0     H89633   3.669   0.031  10.803 -0.9772  2.3033 -0.5814
  664MOL0     H89634   3.907   0.076  10.831 -1.6867 -0.4591  1.5134
  664MOL0     H89635   3.940   0.011  10.661  0.5639 -0.7779 -0.9262
  664MOL0     H89636   4.011  -0.138  10.832  0.1078 -2.3461 -2.7871
  664MOL0     H89637   3.875  -0.199  10.736 -1.7355 -0.5964  1.5626
  664MOL0     H89638   3.683  -0.208  11.101  0.2909  1.9124  0.3358
  664MOL0     H89639   3.545   0.195  10.416 -0.1557  2.3746 -0.6566
  664MOL0     H89640   3.319   0.152  10.317  0.1178 -0.3377  0.5278
  665MOL0     O89641   5.902   8.238   0.358 -0.9338 -0.2811 -0.2695
  665MOL0     C89642   5.996   8.308   0.317 -0.0871  0.1116  0.0867
  665MOL0     O89643   5.992   8.441   0.282 -0.7316  0.7956  0.0949
  665MOL0     C89644   5.872   8.504   0.293  1.0487 -1.1342 -0.2287
  665MOL0     C89645   5.832   8.563   0.414 -0.0437  1.1010 -0.4208
  665MOL0     C89646   5.715   8.633   0.431 -0.0552 -0.8972 -0.0781
  665MOL0     C89647   5.632   8.648   0.320  1.1852  0.1132 -0.2610
  665MOL0     O89648   5.512   8.709   0.314  0.1941 -0.7623 -0.6567
  665MOL0     C89649   5.470   8.779   0.434 -0.4407 -0.2793  0.5123
  665MOL0     C89650   5.362   8.881   0.395  0.7407  1.0574 -0.2886
  665MOL0     C89651   5.225   8.817   0.417  0.5757  0.7658  0.8048
  665MOL0     C89652   5.108   8.917   0.403  0.1876 -0.6599  0.1385
  665MOL0     C89653   5.098   9.007   0.537  0.3680  0.1495  0.3226
  665MOL0     C89654   5.063   8.926   0.663 -0.1435 -0.1880  0.1883
  665MOL0     C89655   5.109   8.995   0.793  0.1684  0.1788 -0.7221
  665MOL0     C89656   5.098   8.888   0.911 -0.3893  0.4774 -0.9424
  665MOL0     N89657   4.956   8.858   0.936 -0.1120  0.1097 -0.2611
  665MOL0     C89658   4.857   8.949   0.965  0.1834 -0.5716 -0.9451
  665MOL0     C89659   4.737   8.887   0.950  0.1561  0.0096 -0.3967
  665MOL0     C89660   4.602   8.945   0.955 -0.9396  0.2527 -1.2394
  665MOL0     C89661   4.572   8.970   1.113 -0.0737 -0.4127 -0.0299
  665MOL0     C89662   4.427   8.975   1.154  0.0183 -0.5038  0.1622
  665MOL0     C89663   4.357   9.103   1.096  0.5300  0.5064 -0.4591
  665MOL0     O89664   4.216   9.087   1.125 -0.4852 -0.2249 -0.3702
  665MOL0     C89665   4.143   9.200   1.121 -0.5674  0.9561 -0.3437
  665MOL0     C89666   4.196   9.323   1.084  1.1056  0.0066  1.0362
  665MOL0     C89667   4.112   9.435   1.098  0.5298 -0.0471 -0.0487
  665MOL0     C89668   4.167   9.575   1.061 -1.1608  0.6683  0.2714
  665MOL0     C89669   3.972   9.428   1.131  0.1446  0.5527 -0.6686
  665MOL0     C89670   3.877   9.535   1.142 -0.1327  0.0905 -0.3787
  665MOL0     O89671   3.787   9.533   1.245  0.4396 -0.1595 -1.0463
  665MOL0     C89672   3.690   9.624   1.245  0.0342 -0.8239  0.1029
  665MOL0     C89673   3.723   9.758   1.267 -1.1036  0.0661 -0.2897
  665MOL0     C89674   3.616   9.852   1.296 -0.0905 -0.2248 -0.3956
  665MOL0     C89675   3.486   9.810   1.308  0.3680  0.9187 -0.1214
  665MOL0     O89676   3.383   9.893   1.348 -0.3743  0.3877 -0.2186
  665MOL0     C89677   3.419   9.976   1.467 -0.0751 -0.4697 -0.3624
  665MOL0     C89678   3.286  10.025   1.530  0.0147 -0.4588  0.2582
  665MOL0     C89679   3.203   9.934   1.622 -0.6897 -0.2086 -0.5875
  665MOL0     C89680   3.119   9.827   1.540 -0.1968  0.8384  0.3908
  665MOL0     C89681   3.014   9.888   1.436  1.0652  0.6583 -0.2253
  665MOL0     C89682   2.906   9.958   1.514 -0.2221  0.1663 -0.9499
  665MOL0     C89683   2.780   9.971   1.432  0.8670 -0.1211 -0.3186
  665MOL0     C89684   2.691  10.077   1.502  0.4590 -0.5692 -0.2961
  665MOL0    Cl89685   2.617  10.022   1.668 -0.1349 -0.3748  0.0318
  665MOL0     C89686   3.455   9.675   1.285  0.1136  0.1764 -0.1505
  665MOL0     C89687   3.556   9.592   1.246 -0.1974  0.8459  0.2454
  665MOL0     O89688   3.876   9.611   1.047  0.1624  0.1347 -0.8091
  665MOL0     C89689   3.922   9.299   1.172 -0.1487 -0.1566  0.0891
  665MOL0     C89690   4.010   9.195   1.169 -0.3900  0.4372 -0.4762
  665MOL0     N89691   4.774   8.763   0.900 -0.8625 -0.4797 -0.7941
  665MOL0     N89692   4.897   8.747   0.892  0.8526  0.6070  0.4254
  665MOL0     C89693   5.668   8.596   0.201  0.6618  0.5131 -0.5301
  665MOL0     C89694   5.785   8.520   0.183  0.0932  0.2929  0.7925
  665MOL0     C89695   6.125   8.238   0.310  0.8341 -0.1118 -0.6103
  665MOL0     C89696   6.141   8.121   0.387  0.0838 -0.5138  0.4069
  665MOL0     C89697   6.262   8.049   0.370 -0.5626  0.2124  0.8217
  665MOL0     C89698   6.365   8.092   0.286  0.1484 -0.1309 -0.1024
  665MOL0     O89699   6.478   8.015   0.279  1.0393  0.3021 -0.1865
  665MOL0     C89700   6.578   8.047   0.188 -0.1063  0.0765 -0.1370
  665MOL0     C89701   6.683   7.934   0.185 -0.3420 -0.0960  0.5351
  665MOL0     C89702   6.754   7.908   0.310  0.1141  0.2558  0.3095
  665MOL0     C89703   6.843   7.785   0.301 -0.0040 -0.0613 -0.0025
  665MOL0     C89704   6.891   7.744   0.434 -0.5671 -0.2051 -0.7251
  665MOL0     C89705   6.941   7.723   0.548 -0.9644  0.0918 -0.5285
  665MOL0     C89706   6.357   8.221   0.234  0.5385  0.3293  0.1220
  665MOL0     C89707   6.239   8.292   0.251  0.0739 -0.2224  0.2000
  665MOL0     H89708   5.893   8.541   0.500  2.1599 -0.3335 -2.2634
  665MOL0     H89709   5.697   8.677   0.528 -2.3490 -2.4947  0.3079
  665MOL0     H89710   5.426   8.709   0.506  0.6446 -0.6911  0.7909
  665MOL0     H89711   5.558   8.837   0.464 -1.5004  2.5260 -1.3987
  665MOL0     H89712   5.375   8.967   0.461  1.0354  0.2413  0.7468
  665MOL0     H89713   5.369   8.918   0.292  0.8865  0.6381 -0.4296
  665MOL0     H89714   5.216   8.754   0.328 -0.0980  0.9883  0.7116
  665MOL0     H89715   5.219   8.762   0.511 -2.2155 -0.3266  0.0891
  665MOL0     H89716   5.131   8.989   0.324 -1.2654  2.6054  2.4565
  665MOL0     H89717   5.015   8.865   0.380  1.0206 -0.8337 -3.3668
  665MOL0     H89718   5.190   9.065   0.528  0.7192 -0.4040  0.3014
  665MOL0     H89719   5.021   9.084   0.529  0.6650  0.4619  0.4449
  665MOL0     H89720   4.956   8.906   0.670 -0.0631 -1.0723 -0.8580
  665MOL0     H89721   5.107   8.826   0.664  2.1085  0.7492  0.1092
  665MOL0     H89722   5.211   9.034   0.793  0.6141 -0.9067  0.3437
  665MOL0     H89723   5.036   9.076   0.803  2.3115  2.0856  0.2640
  665MOL0     H89724   5.142   8.934   1.000 -2.4801  0.9257 -0.0934
  665MOL0     H89725   5.150   8.795   0.885 -2.4144 -0.6319 -1.2362
  665MOL0     H89726   4.862   9.055   0.987 -2.8700 -0.2524 -1.3526
  665MOL0     H89727   4.601   9.042   0.904  0.0369  0.3924 -0.9991
  665MOL0     H89728   4.527   8.872   0.922 -1.4441  0.0145  0.3294
  665MOL0     H89729   4.623   9.065   1.133 -3.0738  0.8754  2.3577
  665MOL0     H89730   4.618   8.890   1.172 -0.3191 -0.4991  0.0424
  665MOL0     H89731   4.423   8.986   1.263 -0.1948  1.2557  0.0050
  665MOL0     H89732   4.380   8.877   1.139  1.6680 -1.4640  1.0108
  665MOL0     H89733   4.383   9.100   0.990 -1.8656  0.6603 -1.1086
  665MOL0     H89734   4.400   9.189   1.148 -2.0308  0.5658  1.7702
  665MOL0     H89735   4.296   9.338   1.045  0.7806  0.2202  0.2578
  665MOL0     H89736   4.141   9.665   1.117  1.6116  2.2567 -0.8002
  665MOL0     H89737   4.275   9.565   1.076 -1.2430  2.3987  2.3242
  665MOL0     H89738   4.142   9.578   0.954 -0.6545  2.1121  0.1824
  665MOL0     H89739   3.827   9.786   1.283 -0.1601 -3.7651  1.4790
  665MOL0     H89740   3.630   9.957   1.320 -1.2559 -0.1949  0.2468
  665MOL0     H89741   3.486   9.919   1.533  2.6496  1.7171 -1.0535
  665MOL0     H89742   3.477  10.061   1.430  1.0205  0.2186  2.6214
  665MOL0     H89743   3.307  10.103   1.604  0.0127 -0.8961  0.7289
  665MOL0     H89744   3.228  10.060   1.445 -1.1666 -1.4948  0.6148
  665MOL0     H89745   3.131   9.987   1.686  1.3334  1.7009  0.2235
  665MOL0     H89746   3.267   9.874   1.686  0.2363  0.7416 -0.5991
  665MOL0     H89747   3.188   9.773   1.475  0.7773  1.1127  1.1681
  665MOL0     H89748   3.067   9.751   1.600 -0.9803  0.6173 -0.5404
  665MOL0     H89749   2.959   9.804   1.394  0.3456  1.4865 -0.9900
  665MOL0     H89750   3.055   9.944   1.351  3.1493  0.6593  0.7050
  665MOL0     H89751   2.878   9.904   1.604  0.8841 -0.8673 -1.2125
  665MOL0     H89752   2.944  10.055   1.548 -2.0416  1.0296 -1.2131
  665MOL0     H89753   2.732   9.873   1.426 -0.7665  0.4712  1.8915
  665MOL0     H89754   2.799  10.018   1.335 -5.4596  1.2818 -1.3425
  665MOL0     H89755   2.600  10.100   1.445 -0.0344 -2.7683 -0.4829
  665MOL0     H89756   2.739  10.174   1.516 -0.4621 -0.2063  0.4402
  665MOL0     H89757   3.353   9.637   1.288 -1.4687  3.7111 -2.0094
  665MOL0     H89758   3.531   9.488   1.226 -3.1539  0.7540  3.4770
  665MOL0     H89759   3.816   9.282   1.190  0.4674 -1.6491  2.7086
  665MOL0     H89760   3.977   9.092   1.177  1.8260 -0.2015  2.0031
  665MOL0     H89761   5.603   8.600   0.114  1.4208  0.6139 -1.0999
  665MOL0     H89762   5.814   8.468   0.092  1.9974  0.2203  1.4008
  665MOL0     H89763   6.057   8.092   0.450 -0.4366 -0.2548 -0.1601
  665MOL0     H89764   6.277   7.953   0.419  1.2353  0.3155  0.5281
  665MOL0     H89765   6.536   8.060   0.088 -0.9133 -0.6955  0.0873
  665MOL0     H89766   6.623   8.144   0.209 -0.7686  0.8917 -2.2186
  665MOL0     H89767   6.759   7.951   0.108  1.1140 -4.4676  0.7171
  665MOL0     H89768   6.627   7.845   0.154  0.3327  0.5668 -3.0784
  665MOL0     H89769   6.679   7.882   0.385  1.3527 -0.1900  1.4449
  665MOL0     H89770   6.818   7.988   0.349  2.0403 -1.1119  0.1338
  665MOL0     H89771   6.927   7.825   0.244 -0.5893  1.5919  0.2531
  665MOL0     H89772   6.791   7.711   0.239  0.6377  0.2964 -0.9855
  665MOL0     H89773   6.990   7.706   0.642 -2.1739 -2.7700 -0.3093
  665MOL0     H89774   6.442   8.270   0.188  0.7241 -0.7900 -0.7782
  665MOL0     H89775   6.226   8.399   0.234  0.4337 -0.0886  0.7488
  666MOL0     O89776  10.371  10.936   5.291 -0.3286 -0.6598  0.1550
  666MOL0     C89777  10.339  10.845   5.369 -0.7295 -0.3126  0.2842
  666MOL0     O89778  10.414  10.760   5.448  0.3450  0.2495  0.3124
  666MOL0     C89779  10.547  10.750   5.416  0.1812  0.7498  0.0164
  666MOL0     C89780  10.601  10.750   5.283  0.5762  1.0555 -0.8814
  666MOL0     C89781  10.737  10.735   5.270  0.0805  0.4355 -0.6004
  666MOL0     C89782  10.817  10.707   5.382 -0.0155  0.1729 -0.0209
  666MOL0     O89783  10.946  10.687   5.361 -0.7987 -0.3265  0.0177
  666MOL0     C89784  11.042  10.686   5.463 -0.0983  0.3747  0.4154
  666MOL0     C89785  11.175  10.661   5.399 -0.3229 -0.6420 -0.4429
  666MOL0     C89786  11.274  10.669   5.513  0.4899  0.6614  0.0072
  666MOL0     C89787  11.416  10.683   5.460 -0.2747  0.2542  0.5204
  666MOL0     C89788  11.520  10.662   5.574 -0.1787 -0.7625  0.6459
  666MOL0     C89789  11.669  10.670   5.540  0.5135  0.3650  1.2835
  666MOL0     C89790  11.755  10.594   5.639  0.0410 -0.8034 -0.1757
  666MOL0     C89791  11.832  10.696   5.737 -0.6620 -0.2855  0.4875
  666MOL0     N89792  11.741  10.763   5.832  0.9828  0.2578 -0.3825
  666MOL0     C89793  11.756  10.902   5.867  0.3532 -0.9135  0.0623
  666MOL0     C89794  11.652  10.934   5.945 -0.1518  1.2119  0.6929
  666MOL0     C89795  11.623  11.073   6.005 -0.2037  0.1674  1.3195
  666MOL0     C89796  11.621  11.178   5.898  0.3069 -1.1925 -0.0999
  666MOL0     C89797  11.536  11.149   5.775  0.4657  0.4658  0.0625
  666MOL0     C89798  11.386  11.151   5.805 -0.9112  0.5994  0.7153
  666MOL0     O89799  11.326  11.282   5.812 -0.3107 -0.8166 -0.3414
  666MOL0     C89800  11.188  11.280   5.792 -0.5899 -0.2466  0.0493
  666MOL0     C89801  11.108  11.309   5.904  0.4037 -0.9627  1.0639
  666MOL0     C89802  10.968  11.300   5.907  0.8306  0.6731 -0.6154
  666MOL0     C89803  10.889  11.319   6.033 -0.1940 -0.1859  0.2430
  666MOL0     C89804  10.907  11.270   5.779 -0.8532 -0.5926  0.1639
  666MOL0     C89805  10.760  11.272   5.769 -0.9081  0.3290 -0.0968
  666MOL0     O89806  10.691  11.206   5.869  0.2542  0.4525  0.1664
  666MOL0     C89807  10.559  11.208   5.845 -0.0542  0.0608 -0.1017
  666MOL0     C89808  10.489  11.131   5.748 -0.2636 -0.9080  0.0564
  666MOL0     C89809  10.349  11.135   5.746  0.5426  0.5343 -0.2305
  666MOL0     C89810  10.277  11.216   5.830 -0.4822  0.0490  0.0623
  666MOL0     O89811  10.141  11.214   5.822 -0.3135 -0.0234  0.2304
  666MOL0     C89812  10.059  11.316   5.873  0.5044 -0.5002  0.0116
  666MOL0     C89813   9.920  11.295   5.812 -0.0551 -0.7268 -0.5095
  666MOL0     C89814   9.832  11.416   5.854 -0.2733 -0.7163 -0.2655
  666MOL0     C89815   9.696  11.428   5.774  0.1786  0.6289  0.5365
  666MOL0     C89816   9.640  11.575   5.783 -0.2278  0.4434 -0.5125
  666MOL0     C89817   9.500  11.577   5.718  0.5078  1.0432  0.5860
  666MOL0     C89818   9.456  11.714   5.683 -0.2242 -0.1067 -0.1726
  666MOL0     C89819   9.344  11.709   5.578  1.0157 -0.7299 -0.3487
  666MOL0    Cl89820   9.268  11.875   5.553 -0.2162 -0.0826  0.1701
  666MOL0     C89821  10.341  11.281   5.932 -0.5608 -0.1258  1.0885
  666MOL0     C89822  10.483  11.285   5.933  0.0294  1.0075  0.3231
  666MOL0     O89823  10.718  11.335   5.672 -0.5144  0.0990 -0.4003
  666MOL0     C89824  10.985  11.270   5.661  0.7557  0.3095  0.4567
  666MOL0     C89825  11.122  11.266   5.671  0.6293  0.2651  0.2499
  666MOL0     N89826  11.581  10.814   5.967  0.1082  0.1361 -0.1334
  666MOL0     N89827  11.637  10.713   5.905  0.5305  0.0771 -0.4278
  666MOL0     C89828  10.759  10.704   5.512 -0.0877 -0.6199 -0.0275
  666MOL0     C89829  10.626  10.714   5.525  0.3138  0.5379 -0.0860
  666MOL0     C89830  10.201  10.847   5.409 -0.4158 -0.4336  0.3462
  666MOL0     C89831  10.145  10.721   5.445 -0.4538  0.2121 -0.9248
  666MOL0     C89832  10.012  10.712   5.482  0.4138  0.2967 -0.6777
  666MOL0     C89833   9.934  10.825   5.519 -0.9026 -0.1308  0.4601
  666MOL0     O89834   9.798  10.798   5.560  0.7111  0.2709  0.0072
  666MOL0     C89835   9.709  10.908   5.551 -0.1495  0.4072  0.3871
  666MOL0     C89836   9.705  10.970   5.693  0.8160  0.5506 -0.5767
  666MOL0     C89837   9.610  10.918   5.801 -0.4654 -0.0530 -0.5333
  666MOL0     C89838   9.650  10.771   5.841  0.2167 -0.3051 -0.1031
  666MOL0     C89839   9.612  10.721   5.972  0.0584  0.1504 -0.0926
  666MOL0     C89840   9.569  10.681   6.078 -0.2631  0.6626  0.0893
  666MOL0     C89841   9.993  10.947   5.484  0.3188 -0.6493  0.3862
  666MOL0     C89842  10.123  10.962   5.436 -0.5089 -0.0284  0.1623
  666MOL0     H89843  10.536  10.788   5.204  3.0086  3.9665 -1.6681
  666MOL0     H89844  10.785  10.737   5.172 -1.7725 -0.5934 -1.5950
  666MOL0     H89845  11.039  10.779   5.520 -0.3669 -0.5168  1.9131
  666MOL0     H89846  11.026  10.607   5.538  3.1650 -0.5466  0.3214
  666MOL0     H89847  11.183  10.564   5.348  2.0032 -1.0417  0.5614
  666MOL0     H89848  11.202  10.741   5.330  2.0147  1.5068  2.6999
  666MOL0     H89849  11.245  10.750   5.580 -2.0707 -0.0509 -0.1387
  666MOL0     H89850  11.262  10.573   5.565  1.0472  1.0050  0.7883
  666MOL0     H89851  11.427  10.613   5.376  1.0112  0.6814  0.3104
  666MOL0     H89852  11.410  10.782   5.413 -1.8459  0.5125  1.1872
  666MOL0     H89853  11.501  10.736   5.652  1.5766  1.5947 -1.0041
  666MOL0     H89854  11.499  10.561   5.608 -0.4948 -0.5026  1.2440
  666MOL0     H89855  11.673  10.632   5.438  0.2752  0.9453  1.0560
  666MOL0     H89856  11.708  10.772   5.537  0.9502  0.1893 -1.6118
  666MOL0     H89857  11.685  10.529   5.692  0.9501 -1.8815 -0.2621
  666MOL0     H89858  11.814  10.529   5.574 -0.6130  0.6067 -2.2775
  666MOL0     H89859  11.891  10.771   5.684 -0.9780  0.7004  1.4998
  666MOL0     H89860  11.904  10.639   5.795 -0.6092  0.7841  1.5053
  666MOL0     H89861  11.842  10.965   5.850  0.0725 -1.1532 -2.6469
  666MOL0     H89862  11.523  11.065   6.049 -1.6260  1.5002 -1.4549
  666MOL0     H89863  11.708  11.098   6.070  2.1342 -1.4442 -0.9153
  666MOL0     H89864  11.726  11.187   5.867  2.0913  2.3706  5.4412
  666MOL0     H89865  11.605  11.277   5.944  1.2881 -1.1699  0.2112
  666MOL0     H89866  11.571  11.052   5.740 -2.8194 -1.8640  2.6258
  666MOL0     H89867  11.547  11.224   5.695  2.8848 -1.6905 -1.7970
  666MOL0     H89868  11.371  11.094   5.897 -1.8656 -1.2129 -0.5107
  666MOL0     H89869  11.350  11.087   5.725 -0.0711  1.5630 -0.4631
  666MOL0     H89870  11.157  11.348   5.993 -2.0009  2.1217  1.1935
  666MOL0     H89871  10.840  11.225   6.060  0.5956 -0.2065  1.7200
  666MOL0     H89872  10.970  11.329   6.105 -1.1860 -0.6254  1.4507
  666MOL0     H89873  10.817  11.401   6.021 -1.2495 -1.0667  0.4079
  666MOL0     H89874  10.543  11.065   5.681 -1.1046  0.0777 -1.6482
  666MOL0     H89875  10.296  11.080   5.668 -0.8976  1.6068 -0.0493
  666MOL0     H89876  10.053  11.302   5.981  1.0582 -1.5848 -0.0897
  666MOL0     H89877  10.097  11.418   5.857  0.2499  0.1590  3.0288
  666MOL0     H89878   9.933  11.300   5.703  0.7877  0.7990 -0.3761
  666MOL0     H89879   9.879  11.199   5.843  0.2519 -0.5173  0.6023
  666MOL0     H89880   9.892  11.508   5.852  0.3695 -1.0735  1.1890
  666MOL0     H89881   9.806  11.414   5.961  1.2750  0.3109  0.1712
  666MOL0     H89882   9.721  11.392   5.674  0.4869  0.9979  0.4794
  666MOL0     H89883   9.628  11.357   5.821 -0.5506  3.9106  5.2240
  666MOL0     H89884   9.690  11.661   5.737 -1.7522  1.4997 -0.2699
  666MOL0     H89885   9.632  11.603   5.888  0.3638 -3.6884  0.8258
  666MOL0     H89886   9.493  11.509   5.632 -0.1858 -0.7742  2.0158
  666MOL0     H89887   9.435  11.536   5.796 -0.4802  2.1111  0.3532
  666MOL0     H89888   9.538  11.776   5.644  1.7786 -2.4723  0.0061
  666MOL0     H89889   9.430  11.763   5.777 -1.4292 -1.8515  0.4515
  666MOL0     H89890   9.270  11.642   5.622  2.6249 -1.1300  1.9194
  666MOL0     H89891   9.373  11.664   5.482  0.2169 -2.4512  0.1688
  666MOL0     H89892  10.292  11.338   6.011 -0.9999 -0.0065  0.7312
  666MOL0     H89893  10.532  11.338   6.014  0.4764  1.8419 -0.4692
  666MOL0     H89894  10.929  11.264   5.569 -0.5253 -1.8996  1.3053
  666MOL0     H89895  11.188  11.257   5.586  2.8280 -0.0910  1.9234
  666MOL0     H89896  10.823  10.696   5.600  1.7225  2.6047 -0.9090
  666MOL0     H89897  10.574  10.714   5.620 -2.0372 -0.1953 -1.3026
  666MOL0     H89898  10.195  10.625   5.440 -0.8208  0.0524 -1.9692
  666MOL0     H89899   9.976  10.614   5.512 -1.8639  1.1816 -0.3550
  666MOL0     H89900   9.726  10.977   5.468  0.8869 -0.3961 -0.0948
  666MOL0     H89901   9.609  10.865   5.538  0.9358 -2.2608  0.2637
  666MOL0     H89902   9.691  11.078   5.678  0.8604  1.0007  2.0763
  666MOL0     H89903   9.804  10.963   5.739 -0.9327  0.5352  3.6468
  666MOL0     H89904   9.508  10.922   5.762  0.7866  0.3428 -4.0534
  666MOL0     H89905   9.623  10.988   5.884 -2.8565  1.3083 -1.2069
  666MOL0     H89906   9.760  10.770   5.838  0.2651 -2.1753  0.8336
  666MOL0     H89907   9.616  10.692   5.774 -0.8969 -0.0920  0.1949
  666MOL0     H89908   9.529  10.661   6.176  1.3700  1.6675  1.0225
  666MOL0     H89909   9.930  11.035   5.487 -0.2963 -0.9427 -1.8391
  666MOL0     H89910  10.168  11.061   5.428 -0.7848  0.3469  2.4669
  667MOL0     O89911  10.240  10.137  10.864 -0.1305 -0.4240  0.1851
  667MOL0     C89912  10.298  10.038  10.831 -1.3646 -0.0278  0.1622
  667MOL0     O89913  10.252   9.908  10.837  0.3275  0.0790  0.0442
  667MOL0     C89914  10.123   9.867  10.879 -0.8638 -0.4131 -0.3160
  667MOL0     C89915  10.014   9.953  10.903 -0.1923  0.2255  0.6659
  667MOL0     C89916   9.897   9.896  10.934 -0.3221  0.1359 -1.1678
  667MOL0     C89917   9.877   9.758  10.937 -0.3148 -0.1131  0.8108
  667MOL0     O89918   9.758   9.697  10.957  0.0059 -0.7494 -0.6838
  667MOL0     C89919   9.635   9.770  10.940 -0.4848 -0.3251  0.0288
  667MOL0     C89920   9.509   9.676  10.954 -0.0623  0.1175 -0.2298
  667MOL0     C89921   9.499   9.618  11.095  0.7325 -0.4516 -0.6732
  667MOL0     C89922   9.360   9.552  11.109 -0.5912 -0.1128 -0.0722
  667MOL0     C89923   9.349   9.474  11.244  0.8625  1.1152  0.3260
  667MOL0     C89924   9.206   9.411  11.252  0.6372  0.8044 -0.2849
  667MOL0     C89925   9.214   9.260  11.285  0.9907 -0.1401  0.0386
  667MOL0     C89926   9.097   9.204  11.372  0.2399  0.2660 -0.7075
  667MOL0     N89927   8.967   9.184  11.309 -0.2127 -0.0481  0.2085
  667MOL0     C89928   8.852   9.257  11.323  0.4391  0.2582  0.3813
  667MOL0     C89929   8.761   9.200  11.248  0.1393 -0.1103  0.0298
  667MOL0     C89930   8.610   9.235  11.246 -1.6179  1.0026  0.8270
  667MOL0     C89931   8.518   9.126  11.187 -0.6331 -0.0329  0.3955
  667MOL0     C89932   8.387   9.119  11.259  0.6576  0.0733  0.5214
  667MOL0     C89933   8.282   9.031  11.180 -0.0681 -0.5314  0.2645
  667MOL0     O89934   8.152   9.064  11.221 -0.3176 -0.9585  0.6050
  667MOL0     C89935   8.045   9.027  11.146  0.0936 -0.6834 -0.2164
  667MOL0     C89936   8.051   8.961  11.023 -0.7450 -0.3190 -0.8851
  667MOL0     C89937   7.939   8.910  10.959  0.4314  0.5003  0.7343
  667MOL0     C89938   7.962   8.824  10.840  0.8270  0.2917  0.2564
  667MOL0     C89939   7.812   8.950  11.012  0.7308  0.8157  0.7434
  667MOL0     C89940   7.678   8.919  10.939  0.7412  0.6764 -0.5609
  667MOL0     O89941   7.560   8.944  11.007 -1.4364 -0.3168 -0.6121
  667MOL0     C89942   7.433   8.938  10.944  0.3036 -0.0483  0.5876
  667MOL0     C89943   7.400   8.959  10.808 -0.0031 -0.2854 -0.7192
  667MOL0     C89944   7.268   8.990  10.772 -0.3699 -0.9071  0.0393
  667MOL0     C89945   7.163   8.968  10.858  0.2454  0.7629 -0.1868
  667MOL0     O89946   7.029   8.993  10.818  0.5291  0.8972  0.3735
  667MOL0     C89947   7.005   9.035  10.677 -0.1031 -0.1374  0.7086
  667MOL0     C89948   6.857   9.046  10.648 -0.2782 -0.5102  0.3429
  667MOL0     C89949   6.775   9.107  10.765 -0.1846  0.7163  0.8920
  667MOL0     C89950   6.628   9.089  10.740  0.3095 -0.8423 -0.2508
  667MOL0     C89951   6.578   9.192  10.629  0.6088  1.1116  0.2175
  667MOL0     C89952   6.430   9.232  10.660 -0.7312 -1.0842 -0.1393
  667MOL0     C89953   6.368   9.341  10.573 -0.1091 -0.3172  0.0182
  667MOL0     C89954   6.336   9.289  10.433 -0.4045 -0.4208  0.3534
  667MOL0    Cl89955   6.177   9.213  10.430 -0.2883  0.1716  0.0912
  667MOL0     C89956   7.189   8.947  10.995  0.4000  0.3343  0.1848
  667MOL0     C89957   7.323   8.930  11.035  0.5723  0.6058 -1.0088
  667MOL0     O89958   7.684   8.872  10.825 -0.0266  0.2370 -0.7850
  667MOL0     C89959   7.799   9.028  11.129 -0.8951  0.2629 -0.7779
  667MOL0     C89960   7.916   9.064  11.201 -0.4570 -0.2020 -0.1670
  667MOL0     N89961   8.820   9.098  11.181  0.1794  0.2486 -0.1240
  667MOL0     N89962   8.941   9.081  11.222 -0.9114  0.1910  0.5615
  667MOL0     C89963   9.988   9.672  10.931 -0.1106 -1.1367 -0.7751
  667MOL0     C89964  10.110   9.727  10.895 -0.0701 -0.1777  0.9059
  667MOL0     C89965  10.443  10.047  10.823  0.3688  0.1015  0.1869
  667MOL0     C89966  10.509  10.164  10.853  0.7421  0.2992 -0.7156
  667MOL0     C89967  10.647  10.165  10.855  0.1300  0.2309 -1.0725
  667MOL0     C89968  10.723  10.043  10.843  0.3406 -0.0175  0.0454
  667MOL0     O89969  10.855  10.045  10.877 -0.5927 -0.3106 -0.4085
  667MOL0     C89970  10.926   9.927  10.909 -0.0211 -0.1107  0.8502
  667MOL0     C89971  11.053   9.964  10.974 -0.1970 -0.3428  0.8203
  667MOL0     C89972  11.027  10.033  11.110 -0.8604 -0.2967  0.6351
  667MOL0     C89973  11.150  10.032  11.206 -0.0362  0.0757  0.1163
  667MOL0     C89974  11.269  10.090  11.131  0.3323 -0.3297 -0.6036
  667MOL0     C89975  11.367  10.136  11.071 -0.1878  0.2227 -0.5589
  667MOL0     C89976  10.653   9.930  10.812  0.2764  1.0702  0.4239
  667MOL0     C89977  10.517   9.929  10.798 -0.0406  0.0232 -0.5430
  667MOL0     H89978  10.015  10.061  10.919  0.2682  0.5317 -1.1861
  667MOL0     H89979   9.814   9.957  10.969 -0.1487  0.0661 -0.6194
  667MOL0     H89980   9.628   9.844  11.020 -2.2270 -2.8283  2.4068
  667MOL0     H89981   9.629   9.816  10.841  0.7974  1.5534  0.7810
  667MOL0     H89982   9.418   9.734  10.937 -1.4138 -1.4157  1.3444
  667MOL0     H89983   9.512   9.594  10.882 -0.3962 -1.0564  1.0428
  667MOL0     H89984   9.577   9.543  11.111  0.6487 -0.8673 -2.0908
  667MOL0     H89985   9.512   9.703  11.163  0.5423 -2.3069  1.8344
  667MOL0     H89986   9.279   9.625  11.100  1.0908  1.7075 -1.0874
  667MOL0     H89987   9.350   9.476  11.031 -0.0571 -0.0018 -0.2521
  667MOL0     H89988   9.424   9.397  11.225 -0.1106  0.5177 -1.2904
  667MOL0     H89989   9.370   9.529  11.336 -3.4746 -0.0213  2.2210
  667MOL0     H89990   9.154   9.470  11.327  0.4061  1.5447 -1.0098
  667MOL0     H89991   9.148   9.415  11.159 -0.7412 -2.5081  0.2561
  667MOL0     H89992   9.200   9.207  11.191  0.0003 -0.2236  0.2158
  667MOL0     H89993   9.308   9.235  11.335  1.1255  0.6103  0.1828
  667MOL0     H89994   9.072   9.262  11.462 -0.0209 -1.4292  0.3595
  667MOL0     H89995   9.131   9.107  11.409 -0.1464  1.1948  2.3273
  667MOL0     H89996   8.838   9.328  11.404 -2.3604 -0.4658  0.6430
  667MOL0     H89997   8.587   9.258  11.350 -1.0569  2.1905  0.7015
  667MOL0     H89998   8.603   9.322  11.180  3.1806 -1.2968 -3.4888
  667MOL0     H89999   8.575   9.033  11.193 -3.2899 -1.9162 -1.1032
  667MOL0     H90000   8.500   9.138  11.079  2.1995 -0.7961 -0.2468
  667MOL0     H90001   8.350   9.222  11.259 -1.4218 -0.5911 -0.8939
  667MOL0     H90002   8.399   9.072  11.357  1.9338  0.8394  0.7462
  667MOL0     H90003   8.289   8.923  11.196 -2.6338 -0.8052  0.0932
  667MOL0     H90004   8.288   9.059  11.074 -2.5043 -2.6637 -0.5676
  667MOL0     H90005   8.146   8.938  10.977 -1.8999 -1.3646 -2.9065
  667MOL0     H90006   7.909   8.729  10.851  0.5183  0.5109  0.6678
  667MOL0     H90007   7.924   8.856  10.742 -0.5067 -1.6870  0.0684
  667MOL0     H90008   8.069   8.811  10.824  1.0220  2.3597 -0.4031
  667MOL0     H90009   7.477   8.964  10.731  1.5036 -0.2828  0.7479
  667MOL0     H90010   7.254   8.996  10.664 -1.0655  0.6794  0.1918
  667MOL0     H90011   7.039   9.139  10.670  1.5039 -0.7086 -0.5787
  667MOL0     H90012   7.055   8.969  10.606  1.6257  0.2445  1.5314
  667MOL0     H90013   6.837   9.115  10.566 -3.0973 -1.9924 -0.3810
  667MOL0     H90014   6.822   8.945  10.621 -1.7712  0.2883 -0.8797
  667MOL0     H90015   6.816   9.207  10.782 -0.7913  1.3733 -1.2664
  667MOL0     H90016   6.793   9.052  10.858  0.2774 -0.7528 -0.0295
  667MOL0     H90017   6.602   8.987  10.710  0.5609 -1.2092  0.7655
  667MOL0     H90018   6.586   9.120  10.836 -0.7554  0.1462 -1.0016
  667MOL0     H90019   6.589   9.142  10.533 -2.1828 -0.2253  0.5185
  667MOL0     H90020   6.641   9.282  10.627 -0.5629  1.9493 -2.0311
  667MOL0     H90021   6.365   9.144  10.659 -4.8124  1.6444  0.3104
  667MOL0     H90022   6.427   9.268  10.763 -0.3494 -0.7281 -0.2499
  667MOL0     H90023   6.433   9.429  10.568  0.2547 -0.4121  2.2692
  667MOL0     H90024   6.275   9.377  10.619 -1.8256  2.6301 -4.9511
  667MOL0     H90025   6.418   9.222  10.405  0.2001 -0.2947  1.6988
  667MOL0     H90026   6.339   9.376  10.367 -1.4551 -1.2603 -0.8355
  667MOL0     H90027   7.104   8.947  11.062 -2.4398 -1.2017 -3.0921
  667MOL0     H90028   7.348   8.922  11.140  0.3258  1.8801 -0.8380
  667MOL0     H90029   7.707   9.067  11.173 -0.7877 -2.2193  1.9811
  667MOL0     H90030   7.913   9.115  11.297 -0.2175 -1.7940  0.7285
  667MOL0     H90031   9.980   9.565  10.951 -0.7195 -1.0792 -0.7022
  667MOL0     H90032  10.202   9.670  10.886  0.7203  1.2592 -0.8254
  667MOL0     H90033  10.460  10.259  10.873  1.7724  1.1137 -1.9016
  667MOL0     H90034  10.703  10.255  10.880 -2.1217  2.8516 -4.5591
  667MOL0     H90035  10.856   9.863  10.964 -0.6170 -0.0807  0.1425
  667MOL0     H90036  10.960   9.878  10.817  3.4227  2.7749  0.3958
  667MOL0     H90037  11.109  10.029  10.908 -1.9130 -0.5473 -0.9248
  667MOL0     H90038  11.113   9.872  10.978  0.3981  0.0471  0.8188
  667MOL0     H90039  10.938  10.001  11.165 -1.4049  3.0048  1.8674
  667MOL0     H90040  11.002  10.136  11.084 -0.5515  0.4070  2.9394
  667MOL0     H90041  11.182   9.932  11.237  0.0876 -0.7058 -2.3465
  667MOL0     H90042  11.130  10.092  11.295  1.1237 -2.3298  2.1194
  667MOL0     H90043  11.457  10.173  11.025 -0.1409  1.5713  0.5461
  667MOL0     H90044  10.716   9.843  10.793  0.3424  0.6767  2.2394
  667MOL0     H90045  10.461   9.838  10.782 -0.8008  0.1060  1.4430
  668MOL0     O90046   2.507   7.517   0.533  0.2301  0.0705 -0.6665
  668MOL0     C90047   2.518   7.640   0.520 -0.5146  0.5063 -0.0162
  668MOL0     O90048   2.427   7.726   0.555  0.6133 -0.2396  0.5781
  668MOL0     C90049   2.296   7.701   0.589  0.5846 -1.0266  0.0291
  668MOL0     C90050   2.233   7.802   0.662  0.2811 -0.8396  0.0048
  668MOL0     C90051   2.098   7.781   0.712 -0.3119  0.1067 -0.7605
  668MOL0     C90052   2.029   7.664   0.667  0.1793 -0.4530  0.3561
  668MOL0     O90053   1.908   7.644   0.727 -1.0620  0.0369  0.2783
  668MOL0     C90054   1.786   7.643   0.646 -0.3505 -0.0831  0.5785
  668MOL0     C90055   1.667   7.609   0.731  0.2849 -0.4118 -0.6566
  668MOL0     C90056   1.654   7.710   0.846 -0.3236  0.0905  0.0277
  668MOL0     C90057   1.579   7.832   0.793  0.0228  0.3443  0.6611
  668MOL0     C90058   1.544   7.928   0.901 -0.9903 -0.8127 -0.7715
  668MOL0     C90059   1.469   8.053   0.848 -0.2205 -0.5428  0.6779
  668MOL0     C90060   1.482   8.180   0.932  0.1040  0.1949 -0.4912
  668MOL0     C90061   1.416   8.295   0.857  1.2341 -0.4945 -0.4000
  668MOL0     N90062   1.267   8.285   0.845 -0.5941 -0.5971  0.4411
  668MOL0     C90063   1.179   8.290   0.952  0.0722 -0.3789  1.2847
  668MOL0     C90064   1.059   8.291   0.889  0.1275  0.3468 -0.3179
  668MOL0     C90065   0.929   8.277   0.963 -0.1803 -0.0033  0.6520
  668MOL0     C90066   0.832   8.385   0.924  0.1644 -0.4307  0.2306
  668MOL0     C90067   0.767   8.344   0.791  0.3716 -0.0933 -0.1181
  668MOL0     C90068   0.636   8.415   0.776  0.5989 -0.1766 -1.0096
  668MOL0     O90069   0.543   8.401   0.885 -0.4234 -0.9018 -0.1805
  668MOL0     C90070   0.412   8.388   0.858  0.2377 -0.1994  0.0644
  668MOL0     C90071   0.338   8.302   0.942  0.5553  0.7750 -0.0133
  668MOL0     C90072   0.199   8.303   0.940 -0.3624 -0.1020  0.3421
  668MOL0     C90073   0.136   8.225   1.047  0.6087  0.5442 -1.0721
  668MOL0     C90074   0.124   8.381   0.841  0.7922  0.3570  0.0647
  668MOL0     C90075  -0.019   8.371   0.827 -0.1806 -0.1050 -0.5036
  668MOL0     O90076  -0.084   8.257   0.888  0.3399 -0.4976 -0.4051
  668MOL0     C90077  -0.222   8.274   0.906 -0.8713 -0.5106  1.1041
  668MOL0     C90078  -0.316   8.271   0.795 -0.3160 -0.0976  0.1146
  668MOL0     C90079  -0.443   8.315   0.817  0.1866 -0.2313  0.1223
  668MOL0     C90080  -0.483   8.360   0.947 -0.1942  0.4684 -0.0703
  668MOL0     O90081  -0.603   8.412   0.989 -0.3196  0.3530  0.3750
  668MOL0     C90082  -0.710   8.438   0.892  0.1883  0.3560 -0.0518
  668MOL0     C90083  -0.827   8.499   0.965  0.2589 -0.3829 -0.4913
  668MOL0     C90084  -0.958   8.436   0.918 -0.9829  0.0828 -0.2210
  668MOL0     C90085  -1.073   8.514   0.973 -0.5767  0.1455 -0.1222
  668MOL0     C90086  -1.198   8.434   0.946  0.6363  0.0572 -0.1639
  668MOL0     C90087  -1.315   8.527   0.990  1.1465 -0.4301  0.1011
  668MOL0     C90088  -1.448   8.482   0.920 -0.3528  0.2565 -0.0725
  668MOL0     C90089  -1.485   8.330   0.935 -1.2818  0.3253  0.6814
  668MOL0    Cl90090  -1.519   8.264   1.087  0.4591  0.0820 -0.1772
  668MOL0     C90091  -0.392   8.344   1.052  0.4969 -0.1093 -0.3543
  668MOL0     C90092  -0.261   8.305   1.031 -0.3168 -0.0766 -0.1568
  668MOL0     O90093  -0.076   8.457   0.763 -0.6097 -0.1880  0.2479
  668MOL0     C90094   0.209   8.469   0.759  0.1058 -0.5233  0.7268
  668MOL0     C90095   0.344   8.470   0.767  0.3431  0.5055  0.0909
  668MOL0     N90096   1.069   8.278   0.758 -0.3157 -0.1965 -0.4692
  668MOL0     N90097   1.193   8.273   0.732 -0.0277  0.5748 -0.4822
  668MOL0     C90098   2.090   7.570   0.587  0.6273 -0.0369  0.5705
  668MOL0     C90099   2.220   7.591   0.548  0.1025  0.6022  0.3742
  668MOL0     C90100   2.638   7.684   0.450  0.1249  0.4130 -0.5695
  668MOL0     C90101   2.665   7.820   0.440  0.1667  0.7375 -0.4112
  668MOL0     C90102   2.787   7.854   0.388  0.5912 -0.6591  0.2366
  668MOL0     C90103   2.883   7.758   0.344  0.9837  0.1603  0.3423
  668MOL0     O90104   2.988   7.812   0.274 -0.3298 -0.0380 -0.0842
  668MOL0     C90105   3.099   7.725   0.245 -0.3597  0.4731 -0.6198
  668MOL0     C90106   3.215   7.789   0.177  0.2524 -0.1537  1.1587
  668MOL0     C90107   3.300   7.879   0.277 -1.0323  0.0263 -0.3715
  668MOL0     C90108   3.423   7.796   0.330  0.4687 -0.0362 -0.0383
  668MOL0     C90109   3.545   7.814   0.253 -0.9306  0.0365  0.3777
  668MOL0     C90110   3.637   7.844   0.186 -0.1284  0.4419  0.0960
  668MOL0     C90111   2.852   7.620   0.343 -0.9954 -0.3931 -0.0825
  668MOL0     C90112   2.736   7.588   0.411 -0.2857  0.4719  1.2011
  668MOL0     H90113   2.289   7.893   0.682  0.4736  0.1874 -4.2856
  668MOL0     H90114   2.057   7.861   0.773  0.8389 -0.8701  1.4136
  668MOL0     H90115   1.780   7.739   0.593  1.7513 -0.4683 -0.4603
  668MOL0     H90116   1.807   7.570   0.566 -1.5065  1.5941 -1.3511
  668MOL0     H90117   1.580   7.612   0.665 -0.4519  0.2557  0.3270
  668MOL0     H90118   1.683   7.510   0.774  1.9207  0.7149  1.5406
  668MOL0     H90119   1.598   7.663   0.927 -1.8371 -1.0173 -1.5685
  668MOL0     H90120   1.754   7.735   0.881 -0.5548  2.0182 -0.5991
  668MOL0     H90121   1.636   7.893   0.722  1.3067 -1.3876  0.1464
  668MOL0     H90122   1.494   7.792   0.737  1.8022 -3.3099  0.3303
  668MOL0     H90123   1.483   7.879   0.978  1.7240 -2.9627  0.1969
  668MOL0     H90124   1.635   7.945   0.960 -1.8932  0.0698  0.4005
  668MOL0     H90125   1.507   8.076   0.748 -1.9800 -0.7918 -0.0785
  668MOL0     H90126   1.365   8.033   0.820 -1.2206  2.3521  1.9483
  668MOL0     H90127   1.442   8.172   1.033  1.1929 -2.3937 -0.1911
  668MOL0     H90128   1.590   8.193   0.938  0.2213 -1.1042  1.0328
  668MOL0     H90129   1.457   8.291   0.756 -1.3581  0.6759 -1.5819
  668MOL0     H90130   1.442   8.388   0.909 -1.2507 -0.8068  1.5981
  668MOL0     H90131   1.197   8.293   1.059 -0.3067  0.7710  1.3275
  668MOL0     H90132   0.893   8.175   0.952 -0.4952 -0.1251  2.4576
  668MOL0     H90133   0.950   8.290   1.070 -2.2614  0.3333  1.0654
  668MOL0     H90134   0.881   8.483   0.917 -2.5956  1.2019  1.6679
  668MOL0     H90135   0.762   8.386   1.009  0.6355 -2.6225  0.6982
  668MOL0     H90136   0.761   8.235   0.798 -2.5752  0.0405  0.5705
  668MOL0     H90137   0.829   8.372   0.705  2.1133 -0.2073  1.0462
  668MOL0     H90138   0.585   8.385   0.685 -1.1609  1.0439 -0.4847
  668MOL0     H90139   0.657   8.522   0.780 -2.4654  0.4724  1.8683
  668MOL0     H90140   0.391   8.235   1.009 -1.3578  0.3271  1.1205
  668MOL0     H90141   0.057   8.277   1.103  0.0280 -2.4743  1.1254
  668MOL0     H90142   0.089   8.135   1.009  0.8223  0.1800 -0.4894
  668MOL0     H90143   0.207   8.193   1.124  1.0794  2.5470 -0.6043
  668MOL0     H90144  -0.277   8.229   0.702  1.6736  1.4767  0.1740
  668MOL0     H90145  -0.508   8.312   0.731 -0.2526 -0.3972  0.4566
  668MOL0     H90146  -0.685   8.512   0.816 -0.3524 -0.8807 -1.4918
  668MOL0     H90147  -0.731   8.348   0.834  2.8845  0.6729 -1.6682
  668MOL0     H90148  -0.811   8.483   1.072  0.7134  0.9631 -0.3307
  668MOL0     H90149  -0.823   8.604   0.935 -2.6048 -0.6903 -2.2789
  668MOL0     H90150  -0.962   8.334   0.958 -2.4870  0.9614  2.0098
  668MOL0     H90151  -0.962   8.436   0.809  0.8643  0.4643 -0.3253
  668MOL0     H90152  -1.059   8.531   1.080 -0.2479  2.4616 -0.4813
  668MOL0     H90153  -1.068   8.620   0.945  2.1517 -0.0438 -0.5650
  668MOL0     H90154  -1.189   8.333   0.986 -0.8009 -0.8204 -1.9285
  668MOL0     H90155  -1.202   8.418   0.838 -0.7048 -1.7457  0.1169
  668MOL0     H90156  -1.329   8.525   1.098  0.9124  0.6587  0.1023
  668MOL0     H90157  -1.304   8.630   0.955 -1.6164 -0.0084  0.2588
  668MOL0     H90158  -1.426   8.488   0.813 -0.6998  0.3257 -0.1410
  668MOL0     H90159  -1.525   8.556   0.944  2.2868  3.6071 -0.9760
  668MOL0     H90160  -1.398   8.280   0.891 -1.4680  0.5249  0.0727
  668MOL0     H90161  -1.567   8.301   0.868 -2.1613  3.3422  0.2938
  668MOL0     H90162  -0.431   8.355   1.153  0.3024  1.2141 -0.5546
  668MOL0     H90163  -0.190   8.307   1.113 -1.1488 -2.6104  0.7334
  668MOL0     H90164   0.146   8.534   0.698 -1.0164 -1.0917  1.2390
  668MOL0     H90165   0.402   8.550   0.722  1.9420 -0.6989 -0.0694
  668MOL0     H90166   2.038   7.478   0.560  1.6008 -0.8809  1.4953
  668MOL0     H90167   2.268   7.515   0.487  1.6853  1.7762  0.0954
  668MOL0     H90168   2.589   7.890   0.473  0.2441  0.6260  0.0094
  668MOL0     H90169   2.817   7.958   0.389  2.0409 -1.0597  0.4478
  668MOL0     H90170   3.131   7.688   0.343 -6.0373 -1.7447  0.7795
  668MOL0     H90171   3.074   7.633   0.190  2.2199 -1.0313  0.5488
  668MOL0     H90172   3.174   7.853   0.099 -0.5440  0.3032  1.9375
  668MOL0     H90173   3.278   7.708   0.137 -2.3385 -2.0990  0.7436
  668MOL0     H90174   3.227   7.902   0.355  0.8754  3.2075  0.6914
  668MOL0     H90175   3.339   7.971   0.233  2.0276 -1.6015 -1.3313
  668MOL0     H90176   3.399   7.691   0.344 -0.6079  0.3013  0.8245
  668MOL0     H90177   3.447   7.843   0.426 -0.0536  0.2357 -0.0357
  668MOL0     H90178   3.731   7.865   0.138  0.1289  2.7654  1.4315
  668MOL0     H90179   2.915   7.541   0.304 -0.8976 -0.8880  1.0429
  668MOL0     H90180   2.711   7.483   0.403  0.7194  0.3719 -1.5680
  669MOL0     O90181   9.974   1.893   8.518 -0.0613  0.2848  0.2785
  669MOL0     C90182   9.997   2.012   8.515 -0.3310  0.4537 -0.4226
  669MOL0     O90183   9.902   2.115   8.514  0.2219  0.7613  0.4195
  669MOL0     C90184   9.767   2.078   8.496  0.9921  0.1605  0.3353
  669MOL0     C90185   9.718   1.974   8.416 -0.0225  0.0772  0.1748
  669MOL0     C90186   9.586   1.960   8.392 -0.2517 -0.0304  1.2133
  669MOL0     C90187   9.490   2.045   8.448  0.0124  1.0649 -0.1210
  669MOL0     O90188   9.362   2.001   8.411  0.0317  0.2355  0.0470
  669MOL0     C90189   9.260   2.084   8.466 -0.4607 -1.0746 -0.3778
  669MOL0     C90190   9.131   2.037   8.427  0.4841  0.3656  0.2880
  669MOL0     C90191   9.031   2.145   8.420  0.3033  0.5591  0.0772
  669MOL0     C90192   8.898   2.092   8.406  0.5361 -0.2179  0.2453
  669MOL0     C90193   8.796   2.191   8.336  0.1830  0.8433  0.6656
  669MOL0     C90194   8.647   2.151   8.360 -1.3087 -0.5933 -0.4711
  669MOL0     C90195   8.563   2.220   8.252  0.8057  0.0619  1.5847
  669MOL0     C90196   8.414   2.203   8.267  0.1994  0.2239 -0.6169
  669MOL0     N90197   8.383   2.065   8.214  0.1901  0.5949  0.2968
  669MOL0     C90198   8.376   1.946   8.289  0.4473  0.8671 -0.4523
  669MOL0     C90199   8.369   1.850   8.193  0.0962 -1.1556 -0.2311
  669MOL0     C90200   8.354   1.705   8.238  0.4038 -0.0766 -0.3571
  669MOL0     C90201   8.484   1.637   8.218 -0.5340 -0.5735 -0.4722
  669MOL0     C90202   8.573   1.673   8.342 -0.1147  0.0957  0.2139
  669MOL0     C90203   8.711   1.615   8.323 -0.8627  0.1022 -0.7167
  669MOL0     O90204   8.787   1.693   8.231 -0.5361  0.3092  0.1815
  669MOL0     C90205   8.930   1.685   8.227 -0.3433  0.4080 -0.8417
  669MOL0     C90206   8.993   1.789   8.166 -0.0847  0.3678  0.9236
  669MOL0     C90207   9.140   1.786   8.160 -0.8813 -0.1732  0.0855
  669MOL0     C90208   9.197   1.900   8.081 -0.2524  0.5305 -0.4857
  669MOL0     C90209   9.215   1.679   8.212 -0.0576  0.5349  0.1235
  669MOL0     C90210   9.370   1.680   8.203  0.3361 -0.0860 -0.2563
  669MOL0     O90211   9.428   1.558   8.255 -0.3258 -0.0730 -0.0320
  669MOL0     C90212   9.560   1.547   8.234  0.4804 -0.4634 -0.2468
  669MOL0     C90213   9.604   1.471   8.129  0.6869 -0.1488  0.1949
  669MOL0     C90214   9.742   1.447   8.109 -0.9192 -0.0540  0.1885
  669MOL0     C90215   9.837   1.509   8.193  0.2585  0.9507 -1.3667
  669MOL0     O90216   9.979   1.500   8.182 -0.1751 -0.0241  0.4819
  669MOL0     C90217  10.020   1.411   8.074  0.4769 -0.0357  0.5615
  669MOL0     C90218  10.170   1.428   8.075 -0.2258 -1.1077 -0.4198
  669MOL0     C90219  10.234   1.334   7.979  0.2949  0.4129  0.6493
  669MOL0     C90220  10.373   1.376   7.955  0.1120 -0.2865  0.2081
  669MOL0     C90221  10.459   1.260   7.897 -0.1625 -0.1270  0.1724
  669MOL0     C90222  10.613   1.313   7.898  0.7645  0.3576  0.0761
  669MOL0     C90223  10.702   1.206   7.839  0.4470 -0.4792 -0.6578
  669MOL0     C90224  10.844   1.258   7.830  0.3084  0.5102 -0.6185
  669MOL0    Cl90225  10.894   1.257   7.662 -0.3158  0.1087  0.0032
  669MOL0     C90226   9.789   1.598   8.292  0.0396  0.2262  0.3394
  669MOL0     C90227   9.654   1.617   8.306 -0.0946 -0.2040 -0.1080
  669MOL0     O90228   9.436   1.772   8.152 -0.3410  0.4429  0.3218
  669MOL0     C90229   9.145   1.584   8.292  0.1310  0.0440  1.5890
  669MOL0     C90230   9.009   1.585   8.292 -0.2965  0.7640  0.0691
  669MOL0     N90231   8.368   1.905   8.062 -0.2489 -0.1775 -0.4824
  669MOL0     N90232   8.370   2.035   8.080  0.2571  0.3046  0.2039
  669MOL0     C90233   9.527   2.153   8.522 -0.6424  0.2999 -0.5358
  669MOL0     C90234   9.668   2.172   8.547 -0.6243 -0.9045 -0.7090
  669MOL0     C90235  10.142   2.038   8.501 -0.4145  0.3622 -0.0567
  669MOL0     C90236  10.241   1.945   8.554  0.0872 -0.5110 -0.6860
  669MOL0     C90237  10.376   1.974   8.536 -0.5696  0.2739  0.1986
  669MOL0     C90238  10.418   2.095   8.473 -0.0430 -0.6864 -0.0801
  669MOL0     O90239  10.553   2.126   8.459  0.2308 -0.5384  0.2527
  669MOL0     C90240  10.659   2.040   8.493 -0.7368 -0.0665 -0.3257
  669MOL0     C90241  10.694   2.061   8.641  0.5657  0.3821 -0.3041
  669MOL0     C90242  10.737   2.208   8.661  0.5667  1.0493  0.3959
  669MOL0     C90243  10.786   2.222   8.805  0.0327  0.7381  0.9902
  669MOL0     C90244  10.706   2.165   8.910  0.5753 -0.4254  0.3750
  669MOL0     C90245  10.641   2.129   9.002 -0.3391 -0.1268 -0.2924
  669MOL0     C90246  10.325   2.186   8.418  0.1282  0.9475  0.0035
  669MOL0     C90247  10.186   2.163   8.442  0.3829  0.0927 -0.4261
  669MOL0     H90248   9.785   1.908   8.363 -0.2707  1.2140 -1.6382
  669MOL0     H90249   9.558   1.877   8.328 -0.0865 -0.0854  1.2131
  669MOL0     H90250   9.259   2.092   8.575 -1.6434  1.1724 -0.4914
  669MOL0     H90251   9.268   2.188   8.432 -2.2337 -0.1178  1.8743
  669MOL0     H90252   9.135   1.991   8.328  0.0330  0.7287  0.0998
  669MOL0     H90253   9.099   1.960   8.497 -1.4330  2.3297  1.7118
  669MOL0     H90254   9.029   2.203   8.513 -2.9023 -2.8645  2.4682
  669MOL0     H90255   9.067   2.212   8.342 -1.2076  4.7959  2.6702
  669MOL0     H90256   8.892   2.002   8.344  0.0717 -0.9397  1.3063
  669MOL0     H90257   8.872   2.071   8.510  0.5961 -0.4124  0.2218
  669MOL0     H90258   8.811   2.296   8.361  1.0048  0.7781  0.4542
  669MOL0     H90259   8.808   2.178   8.228  0.4708  1.3835  0.6332
  669MOL0     H90260   8.635   2.042   8.365  1.2775 -0.9169  0.8414
  669MOL0     H90261   8.630   2.203   8.454  0.6380  1.2224 -1.0419
  669MOL0     H90262   8.584   2.327   8.252  0.3984  0.1483  0.7419
  669MOL0     H90263   8.584   2.177   8.154 -2.5931 -2.2800  1.7038
  669MOL0     H90264   8.358   2.282   8.214 -0.3899  2.2524  2.7499
  669MOL0     H90265   8.387   2.215   8.372  1.4842  1.0735 -0.3495
  669MOL0     H90266   8.400   1.925   8.393  2.6854 -0.7642 -1.2181
  669MOL0     H90267   8.312   1.690   8.338  1.8194 -1.7107  0.0571
  669MOL0     H90268   8.276   1.669   8.170  0.5547  2.2877 -1.9038
  669MOL0     H90269   8.533   1.659   8.123  1.8098 -0.6084  0.6596
  669MOL0     H90270   8.464   1.530   8.232  1.8751 -0.9464  0.5368
  669MOL0     H90271   8.525   1.643   8.435 -0.6896  4.2346  1.4399
  669MOL0     H90272   8.587   1.780   8.355  1.6610 -0.3377  2.6093
  669MOL0     H90273   8.704   1.511   8.289 -0.6953  0.5732 -2.2645
  669MOL0     H90274   8.761   1.619   8.420 -1.3254 -1.5896 -0.3871
  669MOL0     H90275   8.931   1.867   8.124 -1.3140 -1.0637 -0.0357
  669MOL0     H90276   9.217   1.858   7.981 -3.4303 -0.0590 -0.9688
  669MOL0     H90277   9.131   1.984   8.059  0.4967  0.6500 -2.5485
  669MOL0     H90278   9.278   1.942   8.141 -1.1195  0.0787  1.0617
  669MOL0     H90279   9.532   1.427   8.061  1.4307 -1.0138 -0.0441
  669MOL0     H90280   9.777   1.396   8.020 -1.8242 -2.4551  1.1369
  669MOL0     H90281   9.983   1.309   8.089 -1.4732  0.7843  1.6798
  669MOL0     H90282   9.988   1.434   7.972 -0.9733 -1.8985  0.5391
  669MOL0     H90283  10.199   1.528   8.042  2.3438 -1.5690  0.1589
  669MOL0     H90284  10.209   1.425   8.177  0.4142 -0.0542 -0.6221
  669MOL0     H90285  10.192   1.319   7.879 -1.0344 -0.8215  1.3473
  669MOL0     H90286  10.229   1.235   8.026 -2.2429 -0.0585 -0.4216
  669MOL0     H90287  10.372   1.466   7.892 -1.7608  0.2836  0.9924
  669MOL0     H90288  10.419   1.399   8.051  0.6125  0.1385 -0.1265
  669MOL0     H90289  10.423   1.240   7.796 -1.7972  0.3976  0.6156
  669MOL0     H90290  10.440   1.165   7.948  2.3836  0.6347  2.8248
  669MOL0     H90291  10.612   1.402   7.834 -4.0580 -0.0588 -0.8153
  669MOL0     H90292  10.642   1.332   8.001  1.3768 -0.8453  0.1387
  669MOL0     H90293  10.679   1.181   7.735 -1.8727 -1.7066  0.0838
  669MOL0     H90294  10.694   1.115   7.899 -1.5268 -0.0122 -0.1624
  669MOL0     H90295  10.907   1.195   7.892 -1.0666 -0.3209 -0.0152
  669MOL0     H90296  10.845   1.364   7.858 -1.3096  0.0921  1.2042
  669MOL0     H90297   9.869   1.654   8.340  0.7130  0.2283 -0.7383
  669MOL0     H90298   9.613   1.680   8.383  0.9375  0.1293  0.1816
  669MOL0     H90299   9.197   1.507   8.347 -0.6493 -1.0337  0.8431
  669MOL0     H90300   8.955   1.512   8.351  1.4002 -0.2834  0.3695
  669MOL0     H90301   9.460   2.225   8.567 -1.7138 -0.6767 -0.4919
  669MOL0     H90302   9.693   2.265   8.596 -0.4615 -1.0231 -0.5619
  669MOL0     H90303  10.212   1.853   8.604  2.2035  0.5478  2.8157
  669MOL0     H90304  10.446   1.894   8.560  1.4703  2.0026  0.3019
  669MOL0     H90305  10.637   1.936   8.468 -1.9958 -0.0873  0.7445
  669MOL0     H90306  10.738   2.079   8.429  0.4183  2.3211  2.3545
  669MOL0     H90307  10.785   2.003   8.662  1.8394  3.2991  3.2740
  669MOL0     H90308  10.611   2.023   8.702 -1.5249 -2.0291 -4.2493
  669MOL0     H90309  10.657   2.281   8.644 -1.3237 -0.8124  0.8313
  669MOL0     H90310  10.835   2.221   8.614  1.2747 -1.6211  0.9593
  669MOL0     H90311  10.805   2.329   8.819 -0.3852  1.4393 -2.7708
  669MOL0     H90312  10.879   2.165   8.812 -2.7477 -4.3985  1.3762
  669MOL0     H90313  10.576   2.097   9.081 -2.6454 -0.0934 -2.0490
  669MOL0     H90314  10.352   2.283   8.377 -1.5735  1.1200 -0.7896
  669MOL0     H90315  10.114   2.240   8.417  0.1958  0.3991  0.9645
  670MOL0     O90316   9.522   4.963   8.561  0.2655 -0.4134  0.1670
  670MOL0     C90317   9.502   5.041   8.653  0.7258  0.6470 -0.4382
  670MOL0     O90318   9.378   5.075   8.696  0.4992 -0.1443 -0.1918
  670MOL0     C90319   9.276   5.006   8.648 -0.4399 -0.4146  0.7270
  670MOL0     C90320   9.182   4.954   8.737 -0.3297 -0.4843  0.3268
  670MOL0     C90321   9.059   4.903   8.684 -0.6970 -0.8458  0.0816
  670MOL0     C90322   9.027   4.897   8.547 -0.3225 -0.5981  0.5075
  670MOL0     O90323   8.907   4.839   8.505  0.0386  0.1788 -0.9223
  670MOL0     C90324   8.922   4.728   8.410 -0.3555  0.4783 -0.4904
  670MOL0     C90325   8.785   4.672   8.368  0.6067 -0.6572 -0.4225
  670MOL0     C90326   8.691   4.778   8.306  0.4076  0.1739  0.5152
  670MOL0     C90327   8.773   4.885   8.214 -0.4538  0.1375 -0.6529
  670MOL0     C90328   8.808   4.808   8.084 -0.0189 -1.0483 -0.4777
  670MOL0     C90329   8.923   4.877   8.002  0.4796  0.0829 -0.5321
  670MOL0     C90330   9.064   4.863   8.064 -1.1526 -0.5156  0.0266
  670MOL0     C90331   9.177   4.922   7.968 -0.7359  0.3070 -0.4325
  670MOL0     N90332   9.314   4.883   8.016 -0.0342  0.7565  0.0249
  670MOL0     C90333   9.384   4.959   8.103 -0.1129 -0.1326 -0.0100
  670MOL0     C90334   9.484   4.881   8.134  0.0307  0.3487 -0.1250
  670MOL0     C90335   9.584   4.933   8.240 -0.9353  0.2109  0.4344
  670MOL0     C90336   9.717   4.992   8.193 -0.5652 -0.6433  0.0248
  670MOL0     C90337   9.839   4.903   8.185  0.1095 -0.2724  0.6475
  670MOL0     C90338   9.889   4.880   8.327 -0.5855 -0.2933 -0.1223
  670MOL0     O90339   9.936   5.001   8.389 -0.1572  0.1701  0.2711
  670MOL0     C90340  10.071   5.013   8.411  0.3471 -1.0158 -0.0656
  670MOL0     C90341  10.119   5.001   8.547  0.2067  0.0654 -0.5351
  670MOL0     C90342  10.255   5.011   8.577 -0.6823  0.7083 -0.4700
  670MOL0     C90343  10.284   5.014   8.730  0.1466  0.6251  0.0725
  670MOL0     C90344  10.349   5.031   8.475  0.0695  0.5016 -0.0584
  670MOL0     C90345  10.498   5.035   8.479 -0.6296  0.6212  0.5009
  670MOL0     O90346  10.577   5.054   8.357  0.3000 -0.2230 -0.6940
  670MOL0     C90347  10.714   5.022   8.370  0.3691 -0.4720 -0.6833
  670MOL0     C90348  10.808   5.124   8.393 -0.5995  0.1271  0.2485
  670MOL0     C90349  10.942   5.092   8.386  0.5525  0.0594  0.3759
  670MOL0     C90350  10.984   4.960   8.361 -0.5668  0.7690  0.6103
  670MOL0     O90351  11.120   4.943   8.337 -0.6777 -0.8406  0.1208
  670MOL0     C90352  11.167   4.832   8.264 -0.1876  0.1320 -0.0285
  670MOL0     C90353  11.259   4.876   8.152  0.7913 -0.0765 -0.8677
  670MOL0     C90354  11.207   4.963   8.032  0.0329  0.0711 -0.3792
  670MOL0     C90355  11.317   4.973   7.929  0.4511 -0.0855  0.8973
  670MOL0     C90356  11.245   5.012   7.804 -0.0415  0.3126 -0.7703
  670MOL0     C90357  11.344   5.049   7.688  0.7013  0.3456  0.2030
  670MOL0     C90358  11.286   5.073   7.547  0.6857 -0.2185  0.5400
  670MOL0     C90359  11.409   5.089   7.460 -0.4291  0.1156 -0.5083
  670MOL0    Cl90360  11.344   5.116   7.291  0.2982  0.1683 -0.4520
  670MOL0     C90361  10.890   4.860   8.361  0.1043  1.1237 -0.2646
  670MOL0     C90362  10.756   4.888   8.374  0.6218 -0.1989  0.2905
  670MOL0     O90363  10.547   5.032   8.593  0.2898 -0.2485 -0.5679
  670MOL0     C90364  10.297   5.037   8.344  0.3857 -0.4549 -0.3843
  670MOL0     C90365  10.159   5.039   8.310 -0.5561 -0.6302 -0.2484
  670MOL0     N90366   9.487   4.763   8.064  0.4339  1.6814  0.0422
  670MOL0     N90367   9.376   4.766   7.994  0.3023 -0.2793 -0.4007
  670MOL0     C90368   9.123   4.941   8.460  0.3971 -0.2750 -0.6792
  670MOL0     C90369   9.245   4.996   8.508  0.1381 -0.0615  0.4607
  670MOL0     C90370   9.621   5.111   8.722  0.4689  0.5662 -0.0809
  670MOL0     C90371   9.611   5.154   8.856 -1.5065 -0.2612 -0.1027
  670MOL0     C90372   9.718   5.223   8.909 -0.5004  0.6938 -0.5109
  670MOL0     C90373   9.835   5.241   8.838  0.0147 -0.3097 -0.5414
  670MOL0     O90374   9.942   5.319   8.882 -0.1097 -0.2602 -0.0643
  670MOL0     C90375   9.946   5.368   9.015 -0.3034  1.4980 -0.7081
  670MOL0     C90376   9.975   5.253   9.112 -0.1504 -1.5641  0.3691
  670MOL0     C90377  10.105   5.189   9.073  0.7320  1.4172 -0.3984
  670MOL0     C90378  10.153   5.097   9.195  0.7052 -0.9147  0.5297
  670MOL0     C90379  10.270   5.016   9.162 -1.2495 -1.4266  0.4050
  670MOL0     C90380  10.368   4.940   9.130  0.3036  0.7016 -0.4848
  670MOL0     C90381   9.848   5.188   8.709  0.1862 -0.8794  0.4078
  670MOL0     C90382   9.735   5.128   8.649 -0.6370  0.0405  0.6176
  670MOL0     H90383   9.195   4.970   8.844  1.0364 -0.3267  0.1563
  670MOL0     H90384   8.987   4.875   8.760 -1.4154 -2.1042 -1.0063
  670MOL0     H90385   8.983   4.764   8.327  2.1661 -2.1155  0.0548
  670MOL0     H90386   8.986   4.651   8.454 -1.7973 -0.2939  0.3525
  670MOL0     H90387   8.790   4.589   8.297 -0.4072 -0.9137 -0.2119
  670MOL0     H90388   8.739   4.636   8.461 -0.4681  1.1743 -0.1908
  670MOL0     H90389   8.604   4.738   8.253 -0.7091 -1.1143  3.1609
  670MOL0     H90390   8.656   4.833   8.394  1.0455 -0.3227  1.0901
  670MOL0     H90391   8.705   4.967   8.187 -2.1464 -1.0326 -0.1162
  670MOL0     H90392   8.861   4.935   8.255 -0.8023  1.0603 -0.9911
  670MOL0     H90393   8.842   4.706   8.101  2.8574 -0.4799 -2.0590
  670MOL0     H90394   8.716   4.816   8.025  0.7305  2.7055 -1.4187
  670MOL0     H90395   8.927   4.840   7.899  2.3881  1.6274 -1.0565
  670MOL0     H90396   8.896   4.983   8.002 -1.6810 -0.3795  1.5754
  670MOL0     H90397   9.051   4.923   8.155  0.3742 -0.4968  0.2583
  670MOL0     H90398   9.085   4.757   8.082  1.3213 -0.0174  0.4261
  670MOL0     H90399   9.163   5.030   7.959  0.8797  0.4501 -1.8142
  670MOL0     H90400   9.166   4.882   7.867 -2.2797  1.9416 -0.9630
  670MOL0     H90401   9.353   5.054   8.145  1.3484  0.1702  0.4217
  670MOL0     H90402   9.540   5.020   8.289 -0.4002  1.5902 -1.4453
  670MOL0     H90403   9.597   4.862   8.323  1.4868  0.3038  0.2154
  670MOL0     H90404   9.734   5.083   8.251 -2.9872 -0.7967  1.0868
  670MOL0     H90405   9.702   5.027   8.090 -0.8169 -0.1108  0.2388
  670MOL0     H90406   9.911   4.951   8.118 -1.3536  0.5508 -0.3700
  670MOL0     H90407   9.813   4.804   8.145  5.1807 -1.6687  0.0024
  670MOL0     H90408   9.953   4.793   8.342 -1.0428 -0.6226 -0.0517
  670MOL0     H90409   9.799   4.849   8.381 -0.6877  1.7311  0.9839
  670MOL0     H90410  10.050   4.998   8.630  1.1377 -0.1605  0.2612
  670MOL0     H90411  10.361   5.088   8.756  1.2707 -0.2511 -0.6399
  670MOL0     H90412  10.200   5.032   8.797  0.2583  0.8774  0.1459
  670MOL0     H90413  10.324   4.917   8.760  1.7178  1.7276  1.7674
  670MOL0     H90414  10.775   5.228   8.398  0.1037  0.5239 -2.2278
  670MOL0     H90415  11.025   5.158   8.409  1.3737 -1.3108  1.5618
  670MOL0     H90416  11.219   4.762   8.330  1.8140  0.9310 -0.6890
  670MOL0     H90417  11.088   4.774   8.215 -0.7487  0.9436 -0.1064
  670MOL0     H90418  11.332   4.931   8.213 -1.2022  0.0834  1.5116
  670MOL0     H90419  11.309   4.788   8.110 -0.7882 -1.8353  0.7913
  670MOL0     H90420  11.168   5.057   8.072 -2.1134 -1.1334  0.5210
  670MOL0     H90421  11.118   4.917   7.987 -0.9260  0.8158  0.6979
  670MOL0     H90422  11.397   5.041   7.961 -0.6285  1.7310 -0.0986
  670MOL0     H90423  11.363   4.877   7.904  0.1294  0.0768 -0.3958
  670MOL0     H90424  11.197   5.108   7.822 -0.3802  0.2296 -1.2119
  670MOL0     H90425  11.177   4.929   7.782  0.8898 -0.7464  0.1804
  670MOL0     H90426  11.387   5.144   7.721 -0.6518  1.5649 -1.3671
  670MOL0     H90427  11.420   4.971   7.679 -0.5153 -1.0238  1.2355
  670MOL0     H90428  11.237   5.170   7.545  1.5088  0.2688  1.9608
  670MOL0     H90429  11.221   4.993   7.512  2.0914 -2.5055  2.7867
  670MOL0     H90430  11.474   5.002   7.460  0.6173  0.8377 -2.2447
  670MOL0     H90431  11.468   5.177   7.488  2.7705 -1.8209 -0.6680
  670MOL0     H90432  10.927   4.759   8.342  2.5715  1.6867  1.1348
  670MOL0     H90433  10.679   4.812   8.374  1.5159 -1.1990 -1.6465
  670MOL0     H90434  10.355   5.040   8.252 -3.8934 -0.8506 -3.3841
  670MOL0     H90435  10.113   5.046   8.212  1.1673  0.7156 -1.0186
  670MOL0     H90436   9.117   4.937   8.351  2.4109  2.3735 -1.0073
  670MOL0     H90437   9.314   5.031   8.432  3.3340 -4.4494  0.9877
  670MOL0     H90438   9.519   5.136   8.910 -1.5288 -2.3653 -0.7541
  670MOL0     H90439   9.698   5.256   9.010  0.3605 -0.3295  0.0182
  670MOL0     H90440  10.028   5.440   9.010 -0.9456  2.1539 -2.1025
  670MOL0     H90441   9.857   5.422   9.047  0.4580  0.3507  4.1328
  670MOL0     H90442   9.888   5.187   9.119 -0.1764 -2.1939 -3.6035
  670MOL0     H90443   9.985   5.307   9.206 -0.0338  1.4757 -1.2782
  670MOL0     H90444  10.181   5.264   9.050  0.7603  1.0561 -1.5532
  670MOL0     H90445  10.079   5.127   8.987  0.1263  1.0912  0.0107
  670MOL0     H90446  10.069   5.034   9.225  1.9812 -1.8521  2.2809
  670MOL0     H90447  10.182   5.166   9.275 -3.4591 -1.2322  2.5967
  670MOL0     H90448  10.451   4.875   9.109  0.5437  0.6874  0.4428
  670MOL0     H90449   9.947   5.201   8.667  0.2968  1.3599  1.2480
  670MOL0     H90450   9.749   5.078   8.553 -4.4937 -0.0583 -0.0441
  671MOL0     O90451   6.227   6.852   7.082 -0.1871  0.2016  0.1724
  671MOL0     C90452   6.243   6.853   6.959 -0.5223 -0.3023 -0.3979
  671MOL0     O90453   6.144   6.846   6.862  0.0036 -0.1135 -0.6168
  671MOL0     C90454   6.024   6.802   6.909  0.4082  0.0595  0.5608
  671MOL0     C90455   5.978   6.673   6.882  0.0950 -0.8418  0.3093
  671MOL0     C90456   5.847   6.640   6.924 -0.3266  0.2973  0.0651
  671MOL0     C90457   5.760   6.736   6.973  0.8095 -0.3847 -0.9406
  671MOL0     O90458   5.631   6.698   7.013 -0.9619  0.9275  0.4666
  671MOL0     C90459   5.534   6.780   7.067  0.1553  0.3499 -0.4429
  671MOL0     C90460   5.413   6.697   7.125 -0.5875 -0.2950  0.4207
  671MOL0     C90461   5.333   6.780   7.228  0.1351  0.0278  0.2214
  671MOL0     C90462   5.206   6.704   7.264 -0.0391  0.5513  0.0685
  671MOL0     C90463   5.117   6.785   7.369  0.3490  0.0636  0.0476
  671MOL0     C90464   4.998   6.701   7.417 -0.3722 -0.5588 -0.1819
  671MOL0     C90465   4.913   6.633   7.299  0.0338  0.1721 -0.2366
  671MOL0     C90466   4.770   6.625   7.365  0.4528 -0.7892  0.7044
  671MOL0     N90467   4.671   6.622   7.261  0.0300 -0.3574  0.5686
  671MOL0     C90468   4.670   6.547   7.151  0.3229  0.4038  0.0642
  671MOL0     C90469   4.548   6.557   7.108  0.6091 -0.6663  0.2499
  671MOL0     C90470   4.485   6.485   6.996 -0.0123  0.3622  0.5220
  671MOL0     C90471   4.449   6.572   6.877 -1.4119  0.1058 -0.0819
  671MOL0     C90472   4.581   6.627   6.808  0.2412  0.3024 -0.9167
  671MOL0     C90473   4.552   6.659   6.657  0.4458 -0.5026 -0.4390
  671MOL0     O90474   4.666   6.664   6.577 -0.3895  0.2120 -0.1831
  671MOL0     C90475   4.646   6.673   6.439  0.1463 -0.0072  0.3219
  671MOL0     C90476   4.760   6.691   6.356 -0.4987 -0.0707  0.3067
  671MOL0     C90477   4.750   6.694   6.216  0.8412  0.4239  0.6497
  671MOL0     C90478   4.873   6.701   6.135 -0.2763  0.0979 -0.1411
  671MOL0     C90479   4.618   6.681   6.162 -0.0190  0.1197 -0.1327
  671MOL0     C90480   4.589   6.681   6.018 -0.0031 -0.4036  0.0514
  671MOL0     O90481   4.500   6.768   5.965 -0.1704 -0.4933 -0.3955
  671MOL0     C90482   4.458   6.734   5.840  0.7646 -0.1370 -0.1884
  671MOL0     C90483   4.387   6.612   5.815 -0.7735 -0.1694  0.1342
  671MOL0     C90484   4.328   6.589   5.694 -0.4349 -0.7011  0.6069
  671MOL0     C90485   4.331   6.683   5.591 -0.1494 -0.2504  0.0321
  671MOL0     O90486   4.258   6.651   5.480  0.4811 -0.3020  0.0183
  671MOL0     C90487   4.258   6.711   5.353  0.0078  0.4299 -0.0379
  671MOL0     C90488   4.159   6.659   5.246 -0.1687  0.1274 -0.5741
  671MOL0     C90489   4.017   6.693   5.295 -0.6500 -0.1769  0.3858
  671MOL0     C90490   3.917   6.649   5.193  0.0631 -0.0170 -0.0604
  671MOL0     C90491   3.783   6.667   5.268  0.1939 -0.7646 -0.3724
  671MOL0     C90492   3.648   6.656   5.193 -0.0598  0.5303 -0.2615
  671MOL0     C90493   3.527   6.709   5.280 -0.4166 -0.2139 -0.1473
  671MOL0     C90494   3.501   6.633   5.414  0.3636  0.2412 -0.3094
  671MOL0    Cl90495   3.415   6.482   5.375 -0.0186  0.2832 -0.1685
  671MOL0     C90496   4.405   6.799   5.608 -0.8060 -0.7478 -0.2447
  671MOL0     C90497   4.468   6.833   5.734 -0.2658 -0.8597  0.3381
  671MOL0     O90498   4.641   6.588   5.958 -0.9136 -0.0038  0.3138
  671MOL0     C90499   4.508   6.667   6.248  0.0558  0.0533 -0.1582
  671MOL0     C90500   4.516   6.675   6.384 -0.7831  0.6278 -0.9101
  671MOL0     N90501   4.484   6.666   7.162 -1.4551 -0.1021  0.4897
  671MOL0     N90502   4.560   6.711   7.254  0.0740 -0.2908 -0.0486
  671MOL0     C90503   5.805   6.867   7.009 -0.4420 -0.0858  0.1370
  671MOL0     C90504   5.937   6.897   6.971 -0.3812 -0.2070  0.5464
  671MOL0     C90505   6.385   6.871   6.925 -0.3978  0.5769 -0.1803
  671MOL0     C90506   6.420   6.939   6.809  0.7825 -0.6630 -0.0941
  671MOL0     C90507   6.552   6.963   6.782 -0.6509 -0.4351  0.4292
  671MOL0     C90508   6.658   6.931   6.859  0.0126 -0.2001  0.4748
  671MOL0     O90509   6.784   6.948   6.811 -0.0996 -0.2895  0.3503
  671MOL0     C90510   6.895   6.874   6.884 -0.0023 -0.7362  0.3187
  671MOL0     C90511   7.037   6.893   6.818 -0.5725 -0.7249  0.6390
  671MOL0     C90512   7.109   7.016   6.862 -0.3245 -0.5263 -0.5223
  671MOL0     C90513   7.259   6.988   6.839  0.5011 -0.5842 -0.1420
  671MOL0     C90514   7.325   7.093   6.910 -0.8077  0.0688  0.3067
  671MOL0     C90515   7.387   7.186   6.965  0.7580 -0.1142  0.4021
  671MOL0     C90516   6.626   6.856   6.973 -0.3772 -0.1107 -0.6517
  671MOL0     C90517   6.488   6.836   7.010 -0.1111  0.5166  0.1607
  671MOL0     H90518   6.051   6.619   6.822 -2.0400 -0.0069 -3.3410
  671MOL0     H90519   5.819   6.536   6.912 -2.3535  0.8279 -0.2191
  671MOL0     H90520   5.580   6.818   7.159  2.7349  0.8167 -1.8353
  671MOL0     H90521   5.493   6.866   7.012 -1.0317  3.3406  4.4874
  671MOL0     H90522   5.355   6.654   7.043  0.7901 -2.6741  0.6074
  671MOL0     H90523   5.456   6.616   7.185  1.6023  1.9538  2.1093
  671MOL0     H90524   5.405   6.805   7.306  0.8907  0.1689 -0.5096
  671MOL0     H90525   5.302   6.876   7.185 -0.8660  0.2163  1.3147
  671MOL0     H90526   5.151   6.679   7.173  1.2424 -0.7506 -0.3844
  671MOL0     H90527   5.229   6.609   7.314 -2.3088  0.4845  1.0889
  671MOL0     H90528   5.189   6.800   7.450  1.2315  0.7707 -0.8384
  671MOL0     H90529   5.091   6.885   7.332  3.2799  0.0131 -2.6307
  671MOL0     H90530   5.037   6.623   7.483  1.1872 -0.9959 -1.5848
  671MOL0     H90531   4.950   6.786   7.467  2.0657  0.8041 -0.0015
  671MOL0     H90532   4.912   6.688   7.205  1.5726 -2.9844 -2.2447
  671MOL0     H90533   4.956   6.536   7.274 -1.8781 -1.4068  2.0727
  671MOL0     H90534   4.743   6.721   7.410  2.1533  0.9551 -1.7269
  671MOL0     H90535   4.757   6.542   7.434  0.9250 -4.2553 -3.0107
  671MOL0     H90536   4.734   6.468   7.112  1.7789  2.7766 -2.7696
  671MOL0     H90537   4.553   6.404   6.971  1.4281  1.2246  1.5068
  671MOL0     H90538   4.386   6.452   7.030  0.5302 -0.4018  1.4261
  671MOL0     H90539   4.379   6.647   6.916  0.7816  1.1054  2.1893
  671MOL0     H90540   4.400   6.505   6.805 -2.1244 -0.6238  1.0599
  671MOL0     H90541   4.653   6.545   6.802 -1.5552 -1.3565 -0.7208
  671MOL0     H90542   4.629   6.707   6.865 -2.4189  1.1943  0.2257
  671MOL0     H90543   4.496   6.752   6.646 -3.1860 -2.4537 -0.2174
  671MOL0     H90544   4.490   6.575   6.624  0.3896 -0.5989 -0.0955
  671MOL0     H90545   4.857   6.707   6.402 -0.0221  1.0606 -0.9886
  671MOL0     H90546   4.877   6.790   6.070 -1.9606  2.2697  2.5060
  671MOL0     H90547   4.961   6.711   6.200 -0.5201  3.8700 -0.1780
  671MOL0     H90548   4.887   6.613   6.072  1.3204  0.6999 -0.6893
  671MOL0     H90549   4.384   6.550   5.905 -3.3045 -0.1613  0.1225
  671MOL0     H90550   4.279   6.492   5.687 -1.0623 -0.4244  1.0655
  671MOL0     H90551   4.230   6.816   5.362 -0.1731  0.4234 -0.5268
  671MOL0     H90552   4.361   6.696   5.320 -0.2585 -1.0151 -0.2893
  671MOL0     H90553   4.187   6.717   5.158 -0.4944 -0.7257 -1.2530
  671MOL0     H90554   4.165   6.554   5.215  0.0186  0.2978 -1.1207
  671MOL0     H90555   4.008   6.802   5.306 -0.4288 -0.2325  1.1825
  671MOL0     H90556   4.007   6.644   5.392 -1.3038 -3.2741 -1.1206
  671MOL0     H90557   3.932   6.713   5.105 -0.8638  0.8468  0.3884
  671MOL0     H90558   3.922   6.542   5.174  0.2654  0.2806 -1.9255
  671MOL0     H90559   3.780   6.767   5.313 -1.0855 -0.5655 -0.8314
  671MOL0     H90560   3.797   6.592   5.346 -1.3097 -1.7511 -0.9999
  671MOL0     H90561   3.648   6.719   5.103 -0.1685 -0.4850 -0.9856
  671MOL0     H90562   3.629   6.550   5.173  0.4797  0.5313 -0.8050
  671MOL0     H90563   3.441   6.703   5.212  1.7124 -2.2632 -2.9169
  671MOL0     H90564   3.557   6.809   5.312  0.1352  0.1285 -1.6262
  671MOL0     H90565   3.444   6.691   5.486 -0.1870  0.9659 -1.3058
  671MOL0     H90566   3.600   6.607   5.453  1.5984  0.7988 -2.8307
  671MOL0     H90567   4.408   6.852   5.514 -1.9033 -1.5418 -0.7502
  671MOL0     H90568   4.534   6.919   5.738  0.1676 -1.2080  3.9829
  671MOL0     H90569   4.407   6.655   6.208  0.5771  0.2841 -1.5976
  671MOL0     H90570   4.420   6.671   6.436  0.3559 -1.4964  1.2512
  671MOL0     H90571   5.735   6.924   7.069  0.5998  0.3848  0.9495
  671MOL0     H90572   5.997   6.985   6.994 -0.6647 -0.9190  5.0472
  671MOL0     H90573   6.343   6.985   6.748  1.1479 -1.4090 -1.1412
  671MOL0     H90574   6.565   7.021   6.692 -1.6258 -2.6103 -1.2042
  671MOL0     H90575   6.893   6.913   6.986  0.1961  0.9447 -0.2982
  671MOL0     H90576   6.877   6.766   6.883  1.3464 -1.0601 -3.2412
  671MOL0     H90577   7.024   6.910   6.710 -0.4226 -0.0115  0.7289
  671MOL0     H90578   7.104   6.807   6.826  1.0819  0.5949  1.6865
  671MOL0     H90579   7.086   7.042   6.966 -2.6832 -1.9974 -0.6116
  671MOL0     H90580   7.080   7.103   6.802 -0.9141 -0.6102 -0.3582
  671MOL0     H90581   7.270   6.994   6.730 -0.7273  0.2053 -0.2472
  671MOL0     H90582   7.293   6.891   6.875  0.1492 -0.9443 -0.7496
  671MOL0     H90583   7.444   7.261   7.015  0.6297 -1.3260  2.5179
  671MOL0     H90584   6.699   6.822   7.046 -2.4643 -3.5380  0.0624
  671MOL0     H90585   6.481   6.784   7.105  4.2814  2.6948  1.9367
  672MOL0     O90586   2.475   4.786  10.344  0.1660 -0.4378 -0.1019
  672MOL0     C90587   2.427   4.780  10.232  0.0239 -0.2061  0.0521
  672MOL0     O90588   2.290   4.748  10.204  0.5683 -0.0023  0.2100
  672MOL0     C90589   2.193   4.760  10.305 -0.5618  0.1644 -0.1645
  672MOL0     C90590   2.063   4.803  10.261  0.5695  0.1110  0.1543
  672MOL0     C90591   1.962   4.816  10.352 -0.8359 -0.3458 -0.2840
  672MOL0     C90592   1.981   4.778  10.483  0.3176 -0.5531  0.5492
  672MOL0     O90593   1.884   4.805  10.574  0.4826  0.2271  0.7226
  672MOL0     C90594   1.911   4.909  10.666 -0.5292 -0.1634 -0.3052
  672MOL0     C90595   1.789   4.984  10.703 -0.0841 -0.2986 -0.5207
  672MOL0     C90596   1.722   5.057  10.577  0.3418  0.4679 -0.1775
  672MOL0     C90597   1.572   5.092  10.614 -0.7427  0.0577 -0.3424
  672MOL0     C90598   1.486   5.133  10.496  0.4754  0.3499  0.5275
  672MOL0     C90599   1.331   5.117  10.524 -0.7052  0.3997 -0.0372
  672MOL0     C90600   1.278   5.228  10.620  0.3908  0.2369 -0.0189
  672MOL0     C90601   1.123   5.240  10.602  0.6823 -0.5080 -0.2285
  672MOL0     N90602   1.101   5.342  10.495  0.0583 -0.2441 -0.0442
  672MOL0     C90603   1.194   5.386  10.396  0.8713 -0.6508 -0.2042
  672MOL0     C90604   1.116   5.476  10.328 -1.1940  0.2375 -1.3588
  672MOL0     C90605   1.173   5.567  10.219  0.6204 -0.7825 -0.2012
  672MOL0     C90606   1.195   5.482  10.102 -0.1041 -0.7129 -0.3234
  672MOL0     C90607   1.067   5.452  10.025  0.2750 -0.7743 -0.5257
  672MOL0     C90608   0.986   5.331  10.084 -0.0888  0.3565 -0.0955
  672MOL0     O90609   0.871   5.304   9.995  0.4895  0.1934 -0.6267
  672MOL0     C90610   0.804   5.183  10.011  1.0759 -0.0991  0.3410
  672MOL0     C90611   0.798   5.111  10.131  0.2467  0.4916 -0.0463
  672MOL0     C90612   0.718   4.994  10.136  0.7471 -0.5251  0.0026
  672MOL0     C90613   0.712   4.921  10.265  0.3720  0.4904  0.2726
  672MOL0     C90614   0.647   4.945  10.019 -0.9627 -0.1862 -0.0636
  672MOL0     C90615   0.559   4.825  10.017 -0.2980 -0.2425  0.1651
  672MOL0     O90616   0.505   4.796   9.893 -0.3678  0.5464  0.0054
  672MOL0     C90617   0.416   4.692   9.886  0.3315 -0.9666  0.0919
  672MOL0     C90618   0.449   4.584   9.801  0.0874  0.1112 -0.3805
  672MOL0     C90619   0.367   4.468   9.785  0.2837  0.3025 -1.0087
  672MOL0     C90620   0.248   4.456   9.855  0.4886 -0.1757 -0.5428
  672MOL0     O90621   0.174   4.337   9.866 -0.4505 -0.6751  0.4504
  672MOL0     C90622   0.229   4.221   9.803  0.4099  0.4294 -0.0427
  672MOL0     C90623   0.117   4.118   9.789  0.6687  0.2378 -0.3866
  672MOL0     C90624  -0.005   4.189   9.734  0.2652 -0.2557  0.0958
  672MOL0     C90625  -0.110   4.092   9.700 -0.0994 -0.1128 -0.2121
  672MOL0     C90626  -0.243   4.158   9.652  0.8005  0.9263 -0.4717
  672MOL0     C90627  -0.345   4.053   9.609  0.3751  0.3873  0.3941
  672MOL0     C90628  -0.485   4.127   9.605 -0.4309  0.7322  0.3135
  672MOL0     C90629  -0.512   4.210   9.474 -0.2894  0.3494 -0.3770
  672MOL0    Cl90630  -0.686   4.260   9.474  0.1052 -0.4991  0.2398
  672MOL0     C90631   0.209   4.571   9.925 -0.0758 -0.3693  0.6383
  672MOL0     C90632   0.283   4.689   9.933  0.6730 -0.0212  0.8449
  672MOL0     O90633   0.552   4.754  10.119 -0.0038 -0.0796  0.1562
  672MOL0     C90634   0.661   5.029   9.905 -0.5296  0.6918  0.5214
  672MOL0     C90635   0.735   5.144   9.901 -0.0166 -0.1326  0.1967
  672MOL0     N90636   0.991   5.479  10.378  0.1855  0.5073  0.6214
  672MOL0     N90637   0.981   5.406  10.482 -0.7744  0.5425 -0.6969
  672MOL0     C90638   2.102   4.730  10.531 -0.1406  0.1531  0.1815
  672MOL0     C90639   2.211   4.727  10.440 -0.0143 -0.0751  0.4728
  672MOL0     C90640   2.526   4.781  10.128 -0.0470 -0.2964  0.4437
  672MOL0     C90641   2.479   4.794   9.998  0.5435  0.5756 -0.4642
  672MOL0     C90642   2.575   4.792   9.898  0.0543 -0.1479 -0.0560
  672MOL0     C90643   2.713   4.782   9.918 -0.1158  0.0498 -0.3656
  672MOL0     O90644   2.796   4.762   9.807  0.1413 -0.0915 -0.1751
  672MOL0     C90645   2.934   4.762   9.830 -0.2712  0.3579  0.1346
  672MOL0     C90646   2.995   4.738   9.692  0.0960 -0.1757  0.1771
  672MOL0     C90647   3.147   4.766   9.697  0.3325  0.5367  0.1215
  672MOL0     C90648   3.206   4.776   9.551  0.9891  0.2980  0.0571
  672MOL0     C90649   3.318   4.857   9.538  0.4068  0.3496 -0.9976
  672MOL0     C90650   3.410   4.938   9.528 -0.6933  1.0335 -0.2329
  672MOL0     C90651   2.759   4.764  10.057  0.5912 -0.0417  0.3510
  672MOL0     C90652   2.661   4.765  10.154 -0.2442  0.8968 -0.1855
  672MOL0     H90653   2.025   4.814  10.160 -0.5231 -1.4741  0.3520
  672MOL0     H90654   1.868   4.861  10.322 -1.3877 -1.1792  0.1562
  672MOL0     H90655   1.967   4.877  10.755  0.7265  2.0927 -0.2075
  672MOL0     H90656   1.982   4.975  10.616  2.7812 -2.0392  1.5017
  672MOL0     H90657   1.716   4.917  10.749  0.0587  0.8886  1.5483
  672MOL0     H90658   1.822   5.065  10.768  1.3123  1.2290 -2.9664
  672MOL0     H90659   1.772   5.149  10.544  1.1824 -0.2888 -1.0826
  672MOL0     H90660   1.719   4.981  10.498  0.8649 -1.5067  1.6222
  672MOL0     H90661   1.536   5.011  10.677  0.0983  1.2549  1.7766
  672MOL0     H90662   1.564   5.173  10.687  0.4991 -1.5270  1.6657
  672MOL0     H90663   1.505   5.238  10.473 -2.4189  1.2806  1.9255
  672MOL0     H90664   1.520   5.075  10.410  2.2983  0.4003  1.1896
  672MOL0     H90665   1.278   5.118  10.429 -0.3196  1.0021 -0.2471
  672MOL0     H90666   1.313   5.025  10.581  1.0129 -0.4367 -0.7594
  672MOL0     H90667   1.298   5.199  10.724  0.4398  0.3050 -0.0087
  672MOL0     H90668   1.330   5.323  10.605  1.5373 -0.3783 -0.0516
  672MOL0     H90669   1.083   5.274  10.698  0.9471  1.1614 -0.6727
  672MOL0     H90670   1.059   5.155  10.577 -0.7155  1.3424 -3.5836
  672MOL0     H90671   1.296   5.350  10.389  1.4580  0.9399 -0.0721
  672MOL0     H90672   1.102   5.648  10.203 -0.5244 -1.3869  1.4710
  672MOL0     H90673   1.268   5.611  10.251  0.6272  1.5075 -3.0099
  672MOL0     H90674   1.253   5.391  10.125  0.3713 -0.4633 -0.5086
  672MOL0     H90675   1.252   5.552  10.040 -3.6816  2.7756 -0.0664
  672MOL0     H90676   1.096   5.438   9.920  1.8744  1.7356 -0.4950
  672MOL0     H90677   1.009   5.545  10.017  0.6637 -0.5544 -0.7969
  672MOL0     H90678   0.945   5.349  10.184 -0.2349  1.0741 -0.2774
  672MOL0     H90679   1.060   5.251  10.096  0.4527  0.4523 -2.3225
  672MOL0     H90680   0.850   5.148  10.219 -0.4826 -0.5548  0.8483
  672MOL0     H90681   0.612   4.900  10.301  0.5906 -2.1645 -0.4215
  672MOL0     H90682   0.760   4.825  10.244 -0.5623  0.0641  0.0590
  672MOL0     H90683   0.767   4.981  10.338  2.3300 -0.4124 -0.3688
  672MOL0     H90684   0.546   4.577   9.755 -1.0867 -4.0145 -2.7314
  672MOL0     H90685   0.409   4.384   9.730  0.6702  0.5933 -1.1588
  672MOL0     H90686   0.250   4.251   9.700 -1.4934  2.8503  0.1952
  672MOL0     H90687   0.320   4.178   9.846  0.6353  0.9684  0.0247
  672MOL0     H90688   0.138   4.033   9.722 -2.2850 -0.7160 -0.2602
  672MOL0     H90689   0.097   4.081   9.890  1.2157  1.7722  0.3031
  672MOL0     H90690   0.022   4.245   9.644 -3.0644 -0.6795 -1.3171
  672MOL0     H90691  -0.040   4.267   9.802  1.2805  0.7735 -0.5332
  672MOL0     H90692  -0.069   4.024   9.624  1.8718 -0.1712  0.8318
  672MOL0     H90693  -0.133   4.020   9.780 -1.3623 -0.2195 -0.6580
  672MOL0     H90694  -0.225   4.227   9.570 -1.5335  0.2541 -1.6292
  672MOL0     H90695  -0.283   4.215   9.737  1.1770  0.4789  0.0177
  672MOL0     H90696  -0.329   4.000   9.515  1.5757  0.2757  0.6526
  672MOL0     H90697  -0.361   3.978   9.686  0.3660 -0.1017 -0.0783
  672MOL0     H90698  -0.508   4.182   9.697  1.5317  1.1582  0.5789
  672MOL0     H90699  -0.566   4.053   9.606 -1.3850  1.7067 -0.6593
  672MOL0     H90700  -0.494   4.156   9.381 -0.1371  1.6483 -1.1229
  672MOL0     H90701  -0.437   4.290   9.470  1.8717 -1.5760 -0.2019
  672MOL0     H90702   0.123   4.564   9.990  0.2799  3.3901  1.7470
  672MOL0     H90703   0.253   4.782   9.979  1.1638 -0.8019  2.8247
  672MOL0     H90704   0.599   5.000   9.821  0.1057  1.5168 -0.2550
  672MOL0     H90705   0.748   5.205   9.812 -1.1592  0.7853  0.6310
  672MOL0     H90706   2.116   4.685  10.628  0.4942 -0.8236 -0.3439
  672MOL0     H90707   2.310   4.689  10.461  0.2250  0.8944  1.1518
  672MOL0     H90708   2.375   4.798   9.967  0.0503 -0.4240  0.9670
  672MOL0     H90709   2.537   4.800   9.797  0.6474  0.0215 -0.2688
  672MOL0     H90710   2.955   4.864   9.863 -1.3449  0.3474  0.8970
  672MOL0     H90711   2.961   4.682   9.899  0.0801 -3.8307 -4.3193
  672MOL0     H90712   2.939   4.802   9.622  0.1783  1.5947  1.6659
  672MOL0     H90713   2.975   4.634   9.665  0.6700 -0.5117  1.0180
  672MOL0     H90714   3.186   4.681   9.753 -0.4884 -0.5561 -0.9032
  672MOL0     H90715   3.172   4.857   9.752  0.5848 -0.1575  1.1953
  672MOL0     H90716   3.126   4.806   9.482  0.7113 -1.2311 -0.3367
  672MOL0     H90717   3.233   4.675   9.520 -2.7962 -0.8713  0.0161
  672MOL0     H90718   3.497   5.000   9.519 -0.3762  0.8963  1.5202
  672MOL0     H90719   2.862   4.744  10.083  1.8360 -1.2115 -4.5561
  672MOL0     H90720   2.689   4.748  10.257  1.2549  1.5351 -0.4649
  673MOL0     O90721   2.255  10.426   1.007 -0.2476 -0.4986 -0.2949
  673MOL0     C90722   2.240  10.505   0.917  0.6559  0.1845  0.5276
  673MOL0     O90723   2.126  10.530   0.843  0.1560  0.6596 -0.1987
  673MOL0     C90724   2.004  10.471   0.876 -0.2361 -0.2005 -0.0049
  673MOL0     C90725   1.890  10.550   0.838 -0.9769  0.2736 -0.2095
  673MOL0     C90726   1.762  10.499   0.869 -0.4151  0.0554 -0.2032
  673MOL0     C90727   1.738  10.375   0.932  1.0394 -0.2445 -0.8373
  673MOL0     O90728   1.615  10.307   0.955  0.0266 -0.1803  0.2933
  673MOL0     C90729   1.499  10.379   0.916 -0.1086  0.2830  0.9422
  673MOL0     C90730   1.392  10.275   0.930 -0.8212  0.5192 -0.8359
  673MOL0     C90731   1.259  10.324   0.864 -0.7290  0.2915  0.5126
  673MOL0     C90732   1.141  10.254   0.933  0.4120  0.4692 -0.1552
  673MOL0     C90733   1.000  10.292   0.890  0.8087  0.4629 -0.1691
  673MOL0     C90734   0.966  10.432   0.940 -0.0732  0.9098 -0.1689
  673MOL0     C90735   0.821  10.471   0.906  0.2811 -0.3277 -0.0587
  673MOL0     C90736   0.805  10.623   0.938  0.0683 -0.5673  0.0497
  673MOL0     N90737   0.675  10.664   0.909 -0.2070 -0.3760 -0.1363
  673MOL0     C90738   0.646  10.772   0.835 -0.0670 -0.3757 -0.5100
  673MOL0     C90739   0.513  10.775   0.838 -0.4931 -0.7176  0.7948
  673MOL0     C90740   0.420  10.877   0.764 -0.2441  0.0145  0.5944
  673MOL0     C90741   0.277  10.827   0.739  0.1707  0.1778 -0.1807
  673MOL0     C90742   0.194  10.939   0.683 -0.1074  0.0152  0.8028
  673MOL0     C90743   0.056  10.889   0.649 -0.2398  0.4466  0.1330
  673MOL0     O90744  -0.016  10.988   0.580  0.5623 -0.5014  0.2772
  673MOL0     C90745  -0.144  10.963   0.529 -0.5136 -0.1220 -0.6404
  673MOL0     C90746  -0.214  11.063   0.469 -0.1224 -1.5772  0.1383
  673MOL0     C90747  -0.333  11.046   0.408  0.3384 -0.7045 -0.1220
  673MOL0     C90748  -0.389  11.174   0.340  0.1244  0.9083  0.3927
  673MOL0     C90749  -0.397  10.923   0.414 -0.0963  0.0468 -0.0901
  673MOL0     C90750  -0.520  10.896   0.356  0.2541 -0.0398 -0.8055
  673MOL0     O90751  -0.549  10.953   0.243  0.3693  0.1537 -0.0210
  673MOL0     C90752  -0.678  10.941   0.188  0.0813 -0.4846 -0.7603
  673MOL0     C90753  -0.759  11.052   0.189 -0.4412 -0.3933  0.0569
  673MOL0     C90754  -0.890  11.042   0.137 -0.6590  0.1557 -0.3641
  673MOL0     C90755  -0.941  10.934   0.069 -0.5991 -0.4944 -0.1332
  673MOL0     O90756  -1.065  10.953   0.012 -0.6917 -0.3032 -0.1836
  673MOL0     C90757  -1.107  10.847  -0.072  0.3605  1.0759  0.6291
  673MOL0     C90758  -1.265  10.837  -0.063 -0.6171 -0.1185  0.1308
  673MOL0     C90759  -1.311  10.860   0.087  0.1001 -0.3441 -0.0953
  673MOL0     C90760  -1.453  10.806   0.102 -0.3786 -0.5207  0.4370
  673MOL0     C90761  -1.507  10.829   0.243  0.9183 -0.3102  0.4067
  673MOL0     C90762  -1.648  10.775   0.259  0.1569  0.2027 -0.4613
  673MOL0     C90763  -1.712  10.819   0.393  1.0211 -0.5759 -0.1648
  673MOL0     C90764  -1.868  10.820   0.380 -0.0880  0.1025 -0.4919
  673MOL0    Cl90765  -1.940  10.682   0.302 -0.1500  0.1507  0.0335
  673MOL0     C90766  -0.848  10.829   0.049  0.2105 -0.0351 -0.3153
  673MOL0     C90767  -0.718  10.835   0.105  0.5941 -0.6676 -0.1421
  673MOL0     O90768  -0.588  10.799   0.397 -0.5296  0.5492 -0.2753
  673MOL0     C90769  -0.331  10.817   0.484  0.4815  0.3992 -0.1790
  673MOL0     C90770  -0.206  10.834   0.539  0.5739  1.5865  0.7922
  673MOL0     N90771   0.462  10.674   0.918 -0.1164  0.9720  0.9521
  673MOL0     N90772   0.563  10.610   0.962 -0.0041 -0.4389 -0.0137
  673MOL0     C90773   1.852  10.303   0.971 -0.2232 -0.6602 -0.1681
  673MOL0     C90774   1.978  10.351   0.949 -0.2535 -0.3418 -0.2892
  673MOL0     C90775   2.358  10.579   0.874 -0.0187 -0.5401  0.3800
  673MOL0     C90776   2.479  10.572   0.941 -1.0996  0.0939  0.1731
  673MOL0     C90777   2.583  10.654   0.913 -0.2838  0.5338  0.3864
  673MOL0     C90778   2.585  10.733   0.798 -0.2270  0.5687 -0.0863
  673MOL0     O90779   2.690  10.809   0.753  0.0974 -0.1140  0.0655
  673MOL0     C90780   2.820  10.806   0.805 -0.1253  0.7135  0.0111
  673MOL0     C90781   2.892  10.680   0.770 -0.6430  0.6988 -0.2810
  673MOL0     C90782   2.889  10.650   0.620  0.6802  0.1063 -0.1924
  673MOL0     C90783   2.940  10.760   0.536  0.1188 -0.5479  0.7969
  673MOL0     C90784   3.069  10.794   0.580  0.2931 -0.0904 -0.5347
  673MOL0     C90785   3.176  10.817   0.620 -0.3829  0.7125  0.1213
  673MOL0     C90786   2.466  10.741   0.732  0.3670 -0.5046  1.4979
  673MOL0     C90787   2.353  10.666   0.766  0.2432 -0.5945  0.7752
  673MOL0     H90788   1.906  10.643   0.785 -0.9644  0.2473 -0.2508
  673MOL0     H90789   1.676  10.560   0.843 -0.6834  0.9873  2.5395
  673MOL0     H90790   1.482  10.465   0.981  0.7221  0.7358  0.5714
  673MOL0     H90791   1.499  10.418   0.814 -1.7353  1.5592  1.3837
  673MOL0     H90792   1.417  10.178   0.887 -0.4489  0.4597 -0.4846
  673MOL0     H90793   1.381  10.267   1.039 -1.0176  0.6201 -0.8481
  673MOL0     H90794   1.256  10.433   0.874  1.5465  0.2205  2.9603
  673MOL0     H90795   1.260  10.295   0.758  2.5803  1.6451  0.0337
  673MOL0     H90796   1.145  10.146   0.914  0.1145 -0.5514  4.4701
  673MOL0     H90797   1.150  10.266   1.041  0.3985  2.8224 -0.3642
  673MOL0     H90798   0.987  10.290   0.781  0.0246  1.4438 -0.0987
  673MOL0     H90799   0.930  10.219   0.931  0.8555  0.2680 -0.4282
  673MOL0     H90800   0.976  10.436   1.049 -0.3881  1.0321 -0.1438
  673MOL0     H90801   1.040  10.493   0.887 -0.1243  0.5813 -0.6290
  673MOL0     H90802   0.790  10.456   0.802 -0.1995 -0.4550  0.0985
  673MOL0     H90803   0.749  10.421   0.972 -0.0684  2.4919  1.8527
  673MOL0     H90804   0.877  10.685   0.883 -1.6512  1.7758  0.2990
  673MOL0     H90805   0.818  10.644   1.045  1.1344 -0.6782 -0.0397
  673MOL0     H90806   0.718  10.840   0.789  1.0310 -1.4089 -0.3650
  673MOL0     H90807   0.420  10.961   0.834  0.9393  0.6942 -0.1967
  673MOL0     H90808   0.470  10.915   0.675 -0.7010  0.4186  0.5069
  673MOL0     H90809   0.224  10.799   0.830  3.2833 -1.4064  1.2990
  673MOL0     H90810   0.277  10.738   0.677  0.0958 -0.8026  1.1766
  673MOL0     H90811   0.245  10.969   0.590 -0.8569 -1.6305 -0.1966
  673MOL0     H90812   0.188  11.028   0.745 -0.6268  0.1325  0.5880
  673MOL0     H90813   0.001  10.862   0.739 -0.9224 -0.1094 -0.4417
  673MOL0     H90814   0.064  10.793   0.598 -1.6780  0.8870 -0.9978
  673MOL0     H90815  -0.159  11.157   0.468 -0.7912 -1.1780 -0.4244
  673MOL0     H90816  -0.312  11.250   0.324 -1.0236  1.7988 -1.1274
  673MOL0     H90817  -0.426  11.159   0.238  0.1042  0.2810  0.4861
  673MOL0     H90818  -0.466  11.221   0.402  1.2333 -0.9712  3.4465
  673MOL0     H90819  -0.727  11.137   0.249 -1.1332 -0.3321  0.3485
  673MOL0     H90820  -0.954  11.123   0.170 -0.3803  0.0190  0.5578
  673MOL0     H90821  -1.080  10.873  -0.175  0.1504  0.0091  0.2959
  673MOL0     H90822  -1.074  10.748  -0.041 -0.3376  1.0166  1.2166
  673MOL0     H90823  -1.314  10.918  -0.117 -0.3816  0.6025  0.9787
  673MOL0     H90824  -1.305  10.738  -0.087 -1.2290 -0.4683  2.4087
  673MOL0     H90825  -1.314  10.966   0.116 -0.1665 -0.5593  0.6860
  673MOL0     H90826  -1.250  10.799   0.154 -2.2423 -4.9839 -1.7580
  673MOL0     H90827  -1.519  10.852   0.028 -1.0496 -3.0075 -0.6265
  673MOL0     H90828  -1.462  10.699   0.085 -0.2240 -0.2597 -1.5113
  673MOL0     H90829  -1.496  10.932   0.278 -0.6742  0.3513 -0.9140
  673MOL0     H90830  -1.448  10.773   0.315  0.1968 -2.4056 -0.5444
  673MOL0     H90831  -1.705  10.807   0.172  2.4116  0.8274 -1.7944
  673MOL0     H90832  -1.633  10.667   0.258  0.5156  0.2522 -0.6780
  673MOL0     H90833  -1.680  10.923   0.411 -0.4914 -0.0013 -0.6759
  673MOL0     H90834  -1.684  10.753   0.476 -0.8671 -2.1383 -0.7032
  673MOL0     H90835  -1.906  10.901   0.317  0.0582  0.4809 -0.0965
  673MOL0     H90836  -1.907  10.833   0.482  2.2659 -2.9413  0.9606
  673MOL0     H90837  -0.869  10.737  -0.005 -0.5184  0.1537 -0.3680
  673MOL0     H90838  -0.669  10.738   0.101 -0.0286 -0.9884 -0.1223
  673MOL0     H90839  -0.381  10.723   0.501 -4.5204  2.2629 -2.4978
  673MOL0     H90840  -0.156  10.748   0.580 -1.8588 -2.5142 -3.7404
  673MOL0     H90841   1.858  10.201   1.006  2.2772 -0.5846 -0.2038
  673MOL0     H90842   2.063  10.290   0.976 -0.9814  0.4318  4.5982
  673MOL0     H90843   2.498  10.507   1.026  2.6844  3.8247  2.5645
  673MOL0     H90844   2.677  10.659   0.968  0.5815 -0.9442 -0.8544
  673MOL0     H90845   2.877  10.891   0.766 -3.1721  1.5137 -3.1643
  673MOL0     H90846   2.822  10.821   0.914  3.6697 -0.5744  0.2939
  673MOL0     H90847   2.853  10.588   0.815  0.5427  0.0132 -0.6283
  673MOL0     H90848   2.994  10.679   0.810  0.6679  2.0720 -3.3249
  673MOL0     H90849   2.785  10.633   0.590  0.6112  2.3856 -1.4736
  673MOL0     H90850   2.949  10.560   0.603 -2.3884 -2.2710  0.6934
  673MOL0     H90851   2.875  10.848   0.546 -0.8509 -1.2559  0.9140
  673MOL0     H90852   2.945  10.736   0.430 -0.7144 -1.0754  0.8724
  673MOL0     H90853   3.275  10.839   0.653 -0.2980 -1.9614  1.9978
  673MOL0     H90854   2.464  10.822   0.659 -1.4610 -2.1005 -0.3525
  673MOL0     H90855   2.267  10.672   0.701  0.7332 -1.2018  0.0487
  674MOL0     O90856   5.240   5.679   1.637 -0.0124 -0.3036 -0.4690
  674MOL0     C90857   5.282   5.639   1.527  1.1829  0.0579  0.3308
  674MOL0     O90858   5.211   5.644   1.409  0.4102  0.2549  0.7076
  674MOL0     C90859   5.084   5.691   1.429  0.8006 -0.0977 -0.4091
  674MOL0     C90860   5.050   5.826   1.411 -0.2627  0.0243 -0.3161
  674MOL0     C90861   4.921   5.867   1.439 -0.2093 -0.0345  0.6722
  674MOL0     C90862   4.830   5.787   1.498 -0.1519 -0.7939 -0.5093
  674MOL0     O90863   4.716   5.843   1.532 -0.3169 -0.6995 -0.5368
  674MOL0     C90864   4.685   5.822   1.672 -0.8399  0.7981 -0.5282
  674MOL0     C90865   4.563   5.730   1.697 -1.2127 -1.2427  0.0513
  674MOL0     C90866   4.432   5.806   1.716  0.4071  0.6132  0.7064
  674MOL0     C90867   4.330   5.726   1.797 -0.0933  0.0020 -0.4417
  674MOL0     C90868   4.201   5.805   1.806 -0.0345 -0.7734  0.6122
  674MOL0     C90869   4.085   5.720   1.867 -0.6373 -0.1160  0.1494
  674MOL0     C90870   3.956   5.799   1.895  0.7556  0.1247  0.3140
  674MOL0     C90871   3.869   5.713   1.987 -0.0078  0.8374 -0.1698
  674MOL0     N90872   3.807   5.591   1.938  0.1908 -0.3014 -0.1124
  674MOL0     C90873   3.731   5.570   1.821 -0.6823 -0.5293 -0.0291
  674MOL0     C90874   3.700   5.437   1.812 -0.1832  0.6475 -0.6759
  674MOL0     C90875   3.610   5.365   1.708 -0.6923 -0.4502  0.2088
  674MOL0     C90876   3.483   5.443   1.673 -0.2239  0.2920  1.0270
  674MOL0     C90877   3.397   5.334   1.605  0.2057  1.0836 -0.0254
  674MOL0     C90878   3.271   5.391   1.524  0.3911  0.3471  0.0603
  674MOL0     O90879   3.149   5.400   1.601  0.6353  0.6452  0.6018
  674MOL0     C90880   3.031   5.409   1.538 -0.1899  0.5421  0.6525
  674MOL0     C90881   2.915   5.400   1.613  0.0736  0.1990  0.0683
  674MOL0     C90882   2.781   5.419   1.561  0.5543  0.3456  0.3106
  674MOL0     C90883   2.664   5.426   1.661  0.1122  0.6966  0.4286
  674MOL0     C90884   2.778   5.423   1.415  0.2592  0.0463  0.2222
  674MOL0     C90885   2.649   5.424   1.338  0.8530 -0.9880  0.0822
  674MOL0     O90886   2.536   5.433   1.413  0.4496 -0.6964 -0.1133
  674MOL0     C90887   2.422   5.467   1.346  0.6035  0.4474 -0.1740
  674MOL0     C90888   2.364   5.592   1.368 -0.5224  0.3124 -0.9270
  674MOL0     C90889   2.250   5.628   1.306  0.0794 -1.1189 -0.7776
  674MOL0     C90890   2.176   5.545   1.229 -0.1223 -0.1525 -0.8039
  674MOL0     O90891   2.061   5.598   1.168  0.2100  0.2626  0.1254
  674MOL0     C90892   1.968   5.521   1.080  0.1886  0.0728  0.7949
  674MOL0     C90893   1.842   5.600   1.055 -0.1471  0.0557  1.2493
  674MOL0     C90894   1.767   5.532   0.943 -0.2098 -0.9687 -0.1369
  674MOL0     C90895   1.654   5.626   0.894  0.2933  0.0323 -0.3841
  674MOL0     C90896   1.526   5.613   0.981  0.9567 -0.3909 -0.2993
  674MOL0     C90897   1.413   5.534   0.905  0.2497 -0.4520  0.4334
  674MOL0     C90898   1.281   5.551   0.972  0.1241 -1.0388  0.1444
  674MOL0     C90899   1.170   5.466   0.908 -0.1602 -0.0476  0.0811
  674MOL0    Cl90900   1.121   5.534   0.751 -0.1031  0.2370 -0.4128
  674MOL0     C90901   2.225   5.415   1.206  0.5340  0.5485  0.6671
  674MOL0     C90902   2.350   5.377   1.269 -0.5027  0.3605  1.0535
  674MOL0     O90903   2.654   5.406   1.219 -0.3057  0.4309  0.2398
  674MOL0     C90904   2.902   5.420   1.341  0.6089 -0.3051  0.3399
  674MOL0     C90905   3.024   5.411   1.394 -0.0926 -0.5426 -0.5126
  674MOL0     N90906   3.756   5.378   1.925  0.5881 -0.0039 -0.0873
  674MOL0     N90907   3.824   5.467   2.000  0.2234  0.1585 -0.1706
  674MOL0     C90908   4.858   5.648   1.510  0.1915  0.1360  0.3386
  674MOL0     C90909   4.983   5.595   1.477  0.1723 -0.2803 -0.3574
  674MOL0     C90910   5.421   5.620   1.512  0.8384 -0.3688  0.0318
  674MOL0     C90911   5.511   5.644   1.616  0.1952 -0.5526  1.5101
  674MOL0     C90912   5.647   5.642   1.602 -0.6573 -0.5752 -0.4262
  674MOL0     C90913   5.705   5.620   1.482 -0.1002 -1.2299 -0.9111
  674MOL0     O90914   5.841   5.632   1.473  0.2216 -0.7688  0.5653
  674MOL0     C90915   5.906   5.566   1.363  0.2932  0.3966  1.0584
  674MOL0     C90916   5.921   5.418   1.398 -0.0458  0.4022 -1.1560
  674MOL0     C90917   5.996   5.333   1.292 -0.2095  0.4533 -0.4338
  674MOL0     C90918   6.041   5.202   1.353 -0.3084  0.5177 -0.5994
  674MOL0     C90919   6.137   5.219   1.467  0.7080 -0.2149  0.9506
  674MOL0     C90920   6.230   5.237   1.535  0.3025 -0.3916 -0.3335
  674MOL0     C90921   5.617   5.586   1.374 -0.4710 -1.0218  0.0154
  674MOL0     C90922   5.481   5.596   1.389  1.4402  0.2473 -0.3862
  674MOL0     H90923   5.127   5.895   1.377  1.0523  0.0591  2.4036
  674MOL0     H90924   4.888   5.968   1.417  1.1364  0.5988  1.4664
  674MOL0     H90925   4.765   5.778   1.732 -1.9918  0.8588  1.1446
  674MOL0     H90926   4.667   5.919   1.721 -1.2888  0.2056  0.5086
  674MOL0     H90927   4.556   5.660   1.613  0.4642 -1.3884  0.0008
  674MOL0     H90928   4.574   5.664   1.784 -1.9879 -4.3586 -2.0544
  674MOL0     H90929   4.446   5.905   1.761  2.7681  0.5129  0.3310
  674MOL0     H90930   4.386   5.825   1.619  1.0515  0.0747  0.2854
  674MOL0     H90931   4.303   5.634   1.745 -1.4707 -0.7527  1.4674
  674MOL0     H90932   4.363   5.708   1.900 -1.5733 -1.6926 -0.2085
  674MOL0     H90933   4.206   5.889   1.876  1.5488  0.3913 -0.8086
  674MOL0     H90934   4.173   5.850   1.710 -4.4234  0.3273  2.1869
  674MOL0     H90935   4.066   5.641   1.794 -1.2586 -0.5411  0.7612
  674MOL0     H90936   4.122   5.677   1.961  3.4323  2.7537  0.1282
  674MOL0     H90937   3.976   5.894   1.945  0.9237  0.9810 -1.2967
  674MOL0     H90938   3.893   5.822   1.809 -1.2253  1.7831  2.1195
  674MOL0     H90939   3.783   5.774   2.014 -1.2144 -0.4777 -0.9098
  674MOL0     H90940   3.921   5.697   2.082  2.1552  0.9752 -1.2620
  674MOL0     H90941   3.708   5.654   1.756  4.7953  0.3218 -1.4225
  674MOL0     H90942   3.679   5.330   1.631 -0.8852 -2.3396  0.8251
  674MOL0     H90943   3.564   5.282   1.764  0.1363  0.9978  3.2841
  674MOL0     H90944   3.509   5.526   1.607  1.9667 -0.4786  0.8127
  674MOL0     H90945   3.418   5.483   1.750  0.5825  1.6280  1.0512
  674MOL0     H90946   3.356   5.266   1.680 -0.6997  3.9981  2.3373
  674MOL0     H90947   3.447   5.282   1.523 -0.1183  1.9983 -0.8286
  674MOL0     H90948   3.259   5.317   1.444 -3.5486  0.5109  0.3179
  674MOL0     H90949   3.291   5.486   1.474 -2.0076  1.0192  0.2662
  674MOL0     H90950   2.936   5.400   1.719  0.6438  0.3342 -0.0448
  674MOL0     H90951   2.597   5.340   1.647  0.0337  1.1880 -2.7386
  674MOL0     H90952   2.690   5.448   1.765  1.4171  0.3174  0.2043
  674MOL0     H90953   2.609   5.513   1.625  1.8401  1.2090 -1.0939
  674MOL0     H90954   2.423   5.664   1.424  0.6963 -1.5378  0.2899
  674MOL0     H90955   2.200   5.721   1.330 -0.6964 -2.2715  2.7652
  674MOL0     H90956   2.025   5.498   0.989  1.2818  2.8727  0.6692
  674MOL0     H90957   1.943   5.426   1.129  1.4058 -1.1821 -0.8903
  674MOL0     H90958   1.778   5.603   1.144 -2.8634  1.2180 -0.6312
  674MOL0     H90959   1.878   5.701   1.033 -2.7970  0.5401 -1.4933
  674MOL0     H90960   1.735   5.432   0.973  0.3657 -1.5201 -1.2821
  674MOL0     H90961   1.825   5.510   0.853 -0.3277  0.2598 -0.5315
  674MOL0     H90962   1.683   5.731   0.892 -2.1018  0.7895  0.4244
  674MOL0     H90963   1.634   5.607   0.788  2.5265  1.6667 -1.1630
  674MOL0     H90964   1.485   5.705   1.022  1.4958 -0.5101  0.5250
  674MOL0     H90965   1.560   5.563   1.072  3.9212  1.0585 -0.4670
  674MOL0     H90966   1.397   5.562   0.801  1.8926 -1.9759 -0.2866
  674MOL0     H90967   1.450   5.431   0.906  2.4623  0.2776 -0.2598
  674MOL0     H90968   1.234   5.649   0.961  1.7178 -0.3522 -0.7914
  674MOL0     H90969   1.296   5.522   1.076  0.1578  0.5451  0.6001
  674MOL0     H90970   1.087   5.459   0.979  1.3189  0.8258  1.9970
  674MOL0     H90971   1.205   5.369   0.873  6.7183  1.3909  1.5549
  674MOL0     H90972   2.181   5.347   1.134  0.2824  0.4936  0.8694
  674MOL0     H90973   2.390   5.279   1.245  0.6345  0.6043  1.8812
  674MOL0     H90974   2.901   5.431   1.233  0.0027 -4.4308 -0.2335
  674MOL0     H90975   3.108   5.428   1.327  1.4002 -0.5019  1.2995
  674MOL0     H90976   4.782   5.583   1.553  0.0417  0.6252  0.8205
  674MOL0     H90977   4.984   5.486   1.477 -1.3794 -0.3425  1.3180
  674MOL0     H90978   5.484   5.666   1.719 -0.4633 -2.2878  1.7546
  674MOL0     H90979   5.706   5.665   1.691  1.7995 -0.4894 -1.9656
  674MOL0     H90980   5.851   5.588   1.271  1.9779 -1.8824 -0.6108
  674MOL0     H90981   6.008   5.606   1.362  1.4455 -2.2206  2.9702
  674MOL0     H90982   5.821   5.375   1.401  0.5382 -0.9897 -0.8149
  674MOL0     H90983   5.966   5.402   1.497 -0.2612  0.8481 -0.9829
  674MOL0     H90984   6.087   5.383   1.255 -0.2766  1.5260  0.7954
  674MOL0     H90985   5.931   5.307   1.208 -1.8014  0.4357  0.7748
  674MOL0     H90986   6.091   5.145   1.275 -0.4740  0.0454 -0.3594
  674MOL0     H90987   5.950   5.149   1.382 -0.5265  1.2132  0.0302
  674MOL0     H90988   6.317   5.276   1.583 -0.5028 -0.7159  1.4476
  674MOL0     H90989   5.641   5.570   1.270  0.1036  3.2557 -0.7246
  674MOL0     H90990   5.415   5.576   1.305 -1.5730  0.5223  1.7235
  675MOL0     O90991   1.472   3.283   6.066 -0.1011  0.3785  0.0620
  675MOL0     C90992   1.477   3.194   6.145  0.1657  0.2935 -0.8602
  675MOL0     O90993   1.590   3.120   6.175  0.3897  0.0034 -0.1767
  675MOL0     C90994   1.683   3.110   6.075 -0.2797 -0.2154 -0.0209
  675MOL0     C90995   1.767   3.213   6.045 -0.6401  0.4365  0.8526
  675MOL0     C90996   1.868   3.196   5.952 -0.3753 -0.0605  0.0565
  675MOL0     C90997   1.888   3.073   5.892  0.5391  0.2337  0.1810
  675MOL0     O90998   1.979   3.060   5.791 -0.8157  1.0210  0.1984
  675MOL0     C90999   2.120   3.097   5.811 -0.4629  0.0768  1.6940
  675MOL0     C91000   2.223   3.055   5.710  0.1726 -0.3647 -0.7431
  675MOL0     C91001   2.230   2.903   5.701  0.6868  0.4380 -0.1994
  675MOL0     C91002   2.277   2.856   5.562  0.6131 -0.3174  0.0544
  675MOL0     C91003   2.301   2.701   5.561 -0.4054  0.0115  0.4303
  675MOL0     C91004   2.201   2.619   5.481  0.2682 -0.1492  0.4792
  675MOL0     C91005   2.065   2.630   5.547 -0.1208 -0.3191 -0.3615
  675MOL0     C91006   1.960   2.530   5.487  0.1001 -0.8636 -0.3062
  675MOL0     N91007   1.933   2.570   5.341  0.0768  0.3413 -0.2131
  675MOL0     C91008   1.888   2.495   5.233  0.4488  0.7995  0.4694
  675MOL0     C91009   1.862   2.582   5.133  0.5350  0.5043  0.1498
  675MOL0     C91010   1.806   2.556   4.996 -0.1427 -0.0599 -0.1144
  675MOL0     C91011   1.657   2.552   4.993  0.5903  0.3084  0.2593
  675MOL0     C91012   1.589   2.521   4.855 -0.1835 -0.1019  0.0076
  675MOL0     C91013   1.548   2.641   4.770  0.3735 -0.2408  0.0035
  675MOL0     O91014   1.410   2.674   4.787  0.1073  0.0080  0.2896
  675MOL0     C91015   1.318   2.613   4.711  0.5581 -0.0571  0.5227
  675MOL0     C91016   1.344   2.493   4.628 -0.2923  0.8647 -0.2198
  675MOL0     C91017   1.250   2.440   4.536 -0.0495  1.2651  0.6087
  675MOL0     C91018   1.289   2.312   4.450 -0.4378 -0.9718  0.4960
  675MOL0     C91019   1.131   2.504   4.515  0.3436  1.3593  0.4737
  675MOL0     C91020   1.019   2.448   4.434 -0.8586  0.3429  1.2985
  675MOL0     O91021   1.052   2.394   4.315 -0.1586  0.0353 -0.8646
  675MOL0     C91022   0.962   2.347   4.228  0.9181 -0.2003 -0.1338
  675MOL0     C91023   1.024   2.261   4.135  0.1269  0.4478  0.4412
  675MOL0     C91024   0.945   2.213   4.026 -1.5920  0.2898 -1.0870
  675MOL0     C91025   0.814   2.252   4.009  0.0239 -0.7514  0.5735
  675MOL0     O91026   0.754   2.190   3.899 -0.5971  0.5665  0.0983
  675MOL0     C91027   0.644   2.256   3.837 -0.5258  0.2170 -0.5507
  675MOL0     C91028   0.673   2.367   3.730  0.0495  0.5998  0.0384
  675MOL0     C91029   0.764   2.476   3.774  0.1319  0.0864  0.3091
  675MOL0     C91030   0.778   2.593   3.670  0.7752 -0.5557  0.2695
  675MOL0     C91031   0.856   2.712   3.739  0.6305  0.0755 -0.7915
  675MOL0     C91032   1.001   2.673   3.788 -0.6848  0.0288 -0.2808
  675MOL0     C91033   1.097   2.659   3.674 -0.0854 -0.1883 -0.0194
  675MOL0     C91034   1.139   2.807   3.623  0.8327  0.6779  0.6429
  675MOL0    Cl91035   1.296   2.797   3.532  0.7255  0.0719  0.6471
  675MOL0     C91036   0.750   2.332   4.106  0.0919  0.0612  0.4607
  675MOL0     C91037   0.829   2.384   4.210  0.4373  0.0854  0.2286
  675MOL0     O91038   0.908   2.460   4.479 -0.2752 -0.0360 -0.7523
  675MOL0     C91039   1.097   2.616   4.601 -0.1264 -0.0780  0.3300
  675MOL0     C91040   1.193   2.665   4.693 -0.2610  0.0506 -1.2408
  675MOL0     N91041   1.894   2.712   5.169  0.4925  0.0621 -0.1662
  675MOL0     N91042   1.927   2.702   5.299  0.2605  1.1334  0.0027
  675MOL0     C91043   1.800   2.969   5.919  0.7137  0.0969  0.2662
  675MOL0     C91044   1.698   2.988   6.014  0.3149 -0.1280 -0.0577
  675MOL0     C91045   1.365   3.153   6.217 -0.4063 -0.4924  0.3752
  675MOL0     C91046   1.234   3.189   6.178 -0.3020  0.1889  1.2862
  675MOL0     C91047   1.115   3.152   6.251 -0.2729 -0.2924  0.2714
  675MOL0     C91048   1.129   3.062   6.359 -0.9896  0.0374 -0.3526
  675MOL0     O91049   1.025   3.011   6.425 -0.2499  0.2531 -0.3346
  675MOL0     C91050   0.896   3.064   6.388 -0.6748  0.3992 -0.3058
  675MOL0     C91051   0.802   3.051   6.512 -0.4324 -0.0389  0.1579
  675MOL0     C91052   0.677   3.143   6.498  0.8885 -0.0432 -0.3578
  675MOL0     C91053   0.603   3.134   6.639  0.3393  0.1167  0.0061
  675MOL0     C91054   0.476   3.215   6.627  0.1161 -1.0951  0.3105
  675MOL0     C91055   0.366   3.261   6.611  0.5318 -0.2117  0.3447
  675MOL0     C91056   1.255   3.016   6.401  0.0409  0.5550 -0.5593
  675MOL0     C91057   1.370   3.058   6.328  0.5821  0.4198 -0.1602
  675MOL0     H91058   1.756   3.310   6.093  1.0186  1.6565 -1.0363
  675MOL0     H91059   1.934   3.278   5.923  1.4905 -1.6322 -0.3323
  675MOL0     H91060   2.124   3.206   5.821  3.2734  0.3347 -0.8506
  675MOL0     H91061   2.152   3.047   5.903  1.4184 -1.1282  0.4402
  675MOL0     H91062   2.179   3.098   5.619  0.8612  3.3038  0.4989
  675MOL0     H91063   2.319   3.105   5.725  0.6852 -0.6015 -2.9461
  675MOL0     H91064   2.293   2.861   5.781 -0.8244 -1.0258  0.2795
  675MOL0     H91065   2.127   2.869   5.712 -0.6378  2.7046 -3.9341
  675MOL0     H91066   2.201   2.887   5.489  0.0633  0.1074  0.7844
  675MOL0     H91067   2.364   2.907   5.521 -0.3023  0.9271 -0.4280
  675MOL0     H91068   2.396   2.689   5.509 -1.7874  0.8254 -2.5099
  675MOL0     H91069   2.311   2.664   5.663  0.7447  1.5687  0.9202
  675MOL0     H91070   2.194   2.662   5.380  0.1267 -0.7709  0.2191
  675MOL0     H91071   2.240   2.517   5.468 -0.2082 -1.0166  4.5691
  675MOL0     H91072   2.084   2.608   5.652 -1.6407  2.3303  0.5672
  675MOL0     H91073   2.030   2.733   5.564  0.8947 -0.2702  1.7991
  675MOL0     H91074   1.867   2.541   5.545 -0.0209 -1.8837 -0.2928
  675MOL0     H91075   1.987   2.426   5.507 -0.6113 -1.0658 -0.3808
  675MOL0     H91076   1.866   2.389   5.232 -0.5059  0.9925  0.3631
  675MOL0     H91077   1.849   2.638   4.937  0.4413 -1.2297 -1.3675
  675MOL0     H91078   1.845   2.466   4.948  1.0521  1.4041 -2.0053
  675MOL0     H91079   1.625   2.649   5.033  0.6147 -0.6625  2.8172
  675MOL0     H91080   1.631   2.468   5.058  5.3409 -0.6493  1.3655
  675MOL0     H91081   1.497   2.466   4.874 -0.2952  0.6829  1.9429
  675MOL0     H91082   1.657   2.466   4.790  0.9130  0.5594  0.5618
  675MOL0     H91083   1.579   2.624   4.667  0.1954  0.4107 -0.1615
  675MOL0     H91084   1.615   2.720   4.804  0.6481 -1.8898  3.8587
  675MOL0     H91085   1.440   2.442   4.639  0.2895  1.8673 -0.5065
  675MOL0     H91086   1.206   2.241   4.444 -2.3939  1.2684 -1.2116
  675MOL0     H91087   1.300   2.343   4.345 -1.0475 -1.9783  0.1216
  675MOL0     H91088   1.390   2.273   4.469 -0.2647  0.1445  2.0389
  675MOL0     H91089   1.123   2.218   4.146  0.4267  1.1293  0.4403
  675MOL0     H91090   0.998   2.144   3.961 -0.8246 -0.9523  0.7580
  675MOL0     H91091   0.594   2.174   3.786  0.6675 -0.1304 -1.2163
  675MOL0     H91092   0.567   2.288   3.907 -0.2496  2.5010 -1.1970
  675MOL0     H91093   0.708   2.314   3.640 -0.2084 -1.4009  1.0538
  675MOL0     H91094   0.574   2.399   3.697 -0.8367 -1.0803  0.9205
  675MOL0     H91095   0.856   2.427   3.807 -0.2551 -0.0222  1.2549
  675MOL0     H91096   0.716   2.523   3.860  1.8201  0.7505  0.9112
  675MOL0     H91097   0.833   2.565   3.579  0.3247 -0.9982  0.1272
  675MOL0     H91098   0.675   2.622   3.645 -0.1902 -3.0322  1.1282
  675MOL0     H91099   0.797   2.740   3.827  0.6919 -0.3656 -0.6098
  675MOL0     H91100   0.862   2.802   3.677 -1.8620  0.6403 -0.3529
  675MOL0     H91101   1.040   2.749   3.856 -0.7802  1.9930 -2.3354
  675MOL0     H91102   1.002   2.580   3.846 -0.2914  0.0660 -0.2257
  675MOL0     H91103   1.063   2.600   3.588  2.8427  1.2603 -2.3644
  675MOL0     H91104   1.186   2.609   3.713  1.1110  0.6888 -1.5038
  675MOL0     H91105   1.152   2.881   3.702  0.1527  1.8085 -0.2887
  675MOL0     H91106   1.067   2.840   3.549 -1.1932 -0.5562  1.9729
  675MOL0     H91107   0.651   2.369   4.083  0.6686 -0.7109 -4.0547
  675MOL0     H91108   0.788   2.466   4.269 -0.7074  0.3505 -0.8976
  675MOL0     H91109   1.001   2.665   4.601 -1.7322 -3.0011  0.8540
  675MOL0     H91110   1.172   2.747   4.761  4.2199 -0.1200  0.6872
  675MOL0     H91111   1.807   2.875   5.864 -0.2695  1.1997 -1.8902
  675MOL0     H91112   1.639   2.899   6.030  1.7792 -1.0275  0.5330
  675MOL0     H91113   1.210   3.256   6.096 -0.0718 -0.7937  0.3891
  675MOL0     H91114   1.027   3.197   6.207  0.8330  0.1090 -1.6809
  675MOL0     H91115   0.892   3.171   6.364 -0.5802 -0.0200 -2.3100
  675MOL0     H91116   0.856   3.004   6.306  4.1814 -1.0310 -1.9805
  675MOL0     H91117   0.854   3.089   6.599  0.2987  0.4154 -0.4651
  675MOL0     H91118   0.776   2.947   6.534 -0.7604  0.2638  1.2335
  675MOL0     H91119   0.615   3.116   6.412  1.5166  3.7609 -2.2195
  675MOL0     H91120   0.702   3.246   6.474 -0.6478 -0.1449 -2.7858
  675MOL0     H91121   0.667   3.173   6.719 -1.1257  0.4294  1.0714
  675MOL0     H91122   0.583   3.029   6.660 -1.8195  1.0235  3.3938
  675MOL0     H91123   0.267   3.302   6.601 -0.0681 -1.3345  1.3767
  675MOL0     H91124   1.265   2.939   6.476 -0.3834  0.9913 -0.0425
  675MOL0     H91125   1.463   3.012   6.358  0.6548  0.6907  0.0293
  676MOL0     O91126   6.259   3.188   3.631  0.6705 -0.3526 -0.5228
  676MOL0     C91127   6.304   3.269   3.549 -0.4842  0.3335 -0.8458
  676MOL0     O91128   6.237   3.384   3.512 -0.0916  0.2734  0.5464
  676MOL0     C91129   6.105   3.397   3.543  0.7138 -0.1882 -0.5645
  676MOL0     C91130   6.018   3.301   3.504 -0.8632 -0.5116  0.1922
  676MOL0     C91131   5.885   3.318   3.538  0.2665  0.1670 -0.5575
  676MOL0     C91132   5.834   3.437   3.603 -0.0935  0.3197  0.2275
  676MOL0     O91133   5.701   3.460   3.631 -0.6168 -0.6595 -0.1647
  676MOL0     C91134   5.673   3.440   3.769 -0.2464 -0.2644 -0.3366
  676MOL0     C91135   5.523   3.468   3.782 -0.5841 -0.5391 -0.4102
  676MOL0     C91136   5.420   3.351   3.769 -0.2375 -0.1546  0.0410
  676MOL0     C91137   5.285   3.398   3.816  0.3606 -0.0372  0.3206
  676MOL0     C91138   5.172   3.299   3.799  0.1030  0.1945  0.1878
  676MOL0     C91139   5.031   3.360   3.804  1.6329 -0.5634 -0.1854
  676MOL0     C91140   4.935   3.248   3.761 -0.5268  0.5281 -0.6688
  676MOL0     C91141   4.790   3.276   3.735  0.0062 -0.2216  0.1145
  676MOL0     N91142   4.729   3.309   3.867 -0.5859  0.4673 -0.5929
  676MOL0     C91143   4.741   3.238   3.984  0.3323 -0.4177 -0.4926
  676MOL0     C91144   4.646   3.289   4.064  0.3474  0.4715 -0.2396
  676MOL0     C91145   4.636   3.244   4.211 -0.0741  0.3626  0.0817
  676MOL0     C91146   4.594   3.097   4.217 -0.0588 -0.0846 -0.4979
  676MOL0     C91147   4.453   3.068   4.168 -0.3310 -1.6023  0.7991
  676MOL0     C91148   4.347   3.101   4.279  0.2253 -0.3030 -0.7716
  676MOL0     O91149   4.228   3.028   4.248  0.6636 -0.9619 -0.6223
  676MOL0     C91150   4.104   3.045   4.321 -0.1637 -0.3598 -0.1027
  676MOL0     C91151   4.099   3.111   4.442 -0.2753  0.8183  0.4380
  676MOL0     C91152   3.983   3.110   4.519  0.6290  0.1412 -0.6460
  676MOL0     C91153   3.974   3.200   4.638 -0.1002 -1.0811  0.4031
  676MOL0     C91154   3.868   3.034   4.471  0.1619 -0.5471  0.2307
  676MOL0     C91155   3.734   3.022   4.535  0.5973  0.2206  0.1091
  676MOL0     O91156   3.627   2.975   4.459  0.1587  1.0087  0.7756
  676MOL0     C91157   3.505   2.989   4.516  0.4068  0.5774  0.0050
  676MOL0     C91158   3.448   3.113   4.560 -0.2689  0.5495 -0.0198
  676MOL0     C91159   3.315   3.116   4.601 -0.5500  0.2308  0.2543
  676MOL0     C91160   3.235   3.010   4.605 -0.7620  0.2572  0.3739
  676MOL0     O91161   3.111   3.030   4.660  0.2802  0.2386 -0.4138
  676MOL0     C91162   3.054   2.919   4.720  1.3346 -0.5951  0.0738
  676MOL0     C91163   2.919   2.970   4.765  0.6467 -0.1473 -0.2871
  676MOL0     C91164   2.852   2.871   4.862  0.6017  0.3627 -0.7228
  676MOL0     C91165   2.727   2.810   4.789  0.4996 -0.1988 -0.0119
  676MOL0     C91166   2.662   2.706   4.880  0.1513  0.3783  1.2225
  676MOL0     C91167   2.593   2.760   5.000  0.1543 -0.1121  0.2381
  676MOL0     C91168   2.536   2.644   5.087  0.0725  0.1865 -1.0612
  676MOL0     C91169   2.538   2.680   5.233 -0.3180 -0.2372  0.1689
  676MOL0    Cl91170   2.467   2.844   5.264 -0.0241  0.1980  0.2659
  676MOL0     C91171   3.288   2.889   4.563  0.3323 -0.1466 -0.1787
  676MOL0     C91172   3.418   2.886   4.518  0.7200  0.5086 -0.6712
  676MOL0     O91173   3.731   3.047   4.650  0.5901  0.3481  0.0551
  676MOL0     C91174   3.874   2.974   4.344  0.4787  0.8210  0.6086
  676MOL0     C91175   3.996   2.969   4.276 -0.6464 -0.6086 -0.0872
  676MOL0     N91176   4.598   3.406   4.012 -1.0050 -0.6872 -0.0081
  676MOL0     N91177   4.659   3.424   3.895 -0.5598  0.2989  0.2299
  676MOL0     C91178   5.930   3.538   3.633 -0.9994  0.2598  0.5636
  676MOL0     C91179   6.066   3.511   3.611 -0.0304  0.3940  0.8032
  676MOL0     C91180   6.428   3.237   3.483  0.3866 -0.3923  0.5075
  676MOL0     C91181   6.492   3.114   3.520  0.0942  0.6966  0.1298
  676MOL0     C91182   6.625   3.096   3.465  0.6894  0.8227 -0.5910
  676MOL0     C91183   6.682   3.182   3.372  0.1935 -0.4450 -0.3209
  676MOL0     O91184   6.806   3.184   3.325  0.1732  0.5810  0.2136
  676MOL0     C91185   6.899   3.080   3.359 -0.0442  0.3332  0.2318
  676MOL0     C91186   7.041   3.102   3.307  0.8386 -0.2653  0.0303
  676MOL0     C91187   7.112   3.206   3.397 -0.5014 -0.1231  0.3162
  676MOL0     C91188   7.243   3.140   3.453  0.9610 -0.2221  0.8406
  676MOL0     C91189   7.218   3.042   3.557  1.4955  0.5490 -0.5309
  676MOL0     C91190   7.192   2.962   3.645 -0.7222  0.0659 -0.9017
  676MOL0     C91191   6.603   3.296   3.330  0.3541  0.4249 -0.1151
  676MOL0     C91192   6.471   3.317   3.381 -0.4451 -0.2643 -0.2011
  676MOL0     H91193   6.055   3.214   3.451  0.0095 -1.2089  1.8534
  676MOL0     H91194   5.804   3.248   3.520 -0.1551  1.1120 -2.5967
  676MOL0     H91195   5.696   3.339   3.803  0.5198  0.9272  3.0192
  676MOL0     H91196   5.732   3.509   3.830 -0.5143 -0.7815  0.5299
  676MOL0     H91197   5.503   3.520   3.876  1.0614 -0.8623  0.1496
  676MOL0     H91198   5.505   3.546   3.707 -1.2379  0.6889  0.9804
  676MOL0     H91199   5.422   3.325   3.663  1.0374  2.8712 -0.8015
  676MOL0     H91200   5.449   3.267   3.832  0.9770 -1.3681 -2.0331
  676MOL0     H91201   5.292   3.435   3.919  0.3085  3.2964 -0.7624
  676MOL0     H91202   5.255   3.489   3.764 -4.2699 -2.0750 -1.0968
  676MOL0     H91203   5.180   3.229   3.715  0.1249  1.2016 -0.6654
  676MOL0     H91204   5.190   3.233   3.884  2.7224 -1.2399 -1.3443
  676MOL0     H91205   5.004   3.394   3.905  0.0266 -2.0247 -0.0795
  676MOL0     H91206   5.024   3.445   3.735 -0.3577 -1.1993 -0.8534
  676MOL0     H91207   4.964   3.192   3.671 -0.5749 -2.7370  1.1822
  676MOL0     H91208   4.942   3.172   3.839  0.6984  0.3078 -0.9680
  676MOL0     H91209   4.755   3.186   3.685 -2.1082  1.3174 -1.3285
  676MOL0     H91210   4.788   3.361   3.666  0.1604  1.2935  1.9106
  676MOL0     H91211   4.808   3.155   4.004  0.9101 -0.0509 -0.8578
  676MOL0     H91212   4.737   3.255   4.252  0.3035 -0.3174 -0.6371
  676MOL0     H91213   4.577   3.315   4.269  0.8513  1.7410 -0.5938
  676MOL0     H91214   4.614   3.059   4.317  0.7633 -0.4728 -0.7991
  676MOL0     H91215   4.650   3.030   4.151 -0.9196  0.5455 -1.9013
  676MOL0     H91216   4.450   2.962   4.142 -3.7122 -1.9715  2.2588
  676MOL0     H91217   4.430   3.129   4.080  1.3858 -0.1651  1.2962
  676MOL0     H91218   4.334   3.210   4.273 -2.6787 -0.2960  2.3660
  676MOL0     H91219   4.389   3.076   4.377  2.8606 -1.8006 -2.2069
  676MOL0     H91220   4.194   3.153   4.475  0.4783  0.0883 -0.7409
  676MOL0     H91221   4.040   3.287   4.639 -0.1565 -1.0307  1.4802
  676MOL0     H91222   3.877   3.248   4.619 -1.0280 -2.9691  0.1356
  676MOL0     H91223   3.970   3.145   4.733 -1.2016 -1.5413  0.1092
  676MOL0     H91224   3.517   3.197   4.564 -1.0539  1.1602  3.0473
  676MOL0     H91225   3.275   3.212   4.632  0.8203  1.6713 -2.0949
  676MOL0     H91226   3.037   2.845   4.642 -1.4271 -1.4022  1.3483
  676MOL0     H91227   3.104   2.886   4.811  2.3244  1.3425  0.2842
  676MOL0     H91228   2.940   3.055   4.830 -2.3481  0.4694  0.0386
  676MOL0     H91229   2.856   3.007   4.683 -0.2833 -0.3554  0.3109
  676MOL0     H91230   2.819   2.934   4.945 -1.7479  0.5378 -1.7146
  676MOL0     H91231   2.917   2.795   4.906 -0.6343 -0.9562 -1.0956
  676MOL0     H91232   2.657   2.891   4.767  0.8289  0.1912  0.3670
  676MOL0     H91233   2.755   2.766   4.692 -2.6982  3.5348 -2.9880
  676MOL0     H91234   2.744   2.639   4.908  0.3704  0.5575  1.0057
  676MOL0     H91235   2.591   2.643   4.825 -0.0894 -0.7942  2.7974
  676MOL0     H91236   2.665   2.820   5.057 -0.4870  1.9457 -0.9914
  676MOL0     H91237   2.510   2.830   4.982  0.4474  0.0413 -0.5753
  676MOL0     H91238   2.599   2.555   5.094  0.7039  0.7350  1.7270
  676MOL0     H91239   2.432   2.636   5.054 -0.6441  0.0545  1.0370
  676MOL0     H91240   2.643   2.679   5.264 -0.0320 -2.6627 -0.6311
  676MOL0     H91241   2.476   2.609   5.288  0.0513 -1.9346 -1.4732
  676MOL0     H91242   3.229   2.798   4.560 -3.5732  2.2054 -0.8430
  676MOL0     H91243   3.462   2.797   4.474  0.2849  0.6110 -1.3225
  676MOL0     H91244   3.791   2.920   4.299  1.8743  0.5897 -1.9060
  676MOL0     H91245   4.006   2.907   4.188 -0.5725 -0.6781 -0.0298
  676MOL0     H91246   5.890   3.629   3.676 -0.7064  0.9503 -0.5804
  676MOL0     H91247   6.136   3.584   3.651  1.0581  0.1310 -0.5527
  676MOL0     H91248   6.446   3.041   3.586 -1.0494  1.0211 -0.2694
  676MOL0     H91249   6.680   3.015   3.510  1.2196  3.1604  3.4782
  676MOL0     H91250   6.909   3.056   3.465  0.7136  0.6734  0.2452
  676MOL0     H91251   6.870   2.985   3.314  1.5965 -0.3663  0.5572
  676MOL0     H91252   7.031   3.137   3.204  1.3773 -0.5334 -0.1168
  676MOL0     H91253   7.092   3.006   3.311 -2.1963 -1.9893  3.0306
  676MOL0     H91254   7.049   3.260   3.469 -0.3936 -0.1337  0.4195
  676MOL0     H91255   7.145   3.292   3.338  1.6333  0.6358  2.4674
  676MOL0     H91256   7.302   3.224   3.490  0.4540  0.6095 -0.1808
  676MOL0     H91257   7.310   3.084   3.386  0.3958 -1.9136  1.6397
  676MOL0     H91258   7.172   2.905   3.734  0.2549 -1.1003 -1.3981
  676MOL0     H91259   6.646   3.376   3.270 -1.1872  1.3245 -0.0970
  676MOL0     H91260   6.427   3.410   3.347 -0.3001 -0.4235 -0.8416
  677MOL0     O91261   0.836  10.978   0.591 -0.5174 -0.0328 -0.5911
  677MOL0     C91262   0.894  10.988   0.486  0.2281 -0.5807  0.6637
  677MOL0     O91263   0.832  11.003   0.357 -0.2473  0.5158 -0.0648
  677MOL0     C91264   0.700  11.008   0.339 -0.2304  0.2071  0.0068
  677MOL0     C91265   0.603  10.943   0.412  0.5375  0.3978  0.0709
  677MOL0     C91266   0.470  10.944   0.374 -0.2647  0.1058 -0.0509
  677MOL0     C91267   0.422  11.017   0.261 -0.6109 -0.0428 -0.5096
  677MOL0     O91268   0.284  11.031   0.237 -0.0542 -0.1512  0.7956
  677MOL0     C91269   0.191  11.066   0.335 -0.3207 -0.9272 -0.6930
  677MOL0     C91270   0.095  11.169   0.270  0.9475  1.0823  0.4233
  677MOL0     C91271   0.018  11.096   0.164  0.3205  0.3503 -0.2382
  677MOL0     C91272  -0.081  11.177   0.085 -0.0630 -0.0112  0.3880
  677MOL0     C91273  -0.183  11.098   0.008 -0.2342  0.5646  0.7825
  677MOL0     C91274  -0.270  11.174  -0.085  0.2102  0.4503  0.1923
  677MOL0     C91275  -0.336  11.080  -0.184  0.8065  0.4977  0.4898
  677MOL0     C91276  -0.436  10.978  -0.118 -0.1569 -0.7787 -0.5010
  677MOL0     N91277  -0.518  10.907  -0.216  0.5827 -0.1397 -0.1472
  677MOL0     C91278  -0.609  10.946  -0.316  0.5228 -0.0919  1.0212
  677MOL0     C91279  -0.656  10.836  -0.369 -0.1914 -0.3766 -0.0878
  677MOL0     C91280  -0.764  10.826  -0.466  0.4936  0.2620 -0.0722
  677MOL0     C91281  -0.893  10.840  -0.394 -0.0674  0.9260 -0.0722
  677MOL0     C91282  -1.004  10.793  -0.489  0.4408 -0.2113 -0.4784
  677MOL0     C91283  -1.147  10.789  -0.434 -1.1629 -0.1485  0.4828
  677MOL0     O91284  -1.229  10.765  -0.545  0.0726 -0.0324 -0.3578
  677MOL0     C91285  -1.369  10.785  -0.528  0.3984  0.2913 -0.1787
  677MOL0     C91286  -1.434  10.794  -0.401 -0.6989 -0.6201 -0.3739
  677MOL0     C91287  -1.571  10.802  -0.395 -0.6039 -0.2038 -0.9495
  677MOL0     C91288  -1.635  10.796  -0.258 -0.2938  0.0623  0.4035
  677MOL0     C91289  -1.639  10.805  -0.514  0.1534  0.7633  0.8770
  677MOL0     C91290  -1.781  10.828  -0.517 -0.2804 -0.0290  0.3990
  677MOL0     O91291  -1.847  10.735  -0.591 -0.0171  0.3837 -0.3712
  677MOL0     C91292  -1.983  10.718  -0.566  0.2336 -0.0002  0.0784
  677MOL0     C91293  -2.062  10.695  -0.676 -0.0028  0.9695  0.0329
  677MOL0     C91294  -2.195  10.664  -0.656  0.3797 -0.5341  0.0872
  677MOL0     C91295  -2.250  10.673  -0.526 -0.2878  0.8864  0.1052
  677MOL0     O91296  -2.382  10.632  -0.496  0.2064  0.2035 -0.3588
  677MOL0     C91297  -2.479  10.718  -0.550  0.6405 -0.4724 -0.2023
  677MOL0     C91298  -2.522  10.817  -0.441  0.5075  0.1140 -0.4513
  677MOL0     C91299  -2.576  10.745  -0.312  0.3917  0.3841  0.4479
  677MOL0     C91300  -2.512  10.785  -0.174 -0.0222  0.3357 -0.4095
  677MOL0     C91301  -2.557  10.934  -0.144  0.7329  0.1003 -0.8896
  677MOL0     C91302  -2.702  10.972  -0.174  0.2954  0.2809  0.4678
  677MOL0     C91303  -2.736  11.095  -0.081 -0.2336  0.5343 -0.2118
  677MOL0     C91304  -2.893  11.100  -0.067  0.2429  0.2124  0.4806
  677MOL0    Cl91305  -2.987  11.114  -0.220 -0.3790  0.3179 -0.3730
  677MOL0     C91306  -2.175  10.699  -0.412  0.0074 -0.6886 -0.0149
  677MOL0     C91307  -2.037  10.722  -0.435  0.3862 -0.2660  0.0226
  677MOL0     O91308  -1.824  10.922  -0.446 -0.3698 -0.5477 -0.2357
  677MOL0     C91309  -1.586  10.776  -0.638 -0.7867 -0.4632 -0.0351
  677MOL0     C91310  -1.450  10.777  -0.642 -0.8737  0.0424  0.4312
  677MOL0     N91311  -0.609  10.738  -0.293  0.5919  0.4617  0.9778
  677MOL0     N91312  -0.526  10.775  -0.207 -0.0427  0.1401 -0.5385
  677MOL0     C91313   0.521  11.074   0.186 -0.4564 -0.6092 -0.3076
  677MOL0     C91314   0.657  11.060   0.219 -0.5824  0.6514 -0.5148
  677MOL0     C91315   1.042  10.995   0.483  0.6022  0.1188 -0.5906
  677MOL0     C91316   1.116  11.025   0.601  0.2129  0.2564 -0.3475
  677MOL0     C91317   1.255  11.043   0.593  0.4520 -0.6772 -0.8380
  677MOL0     C91318   1.317  11.034   0.463 -0.8105  0.3994 -0.0941
  677MOL0     O91319   1.451  11.046   0.458 -0.6315 -0.7726 -0.2237
  677MOL0     C91320   1.509  11.108   0.339 -0.5212  0.6831 -0.4862
  677MOL0     C91321   1.634  11.190   0.380  0.0856  0.1870 -0.3115
  677MOL0     C91322   1.762  11.102   0.404  1.3069 -0.6424 -0.4326
  677MOL0     C91323   1.877  11.188   0.446  0.3479  0.3177 -0.5744
  677MOL0     C91324   2.003  11.118   0.474  0.1149  0.0221 -0.3159
  677MOL0     C91325   2.101  11.057   0.511  0.1849 -1.0092  0.2013
  677MOL0     C91326   1.249  11.003   0.345  1.1033  0.6035 -0.5711
  677MOL0     C91327   1.110  10.982   0.353 -0.2217  0.6454 -0.2236
  677MOL0     H91328   0.635  10.879   0.494 -2.0336  1.5664  2.1411
  677MOL0     H91329   0.398  10.893   0.436 -0.4567  2.0162  1.4056
  677MOL0     H91330   0.149  10.975   0.379 -0.0205 -1.5850 -1.7267
  677MOL0     H91331   0.254  11.126   0.401  0.7601 -1.9091 -0.8053
  677MOL0     H91332   0.022  11.212   0.339 -2.0804 -1.1142 -1.1293
  677MOL0     H91333   0.154  11.250   0.225 -2.4353  3.7273  0.3510
  677MOL0     H91334   0.074  11.037   0.091  1.1455  1.8092 -0.8460
  677MOL0     H91335  -0.049  11.026   0.214 -0.4519 -0.0196 -1.7248
  677MOL0     H91336  -0.128  11.243   0.159 -0.2581 -0.8760  1.0583
  677MOL0     H91337  -0.013  11.235   0.023 -1.1948  0.0905 -0.8045
  677MOL0     H91338  -0.130  11.017  -0.042  2.4699  0.6165  3.2828
  677MOL0     H91339  -0.251  11.052   0.081 -0.4886 -1.1055 -0.4571
  677MOL0     H91340  -0.352  11.222  -0.031 -0.1660 -1.9762  1.9403
  677MOL0     H91341  -0.207  11.240  -0.146  2.7257  0.3492  2.4972
  677MOL0     H91342  -0.400  11.142  -0.248 -0.1447  2.5207  3.2331
  677MOL0     H91343  -0.250  11.039  -0.238 -0.1750  0.1258 -0.8548
  677MOL0     H91344  -0.501  11.034  -0.050 -0.4964  0.2938 -1.6658
  677MOL0     H91345  -0.376  10.911  -0.056 -0.5423  0.5754  1.4262
  677MOL0     H91346  -0.637  11.049  -0.332  2.8416  0.5852  0.9409
  677MOL0     H91347  -0.758  10.889  -0.555  0.0043  1.4247  0.7045
  677MOL0     H91348  -0.761  10.719  -0.490  2.5377 -0.0096  1.1110
  677MOL0     H91349  -0.913  10.943  -0.362  2.7094  1.1317  1.2621
  677MOL0     H91350  -0.905  10.773  -0.308 -3.0029 -1.6562 -2.2409
  677MOL0     H91351  -0.985  10.686  -0.503 -0.9928 -0.5689  0.1862
  677MOL0     H91352  -1.002  10.846  -0.585 -0.6440  0.8673  0.0766
  677MOL0     H91353  -1.173  10.891  -0.403  0.1516  0.2429  0.3558
  677MOL0     H91354  -1.160  10.728  -0.345  0.1758 -0.0488  0.7558
  677MOL0     H91355  -1.372  10.797  -0.313 -0.0773 -0.2523 -0.8172
  677MOL0     H91356  -1.635  10.898  -0.220  0.6013  0.1964  0.0670
  677MOL0     H91357  -1.736  10.754  -0.257  0.0488 -0.8379 -0.3261
  677MOL0     H91358  -1.578  10.734  -0.188  3.9828  0.6183 -2.2287
  677MOL0     H91359  -2.000  10.683  -0.764 -0.1728 -1.5097  0.1706
  677MOL0     H91360  -2.260  10.631  -0.736  1.2791 -0.2600 -0.7695
  677MOL0     H91361  -2.447  10.782  -0.633 -0.5379  1.8560  1.0334
  677MOL0     H91362  -2.570  10.675  -0.593  0.2243 -0.3559  0.5392
  677MOL0     H91363  -2.435  10.881  -0.420 -0.7812  2.4387 -1.7313
  677MOL0     H91364  -2.589  10.895  -0.478  3.3568  0.8327 -4.8100
  677MOL0     H91365  -2.565  10.637  -0.324 -2.3712  0.1775 -0.8825
  677MOL0     H91366  -2.683  10.763  -0.322  0.3097 -0.2902  0.0850
  677MOL0     H91367  -2.549  10.721  -0.093 -0.0805  1.6885  0.6683
  677MOL0     H91368  -2.403  10.789  -0.174 -0.0353  0.9179  0.5319
  677MOL0     H91369  -2.483  10.995  -0.196  2.0823 -3.7427 -3.9711
  677MOL0     H91370  -2.530  10.947  -0.038 -0.6734  0.8845 -0.6078
  677MOL0     H91371  -2.724  11.008  -0.275 -1.2239 -1.7672  0.0089
  677MOL0     H91372  -2.753  10.877  -0.155 -1.6853  1.1413 -0.3125
  677MOL0     H91373  -2.689  11.188  -0.114  0.2836  0.6395  0.7805
  677MOL0     H91374  -2.696  11.070   0.018 -0.6268 -1.9186 -0.5986
  677MOL0     H91375  -2.914  11.178   0.007 -1.3191 -1.8157  2.2973
  677MOL0     H91376  -2.930  11.009  -0.019  0.1384  0.4760  0.9035
  677MOL0     H91377  -2.211  10.709  -0.310 -1.0288 -0.5179 -0.3840
  677MOL0     H91378  -1.968  10.738  -0.353  0.1805 -0.5145  0.2464
  677MOL0     H91379  -1.639  10.766  -0.732 -0.7020 -3.1346  0.1426
  677MOL0     H91380  -1.402  10.772  -0.739 -0.0816  2.3014  0.6404
  677MOL0     H91381   0.491  11.134   0.101  2.4853  2.1756  0.4116
  677MOL0     H91382   0.743  11.089   0.159  1.0814  0.3618  1.6257
  677MOL0     H91383   1.069  11.039   0.698 -1.1250 -2.8316 -0.4348
  677MOL0     H91384   1.310  11.064   0.685 -0.9769 -0.4779  0.0029
  677MOL0     H91385   1.524  11.034   0.260  1.5362  1.3079 -0.7443
  677MOL0     H91386   1.438  11.181   0.300 -1.8637  0.9482  2.2472
  677MOL0     H91387   1.612  11.258   0.463 -1.5661  0.3107 -0.7995
  677MOL0     H91388   1.663  11.258   0.300 -0.2158  0.0852 -0.5097
  677MOL0     H91389   1.778  11.052   0.308 -2.4852  0.3971 -1.7877
  677MOL0     H91390   1.741  11.035   0.488  3.1229  0.8276  1.3041
  677MOL0     H91391   1.845  11.246   0.533 -2.7683 -1.7484 -0.2020
  677MOL0     H91392   1.896  11.262   0.368  0.2533  1.8392  0.7858
  677MOL0     H91393   2.198  11.013   0.526  0.6883  0.0634  0.2575
  677MOL0     H91394   1.290  10.992   0.245 -0.4153 -3.5200 -0.9093
  677MOL0     H91395   1.053  10.967   0.262 -0.9970  1.2066  0.1534
  678MOL0     O91396   9.845   3.825   8.972  0.3943  0.8230 -0.5251
  678MOL0     C91397   9.965   3.845   8.963 -0.0308  1.1733  0.7781
  678MOL0     O91398  10.017   3.929   8.872  0.0413 -0.2900  0.8016
  678MOL0     C91399   9.939   3.991   8.769  0.1174  0.1159 -1.3683
  678MOL0     C91400   9.926   4.133   8.767 -0.4800  0.3688  0.4966
  678MOL0     C91401   9.855   4.197   8.664 -0.1375  0.1330  0.2552
  678MOL0     C91402   9.774   4.117   8.582  0.2567  0.0743 -0.5445
  678MOL0     O91403   9.689   4.193   8.498  0.4922  0.5046  0.7137
  678MOL0     C91404   9.655   4.123   8.372  0.4694 -0.3337  0.5550
  678MOL0     C91405   9.590   4.238   8.277 -0.6635 -0.5983 -0.6230
  678MOL0     C91406   9.543   4.172   8.146  0.2468 -0.5631  0.2240
  678MOL0     C91407   9.405   4.107   8.176  0.1875  0.1723 -0.0465
  678MOL0     C91408   9.316   4.118   8.044 -0.1893 -0.5034  0.2892
  678MOL0     C91409   9.173   4.066   8.066 -0.5371 -0.3922  0.0982
  678MOL0     C91410   9.090   4.108   7.941  0.1265 -0.5462  1.2803
  678MOL0     C91411   9.096   4.008   7.824 -0.4191  0.0989 -0.5799
  678MOL0     N91412   9.040   4.066   7.698 -0.4005 -0.2885  0.0379
  678MOL0     C91413   8.919   4.132   7.691  0.2290  0.2538  0.1518
  678MOL0     C91414   8.888   4.150   7.560 -1.2566  0.1968  1.1419
  678MOL0     C91415   8.775   4.221   7.498 -0.4796 -0.1251 -0.1137
  678MOL0     C91416   8.818   4.309   7.376 -0.0262  0.0398 -0.1062
  678MOL0     C91417   8.919   4.420   7.416 -0.0431  0.5666 -0.0908
  678MOL0     C91418   8.894   4.535   7.321  0.5306 -0.2150  0.3185
  678MOL0     O91419   8.772   4.606   7.362  0.5751  0.2356  0.0954
  678MOL0     C91420   8.693   4.655   7.264  0.0352  0.2352 -0.8376
  678MOL0     C91421   8.747   4.711   7.143 -0.1804  0.9166 -0.1553
  678MOL0     C91422   8.648   4.757   7.044  0.2021 -0.9508  0.4495
  678MOL0     C91423   8.694   4.831   6.920 -0.0469 -0.0194 -0.1337
  678MOL0     C91424   8.511   4.745   7.071 -0.7004  0.2154 -1.0361
  678MOL0     C91425   8.407   4.790   6.981 -0.7768 -0.0182  0.9489
  678MOL0     O91426   8.388   4.704   6.872 -0.0560  0.2539 -0.1111
  678MOL0     C91427   8.302   4.750   6.781 -0.1658 -0.9553 -0.0404
  678MOL0     C91428   8.163   4.722   6.789 -0.6541 -0.0051 -0.5292
  678MOL0     C91429   8.080   4.766   6.688  0.1455  0.3719 -0.6320
  678MOL0     C91430   8.135   4.838   6.578  0.4255  0.5494  0.5871
  678MOL0     O91431   8.042   4.876   6.475  0.5352 -0.7735  0.3464
  678MOL0     C91432   8.095   4.904   6.345 -0.5518  0.1186 -0.0716
  678MOL0     C91433   7.999   4.870   6.235 -0.0512 -0.0673  0.5627
  678MOL0     C91434   7.861   4.940   6.257 -0.8332 -1.0911  0.1711
  678MOL0     C91435   7.737   4.858   6.229 -0.1838  0.8452 -0.3675
  678MOL0     C91436   7.622   4.941   6.214  0.4328  0.1499  0.0405
  678MOL0     C91437   7.505   4.844   6.189 -0.0685 -0.5999  0.4697
  678MOL0     C91438   7.370   4.919   6.204 -0.1746  0.2194 -0.7624
  678MOL0     C91439   7.256   4.815   6.212 -0.6129  0.2846  1.1330
  678MOL0    Cl91440   7.105   4.914   6.185  0.4303 -0.3309 -0.4464
  678MOL0     C91441   8.269   4.866   6.566  0.5764  0.5259 -0.6403
  678MOL0     C91442   8.351   4.814   6.668  0.5351  1.0589 -0.4495
  678MOL0     O91443   8.347   4.894   7.003  0.0430  0.0477 -0.6724
  678MOL0     C91444   8.466   4.687   7.192  0.0106 -0.2524 -0.4676
  678MOL0     C91445   8.556   4.645   7.285  0.0971  0.4680 -0.3837
  678MOL0     N91446   9.004   4.110   7.494 -0.0252 -0.0136  0.5016
  678MOL0     N91447   9.086   4.051   7.577 -1.0311 -0.4589  0.2414
  678MOL0     C91448   9.782   3.980   8.586 -0.5764  1.0096  0.1116
  678MOL0     C91449   9.878   3.916   8.666  0.3733 -0.4587 -0.4330
  678MOL0     C91450  10.059   3.759   9.041  0.1818 -0.3154 -0.1296
  678MOL0     C91451  10.007   3.658   9.123 -0.1797  0.0774  1.3562
  678MOL0     C91452  10.083   3.573   9.200 -0.2417 -0.5663  0.4608
  678MOL0     C91453  10.219   3.597   9.197 -0.3843  0.2938  0.6038
  678MOL0     O91454  10.308   3.513   9.257 -0.3557 -0.1427  0.7744
  678MOL0     C91455  10.277   3.418   9.355  0.0598  0.6961  0.1114
  678MOL0     C91456  10.388   3.332   9.403 -0.8036  0.4954  0.4203
  678MOL0     C91457  10.331   3.225   9.498  0.4325 -0.3529 -1.1395
  678MOL0     C91458  10.435   3.158   9.596  0.3185 -0.0673  0.5320
  678MOL0     C91459  10.559   3.133   9.524 -0.6224  1.0904 -0.5692
  678MOL0     C91460  10.663   3.102   9.456  0.1985 -0.7289 -0.8488
  678MOL0     C91461  10.276   3.692   9.115  0.9421  0.4124  0.4644
  678MOL0     C91462  10.194   3.773   9.036  0.3926 -0.6302  0.2433
  678MOL0     H91463   9.965   4.195   8.847  1.0183 -1.3445  1.1637
  678MOL0     H91464   9.852   4.305   8.655  3.6896  0.2487 -2.3004
  678MOL0     H91465   9.749   4.088   8.327 -0.3639  0.4251 -1.9742
  678MOL0     H91466   9.584   4.044   8.396  1.1525 -1.3963 -0.8072
  678MOL0     H91467   9.511   4.291   8.331  1.1121  0.0200  1.4939
  678MOL0     H91468   9.660   4.319   8.257 -2.4751  0.6978 -2.1553
  678MOL0     H91469   9.533   4.255   8.075  1.1693 -0.0575  0.6632
  678MOL0     H91470   9.619   4.105   8.104  0.8160  1.0529 -1.4679
  678MOL0     H91471   9.428   4.002   8.197 -0.0020 -0.3517 -2.2934
  678MOL0     H91472   9.359   4.152   8.265  0.2896  1.4194 -0.5941
  678MOL0     H91473   9.319   4.225   8.021 -1.1367 -0.6185 -0.3952
  678MOL0     H91474   9.364   4.056   7.968 -1.1403 -2.1574  0.9987
  678MOL0     H91475   9.158   3.959   8.083  1.7643 -0.8883 -0.6947
  678MOL0     H91476   9.132   4.113   8.157  0.2240 -1.4028  0.9904
  678MOL0     H91477   8.988   4.108   7.980 -1.2141  0.4896 -1.9205
  678MOL0     H91478   9.115   4.212   7.918  1.2143 -0.7852  1.3209
  678MOL0     H91479   9.044   3.917   7.855 -2.7026  2.0866  1.9996
  678MOL0     H91480   9.202   3.981   7.819  0.0831  1.7149  0.6183
  678MOL0     H91481   8.853   4.166   7.769 -1.4314  0.1731 -1.1550
  678MOL0     H91482   8.698   4.151   7.463 -0.2233 -1.3043  1.5465
  678MOL0     H91483   8.726   4.271   7.582 -0.9062 -0.4233 -0.1787
  678MOL0     H91484   8.723   4.352   7.342  0.4073  2.0656  1.0522
  678MOL0     H91485   8.863   4.249   7.297  1.5353  0.8141  0.1506
  678MOL0     H91486   9.020   4.385   7.395  0.8312  2.5595  0.5845
  678MOL0     H91487   8.894   4.453   7.517  0.1146 -0.0666  0.1584
  678MOL0     H91488   8.899   4.498   7.218 -0.4859  0.6363 -0.0519
  678MOL0     H91489   8.982   4.599   7.331  2.0815 -2.1527 -0.2331
  678MOL0     H91490   8.853   4.732   7.128 -0.2473  0.3231 -1.7082
  678MOL0     H91491   8.653   4.932   6.931  0.5219 -0.0472  3.3011
  678MOL0     H91492   8.803   4.834   6.908 -0.3161 -0.2430 -3.5298
  678MOL0     H91493   8.671   4.780   6.826  0.9736 -0.5193 -0.1217
  678MOL0     H91494   8.132   4.658   6.871  2.8051 -3.0839 -1.3727
  678MOL0     H91495   7.974   4.745   6.681  0.0389  0.3176  0.8179
  678MOL0     H91496   8.119   5.010   6.341 -0.4235  0.1311  0.9117
  678MOL0     H91497   8.177   4.833   6.330  0.6888  1.4669  0.1506
  678MOL0     H91498   8.038   4.893   6.136 -1.5269  1.8805  0.3700
  678MOL0     H91499   7.983   4.762   6.243  0.3001 -0.2351 -0.8484
  678MOL0     H91500   7.864   5.030   6.196 -3.2152  0.8967  2.7407
  678MOL0     H91501   7.853   4.992   6.353 -0.7708 -0.9593  0.1049
  678MOL0     H91502   7.734   4.804   6.133 -3.8499 -2.6683  1.4172
  678MOL0     H91503   7.716   4.781   6.304 -1.9001  1.9740  0.3439
  678MOL0     H91504   7.642   5.008   6.129  1.0425 -0.6846 -0.4935
  678MOL0     H91505   7.615   4.992   6.310  3.6350 -2.4560  1.8420
  678MOL0     H91506   7.519   4.810   6.086 -0.4097 -1.6293  0.7425
  678MOL0     H91507   7.513   4.755   6.253 -1.0922 -1.4572 -0.5335
  678MOL0     H91508   7.357   4.991   6.123 -1.8338 -0.2459 -0.9505
  678MOL0     H91509   7.361   4.977   6.296 -1.1570 -0.5825 -0.3347
  678MOL0     H91510   7.263   4.774   6.313  1.2630 -0.1752  0.8588
  678MOL0     H91511   7.264   4.735   6.138  1.0638 -0.1376  1.7160
  678MOL0     H91512   8.318   4.928   6.491  2.1000 -3.2999 -3.1012
  678MOL0     H91513   8.458   4.828   6.656  0.4468  2.0225 -0.2333
  678MOL0     H91514   8.360   4.673   7.208 -0.2997  0.7249 -1.4973
  678MOL0     H91515   8.518   4.604   7.379  0.2705 -0.5715 -0.7531
  678MOL0     H91516   9.740   3.913   8.512  1.7122 -1.5346  0.9366
  678MOL0     H91517   9.895   3.810   8.656  0.6232 -0.7841  2.6045
  678MOL0     H91518   9.901   3.638   9.117 -0.3588  1.2124  0.2450
  678MOL0     H91519  10.030   3.491   9.246 -0.3277 -1.2093 -0.7369
  678MOL0     H91520  10.220   3.466   9.436  0.3734  1.5863 -0.1853
  678MOL0     H91521  10.202   3.349   9.314 -1.8143  2.1567  0.9167
  678MOL0     H91522  10.469   3.397   9.438  1.3741 -0.8764 -1.7651
  678MOL0     H91523  10.423   3.273   9.318 -0.4905 -1.3516  1.7768
  678MOL0     H91524  10.289   3.149   9.431  0.4229  2.4102 -4.5534
  678MOL0     H91525  10.249   3.271   9.554  1.3581 -0.8623  0.7153
  678MOL0     H91526  10.400   3.066   9.644 -0.7771 -0.8955 -1.7277
  678MOL0     H91527  10.446   3.229   9.678  0.0442  2.4646 -1.5051
  678MOL0     H91528  10.749   3.107   9.393  2.7936  3.9025  2.4056
  678MOL0     H91529  10.384   3.698   9.104  1.2661 -0.8917  2.3968
  678MOL0     H91530  10.251   3.845   8.979 -0.3138 -0.7706 -0.6568
  679MOL0     O91531   8.699   6.116   0.250  0.3395 -0.1384 -0.1164
  679MOL0     C91532   8.705   6.006   0.211  0.1874 -0.0627  1.0579
  679MOL0     O91533   8.602   5.942   0.147 -0.7333 -0.7048  0.0743
  679MOL0     C91534   8.472   5.989   0.152 -0.3773 -0.6029 -0.0583
  679MOL0     C91535   8.413   6.049   0.263 -0.0248 -0.2381 -0.7680
  679MOL0     C91536   8.275   6.087   0.259 -0.4085  1.1537 -0.3696
  679MOL0     C91537   8.206   6.073   0.137  0.9379  0.5820  0.3106
  679MOL0     O91538   8.075   6.120   0.130  0.1023  0.0497  0.1744
  679MOL0     C91539   7.974   6.031   0.067 -0.4178 -0.0456 -0.0956
  679MOL0     C91540   7.837   6.101   0.079  0.4952 -0.8256 -0.3581
  679MOL0     C91541   7.725   6.005   0.061 -0.0210 -0.3400  0.0664
  679MOL0     C91542   7.596   6.087   0.032 -0.8161 -0.2342 -0.1406
  679MOL0     C91543   7.468   6.009  -0.001 -0.4734 -0.3213 -0.2405
  679MOL0     C91544   7.347   6.103  -0.024  0.0417 -0.6652 -0.2001
  679MOL0     C91545   7.218   6.016  -0.051  0.1015 -0.4691 -0.0981
  679MOL0     C91546   7.207   5.948  -0.189  0.0029  0.2768  0.6237
  679MOL0     N91547   7.071   5.914  -0.228  0.1923 -0.6243 -0.6300
  679MOL0     C91548   6.995   5.998  -0.296  0.0754 -0.2706 -0.0060
  679MOL0     C91549   6.870   5.959  -0.260  0.6517  0.3212 -0.9257
  679MOL0     C91550   6.739   6.028  -0.276  0.7313  0.4788 -0.4271
  679MOL0     C91551   6.708   6.127  -0.155  0.2079  1.1173 -0.2424
  679MOL0     C91552   6.654   6.266  -0.195  0.1121  0.5861  0.2223
  679MOL0     C91553   6.500   6.286  -0.189  0.6379 -0.9142  0.0339
  679MOL0     O91554   6.435   6.180  -0.248 -0.5550  0.2376  0.2527
  679MOL0     C91555   6.299   6.176  -0.246 -0.3067  0.0192  0.5601
  679MOL0     C91556   6.239   6.056  -0.284 -0.0080 -0.0866 -0.8996
  679MOL0     C91557   6.100   6.037  -0.274  0.5901 -0.7074  0.1041
  679MOL0     C91558   6.059   5.897  -0.299 -0.0438 -0.3030 -0.3967
  679MOL0     C91559   6.020   6.143  -0.219 -0.2703 -0.7748  0.3902
  679MOL0     C91560   5.870   6.128  -0.191  0.7610 -0.5360 -0.2577
  679MOL0     O91561   5.830   6.214  -0.087 -0.1349  0.0631  0.2873
  679MOL0     C91562   5.695   6.223  -0.069 -0.2710 -0.8193  0.0225
  679MOL0     C91563   5.605   6.294  -0.156  0.5488 -0.5099 -0.2829
  679MOL0     C91564   5.466   6.290  -0.140  0.2654  0.5535  1.1232
  679MOL0     C91565   5.406   6.217  -0.034  0.7282 -0.4127  0.1646
  679MOL0     O91566   5.270   6.210  -0.023  0.4685  1.0555  1.2609
  679MOL0     C91567   5.212   6.152   0.093 -0.4812  0.3362  0.3231
  679MOL0     C91568   5.064   6.155   0.089  1.7521  0.0620 -0.6343
  679MOL0     C91569   4.997   6.059   0.190 -0.6299  0.1632 -0.8307
  679MOL0     C91570   4.850   6.027   0.154 -0.1358 -0.2628 -0.1855
  679MOL0     C91571   4.765   5.953   0.253  0.8934  0.0401  0.2412
  679MOL0     C91572   4.619   5.927   0.203 -0.1971  0.4351 -0.0178
  679MOL0     C91573   4.545   6.061   0.185  0.2018  0.6028  0.0966
  679MOL0     C91574   4.419   6.026   0.105  0.8246  0.2562  0.2562
  679MOL0    Cl91575   4.296   5.949   0.210 -0.6547 -0.4051  0.3770
  679MOL0     C91576   5.496   6.160   0.057  0.6446  0.1806 -0.7185
  679MOL0     C91577   5.635   6.165   0.042 -0.1747  0.6071  0.1078
  679MOL0     O91578   5.804   6.038  -0.241  0.7596  0.1459 -0.1496
  679MOL0     C91579   6.080   6.257  -0.170 -0.5804  0.5569 -0.4509
  679MOL0     C91580   6.217   6.275  -0.177 -0.8864  0.3448  1.3774
  679MOL0     N91581   6.872   5.851  -0.174 -0.2227  0.0989  0.4838
  679MOL0     N91582   6.996   5.827  -0.152 -0.3686 -0.2920  0.2820
  679MOL0     C91583   8.266   6.012   0.023 -0.3434  0.0964 -0.7195
  679MOL0     C91584   8.397   5.968   0.037 -0.5084 -0.2531  0.3192
  679MOL0     C91585   8.841   5.955   0.212 -1.0364  0.1958  0.0225
  679MOL0     C91586   8.950   6.018   0.283 -0.2302 -0.5841 -0.5034
  679MOL0     C91587   9.079   5.948   0.297  0.3168  0.1766 -0.4401
  679MOL0     C91588   9.085   5.821   0.246 -0.0423 -0.7619 -0.2003
  679MOL0     O91589   9.205   5.761   0.271  0.6790  0.5203  0.0654
  679MOL0     C91590   9.228   5.619   0.270  0.2567 -0.0419 -0.2868
  679MOL0     C91591   9.375   5.599   0.297 -0.3674  0.0239 -0.1877
  679MOL0     C91592   9.469   5.680   0.201  0.7196  0.5385 -0.0579
  679MOL0     C91593   9.620   5.655   0.252  0.4935  0.0640  0.5905
  679MOL0     C91594   9.708   5.747   0.177  0.1247 -0.3000 -0.0868
  679MOL0     C91595   9.784   5.827   0.120  0.4384  0.0897  0.0275
  679MOL0     C91596   8.990   5.767   0.174 -0.1149  0.5347 -0.0756
  679MOL0     C91597   8.862   5.827   0.160  0.8044  0.3526  0.3511
  679MOL0     H91598   8.469   6.053   0.356 -1.7314  0.6247  0.2710
  679MOL0     H91599   8.222   6.133   0.342 -1.8673 -1.0259 -0.0072
  679MOL0     H91600   7.998   5.988  -0.031  0.7208 -0.6456  0.4252
  679MOL0     H91601   7.984   5.944   0.134  3.1354 -0.4014 -0.8457
  679MOL0     H91602   7.812   6.148   0.174  1.6802 -1.5592  0.3452
  679MOL0     H91603   7.828   6.179   0.002 -1.0062  0.2447  0.8482
  679MOL0     H91604   7.752   5.947  -0.027 -0.9896  1.4156 -1.4352
  679MOL0     H91605   7.712   5.938   0.147 -0.4329 -1.6307 -0.9725
  679MOL0     H91606   7.580   6.130   0.131  0.3299  2.4856 -1.0559
  679MOL0     H91607   7.612   6.167  -0.040 -0.7575  1.4251  1.6325
  679MOL0     H91608   7.488   5.949  -0.091  2.5563  1.2799 -0.7529
  679MOL0     H91609   7.448   5.949   0.088 -1.2847  0.1069 -0.1193
  679MOL0     H91610   7.338   6.170   0.062 -0.1941 -0.3513 -0.4673
  679MOL0     H91611   7.371   6.166  -0.111 -1.7360  0.0875 -0.1911
  679MOL0     H91612   7.196   5.947   0.030 -1.0074  0.3448  0.3291
  679MOL0     H91613   7.137   6.090  -0.056  0.7923  0.3612  0.5693
  679MOL0     H91614   7.266   5.857  -0.182  3.3977  2.0034 -2.1023
  679MOL0     H91615   7.250   6.012  -0.267 -0.2357 -1.2469 -0.7960
  679MOL0     H91616   7.027   6.090  -0.344  0.9785  1.2115  3.1809
  679MOL0     H91617   6.743   6.077  -0.374  1.9846 -1.5919 -1.4850
  679MOL0     H91618   6.664   5.948  -0.285 -0.1566  1.1851  0.5148
  679MOL0     H91619   6.798   6.129  -0.092 -0.0146 -4.1237  0.7024
  679MOL0     H91620   6.632   6.076  -0.095  0.4154  0.4045 -0.5653
  679MOL0     H91621   6.683   6.285  -0.299  0.2017  3.6681  0.7192
  679MOL0     H91622   6.713   6.332  -0.132  3.4671  0.7373 -2.7716
  679MOL0     H91623   6.474   6.382  -0.234  1.5296 -0.4512  0.4722
  679MOL0     H91624   6.472   6.299  -0.084 -1.1525  0.1081 -0.5503
  679MOL0     H91625   6.299   5.973  -0.320  1.2930  0.6727 -0.5433
  679MOL0     H91626   5.981   5.887  -0.376  0.4921 -0.7198 -0.9010
  679MOL0     H91627   6.138   5.826  -0.325 -0.7128 -1.1460 -0.1688
  679MOL0     H91628   6.018   5.852  -0.209 -2.0862  0.4204 -0.9121
  679MOL0     H91629   5.643   6.352  -0.239 -0.7948  1.1583  0.2011
  679MOL0     H91630   5.404   6.339  -0.215  0.7166 -1.8864 -0.9488
  679MOL0     H91631   5.244   6.047   0.085 -1.3493 -0.4335  4.6083
  679MOL0     H91632   5.256   6.187   0.187  2.8773 -0.7186 -0.7263
  679MOL0     H91633   5.023   6.256   0.080  2.1025  0.1442 -1.4878
  679MOL0     H91634   5.039   6.113  -0.009 -0.6849  2.0256 -0.9678
  679MOL0     H91635   5.006   6.110   0.286  1.1652 -0.9061 -0.3805
  679MOL0     H91636   5.057   5.967   0.192 -1.3233 -0.2820  1.0666
  679MOL0     H91637   4.805   6.121   0.124  0.6254  0.6876  1.5070
  679MOL0     H91638   4.853   5.967   0.062  0.5398 -0.5871  0.0355
  679MOL0     H91639   4.748   6.010   0.345 -2.4943 -0.8267  0.3040
  679MOL0     H91640   4.810   5.856   0.279 -0.7813 -1.3618 -1.7977
  679MOL0     H91641   4.619   5.869   0.110 -1.9091 -2.5337  1.6999
  679MOL0     H91642   4.572   5.872   0.284 -0.1481 -1.1470 -1.0278
  679MOL0     H91643   4.603   6.130   0.123 -0.5836  1.7687  0.6145
  679MOL0     H91644   4.525   6.121   0.274 -1.7202  1.1795 -0.6631
  679MOL0     H91645   4.442   5.957   0.023  0.5005 -0.3327  0.6459
  679MOL0     H91646   4.372   6.118   0.068 -0.3918 -0.1178  0.8045
  679MOL0     H91647   5.446   6.106   0.137 -0.9043  2.1227 -0.2827
  679MOL0     H91648   5.690   6.118   0.123 -1.8020 -0.8014  0.4685
  679MOL0     H91649   6.025   6.337  -0.119 -1.7779 -0.8835  0.6041
  679MOL0     H91650   6.267   6.368  -0.155  0.0830  0.0891  0.3944
  679MOL0     H91651   8.207   5.997  -0.066 -0.0812 -0.4904 -0.8017
  679MOL0     H91652   8.442   5.928  -0.053  1.7013 -0.2497  1.3588
  679MOL0     H91653   8.939   6.111   0.338  0.2258  0.2906 -1.8542
  679MOL0     H91654   9.160   5.984   0.359  0.0140  2.2142 -1.1494
  679MOL0     H91655   9.172   5.567   0.349  1.9387 -0.4507  0.6774
  679MOL0     H91656   9.197   5.580   0.173 -1.3653  0.9699 -0.2156
  679MOL0     H91657   9.396   5.491   0.301  0.4918  0.1502 -0.9098
  679MOL0     H91658   9.400   5.634   0.397  1.4048 -0.8023 -0.3014
  679MOL0     H91659   9.443   5.787   0.199  0.6682  0.5442  0.6083
  679MOL0     H91660   9.468   5.638   0.100  4.0831  3.0392 -1.3363
  679MOL0     H91661   9.662   5.555   0.244 -0.2497 -0.6891  4.1177
  679MOL0     H91662   9.615   5.682   0.358 -1.2489 -0.5432  0.6933
  679MOL0     H91663   9.853   5.891   0.068 -0.0502  0.4037 -0.2413
  679MOL0     H91664   9.001   5.670   0.126 -0.7482  0.2446  0.3569
  679MOL0     H91665   8.790   5.782   0.092  0.0595  1.8620  0.1191
  680MOL0     O91666   3.417   0.235   9.321 -0.5432  0.2717  0.0622
  680MOL0     C91667   3.418   0.352   9.357  0.0891  1.0155  0.4841
  680MOL0     O91668   3.309   0.420   9.416  0.1596 -0.4374  0.6525
  680MOL0     C91669   3.202   0.350   9.455 -0.4385  0.2574  0.2090
  680MOL0     C91670   3.081   0.394   9.417 -0.3709  0.8877 -0.8381
  680MOL0     C91671   2.963   0.319   9.456  1.0860 -0.5373 -0.6860
  680MOL0     C91672   2.980   0.194   9.514  0.0806 -0.1003 -0.7587
  680MOL0     O91673   2.855   0.132   9.531  0.1931  0.6147  0.6250
  680MOL0     C91674   2.854   0.004   9.600 -0.1909  0.3338 -0.2643
  680MOL0     C91675   2.726  -0.082   9.587  0.1091  0.4027  0.3301
  680MOL0     C91676   2.625  -0.057   9.702 -0.3169  0.1876  0.2330
  680MOL0     C91677   2.488  -0.116   9.651 -0.3262 -0.1706 -0.2064
  680MOL0     C91678   2.398  -0.163   9.769  0.4581  0.6089 -0.2261
  680MOL0     C91679   2.428  -0.310   9.815 -0.0838 -1.5714  0.1370
  680MOL0     C91680   2.354  -0.355   9.938  0.3093  0.1396 -0.0446
  680MOL0     C91681   2.222  -0.418   9.891 -0.3998 -0.2622  0.3519
  680MOL0     N91682   2.156  -0.473  10.014  0.1577  0.1043  0.7409
  680MOL0     C91683   2.063  -0.404  10.096  0.1674 -0.4705  0.5070
  680MOL0     C91684   2.063  -0.470  10.216  1.0142 -0.1751 -0.6797
  680MOL0     C91685   1.976  -0.445  10.340  0.2628  0.0713  0.3365
  680MOL0     C91686   1.835  -0.400  10.310  0.1973  0.1347 -0.3538
  680MOL0     C91687   1.774  -0.343  10.436 -0.2574  0.1761 -0.5773
  680MOL0     C91688   1.622  -0.317  10.413  0.0072 -0.2673 -1.1866
  680MOL0     O91689   1.597  -0.191  10.346 -0.1881  0.1583  0.4518
  680MOL0     C91690   1.470  -0.170  10.297 -0.1143 -0.8760 -0.4850
  680MOL0     C91691   1.448  -0.070  10.195 -0.2511  0.2842  0.5479
  680MOL0     C91692   1.320  -0.063  10.139  0.5564 -0.0957 -1.2909
  680MOL0     C91693   1.301   0.021  10.012  0.3265  0.3314 -0.4362
  680MOL0     C91694   1.210  -0.127  10.209  0.9070 -0.1751  0.8264
  680MOL0     C91695   1.067  -0.115  10.157  1.2733  0.4511  0.4313
  680MOL0     O91696   0.988  -0.227  10.186 -0.1318 -0.0025 -0.5213
  680MOL0     C91697   0.853  -0.225  10.152  0.6497  0.1312  0.8801
  680MOL0     C91698   0.804  -0.172  10.035  0.0047 -0.2678 -0.2245
  680MOL0     C91699   0.667  -0.177   9.995  0.1771  0.9448 -0.1607
  680MOL0     C91700   0.574  -0.214  10.092 -0.3971  0.0857  0.6028
  680MOL0     O91701   0.445  -0.233  10.063 -0.0698 -0.1138 -0.2191
  680MOL0     C91702   0.361  -0.117  10.097  0.6345  0.0416 -0.8773
  680MOL0     C91703   0.243  -0.120  10.009  0.8390 -0.0252 -0.1535
  680MOL0     C91704   0.191  -0.265   9.998 -0.0725  0.5931 -0.4859
  680MOL0     C91705   0.041  -0.263   9.958 -0.2293  0.3317  0.5139
  680MOL0     C91706  -0.056  -0.195  10.054  0.0788 -0.8688  0.0635
  680MOL0     C91707  -0.094  -0.290  10.178 -0.4327 -0.9307 -0.3383
  680MOL0     C91708  -0.151  -0.208  10.294 -0.1599  0.1917 -0.6220
  680MOL0     C91709  -0.101  -0.248  10.438  0.6165 -0.5090  0.6079
  680MOL0    Cl91710  -0.203  -0.173  10.566 -0.1196  0.0267  0.2941
  680MOL0     C91711   0.623  -0.253  10.218 -0.3034  0.0185  0.0417
  680MOL0     C91712   0.761  -0.260  10.244 -0.5301  1.0484  0.1127
  680MOL0     O91713   1.028  -0.011  10.098  0.0808  0.5067 -0.1084
  680MOL0     C91714   1.230  -0.213  10.317  0.2042  0.2686 -0.4549
  680MOL0     C91715   1.354  -0.241  10.351  0.0702 -0.6836 -0.6908
  680MOL0     N91716   2.155  -0.574  10.211 -0.2305 -0.4280 -0.5781
  680MOL0     N91717   2.198  -0.581  10.088 -0.7944  0.2043 -0.3358
  680MOL0     C91718   3.106   0.147   9.553  0.5422 -0.0678 -1.0926
  680MOL0     C91719   3.213   0.223   9.518  0.7645  0.6916  0.4541
  680MOL0     C91720   3.536   0.425   9.328  0.3119  0.5052 -0.5042
  680MOL0     C91721   3.542   0.562   9.349 -0.4310  0.3186 -0.4486
  680MOL0     C91722   3.669   0.626   9.338 -0.3678  0.6360 -0.0967
  680MOL0     C91723   3.783   0.569   9.272 -0.3333 -0.2825  0.3029
  680MOL0     O91724   3.906   0.624   9.236 -0.3328  0.4329 -1.1287
  680MOL0     C91725   3.912   0.761   9.274 -0.4694  0.3894 -0.2989
  680MOL0     C91726   4.049   0.814   9.256  0.2591 -0.2629 -0.1304
  680MOL0     C91727   4.111   0.807   9.118  0.0070  0.1656  1.0552
  680MOL0     C91728   4.256   0.868   9.100  0.1534  0.7292  0.6110
  680MOL0     C91729   4.301   0.858   8.959 -0.7901  0.3883  0.2486
  680MOL0     C91730   4.335   0.866   8.838  0.3516 -0.1616 -1.1291
  680MOL0     C91731   3.773   0.432   9.243 -0.0232  0.0523  0.0734
  680MOL0     C91732   3.652   0.365   9.270  0.1933 -0.0543  0.2759
  680MOL0     H91733   3.062   0.490   9.371 -1.6652  1.4359  0.7762
  680MOL0     H91734   2.863   0.355   9.434 -0.1531 -1.5647  2.6404
  680MOL0     H91735   2.937  -0.055   9.559  1.1989  3.5872 -2.5036
  680MOL0     H91736   2.892   0.022   9.701 -1.2890  2.4879 -0.1755
  680MOL0     H91737   2.676  -0.062   9.492  0.9944 -1.4405 -0.5788
  680MOL0     H91738   2.750  -0.188   9.586  1.0676  0.6055 -0.9409
  680MOL0     H91739   2.669  -0.114   9.784 -0.0904 -0.7675 -0.5362
  680MOL0     H91740   2.607   0.048   9.726  0.7425  0.6915 -1.0921
  680MOL0     H91741   2.447  -0.055   9.569  0.9213  0.0595 -0.6841
  680MOL0     H91742   2.504  -0.213   9.602 -0.6157  0.1692 -0.9915
  680MOL0     H91743   2.428  -0.106   9.857  1.3142 -1.3356  0.8080
  680MOL0     H91744   2.289  -0.165   9.757  0.2998 -3.7388  0.4275
  680MOL0     H91745   2.417  -0.381   9.733  1.4434 -1.6841  0.0076
  680MOL0     H91746   2.534  -0.318   9.840 -0.3590 -3.1485  0.9156
  680MOL0     H91747   2.419  -0.423   9.994  2.1446  2.6073  1.0112
  680MOL0     H91748   2.343  -0.264   9.997  1.2038  1.6309 -2.0632
  680MOL0     H91749   2.248  -0.500   9.823  2.2708  0.7624  0.0251
  680MOL0     H91750   2.160  -0.340   9.846  0.5567  0.9245  1.0410
  680MOL0     H91751   2.010  -0.314  10.068 -0.2948 -0.6908  0.6578
  680MOL0     H91752   1.971  -0.539  10.395  0.8729 -2.9511 -4.2074
  680MOL0     H91753   2.025  -0.366  10.398 -0.6783  0.5597  0.4752
  680MOL0     H91754   1.777  -0.487  10.279  1.6087 -0.7536 -0.5707
  680MOL0     H91755   1.837  -0.330  10.226 -2.0473  2.4409  1.3505
  680MOL0     H91756   1.820  -0.254  10.479  0.1888 -1.4876  2.6955
  680MOL0     H91757   1.773  -0.402  10.527  0.4881  0.6176 -0.2788
  680MOL0     H91758   1.576  -0.310  10.512  3.2399  3.0233  0.3643
  680MOL0     H91759   1.570  -0.391  10.352 -2.4437 -0.9087  1.4862
  680MOL0     H91760   1.532  -0.021  10.147 -1.7391  2.7227  0.2709
  680MOL0     H91761   1.224  -0.019   9.945 -1.5552  0.0049  1.7540
  680MOL0     H91762   1.264   0.119  10.044  0.5345  1.4313 -3.3048
  680MOL0     H91763   1.396   0.025   9.959  0.9438 -3.1942  0.1604
  680MOL0     H91764   0.877  -0.138   9.962 -0.1387 -0.3319 -0.4011
  680MOL0     H91765   0.631  -0.148   9.896 -0.7097  0.8228  0.1185
  680MOL0     H91766   0.338  -0.127  10.203 -3.7680 -0.7907 -1.7128
  680MOL0     H91767   0.414  -0.021  10.091  0.3474  0.2228 -0.5241
  680MOL0     H91768   0.170  -0.045  10.042 -0.4542 -1.6492  0.8022
  680MOL0     H91769   0.282  -0.087   9.912 -0.0212 -1.9408 -1.2046
  680MOL0     H91770   0.202  -0.314  10.096 -1.9162  1.8590  0.4278
  680MOL0     H91771   0.248  -0.311   9.918  0.8081  1.8033 -0.5738
  680MOL0     H91772   0.051  -0.212   9.862  0.8062 -1.6928 -0.5106
  680MOL0     H91773   0.006  -0.363   9.932 -0.0658  1.1633 -3.6458
  680MOL0     H91774  -0.150  -0.184   9.998 -1.8547  1.0483  3.3573
  680MOL0     H91775  -0.032  -0.094  10.089  0.4790 -1.3523  1.2304
  680MOL0     H91776  -0.172  -0.366  10.163 -1.5648 -0.5103  2.6066
  680MOL0     H91777  -0.011  -0.355  10.207 -2.3656 -3.8414 -0.8049
  680MOL0     H91778  -0.258  -0.230  10.292 -0.0033 -0.5693 -1.1218
  680MOL0     H91779  -0.131  -0.101  10.282 -0.7076  0.9115  3.3756
  680MOL0     H91780   0.001  -0.211  10.454  0.5255  0.3940 -0.7012
  680MOL0     H91781  -0.103  -0.356  10.458 -0.4314  0.0464  4.2038
  680MOL0     H91782   0.542  -0.271  10.288  0.6484  1.1858  1.5165
  680MOL0     H91783   0.805  -0.300  10.335  0.3918 -1.3783 -1.3047
  680MOL0     H91784   1.142  -0.259  10.361 -0.7689  1.2838 -1.2780
  680MOL0     H91785   1.373  -0.301  10.439 -0.9184 -0.1247 -0.0762
  680MOL0     H91786   3.128   0.048   9.592  2.9855  0.7398 -0.2321
  680MOL0     H91787   3.308   0.178   9.546 -0.6049 -1.8600  1.2914
  680MOL0     H91788   3.463   0.617   9.399  1.4967  1.3214  1.7258
  680MOL0     H91789   3.670   0.731   9.362 -2.1703  1.0999 -1.7208
  680MOL0     H91790   3.855   0.814   9.197 -1.2176  2.4770  1.5619
  680MOL0     H91791   3.872   0.785   9.373  2.4229 -0.6636  1.2384
  680MOL0     H91792   4.117   0.780   9.335  1.0372  1.7648  0.1437
  680MOL0     H91793   4.028   0.920   9.273  0.4462 -0.1095 -0.8400
  680MOL0     H91794   4.046   0.848   9.040 -2.6936 -0.7375  2.7384
  680MOL0     H91795   4.119   0.700   9.098  1.1650  0.3851  0.1938
  680MOL0     H91796   4.325   0.813   9.165  0.8532  0.8705  0.0089
  680MOL0     H91797   4.259   0.970   9.141  1.6315  0.1618  2.0453
  680MOL0     H91798   4.380   0.886   8.743 -1.5500  0.3439 -1.9739
  680MOL0     H91799   3.861   0.381   9.204  0.9803  1.3921  0.4807
  680MOL0     H91800   3.643   0.257   9.259  0.4561 -0.1123  0.5908
  681MOL0     O91801   2.934   2.991   3.474 -0.1389  0.3889 -0.3887
  681MOL0     C91802   3.015   2.895   3.473 -0.5776 -0.2417 -0.6425
  681MOL0     O91803   2.997   2.784   3.402 -0.4869 -0.3213  0.3803
  681MOL0     C91804   2.873   2.721   3.406 -1.0947  0.0332 -0.3687
  681MOL0     C91805   2.767   2.758   3.319 -0.3014 -0.4401 -0.8669
  681MOL0     C91806   2.654   2.687   3.340  1.1910  0.4046 -0.6145
  681MOL0     C91807   2.631   2.593   3.441  0.1377  0.3193  0.4695
  681MOL0     O91808   2.518   2.520   3.425 -0.1462 -0.6584 -0.0753
  681MOL0     C91809   2.486   2.430   3.531  0.8225  0.1207  0.7769
  681MOL0     C91810   2.331   2.412   3.515 -0.1077  0.2731 -0.9001
  681MOL0     C91811   2.269   2.323   3.625 -0.8199  0.6982 -0.1751
  681MOL0     C91812   2.132   2.268   3.581 -0.2389  0.2890 -0.4037
  681MOL0     C91813   2.097   2.131   3.637 -0.5934 -0.2535 -0.1805
  681MOL0     C91814   1.950   2.099   3.647  0.0981  0.2799  0.5372
  681MOL0     C91815   1.856   2.154   3.538 -0.6552  0.0294 -0.0094
  681MOL0     C91816   1.703   2.125   3.562  0.4205  0.2280 -0.7885
  681MOL0     N91817   1.623   2.120   3.438  0.3499 -0.1414  0.4739
  681MOL0     C91818   1.551   2.231   3.401 -0.3309  0.3286  0.1586
  681MOL0     C91819   1.523   2.204   3.269  0.1619  1.2034 -0.4518
  681MOL0     C91820   1.455   2.310   3.188  0.8921 -0.6109 -0.4181
  681MOL0     C91821   1.353   2.252   3.084 -0.7157 -0.6816 -0.7167
  681MOL0     C91822   1.220   2.231   3.159  0.1922 -0.3301 -0.5081
  681MOL0     C91823   1.126   2.138   3.073 -0.4100 -0.6548  0.1794
  681MOL0     O91824   1.082   2.196   2.943 -0.2691  0.1012 -1.0607
  681MOL0     C91825   0.965   2.277   2.939  0.6046 -0.3925 -0.5176
  681MOL0     C91826   0.900   2.329   3.044  0.0976 -0.1105  0.0631
  681MOL0     C91827   0.790   2.415   3.019  0.4853  0.0622 -1.0691
  681MOL0     C91828   0.709   2.446   3.152 -0.0842 -0.3410  0.3113
  681MOL0     C91829   0.745   2.447   2.893  0.8273 -0.2430 -0.1852
  681MOL0     C91830   0.626   2.530   2.874  0.1199 -0.2991  0.5884
  681MOL0     O91831   0.562   2.498   2.757 -0.6913  0.1211  0.0701
  681MOL0     C91832   0.439   2.547   2.724  0.2099 -1.0020  0.3522
  681MOL0     C91833   0.431   2.685   2.704  0.2348  0.9403 -0.2505
  681MOL0     C91834   0.308   2.742   2.670  0.5983 -0.0835  0.2201
  681MOL0     C91835   0.195   2.660   2.653 -0.8048  0.6915  0.3281
  681MOL0     O91836   0.083   2.717   2.624 -0.6096 -0.6264  0.2701
  681MOL0     C91837  -0.050   2.661   2.665 -0.3944  0.9436  0.3963
  681MOL0     C91838  -0.160   2.769   2.662  0.3471  0.3508 -0.5677
  681MOL0     C91839  -0.300   2.724   2.706 -0.1768 -0.1797  1.4699
  681MOL0     C91840  -0.417   2.818   2.659  0.4352  0.3706  1.0203
  681MOL0     C91841  -0.560   2.769   2.701 -0.9390  0.3260 -0.6740
  681MOL0     C91842  -0.667   2.849   2.638  0.2094 -0.7199  0.2228
  681MOL0     C91843  -0.812   2.794   2.657 -0.0036 -0.0027  0.0501
  681MOL0     C91844  -0.868   2.837   2.794 -0.6952 -0.2843 -0.1389
  681MOL0    Cl91845  -1.051   2.808   2.772  0.1491  0.1446 -0.0610
  681MOL0     C91846   0.209   2.522   2.679 -1.2386 -0.4695  0.1608
  681MOL0     C91847   0.333   2.463   2.716  0.3811 -0.0468  0.1908
  681MOL0     O91848   0.590   2.614   2.957  0.2943  0.7032 -0.2035
  681MOL0     C91849   0.819   2.393   2.780 -0.8512 -0.7193 -0.0449
  681MOL0     C91850   0.926   2.307   2.807 -0.3380 -0.4781  0.5797
  681MOL0     N91851   1.582   2.077   3.234  0.1431  0.3417 -0.0139
  681MOL0     N91852   1.634   2.025   3.339 -0.2181 -0.6815 -0.5966
  681MOL0     C91853   2.742   2.558   3.530  0.6453  0.4514  0.4207
  681MOL0     C91854   2.864   2.620   3.508 -0.2238 -0.2726 -0.2639
  681MOL0     C91855   3.156   2.924   3.521  0.3802 -0.1638  1.1189
  681MOL0     C91856   3.183   3.039   3.596  0.1838 -0.2257  0.7902
  681MOL0     C91857   3.322   3.066   3.624  0.0603  1.1510 -0.6112
  681MOL0     C91858   3.425   2.978   3.575 -0.3987 -0.6632 -0.7413
  681MOL0     O91859   3.564   2.997   3.597  0.4285  0.2623 -0.2108
  681MOL0     C91860   3.616   3.091   3.691  0.3944 -0.7912  0.6914
  681MOL0     C91861   3.632   3.028   3.829 -0.3925 -0.1479  0.2005
  681MOL0     C91862   3.496   3.006   3.910 -0.3160 -0.7125 -0.0342
  681MOL0     C91863   3.534   2.905   4.015  0.1989  0.7319 -0.1718
  681MOL0     C91864   3.413   2.849   4.074 -0.5088  0.8051 -0.2429
  681MOL0     C91865   3.319   2.812   4.134 -0.0045  0.5211 -0.3575
  681MOL0     C91866   3.395   2.864   3.507  0.6827  0.0580  0.5460
  681MOL0     C91867   3.260   2.836   3.479  0.2412 -0.7049  0.2883
  681MOL0     H91868   2.787   2.825   3.237  0.7951 -0.2894 -0.4825
  681MOL0     H91869   2.573   2.708   3.272 -0.8200 -0.1706  1.4997
  681MOL0     H91870   2.540   2.335   3.523 -0.0251 -0.2576 -0.8228
  681MOL0     H91871   2.499   2.467   3.633 -0.5175 -0.1614  1.0639
  681MOL0     H91872   2.275   2.506   3.524 -1.0558 -0.4579  3.2794
  681MOL0     H91873   2.316   2.360   3.420 -1.7696 -0.7331 -0.1538
  681MOL0     H91874   2.334   2.240   3.656 -3.0662 -1.0068  0.2851
  681MOL0     H91875   2.258   2.380   3.718 -0.7537 -2.5246  1.9781
  681MOL0     H91876   2.066   2.350   3.612 -1.5341 -1.2548  1.0963
  681MOL0     H91877   2.134   2.249   3.473  1.0203  0.1664 -0.3728
  681MOL0     H91878   2.141   2.050   3.579 -1.3093 -0.3854 -0.5486
  681MOL0     H91879   2.139   2.125   3.738 -2.1924 -1.7763  0.4489
  681MOL0     H91880   1.935   1.992   3.635  0.6131  0.5784 -5.0829
  681MOL0     H91881   1.910   2.125   3.746  0.2605  1.5308  0.2934
  681MOL0     H91882   1.879   2.261   3.534 -2.9841  0.5694 -0.5893
  681MOL0     H91883   1.873   2.112   3.439 -1.8766 -1.8418  0.5164
  681MOL0     H91884   1.670   2.212   3.620 -0.2784  0.8687 -2.1172
  681MOL0     H91885   1.690   2.031   3.618 -1.5330 -0.8800 -2.9556
  681MOL0     H91886   1.517   2.313   3.463  1.3134  3.1135 -2.3757
  681MOL0     H91887   1.394   2.375   3.252 -1.1087 -1.6266 -1.1925
  681MOL0     H91888   1.528   2.370   3.134 -0.5460 -0.8916 -2.8058
  681MOL0     H91889   1.390   2.154   3.051 -1.0009 -0.7040 -0.9723
  681MOL0     H91890   1.336   2.309   2.992 -0.2302 -0.4319 -0.6562
  681MOL0     H91891   1.170   2.326   3.181  2.0623  1.1798 -2.3043
  681MOL0     H91892   1.238   2.170   3.248 -0.1404 -1.5501 -1.2504
  681MOL0     H91893   1.040   2.095   3.125  0.3667 -1.9610  0.4463
  681MOL0     H91894   1.194   2.057   3.042  2.7819  1.7821  0.2427
  681MOL0     H91895   0.927   2.301   3.145 -0.6188 -1.9537 -0.2084
  681MOL0     H91896   0.743   2.546   3.182  1.9939 -0.7828 -0.3801
  681MOL0     H91897   0.601   2.451   3.135  0.0202 -0.8057 -0.5313
  681MOL0     H91898   0.720   2.365   3.224  1.1491 -0.7378 -0.2967
  681MOL0     H91899   0.520   2.746   2.709 -0.6191  2.4467 -1.8818
  681MOL0     H91900   0.305   2.849   2.653  0.8752  0.0236  0.8027
  681MOL0     H91901  -0.085   2.572   2.611  0.9616 -0.5780  1.9099
  681MOL0     H91902  -0.046   2.625   2.769  0.8434 -0.6190 -0.1656
  681MOL0     H91903  -0.128   2.853   2.724 -0.7183  1.3369 -1.3320
  681MOL0     H91904  -0.177   2.805   2.560 -1.1117 -1.2704 -0.9591
  681MOL0     H91905  -0.312   2.710   2.814 -2.4884 -0.5135  1.2402
  681MOL0     H91906  -0.320   2.624   2.666  0.2683  1.2076 -2.8004
  681MOL0     H91907  -0.406   2.921   2.693 -1.5767  0.0650  2.8443
  681MOL0     H91908  -0.416   2.817   2.550  1.3879 -0.8857  1.0244
  681MOL0     H91909  -0.571   2.773   2.810  1.1372  2.5808 -0.4495
  681MOL0     H91910  -0.567   2.666   2.664  0.5705 -0.6015  1.3754
  681MOL0     H91911  -0.652   2.953   2.666 -2.1862 -0.2701 -0.0186
  681MOL0     H91912  -0.641   2.844   2.532  0.0621  0.3731  0.1290
  681MOL0     H91913  -0.805   2.685   2.653 -1.5702 -0.1883  1.4759
  681MOL0     H91914  -0.884   2.838   2.589 -1.1922 -0.3475  1.0367
  681MOL0     H91915  -0.868   2.945   2.811  0.8941 -0.2819 -0.0071
  681MOL0     H91916  -0.821   2.766   2.864  0.3695 -2.6603 -3.0547
  681MOL0     H91917   0.125   2.454   2.665  0.9420 -3.1070 -1.0096
  681MOL0     H91918   0.332   2.356   2.737 -1.3248  0.2847  2.0024
  681MOL0     H91919   0.813   2.422   2.676  2.9786  1.0222  0.0282
  681MOL0     H91920   0.998   2.262   2.739  1.7947 -0.1473  2.4906
  681MOL0     H91921   2.756   2.485   3.609 -0.4633  1.4839  1.6097
  681MOL0     H91922   2.957   2.605   3.561 -1.6688 -0.9938  2.2445
  681MOL0     H91923   3.097   3.097   3.624  0.7611  1.8757 -1.4148
  681MOL0     H91924   3.349   3.141   3.698  2.8287  1.4977 -1.8383
  681MOL0     H91925   3.719   3.112   3.663 -0.0413  0.2408 -0.2184
  681MOL0     H91926   3.555   3.183   3.690 -1.0914 -1.7116  1.6650
  681MOL0     H91927   3.702   3.086   3.891  0.3957  0.1853 -0.9813
  681MOL0     H91928   3.673   2.928   3.810 -0.6910 -0.2559  0.1320
  681MOL0     H91929   3.427   2.957   3.841 -1.2290 -0.0189  0.3593
  681MOL0     H91930   3.449   3.097   3.948  0.0596 -0.8815  0.8383
  681MOL0     H91931   3.591   2.952   4.095  1.2025 -1.2753  0.3604
  681MOL0     H91932   3.586   2.820   3.970 -1.7976  0.2464 -1.7446
  681MOL0     H91933   3.221   2.799   4.173  0.2674 -1.4900 -0.2658
  681MOL0     H91934   3.465   2.790   3.471 -1.5044 -1.0856 -1.6325
  681MOL0     H91935   3.234   2.750   3.417 -3.4587 -0.9108  1.8481
  682MOL0     O91936  10.876   7.693   2.908 -0.1709  0.1896  0.5326
  682MOL0     C91937  10.899   7.697   3.025  1.0153  0.1836 -0.1055
  682MOL0     O91938  10.845   7.797   3.113  0.0065 -0.3633  0.0048
  682MOL0     C91939  10.730   7.862   3.071  0.7400 -0.7996  0.6981
  682MOL0     C91940  10.610   7.837   3.139 -0.4444  1.2722 -0.6697
  682MOL0     C91941  10.485   7.884   3.088 -0.3527  0.6305  0.1893
  682MOL0     C91942  10.481   7.971   2.980 -0.3162 -0.3702  0.4237
  682MOL0     O91943  10.352   8.016   2.948  0.0083 -0.3667 -0.0550
  682MOL0     C91944  10.357   8.095   2.830  0.3658  0.2058  0.2792
  682MOL0     C91945  10.220   8.166   2.798  0.7638  0.5668  0.4623
  682MOL0     C91946  10.115   8.065   2.745  0.2744 -0.0041 -0.6952
  682MOL0     C91947  10.154   8.022   2.596  0.3655 -0.6865 -0.4214
  682MOL0     C91948  10.049   7.926   2.537 -0.0705  0.2267 -0.1694
  682MOL0     C91949  10.041   7.780   2.601  0.0835 -0.5843 -0.3744
  682MOL0     C91950   9.953   7.699   2.521 -0.4773 -0.2200  0.3343
  682MOL0     C91951   9.939   7.563   2.584  0.1676  0.1897 -0.1245
  682MOL0     N91952   9.846   7.567   2.698 -0.2721 -0.3041 -0.0193
  682MOL0     C91953   9.725   7.631   2.694 -0.0086 -0.4410  0.0340
  682MOL0     C91954   9.675   7.623   2.826 -0.7955  0.6041 -0.2498
  682MOL0     C91955   9.571   7.715   2.881 -0.0362  0.3416  0.7043
  682MOL0     C91956   9.498   7.664   3.007 -1.0445 -0.4894 -0.3632
  682MOL0     C91957   9.449   7.521   3.000  0.9165  0.1604 -0.1491
  682MOL0     C91958   9.366   7.498   2.875 -0.3109  0.2407  0.2829
  682MOL0     O91959   9.242   7.574   2.883  0.3486 -0.7107  0.4705
  682MOL0     C91960   9.140   7.533   2.802 -1.1356 -0.4674  0.1683
  682MOL0     C91961   9.147   7.425   2.715 -0.3697 -0.2094  0.0958
  682MOL0     C91962   9.045   7.396   2.619  0.2788  0.2380  0.7950
  682MOL0     C91963   9.068   7.260   2.551  0.0810 -0.1820 -0.4887
  682MOL0     C91964   8.935   7.485   2.605  0.2823 -0.3104 -0.1447
  682MOL0     C91965   8.828   7.469   2.510 -0.5877  0.1005  0.0640
  682MOL0     O91966   8.839   7.376   2.402  0.1260 -0.4291 -0.3793
  682MOL0     C91967   8.736   7.340   2.320 -0.5444 -0.2235  1.0345
  682MOL0     C91968   8.600   7.360   2.342  0.3619  0.8187  0.1362
  682MOL0     C91969   8.501   7.291   2.272  0.6742  0.0012 -0.0967
  682MOL0     C91970   8.538   7.205   2.166 -0.3620 -0.1780  0.0284
  682MOL0     O91971   8.440   7.139   2.089 -0.0733  0.2821 -0.5447
  682MOL0     C91972   8.320   7.105   2.152  0.2090 -0.1861 -0.0092
  682MOL0     C91973   8.228   7.082   2.040 -0.0708 -0.4224  0.9585
  682MOL0     C91974   8.096   7.042   2.100  0.3411  0.2654  0.0621
  682MOL0     C91975   8.018   6.941   2.025  0.5286 -0.6520 -0.1344
  682MOL0     C91976   7.885   6.903   2.093  0.5116  0.4997  0.3459
  682MOL0     C91977   7.786   6.835   2.006 -0.2759  0.7500  0.5997
  682MOL0     C91978   7.655   6.789   2.087 -0.2854 -0.1597  0.7655
  682MOL0     C91979   7.621   6.646   2.060  0.4495 -0.0687 -0.1451
  682MOL0    Cl91980   7.743   6.531   2.117 -0.3230 -0.2291  0.3518
  682MOL0     C91981   8.674   7.195   2.140 -0.3739 -0.1316 -0.0229
  682MOL0     C91982   8.770   7.264   2.216 -1.0955 -0.2865 -0.2890
  682MOL0     O91983   8.745   7.558   2.516  0.3025  0.3552 -0.0190
  682MOL0     C91984   8.930   7.591   2.696 -0.7334 -0.2730  0.5064
  682MOL0     C91985   9.033   7.616   2.788  0.4072  0.4319 -0.2882
  682MOL0     N91986   9.771   7.549   2.899  0.4065 -0.7484  0.2629
  682MOL0     N91987   9.863   7.514   2.819 -0.0018  0.2920 -0.6819
  682MOL0     C91988  10.604   7.989   2.910 -0.3194 -0.1813  0.2969
  682MOL0     C91989  10.725   7.941   2.953  0.6946  0.7394 -0.2742
  682MOL0     C91990  10.977   7.593   3.084  0.3435  0.5825  0.3366
  682MOL0     C91991  11.021   7.477   3.001 -0.1972 -0.6930  0.0889
  682MOL0     C91992  11.116   7.389   3.048 -0.2133 -0.2226 -0.7604
  682MOL0     C91993  11.172   7.405   3.177 -0.7978  1.2403 -0.6561
  682MOL0     O91994  11.285   7.326   3.196  0.2719 -0.7561 -0.4543
  682MOL0     C91995  11.324   7.312   3.329 -0.4945 -0.9731 -0.5063
  682MOL0     C91996  11.242   7.199   3.389 -0.1221  0.2481 -0.5459
  682MOL0     C91997  11.275   7.191   3.543 -0.0886 -0.6253  0.0999
  682MOL0     C91998  11.198   7.083   3.624  1.0165 -0.2191 -0.0616
  682MOL0     C91999  11.056   7.107   3.610 -0.3729  0.3058 -0.3538
  682MOL0     C92000  10.934   7.133   3.618 -0.7147 -0.2612 -0.3264
  682MOL0     C92001  11.130   7.515   3.259 -0.3690 -0.1320  0.4424
  682MOL0     C92002  11.039   7.608   3.205 -0.0206  0.3368  0.8043
  682MOL0     H92003  10.630   7.770   3.222 -0.7080  2.6075  0.5052
  682MOL0     H92004  10.392   7.866   3.142 -0.8707 -0.9918 -1.1563
  682MOL0     H92005  10.433   8.174   2.827 -0.3820  1.1479  3.2005
  682MOL0     H92006  10.372   8.026   2.746  1.3591  2.1791 -1.2618
  682MOL0     H92007  10.189   8.210   2.893  2.5901  3.2838 -0.1102
  682MOL0     H92008  10.230   8.241   2.720  0.2269 -0.6000 -0.7731
  682MOL0     H92009  10.119   7.972   2.803 -2.5227  0.0161 -0.3684
  682MOL0     H92010  10.016   8.107   2.760  0.0736 -1.7021  5.1811
  682MOL0     H92011  10.157   8.113   2.535  0.3612 -1.2059 -1.2045
  682MOL0     H92012  10.255   7.980   2.591  0.6419 -0.2441  1.0421
  682MOL0     H92013   9.952   7.977   2.542  0.5582  1.3664  1.5322
  682MOL0     H92014  10.076   7.923   2.431 -0.7884 -2.4882 -0.3530
  682MOL0     H92015  10.142   7.739   2.609 -0.7378 -2.4766  1.1860
  682MOL0     H92016   9.993   7.796   2.698  0.6835  0.7156 -0.2630
  682MOL0     H92017   9.861   7.753   2.499 -0.3823  0.0006  0.4881
  682MOL0     H92018  10.001   7.668   2.427 -0.2767 -1.8483  0.9410
  682MOL0     H92019  10.033   7.521   2.621  0.5369 -2.1490 -3.3294
  682MOL0     H92020   9.903   7.500   2.502  0.7242  0.2930 -0.4514
  682MOL0     H92021   9.683   7.676   2.604 -0.0296 -0.9448 -0.2141
  682MOL0     H92022   9.622   7.812   2.886  0.7665 -0.0149 -0.2420
  682MOL0     H92023   9.498   7.735   2.803  2.3455  1.6332 -1.3486
  682MOL0     H92024   9.415   7.730   3.035 -0.4272  0.4151 -0.6203
  682MOL0     H92025   9.567   7.664   3.091 -2.5156  0.3347  0.9065
  682MOL0     H92026   9.395   7.509   3.094 -1.5005 -0.6895 -1.5575
  682MOL0     H92027   9.530   7.448   2.993 -0.1595 -1.1655  0.7633
  682MOL0     H92028   9.338   7.392   2.873 -0.4516  0.2814 -1.0553
  682MOL0     H92029   9.427   7.527   2.788 -1.6391 -1.7546 -1.4239
  682MOL0     H92030   9.234   7.361   2.710  0.0585  0.4257 -3.5619
  682MOL0     H92031   9.161   7.219   2.591  0.6679  0.4712 -1.1446
  682MOL0     H92032   8.975   7.202   2.562 -0.1332  0.3980  1.0763
  682MOL0     H92033   9.080   7.268   2.443  0.1965 -1.9645 -0.6347
  682MOL0     H92034   8.551   7.427   2.412 -3.8434 -0.5521 -1.1605
  682MOL0     H92035   8.400   7.317   2.301  0.6915 -1.8000  1.8400
  682MOL0     H92036   8.330   7.010   2.204  0.2037 -0.7556 -1.0163
  682MOL0     H92037   8.274   7.182   2.214 -1.5243 -1.7941  0.7659
  682MOL0     H92038   8.211   7.173   1.981 -2.6660 -0.2430  1.8912
  682MOL0     H92039   8.268   7.003   1.975  1.9156 -0.4712  2.1635
  682MOL0     H92040   8.029   7.127   2.110  1.8155  1.3560  1.0025
  682MOL0     H92041   8.109   7.004   2.201 -0.3151 -1.7492 -0.5609
  682MOL0     H92042   7.985   6.981   1.929 -0.8044  0.7810  0.8566
  682MOL0     H92043   8.083   6.854   2.019  0.7298 -0.8727  3.1665
  682MOL0     H92044   7.840   6.988   2.144 -2.7702 -0.5662 -0.5135
  682MOL0     H92045   7.917   6.831   2.170  1.5439  0.0639 -0.4649
  682MOL0     H92046   7.755   6.913   1.936  0.0510  0.2660 -0.0938
  682MOL0     H92047   7.829   6.750   1.952 -0.7863 -0.2264  1.6938
  682MOL0     H92048   7.573   6.855   2.057  0.8550  1.6812  1.5535
  682MOL0     H92049   7.671   6.808   2.194 -0.6174 -1.3448  1.0410
  682MOL0     H92050   7.610   6.636   1.952  2.7620  0.9087 -0.5368
  682MOL0     H92051   7.527   6.624   2.111  0.6320  0.2261  0.3276
  682MOL0     H92052   8.715   7.138   2.058 -0.0836 -4.4500  2.7629
  682MOL0     H92053   8.877   7.245   2.211  0.3268  4.4693  3.7017
  682MOL0     H92054   8.843   7.656   2.692 -0.5665 -0.0463 -3.8673
  682MOL0     H92055   9.022   7.701   2.856 -2.7369 -1.9207  2.4860
  682MOL0     H92056  10.612   8.056   2.825  1.6876  0.6101  1.0550
  682MOL0     H92057  10.818   7.959   2.901  0.0611  0.0391 -1.6997
  682MOL0     H92058  10.981   7.477   2.900 -0.9937  1.8376  0.3408
  682MOL0     H92059  11.153   7.311   2.983 -2.8037 -1.1593 -1.2426
  682MOL0     H92060  11.431   7.288   3.325  0.3641  1.8918  1.7250
  682MOL0     H92061  11.326   7.395   3.400  3.1065 -2.1364  1.0190
  682MOL0     H92062  11.274   7.105   3.345 -0.1818 -0.1066  0.1543
  682MOL0     H92063  11.134   7.216   3.381 -0.5231 -1.8840 -0.2424
  682MOL0     H92064  11.260   7.283   3.600  0.4177 -1.7305  2.1021
  682MOL0     H92065  11.383   7.177   3.554  0.4562  3.5784  1.9746
  682MOL0     H92066  11.225   7.078   3.730  1.3013  1.7709 -0.0037
  682MOL0     H92067  11.213   6.984   3.581 -1.7822 -0.8619  0.2297
  682MOL0     H92068  10.835   7.174   3.622 -0.0664  1.6018 -1.9858
  682MOL0     H92069  11.166   7.536   3.360 -0.2768  1.7525  0.0527
  682MOL0     H92070  11.022   7.699   3.261  3.2840  1.0406  0.9051
  683MOL0     O92071   4.619   1.348  11.106 -0.8785  0.0753  0.5434
  683MOL0     C92072   4.716   1.303  11.163  0.6682 -0.2069 -0.0626
  683MOL0     O92073   4.716   1.263  11.294 -0.0168  0.0127  0.2863
  683MOL0     C92074   4.594   1.268  11.356 -0.2677 -0.0593 -0.0198
  683MOL0     C92075   4.599   1.330  11.479  0.4472  0.3000 -0.5778
  683MOL0     C92076   4.493   1.325  11.567  0.1488  0.1394  0.2018
  683MOL0     C92077   4.385   1.244  11.535 -0.0029  0.6640  0.6434
  683MOL0     O92078   4.282   1.200  11.616  1.0003  0.1609  0.4179
  683MOL0     C92079   4.270   1.258  11.747  0.2565 -0.1151  0.7703
  683MOL0     C92080   4.135   1.200  11.802 -0.5069 -0.3493  0.7080
  683MOL0     C92081   4.007   1.246  11.720  0.2820 -0.0765  0.1826
  683MOL0     C92082   3.878   1.229  11.806 -0.5105  0.0680 -0.2065
  683MOL0     C92083   3.759   1.268  11.720 -0.7544 -0.7574 -1.0822
  683MOL0     C92084   3.633   1.252  11.802  0.8705  0.3506  0.0690
  683MOL0     C92085   3.516   1.300  11.710 -0.0926 -0.3725 -0.2950
  683MOL0     C92086   3.385   1.295  11.777 -0.1087  0.0527 -0.7990
  683MOL0     N92087   3.269   1.312  11.698 -0.3458 -0.5750  0.2123
  683MOL0     C92088   3.189   1.208  11.653  0.5386 -0.1041 -0.0797
  683MOL0     C92089   3.102   1.268  11.565 -0.5023  0.1805  0.2933
  683MOL0     C92090   3.007   1.203  11.473  1.3268 -0.0738 -0.4019
  683MOL0     C92091   3.026   1.052  11.442 -0.4498 -0.4236  0.7416
  683MOL0     C92092   3.132   1.024  11.334 -1.2479  0.3493  0.0813
  683MOL0     C92093   3.279   1.018  11.378 -0.4813  0.3088 -0.1681
  683MOL0     O92094   3.299   0.910  11.464  0.0489  0.0592  0.6094
  683MOL0     C92095   3.409   0.902  11.544 -0.6548 -0.3346  0.1831
  683MOL0     C92096   3.393   0.824  11.657 -0.2308 -0.5986  0.5751
  683MOL0     C92097   3.501   0.794  11.741 -0.1142  0.2341 -0.5601
  683MOL0     C92098   3.463   0.714  11.867  1.0504  0.0904 -0.2004
  683MOL0     C92099   3.630   0.853  11.713 -0.7227 -0.5055  0.2137
  683MOL0     C92100   3.756   0.837  11.796  0.8453  1.0598  0.2567
  683MOL0     O92101   3.868   0.888  11.732  0.1477 -1.0415  0.0875
  683MOL0     C92102   3.988   0.848  11.781 -0.6952  0.0987  0.2546
  683MOL0     C92103   4.084   0.832  11.679 -0.8657  0.1395 -0.2630
  683MOL0     C92104   4.225   0.823  11.707  0.0298  0.4705 -0.4732
  683MOL0     C92105   4.267   0.812  11.843  0.6883  0.0559  0.3244
  683MOL0     O92106   4.397   0.789  11.855  0.0064 -0.4651  0.1827
  683MOL0     C92107   4.454   0.734  11.973  0.2064  0.5524 -0.3394
  683MOL0     C92108   4.556   0.826  12.027 -0.4359 -0.5266 -0.0780
  683MOL0     C92109   4.673   0.845  11.931  0.0602 -0.5402 -0.1665
  683MOL0     C92110   4.771   0.725  11.935 -0.2222  0.5851  0.2013
  683MOL0     C92111   4.874   0.749  11.819  0.6794 -0.0670 -0.6791
  683MOL0     C92112   4.978   0.647  11.838  0.2586 -0.7299 -0.1508
  683MOL0     C92113   5.092   0.674  11.738  0.4969 -0.1429  0.4328
  683MOL0     C92114   5.209   0.578  11.757 -0.5683 -0.3573 -0.4982
  683MOL0    Cl92115   5.331   0.594  11.637 -0.6990 -0.8350  0.0513
  683MOL0     C92116   4.170   0.847  11.942  0.1292  0.1781 -0.1206
  683MOL0     C92117   4.036   0.864  11.912 -0.1124  0.1714  0.1079
  683MOL0     O92118   3.755   0.786  11.905  0.7761  0.3721 -0.5495
  683MOL0     C92119   3.637   0.932  11.593  0.1413  0.9714 -0.0318
  683MOL0     C92120   3.532   0.955  11.514 -0.0861  0.2180  0.6858
  683MOL0     N92121   3.131   1.407  11.555 -1.2535  0.4304  0.2043
  683MOL0     N92122   3.238   1.424  11.630  0.9980 -0.4573  0.2619
  683MOL0     C92123   4.375   1.183  11.408  0.3479  1.8410  0.3440
  683MOL0     C92124   4.481   1.197  11.320  0.6365  0.0060 -0.1536
  683MOL0     C92125   4.845   1.294  11.087  1.2298  0.5762  0.1801
  683MOL0     C92126   4.962   1.334  11.149 -0.3522  0.4083  0.2460
  683MOL0     C92127   5.088   1.326  11.084  0.5138  0.5889  0.5342
  683MOL0     C92128   5.097   1.299  10.942 -0.2024  0.0470  0.7653
  683MOL0     O92129   5.208   1.280  10.865 -0.3169  0.2705  0.3941
  683MOL0     C92130   5.335   1.269  10.927  0.9916  0.4801 -0.1679
  683MOL0     C92131   5.439   1.266  10.823 -0.7948 -0.7424 -0.4938
  683MOL0     C92132   5.427   1.133  10.737 -0.2515 -0.1371 -0.1288
  683MOL0     C92133   5.522   1.128  10.617 -0.5188  1.0621  0.2448
  683MOL0     C92134   5.665   1.129  10.659  0.4219 -0.8607 -0.6232
  683MOL0     C92135   5.782   1.139  10.693 -0.4233  0.3649  0.7849
  683MOL0     C92136   4.971   1.263  10.878  0.4529 -0.8018  0.3382
  683MOL0     C92137   4.848   1.271  10.943 -0.0781 -0.5830 -0.2504
  683MOL0     H92138   4.686   1.386  11.512  0.1977 -0.0832  0.8289
  683MOL0     H92139   4.507   1.375  11.662  2.2926 -0.2789  0.1584
  683MOL0     H92140   4.352   1.225  11.811 -0.5122 -2.2000  0.7561
  683MOL0     H92141   4.282   1.367  11.756 -0.9694 -0.0499  1.9415
  683MOL0     H92142   4.145   1.091  11.802 -2.4276 -0.5576  0.2323
  683MOL0     H92143   4.128   1.237  11.905  0.2054 -0.3050  0.7458
  683MOL0     H92144   4.008   1.352  11.694 -4.3638 -0.0862 -1.0492
  683MOL0     H92145   4.001   1.180  11.633  1.7212 -2.7525  1.9653
  683MOL0     H92146   3.861   1.125  11.836 -2.5766  0.8104  1.4295
  683MOL0     H92147   3.889   1.290  11.896  1.0141  0.8888 -0.9066
  683MOL0     H92148   3.762   1.370  11.681  3.8893  0.0422  0.7227
  683MOL0     H92149   3.746   1.202  11.633  0.5325  0.0680 -1.9306
  683MOL0     H92150   3.622   1.151  11.842  0.4051 -0.2133 -1.3980
  683MOL0     H92151   3.632   1.314  11.892  0.6479 -0.0243  0.3277
  683MOL0     H92152   3.534   1.402  11.675 -0.0729 -0.1303  0.4040
  683MOL0     H92153   3.524   1.243  11.617  3.1808 -1.3967  0.4542
  683MOL0     H92154   3.375   1.367  11.858 -0.4392  0.8950 -1.5749
  683MOL0     H92155   3.371   1.199  11.828 -0.5090  0.7187  0.3760
  683MOL0     H92156   3.206   1.101  11.657  1.0115  0.0047  1.7715
  683MOL0     H92157   2.912   1.210  11.529  1.9715  0.8655  0.6298
  683MOL0     H92158   3.004   1.244  11.372 -1.8848 -2.3252 -1.3905
  683MOL0     H92159   2.932   1.009  11.406 -0.9735  1.1128  0.1782
  683MOL0     H92160   3.038   0.995  11.534  2.6888 -0.4132  0.4635
  683MOL0     H92161   3.128   1.111  11.269  1.7456  2.4459  2.4240
  683MOL0     H92162   3.102   0.937  11.273 -0.0676  0.9167 -1.3725
  683MOL0     H92163   3.305   1.106  11.438  2.0714 -1.7886  2.0786
  683MOL0     H92164   3.348   1.019  11.294  1.6191  1.3059  1.4742
  683MOL0     H92165   3.292   0.786  11.668 -0.0055 -0.8971  1.6879
  683MOL0     H92166   3.534   0.642  11.909  1.9073  0.0869 -1.6171
  683MOL0     H92167   3.454   0.790  11.945  1.4544  1.3517 -1.3483
  683MOL0     H92168   3.372   0.654  11.858  0.7040  0.7232 -1.0451
  683MOL0     H92169   4.042   0.842  11.580 -3.4838  1.3069  0.8563
  683MOL0     H92170   4.296   0.814  11.625  0.2446 -3.2530 -0.0683
  683MOL0     H92171   4.378   0.715  12.049  0.0672 -0.4442 -0.7246
  683MOL0     H92172   4.495   0.636  11.949  2.1471  0.8853  1.3117
  683MOL0     H92173   4.500   0.920  12.033  1.4788  0.7065 -0.5265
  683MOL0     H92174   4.587   0.792  12.126  0.7471 -1.8924 -0.8781
  683MOL0     H92175   4.734   0.932  11.956  1.8767 -1.1803 -2.0256
  683MOL0     H92176   4.634   0.861  11.830  0.2450 -1.3534 -0.3712
  683MOL0     H92177   4.825   0.723  12.031  0.5408  1.7222 -0.1891
  683MOL0     H92178   4.721   0.631  11.909 -0.7433  0.4586  1.5592
  683MOL0     H92179   4.917   0.850  11.826  0.5400 -0.0178 -0.5315
  683MOL0     H92180   4.833   0.746  11.718 -0.3324  1.2106 -0.3360
  683MOL0     H92181   5.020   0.646  11.939  1.0920 -0.3728 -0.4771
  683MOL0     H92182   4.940   0.546  11.823  0.2078 -1.0911  2.1128
  683MOL0     H92183   5.112   0.780  11.758 -1.1746  0.3717 -0.3998
  683MOL0     H92184   5.061   0.667  11.633  1.6532 -0.1809  0.0805
  683MOL0     H92185   5.193   0.470  11.760  0.5282 -0.5286 -0.3535
  683MOL0     H92186   5.244   0.602  11.858 -5.3464  2.3143  0.8423
  683MOL0     H92187   4.179   0.829  12.049  1.3191  3.0693  0.3581
  683MOL0     H92188   3.973   0.882  11.999 -1.6950  3.2616 -1.5378
  683MOL0     H92189   3.733   0.977  11.571 -0.1007  0.3321 -2.7593
  683MOL0     H92190   3.539   1.008  11.419 -3.2347 -0.5368 -0.0708
  683MOL0     H92191   4.290   1.121  11.381  1.2108  1.6056 -2.0035
  683MOL0     H92192   4.479   1.152  11.222  1.2475  3.1630 -1.7542
  683MOL0     H92193   4.962   1.359  11.254  3.2814  0.7181  0.2812
  683MOL0     H92194   5.178   1.361  11.134 -0.8691  3.1565  1.4259
  683MOL0     H92195   5.351   1.359  10.988  0.5540 -0.6008  1.6180
  683MOL0     H92196   5.333   1.179  10.989  2.1095 -0.6469 -1.7277
  683MOL0     H92197   5.539   1.275  10.866 -0.7222 -1.5285 -0.4935
  683MOL0     H92198   5.425   1.349  10.753  0.0655 -0.2044 -0.0432
  683MOL0     H92199   5.332   1.109  10.690 -0.9300 -0.0206  1.1327
  683MOL0     H92200   5.462   1.050  10.799  1.2582 -0.3493 -1.2076
  683MOL0     H92201   5.502   1.210  10.547  0.5290 -0.1826 -1.5798
  683MOL0     H92202   5.504   1.035  10.564 -1.0174  1.4539 -0.2789
  683MOL0     H92203   5.883   1.148  10.728  0.1273 -2.8573  0.3431
  683MOL0     H92204   4.971   1.243  10.771 -0.7819  0.4352  0.0839
  683MOL0     H92205   4.758   1.245  10.888  1.2732  0.0236 -2.9385
  684MOL0     O92206   4.195   3.294   6.063  0.2930 -0.5624  0.4247
  684MOL0     C92207   4.170   3.413   6.070  0.4474 -0.1113  0.5710
  684MOL0     O92208   4.064   3.476   6.137  0.7138 -0.1025 -0.0750
  684MOL0     C92209   3.983   3.396   6.214 -0.1252  0.2968  0.2392
  684MOL0     C92210   4.021   3.279   6.279 -0.7423 -0.1076  0.1353
  684MOL0     C92211   3.938   3.213   6.362 -0.5033  0.2148 -0.2302
  684MOL0     C92212   3.817   3.262   6.395  0.2986  0.1497  0.8019
  684MOL0     O92213   3.738   3.199   6.482  0.2601  0.1614  0.1311
  684MOL0     C92214   3.613   3.152   6.432 -0.4264  0.3377  0.3270
  684MOL0     C92215   3.521   3.110   6.544  0.5475  0.3921 -0.3254
  684MOL0     C92216   3.487   3.225   6.644 -0.2493 -0.7663 -0.1985
  684MOL0     C92217   3.597   3.287   6.731 -0.5882  1.1330  1.0097
  684MOL0     C92218   3.538   3.410   6.811 -0.2154  0.1225  0.1216
  684MOL0     C92219   3.440   3.369   6.921 -0.7026 -0.0541 -0.6114
  684MOL0     C92220   3.385   3.495   6.989 -0.1428 -0.6564  0.9860
  684MOL0     C92221   3.267   3.454   7.079  0.4605 -0.3317 -1.2029
  684MOL0     N92222   3.303   3.398   7.208 -1.1225 -0.5903  0.2386
  684MOL0     C92223   3.216   3.318   7.286 -0.0382 -0.7231 -0.3686
  684MOL0     C92224   3.278   3.298   7.408 -0.1463  0.3076  0.0508
  684MOL0     C92225   3.227   3.243   7.536 -0.2030  0.0366 -0.2652
  684MOL0     C92226   3.145   3.124   7.501  0.2773  0.3698  0.2894
  684MOL0     C92227   3.020   3.107   7.585  0.7987 -0.4367 -0.0072
  684MOL0     C92228   2.924   3.226   7.556 -0.2567  0.1833  0.2411
  684MOL0     O92229   2.788   3.179   7.560  0.1642 -0.0732 -0.0622
  684MOL0     C92230   2.691   3.273   7.586 -0.1519  0.0204 -0.0091
  684MOL0     C92231   2.578   3.235   7.659  0.2138  0.6866 -0.2162
  684MOL0     C92232   2.487   3.320   7.720 -0.3812 -0.0439  0.1856
  684MOL0     C92233   2.365   3.252   7.798 -0.0489  0.0256  0.1566
  684MOL0     C92234   2.507   3.461   7.693  0.7967  0.0800 -1.2865
  684MOL0     C92235   2.401   3.556   7.735  0.2752  1.0852  0.6679
  684MOL0     O92236   2.309   3.518   7.820  0.5985 -0.2165 -0.0243
  684MOL0     C92237   2.192   3.593   7.839 -0.2481 -0.1693 -0.2986
  684MOL0     C92238   2.152   3.588   7.976  0.3151  0.2067  0.4441
  684MOL0     C92239   2.038   3.652   8.021  0.0496  0.0248  0.0486
  684MOL0     C92240   1.953   3.713   7.930 -0.2969 -1.5900 -0.1171
  684MOL0     O92241   1.844   3.793   7.972 -0.0864  0.3810 -0.6654
  684MOL0     C92242   1.729   3.805   7.891  0.5586 -0.0231 -0.1536
  684MOL0     C92243   1.620   3.900   7.949 -0.0519  0.5465 -0.2469
  684MOL0     C92244   1.517   3.832   8.043 -0.6324  0.2456 -0.0838
  684MOL0     C92245   1.396   3.920   8.077  0.5297 -0.0641  0.5227
  684MOL0     C92246   1.378   3.924   8.230 -0.2325 -0.4011 -0.1076
  684MOL0     C92247   1.245   3.990   8.276 -0.5734 -0.2507  0.4241
  684MOL0     C92248   1.255   4.042   8.423 -0.7025  0.7267  0.2093
  684MOL0     C92249   1.136   4.137   8.449 -0.1070 -0.7373 -0.0164
  684MOL0    Cl92250   1.119   4.163   8.632 -0.2216  0.3180  0.4840
  684MOL0     C92251   1.984   3.715   7.789 -0.5585  0.4004 -0.7091
  684MOL0     C92252   2.103   3.646   7.745  0.1013 -0.6434 -0.5243
  684MOL0     O92253   2.408   3.661   7.686  0.4271 -0.6323  0.0145
  684MOL0     C92254   2.618   3.504   7.624  0.4855  0.7934 -0.1232
  684MOL0     C92255   2.710   3.411   7.565 -0.2964 -0.2440  0.5728
  684MOL0     N92256   3.403   3.348   7.394 -0.2941 -0.6894 -0.3964
  684MOL0     N92257   3.418   3.418   7.278 -0.2442  0.4649 -0.1959
  684MOL0     C92258   3.780   3.388   6.349 -0.5700 -0.1202 -0.5340
  684MOL0     C92259   3.853   3.451   6.250 -0.1164  0.0900  0.1111
  684MOL0     C92260   4.258   3.505   5.989 -0.6967 -0.3973  0.0893
  684MOL0     C92261   4.399   3.488   5.975 -0.5509 -0.6774 -0.3465
  684MOL0     C92262   4.462   3.580   5.890 -0.4562  0.2891  0.3158
  684MOL0     C92263   4.404   3.684   5.813  0.1095  0.4222 -1.1933
  684MOL0     O92264   4.490   3.765   5.743 -0.1686 -0.5069 -0.1513
  684MOL0     C92265   4.435   3.888   5.703  0.6449 -0.0293  0.7392
  684MOL0     C92266   4.553   3.957   5.627 -0.5367 -0.7715  0.1159
  684MOL0     C92267   4.585   3.879   5.497  0.0989  0.7446  0.5421
  684MOL0     C92268   4.509   3.930   5.377  0.9358 -0.6768 -0.5473
  684MOL0     C92269   4.561   3.864   5.261 -0.2829 -0.2962  1.0172
  684MOL0     C92270   4.617   3.798   5.170  0.3627 -0.9519 -0.7533
  684MOL0     C92271   4.268   3.706   5.840 -0.5041 -0.3826 -0.6830
  684MOL0     C92272   4.196   3.613   5.918 -0.3709 -0.1878  0.0618
  684MOL0     H92273   4.121   3.238   6.263 -0.4497  1.3099 -2.0833
  684MOL0     H92274   3.964   3.136   6.434 -1.9849  2.0007  2.3493
  684MOL0     H92275   3.562   3.227   6.370 -0.8041  1.0280  1.4514
  684MOL0     H92276   3.632   3.063   6.371 -1.8879 -1.8705  2.9025
  684MOL0     H92277   3.424   3.066   6.520 -0.1926  1.0566  1.3011
  684MOL0     H92278   3.574   3.029   6.597  1.8873  1.7005  0.4262
  684MOL0     H92279   3.446   3.303   6.579 -4.0893  0.4050  3.2591
  684MOL0     H92280   3.397   3.202   6.701 -0.6636  0.0608 -0.4996
  684MOL0     H92281   3.645   3.211   6.792  2.9364 -0.2735 -3.0104
  684MOL0     H92282   3.671   3.335   6.666 -2.0512  2.2085  0.0637
  684MOL0     H92283   3.618   3.463   6.863  1.6858 -2.0704 -0.4170
  684MOL0     H92284   3.485   3.480   6.746  0.9180 -2.2576 -3.6330
  684MOL0     H92285   3.356   3.318   6.874 -0.3711  1.3017 -2.8214
  684MOL0     H92286   3.486   3.298   6.990 -1.7294 -0.4866 -0.3598
  684MOL0     H92287   3.458   3.547   7.051 -0.5163  0.3820  0.5819
  684MOL0     H92288   3.347   3.568   6.916 -2.4021 -1.2064  1.5260
  684MOL0     H92289   3.198   3.392   7.021 -1.5183  0.4337  0.2130
  684MOL0     H92290   3.209   3.544   7.102  0.1370 -0.9116  0.3300
  684MOL0     H92291   3.118   3.280   7.256  1.2914 -2.3513 -3.0465
  684MOL0     H92292   3.311   3.216   7.601 -0.2732 -0.2584 -0.2979
  684MOL0     H92293   3.163   3.322   7.577  2.3161  1.9173  0.2881
  684MOL0     H92294   3.207   3.039   7.531  0.5044  0.5360  0.2971
  684MOL0     H92295   3.110   3.111   7.399  0.2175 -1.3188  0.4968
  684MOL0     H92296   3.040   3.106   7.692  0.5036 -1.3632  0.0458
  684MOL0     H92297   2.971   3.015   7.552  1.7240 -0.9117 -0.0780
  684MOL0     H92298   2.944   3.272   7.458  2.4127  0.3775  0.7993
  684MOL0     H92299   2.935   3.313   7.621  0.1713  0.6026 -0.3716
  684MOL0     H92300   2.547   3.131   7.670  0.8053  0.3652 -1.4162
  684MOL0     H92301   2.369   3.268   7.906  0.2446  0.7055  0.0520
  684MOL0     H92302   2.271   3.287   7.755 -0.3719  2.1667  2.3810
  684MOL0     H92303   2.373   3.143   7.796  0.8902  0.0094  2.1544
  684MOL0     H92304   2.198   3.516   8.042 -2.6596 -1.5043  0.8324
  684MOL0     H92305   2.016   3.647   8.127  1.8252 -0.7086  0.4254
  684MOL0     H92306   1.764   3.854   7.799  0.5979 -1.1474 -0.7558
  684MOL0     H92307   1.693   3.708   7.857  1.8132 -1.2677  1.9047
  684MOL0     H92308   1.666   3.982   8.005 -1.0879  2.3039 -1.8557
  684MOL0     H92309   1.566   3.937   7.862 -1.7674  1.6485  1.2052
  684MOL0     H92310   1.574   3.812   8.135  0.8702  0.7907 -0.8584
  684MOL0     H92311   1.492   3.740   7.990  0.8894  1.9566 -4.2077
  684MOL0     H92312   1.404   4.022   8.038 -1.7018  0.0682  0.2955
  684MOL0     H92313   1.305   3.875   8.039  0.0747  0.6765  0.7150
  684MOL0     H92314   1.463   3.987   8.258 -0.4704 -0.5364  0.9418
  684MOL0     H92315   1.384   3.827   8.279 -0.9385 -0.2440  0.3124
  684MOL0     H92316   1.220   4.076   8.213 -1.6911  0.4763  1.8150
  684MOL0     H92317   1.166   3.916   8.265  1.4848 -2.4344 -0.6242
  684MOL0     H92318   1.348   4.097   8.434 -0.0832  0.2788 -2.1907
  684MOL0     H92319   1.259   3.965   8.501  0.9336  0.0056 -0.5600
  684MOL0     H92320   1.046   4.080   8.422 -1.3185  1.4405 -0.8412
  684MOL0     H92321   1.141   4.230   8.392  1.1764 -0.4779  0.5036
  684MOL0     H92322   1.910   3.770   7.731 -0.4578  2.1571  0.7505
  684MOL0     H92323   2.131   3.641   7.640  1.0131 -1.2091 -0.2683
  684MOL0     H92324   2.637   3.610   7.612  0.4602  0.8380  0.2159
  684MOL0     H92325   2.806   3.451   7.532 -0.1346 -1.3048 -0.2960
  684MOL0     H92326   3.683   3.435   6.366 -0.2024  0.4364  0.0563
  684MOL0     H92327   3.813   3.540   6.202  2.6469  0.9796 -0.7345
  684MOL0     H92328   4.448   3.411   6.034 -1.6987 -0.0313  1.5589
  684MOL0     H92329   4.569   3.570   5.879 -0.6996 -2.0967 -0.5352
  684MOL0     H92330   4.353   3.879   5.631  1.3053  1.6786 -0.2942
  684MOL0     H92331   4.397   3.946   5.789  2.2893  1.6520  0.4104
  684MOL0     H92332   4.643   3.973   5.686 -0.0337  0.1786 -0.8578
  684MOL0     H92333   4.536   4.063   5.602  2.0007  0.8324  4.1365
  684MOL0     H92334   4.562   3.772   5.500  1.1460  0.4961  0.2496
  684MOL0     H92335   4.694   3.875   5.490  0.0799  1.6759 -0.5410
  684MOL0     H92336   4.527   4.037   5.365  0.9112 -0.6980 -0.7658
  684MOL0     H92337   4.403   3.911   5.396  0.9864 -1.9534 -1.4519
  684MOL0     H92338   4.661   3.745   5.088  0.0070 -0.2099 -1.4251
  684MOL0     H92339   4.217   3.790   5.796 -0.6051  0.8516  1.6202
  684MOL0     H92340   4.094   3.645   5.936  0.3509  1.3874  1.6043
  685MOL0     O92341   8.456   2.282   0.813  0.8348  0.1183  0.2115
  685MOL0     C92342   8.520   2.274   0.917 -0.1490 -0.7738  0.4875
  685MOL0     O92343   8.474   2.299   1.040  0.0670 -0.3818  0.0983
  685MOL0     C92344   8.339   2.341   1.052 -0.7502 -0.4827 -0.2675
  685MOL0     C92345   8.299   2.457   0.985  0.2796  0.1450 -0.4237
  685MOL0     C92346   8.166   2.497   1.002 -0.8212  0.3850 -0.3948
  685MOL0     C92347   8.076   2.426   1.094 -0.1697 -0.5642  0.9858
  685MOL0     O92348   7.948   2.467   1.115  0.1529  0.2390  0.3873
  685MOL0     C92349   7.871   2.540   1.006  0.8336 -0.8350 -0.8080
  685MOL0     C92350   7.715   2.522   1.025  0.0575  0.2876  0.5471
  685MOL0     C92351   7.644   2.529   0.885  0.2347  0.8149  0.6020
  685MOL0     C92352   7.491   2.551   0.901  0.2367  0.9549  0.4572
  685MOL0     C92353   7.409   2.541   0.765 -0.6420 -0.0103 -0.3105
  685MOL0     C92354   7.265   2.550   0.800 -0.8480  0.1749  0.1401
  685MOL0     C92355   7.174   2.561   0.679  0.0120  0.7156 -0.0447
  685MOL0     C92356   7.036   2.491   0.683  0.3782 -0.1389 -0.0441
  685MOL0     N92357   6.925   2.577   0.730 -0.6055 -0.3504 -1.1795
  685MOL0     C92358   6.872   2.563   0.862 -0.1045 -0.1909  1.0397
  685MOL0     C92359   6.759   2.632   0.855 -0.0615  0.0160 -1.1490
  685MOL0     C92360   6.651   2.652   0.959  0.3547  0.2265  0.6134
  685MOL0     C92361   6.517   2.607   0.896  0.3454  0.1072 -0.6388
  685MOL0     C92362   6.411   2.566   1.000 -0.4862  0.3984 -0.8111
  685MOL0     C92363   6.276   2.564   0.940  0.1453 -0.2601  0.1543
  685MOL0     O92364   6.185   2.490   1.021  0.7496  0.2026  0.2761
  685MOL0     C92365   6.050   2.469   0.977 -1.0428 -0.0207  0.6647
  685MOL0     C92366   5.962   2.422   1.077 -0.7431 -0.5091  0.4237
  685MOL0     C92367   5.823   2.397   1.051 -0.4965 -0.7379  0.0427
  685MOL0     C92368   5.742   2.342   1.168 -0.6762 -0.7631  0.9898
  685MOL0     C92369   5.766   2.437   0.921 -0.7163  0.2428 -1.0050
  685MOL0     C92370   5.634   2.417   0.889  0.9518 -0.4194 -0.6185
  685MOL0     O92371   5.545   2.359   0.971  0.1513 -0.3003 -0.3164
  685MOL0     C92372   5.418   2.346   0.922  0.3425  0.7279  0.2875
  685MOL0     C92373   5.339   2.453   0.921  0.4130  0.3721  1.5143
  685MOL0     C92374   5.203   2.449   0.881 -0.3371  0.5404  0.1642
  685MOL0     C92375   5.158   2.323   0.834  0.0650 -0.7249 -0.1228
  685MOL0     O92376   5.028   2.318   0.797 -0.6378  0.4336  0.1897
  685MOL0     C92377   4.944   2.322   0.913  0.1726  0.2367 -0.2376
  685MOL0     C92378   4.819   2.241   0.872  0.4810  0.8631  0.0867
  685MOL0     C92379   4.764   2.164   0.982  0.4003  0.7624  0.5844
  685MOL0     C92380   4.635   2.100   0.945  0.9870  0.6211 -0.5643
  685MOL0     C92381   4.577   2.038   1.075  0.0884  0.5092  0.0417
  685MOL0     C92382   4.453   1.954   1.064 -0.6688  0.3363  0.5534
  685MOL0     C92383   4.416   1.902   1.208  0.8445  0.6432 -0.2614
  685MOL0     C92384   4.280   1.829   1.207 -0.4360  0.1466 -0.4926
  685MOL0    Cl92385   4.302   1.692   1.084  0.0232 -0.2559  0.9331
  685MOL0     C92386   5.239   2.214   0.820  0.7103  0.1145 -0.4891
  685MOL0     C92387   5.374   2.225   0.869  1.3758  0.1164  0.0067
  685MOL0     O92388   5.592   2.464   0.781  0.1404  0.4176 -0.1803
  685MOL0     C92389   5.860   2.494   0.824  0.7420 -0.3552 -0.8477
  685MOL0     C92390   5.999   2.503   0.848 -0.5924  0.2083  0.2392
  685MOL0     N92391   6.748   2.697   0.734  0.0012  0.6841  0.7649
  685MOL0     N92392   6.855   2.667   0.661 -0.1382 -0.8107 -0.8107
  685MOL0     C92393   8.124   2.318   1.162  0.2287  0.1168  0.4876
  685MOL0     C92394   8.250   2.275   1.144  0.0111 -0.0844  0.4558
  685MOL0     C92395   8.663   2.222   0.916 -0.1735  0.3394 -0.4081
  685MOL0     C92396   8.714   2.138   0.815 -0.3989 -0.1950 -1.1858
  685MOL0     C92397   8.853   2.101   0.802 -0.1789 -0.0552 -0.0515
  685MOL0     C92398   8.936   2.141   0.907 -0.5027 -0.0419 -0.6283
  685MOL0     O92399   9.070   2.119   0.896  0.5051 -0.0421 -0.2383
  685MOL0     C92400   9.140   2.090   1.013 -0.5299 -0.9226 -0.1830
  685MOL0     C92401   9.240   1.982   0.998  0.1562 -0.0964 -0.3991
  685MOL0     C92402   9.191   1.850   0.946 -0.0690 -0.6756 -0.6310
  685MOL0     C92403   9.276   1.728   0.990 -0.5019  0.2081 -0.3954
  685MOL0     C92404   9.423   1.747   0.995 -0.0979  0.4455 -0.1072
  685MOL0     C92405   9.539   1.772   1.008  0.5533  0.2415  0.2771
  685MOL0     C92406   8.883   2.223   1.015  0.1805  0.1710  0.1429
  685MOL0     C92407   8.751   2.253   1.018  0.1993 -0.4993  0.2586
  685MOL0     H92408   8.376   2.512   0.931  0.1090  1.5237  0.6888
  685MOL0     H92409   8.131   2.584   0.947 -0.5234  0.2870 -0.7386
  685MOL0     H92410   7.893   2.645   1.023 -0.3720 -0.8067  0.8018
  685MOL0     H92411   7.893   2.500   0.906  1.0749 -0.3511 -0.9488
  685MOL0     H92412   7.702   2.422   1.069  2.4728  0.8040  2.6501
  685MOL0     H92413   7.681   2.592   1.101 -2.8986  2.0449 -2.1174
  685MOL0     H92414   7.696   2.615   0.842  0.0550  1.4308  1.5954
  685MOL0     H92415   7.677   2.442   0.827 -0.0260  1.4634 -0.5327
  685MOL0     H92416   7.456   2.469   0.964 -1.1164  0.3117 -1.0451
  685MOL0     H92417   7.475   2.644   0.957  1.8873  1.7828 -0.3653
  685MOL0     H92418   7.440   2.632   0.713 -0.6286 -0.6737 -1.4956
  685MOL0     H92419   7.431   2.448   0.711  2.2925 -0.6047  1.6725
  685MOL0     H92420   7.240   2.453   0.844 -1.5255  0.6790  0.8785
  685MOL0     H92421   7.258   2.627   0.878 -2.6326  0.0932  0.1035
  685MOL0     H92422   7.178   2.665   0.648 -1.3737 -0.0494 -3.1185
  685MOL0     H92423   7.228   2.511   0.598 -1.5061  0.1275 -0.7351
  685MOL0     H92424   7.042   2.401   0.745 -0.3208  0.2071  0.5422
  685MOL0     H92425   7.001   2.456   0.586 -0.5890  0.2075  0.1667
  685MOL0     H92426   6.906   2.501   0.944 -1.2484 -0.3935  1.3806
  685MOL0     H92427   6.679   2.585   1.040  3.2594 -0.4543 -0.8234
  685MOL0     H92428   6.643   2.756   0.991 -0.0341 -0.0133  1.3132
  685MOL0     H92429   6.539   2.526   0.827 -1.1059  0.8065 -1.9836
  685MOL0     H92430   6.468   2.687   0.840 -1.8432  0.8727  2.1292
  685MOL0     H92431   6.403   2.631   1.087 -0.3231 -0.8115  0.1192
  685MOL0     H92432   6.430   2.464   1.034  2.8295 -0.3170 -4.1470
  685MOL0     H92433   6.277   2.527   0.837  0.0286 -0.9553  0.4012
  685MOL0     H92434   6.242   2.667   0.923 -1.3086 -0.8701 -0.8116
  685MOL0     H92435   6.005   2.409   1.176 -0.5223 -1.4937  0.2170
  685MOL0     H92436   5.650   2.398   1.187  0.1512  0.8521  0.3655
  685MOL0     H92437   5.726   2.234   1.155  0.9821 -0.7507 -2.2356
  685MOL0     H92438   5.809   2.361   1.252  0.9891  0.4440 -0.5325
  685MOL0     H92439   5.387   2.539   0.967 -0.9491  0.0283  3.7067
  685MOL0     H92440   5.134   2.532   0.893 -4.0780 -2.3705  0.6713
  685MOL0     H92441   4.998   2.269   0.992 -0.8769 -0.8061 -0.1791
  685MOL0     H92442   4.928   2.423   0.952  0.9642  0.4072 -0.3395
  685MOL0     H92443   4.745   2.308   0.826  0.3284  0.7573  0.1740
  685MOL0     H92444   4.837   2.175   0.787  0.8448  1.6184 -0.4407
  685MOL0     H92445   4.747   2.229   1.068  4.6432  2.6401  0.2817
  685MOL0     H92446   4.831   2.088   1.024 -0.5955  0.4458  1.6502
  685MOL0     H92447   4.565   2.174   0.904  0.3327  1.0474  1.2492
  685MOL0     H92448   4.660   2.022   0.872  0.0446  0.9607 -1.2789
  685MOL0     H92449   4.574   2.110   1.157 -0.7889  1.2183 -0.5927
  685MOL0     H92450   4.654   1.961   1.090 -0.6552 -0.3079 -0.2913
  685MOL0     H92451   4.371   2.012   1.021  0.1079  0.1024 -1.3483
  685MOL0     H92452   4.469   1.868   0.999 -0.0895 -1.0634  2.4681
  685MOL0     H92453   4.402   1.982   1.280  1.9333 -1.4398  2.4322
  685MOL0     H92454   4.494   1.833   1.241  1.2059  1.5445  0.8131
  685MOL0     H92455   4.187   1.881   1.184 -1.0276 -0.6716 -0.0210
  685MOL0     H92456   4.260   1.781   1.304 -0.1430  0.8182 -0.0890
  685MOL0     H92457   5.205   2.122   0.776 -4.0530  0.4800  1.7793
  685MOL0     H92458   5.449   2.149   0.849  1.5158  0.7664 -2.2195
  685MOL0     H92459   5.828   2.532   0.727  0.3831 -0.8565 -0.9306
  685MOL0     H92460   6.069   2.538   0.772 -0.6597  0.1455  0.1484
  685MOL0     H92461   8.054   2.265   1.227 -1.7789  1.3918 -0.5123
  685MOL0     H92462   8.303   2.196   1.196 -0.4433 -0.4476  0.3822
  685MOL0     H92463   8.643   2.096   0.744  0.6787 -0.5666 -2.0815
  685MOL0     H92464   8.882   2.050   0.711  0.1199  1.5366 -0.8939
  685MOL0     H92465   9.187   2.184   1.045  2.2688 -2.2711 -0.0710
  685MOL0     H92466   9.079   2.073   1.102 -1.0152  0.8927 -0.1135
  685MOL0     H92467   9.297   1.964   1.089  0.8339 -0.5772 -0.9078
  685MOL0     H92468   9.312   2.017   0.923 -0.1841 -1.5414 -1.4690
  685MOL0     H92469   9.190   1.858   0.837  0.4856 -0.7228 -0.6420
  685MOL0     H92470   9.086   1.840   0.978  0.8321 -2.1898  2.2383
  685MOL0     H92471   9.249   1.645   0.924 -1.6966  1.4283 -1.5082
  685MOL0     H92472   9.245   1.702   1.092  0.4627 -1.9515 -0.5958
  685MOL0     H92473   9.640   1.806   1.021 -0.2892  3.2646 -0.2187
  685MOL0     H92474   8.949   2.262   1.092  0.2402  1.2249 -0.4321
  685MOL0     H92475   8.720   2.319   1.099 -1.8566 -1.5877  0.4423
  686MOL0     O92476   6.288  10.550   6.721  0.1361 -0.0217 -0.2156
  686MOL0     C92477   6.316  10.488   6.820  0.7494 -0.1909 -0.3274
  686MOL0     O92478   6.236  10.478   6.936  0.1012  0.3957  0.8263
  686MOL0     C92479   6.106  10.534   6.936 -0.4312 -0.3578 -0.3696
  686MOL0     C92480   6.030  10.578   6.820  1.3485 -0.1471  0.2425
  686MOL0     C92481   5.896  10.605   6.840 -0.1326  0.4178  0.2000
  686MOL0     C92482   5.836  10.619   6.967  0.7827 -0.0434  1.2836
  686MOL0     O92483   5.717  10.677   6.993  0.3074 -0.1139 -0.2421
  686MOL0     C92484   5.670  10.768   6.900  0.3715 -0.0988 -0.1203
  686MOL0     C92485   5.525  10.820   6.942  0.5104 -0.0585  0.7922
  686MOL0     C92486   5.399  10.727   6.909 -0.4496  0.7017  0.5723
  686MOL0     C92487   5.255  10.779   6.955 -0.6476  0.0088  1.1048
  686MOL0     C92488   5.145  10.726   6.865  0.5803 -0.9273 -0.3071
  686MOL0     C92489   5.135  10.573   6.835  0.8668  0.1560  0.4254
  686MOL0     C92490   5.128  10.483   6.965 -0.5480  0.7215 -0.3852
  686MOL0     C92491   5.085  10.340   6.922  0.2893  0.7234 -0.1453
  686MOL0     N92492   4.948  10.349   6.876 -0.3517 -0.5148 -0.7969
  686MOL0     C92493   4.834  10.391   6.951 -0.1393 -0.3806  1.4549
  686MOL0     C92494   4.726  10.396   6.862 -0.6214  0.2324  0.2447
  686MOL0     C92495   4.593  10.436   6.906  0.2196  0.3593 -0.5248
  686MOL0     C92496   4.474  10.343   6.857 -0.2661  0.1086  0.6364
  686MOL0     C92497   4.452  10.356   6.708 -0.1418  0.5637  0.2617
  686MOL0     C92498   4.358  10.255   6.640 -0.1742 -0.3387 -0.7207
  686MOL0     O92499   4.229  10.280   6.688  0.2377 -0.4260  0.4194
  686MOL0     C92500   4.129  10.196   6.635 -0.6821  1.0366  0.0721
  686MOL0     C92501   4.009  10.204   6.690 -0.5145  0.0969 -0.3035
  686MOL0     C92502   3.912  10.107   6.646  0.0746 -0.3697  1.3178
  686MOL0     C92503   3.773  10.130   6.706 -0.6018  0.5545 -0.0129
  686MOL0     C92504   3.931  10.023   6.536 -1.1429  0.7705 -0.5277
  686MOL0     C92505   3.838   9.914   6.503  0.5580 -0.5607  0.1636
  686MOL0     O92506   3.706   9.933   6.513 -0.0115 -0.0805  0.2867
  686MOL0     C92507   3.609   9.834   6.526 -0.3316  0.3013 -0.4156
  686MOL0     C92508   3.475   9.878   6.518 -1.1298 -0.6243  0.0675
  686MOL0     C92509   3.364   9.791   6.545  0.7841  0.7683 -0.5657
  686MOL0     C92510   3.388   9.657   6.582 -0.7428 -0.0566  0.7474
  686MOL0     O92511   3.293   9.566   6.619  0.5253 -0.3548 -0.6999
  686MOL0     C92512   3.149   9.584   6.592 -1.1305  0.3105 -0.9957
  686MOL0     C92513   3.103   9.574   6.453 -0.5841  0.3853  1.0196
  686MOL0     C92514   2.949   9.573   6.463  0.3300  0.4683  0.0223
  686MOL0     C92515   2.894   9.538   6.324  0.0930  0.0760 -0.0909
  686MOL0     C92516   2.736   9.572   6.311  0.1692  0.9134  0.8229
  686MOL0     C92517   2.648   9.476   6.391  0.7007  0.5819  0.3703
  686MOL0     C92518   2.492   9.514   6.378 -0.0714  0.7006 -0.4400
  686MOL0     C92519   2.408   9.432   6.467 -0.2782  0.4224 -1.0679
  686MOL0    Cl92520   2.238   9.476   6.429  0.3606  0.1096  0.5139
  686MOL0     C92521   3.524   9.617   6.598 -0.4501 -0.3020  0.7093
  686MOL0     C92522   3.632   9.702   6.569  0.1966  0.5156 -0.4959
  686MOL0     O92523   3.885   9.820   6.443 -0.1070  0.4368 -0.3783
  686MOL0     C92524   4.049  10.040   6.466 -0.6895 -0.0365  0.3755
  686MOL0     C92525   4.154  10.118   6.516  0.6926 -0.1975  0.0104
  686MOL0     N92526   4.787  10.355   6.735 -0.4891 -0.1939 -0.4598
  686MOL0     N92527   4.908  10.326   6.755  0.1060 -0.0095 -0.2526
  686MOL0     C92528   5.918  10.595   7.078  0.9335 -0.1236 -0.1988
  686MOL0     C92529   6.045  10.552   7.061 -0.6467 -0.7755 -1.6541
  686MOL0     C92530   6.445  10.411   6.823  0.1871 -0.4444 -0.2084
  686MOL0     C92531   6.496  10.382   6.956 -0.5835 -0.1604  0.0966
  686MOL0     C92532   6.607  10.298   6.959  0.0306  1.0494  0.3015
  686MOL0     C92533   6.677  10.247   6.845  0.4891  0.8572 -0.6787
  686MOL0     O92534   6.793  10.177   6.849  0.5910  0.4537  0.3084
  686MOL0     C92535   6.862  10.171   6.973  0.9735  0.2522 -0.1786
  686MOL0     C92536   6.992  10.094   6.988 -0.1899  0.3374  0.0567
  686MOL0     C92537   6.979   9.942   6.966  0.4839 -0.1620  0.4339
  686MOL0     C92538   7.113   9.869   6.963  0.0026 -0.6629  0.4014
  686MOL0     C92539   7.192   9.877   6.835 -0.2865 -0.1487 -0.2951
  686MOL0     C92540   7.256   9.870   6.730  0.0021  0.3650  0.7410
  686MOL0     C92541   6.621  10.283   6.720 -0.2315  0.7876  0.6027
  686MOL0     C92542   6.509  10.367   6.708  0.0518  0.6953 -0.6607
  686MOL0     H92543   6.072  10.582   6.720 -0.6243 -0.7006 -0.6630
  686MOL0     H92544   5.840  10.626   6.749  2.2745  2.5940 -0.9019
  686MOL0     H92545   5.735  10.853   6.876  0.9078 -1.3040 -3.4523
  686MOL0     H92546   5.651  10.716   6.805 -1.3089  1.5575 -0.7407
  686MOL0     H92547   5.518  10.835   7.050 -1.4659 -1.4866  0.9252
  686MOL0     H92548   5.514  10.918   6.894 -1.0835 -1.1987 -1.3117
  686MOL0     H92549   5.397  10.703   6.803  2.8713 -3.0898  1.1354
  686MOL0     H92550   5.407  10.633   6.964 -2.4809 -0.7496 -1.4329
  686MOL0     H92551   5.221  10.746   7.054 -0.6529 -1.1700  0.7265
  686MOL0     H92552   5.264  10.888   6.958 -1.4893  0.1778 -0.8622
  686MOL0     H92553   5.049  10.757   6.908  1.3464  1.0391  0.0945
  686MOL0     H92554   5.162  10.776   6.769  1.3746  0.4247  0.5033
  686MOL0     H92555   5.043  10.576   6.776 -0.2545  2.7561  2.1190
  686MOL0     H92556   5.218  10.540   6.772 -0.0813 -0.0474 -0.7426
  686MOL0     H92557   5.231  10.473   7.001 -0.6742  3.3076  0.8909
  686MOL0     H92558   5.057  10.520   7.039 -0.5425 -1.6200  0.8826
  686MOL0     H92559   5.099  10.262   6.998  3.9551 -1.1253 -2.3909
  686MOL0     H92560   5.147  10.303   6.839 -2.2671 -4.0300 -0.3039
  686MOL0     H92561   4.822  10.431   7.051 -1.1106  2.2161  0.3742
  686MOL0     H92562   4.584  10.462   7.012 -0.5682  0.8602 -0.7046
  686MOL0     H92563   4.570  10.530   6.855 -1.4328  1.1380  1.5160
  686MOL0     H92564   4.380  10.368   6.907 -2.1522 -2.3716 -1.3905
  686MOL0     H92565   4.501  10.237   6.862  0.8883  0.3241 -0.5291
  686MOL0     H92566   4.546  10.353   6.653 -0.8525  1.2066 -1.0352
  686MOL0     H92567   4.417  10.459   6.690 -1.1965  0.0581 -0.7552
  686MOL0     H92568   4.395  10.155   6.663 -3.1804 -1.3187  0.3226
  686MOL0     H92569   4.367  10.278   6.533  1.2230  2.1104 -0.1535
  686MOL0     H92570   3.988  10.284   6.760 -1.3624 -0.6206  0.2669
  686MOL0     H92571   3.776  10.212   6.778 -1.6553  1.0672 -0.5239
  686MOL0     H92572   3.702  10.159   6.627  0.5429  1.3120 -0.7955
  686MOL0     H92573   3.743  10.043   6.766 -0.2751 -1.0727 -2.0674
  686MOL0     H92574   3.460   9.983   6.495  0.1738 -0.4517 -0.0369
  686MOL0     H92575   3.262   9.828   6.540  1.0728  2.2542  2.3455
  686MOL0     H92576   3.097   9.511   6.656 -1.1345  0.3300 -0.9756
  686MOL0     H92577   3.120   9.678   6.639 -1.2052  2.1071 -4.3282
  686MOL0     H92578   3.146   9.661   6.401  1.4174 -1.5700 -0.7970
  686MOL0     H92579   3.134   9.487   6.395  0.8839  1.7377 -0.3456
  686MOL0     H92580   2.930   9.678   6.487 -1.3542  1.1754 -3.7167
  686MOL0     H92581   2.901   9.503   6.531 -2.5445  0.3651 -1.9548
  686MOL0     H92582   2.945   9.593   6.244 -0.7540 -0.8284 -1.3000
  686MOL0     H92583   2.908   9.430   6.313  1.2091  0.1978  0.0552
  686MOL0     H92584   2.704   9.570   6.207 -0.3507 -2.1490  0.9545
  686MOL0     H92585   2.714   9.676   6.338 -1.1797  1.5707 -2.3612
  686MOL0     H92586   2.660   9.373   6.358  3.3629  1.0708 -0.4439
  686MOL0     H92587   2.679   9.486   6.495 -0.3031  3.4893  0.4903
  686MOL0     H92588   2.463   9.505   6.273 -1.4279 -1.8366  0.0726
  686MOL0     H92589   2.473   9.619   6.402 -2.9350 -0.2012  1.8206
  686MOL0     H92590   2.422   9.449   6.574 -1.8873  0.7293 -0.8751
  686MOL0     H92591   2.430   9.328   6.440 -1.6325  0.2906 -1.7321
  686MOL0     H92592   3.534   9.518   6.641 -1.6534 -0.7413  0.0418
  686MOL0     H92593   3.734   9.664   6.567 -0.2965 -0.8263 -1.2584
  686MOL0     H92594   4.080   9.976   6.384 -1.1426 -2.0794  1.7070
  686MOL0     H92595   4.255  10.111   6.476  0.8607  0.6538  0.2667
  686MOL0     H92596   5.881  10.631   7.173  2.6986  4.7118 -1.0574
  686MOL0     H92597   6.100  10.542   7.155 -0.2173  2.8707 -1.3910
  686MOL0     H92598   6.440  10.408   7.045 -2.5256  3.0570 -1.8699
  686MOL0     H92599   6.639  10.264   7.057 -2.6428 -0.4953  0.7326
  686MOL0     H92600   6.892  10.275   6.989  0.5631  0.7897 -2.5047
  686MOL0     H92601   6.786  10.128   7.040  1.4748  0.4705  0.5385
  686MOL0     H92602   7.021  10.110   7.092 -2.7091  0.4820  0.8198
  686MOL0     H92603   7.067  10.138   6.922 -0.0715  0.9356  0.5791
  686MOL0     H92604   6.928   9.927   6.869  1.0800 -1.2666  0.2739
  686MOL0     H92605   6.908   9.893   7.033  1.1953 -2.4974 -0.4245
  686MOL0     H92606   7.081   9.765   6.958  0.3515 -0.7025 -2.0125
  686MOL0     H92607   7.172   9.885   7.054 -1.9115  2.4348  1.2709
  686MOL0     H92608   7.315   9.858   6.641 -0.5757  0.6367  0.3064
  686MOL0     H92609   6.672  10.249   6.631  0.5999  3.2701  0.0570
  686MOL0     H92610   6.453  10.401   6.622 -0.8535 -0.5294 -0.5804
  687MOL0     O92611   7.776   5.575   5.611 -0.3864  0.7101 -0.3112
  687MOL0     C92612   7.857   5.666   5.628  0.8410 -0.7851  0.3287
  687MOL0     O92613   7.846   5.790   5.580 -0.8370  0.4732  1.0939
  687MOL0     C92614   7.745   5.818   5.488  0.9568 -0.1381 -0.1672
  687MOL0     C92615   7.667   5.931   5.490 -0.1630  0.2040 -0.3004
  687MOL0     C92616   7.562   5.956   5.400 -0.1517 -0.0363  0.5542
  687MOL0     C92617   7.552   5.876   5.282 -0.1258  0.4301 -0.1014
  687MOL0     O92618   7.450   5.882   5.190 -0.2049 -0.4494 -0.5287
  687MOL0     C92619   7.318   5.954   5.229  0.7011 -0.4475  0.7116
  687MOL0     C92620   7.231   5.873   5.330 -0.3534  0.2098 -0.4453
  687MOL0     C92621   7.108   5.943   5.375  0.1899  0.0668  0.0879
  687MOL0     C92622   7.004   5.938   5.255 -0.5021 -0.2620  0.2895
  687MOL0     C92623   6.883   6.028   5.284  1.2676 -0.6557 -0.1127
  687MOL0     C92624   6.774   6.026   5.177  0.5085  1.1048 -0.0309
  687MOL0     C92625   6.668   6.123   5.219  0.6721  0.9462 -0.2576
  687MOL0     C92626   6.537   6.097   5.144 -0.1760 -0.3363 -0.0567
  687MOL0     N92627   6.459   6.220   5.182 -0.2571  0.7914 -0.5642
  687MOL0     C92628   6.332   6.199   5.217 -0.1647 -0.3381  0.0350
  687MOL0     C92629   6.285   6.324   5.211  0.0317  0.4472 -0.2303
  687MOL0     C92630   6.158   6.375   5.268 -0.6334 -0.5095  0.6691
  687MOL0     C92631   6.083   6.456   5.163  0.5278 -0.0414  0.1729
  687MOL0     C92632   5.938   6.399   5.153  0.4967 -0.3434  0.2443
  687MOL0     C92633   5.851   6.436   5.034 -0.4634 -0.3609  0.8146
  687MOL0     O92634   5.719   6.403   5.067  0.4295 -1.1016  0.2840
  687MOL0     C92635   5.612   6.460   4.996 -0.0195  0.2483  0.3811
  687MOL0     C92636   5.615   6.510   4.866  0.4544  0.0527  0.0664
  687MOL0     C92637   5.492   6.572   4.810 -0.6953 -0.0665 -0.4233
  687MOL0     C92638   5.504   6.643   4.675 -0.4430  0.5995 -1.1292
  687MOL0     C92639   5.377   6.581   4.889 -0.1962  0.0632  0.7704
  687MOL0     C92640   5.246   6.639   4.845 -0.3731  0.1477 -0.2876
  687MOL0     O92641   5.204   6.640   4.715  0.0966  1.0831  0.0967
  687MOL0     C92642   5.076   6.663   4.675  0.1924  0.0959  0.0315
  687MOL0     C92643   4.969   6.732   4.743 -0.4200  0.6956 -0.2964
  687MOL0     C92644   4.846   6.757   4.682  0.5320 -0.6615 -0.3138
  687MOL0     C92645   4.822   6.713   4.556 -0.3034 -0.3436  0.6209
  687MOL0     O92646   4.702   6.738   4.489  0.2172 -0.6247 -0.4238
  687MOL0     C92647   4.581   6.745   4.568 -0.3870  0.1391  0.4732
  687MOL0     C92648   4.471   6.770   4.469  0.4441  0.6462 -0.1955
  687MOL0     C92649   4.350   6.821   4.552 -0.4673  0.3469 -0.5353
  687MOL0     C92650   4.230   6.870   4.466 -0.2340 -0.4614  0.4855
  687MOL0     C92651   4.118   6.922   4.557  0.3458 -0.9756 -0.2706
  687MOL0     C92652   3.984   6.950   4.478  0.2110  0.4176 -0.8062
  687MOL0     C92653   3.869   7.004   4.566 -0.4743  0.0876  0.3930
  687MOL0     C92654   3.731   6.984   4.482 -0.5213  0.6860 -0.2415
  687MOL0    Cl92655   3.742   7.087   4.338 -0.2121  0.1493 -0.2220
  687MOL0     C92656   4.919   6.655   4.487  0.2606 -0.0403 -0.6997
  687MOL0     C92657   5.043   6.629   4.549 -0.2765 -0.3567  0.3276
  687MOL0     O92658   5.183   6.686   4.938  0.0030  0.3968  0.8622
  687MOL0     C92659   5.387   6.526   5.014  0.1991 -0.6565 -0.1242
  687MOL0     C92660   5.496   6.456   5.060  0.8096 -0.0453 -0.1385
  687MOL0     N92661   6.379   6.415   5.165  0.0882  0.3324  0.5131
  687MOL0     N92662   6.481   6.348   5.145 -0.2019 -0.3481  0.2776
  687MOL0     C92663   7.643   5.764   5.276 -0.2431  0.0539  0.0345
  687MOL0     C92664   7.732   5.731   5.386  0.4830  0.7732 -0.3101
  687MOL0     C92665   7.977   5.640   5.700  1.0615 -0.9653 -0.1301
  687MOL0     C92666   8.009   5.504   5.729 -0.4957  0.4305 -1.1291
  687MOL0     C92667   8.132   5.476   5.794 -0.9627 -0.0040 -0.7777
  687MOL0     C92668   8.227   5.572   5.822  0.1246  0.6262  0.5717
  687MOL0     O92669   8.350   5.544   5.888  0.4085 -0.4736  0.0415
  687MOL0     C92670   8.408   5.407   5.865  0.4578 -0.3101  0.4861
  687MOL0     C92671   8.558   5.401   5.903  0.5000  0.1263  0.2986
  687MOL0     C92672   8.595   5.259   5.884 -0.5617 -1.2181 -0.2421
  687MOL0     C92673   8.743   5.258   5.932 -0.4644  0.2882 -1.3640
  687MOL0     C92674   8.819   5.141   5.877 -0.2754  0.7594  0.0645
  687MOL0     C92675   8.867   5.034   5.843 -0.5284 -0.6267  0.1046
  687MOL0     C92676   8.191   5.706   5.790 -0.3580 -0.2385  0.6047
  687MOL0     C92677   8.069   5.735   5.729  0.5243 -0.7429  0.1827
  687MOL0     H92678   7.684   5.993   5.577  0.5223 -1.4201  0.7531
  687MOL0     H92679   7.512   6.052   5.403 -0.3156 -0.0969 -0.0515
  687MOL0     H92680   7.335   6.057   5.261  0.9874 -0.0465 -0.6567
  687MOL0     H92681   7.269   5.966   5.133  3.5411  0.3804 -0.7409
  687MOL0     H92682   7.219   5.769   5.298 -1.6561  0.4734 -0.8986
  687MOL0     H92683   7.292   5.873   5.421 -1.3602 -0.6764  0.2538
  687MOL0     H92684   7.061   5.908   5.467  0.0863  1.6703  0.6693
  687MOL0     H92685   7.129   6.049   5.389 -0.2636  0.5604 -2.4336
  687MOL0     H92686   7.049   5.974   5.161 -2.5960 -1.7228 -1.3612
  687MOL0     H92687   6.973   5.836   5.234  0.3448 -0.5357  0.3261
  687MOL0     H92688   6.846   6.015   5.386  0.4900 -0.2386 -0.3306
  687MOL0     H92689   6.933   6.126   5.278  0.5519 -0.1285  1.7067
  687MOL0     H92690   6.822   6.046   5.080 -0.7651 -2.3856 -1.5387
  687MOL0     H92691   6.731   5.926   5.172 -1.1516  1.8330 -1.8865
  687MOL0     H92692   6.647   6.115   5.326  0.9306  0.8078 -0.2160
  687MOL0     H92693   6.700   6.227   5.212 -0.8184  1.8269  3.4713
  687MOL0     H92694   6.481   6.007   5.171  0.0580 -0.8253 -1.1670
  687MOL0     H92695   6.559   6.101   5.037 -1.8181  3.1352 -0.4305
  687MOL0     H92696   6.283   6.105   5.242  0.4148 -0.1436  2.0816
  687MOL0     H92697   6.090   6.293   5.295 -0.8276  0.2623  2.7437
  687MOL0     H92698   6.175   6.438   5.356  0.4047  0.1793 -0.0009
  687MOL0     H92699   6.123   6.457   5.061 -1.6461 -1.2047 -0.7559
  687MOL0     H92700   6.089   6.559   5.198  0.3500  0.3572 -0.9429
  687MOL0     H92701   5.884   6.424   5.244 -2.3959 -0.2863 -1.3863
  687MOL0     H92702   5.933   6.290   5.138 -1.9194 -0.2228 -0.2096
  687MOL0     H92703   5.889   6.386   4.944  0.6204 -2.5975  2.4301
  687MOL0     H92704   5.859   6.544   5.018 -0.2207 -0.8520 -3.4871
  687MOL0     H92705   5.707   6.504   4.809 -0.1249 -0.2045 -0.8726
  687MOL0     H92706   5.413   6.702   4.658 -1.6224 -0.8925 -0.3343
  687MOL0     H92707   5.591   6.709   4.674 -0.1095  0.1798 -0.2690
  687MOL0     H92708   5.508   6.566   4.597  0.0215 -1.1570  0.5708
  687MOL0     H92709   4.963   6.752   4.849 -0.7966 -0.5703 -0.0595
  687MOL0     H92710   4.760   6.792   4.739 -0.5937  0.0547 -2.3221
  687MOL0     H92711   4.561   6.655   4.626  2.8236 -1.9698 -1.3724
  687MOL0     H92712   4.595   6.829   4.636 -2.9031  0.3251  0.8730
  687MOL0     H92713   4.497   6.848   4.397  0.9232 -0.5325 -1.3630
  687MOL0     H92714   4.449   6.681   4.409  0.8553  1.7944 -2.1217
  687MOL0     H92715   4.388   6.902   4.616  2.6149 -2.5232  1.5991
  687MOL0     H92716   4.305   6.748   4.620  4.3513  0.2907  3.1062
  687MOL0     H92717   4.261   6.945   4.392  0.6658 -2.1081 -0.8927
  687MOL0     H92718   4.202   6.781   4.407  0.3784 -0.5606  0.3375
  687MOL0     H92719   4.154   7.017   4.597 -2.0080 -1.0888  2.4231
  687MOL0     H92720   4.099   6.855   4.642 -3.2194  0.8063  0.5452
  687MOL0     H92721   3.998   7.034   4.409 -0.0861  1.4211  0.3237
  687MOL0     H92722   3.953   6.863   4.420 -0.9225  1.1365 -1.2986
  687MOL0     H92723   3.883   7.110   4.589  4.4126 -0.1451 -0.4024
  687MOL0     H92724   3.871   6.950   4.661  0.1085  1.7981  1.3883
  687MOL0     H92725   3.650   7.016   4.548  0.8459 -1.9812  3.0357
  687MOL0     H92726   3.717   6.878   4.457  1.0702  0.3735  0.0755
  687MOL0     H92727   4.897   6.607   4.392 -1.0330 -0.8933 -0.0119
  687MOL0     H92728   5.115   6.569   4.494  5.2588  4.5858  1.1762
  687MOL0     H92729   5.296   6.517   5.072  0.4267 -0.0546  0.3270
  687MOL0     H92730   5.490   6.410   5.158  0.1127  0.3530  0.0105
  687MOL0     H92731   7.632   5.694   5.194  0.9469  0.9587 -0.9307
  687MOL0     H92732   7.795   5.643   5.377  0.9886  1.2992 -2.8150
  687MOL0     H92733   7.945   5.421   5.701 -1.4680 -0.3056  2.6874
  687MOL0     H92734   8.145   5.375   5.830 -0.3957  1.4515  3.7394
  687MOL0     H92735   8.343   5.327   5.902 -0.1913  0.9734  2.2716
  687MOL0     H92736   8.394   5.399   5.757  0.2896  3.3773  0.0902
  687MOL0     H92737   8.557   5.441   6.004  0.2098 -1.5599  1.0022
  687MOL0     H92738   8.631   5.451   5.840  1.3232 -0.6462  0.6205
  687MOL0     H92739   8.592   5.235   5.778  0.6326 -0.9604 -0.3523
  687MOL0     H92740   8.535   5.190   5.944  1.1396 -3.5648 -1.0857
  687MOL0     H92741   8.737   5.261   6.041  2.9184  1.6219 -1.1157
  687MOL0     H92742   8.797   5.346   5.898  0.8680 -0.1767 -0.5240
  687MOL0     H92743   8.905   4.938   5.815 -0.6157 -0.9170  0.9535
  687MOL0     H92744   8.256   5.789   5.813 -0.1793  0.1084 -1.0438
  687MOL0     H92745   8.037   5.838   5.719 -0.3534 -0.8967  1.2385
  688MOL0     O92746   4.267   7.582   3.355 -0.0507 -0.5071 -0.5265
  688MOL0     C92747   4.303   7.575   3.468 -0.9391 -0.3844 -0.5393
  688MOL0     O92748   4.232   7.617   3.574 -1.0443 -0.1992 -0.1104
  688MOL0     C92749   4.113   7.687   3.559  0.6749 -0.2738  0.2503
  688MOL0     C92750   3.992   7.613   3.530  0.3237  0.4137  0.4140
  688MOL0     C92751   3.879   7.680   3.501  0.0256  0.1791  0.8775
  688MOL0     C92752   3.878   7.813   3.487  0.5408 -0.9021  0.0584
  688MOL0     O92753   3.775   7.879   3.432  0.1026 -0.3333 -0.0736
  688MOL0     C92754   3.676   7.907   3.535  0.0200 -0.1693  0.6805
  688MOL0     C92755   3.544   7.976   3.485 -0.1329 -1.0253  0.6685
  688MOL0     C92756   3.468   7.875   3.391 -0.1363 -1.3563  0.0601
  688MOL0     C92757   3.341   7.935   3.332  0.0994  0.1583  0.4368
  688MOL0     C92758   3.240   7.836   3.279  0.0986  0.2472 -0.0034
  688MOL0     C92759   3.161   7.746   3.378  0.2126  0.0352 -0.1202
  688MOL0     C92760   3.081   7.818   3.490 -0.0344 -0.5340 -0.5322
  688MOL0     C92761   3.000   7.940   3.433  0.5321 -0.2210 -0.7969
  688MOL0     N92762   2.901   7.893   3.333  0.4229  0.4283  0.3929
  688MOL0     C92763   2.774   7.838   3.371 -0.2826 -0.2896  0.8468
  688MOL0     C92764   2.723   7.812   3.251  0.1343 -0.0543 -0.6416
  688MOL0     C92765   2.577   7.772   3.234 -0.0530 -0.2298  0.7750
  688MOL0     C92766   2.481   7.890   3.272  0.0185 -0.5793 -0.5213
  688MOL0     C92767   2.350   7.825   3.257  0.1134  0.2443 -0.8234
  688MOL0     C92768   2.236   7.929   3.281 -0.1374  0.4751 -0.2466
  688MOL0     O92769   2.108   7.854   3.268  0.3594 -0.2662  0.2591
  688MOL0     C92770   1.993   7.927   3.263 -0.6900  0.4910 -0.2316
  688MOL0     C92771   1.968   8.015   3.369  0.4674  0.9679  0.2074
  688MOL0     C92772   1.852   8.099   3.365  0.1835 -0.4235 -0.1961
  688MOL0     C92773   1.820   8.170   3.495  0.0460  0.6330 -0.4688
  688MOL0     C92774   1.771   8.103   3.245  0.5785 -0.2650 -0.1157
  688MOL0     C92775   1.648   8.195   3.230 -0.1952  0.7727 -0.0493
  688MOL0     O92776   1.578   8.185   3.109 -0.0918 -0.2847 -0.1923
  688MOL0     C92777   1.442   8.226   3.110 -0.1088  0.6491  0.0883
  688MOL0     C92778   1.333   8.142   3.130  0.3712 -0.4464 -0.4316
  688MOL0     C92779   1.197   8.197   3.130  0.4974  0.1737  0.6845
  688MOL0     C92780   1.175   8.333   3.104  0.4047 -0.3342 -0.4973
  688MOL0     O92781   1.055   8.395   3.085 -0.0113  0.2205  0.5444
  688MOL0     C92782   0.942   8.314   3.092  0.3809  0.1103 -0.2277
  688MOL0     C92783   0.822   8.408   3.078 -0.1842  0.2781  0.0949
  688MOL0     C92784   0.793   8.438   2.931  0.1327  0.1711 -0.3643
  688MOL0     C92785   0.667   8.530   2.929 -0.8106  0.2759  0.5019
  688MOL0     C92786   0.591   8.535   2.801  0.0294 -0.8274  0.8787
  688MOL0     C92787   0.460   8.611   2.823 -0.3444  0.5492 -0.3639
  688MOL0     C92788   0.355   8.611   2.711  0.7268  0.0625  0.1479
  688MOL0     C92789   0.253   8.733   2.740 -0.0809 -0.2965 -0.4176
  688MOL0    Cl92790   0.090   8.717   2.651 -0.0291  0.3847  0.0559
  688MOL0     C92791   1.295   8.405   3.085 -0.5912  0.6073  0.2084
  688MOL0     C92792   1.428   8.357   3.086 -0.1564 -0.0128  0.2445
  688MOL0     O92793   1.606   8.254   3.332 -0.1057  0.3471 -0.0211
  688MOL0     C92794   1.810   8.017   3.142  0.1808 -0.2151  0.1529
  688MOL0     C92795   1.914   7.929   3.149 -1.0933 -0.1651  0.6003
  688MOL0     N92796   2.828   7.813   3.155  0.6606  0.6938  0.3974
  688MOL0     N92797   2.934   7.862   3.199  0.6965  0.1313 -0.0641
  688MOL0     C92798   3.989   7.893   3.516 -0.6953 -0.6751 -0.1713
  688MOL0     C92799   4.111   7.828   3.547  0.5362 -0.5866  0.0109
  688MOL0     C92800   4.429   7.510   3.499  0.3264  0.1857  1.2199
  688MOL0     C92801   4.496   7.515   3.623 -0.3280  0.4583 -0.6253
  688MOL0     C92802   4.624   7.454   3.640 -0.2560 -0.1251  0.1419
  688MOL0     C92803   4.692   7.401   3.533 -0.6296 -0.3025 -0.1137
  688MOL0     O92804   4.820   7.353   3.562 -0.1608  0.1620  0.0687
  688MOL0     C92805   4.903   7.289   3.467 -0.0317 -0.2942  0.3112
  688MOL0     C92806   5.019   7.216   3.537 -0.8659 -0.2629 -0.3388
  688MOL0     C92807   5.125   7.156   3.436 -0.7591 -0.6553  0.8367
  688MOL0     C92808   5.265   7.149   3.497 -0.4739 -0.1728 -0.3853
  688MOL0     C92809   5.352   7.097   3.388  1.2023 -1.0643  0.7524
  688MOL0     C92810   5.411   7.051   3.299  0.2359 -0.4904  0.3934
  688MOL0     C92811   4.631   7.405   3.409  0.3838  0.2054  0.1620
  688MOL0     C92812   4.501   7.448   3.397 -0.4095 -0.7059  0.3038
  688MOL0     H92813   3.988   7.505   3.539  0.3004  0.5214  2.1075
  688MOL0     H92814   3.781   7.635   3.489 -0.0382  0.8729 -2.1382
  688MOL0     H92815   3.636   7.817   3.581 -2.6924  1.8062  2.4687
  688MOL0     H92816   3.723   7.963   3.616  0.0143 -0.3683  0.8190
  688MOL0     H92817   3.480   8.006   3.569 -0.9766  2.2273 -0.9809
  688MOL0     H92818   3.574   8.067   3.432  0.8335 -1.5699  0.2590
  688MOL0     H92819   3.536   7.845   3.311 -0.0136 -0.1715 -0.2894
  688MOL0     H92820   3.442   7.784   3.446 -1.3129 -0.6767  0.6609
  688MOL0     H92821   3.292   8.003   3.402 -0.2529  0.6487 -0.2646
  688MOL0     H92822   3.386   7.999   3.255 -0.7437  3.2004  2.3076
  688MOL0     H92823   3.170   7.889   3.213 -1.2608 -2.5831 -0.9904
  688MOL0     H92824   3.276   7.763   3.205 -1.9107 -2.0173  1.1118
  688MOL0     H92825   3.105   7.684   3.308 -1.7781  3.3270 -1.6766
  688MOL0     H92826   3.234   7.683   3.430 -2.0174 -1.2298  1.6596
  688MOL0     H92827   3.002   7.758   3.536 -0.6650  0.3897 -0.3973
  688MOL0     H92828   3.150   7.854   3.566  0.3419  2.7996 -2.2456
  688MOL0     H92829   3.070   8.014   3.393 -0.4370  1.3710  0.3171
  688MOL0     H92830   2.950   7.981   3.521 -0.1887 -0.1767 -1.2228
  688MOL0     H92831   2.704   7.846   3.454 -0.7932  0.9363  0.3265
  688MOL0     H92832   2.570   7.746   3.127 -0.1076  1.0407  0.4588
  688MOL0     H92833   2.544   7.678   3.281 -2.2154 -1.3430 -2.5718
  688MOL0     H92834   2.494   7.976   3.206  0.3651 -0.0163  0.2654
  688MOL0     H92835   2.500   7.928   3.373 -1.7624 -0.8172 -0.0598
  688MOL0     H92836   2.347   7.746   3.333 -0.5046 -0.1602 -1.2580
  688MOL0     H92837   2.353   7.773   3.161  1.2385 -1.7896  0.2506
  688MOL0     H92838   2.231   8.008   3.206 -0.5016  0.5125 -0.1839
  688MOL0     H92839   2.244   7.972   3.381  0.2231 -1.8669  0.7974
  688MOL0     H92840   2.029   8.031   3.457  1.2545  3.9245 -0.7683
  688MOL0     H92841   1.901   8.162   3.568 -0.9852  2.3997  0.9636
  688MOL0     H92842   1.807   8.277   3.477  1.5053  1.7361  4.0031
  688MOL0     H92843   1.728   8.130   3.538 -0.5035  1.6680 -0.6545
  688MOL0     H92844   1.334   8.034   3.143  0.6424 -0.5894 -1.5629
  688MOL0     H92845   1.113   8.131   3.147 -0.1473  0.7683 -0.1178
  688MOL0     H92846   0.936   8.237   3.014  1.1507 -1.9571  1.6317
  688MOL0     H92847   0.931   8.247   3.178 -1.8811 -2.1608 -2.1027
  688MOL0     H92848   0.735   8.357   3.121 -0.9471  1.4808  0.0138
  688MOL0     H92849   0.860   8.488   3.142  3.2654 -1.2815  0.2328
  688MOL0     H92850   0.767   8.341   2.888  3.0874 -0.6174 -0.5779
  688MOL0     H92851   0.878   8.475   2.872 -0.4639 -1.7585 -2.5792
  688MOL0     H92852   0.588   8.489   2.993 -0.9384  1.0416  0.8416
  688MOL0     H92853   0.693   8.629   2.968  1.3421  0.6437 -1.6351
  688MOL0     H92854   0.567   8.434   2.765  1.3351 -0.5333 -0.9224
  688MOL0     H92855   0.639   8.590   2.720 -1.0713 -1.3522 -0.1665
  688MOL0     H92856   0.394   8.568   2.900 -0.4436  2.5357  0.7183
  688MOL0     H92857   0.490   8.713   2.847  3.6544 -0.6796  0.7048
  688MOL0     H92858   0.292   8.522   2.702 -0.4128  0.9956 -1.5053
  688MOL0     H92859   0.401   8.637   2.616 -2.8458  1.5026 -1.3646
  688MOL0     H92860   0.297   8.832   2.726 -1.3281 -0.0639 -3.6330
  688MOL0     H92861   0.219   8.722   2.843 -0.0047 -1.1722 -0.4752
  688MOL0     H92862   1.283   8.513   3.082 -2.0388  0.4800  0.4980
  688MOL0     H92863   1.519   8.416   3.083 -0.2835  0.1812 -3.5809
  688MOL0     H92864   1.754   8.027   3.049 -0.5009  2.3722  0.7655
  688MOL0     H92865   1.924   7.860   3.066  0.4170  0.9011 -0.1520
  688MOL0     H92866   3.991   8.001   3.509 -0.4376 -0.6446  0.3402
  688MOL0     H92867   4.204   7.884   3.559  1.3313 -2.1481  1.5715
  688MOL0     H92868   4.442   7.547   3.711  1.8617  1.8551  0.3099
  688MOL0     H92869   4.675   7.448   3.736 -1.3566 -2.4597  0.6549
  688MOL0     H92870   4.846   7.215   3.410  0.5368 -0.1245 -0.4996
  688MOL0     H92871   4.935   7.367   3.397 -0.4966  1.4753  1.9650
  688MOL0     H92872   4.976   7.127   3.583  3.3543 -3.5206 -2.0619
  688MOL0     H92873   5.067   7.286   3.605  1.4960  0.6266 -2.7573
  688MOL0     H92874   5.139   7.216   3.345  1.0130  0.2792  1.6686
  688MOL0     H92875   5.089   7.062   3.393  0.3617 -0.4210 -0.7184
  688MOL0     H92876   5.263   7.070   3.572 -0.6417  0.6116  0.4476
  688MOL0     H92877   5.304   7.241   3.542  0.2955 -0.9372  0.5507
  688MOL0     H92878   5.468   7.009   3.218 -0.9801 -0.5212 -0.4789
  688MOL0     H92879   4.684   7.373   3.320 -1.2735 -0.5582 -0.5894
  688MOL0     H92880   4.471   7.452   3.293  1.8897 -0.9563 -0.4312
  689MOL0     O92881   5.785  10.629  10.632  0.8763  0.2353 -0.8346
  689MOL0     C92882   5.713  10.658  10.541 -0.2055 -0.0551  0.6298
  689MOL0     O92883   5.746  10.640  10.410  0.8113  0.7879  0.4408
  689MOL0     C92884   5.851  10.563  10.378  0.7609 -0.5373  0.4774
  689MOL0     C92885   5.954  10.622  10.302  0.5301  0.3153 -0.4306
  689MOL0     C92886   6.058  10.546  10.251 -0.2769  0.2368 -0.5770
  689MOL0     C92887   6.062  10.411  10.276  0.4550  0.6738  0.0713
  689MOL0     O92888   6.162  10.334  10.215  0.2052  0.5692 -0.3057
  689MOL0     C92889   6.131  10.194  10.199 -0.1715  0.5419  0.0184
  689MOL0     C92890   6.244  10.118  10.112  0.9001 -0.3968  0.3262
  689MOL0     C92891   6.379  10.127  10.184  0.6236 -0.5596  0.5602
  689MOL0     C92892   6.479  10.035  10.124 -0.1546  1.0212  0.2336
  689MOL0     C92893   6.517  10.067   9.978  0.1826  0.3221 -0.2194
  689MOL0     C92894   6.614   9.963   9.926 -1.1335 -0.1735 -0.1362
  689MOL0     C92895   6.682   9.993   9.792 -0.5802 -0.0159  0.6472
  689MOL0     C92896   6.593  10.057   9.693  0.4152 -0.6748  0.2546
  689MOL0     N92897   6.564  10.197   9.721  0.1325  0.1836  0.1976
  689MOL0     C92898   6.669  10.285   9.721 -0.2044  0.4942  0.0988
  689MOL0     C92899   6.618  10.404   9.704  0.0304  0.5651 -0.7337
  689MOL0     C92900   6.700  10.525   9.679  0.5004 -0.1948  0.7049
  689MOL0     C92901   6.730  10.545   9.530  0.5135  0.4686 -0.2714
  689MOL0     C92902   6.594  10.573   9.446  0.5217 -0.1989 -0.6793
  689MOL0     C92903   6.516  10.698   9.490  0.8147  0.5279 -0.3793
  689MOL0     O92904   6.588  10.822   9.502 -0.3567 -0.1397 -0.6524
  689MOL0     C92905   6.534  10.904   9.595  0.4637 -0.2562 -0.4406
  689MOL0     C92906   6.599  10.938   9.711  0.3565  0.6538 -0.2289
  689MOL0     C92907   6.530  11.035   9.799 -0.0158 -0.4746  0.1419
  689MOL0     C92908   6.603  11.064   9.934 -0.1943  0.3661 -0.0130
  689MOL0     C92909   6.414  11.097   9.755  0.0472 -0.7927  0.2394
  689MOL0     C92910   6.354  11.212   9.832  0.2585 -0.4123 -0.8158
  689MOL0     O92911   6.228  11.250   9.791 -0.0911 -0.2316  0.9170
  689MOL0     C92912   6.170  11.345   9.876  0.2086 -0.4055 -0.7763
  689MOL0     C92913   6.151  11.338  10.017  0.4265  0.0113  0.1762
  689MOL0     C92914   6.081  11.432  10.094  0.1260 -0.7919 -0.3775
  689MOL0     C92915   6.016  11.541  10.023  0.4156 -0.4916  0.5302
  689MOL0     O92916   5.975  11.648  10.096  0.4351  0.1682  0.5102
  689MOL0     C92917   5.893  11.752  10.029  0.4991  1.0159  0.4903
  689MOL0     C92918   5.818  11.832  10.140  0.2285  0.7782 -0.0150
  689MOL0     C92919   5.732  11.944  10.083  0.2422 -0.0313 -0.2124
  689MOL0     C92920   5.655  12.017  10.201  0.4405  0.1376 -0.2058
  689MOL0     C92921   5.560  12.114  10.133  0.5438  0.0155  0.1456
  689MOL0     C92922   5.471  12.192  10.237 -0.7092  0.2325 -0.2393
  689MOL0     C92923   5.374  12.294  10.174  0.2942  0.5958 -0.0373
  689MOL0     C92924   5.288  12.359  10.269  0.2264  0.3575 -0.4978
  689MOL0    Cl92925   5.180  12.468  10.180 -0.1302 -0.4749  0.0421
  689MOL0     C92926   6.028  11.544   9.877  0.2957 -0.3110 -0.9143
  689MOL0     C92927   6.099  11.445   9.814  0.2990  1.3003  1.1397
  689MOL0     O92928   6.430  11.285   9.899  0.4393  0.6127 -0.3220
  689MOL0     C92929   6.345  11.042   9.649  0.1487 -0.4136  0.0276
  689MOL0     C92930   6.407  10.951   9.572 -0.7522 -0.1941  0.2158
  689MOL0     N92931   6.480  10.391   9.697 -0.6454 -0.6986 -0.5126
  689MOL0     N92932   6.452  10.267   9.712 -0.3157  0.2932  0.9226
  689MOL0     C92933   5.962  10.356  10.361 -0.0631 -0.2855  0.1454
  689MOL0     C92934   5.860  10.429  10.408  0.2708  0.2413  0.3322
  689MOL0     C92935   5.575  10.703  10.571 -0.5647  0.1152  0.2462
  689MOL0     C92936   5.531  10.714  10.701  0.4329 -0.4562 -0.3482
  689MOL0     C92937   5.409  10.792  10.726 -0.1464  0.4457 -0.2450
  689MOL0     C92938   5.325  10.842  10.624  0.2153  0.4608  0.6658
  689MOL0     O92939   5.202  10.890  10.659  0.2343 -0.3871  0.1439
  689MOL0     C92940   5.099  10.898  10.555  0.2305  0.8565  0.6294
  689MOL0     C92941   4.968  10.965  10.610  0.4635  0.8632 -0.0477
  689MOL0     C92942   4.860  10.874  10.691 -0.9187 -0.7208  0.3047
  689MOL0     C92943   4.736  10.877  10.615 -0.5263 -0.2972  0.4803
  689MOL0     C92944   4.752  10.798  10.493 -0.1343  0.7882  1.3512
  689MOL0     C92945   4.763  10.759  10.376 -0.1376 -0.4957  0.6949
  689MOL0     C92946   5.370  10.819  10.495  0.2639  0.0954 -0.5333
  689MOL0     C92947   5.493  10.756  10.468  0.2765  0.4198  0.2340
  689MOL0     H92948   5.942  10.729  10.289  0.0937  0.3373  0.1425
  689MOL0     H92949   6.130  10.586  10.180 -0.1001 -1.6051 -1.4725
  689MOL0     H92950   6.131  10.151  10.299 -2.5530 -0.1926 -0.2385
  689MOL0     H92951   6.037  10.175  10.145  0.2353 -1.8978  0.0655
  689MOL0     H92952   6.217  10.015  10.087  1.0559  0.1175 -2.3111
  689MOL0     H92953   6.259  10.164  10.013  1.6957  0.6977  0.9299
  689MOL0     H92954   6.424  10.226  10.168  0.6354 -0.3917  1.5590
  689MOL0     H92955   6.370  10.120  10.293 -2.1448  1.1974  0.5383
  689MOL0     H92956   6.577  10.016  10.169 -0.6870 -1.8113  0.4441
  689MOL0     H92957   6.430   9.938  10.134 -0.0354  0.9895  0.5077
  689MOL0     H92958   6.422  10.078   9.925  0.8894  2.0929 -1.2282
  689MOL0     H92959   6.556  10.169   9.982  0.0331  0.3461  3.4651
  689MOL0     H92960   6.690   9.955  10.004  0.0534 -0.6201 -1.2922
  689MOL0     H92961   6.569   9.864   9.919  0.2570 -0.7352 -2.2693
  689MOL0     H92962   6.770  10.056   9.810  0.3870 -0.8405 -0.9611
  689MOL0     H92963   6.711   9.900   9.743  0.5405  1.4794 -1.7374
  689MOL0     H92964   6.499  10.001   9.696  1.3750 -2.3482  0.3393
  689MOL0     H92965   6.633  10.062   9.592 -0.1344  3.2285  0.0643
  689MOL0     H92966   6.776  10.267   9.711  0.0327 -0.4243  3.2879
  689MOL0     H92967   6.644  10.604   9.729 -0.7729 -0.3689 -0.4027
  689MOL0     H92968   6.798  10.523   9.729  0.7762 -2.0296  0.1577
  689MOL0     H92969   6.765  10.448   9.493  0.0648  1.0250 -2.2939
  689MOL0     H92970   6.789  10.634   9.507  1.1358  0.2639  0.4896
  689MOL0     H92971   6.532  10.485   9.460  2.1443 -1.2971 -0.0072
  689MOL0     H92972   6.618  10.572   9.340  0.3171 -1.1083 -0.7250
  689MOL0     H92973   6.471  10.666   9.585  1.7353 -0.3679 -0.2246
  689MOL0     H92974   6.442  10.719   9.413  1.0102 -0.7470 -0.9351
  689MOL0     H92975   6.690  10.885   9.738 -1.2318 -2.1611 -0.0940
  689MOL0     H92976   6.665  11.153   9.943  0.3021  0.1758 -1.2791
  689MOL0     H92977   6.534  11.078  10.018 -0.2186 -4.3421  1.0088
  689MOL0     H92978   6.658  10.977   9.970 -0.5247  1.7375  4.4271
  689MOL0     H92979   6.182  11.249  10.071 -6.1739 -0.8403  3.6230
  689MOL0     H92980   6.084  11.431  10.202 -0.0430 -0.5867 -0.3709
  689MOL0     H92981   5.955  11.822   9.973  2.9329 -2.2758 -1.2851
  689MOL0     H92982   5.822  11.695   9.968 -1.3728  1.0627  2.4647
  689MOL0     H92983   5.772  11.757  10.205  3.0840 -1.2933 -0.2038
  689MOL0     H92984   5.900  11.883  10.191  0.5692  0.9473 -0.7201
  689MOL0     H92985   5.649  11.901  10.027  2.1434 -1.6829 -1.8988
  689MOL0     H92986   5.793  12.003  10.014 -0.4562  1.9861  0.7992
  689MOL0     H92987   5.599  11.937  10.250  0.9237  1.1252  2.0738
  689MOL0     H92988   5.716  12.075  10.270 -0.3235  2.5666 -1.4687
  689MOL0     H92989   5.490  12.076  10.059 -0.1532 -1.8416  1.6585
  689MOL0     H92990   5.623  12.188  10.082  0.0874  0.4081  0.1496
  689MOL0     H92991   5.407  12.129  10.300 -1.6536  1.3929 -0.0020
  689MOL0     H92992   5.536  12.252  10.302 -1.0911  1.4286 -0.9432
  689MOL0     H92993   5.316  12.257  10.089 -1.3940 -1.1958  1.8140
  689MOL0     H92994   5.427  12.377  10.125  0.2956 -0.7135 -2.4189
  689MOL0     H92995   5.356  12.406  10.341  1.8780 -0.4371 -1.4811
  689MOL0     H92996   5.215  12.292  10.314 -2.9227  3.1383 -1.0638
  689MOL0     H92997   5.992  11.631   9.823  1.0236  1.4632  1.2877
  689MOL0     H92998   6.115  11.448   9.707  1.4252  2.4460  1.3147
  689MOL0     H92999   6.252  11.084   9.611  0.3935  0.2348  0.1522
  689MOL0     H93000   6.366  10.920   9.476  2.3161 -0.5275 -1.0782
  689MOL0     H93001   5.962  10.248  10.368  1.1761 -0.4524 -1.6903
  689MOL0     H93002   5.783  10.378  10.464 -1.0236  1.8599  0.1004
  689MOL0     H93003   5.580  10.692  10.794  2.7849 -2.9424 -2.0473
  689MOL0     H93004   5.390  10.806  10.832  1.4757 -0.0794  0.1489
  689MOL0     H93005   5.123  10.960  10.468 -0.6144  1.4391  0.8014
  689MOL0     H93006   5.074  10.797  10.520 -1.6524  1.7044 -0.6266
  689MOL0     H93007   4.909  11.007  10.528 -0.3767  1.7467  0.9705
  689MOL0     H93008   4.990  11.060  10.658  0.8351  2.2501 -2.7684
  689MOL0     H93009   4.838  10.921  10.787  1.8481  0.5345  0.4075
  689MOL0     H93010   4.884  10.769  10.709 -0.0823 -1.0231 -2.1778
  689MOL0     H93011   4.694  10.974  10.587 -0.3264 -0.5191 -0.6464
  689MOL0     H93012   4.657  10.832  10.675 -2.7523 -2.3512 -3.5530
  689MOL0     H93013   4.799  10.748  10.276  2.0091 -2.1985  1.5876
  689MOL0     H93014   5.312  10.849  10.408  1.1036  1.5758 -0.6246
  689MOL0     H93015   5.530  10.747  10.366 -0.2755  0.7917 -0.0025
  690MOL0     O93016   8.591   1.619   2.539  0.1448 -0.4005  0.5348
  690MOL0     C93017   8.642   1.585   2.430  0.5376  0.2722 -0.3536
  690MOL0     O93018   8.585   1.603   2.302  0.1178 -0.2701  0.1166
  690MOL0     C93019   8.450   1.626   2.295 -0.1702  0.1459  0.0254
  690MOL0     C93020   8.392   1.727   2.218  0.1847  0.2246  0.2097
  690MOL0     C93021   8.258   1.749   2.213 -0.3275  0.4212  0.5602
  690MOL0     C93022   8.168   1.658   2.275  0.2669 -0.0508 -0.9435
  690MOL0     O93023   8.032   1.666   2.278 -0.2653 -0.6489 -0.4234
  690MOL0     C93024   7.964   1.788   2.243  0.0738  0.2348  0.5748
  690MOL0     C93025   7.840   1.797   2.326  0.6341  0.5817  0.1410
  690MOL0     C93026   7.876   1.839   2.469 -0.0067  0.2717 -0.1402
  690MOL0     C93027   7.752   1.888   2.555  0.0237  0.3495  0.0207
  690MOL0     C93028   7.666   1.759   2.593  0.6933 -0.4073  1.1378
  690MOL0     C93029   7.536   1.794   2.664 -1.3501 -0.5582  0.4117
  690MOL0     C93030   7.461   1.674   2.697  0.2289  1.0390 -0.4744
  690MOL0     C93031   7.343   1.707   2.778 -0.2530  0.1507 -0.2557
  690MOL0     N93032   7.272   1.583   2.818 -0.6102 -0.0175 -0.8341
  690MOL0     C93033   7.148   1.548   2.776 -0.1804 -0.8559 -0.7162
  690MOL0     C93034   7.088   1.473   2.881  0.2275  0.3202  0.2558
  690MOL0     C93035   6.946   1.420   2.899 -0.7541  0.5310 -0.9934
  690MOL0     C93036   6.874   1.372   2.771  1.1257 -0.1511  0.2404
  690MOL0     C93037   6.795   1.486   2.699 -0.6195  0.3044 -0.3117
  690MOL0     C93038   6.693   1.573   2.761 -0.0419 -0.6889 -0.1865
  690MOL0     O93039   6.571   1.489   2.785  0.4898  0.6522  0.4581
  690MOL0     C93040   6.448   1.538   2.809 -0.4108  0.4053 -0.2811
  690MOL0     C93041   6.415   1.675   2.791  0.7255  0.1383  0.3402
  690MOL0     C93042   6.288   1.725   2.819  0.4310  0.0968 -0.3668
  690MOL0     C93043   6.272   1.871   2.796  0.0321 -0.2854 -1.1071
  690MOL0     C93044   6.193   1.638   2.862  0.4304 -0.0066  0.2563
  690MOL0     C93045   6.057   1.677   2.904 -0.3083  0.3555 -0.0763
  690MOL0     O93046   6.029   1.816   2.910 -0.4235 -0.4117  0.0718
  690MOL0     C93047   5.915   1.866   2.960 -0.0224  0.1504 -0.8932
  690MOL0     C93048   5.783   1.804   2.954  0.8873 -0.2170  0.0071
  690MOL0     C93049   5.664   1.868   3.003 -0.6617  0.1811  0.2779
  690MOL0     C93050   5.671   2.000   3.046  0.3645  0.1456 -0.3312
  690MOL0     O93051   5.565   2.082   3.095  0.5441 -0.1986  0.0250
  690MOL0     C93052   5.436   2.028   3.096 -0.2685 -0.1713 -1.1946
  690MOL0     C93053   5.344   2.103   3.203 -0.6117  0.2440  0.1649
  690MOL0     C93054   5.206   2.035   3.200 -0.3989  0.2698 -0.0784
  690MOL0     C93055   5.103   2.147   3.176  0.2252  0.2046  0.1678
  690MOL0     C93056   4.971   2.089   3.128  1.4221 -0.8969 -0.5540
  690MOL0     C93057   4.856   2.184   3.113  0.8720 -0.3416  1.1248
  690MOL0     C93058   4.766   2.197   3.230 -0.4146  0.1336 -0.5167
  690MOL0     C93059   4.673   2.315   3.233  0.5585 -0.4761 -0.2749
  690MOL0    Cl93060   4.583   2.339   3.080  0.2671  0.1051 -0.2537
  690MOL0     C93061   5.788   2.066   3.031 -0.0255 -0.3742  0.2375
  690MOL0     C93062   5.909   2.001   2.991  0.0097  0.1921 -0.0027
  690MOL0     O93063   5.983   1.586   2.946  0.2520  0.3544 -0.5921
  690MOL0     C93064   6.225   1.493   2.871 -0.9654 -0.6552 -0.2136
  690MOL0     C93065   6.352   1.445   2.841 -0.5652 -0.0277  0.0986
  690MOL0     N93066   7.181   1.464   2.982  0.2576  0.1807  0.7134
  690MOL0     N93067   7.285   1.528   2.944 -0.3135  0.2777 -0.0287
  690MOL0     C93068   8.225   1.549   2.343  0.8316 -0.0430  0.1263
  690MOL0     C93069   8.362   1.541   2.366  0.0215 -0.4070 -0.4590
  690MOL0     C93070   8.789   1.549   2.431 -0.4745 -0.3588 -0.7556
  690MOL0     C93071   8.870   1.539   2.318  0.7799 -0.3788  0.7386
  690MOL0     C93072   9.007   1.522   2.321 -0.1727  0.1221  0.4714
  690MOL0     C93073   9.074   1.522   2.440 -0.5561  0.2719  0.0117
  690MOL0     O93074   9.215   1.522   2.458  0.0590  0.2380 -0.4993
  690MOL0     C93075   9.292   1.506   2.341  0.7847 -0.1604 -0.0145
  690MOL0     C93076   9.437   1.495   2.387 -0.4637  0.1617  0.3652
  690MOL0     C93077   9.472   1.369   2.470 -0.4966  0.2858  0.2548
  690MOL0     C93078   9.620   1.339   2.471  0.2097 -0.3850  0.0659
  690MOL0     C93079   9.642   1.203   2.522 -1.0328  0.4310 -0.4454
  690MOL0     C93080   9.658   1.089   2.549  0.8309  0.5951  0.3279
  690MOL0     C93081   8.999   1.519   2.556 -0.0429 -0.7168 -0.5883
  690MOL0     C93082   8.859   1.536   2.551  0.3460  0.2161 -0.3845
  690MOL0     H93083   8.447   1.804   2.164  0.9966 -0.3792  0.1667
  690MOL0     H93084   8.223   1.835   2.157  0.8458 -0.0866 -1.0187
  690MOL0     H93085   8.024   1.880   2.244 -1.2052  1.1395 -0.9588
  690MOL0     H93086   7.935   1.772   2.139 -1.4317  2.8704  0.4866
  690MOL0     H93087   7.785   1.880   2.279  0.9813 -1.3526 -4.2067
  690MOL0     H93088   7.787   1.701   2.322 -1.4817  1.7078 -0.4266
  690MOL0     H93089   7.925   1.750   2.511  0.3846  0.7492  0.4305
  690MOL0     H93090   7.946   1.923   2.465 -0.5923  0.7246 -1.5649
  690MOL0     H93091   7.779   1.950   2.640 -0.2682  1.5368 -0.7306
  690MOL0     H93092   7.696   1.954   2.488 -1.6841 -0.0564  0.9993
  690MOL0     H93093   7.642   1.714   2.496 -0.6886  1.0631  0.7621
  690MOL0     H93094   7.723   1.693   2.660 -3.7057 -1.7398  4.0669
  690MOL0     H93095   7.559   1.835   2.762 -2.5946 -1.4867  1.1172
  690MOL0     H93096   7.465   1.866   2.621 -1.7300  1.8252  4.5179
  690MOL0     H93097   7.436   1.601   2.619  2.3113  0.4914 -0.7037
  690MOL0     H93098   7.531   1.618   2.760 -0.6088 -1.5437 -1.7027
  690MOL0     H93099   7.275   1.770   2.718 -0.4448  1.1446  0.9577
  690MOL0     H93100   7.374   1.767   2.864 -0.4369 -2.1912  1.5518
  690MOL0     H93101   7.094   1.582   2.688  1.2048  0.6347 -1.0283
  690MOL0     H93102   6.945   1.334   2.966 -1.0356  0.3562 -1.2158
  690MOL0     H93103   6.888   1.498   2.950  0.4716  0.9363 -0.1707
  690MOL0     H93104   6.800   1.297   2.800  0.9914  0.3967  1.3615
  690MOL0     H93105   6.948   1.340   2.697  1.8105  0.9660  0.4220
  690MOL0     H93106   6.764   1.453   2.600  0.5579  0.4999 -0.7544
  690MOL0     H93107   6.870   1.562   2.680  0.7870 -0.2383  2.5379
  690MOL0     H93108   6.671   1.650   2.686 -2.3010 -0.3682  0.7085
  690MOL0     H93109   6.726   1.622   2.853 -2.7938 -2.0847  1.6923
  690MOL0     H93110   6.492   1.743   2.756  1.6330 -0.9643  0.1083
  690MOL0     H93111   6.241   1.913   2.892  0.7275  1.0785 -1.4539
  690MOL0     H93112   6.360   1.918   2.751  0.3600 -1.7705 -2.0747
  690MOL0     H93113   6.203   1.893   2.714 -1.9024  2.8311  1.1106
  690MOL0     H93114   5.768   1.703   2.919 -2.6847  0.5442 -1.0755
  690MOL0     H93115   5.578   1.803   3.003 -1.6352  1.4290  0.6125
  690MOL0     H93116   5.393   2.040   2.996 -4.7272 -1.8397  0.2515
  690MOL0     H93117   5.433   1.921   3.119 -0.1354  0.0203 -0.2640
  690MOL0     H93118   5.404   2.085   3.293 -0.2502  1.1378  0.1195
  690MOL0     H93119   5.338   2.211   3.186 -1.1879  0.2719  0.5432
  690MOL0     H93120   5.208   1.985   3.297 -0.7498  2.0061  0.8796
  690MOL0     H93121   5.196   1.966   3.116 -1.0207  0.8808 -0.5165
  690MOL0     H93122   5.077   2.202   3.267 -1.5390  3.7356 -2.2084
  690MOL0     H93123   5.145   2.206   3.093  0.7411 -4.1009 -2.9689
  690MOL0     H93124   4.932   2.007   3.190 -1.6755  1.5505  1.0367
  690MOL0     H93125   4.965   2.054   3.025 -0.7164 -1.3725 -0.3160
  690MOL0     H93126   4.898   2.282   3.089  1.6266 -1.3641 -2.3154
  690MOL0     H93127   4.790   2.163   3.028 -1.2564 -0.1599  2.6474
  690MOL0     H93128   4.837   2.220   3.310 -1.2419  1.7299 -0.1933
  690MOL0     H93129   4.715   2.102   3.250 -0.5719  0.3683  0.2233
  690MOL0     H93130   4.730   2.405   3.257 -1.5945  1.4489 -1.8872
  690MOL0     H93131   4.606   2.294   3.316 -2.5159  1.2504 -2.1289
  690MOL0     H93132   5.807   2.166   3.069  2.4674  0.7272 -3.3149
  690MOL0     H93133   5.999   2.061   2.985 -1.4740  2.4149 -2.0521
  690MOL0     H93134   6.151   1.422   2.908 -0.6447  0.4970  2.9356
  690MOL0     H93135   6.383   1.341   2.845 -1.4386 -0.3013 -0.1172
  690MOL0     H93136   8.164   1.483   2.403 -0.8508  2.7633  1.7448
  690MOL0     H93137   8.403   1.458   2.424  0.3480 -1.0688 -1.6069
  690MOL0     H93138   8.813   1.558   2.227  0.8265 -1.2843  0.5136
  690MOL0     H93139   9.057   1.514   2.225  0.1880  1.1738  0.5571
  690MOL0     H93140   9.279   1.404   2.302 -1.0406  0.5137 -1.2933
  690MOL0     H93141   9.282   1.580   2.261  0.4566 -1.5466 -1.2998
  690MOL0     H93142   9.448   1.582   2.453 -0.4444  2.3386 -2.3477
  690MOL0     H93143   9.503   1.513   2.302  0.0625  0.3183  0.8040
  690MOL0     H93144   9.424   1.283   2.423  1.7756 -0.2583 -1.2169
  690MOL0     H93145   9.437   1.379   2.573  1.1822 -3.4927  1.3709
  690MOL0     H93146   9.663   1.406   2.546 -0.5990  0.6925 -0.3934
  690MOL0     H93147   9.665   1.336   2.372 -3.5825 -0.6490 -1.8239
  690MOL0     H93148   9.666   0.991   2.592  0.1157  0.9408  1.2672
  690MOL0     H93149   9.061   1.527   2.644  2.0543 -4.9402 -1.4067
  690MOL0     H93150   8.813   1.559   2.647  0.3599 -0.0107 -0.3213
  691MOL0     O93151   8.279   4.500   8.635  0.1377  0.1870 -0.4823
  691MOL0     C93152   8.348   4.606   8.654 -0.2603  0.1976 -0.7273
  691MOL0     O93153   8.330   4.725   8.591 -0.4819  0.0869 -0.3826
  691MOL0     C93154   8.222   4.725   8.503 -0.1769  0.2395  0.3056
  691MOL0     C93155   8.111   4.807   8.527  0.8859  0.3457 -0.3911
  691MOL0     C93156   8.005   4.818   8.425  0.2301  0.0886  0.2221
  691MOL0     C93157   8.001   4.738   8.306  1.1364 -0.3253 -0.6218
  691MOL0     O93158   7.906   4.736   8.206  0.1324 -0.0003 -0.6717
  691MOL0     C93159   7.833   4.852   8.178  0.4830 -0.1033 -0.1029
  691MOL0     C93160   7.696   4.821   8.224  0.1807  0.1822  0.1191
  691MOL0     C93161   7.656   4.683   8.168  0.6291  0.9546  0.1856
  691MOL0     C93162   7.505   4.660   8.207 -0.0145  0.0020 -0.1341
  691MOL0     C93163   7.495   4.511   8.211 -0.2164  0.3031 -0.3870
  691MOL0     C93164   7.355   4.460   8.230 -0.8720  1.0690 -0.4360
  691MOL0     C93165   7.264   4.476   8.109 -0.3063  0.1478  0.0899
  691MOL0     C93166   7.128   4.395   8.136  0.3439 -1.0894 -0.0293
  691MOL0     N93167   7.005   4.436   8.061 -0.2284  0.0004 -0.3278
  691MOL0     C93168   6.875   4.388   8.084 -0.5689  0.3091 -0.3535
  691MOL0     C93169   6.797   4.445   7.991 -0.1711  0.0761  0.1596
  691MOL0     C93170   6.645   4.432   7.986  0.5671  0.2931  0.1473
  691MOL0     C93171   6.595   4.425   7.842 -0.4490  0.1178 -0.0419
  691MOL0     C93172   6.469   4.335   7.822  0.4830  0.1168 -0.1757
  691MOL0     C93173   6.332   4.410   7.829  0.3220  0.6471 -0.4948
  691MOL0     O93174   6.225   4.315   7.800 -0.4125 -0.0550 -0.3289
  691MOL0     C93175   6.093   4.357   7.816 -0.2824  1.0802 -1.5674
  691MOL0     C93176   6.008   4.246   7.807  0.8642 -0.2405 -0.3939
  691MOL0     C93177   5.871   4.263   7.803 -0.7555  0.1536 -0.3150
  691MOL0     C93178   5.789   4.143   7.771  0.0522  0.8826 -0.2040
  691MOL0     C93179   5.822   4.398   7.818  0.0125  0.6306 -0.0994
  691MOL0     C93180   5.678   4.433   7.824  0.3526  0.0050  0.4586
  691MOL0     O93181   5.643   4.566   7.862 -0.3080  0.9263  0.1799
  691MOL0     C93182   5.512   4.603   7.861  0.3568  0.3618  0.4891
  691MOL0     C93183   5.402   4.533   7.921 -0.1128  0.1642 -0.9552
  691MOL0     C93184   5.270   4.590   7.927  0.3714 -0.2934  0.9617
  691MOL0     C93185   5.250   4.715   7.875  0.2327 -0.2759  0.5571
  691MOL0     O93186   5.120   4.753   7.875  0.2822  0.2793 -0.0135
  691MOL0     C93187   5.084   4.870   7.792  0.0066 -1.2629 -0.3619
  691MOL0     C93188   4.936   4.907   7.787  1.0281  0.1557  0.7381
  691MOL0     C93189   4.873   4.970   7.914 -0.3197 -0.9450 -0.1286
  691MOL0     C93190   4.721   4.993   7.887  0.3993 -0.2438  0.0376
  691MOL0     C93191   4.655   5.039   8.021 -0.6055 -0.5417 -0.1673
  691MOL0     C93192   4.532   5.119   8.000 -0.6456 -0.6096  0.4670
  691MOL0     C93193   4.423   5.027   7.944 -0.6843  0.5865  0.7766
  691MOL0     C93194   4.282   5.070   7.961 -0.6012 -0.3532 -0.1631
  691MOL0    Cl93195   4.181   4.953   7.881 -0.4512 -0.0831  0.3474
  691MOL0     C93196   5.354   4.784   7.819  1.2097 -0.3716  1.0594
  691MOL0     C93197   5.484   4.729   7.821 -0.8886  0.1454 -0.8328
  691MOL0     O93198   5.599   4.349   7.778  0.7777 -0.0864  0.3755
  691MOL0     C93199   5.911   4.504   7.845  0.1052  0.1943 -0.0969
  691MOL0     C93200   6.047   4.489   7.842  0.0858 -0.2123 -0.2072
  691MOL0     N93201   6.884   4.500   7.899  0.1898  0.6190  0.5783
  691MOL0     N93202   7.006   4.492   7.942  0.1728  0.2834  0.4151
  691MOL0     C93203   8.120   4.657   8.289  0.4962 -0.7791 -0.1055
  691MOL0     C93204   8.232   4.661   8.375 -1.2814 -0.0106 -0.2329
  691MOL0     C93205   8.481   4.579   8.712 -0.2012  0.2335 -0.8128
  691MOL0     C93206   8.588   4.682   8.713  0.6282 -0.2004  0.1679
  691MOL0     C93207   8.716   4.660   8.776  0.1086  0.2311  1.1248
  691MOL0     C93208   8.741   4.539   8.839  0.0184  0.7655 -0.0234
  691MOL0     O93209   8.865   4.527   8.904 -0.1253 -0.0338  0.1057
  691MOL0     C93210   8.894   4.430   9.004 -0.3125  0.0625 -0.0915
  691MOL0     C93211   9.044   4.415   9.002 -0.7169 -0.2511  0.0700
  691MOL0     C93212   9.122   4.541   9.048 -1.1785 -0.9256 -0.6879
  691MOL0     C93213   9.271   4.520   9.072 -0.1531 -0.2804  0.7752
  691MOL0     C93214   9.287   4.443   9.192  0.5714 -0.7697 -1.4321
  691MOL0     C93215   9.315   4.401   9.310  1.2027  0.1587  1.1418
  691MOL0     C93216   8.647   4.443   8.846  0.0532  0.1631 -0.0078
  691MOL0     C93217   8.516   4.460   8.777  0.1183 -0.8060 -0.4611
  691MOL0     H93218   8.105   4.854   8.625 -1.4996 -1.3971  0.3976
  691MOL0     H93219   7.923   4.885   8.449  1.5397  1.0660  2.2676
  691MOL0     H93220   7.866   4.943   8.229 -1.7461 -0.3646  1.9912
  691MOL0     H93221   7.836   4.863   8.069 -0.1008 -1.5705 -0.2901
  691MOL0     H93222   7.685   4.826   8.332 -1.5364 -1.0446  0.0366
  691MOL0     H93223   7.625   4.887   8.173 -1.0262 -3.7507 -3.9820
  691MOL0     H93224   7.658   4.664   8.060 -1.5892  0.6373  0.1448
  691MOL0     H93225   7.711   4.609   8.226 -0.7803  0.3761  0.8511
  691MOL0     H93226   7.489   4.706   8.305 -1.2238  1.2960 -0.9075
  691MOL0     H93227   7.438   4.707   8.134 -0.6850  0.7407  0.9365
  691MOL0     H93228   7.524   4.460   8.118  0.6435 -0.2094  0.1533
  691MOL0     H93229   7.556   4.457   8.284  1.3065  1.1664 -0.9613
  691MOL0     H93230   7.371   4.352   8.240 -0.7859  0.9524 -1.6024
  691MOL0     H93231   7.298   4.505   8.311 -1.1759 -0.1530  0.0419
  691MOL0     H93232   7.244   4.581   8.083 -1.3885 -0.2440 -0.7778
  691MOL0     H93233   7.308   4.431   8.019 -0.2852 -2.0764  1.1483
  691MOL0     H93234   7.102   4.429   8.237 -0.1550 -0.8014 -0.2545
  691MOL0     H93235   7.145   4.288   8.147 -2.2368 -1.8313 -2.2872
  691MOL0     H93236   6.837   4.333   8.170 -1.1862  0.6300 -0.4109
  691MOL0     H93237   6.615   4.338   8.035 -1.1966  1.5548  1.6502
  691MOL0     H93238   6.614   4.514   8.052  1.6816  0.3050  0.6735
  691MOL0     H93239   6.676   4.388   7.779 -2.5902 -0.4982 -2.5765
  691MOL0     H93240   6.573   4.523   7.798 -0.7372 -0.2551 -0.7414
  691MOL0     H93241   6.462   4.254   7.895 -2.1381 -0.6881 -1.1848
  691MOL0     H93242   6.484   4.302   7.719  0.5907 -1.2339  0.2465
  691MOL0     H93243   6.334   4.485   7.750  1.5099  1.0080 -0.1363
  691MOL0     H93244   6.318   4.463   7.923  2.5775 -2.6846  1.9668
  691MOL0     H93245   6.054   4.148   7.801 -0.3248 -0.7307 -2.4403
  691MOL0     H93246   5.849   4.057   7.803  1.9825  2.9865  2.2128
  691MOL0     H93247   5.693   4.147   7.823  1.1880  3.9680  1.9049
  691MOL0     H93248   5.761   4.139   7.665 -1.1793  1.5459  0.0846
  691MOL0     H93249   5.422   4.441   7.975 -0.8063 -0.0299 -1.0116
  691MOL0     H93250   5.205   4.533   7.992  1.4046 -0.4609  1.8708
  691MOL0     H93251   5.138   4.954   7.838  1.2856 -1.5752 -1.2515
  691MOL0     H93252   5.121   4.862   7.690 -2.0927 -0.1597 -1.2765
  691MOL0     H93253   4.922   4.975   7.703  1.5306 -0.0590  0.4768
  691MOL0     H93254   4.876   4.820   7.762  0.5952  0.2733  1.3403
  691MOL0     H93255   4.924   5.061   7.947  1.9475 -1.7445 -1.1775
  691MOL0     H93256   4.880   4.895   7.994 -1.6656 -2.6129 -1.4899
  691MOL0     H93257   4.718   5.073   7.812  0.9343 -0.4555 -0.2125
  691MOL0     H93258   4.676   4.901   7.849  2.4827 -1.9878  1.5249
  691MOL0     H93259   4.724   5.107   8.073 -2.2931 -1.6675  3.9831
  691MOL0     H93260   4.635   4.951   8.083  1.8701  0.5225  2.3895
  691MOL0     H93261   4.504   5.171   8.092  1.1105 -2.1617  1.9750
  691MOL0     H93262   4.552   5.197   7.926  1.3020 -0.5806  0.9546
  691MOL0     H93263   4.429   4.935   8.003  0.1804  1.6325  2.3905
  691MOL0     H93264   4.445   5.004   7.840  1.2139  0.7722  1.0975
  691MOL0     H93265   4.268   5.170   7.918 -0.7602  0.0147  0.7243
  691MOL0     H93266   4.252   5.083   8.065  0.6634 -2.3908  0.5201
  691MOL0     H93267   5.344   4.887   7.787  1.6230 -0.9181 -0.9404
  691MOL0     H93268   5.567   4.779   7.772 -0.6352 -0.2091 -0.7687
  691MOL0     H93269   5.871   4.604   7.859  0.4794  0.1037  1.8834
  691MOL0     H93270   6.120   4.569   7.848  2.7375 -2.3685 -1.1582
  691MOL0     H93271   8.143   4.596   8.203 -2.5846  0.4336 -1.9186
  691MOL0     H93272   8.321   4.603   8.354 -0.5402  0.6597  0.9947
  691MOL0     H93273   8.570   4.774   8.660 -2.6363 -0.3934  0.7347
  691MOL0     H93274   8.787   4.740   8.759  5.0813 -2.9246  4.4920
  691MOL0     H93275   8.856   4.444   9.106 -1.6551 -1.8408 -0.2983
  691MOL0     H93276   8.847   4.338   8.969 -0.9667  0.6665 -0.8552
  691MOL0     H93277   9.083   4.386   8.905 -0.4644  0.2847  0.0049
  691MOL0     H93278   9.064   4.334   9.073  1.4602 -1.9902 -2.3416
  691MOL0     H93279   9.084   4.577   9.144  1.5355  0.9444 -0.2204
  691MOL0     H93280   9.105   4.624   8.980 -2.3688 -2.4190 -2.3283
  691MOL0     H93281   9.311   4.622   9.072 -1.0209  0.1670 -2.3831
  691MOL0     H93282   9.317   4.458   8.994  0.3379  0.4352  0.4867
  691MOL0     H93283   9.352   4.389   9.410 -0.0099 -0.6089  1.5285
  691MOL0     H93284   8.656   4.346   8.893  1.8554 -1.3336 -3.0843
  691MOL0     H93285   8.450   4.374   8.783 -0.7281 -0.3300 -2.2526
  692MOL0     O93286   2.984   6.506   1.914  0.1903  0.7301  0.4424
  692MOL0     C93287   3.039   6.547   2.019 -0.1771 -1.3321 -0.9244
  692MOL0     O93288   2.986   6.550   2.140 -0.4874 -0.6189 -0.6938
  692MOL0     C93289   2.858   6.523   2.166 -0.0092 -1.1258  0.3059
  692MOL0     C93290   2.820   6.404   2.229 -0.5365 -0.6914 -0.6714
  692MOL0     C93291   2.685   6.389   2.261 -0.3149 -0.1742 -0.2588
  692MOL0     C93292   2.591   6.473   2.210  0.3103 -0.2708 -0.3785
  692MOL0     O93293   2.463   6.437   2.222  1.0224  0.2627 -0.9607
  692MOL0     C93294   2.359   6.442   2.124 -0.5371 -0.1918 -0.0489
  692MOL0     C93295   2.232   6.419   2.198  0.4940  1.2132  1.0801
  692MOL0     C93296   2.123   6.431   2.092  0.0027  0.1746  0.4752
  692MOL0     C93297   2.004   6.342   2.132  0.4865 -0.9476  0.7888
  692MOL0     C93298   1.894   6.364   2.032 -0.1907  0.8676 -0.9134
  692MOL0     C93299   1.770   6.279   2.080  0.3519  0.5018  0.4132
  692MOL0     C93300   1.668   6.276   1.962 -0.2274  0.3122 -0.5971
  692MOL0     C93301   1.543   6.212   2.006 -0.0236 -0.9908  0.2819
  692MOL0     N93302   1.464   6.158   1.891 -0.0963 -1.1715 -0.2810
  692MOL0     C93303   1.369   6.231   1.814 -0.5748 -0.2451  0.4633
  692MOL0     C93304   1.310   6.143   1.732 -0.3632 -0.8787  0.1703
  692MOL0     C93305   1.202   6.188   1.636  0.3606  0.5482 -0.1005
  692MOL0     C93306   1.061   6.160   1.689 -0.3955  0.2128 -0.3666
  692MOL0     C93307   0.948   6.210   1.604 -0.3770  0.3223 -0.2565
  692MOL0     C93308   0.975   6.176   1.454  1.1211  0.1560  0.5460
  692MOL0     O93309   0.862   6.239   1.377  0.6498 -0.0805 -0.1044
  692MOL0     C93310   0.756   6.159   1.348  0.2443  0.5130 -0.7034
  692MOL0     C93311   0.738   6.021   1.362 -0.5123 -0.6907 -0.0849
  692MOL0     C93312   0.629   5.948   1.309  0.1343 -0.3575  0.0900
  692MOL0     C93313   0.621   5.799   1.331 -0.1411  0.0243  0.3290
  692MOL0     C93314   0.537   6.017   1.222 -0.0237 -0.0878 -1.1731
  692MOL0     C93315   0.420   5.952   1.157 -0.3438 -0.4105  0.1827
  692MOL0     O93316   0.367   6.038   1.058 -0.2897  0.2471 -0.8708
  692MOL0     C93317   0.268   5.978   0.979 -0.3439 -0.2508  0.5901
  692MOL0     C93318   0.298   5.901   0.862  0.3594  0.5649  0.4712
  692MOL0     C93319   0.194   5.847   0.783 -0.5444 -0.0742 -0.3506
  692MOL0     C93320   0.061   5.883   0.812  0.6074  0.9350 -0.4760
  692MOL0     O93321  -0.035   5.818   0.736 -0.3186  0.7010  0.1049
  692MOL0     C93322  -0.179   5.831   0.764  0.5372  0.4008 -0.0603
  692MOL0     C93323  -0.261   5.741   0.661  0.1301  0.3619  0.4551
  692MOL0     C93324  -0.417   5.761   0.672  0.0434 -0.5679 -0.3134
  692MOL0     C93325  -0.486   5.768   0.538  0.1677 -0.8034 -0.8232
  692MOL0     C93326  -0.459   5.651   0.452  0.0765 -0.6910  0.2796
  692MOL0     C93327  -0.511   5.675   0.310  0.5750  0.0814 -0.5627
  692MOL0     C93328  -0.509   5.544   0.235  0.9384  0.0349 -0.7465
  692MOL0     C93329  -0.561   5.559   0.090 -0.9375 -0.5875  0.1265
  692MOL0    Cl93330  -0.445   5.645  -0.012 -0.1067  0.4943 -0.1273
  692MOL0     C93331   0.032   5.977   0.907  0.2080  0.3495 -0.9461
  692MOL0     C93332   0.133   6.022   1.000 -0.0773  0.2237 -0.3193
  692MOL0     O93333   0.375   5.839   1.187 -0.5999  0.3101 -0.6807
  692MOL0     C93334   0.551   6.159   1.201 -0.6776 -0.4027 -0.2671
  692MOL0     C93335   0.666   6.221   1.265 -0.2377 -0.2985  0.7289
  692MOL0     N93336   1.370   6.020   1.761  0.2128 -1.0213  0.3077
  692MOL0     N93337   1.454   6.026   1.855  0.5021  0.0036 -0.0081
  692MOL0     C93338   2.625   6.582   2.131 -0.3080  0.5957 -0.0144
  692MOL0     C93339   2.757   6.608   2.111 -0.7631 -0.3398 -1.0154
  692MOL0     C93340   3.182   6.600   2.008 -0.3656  0.2669  0.2684
  692MOL0     C93341   3.260   6.646   2.121  0.1754 -0.0239 -0.3532
  692MOL0     C93342   3.390   6.693   2.099  0.4131 -0.4385 -0.5060
  692MOL0     C93343   3.453   6.705   1.968  0.4355 -0.0063  0.1190
  692MOL0     O93344   3.585   6.735   1.949  0.3944  0.4388  0.3198
  692MOL0     C93345   3.635   6.837   2.039 -0.7507 -0.1301 -0.0012
  692MOL0     C93346   3.751   6.906   1.958 -0.1286 -0.2199  0.1562
  692MOL0     C93347   3.878   6.824   1.938  0.6969 -0.0052  0.3693
  692MOL0     C93348   3.977   6.850   2.044 -0.0207 -0.0412 -0.3620
  692MOL0     C93349   4.088   6.759   2.028 -0.2276  0.3710  0.2065
  692MOL0     C93350   4.191   6.692   2.001 -0.0181 -0.5191  0.3669
  692MOL0     C93351   3.374   6.659   1.860  0.0662 -0.0153 -0.2273
  692MOL0     C93352   3.244   6.614   1.880  0.3965 -1.0563 -0.7749
  692MOL0     H93353   2.895   6.338   2.272  0.5695 -0.1787 -1.7493
  692MOL0     H93354   2.660   6.305   2.326  0.1069 -0.1134 -0.0132
  692MOL0     H93355   2.361   6.544   2.087  2.5219 -1.3206 -3.6138
  692MOL0     H93356   2.376   6.381   2.034 -0.9215 -0.2239 -0.1033
  692MOL0     H93357   2.227   6.317   2.237  2.5836  1.2543  1.5769
  692MOL0     H93358   2.209   6.489   2.279 -1.2557  1.5681  0.3284
  692MOL0     H93359   2.090   6.535   2.084  1.1774  0.7682  2.4501
  692MOL0     H93360   2.161   6.407   1.993  0.0568 -0.5023  0.6553
  692MOL0     H93361   2.046   6.242   2.119 -0.6845 -1.1974 -1.7365
  692MOL0     H93362   1.974   6.362   2.235  3.1360 -3.6653  2.2437
  692MOL0     H93363   1.861   6.468   2.026 -3.0423 -0.0217 -2.7964
  692MOL0     H93364   1.941   6.329   1.940  0.6759 -3.3885  0.9059
  692MOL0     H93365   1.791   6.175   2.107 -2.0091  0.4014  2.1912
  692MOL0     H93366   1.722   6.327   2.165  1.2315 -3.1750  3.2213
  692MOL0     H93367   1.663   6.372   1.911  4.3415  1.2883  0.3969
  692MOL0     H93368   1.703   6.206   1.886 -1.9929  0.3981 -1.5460
  692MOL0     H93369   1.477   6.283   2.057  0.1935 -0.8550  0.3772
  692MOL0     H93370   1.581   6.131   2.068 -2.1618 -2.8090 -0.6435
  692MOL0     H93371   1.352   6.338   1.810  4.0434  0.6854 -2.2247
  692MOL0     H93372   1.203   6.297   1.633 -0.9691  0.5480 -1.4783
  692MOL0     H93373   1.223   6.144   1.539 -2.3214 -1.2437  0.0273
  692MOL0     H93374   1.052   6.217   1.782 -0.5473  1.4968 -1.1306
  692MOL0     H93375   1.059   6.052   1.701 -0.3513  0.3055  0.5502
  692MOL0     H93376   0.912   6.312   1.615 -0.3287  0.3574 -0.4237
  692MOL0     H93377   0.860   6.150   1.630 -3.9099  4.6792 -1.1076
  692MOL0     H93378   0.979   6.067   1.448  3.1438  0.1720  1.0295
  692MOL0     H93379   1.074   6.210   1.424  2.3094 -2.4572  1.2992
  692MOL0     H93380   0.811   5.963   1.417  0.6119  0.7092 -0.0555
  692MOL0     H93381   0.710   5.764   1.385 -2.2586 -0.9366  3.4629
  692MOL0     H93382   0.528   5.766   1.377 -1.6535  5.0480  1.5944
  692MOL0     H93383   0.642   5.755   1.233  3.5101 -1.7630  1.7258
  692MOL0     H93384   0.399   5.876   0.831  0.0750 -0.0159 -0.0135
  692MOL0     H93385   0.222   5.775   0.707  0.4285 -1.5520  1.3176
  692MOL0     H93386  -0.197   5.797   0.866  0.0071 -0.0237 -0.2853
  692MOL0     H93387  -0.209   5.935   0.753  0.3820  0.3025 -0.6130
  692MOL0     H93388  -0.229   5.756   0.557 -3.2350 -0.9308 -0.8876
  692MOL0     H93389  -0.239   5.641   0.699 -0.9219 -0.1387 -0.2174
  692MOL0     H93390  -0.431   5.861   0.713 -0.2784 -0.0179 -1.7192
  692MOL0     H93391  -0.464   5.692   0.744  1.9782  0.2872  1.9081
  692MOL0     H93392  -0.595   5.780   0.548  0.2050  0.5642 -1.7555
  692MOL0     H93393  -0.454   5.860   0.488 -0.6838 -0.1744 -0.2330
  692MOL0     H93394  -0.522   5.572   0.492 -1.8637  1.1757  1.0900
  692MOL0     H93395  -0.354   5.622   0.441  0.4641  1.2849 -2.1669
  692MOL0     H93396  -0.611   5.717   0.324  0.7704  0.6907 -0.9698
  692MOL0     H93397  -0.453   5.756   0.265  0.0517  2.3698  2.5664
  692MOL0     H93398  -0.573   5.469   0.283  3.7346 -1.8573  0.2857
  692MOL0     H93399  -0.408   5.502   0.236 -0.3200 -3.3394  0.2289
  692MOL0     H93400  -0.658   5.609   0.098 -0.4123  0.1238  3.3254
  692MOL0     H93401  -0.574   5.457   0.050 -0.1131 -1.2585  1.4944
  692MOL0     H93402  -0.069   6.016   0.911  0.4775  1.4639 -3.4159
  692MOL0     H93403   0.108   6.088   1.083 -2.2909 -1.9117  0.8363
  692MOL0     H93404   0.485   6.213   1.134 -1.1918 -1.5929 -0.7539
  692MOL0     H93405   0.676   6.326   1.239 -0.2861 -0.4662  0.0045
  692MOL0     H93406   2.547   6.632   2.076  1.9186  2.1757 -1.9537
  692MOL0     H93407   2.786   6.689   2.044 -0.8259  0.6061  0.0602
  692MOL0     H93408   3.231   6.624   2.223  1.4316  0.9817  0.2433
  692MOL0     H93409   3.457   6.710   2.183  1.6840 -3.0193 -0.8992
  692MOL0     H93410   3.554   6.909   2.050 -0.9454  0.0173 -2.1030
  692MOL0     H93411   3.671   6.803   2.137 -0.6376  0.7371  0.2667
  692MOL0     H93412   3.776   6.990   2.023  0.3465 -0.7011  0.6104
  692MOL0     H93413   3.709   6.941   1.863  0.9353  0.0019 -0.2416
  692MOL0     H93414   3.914   6.850   1.838 -1.5055  2.3288  0.1014
  692MOL0     H93415   3.850   6.718   1.940 -0.8423  0.2783 -2.1213
  692MOL0     H93416   3.938   6.830   2.144  0.7741  4.6181  1.1537
  692MOL0     H93417   4.014   6.952   2.062  0.0031 -0.5244  3.0142
  692MOL0     H93418   4.286   6.651   1.973  2.7397  4.6591  0.8805
  692MOL0     H93419   3.421   6.633   1.766  0.5681  3.1553 -0.9519
  692MOL0     H93420   3.192   6.584   1.789 -0.8121 -0.0134 -0.4505
  693MOL0     O93421   2.804  11.259   1.113  0.4145 -0.6493 -0.2451
  693MOL0     C93422   2.851  11.161   1.059  0.7106  0.7200  0.0800
  693MOL0     O93423   2.805  11.122   0.936 -1.4766 -0.0621 -0.2564
  693MOL0     C93424   2.716  11.193   0.856  0.4298 -0.7825 -1.3122
  693MOL0     C93425   2.575  11.158   0.835 -0.4964 -0.3020  0.4928
  693MOL0     C93426   2.492  11.236   0.759  1.4790 -0.1373  0.1050
  693MOL0     C93427   2.535  11.346   0.692 -0.3520 -0.1101 -0.7234
  693MOL0     O93428   2.451  11.412   0.610 -0.6522  0.9225  0.3264
  693MOL0     C93429   2.479  11.382   0.470 -0.1238 -0.6011  0.4688
  693MOL0     C93430   2.375  11.453   0.381 -0.2956  0.2832  0.1508
  693MOL0     C93431   2.230  11.435   0.422 -0.2073  0.5924 -0.1889
  693MOL0     C93432   2.149  11.557   0.470  0.7013 -0.4011 -0.1329
  693MOL0     C93433   1.994  11.519   0.481  0.2191 -0.4181  0.0703
  693MOL0     C93434   1.903  11.628   0.540  0.1374 -0.7823 -0.2666
  693MOL0     C93435   1.752  11.597   0.522 -0.6627  0.2205 -0.0712
  693MOL0     C93436   1.713  11.590   0.371 -0.7395  0.4188 -0.3471
  693MOL0     N93437   1.583  11.518   0.344 -0.0068 -0.6686 -0.7678
  693MOL0     C93438   1.466  11.531   0.421  0.1160  0.2038  0.3536
  693MOL0     C93439   1.374  11.457   0.361  0.2053 -0.0566 -0.5687
  693MOL0     C93440   1.244  11.422   0.423 -0.3820  0.0477  1.0236
  693MOL0     C93441   1.142  11.382   0.309 -0.7549  0.5814  0.0262
  693MOL0     C93442   1.009  11.359   0.381 -0.0298  0.2551 -0.0898
  693MOL0     C93443   0.894  11.322   0.289 -0.1360 -0.3345 -0.7464
  693MOL0     O93444   0.858  11.432   0.207 -0.3783 -0.4152  0.3480
  693MOL0     C93445   0.739  11.408   0.153  0.4835  0.1260 -0.3380
  693MOL0     C93446   0.629  11.432   0.239 -0.4522  0.5216 -0.2546
  693MOL0     C93447   0.499  11.412   0.184  0.3063 -1.2774 -0.3667
  693MOL0     C93448   0.390  11.441   0.280  1.1497 -0.8480 -0.6238
  693MOL0     C93449   0.484  11.375   0.045 -0.3069  0.2098 -0.9715
  693MOL0     C93450   0.349  11.360  -0.021 -0.4123 -0.2217 -0.0802
  693MOL0     O93451   0.354  11.293  -0.147  0.6272 -0.0492  0.3804
  693MOL0     C93452   0.245  11.307  -0.231 -0.3941 -0.2213 -0.1623
  693MOL0     C93453   0.251  11.410  -0.317  0.0091 -0.3057  0.6025
  693MOL0     C93454   0.157  11.419  -0.430 -0.2145 -0.3929 -0.3660
  693MOL0     C93455   0.044  11.339  -0.418  0.3186 -0.2757  0.5723
  693MOL0     O93456  -0.060  11.352  -0.510  0.2008  0.2506 -0.3351
  693MOL0     C93457  -0.132  11.477  -0.506  0.8721 -0.4614 -0.4949
  693MOL0     C93458  -0.254  11.458  -0.412 -0.2465  0.3816 -0.0705
  693MOL0     C93459  -0.335  11.585  -0.409 -0.4882  0.1109 -0.3114
  693MOL0     C93460  -0.468  11.586  -0.335  0.0561  0.0866 -0.4334
  693MOL0     C93461  -0.534  11.729  -0.347 -0.7787 -0.1438 -0.3300
  693MOL0     C93462  -0.650  11.745  -0.254  0.0254 -0.2460 -0.7562
  693MOL0     C93463  -0.674  11.899  -0.245 -0.3956 -0.3015 -0.0342
  693MOL0     C93464  -0.811  11.928  -0.189  0.5143  0.5865  0.1832
  693MOL0    Cl93465  -0.922  11.930  -0.328 -0.3060 -0.0599 -0.2938
  693MOL0     C93466   0.039  11.230  -0.335 -0.0496  0.8338  0.4270
  693MOL0     C93467   0.139  11.223  -0.239 -0.5485 -0.1431  0.2172
  693MOL0     O93468   0.245  11.418   0.015 -0.2789  0.1848 -0.0472
  693MOL0     C93469   0.592  11.355  -0.033 -0.5374 -0.2318 -0.8864
  693MOL0     C93470   0.718  11.387   0.020 -0.5831  0.1200 -0.4060
  693MOL0     N93471   1.430  11.433   0.238 -0.4938 -0.2514  0.2096
  693MOL0     N93472   1.554  11.474   0.220  0.2243 -0.4671  0.1554
  693MOL0     C93473   2.677  11.373   0.698 -0.6321 -0.8435 -0.3312
  693MOL0     C93474   2.760  11.298   0.780 -0.1015  0.3309 -0.4412
  693MOL0     C93475   2.975  11.095   1.107 -0.2290  0.4196  0.0153
  693MOL0     C93476   3.064  11.059   1.003  0.8715  0.4164 -0.0642
  693MOL0     C93477   3.183  10.997   1.032  0.1534  0.1697 -0.8138
  693MOL0     C93478   3.222  10.974   1.168 -0.2342 -0.4508 -0.5096
  693MOL0     O93479   3.336  10.911   1.205 -0.0103 -0.9409 -0.1094
  693MOL0     C93480   3.441  10.865   1.112  0.2157  0.1951 -0.7566
  693MOL0     C93481   3.442  10.711   1.108 -0.4701  0.3425  0.1931
  693MOL0     C93482   3.335  10.650   1.009  0.0300  0.1482 -0.2518
  693MOL0     C93483   3.401  10.609   0.868 -0.0391 -0.0671  0.2144
  693MOL0     C93484   3.319  10.515   0.784 -0.6406 -0.1711 -0.1167
  693MOL0     C93485   3.260  10.443   0.703 -0.2505 -0.1402  0.4338
  693MOL0     C93486   3.141  11.021   1.268  0.9685  1.0503  0.3219
  693MOL0     C93487   3.017  11.082   1.234 -0.5008  0.7480 -0.1876
  693MOL0     H93488   2.538  11.065   0.877 -1.8375 -0.1731 -0.3382
  693MOL0     H93489   2.387  11.210   0.764  1.0852  1.5938  1.5246
  693MOL0     H93490   2.582  11.406   0.441  0.3896 -1.9433  1.0935
  693MOL0     H93491   2.450  11.277   0.458 -0.8364 -0.4778  1.0546
  693MOL0     H93492   2.392  11.561   0.378  1.0154  0.0870 -0.3990
  693MOL0     H93493   2.382  11.412   0.280  0.2810  0.0364  0.2861
  693MOL0     H93494   2.180  11.397   0.332  2.0164  0.3144 -1.3880
  693MOL0     H93495   2.228  11.356   0.497  0.3911 -0.7033 -1.4886
  693MOL0     H93496   2.192  11.595   0.564  1.9138 -1.8165 -0.0704
  693MOL0     H93497   2.160  11.641   0.401  2.9914  1.2582  2.0563
  693MOL0     H93498   1.969  11.493   0.377 -0.9082 -1.7734  0.6381
  693MOL0     H93499   1.993  11.426   0.539  0.3800 -0.8776 -0.6386
  693MOL0     H93500   1.920  11.652   0.645  1.0129 -4.4974  0.5961
  693MOL0     H93501   1.916  11.722   0.484 -0.6720 -0.8647 -0.6079
  693MOL0     H93502   1.738  11.499   0.569  2.0817  1.6704  4.4661
  693MOL0     H93503   1.687  11.671   0.569 -2.1394 -0.3011 -1.2289
  693MOL0     H93504   1.788  11.536   0.313 -1.7344 -0.7051 -0.6208
  693MOL0     H93505   1.710  11.695   0.339 -1.9838  0.6849  0.5897
  693MOL0     H93506   1.447  11.566   0.522 -4.2141  0.5207 -0.3746
  693MOL0     H93507   1.249  11.341   0.495 -1.5652 -0.2446  0.7883
  693MOL0     H93508   1.216  11.520   0.463  1.0957  1.7573 -1.7363
  693MOL0     H93509   1.178  11.294   0.255 -1.5593  1.8059 -2.6993
  693MOL0     H93510   1.124  11.463   0.238 -1.5577  1.1417  0.8424
  693MOL0     H93511   0.985  11.448   0.440  1.3107  0.4152  0.2492
  693MOL0     H93512   1.026  11.274   0.448 -0.2940  1.7156  1.9092
  693MOL0     H93513   0.810  11.290   0.352  1.2970 -2.2036  0.3354
  693MOL0     H93514   0.930  11.236   0.233 -1.9715 -0.5233 -1.6975
  693MOL0     H93515   0.647  11.458   0.343 -1.2715  0.4806 -0.0989
  693MOL0     H93516   0.328  11.521   0.240 -0.9005 -1.5855  0.8817
  693MOL0     H93517   0.323  11.356   0.298  0.2887  0.0043  0.3520
  693MOL0     H93518   0.426  11.474   0.378 -0.3641  3.1835 -1.2203
  693MOL0     H93519   0.333  11.479  -0.298  1.3487 -2.1642  1.8805
  693MOL0     H93520   0.155  11.493  -0.509  0.3258 -1.9948 -1.9570
  693MOL0     H93521  -0.079  11.566  -0.473 -1.2543  1.0957 -1.0531
  693MOL0     H93522  -0.168  11.503  -0.606 -3.2160  1.3488  1.2054
  693MOL0     H93523  -0.309  11.374  -0.455 -0.2670  0.5622 -0.4018
  693MOL0     H93524  -0.217  11.429  -0.313  2.0952  5.6490  0.9591
  693MOL0     H93525  -0.350  11.618  -0.512  2.9558 -0.9105 -1.2571
  693MOL0     H93526  -0.272  11.662  -0.363 -0.6669  0.9344 -1.4149
  693MOL0     H93527  -0.543  11.516  -0.372 -2.6645  1.9723  1.1743
  693MOL0     H93528  -0.453  11.553  -0.231 -0.2099 -1.6460 -0.9120
  693MOL0     H93529  -0.550  11.754  -0.452  1.2084  0.3177 -0.5751
  693MOL0     H93530  -0.466  11.803  -0.304 -1.4354 -0.1253  0.7005
  693MOL0     H93531  -0.746  11.704  -0.286 -0.6946 -0.9149  2.0233
  693MOL0     H93532  -0.625  11.704  -0.156  0.9868 -1.5046 -1.5046
  693MOL0     H93533  -0.641  11.957  -0.332 -2.4632  0.8561 -0.1055
  693MOL0     H93534  -0.599  11.931  -0.172  2.7480 -1.2193 -2.6273
  693MOL0     H93535  -0.822  12.025  -0.140 -2.3480  0.8070 -0.6755
  693MOL0     H93536  -0.844  11.846  -0.124 -2.1833  0.8770 -0.6690
  693MOL0     H93537  -0.036  11.152  -0.335 -0.1181  0.8985  0.7325
  693MOL0     H93538   0.140  11.140  -0.169  1.0776  1.4178  2.1767
  693MOL0     H93539   0.592  11.328  -0.138 -1.0381  0.8974 -1.1896
  693MOL0     H93540   0.808  11.387  -0.040 -0.7013  2.2608 -0.6471
  693MOL0     H93541   2.718  11.455   0.640  0.7158 -0.8797  0.5255
  693MOL0     H93542   2.865  11.324   0.792 -0.0823 -0.4014  1.1452
  693MOL0     H93543   3.048  11.085   0.899  0.6680  1.5923  0.2404
  693MOL0     H93544   3.247  10.984   0.946  0.2164  1.7374 -1.0243
  693MOL0     H93545   3.418  10.900   1.011 -2.2441  2.9090  0.5964
  693MOL0     H93546   3.538  10.894   1.154 -0.0756  0.0482  0.0272
  693MOL0     H93547   3.395  10.680   1.202 -1.8467  2.3109  0.2277
  693MOL0     H93548   3.544  10.676   1.091 -0.9422 -0.6941 -0.5891
  693MOL0     H93549   3.250  10.718   1.005 -0.4713 -0.0622  3.7306
  693MOL0     H93550   3.295  10.555   1.047 -0.8603  0.7683  0.3736
  693MOL0     H93551   3.497  10.558   0.884 -0.5858 -1.3032 -0.3048
  693MOL0     H93552   3.424  10.703   0.817  1.4180  0.7345  2.2336
  693MOL0     H93553   3.198  10.379   0.643 -3.7268  3.6693 -0.5065
  693MOL0     H93554   3.156  11.016   1.376 -0.4416 -0.2964  0.4881
  693MOL0     H93555   2.949  11.091   1.318 -1.1935 -1.8961 -0.3789
  694MOL0     O93556   7.762   9.369   1.360  0.2755  0.2527  0.5037
  694MOL0     C93557   7.761   9.473   1.417 -0.0559 -0.7321 -0.5352
  694MOL0     O93558   7.665   9.571   1.418  0.6309  0.0005  0.0874
  694MOL0     C93559   7.545   9.572   1.347  0.1262  0.2764 -0.1112
  694MOL0     C93560   7.538   9.532   1.210 -0.0699  0.1654 -0.5360
  694MOL0     C93561   7.412   9.523   1.153  0.4908 -0.9629  0.0696
  694MOL0     C93562   7.299   9.556   1.231 -0.8870 -0.1436 -0.1772
  694MOL0     O93563   7.171   9.549   1.188 -0.2573 -0.5456 -0.3013
  694MOL0     C93564   7.134   9.615   1.067 -0.1898  0.1738  0.0713
  694MOL0     C93565   7.016   9.707   1.093 -0.0469  0.7319  0.0925
  694MOL0     C93566   7.041   9.824   1.189 -0.7042  0.4515  0.1801
  694MOL0     C93567   6.938   9.935   1.176 -0.3914  0.1027  0.0656
  694MOL0     C93568   6.950  10.054   1.271 -0.4115  0.1360 -0.1757
  694MOL0     C93569   7.054  10.164   1.229 -0.0216 -0.2461  0.2889
  694MOL0     C93570   7.203  10.125   1.234 -0.6347 -0.4919 -0.1955
  694MOL0     C93571   7.255  10.093   1.377  0.2146  0.1980  0.2677
  694MOL0     N93572   7.397  10.055   1.376 -0.6135  0.7575  0.4605
  694MOL0     C93573   7.457   9.938   1.314  0.1422 -0.3206  0.4432
  694MOL0     C93574   7.593   9.966   1.304 -0.3281  0.0326 -0.4949
  694MOL0     C93575   7.696   9.873   1.250  0.0858  0.2793 -0.1304
  694MOL0     C93576   7.828   9.934   1.216  0.3377 -0.2741 -0.7926
  694MOL0     C93577   7.812  10.036   1.099 -0.5227 -0.1047  0.2469
  694MOL0     C93578   7.945  10.082   1.049 -0.0481 -0.7356 -1.1019
  694MOL0     O93579   7.954  10.053   0.906 -1.1100 -0.8299 -0.4360
  694MOL0     C93580   8.060  10.104   0.835  0.0685  0.0943  0.2501
  694MOL0     C93581   8.058  10.103   0.695 -0.0946  0.6602  0.8341
  694MOL0     C93582   8.160  10.151   0.616  0.3857  0.4046  0.4477
  694MOL0     C93583   8.133  10.125   0.468 -0.1407  0.0610 -0.0214
  694MOL0     C93584   8.268  10.213   0.673 -0.4462 -0.1059  0.2031
  694MOL0     C93585   8.373  10.292   0.601  0.4698 -1.2186  0.5416
  694MOL0     O93586   8.474  10.354   0.680  0.2333 -0.5412  0.3208
  694MOL0     C93587   8.570  10.408   0.608 -0.4229 -0.5607 -0.3126
  694MOL0     C93588   8.691  10.350   0.603 -0.6107 -0.4430  0.1545
  694MOL0     C93589   8.804  10.408   0.541  0.4784  0.4948  0.2142
  694MOL0     C93590   8.790  10.542   0.489  0.1190 -0.1656  0.1544
  694MOL0     O93591   8.905  10.599   0.442 -0.2861  0.3891 -0.2196
  694MOL0     C93592   8.968  10.690   0.533  0.3951  0.7001 -0.1343
  694MOL0     C93593   9.122  10.680   0.520 -0.0088 -0.8814  0.2105
  694MOL0     C93594   9.176  10.568   0.603  0.0531 -0.5164  0.1871
  694MOL0     C93595   9.333  10.583   0.619 -0.0196  0.6769  0.0823
  694MOL0     C93596   9.383  10.484   0.729 -0.2921  0.1571 -0.0504
  694MOL0     C93597   9.540  10.490   0.743  0.5882 -0.0503 -0.1847
  694MOL0     C93598   9.599  10.617   0.797 -0.1941  0.1061 -0.7135
  694MOL0     C93599   9.751  10.615   0.802  0.5241 -0.3807 -0.1654
  694MOL0    Cl93600   9.818  10.773   0.867 -0.3455 -0.1226  0.1889
  694MOL0     C93601   8.665  10.602   0.485  0.1871 -0.7741  0.1544
  694MOL0     C93602   8.561  10.532   0.555  1.1213  0.1045  0.4780
  694MOL0     O93603   8.364  10.304   0.477 -0.3788  0.3665  1.0043
  694MOL0     C93604   8.276  10.217   0.814  0.0673  0.2996 -0.7354
  694MOL0     C93605   8.178  10.148   0.895  0.1943  0.8372  0.0770
  694MOL0     N93606   7.613  10.086   1.358  0.2759  0.5881 -0.2205
  694MOL0     N93607   7.497  10.138   1.401 -0.1741 -0.3858  0.4889
  694MOL0     C93608   7.310   9.591   1.370 -0.5717 -0.8453 -0.2731
  694MOL0     C93609   7.435   9.608   1.427 -0.6294 -0.0445 -0.9040
  694MOL0     C93610   7.893   9.508   1.475  0.0507 -1.3549 -0.0130
  694MOL0     C93611   7.949   9.637   1.457 -0.3672 -0.6486  0.6077
  694MOL0     C93612   8.072   9.665   1.508 -0.0086 -0.0210  0.4012
  694MOL0     C93613   8.143   9.580   1.592  0.0608 -0.1644 -0.0280
  694MOL0     O93614   8.268   9.623   1.621 -0.1848 -0.0507  0.1373
  694MOL0     C93615   8.338   9.547   1.720  0.3498 -0.0621 -0.2666
  694MOL0     C93616   8.482   9.599   1.744 -0.1116  1.0832 -0.2159
  694MOL0     C93617   8.552   9.547   1.874 -0.5646 -0.3403 -0.0424
  694MOL0     C93618   8.690   9.610   1.879 -0.6484 -0.3145 -1.1756
  694MOL0     C93619   8.695   9.752   1.913 -0.2400 -0.2052 -0.9804
  694MOL0     C93620   8.691   9.867   1.954 -0.5633 -0.4495  0.3615
  694MOL0     C93621   8.086   9.454   1.618 -0.2897  0.2902 -0.8623
  694MOL0     C93622   7.957   9.423   1.564 -0.3092  0.6145  0.4002
  694MOL0     H93623   7.624   9.502   1.151  1.2801  0.3340  1.2561
  694MOL0     H93624   7.406   9.496   1.049 -0.2065 -1.7250  0.2951
  694MOL0     H93625   7.214   9.662   1.007 -3.2774  1.4133 -3.4681
  694MOL0     H93626   7.101   9.531   1.005  1.0198  0.1316 -0.5449
  694MOL0     H93627   6.973   9.746   1.000  0.5899 -0.3601 -0.6834
  694MOL0     H93628   6.935   9.648   1.136 -0.0761 -0.2423 -1.2581
  694MOL0     H93629   7.048   9.792   1.293 -0.2722  0.3736  0.1305
  694MOL0     H93630   7.139   9.872   1.177 -1.1850  2.1180  2.2175
  694MOL0     H93631   6.928   9.959   1.070 -1.1438  0.4926  0.2242
  694MOL0     H93632   6.839   9.894   1.196  0.9998 -3.2315  0.8847
  694MOL0     H93633   6.855  10.105   1.284 -0.4325  0.0370  0.0793
  694MOL0     H93634   6.968  10.022   1.375  1.0625 -1.7708 -0.9564
  694MOL0     H93635   7.037  10.209   1.131  1.5255  1.0037  0.5541
  694MOL0     H93636   7.039  10.246   1.299  1.4746 -0.3381  0.7537
  694MOL0     H93637   7.236  10.054   1.158  0.9311  0.6157 -0.6049
  694MOL0     H93638   7.247  10.223   1.210 -1.7781  0.3253  0.8918
  694MOL0     H93639   7.201  10.005   1.413 -1.0160  0.7646 -0.1297
  694MOL0     H93640   7.241  10.172   1.452 -2.2384 -1.3176  1.5265
  694MOL0     H93641   7.406   9.843   1.302  2.5412 -1.9400  1.9844
  694MOL0     H93642   7.703   9.785   1.315 -0.4026  0.5146  0.2426
  694MOL0     H93643   7.650   9.831   1.161  1.9304 -0.7276 -0.6623
  694MOL0     H93644   7.893   9.848   1.200  0.8534 -0.5793  2.3251
  694MOL0     H93645   7.872   9.986   1.301  1.6528 -1.3904 -0.7568
  694MOL0     H93646   7.740  10.116   1.117 -1.0396 -0.5725  0.2757
  694MOL0     H93647   7.773   9.980   1.014  1.0585 -0.4110 -0.3044
  694MOL0     H93648   8.020  10.019   1.098  0.2500  1.3928  1.3913
  694MOL0     H93649   7.963  10.189   1.064 -1.8265 -0.6443  0.6396
  694MOL0     H93650   7.970  10.061   0.647  1.1871  2.7046 -3.8660
  694MOL0     H93651   8.214  10.111   0.396 -0.1030  0.2092 -0.0079
  694MOL0     H93652   8.071  10.037   0.449  1.7321 -1.2401 -0.3886
  694MOL0     H93653   8.077  10.215   0.438 -0.7233 -0.3699 -0.2613
  694MOL0     H93654   8.707  10.252   0.648  1.1571 -0.0530  0.4521
  694MOL0     H93655   8.901  10.359   0.542  0.3455  0.2363  0.5459
  694MOL0     H93656   8.932  10.793   0.519 -0.2315  0.4126 -0.7470
  694MOL0     H93657   8.927  10.679   0.634 -2.8220  0.8091 -1.3006
  694MOL0     H93658   9.159  10.676   0.417 -1.7380  1.0925 -0.5494
  694MOL0     H93659   9.159  10.773   0.563  0.7151 -0.5961 -0.9670
  694MOL0     H93660   9.152  10.478   0.544  1.1240  0.2698 -1.5187
  694MOL0     H93661   9.127  10.554   0.700  0.2340 -1.8662  0.1025
  694MOL0     H93662   9.388  10.559   0.528  2.0985  0.0768  1.4636
  694MOL0     H93663   9.363  10.685   0.645  1.8210  0.0564  0.5278
  694MOL0     H93664   9.348  10.389   0.688 -0.6196  0.9836 -1.8237
  694MOL0     H93665   9.335  10.493   0.827 -0.9458  1.4346 -0.4567
  694MOL0     H93666   9.572  10.417   0.818  1.0811 -0.5796 -0.9122
  694MOL0     H93667   9.591  10.468   0.650  0.5246 -0.5868 -0.0942
  694MOL0     H93668   9.547  10.636   0.891 -2.0223 -2.7097 -1.0280
  694MOL0     H93669   9.573  10.695   0.725 -2.1078  0.1806  0.0109
  694MOL0     H93670   9.779  10.611   0.696 -1.7825 -1.0138 -0.8088
  694MOL0     H93671   9.783  10.521   0.847  0.0406 -0.7731 -0.6254
  694MOL0     H93672   8.657  10.702   0.445 -0.4091 -0.6185  0.6506
  694MOL0     H93673   8.466  10.584   0.553  2.3171  2.4520  0.1781
  694MOL0     H93674   8.365  10.259   0.859 -0.0514 -1.4361  1.2800
  694MOL0     H93675   8.202  10.149   1.001 -0.2979 -0.2393  0.2130
  694MOL0     H93676   7.222   9.604   1.433 -0.7918  0.6673 -0.8462
  694MOL0     H93677   7.438   9.639   1.531 -3.4871  0.8094 -0.9815
  694MOL0     H93678   7.902   9.715   1.398 -0.4939 -0.0250  1.5203
  694MOL0     H93679   8.109   9.760   1.470  1.4393 -1.0338 -0.8544
  694MOL0     H93680   8.288   9.563   1.816 -0.5921  1.3817 -0.9679
  694MOL0     H93681   8.346   9.438   1.710  1.3582 -0.1526  1.2210
  694MOL0     H93682   8.485   9.708   1.747  3.3036  1.1212 -0.1276
  694MOL0     H93683   8.538   9.563   1.657 -1.5588  0.1506 -0.8017
  694MOL0     H93684   8.570   9.439   1.866  2.7875  0.0931  0.2082
  694MOL0     H93685   8.488   9.564   1.962 -1.3390  1.6200 -0.9392
  694MOL0     H93686   8.732   9.592   1.779 -0.4174  0.9982 -1.3352
  694MOL0     H93687   8.761   9.566   1.949 -0.1764  1.1254 -0.7162
  694MOL0     H93688   8.672   9.966   1.990  4.7771  2.2933 -3.0163
  694MOL0     H93689   8.130   9.376   1.678  1.1627  2.8892  1.6822
  694MOL0     H93690   7.913   9.325   1.582 -1.5554  1.4834  2.4835
  695MOL0     O93691   6.958   5.996   4.006 -0.4505 -0.3110  0.1417
  695MOL0     C93692   7.020   6.080   4.073 -1.1056  0.1491  0.3962
  695MOL0     O93693   6.971   6.194   4.124  0.6743 -0.1663 -0.6210
  695MOL0     C93694   6.842   6.237   4.089 -0.4150  0.2404 -0.3234
  695MOL0     C93695   6.724   6.165   4.104  0.4183 -0.0348  0.4372
  695MOL0     C93696   6.601   6.223   4.073 -0.3095 -0.7144  0.2510
  695MOL0     C93697   6.586   6.358   4.030  0.0573  0.2103 -0.2459
  695MOL0     O93698   6.460   6.409   3.992  0.0047  0.1895 -0.2938
  695MOL0     C93699   6.341   6.349   4.053 -0.1043  0.6806  0.5061
  695MOL0     C93700   6.230   6.453   4.043 -0.8937 -0.2471  0.1910
  695MOL0     C93701   6.192   6.450   3.888 -0.3212  0.3056 -0.1032
  695MOL0     C93702   6.093   6.568   3.870  0.7125 -0.1263 -0.6685
  695MOL0     C93703   6.068   6.585   3.722  0.8251  0.0380 -0.6374
  695MOL0     C93704   5.927   6.638   3.703 -0.7764 -0.2905 -0.5204
  695MOL0     C93705   5.896   6.663   3.560  0.3403  0.1451  0.2248
  695MOL0     C93706   5.845   6.542   3.494 -0.2584 -0.3824 -0.2732
  695MOL0     N93707   5.822   6.575   3.352 -0.3279  0.0597 -0.0448
  695MOL0     C93708   5.697   6.581   3.289 -0.6117  0.7951 -0.9861
  695MOL0     C93709   5.728   6.616   3.163  0.7719  0.1699  0.4507
  695MOL0     C93710   5.624   6.616   3.050  0.2002  0.8045  0.7076
  695MOL0     C93711   5.556   6.746   3.050 -0.1733  0.1882 -0.3342
  695MOL0     C93712   5.427   6.742   2.962 -0.1867 -0.1861 -0.1791
  695MOL0     C93713   5.296   6.710   3.037 -1.4908  0.1102  0.2613
  695MOL0     O93714   5.276   6.813   3.141  0.2173 -0.9093  0.0817
  695MOL0     C93715   5.158   6.878   3.129  0.7727 -0.8811 -1.6008
  695MOL0     C93716   5.139   7.016   3.107 -0.6917  0.6820  0.3002
  695MOL0     C93717   5.025   7.087   3.100  1.0276  0.4600  0.0755
  695MOL0     C93718   5.038   7.231   3.085  0.0848 -0.0131  0.3370
  695MOL0     C93719   4.901   7.018   3.105  0.0306  0.2100  0.9915
  695MOL0     C93720   4.760   7.081   3.092 -0.1663  0.4493 -0.0861
  695MOL0     O93721   4.672   6.991   3.064 -0.0834  0.4090 -0.2651
  695MOL0     C93722   4.531   7.007   3.070 -0.0423 -0.8146  0.1764
  695MOL0     C93723   4.458   7.112   3.138  0.1334 -0.6430  0.1544
  695MOL0     C93724   4.323   7.113   3.143  0.3447 -0.9652 -0.3092
  695MOL0     C93725   4.241   7.017   3.071 -0.1752  0.4981  0.5511
  695MOL0     O93726   4.106   7.015   3.095 -0.9511  0.3197 -0.0630
  695MOL0     C93727   4.019   6.933   3.005 -0.3134 -0.3471  0.5399
  695MOL0     C93728   3.877   6.975   3.040 -0.6607 -0.6351  0.2579
  695MOL0     C93729   3.788   6.965   2.911 -0.4593  0.0155 -0.6138
  695MOL0     C93730   3.651   7.021   2.941 -1.3488 -0.0571 -0.0856
  695MOL0     C93731   3.558   7.002   2.832  0.0593 -0.3478  0.3664
  695MOL0     C93732   3.420   7.061   2.861  0.6452 -0.0938  0.3299
  695MOL0     C93733   3.318   7.031   2.752  0.0247 -0.1273  0.7928
  695MOL0     C93734   3.183   7.078   2.802  0.9876  0.0188 -0.7866
  695MOL0    Cl93735   3.108   6.972   2.929  0.3456  0.1455 -0.1604
  695MOL0     C93736   4.309   6.921   2.997  0.4030  0.6798  0.6511
  695MOL0     C93737   4.452   6.920   3.000 -0.0718  0.6073 -0.7913
  695MOL0     O93738   4.739   7.201   3.100  0.3243  0.5089  0.4622
  695MOL0     C93739   4.912   6.877   3.117  0.1220  0.0847  1.2593
  695MOL0     C93740   5.038   6.810   3.128  0.8790  0.0124  0.0288
  695MOL0     N93741   5.865   6.630   3.152 -0.1267 -0.2658  0.4108
  695MOL0     N93742   5.921   6.606   3.263 -0.4364  0.3127 -0.4266
  695MOL0     C93743   6.706   6.431   4.017 -0.0764  1.0061  0.9490
  695MOL0     C93744   6.829   6.371   4.053 -0.4618  0.0635  0.1544
  695MOL0     C93745   7.158   6.040   4.097 -0.2818 -0.1948 -0.6068
  695MOL0     C93746   7.226   5.936   4.028  0.6512 -0.1254  0.4096
  695MOL0     C93747   7.359   5.905   4.049 -0.3518  0.3996 -0.5287
  695MOL0     C93748   7.442   5.980   4.137  0.2456  0.5875 -0.2764
  695MOL0     O93749   7.580   5.966   4.156  0.2843 -0.3813 -0.4155
  695MOL0     C93750   7.649   5.864   4.089 -0.1085 -0.1576 -0.5797
  695MOL0     C93751   7.628   5.720   4.147 -0.9601  0.2466  0.2141
  695MOL0     C93752   7.669   5.726   4.298 -0.7738  0.3210 -0.0467
  695MOL0     C93753   7.666   5.590   4.370 -0.1011 -0.0689  0.8830
  695MOL0     C93754   7.532   5.529   4.372 -0.4806  0.4995  0.2328
  695MOL0     C93755   7.431   5.470   4.380  0.3163  0.2115  0.6536
  695MOL0     C93756   7.372   6.088   4.201 -0.3101 -0.5903  0.0890
  695MOL0     C93757   7.239   6.117   4.182 -0.4789  0.0773  0.1173
  695MOL0     H93758   6.724   6.063   4.139 -0.2659  0.1701  1.0744
  695MOL0     H93759   6.523   6.148   4.082  0.9972 -2.0070  1.1995
  695MOL0     H93760   6.312   6.257   4.002 -1.3367  0.7919  0.9638
  695MOL0     H93761   6.352   6.319   4.158 -1.7483  0.5683  0.6840
  695MOL0     H93762   6.147   6.432   4.111  0.5286  0.6881  2.3374
  695MOL0     H93763   6.268   6.551   4.073 -1.9604  0.5472 -0.9392
  695MOL0     H93764   6.285   6.462   3.832 -0.3507 -2.9905 -1.0373
  695MOL0     H93765   6.147   6.358   3.850  3.7632 -0.2446 -4.5780
  695MOL0     H93766   6.002   6.541   3.924  0.3620 -0.2722 -1.3229
  695MOL0     H93767   6.135   6.659   3.913  1.4977 -1.8129  2.4335
  695MOL0     H93768   6.148   6.647   3.681  0.9151  0.8164  0.6480
  695MOL0     H93769   6.090   6.498   3.659  3.1034 -0.2888  0.4888
  695MOL0     H93770   5.863   6.568   3.757 -0.9551 -2.5093 -3.3556
  695MOL0     H93771   5.923   6.731   3.760 -1.3790 -0.5475 -0.1398
  695MOL0     H93772   5.817   6.739   3.555 -0.4011 -0.4520  1.9827
  695MOL0     H93773   5.992   6.691   3.516 -0.0978  0.6535 -0.4272
  695MOL0     H93774   5.745   6.531   3.537  0.6179  0.9631  2.2729
  695MOL0     H93775   5.908   6.454   3.505  1.8155  1.1748  1.0441
  695MOL0     H93776   5.605   6.546   3.335  0.6656  1.2605  2.1949
  695MOL0     H93777   5.668   6.583   2.955  1.2241  2.8878  0.4006
  695MOL0     H93778   5.554   6.535   3.075  0.4397 -0.0973 -1.3152
  695MOL0     H93779   5.625   6.818   3.005 -0.8765  2.0914  1.4266
  695MOL0     H93780   5.527   6.770   3.153 -2.3930  1.1875 -1.1274
  695MOL0     H93781   5.442   6.675   2.876  2.0461 -1.1374  0.8792
  695MOL0     H93782   5.427   6.843   2.921  2.7929 -0.6652 -1.7191
  695MOL0     H93783   5.285   6.608   3.076  0.6884  0.6915  2.6500
  695MOL0     H93784   5.220   6.714   2.959 -1.5823 -0.1702  0.3322
  695MOL0     H93785   5.233   7.071   3.107  1.2740 -2.2730 -2.8330
  695MOL0     H93786   4.966   7.273   3.013  1.1226  1.5342  0.1724
  695MOL0     H93787   5.024   7.291   3.175  2.4368 -0.1498  0.8581
  695MOL0     H93788   5.134   7.260   3.042 -0.9341  1.8651 -0.8016
  695MOL0     H93789   4.505   7.189   3.199  2.6811 -1.4851 -0.6131
  695MOL0     H93790   4.282   7.202   3.190  2.4958 -0.7583  1.3499
  695MOL0     H93791   4.046   6.956   2.902  0.6106  0.4512  0.9467
  695MOL0     H93792   4.035   6.826   3.022 -0.6625 -0.6322 -0.8312
  695MOL0     H93793   3.839   6.907   3.117 -2.0042  0.7893  0.9163
  695MOL0     H93794   3.871   7.082   3.066 -1.6636 -0.7730  0.6396
  695MOL0     H93795   3.788   6.860   2.879  1.4824 -0.3631  0.4666
  695MOL0     H93796   3.830   7.029   2.834 -2.4070 -1.6401 -3.2420
  695MOL0     H93797   3.611   6.967   3.027 -0.9838 -6.0444 -3.1490
  695MOL0     H93798   3.661   7.126   2.968 -3.0414  0.0630  0.2069
  695MOL0     H93799   3.544   6.894   2.818 -1.5196 -0.2019  0.5930
  695MOL0     H93800   3.608   7.055   2.750  1.7566 -3.2857 -0.6344
  695MOL0     H93801   3.380   7.020   2.954 -3.3402  0.9438 -0.7681
  695MOL0     H93802   3.438   7.168   2.868 -0.0341  0.1061 -0.7179
  695MOL0     H93803   3.316   6.924   2.726  0.8809  0.1079 -0.3046
  695MOL0     H93804   3.343   7.100   2.671 -1.7404 -0.6833 -0.3037
  695MOL0     H93805   3.104   7.069   2.726 -0.4986 -0.6337  0.7659
  695MOL0     H93806   3.187   7.182   2.833 -4.5040  0.5831 -0.9521
  695MOL0     H93807   4.249   6.851   2.939  0.9574  0.9257 -0.2506
  695MOL0     H93808   4.490   6.832   2.948  1.1265 -0.6380  1.9641
  695MOL0     H93809   4.824   6.814   3.109  0.1573  0.0442  1.1842
  695MOL0     H93810   5.038   6.702   3.140  1.4673 -0.0726 -0.6432
  695MOL0     H93811   6.702   6.529   3.971  1.2219  0.1399 -1.1749
  695MOL0     H93812   6.919   6.430   4.039 -0.5292  0.6904  2.1593
  695MOL0     H93813   7.179   5.889   3.942  2.3719  0.1468 -0.7332
  695MOL0     H93814   7.405   5.831   3.983  0.7964  1.2639 -0.7399
  695MOL0     H93815   7.628   5.872   3.982 -2.4100 -1.1324 -0.2585
  695MOL0     H93816   7.754   5.893   4.093  0.4710 -2.1464 -0.5648
  695MOL0     H93817   7.703   5.654   4.101  1.0002 -0.4502  3.9412
  695MOL0     H93818   7.532   5.668   4.144 -1.5831  1.3976 -0.5732
  695MOL0     H93819   7.605   5.796   4.353 -0.6181 -0.3266  0.9795
  695MOL0     H93820   7.770   5.762   4.318 -0.9325 -0.9237  3.7029
  695MOL0     H93821   7.701   5.605   4.472  1.7786  1.1409  0.1012
  695MOL0     H93822   7.735   5.522   4.319  0.1582  0.4953  0.4655
  695MOL0     H93823   7.338   5.418   4.381 -0.3939  1.2458 -1.9684
  695MOL0     H93824   7.431   6.152   4.266  1.5421 -0.0799 -1.9612
  695MOL0     H93825   7.205   6.200   4.243 -0.9196 -0.4940  0.6593
  696MOL0     O93826   2.070   1.211   5.366 -1.0795 -0.1828 -0.5800
  696MOL0     C93827   2.121   1.099   5.370  0.0789  0.3004 -0.4032
  696MOL0     O93828   2.057   0.977   5.358 -0.1848 -0.3213 -0.3908
  696MOL0     C93829   1.933   0.967   5.319  0.3006  0.7345 -0.0683
  696MOL0     C93830   1.834   1.058   5.338 -1.2942  0.1553  0.1546
  696MOL0     C93831   1.712   1.053   5.283 -0.4495  0.7825 -0.5361
  696MOL0     C93832   1.675   0.944   5.201  0.2987 -0.3598 -0.2619
  696MOL0     O93833   1.550   0.943   5.153  0.1694  0.9182 -0.8092
  696MOL0     C93834   1.491   0.818   5.104  0.0900 -0.1783 -0.5635
  696MOL0     C93835   1.339   0.846   5.095 -1.0550 -0.0380  0.1080
  696MOL0     C93836   1.264   0.728   5.068  0.6567  0.1447 -0.2323
  696MOL0     C93837   1.114   0.744   5.028  0.4976  0.3779 -0.2166
  696MOL0     C93838   1.055   0.607   4.988 -0.0954 -0.5968  0.1964
  696MOL0     C93839   0.929   0.621   4.898 -0.7526 -0.1650 -0.6977
  696MOL0     C93840   0.818   0.516   4.933 -0.6105 -0.8174  0.1860
  696MOL0     C93841   0.765   0.519   5.074 -0.6225  0.4202  1.4178
  696MOL0     N93842   0.636   0.459   5.081  0.1889 -0.4866  0.0339
  696MOL0     C93843   0.617   0.328   5.073  0.2425  0.2040 -0.4791
  696MOL0     C93844   0.489   0.308   5.119 -1.2635  0.6500 -0.1499
  696MOL0     C93845   0.436   0.170   5.142 -1.4624 -0.1188 -0.5673
  696MOL0     C93846   0.368   0.110   5.029  0.3259 -0.2611 -0.0972
  696MOL0     C93847   0.346  -0.052   5.059  1.0563  0.2820  0.4306
  696MOL0     C93848   0.276  -0.115   4.941 -0.4415  0.2037  0.3251
  696MOL0     O93849   0.265  -0.253   4.960 -0.4871  0.0486 -0.2961
  696MOL0     C93850   0.149  -0.310   4.917  0.1590 -0.3579 -0.7975
  696MOL0     C93851   0.122  -0.351   4.790 -0.5541 -0.1132 -0.8303
  696MOL0     C93852  -0.011  -0.400   4.747 -0.6672 -0.1923  0.5346
  696MOL0     C93853  -0.023  -0.440   4.600  0.2722  0.2912 -0.3375
  696MOL0     C93854  -0.116  -0.410   4.841  0.1067 -0.0475 -0.4479
  696MOL0     C93855  -0.252  -0.449   4.792  0.0615  0.1126 -0.2039
  696MOL0     O93856  -0.335  -0.492   4.888  0.5892 -0.3080  0.2623
  696MOL0     C93857  -0.471  -0.482   4.859 -0.0541 -0.2518  0.9353
  696MOL0     C93858  -0.539  -0.376   4.915 -0.2045 -0.5445 -0.0565
  696MOL0     C93859  -0.677  -0.367   4.899  0.0733 -0.2027  0.3085
  696MOL0     C93860  -0.742  -0.459   4.809 -0.2897  0.2306 -0.7628
  696MOL0     O93861  -0.881  -0.448   4.786  0.8145 -0.0745 -0.3227
  696MOL0     C93862  -0.971  -0.393   4.883  0.1504 -0.4792 -0.9589
  696MOL0     C93863  -1.107  -0.443   4.836 -0.0335  1.3737  0.1303
  696MOL0     C93864  -1.227  -0.381   4.904 -0.2350 -0.8046 -0.0860
  696MOL0     C93865  -1.240  -0.422   5.054  0.1856  0.4729 -0.1649
  696MOL0     C93866  -1.383  -0.403   5.107  0.7576 -0.1455  0.0188
  696MOL0     C93867  -1.428  -0.258   5.118  0.4612  0.5902  0.7570
  696MOL0     C93868  -1.569  -0.237   5.168 -0.5899  0.8592 -0.0763
  696MOL0     C93869  -1.602  -0.088   5.169  0.0931  0.3570  0.0994
  696MOL0    Cl93870  -1.770  -0.075   5.130  0.3692  0.6158  0.3134
  696MOL0     C93871  -0.674  -0.569   4.755 -0.0003  0.8154  0.1290
  696MOL0     C93872  -0.540  -0.573   4.776 -0.0903 -0.5475  0.0799
  696MOL0     O93873  -0.279  -0.421   4.679 -0.1117 -0.0632  0.4946
  696MOL0     C93874  -0.084  -0.365   4.973  0.6088 -0.1445  0.0975
  696MOL0     C93875   0.044  -0.315   5.010  0.4944 -0.3131 -0.9772
  696MOL0     N93876   0.441   0.426   5.158 -0.9489  0.1185  0.3022
  696MOL0     N93877   0.528   0.514   5.138 -0.3017  0.0547  0.4969
  696MOL0     C93878   1.767   0.839   5.176 -0.0289  0.2924  0.4049
  696MOL0     C93879   1.897   0.862   5.229 -0.7581  0.3772  0.8777
  696MOL0     C93880   2.258   1.093   5.414 -0.4089 -0.0662 -0.0493
  696MOL0     C93881   2.341   1.208   5.435  0.3984  0.0075 -0.1852
  696MOL0     C93882   2.469   1.195   5.486  0.2047 -0.2836  0.0152
  696MOL0     C93883   2.534   1.071   5.504 -0.6589 -0.8618 -0.1705
  696MOL0     O93884   2.666   1.063   5.556  0.0792  0.5156 -0.0432
  696MOL0     C93885   2.747   0.967   5.488 -0.3009 -0.0141 -0.5788
  696MOL0     C93886   2.893   1.010   5.525 -0.3358  0.8558  0.0627
  696MOL0     C93887   2.997   0.905   5.480  0.5167 -0.8795 -0.1660
  696MOL0     C93888   2.984   0.858   5.331 -0.8722 -0.2777 -0.2491
  696MOL0     C93889   3.117   0.819   5.288  0.4963 -0.0486  0.8333
  696MOL0     C93890   3.233   0.780   5.271 -0.2108 -1.0452  0.1387
  696MOL0     C93891   2.454   0.955   5.479 -0.5439 -0.4551  0.3195
  696MOL0     C93892   2.318   0.965   5.435 -0.0639  0.4102  0.5426
  696MOL0     H93893   1.845   1.134   5.414  0.7468 -1.3660  1.4760
  696MOL0     H93894   1.640   1.129   5.313 -1.2140 -0.9437  2.3961
  696MOL0     H93895   1.528   0.797   5.003 -2.1364 -2.8546 -0.9533
  696MOL0     H93896   1.518   0.742   5.177 -0.7898 -0.2306 -0.2812
  696MOL0     H93897   1.310   0.894   5.189  0.0841 -0.4582  0.6899
  696MOL0     H93898   1.320   0.903   5.004 -1.2423 -1.9339 -1.0853
  696MOL0     H93899   1.306   0.672   4.984  0.6161 -0.2390 -0.0005
  696MOL0     H93900   1.262   0.655   5.149 -3.4439  1.9596  1.5679
  696MOL0     H93901   1.055   0.794   5.105 -0.4825 -0.3138 -0.4999
  696MOL0     H93902   1.108   0.809   4.940  0.2707 -1.9299 -2.0180
  696MOL0     H93903   1.134   0.554   4.934  0.4549  2.2464 -2.0377
  696MOL0     H93904   1.044   0.554   5.084  0.6521 -1.3489 -0.1227
  696MOL0     H93905   0.881   0.719   4.905  0.2331  0.3368 -0.8449
  696MOL0     H93906   0.972   0.599   4.799  1.2945 -1.0474  0.3244
  696MOL0     H93907   0.733   0.531   4.865 -2.0962  1.0492  2.2843
  696MOL0     H93908   0.853   0.416   4.905  0.3227 -0.8682  1.4631
  696MOL0     H93909   0.762   0.623   5.106 -2.0581  0.1952  2.1108
  696MOL0     H93910   0.828   0.455   5.136 -0.1586 -1.2306 -0.6138
  696MOL0     H93911   0.696   0.259   5.049  0.8213  0.4983  0.5258
  696MOL0     H93912   0.524   0.113   5.172  0.5221  2.3318 -1.4678
  696MOL0     H93913   0.367   0.177   5.227  0.0596 -1.3058  0.8168
  696MOL0     H93914   0.425   0.113   4.936  0.7507  0.1926  0.1702
  696MOL0     H93915   0.270   0.156   5.013  1.0391  0.2532 -3.7401
  696MOL0     H93916   0.283  -0.073   5.146  0.7071 -1.2147 -0.1505
  696MOL0     H93917   0.438  -0.111   5.069  0.3553 -0.8442  0.3185
  696MOL0     H93918   0.341  -0.098   4.855 -0.0647 -2.1568  0.0576
  696MOL0     H93919   0.178  -0.076   4.914 -1.8601 -3.0092  0.2718
  696MOL0     H93920   0.204  -0.344   4.719  0.9470  1.0305  0.9397
  696MOL0     H93921  -0.062  -0.542   4.597  0.1623  0.3535 -1.4487
  696MOL0     H93922  -0.079  -0.358   4.553 -0.6208 -0.1101 -0.0055
  696MOL0     H93923   0.076  -0.453   4.556 -0.5813 -1.9986 -1.7478
  696MOL0     H93924  -0.484  -0.300   4.970  2.1395 -1.7539 -0.6400
  696MOL0     H93925  -0.736  -0.293   4.952  0.7663 -0.4622  1.4672
  696MOL0     H93926  -0.949  -0.437   4.980 -2.3468 -0.6100 -0.4032
  696MOL0     H93927  -0.973  -0.284   4.876  0.0988 -0.4689 -0.7674
  696MOL0     H93928  -1.116  -0.421   4.729  1.0994  1.4468  0.0344
  696MOL0     H93929  -1.108  -0.552   4.844 -0.6931  1.1462 -2.1821
  696MOL0     H93930  -1.314  -0.412   4.846  0.8032  0.8250 -2.7444
  696MOL0     H93931  -1.226  -0.271   4.897 -1.5277 -0.7657  0.1519
  696MOL0     H93932  -1.218  -0.528   5.070 -1.1093 -0.3302 -2.9886
  696MOL0     H93933  -1.176  -0.355   5.111  0.1980  1.2127 -1.0282
  696MOL0     H93934  -1.405  -0.436   5.209  1.4634 -0.4847  0.0682
  696MOL0     H93935  -1.453  -0.456   5.042 -0.6745  1.3386  0.2859
  696MOL0     H93936  -1.351  -0.223   5.188  0.7184  0.5843  0.4792
  696MOL0     H93937  -1.412  -0.205   5.024 -2.1016 -0.7167 -0.5349
  696MOL0     H93938  -1.575  -0.273   5.272  3.8156  2.5055  0.9375
  696MOL0     H93939  -1.642  -0.298   5.113 -0.4122  0.2075  0.3862
  696MOL0     H93940  -1.538  -0.034   5.098  1.5047 -0.0007  1.0533
  696MOL0     H93941  -1.583  -0.047   5.269 -1.5070  3.2024 -0.6406
  696MOL0     H93942  -0.720  -0.648   4.696  1.3844 -0.8064  1.1401
  696MOL0     H93943  -0.482  -0.652   4.730 -0.3486  0.0061 -1.2184
  696MOL0     H93944  -0.172  -0.355   5.036 -2.4891 -2.8334 -3.3823
  696MOL0     H93945   0.073  -0.269   5.104 -0.6777 -0.3423 -0.5788
  696MOL0     H93946   1.750   0.746   5.122  1.7829 -1.0674  2.0734
  696MOL0     H93947   1.981   0.795   5.213 -2.4072 -1.1531 -2.3322
  696MOL0     H93948   2.303   1.307   5.414 -1.7674 -0.4430  1.2381
  696MOL0     H93949   2.520   1.289   5.506 -0.5430  0.1448 -0.0694
  696MOL0     H93950   2.712   0.866   5.511 -0.6193  0.5071  1.4968
  696MOL0     H93951   2.729   0.978   5.381  0.3425  0.7650 -0.6147
  696MOL0     H93952   2.902   1.021   5.633 -2.0533 -4.1548  0.9736
  696MOL0     H93953   2.909   1.109   5.480  1.1501  0.0781 -1.2092
  696MOL0     H93954   2.989   0.822   5.551 -2.4689 -1.1919 -0.7447
  696MOL0     H93955   3.083   0.971   5.490 -0.7222  0.6400  0.8401
  696MOL0     H93956   2.957   0.942   5.266 -1.2074 -1.3843 -1.5939
  696MOL0     H93957   2.913   0.774   5.323  0.0982 -1.3629  1.7612
  696MOL0     H93958   3.335   0.767   5.242  0.7654  0.1319  2.6953
  696MOL0     H93959   2.491   0.855   5.499 -1.1347 -0.5865  0.8171
  696MOL0     H93960   2.262   0.874   5.418  0.2001  0.1177  1.1902
  697MOL0     O93961   1.095   9.484   8.346 -0.0926  0.5245  0.3786
  697MOL0     C93962   1.044   9.578   8.419 -0.0729  0.4397 -0.3899
  697MOL0     O93963   1.117   9.671   8.488  0.3947 -0.4672  0.3761
  697MOL0     C93964   1.250   9.668   8.486  0.4218  0.6417  0.4868
  697MOL0     C93965   1.333   9.755   8.418  0.1708  0.0109  0.1583
  697MOL0     C93966   1.468   9.730   8.426 -0.6256  0.3637  0.0850
  697MOL0     C93967   1.519   9.630   8.511 -0.2337 -0.0956 -0.5276
  697MOL0     O93968   1.655   9.612   8.510  0.0506 -0.4863 -0.5571
  697MOL0     C93969   1.712   9.607   8.643  0.8717 -1.4034  0.1016
  697MOL0     C93970   1.858   9.591   8.627 -1.2618  0.6943 -0.1437
  697MOL0     C93971   1.937   9.709   8.578 -0.1395 -1.8235  0.8150
  697MOL0     C93972   2.067   9.737   8.657  0.2505  0.1521 -0.1308
  697MOL0     C93973   2.151   9.850   8.599  0.6330  0.2547 -0.6294
  697MOL0     C93974   2.208   9.823   8.457 -1.2596  0.2718 -0.2431
  697MOL0     C93975   2.301   9.939   8.409 -0.6069  0.3148 -0.4412
  697MOL0     C93976   2.371   9.899   8.279 -0.7347 -0.4232 -0.8478
  697MOL0     N93977   2.448  10.025   8.242 -0.5757  0.1750 -0.5737
  697MOL0     C93978   2.397  10.137   8.194 -0.8519 -0.2983 -0.3360
  697MOL0     C93979   2.505  10.210   8.164 -1.1769 -0.1046 -1.0679
  697MOL0     C93980   2.491  10.355   8.129 -0.0663 -0.1531  0.6299
  697MOL0     C93981   2.561  10.454   8.231  0.4645  0.5649 -0.1359
  697MOL0     C93982   2.512  10.599   8.213  0.9138 -0.2279 -0.0298
  697MOL0     C93983   2.369  10.615   8.270  0.3003  0.5410 -0.4097
  697MOL0     O93984   2.334  10.754   8.248 -0.1796 -0.5338  0.1196
  697MOL0     C93985   2.202  10.782   8.274 -0.0312 -0.6458  0.2758
  697MOL0     C93986   2.176  10.922   8.276 -0.2029  0.1594 -0.6754
  697MOL0     C93987   2.048  10.972   8.318 -0.8023 -0.3254  0.0563
  697MOL0     C93988   2.038  11.124   8.323 -0.5224 -0.5798  0.9559
  697MOL0     C93989   1.949  10.881   8.360  0.4764  1.4981 -0.7249
  697MOL0     C93990   1.812  10.920   8.408 -0.1292 -0.2052  0.3798
  697MOL0     O93991   1.730  10.826   8.474 -0.0712 -0.6897 -0.2820
  697MOL0     C93992   1.596  10.855   8.484 -0.6018  0.1950 -0.2599
  697MOL0     C93993   1.532  10.848   8.606 -0.3672 -0.2691 -0.3089
  697MOL0     C93994   1.400  10.854   8.625  0.2064  0.4465  0.3672
  697MOL0     C93995   1.313  10.876   8.516  0.0014  0.0965 -0.1407
  697MOL0     O93996   1.173  10.870   8.523  0.5422  0.3194  0.5267
  697MOL0     C93997   1.106  10.918   8.644  0.5637 -0.9187  0.3197
  697MOL0     C93998   0.959  10.901   8.609  0.3965  0.6215 -0.1462
  697MOL0     C93999   0.868  10.903   8.731 -0.1705  1.0832 -0.7294
  697MOL0     C94000   0.725  10.867   8.686 -0.0922 -0.2568  0.4889
  697MOL0     C94001   0.632  10.844   8.809  0.1659 -0.4724  0.6955
  697MOL0     C94002   0.496  10.804   8.775  0.8514 -0.5881 -0.6855
  697MOL0     C94003   0.414  10.924   8.726 -0.1623  0.7748 -0.7794
  697MOL0     C94004   0.268  10.865   8.711 -0.1450 -0.0144 -0.2478
  697MOL0    Cl94005   0.152  11.000   8.670 -0.2531  0.4666 -0.0212
  697MOL0     C94006   1.378  10.885   8.393 -0.5377 -0.0518 -0.0585
  697MOL0     C94007   1.518  10.865   8.375  1.3900 -0.3670  0.4231
  697MOL0     O94008   1.782  11.032   8.376 -0.0995  0.4007 -0.2842
  697MOL0     C94009   1.982  10.747   8.357  0.7250  0.0431  0.0331
  697MOL0     C94010   2.100  10.698   8.312 -0.0081 -0.3113  0.5590
  697MOL0     N94011   2.621  10.142   8.193 -0.2048  0.2936  0.5480
  697MOL0     N94012   2.586  10.028   8.255  0.4306 -0.0274 -0.4444
  697MOL0     C94013   1.441   9.536   8.581 -0.0478 -0.9650 -0.6014
  697MOL0     C94014   1.302   9.558   8.564  0.1566  0.6576  0.5883
  697MOL0     C94015   0.895   9.589   8.424 -0.2185  1.0472 -0.5028
  697MOL0     C94016   0.833   9.651   8.531  0.6973  0.0203 -0.4211
  697MOL0     C94017   0.695   9.659   8.530  0.4963  0.2378  0.0225
  697MOL0     C94018   0.620   9.609   8.429 -0.6946 -0.5808 -0.2587
  697MOL0     O94019   0.486   9.634   8.435  0.4151  0.5320  0.1365
  697MOL0     C94020   0.393   9.534   8.373  0.7001  0.0350 -0.1779
  697MOL0     C94021   0.257   9.511   8.447  0.7573 -0.0430 -0.8756
  697MOL0     C94022   0.181   9.647   8.493  0.2294  0.3236  0.4457
  697MOL0     C94023   0.062   9.614   8.582  0.0865 -0.1779  0.0087
  697MOL0     C94024  -0.058   9.563   8.513  0.6345  0.1205 -0.0267
  697MOL0     C94025  -0.159   9.523   8.461  0.8013  0.5390  1.3248
  697MOL0     C94026   0.679   9.531   8.323 -0.0146 -0.2215 -0.8931
  697MOL0     C94027   0.816   9.525   8.329 -0.9645 -0.5552  0.8441
  697MOL0     H94028   1.296   9.835   8.355 -0.2224 -0.1836  0.1420
  697MOL0     H94029   1.541   9.780   8.363 -2.8000  0.5591 -2.4418
  697MOL0     H94030   1.679   9.699   8.693  0.1311 -1.9205  0.5897
  697MOL0     H94031   1.664   9.528   8.703 -1.1395 -1.0366 -0.9358
  697MOL0     H94032   1.889   9.565   8.728  0.0614 -2.9924 -1.3631
  697MOL0     H94033   1.875   9.503   8.565  1.3413  1.9517 -1.3421
  697MOL0     H94034   1.959   9.691   8.472 -7.3758  1.8254 -2.0026
  697MOL0     H94035   1.870   9.796   8.572 -0.6020 -2.1733  0.9088
  697MOL0     H94036   2.036   9.770   8.756 -0.7916 -0.3383 -0.2784
  697MOL0     H94037   2.131   9.648   8.663 -0.3848 -0.3614 -0.7123
  697MOL0     H94038   2.093   9.942   8.609 -0.0415 -0.2637  0.4337
  697MOL0     H94039   2.238   9.858   8.665  2.2079 -2.5551 -2.1589
  697MOL0     H94040   2.260   9.727   8.462 -0.7926  0.5809  2.0787
  697MOL0     H94041   2.118   9.815   8.395 -1.6859 -0.7988  0.4825
  697MOL0     H94042   2.249  10.034   8.409  1.7890  1.7593  1.4997
  697MOL0     H94043   2.383   9.953   8.481 -0.1069  3.8935 -1.5178
  697MOL0     H94044   2.295   9.876   8.204 -1.0090  0.1285 -0.7460
  697MOL0     H94045   2.444   9.818   8.292  1.6043  1.3201 -2.2988
  697MOL0     H94046   2.296  10.176   8.195 -0.7999  0.0877 -2.7411
  697MOL0     H94047   2.515  10.376   8.025 -1.0055  0.8876  0.6114
  697MOL0     H94048   2.384  10.375   8.138 -0.2920  0.2197 -2.1209
  697MOL0     H94049   2.669  10.451   8.216  0.0665  0.1367 -4.1158
  697MOL0     H94050   2.533  10.426   8.333  0.5094  1.9571  0.2838
  697MOL0     H94051   2.506  10.622   8.106 -1.9442  1.5425  0.3978
  697MOL0     H94052   2.572  10.673   8.266 -1.4166 -0.0913  2.6890
  697MOL0     H94053   2.374  10.598   8.378 -0.0529  2.4338 -0.0648
  697MOL0     H94054   2.298  10.550   8.217  1.9045  0.5402 -2.7359
  697MOL0     H94055   2.257  10.991   8.258 -0.6678  1.2992  1.2527
  697MOL0     H94056   2.014  11.169   8.420  0.6005  2.1643  0.0521
  697MOL0     H94057   2.130  11.168   8.284 -0.1575 -2.2665 -0.2180
  697MOL0     H94058   1.959  11.163   8.258  1.3721 -0.6242 -1.4858
  697MOL0     H94059   1.597  10.839   8.693 -0.5400  0.0204 -0.1455
  697MOL0     H94060   1.359  10.846   8.726  3.4394 -0.1102  1.7608
  697MOL0     H94061   1.139  10.859   8.730  2.0334 -1.0127 -0.2892
  697MOL0     H94062   1.121  11.025   8.662 -3.1082 -0.2498  0.3225
  697MOL0     H94063   0.939  10.964   8.521  1.9648  1.7553  0.2752
  697MOL0     H94064   0.941  10.796   8.585 -1.7268  0.8259  0.2769
  697MOL0     H94065   0.864  10.997   8.787  2.1952 -0.2531  1.9702
  697MOL0     H94066   0.894  10.828   8.806  0.7267  0.4404 -1.6423
  697MOL0     H94067   0.687  10.954   8.632  0.9335  1.5895  2.5988
  697MOL0     H94068   0.735  10.773   8.631  2.1495  0.2614 -0.0872
  697MOL0     H94069   0.629  10.931   8.875  1.0585  0.9472 -1.0347
  697MOL0     H94070   0.686  10.767   8.865 -0.8285 -2.6825 -1.2156
  697MOL0     H94071   0.501  10.735   8.690  4.0109 -1.9618  0.4768
  697MOL0     H94072   0.447  10.761   8.863  2.6275 -2.0724 -0.3708
  697MOL0     H94073   0.451  10.981   8.640  0.2397  2.9926  0.7940
  697MOL0     H94074   0.404  10.997   8.806  0.0085 -0.5761  0.5237
  697MOL0     H94075   0.222  10.832   8.805 -0.5267  0.9283 -0.0979
  697MOL0     H94076   0.271  10.779   8.643  0.2642 -0.9861  0.9593
  697MOL0     H94077   1.322  10.896   8.301 -0.2799  1.7797 -0.0347
  697MOL0     H94078   1.563  10.865   8.276 -0.3815  1.7027 -0.4595
  697MOL0     H94079   1.908  10.670   8.376 -0.1663  0.2373 -2.3652
  697MOL0     H94080   2.110  10.590   8.308 -1.0849 -0.4200  0.3805
  697MOL0     H94081   1.467   9.454   8.647 -2.0651 -3.1109 -2.2509
  697MOL0     H94082   1.231   9.507   8.628  0.0084 -1.4297 -1.1258
  697MOL0     H94083   0.883   9.693   8.617  0.4428 -0.5533  0.0148
  697MOL0     H94084   0.665   9.719   8.615  0.0706  2.6435 -1.7218
  697MOL0     H94085   0.368   9.570   8.273  0.6568 -0.7701 -0.4694
  697MOL0     H94086   0.442   9.437   8.355  0.7759  0.3159 -1.6384
  697MOL0     H94087   0.280   9.447   8.533 -1.0787 -1.0571 -1.0900
  697MOL0     H94088   0.190   9.458   8.379  0.2347  2.4904 -2.4493
  697MOL0     H94089   0.155   9.716   8.412  0.0688 -0.2469  0.0074
  697MOL0     H94090   0.255   9.707   8.547  2.0344 -0.3074 -1.1847
  697MOL0     H94091   0.038   9.707   8.634  0.0118 -0.4920  0.5348
  697MOL0     H94092   0.104   9.543   8.654 -0.0782  0.0645  0.3468
  697MOL0     H94093  -0.240   9.477   8.408  1.8373 -0.6899  0.7551
  697MOL0     H94094   0.616   9.476   8.253 -1.8930  1.3454 -0.5096
  697MOL0     H94095   0.865   9.470   8.249 -2.2267  0.0250 -0.3814
  698MOL0     O94096   1.841   8.560   5.516 -0.2543 -0.5906 -0.3514
  698MOL0     C94097   1.823   8.676   5.543 -0.0248 -0.0952  0.3089
  698MOL0     O94098   1.707   8.738   5.569 -0.2001  0.3670  0.0124
  698MOL0     C94099   1.588   8.669   5.583 -0.4634 -0.3846 -0.0083
  698MOL0     C94100   1.549   8.576   5.489  0.1886 -0.0788 -0.3647
  698MOL0     C94101   1.423   8.521   5.494  0.0159  0.1510  0.4544
  698MOL0     C94102   1.329   8.564   5.592 -0.1732 -0.4062 -0.1772
  698MOL0     O94103   1.198   8.529   5.579 -0.0628  0.0318  0.0187
  698MOL0     C94104   1.106   8.539   5.687 -0.4071 -0.7171 -0.2291
  698MOL0     C94105   0.991   8.429   5.670  0.6907 -0.3276 -0.1377
  698MOL0     C94106   0.877   8.452   5.775  0.4309 -0.1106  0.1399
  698MOL0     C94107   0.754   8.387   5.720  0.7272 -0.3369 -0.1077
  698MOL0     C94108   0.630   8.456   5.781  0.9702 -0.4102 -0.4281
  698MOL0     C94109   0.503   8.369   5.793 -0.8123  0.8382  0.0949
  698MOL0     C94110   0.397   8.428   5.891 -0.3043  0.3316  0.1785
  698MOL0     C94111   0.259   8.356   5.887 -0.4622 -0.4786  0.3646
  698MOL0     N94112   0.173   8.381   5.776  0.3634  0.4462 -0.4336
  698MOL0     C94113   0.085   8.484   5.757  0.5912 -0.4870 -1.1082
  698MOL0     C94114   0.037   8.467   5.632  0.0496 -0.3595  0.2851
  698MOL0     C94115  -0.061   8.563   5.571 -0.6440 -0.0663  0.0820
  698MOL0     C94116  -0.194   8.480   5.566 -0.8830 -0.5539  0.3842
  698MOL0     C94117  -0.296   8.520   5.688 -0.0975 -0.4489  0.6037
  698MOL0     C94118  -0.424   8.447   5.662 -0.4293 -0.0412 -0.2358
  698MOL0     O94119  -0.527   8.534   5.716 -0.9360 -0.0004 -0.3364
  698MOL0     C94120  -0.658   8.512   5.702  0.4819  1.5205 -0.1132
  698MOL0     C94121  -0.763   8.594   5.744  0.3101  0.1777 -0.6796
  698MOL0     C94122  -0.893   8.561   5.733  1.0205  0.2192 -0.1450
  698MOL0     C94123  -0.993   8.655   5.786 -0.1988 -0.9283  0.7492
  698MOL0     C94124  -0.930   8.436   5.672  0.1334  0.3431  0.1918
  698MOL0     C94125  -1.069   8.378   5.672  0.1499 -0.2949  0.2450
  698MOL0     O94126  -1.082   8.269   5.588 -0.1304  0.6745 -0.5237
  698MOL0     C94127  -1.209   8.213   5.549 -0.9199 -0.2189 -0.0061
  698MOL0     C94128  -1.328   8.288   5.552  0.5060  0.0462  0.1756
  698MOL0     C94129  -1.454   8.226   5.520  0.4628  0.1047 -0.0924
  698MOL0     C94130  -1.462   8.087   5.476  1.0882 -0.4200  0.9567
  698MOL0     O94131  -1.577   8.010   5.447 -0.6494 -0.1178  0.4786
  698MOL0     C94132  -1.706   8.075   5.449  0.3653 -0.6988  0.0133
  698MOL0     C94133  -1.799   7.974   5.401  1.0514  0.5456 -0.4266
  698MOL0     C94134  -1.947   7.992   5.446 -0.1130 -0.3797 -0.8934
  698MOL0     C94135  -2.028   7.887   5.370 -0.9785  0.0713  0.1468
  698MOL0     C94136  -2.173   7.904   5.388 -0.0135 -0.3309 -0.3849
  698MOL0     C94137  -2.270   7.811   5.316 -0.0694 -0.0857  1.1637
  698MOL0     C94138  -2.240   7.815   5.159  0.1241 -0.0534 -0.7381
  698MOL0     C94139  -2.321   7.702   5.081 -0.9369  0.3165 -0.6430
  698MOL0    Cl94140  -2.485   7.757   5.071 -0.0438 -0.3565  0.4089
  698MOL0     C94141  -1.345   8.015   5.472  0.0496 -0.0356 -0.0489
  698MOL0     C94142  -1.222   8.078   5.505 -0.3942 -0.1930  0.3883
  698MOL0     O94143  -1.156   8.419   5.748 -0.3038 -0.0567 -0.3478
  698MOL0     C94144  -0.834   8.351   5.634 -0.6380 -0.3126  0.8227
  698MOL0     C94145  -0.698   8.382   5.647 -0.4257 -0.8170 -0.1217
  698MOL0     N94146   0.104   8.358   5.582 -0.4313  0.6490  0.3732
  698MOL0     N94147   0.188   8.308   5.666 -0.4713 -0.7499  0.4785
  698MOL0     C94148   1.376   8.654   5.688 -0.2601 -0.4573 -0.5714
  698MOL0     C94149   1.507   8.708   5.681  0.7526 -0.1669 -0.2061
  698MOL0     C94150   1.937   8.769   5.511 -0.2124 -0.0467  0.1485
  698MOL0     C94151   1.930   8.912   5.533  0.4610 -0.5703 -0.0961
  698MOL0     C94152   2.035   8.987   5.483  0.2457 -0.7640 -0.2423
  698MOL0     C94153   2.142   8.934   5.418 -0.4464  0.5832 -0.9188
  698MOL0     O94154   2.248   9.005   5.367  0.1968  0.0743  0.0006
  698MOL0     C94155   2.324   9.079   5.461  0.2180 -0.4756  0.0392
  698MOL0     C94156   2.447   9.128   5.376  0.5043 -0.0364  0.5421
  698MOL0     C94157   2.573   9.185   5.440  0.2699 -0.1499 -0.2404
  698MOL0     C94158   2.665   9.241   5.330  0.5951  0.3753  0.7405
  698MOL0     C94159   2.801   9.284   5.373  0.5223 -0.0365  0.8824
  698MOL0     C94160   2.905   9.324   5.406 -0.3529  0.5540  0.1044
  698MOL0     C94161   2.157   8.798   5.408  0.1843  0.7764 -0.4219
  698MOL0     C94162   2.051   8.717   5.453 -0.1737  0.2550  0.2724
  698MOL0     H94163   1.616   8.553   5.407  0.1200 -2.0415  0.0818
  698MOL0     H94164   1.386   8.451   5.420 -0.8854 -0.1945  1.2109
  698MOL0     H94165   1.155   8.507   5.779 -0.1216 -2.5807 -0.9949
  698MOL0     H94166   1.064   8.640   5.698  2.1373  0.4593 -0.6708
  698MOL0     H94167   0.950   8.442   5.570 -1.4555  1.3806  0.8628
  698MOL0     H94168   1.024   8.325   5.678 -1.9800 -1.1893  0.5007
  698MOL0     H94169   0.904   8.415   5.874 -1.6270  0.2648  0.8946
  698MOL0     H94170   0.852   8.558   5.790  1.8451  0.6187 -2.0590
  698MOL0     H94171   0.754   8.373   5.612  0.6788  0.4806 -0.2204
  698MOL0     H94172   0.739   8.285   5.757 -0.4904  0.3334  1.3775
  698MOL0     H94173   0.660   8.504   5.875  2.7202 -0.5476 -0.8888
  698MOL0     H94174   0.597   8.534   5.712  0.9505 -1.1788 -1.3014
  698MOL0     H94175   0.462   8.350   5.693  3.0997 -0.5431 -1.4508
  698MOL0     H94176   0.532   8.273   5.838  1.5202  1.7923  0.7676
  698MOL0     H94177   0.431   8.430   5.995  1.2343  4.1054 -0.2510
  698MOL0     H94178   0.367   8.529   5.864 -1.2057  0.4293  1.4713
  698MOL0     H94179   0.197   8.379   5.974 -0.8552 -0.6266  0.1255
  698MOL0     H94180   0.279   8.248   5.891 -1.0512 -0.5632  2.2905
  698MOL0     H94181   0.058   8.565   5.825 -1.2911 -0.2390 -2.0928
  698MOL0     H94182  -0.077   8.652   5.633 -2.7177  1.0390 -1.8511
  698MOL0     H94183  -0.027   8.592   5.471 -1.2302 -0.0415 -0.1186
  698MOL0     H94184  -0.163   8.379   5.595  1.5785 -0.0777 -0.3630
  698MOL0     H94185  -0.240   8.490   5.468  2.1363 -0.7752 -1.1510
  698MOL0     H94186  -0.318   8.627   5.692  0.9099 -0.2443  1.2176
  698MOL0     H94187  -0.255   8.493   5.786  0.0950  2.1647  1.3340
  698MOL0     H94188  -0.413   8.352   5.714  0.0807 -0.4083 -0.9971
  698MOL0     H94189  -0.444   8.443   5.555 -0.5880  3.7890 -0.4914
  698MOL0     H94190  -0.734   8.694   5.777  1.1201 -0.6115  1.1433
  698MOL0     H94191  -1.016   8.622   5.888 -0.2572 -2.1015  0.3784
  698MOL0     H94192  -0.946   8.753   5.793 -1.6064 -0.0995 -0.6917
  698MOL0     H94193  -1.084   8.669   5.727 -0.2182  0.4933  1.0896
  698MOL0     H94194  -1.337   8.387   5.595 -2.7177 -0.0272 -0.1142
  698MOL0     H94195  -1.545   8.280   5.542  0.8172  0.6605  0.0430
  698MOL0     H94196  -1.726   8.106   5.552  1.7978 -0.6085  0.2854
  698MOL0     H94197  -1.710   8.170   5.395 -1.4534  1.6857  3.9080
  698MOL0     H94198  -1.785   7.984   5.293 -0.0761  2.3279 -0.4375
  698MOL0     H94199  -1.769   7.872   5.430  1.8609  0.3274 -1.9267
  698MOL0     H94200  -1.980   8.094   5.424 -1.3322 -0.2739  1.1645
  698MOL0     H94201  -1.949   7.970   5.553  2.7890 -2.2769 -1.1197
  698MOL0     H94202  -1.997   7.888   5.265  1.6986 -1.4334  0.8178
  698MOL0     H94203  -2.003   7.784   5.397  0.6701  0.3510 -0.2315
  698MOL0     H94204  -2.189   8.009   5.360 -0.4850 -0.0507  0.8707
  698MOL0     H94205  -2.198   7.904   5.494 -1.6846  2.4859 -0.6716
  698MOL0     H94206  -2.251   7.707   5.346  0.5649  0.3383  2.2760
  698MOL0     H94207  -2.372   7.842   5.339 -0.1311 -1.2327  2.5810
  698MOL0     H94208  -2.135   7.792   5.140  0.2650 -1.0317  1.0727
  698MOL0     H94209  -2.257   7.918   5.125 -0.8696  0.5593  1.4108
  698MOL0     H94210  -2.326   7.615   5.147 -0.8378  0.9522  0.2199
  698MOL0     H94211  -2.277   7.680   4.983  0.7892 -2.0678  0.5443
  698MOL0     H94212  -1.327   7.911   5.448  0.8142 -0.4276  2.0063
  698MOL0     H94213  -1.134   8.015   5.513  0.2301  0.8215  1.9150
  698MOL0     H94214  -0.859   8.251   5.598  2.1013 -1.8567  2.7841
  698MOL0     H94215  -0.623   8.311   5.612  0.3333  0.4320 -1.0861
  698MOL0     H94216   1.308   8.689   5.766 -0.9485  0.7901 -1.7014
  698MOL0     H94217   1.535   8.781   5.757  0.0278 -1.3440  1.2450
  698MOL0     H94218   1.834   8.951   5.566 -0.8318 -1.2402 -2.8201
  698MOL0     H94219   2.029   9.095   5.487 -3.0877 -0.7353 -2.3353
  698MOL0     H94220   2.266   9.168   5.487  1.0648 -0.0039  0.3761
  698MOL0     H94221   2.349   9.026   5.554  0.4570  1.0893  0.9118
  698MOL0     H94222   2.408   9.209   5.315  2.8825 -0.0998 -1.1906
  698MOL0     H94223   2.469   9.045   5.308  2.0174  0.6884  0.1190
  698MOL0     H94224   2.625   9.101   5.488 -1.3082 -1.4397 -0.7040
  698MOL0     H94225   2.555   9.255   5.522  0.8796  0.8951 -0.9867
  698MOL0     H94226   2.614   9.328   5.289 -1.0103  0.0119  1.8640
  698MOL0     H94227   2.680   9.175   5.244 -1.3952  0.8864 -0.0340
  698MOL0     H94228   3.004   9.361   5.425  0.8892 -0.6442 -3.3514
  698MOL0     H94229   2.238   8.746   5.358 -0.6653  0.4632 -1.5064
  698MOL0     H94230   2.061   8.609   5.443  0.4586  0.4820 -2.6031
  699MOL0     O94231   8.614   3.030   7.557 -0.8196  0.4687 -0.3353
  699MOL0     C94232   8.671   3.141   7.547  0.0127  0.4539  0.3129
  699MOL0     O94233   8.608   3.268   7.524 -1.0458  0.2116  0.0206
  699MOL0     C94234   8.472   3.280   7.517 -0.9280  0.4271  0.4390
  699MOL0     C94235   8.397   3.235   7.625  0.0466 -0.3695  0.3903
  699MOL0     C94236   8.260   3.266   7.615  0.5151 -0.3093  0.0035
  699MOL0     C94237   8.205   3.333   7.501 -0.3557  0.6765  0.2652
  699MOL0     O94238   8.069   3.342   7.491  0.0094  0.1878  1.0473
  699MOL0     C94239   8.005   3.350   7.365 -0.1996 -0.2731  0.2969
  699MOL0     C94240   7.849   3.321   7.374 -0.7886 -0.3586  0.1160
  699MOL0     C94241   7.788   3.300   7.237  0.3941 -1.0390 -0.4921
  699MOL0     C94242   7.648   3.231   7.247  0.1644  0.1466  0.0603
  699MOL0     C94243   7.556   3.323   7.327  0.4756  0.1711 -0.7603
  699MOL0     C94244   7.422   3.255   7.357  0.6048  0.0179  0.2087
  699MOL0     C94245   7.323   3.213   7.248 -0.7583 -0.1496 -0.0977
  699MOL0     C94246   7.211   3.323   7.211  0.2584  0.3584 -0.3621
  699MOL0     N94247   7.144   3.300   7.086  1.0003 -0.5341 -0.2039
  699MOL0     C94248   7.072   3.190   7.047 -0.2254  0.3273 -0.2840
  699MOL0     C94249   7.046   3.207   6.915  0.3061 -1.1944  0.8217
  699MOL0     C94250   6.963   3.107   6.831 -1.5673 -0.5946 -0.1511
  699MOL0     C94251   6.814   3.128   6.798 -0.9661 -0.3374  1.2547
  699MOL0     C94252   6.712   3.060   6.877 -0.4643 -0.1422  0.0826
  699MOL0     C94253   6.580   3.099   6.824  0.5430  0.1625 -0.1070
  699MOL0     O94254   6.527   3.219   6.886  0.1661  0.5408 -0.7757
  699MOL0     C94255   6.386   3.230   6.900  0.8448  0.8157  0.3637
  699MOL0     C94256   6.288   3.170   6.819 -0.9173 -0.4007 -0.3890
  699MOL0     C94257   6.153   3.169   6.843  0.5326 -0.2426 -1.1234
  699MOL0     C94258   6.054   3.107   6.751  0.3475  0.6407  0.5260
  699MOL0     C94259   6.097   3.245   6.954 -0.1553 -0.3102  0.1935
  699MOL0     C94260   5.961   3.244   7.006 -0.2781  0.3896  1.0063
  699MOL0     O94261   5.895   3.353   7.054  0.2824  0.2427  0.0449
  699MOL0     C94262   5.757   3.366   7.066 -0.3488  1.0987  0.1660
  699MOL0     C94263   5.667   3.288   6.995 -0.3863 -0.0329 -0.8785
  699MOL0     C94264   5.533   3.296   7.012  0.6731  0.2061  0.3520
  699MOL0     C94265   5.482   3.375   7.114 -0.4684 -0.1428  0.7335
  699MOL0     O94266   5.350   3.362   7.143 -0.5960  0.5959  0.2856
  699MOL0     C94267   5.290   3.486   7.174 -0.0516  0.4486 -0.6354
  699MOL0     C94268   5.143   3.466   7.179 -1.2888 -0.2465  0.5756
  699MOL0     C94269   5.092   3.392   7.305  0.0979 -0.1670  0.3530
  699MOL0     C94270   4.940   3.362   7.304 -0.2348 -0.1740  0.3941
  699MOL0     C94271   4.895   3.324   7.450  0.1400  1.2413  0.1354
  699MOL0     C94272   4.741   3.306   7.451 -0.5931 -0.8836 -0.1010
  699MOL0     C94273   4.681   3.323   7.583  0.0646 -0.3198 -0.1975
  699MOL0     C94274   4.528   3.287   7.598  0.6206  0.0108  0.7131
  699MOL0    Cl94275   4.502   3.105   7.601  0.3579 -0.1721  0.1715
  699MOL0     C94276   5.571   3.454   7.191 -0.6359 -0.1935  0.6039
  699MOL0     C94277   5.710   3.449   7.166 -1.1588  0.4800 -0.0757
  699MOL0     O94278   5.920   3.134   7.010  0.3658 -0.2576 -0.5346
  699MOL0     C94279   6.195   3.303   7.040 -0.4011 -0.0408  0.2728
  699MOL0     C94280   6.334   3.297   7.007 -0.4346  0.5331 -0.1966
  699MOL0     N94281   7.089   3.330   6.876 -0.9425 -0.3105 -0.1939
  699MOL0     N94282   7.138   3.388   6.981  0.3573  0.4820  0.2024
  699MOL0     C94283   8.289   3.390   7.410 -0.3345  0.1089 -0.0200
  699MOL0     C94284   8.420   3.356   7.410  0.1517 -0.4166 -0.7088
  699MOL0     C94285   8.819   3.138   7.547  0.0681  0.1101 -0.4659
  699MOL0     C94286   8.901   3.255   7.542  0.6799 -0.6118  0.3369
  699MOL0     C94287   9.039   3.252   7.550 -0.2328  0.4563 -0.1312
  699MOL0     C94288   9.105   3.131   7.550  1.0666 -0.4461  0.3184
  699MOL0     O94289   9.231   3.133   7.536 -0.5510  0.1323  0.2179
  699MOL0     C94290   9.310   3.010   7.512  0.3792 -0.2137 -0.1152
  699MOL0     C94291   9.459   3.049   7.529  0.4537 -0.6952 -0.7590
  699MOL0     C94292   9.548   2.930   7.524 -0.8168  1.1247  1.0486
  699MOL0     C94293   9.694   2.944   7.577  0.8790 -0.2811  0.7402
  699MOL0     C94294   9.751   2.807   7.597  0.3611  0.2059 -0.5713
  699MOL0     C94295   9.781   2.693   7.605 -1.0235 -0.0199 -0.1014
  699MOL0     C94296   9.023   3.015   7.559  0.1463  0.8157  0.4441
  699MOL0     C94297   8.885   3.015   7.562 -0.1609 -0.6766 -0.6607
  699MOL0     H94298   8.439   3.182   7.710 -1.2936 -0.4091  1.0589
  699MOL0     H94299   8.184   3.234   7.686 -0.7721  2.5510  0.0601
  699MOL0     H94300   8.014   3.448   7.319  1.6327 -0.2654  0.6156
  699MOL0     H94301   8.042   3.280   7.290  0.5717 -3.7815  3.5943
  699MOL0     H94302   7.845   3.225   7.426 -0.6760 -0.3754  0.0921
  699MOL0     H94303   7.802   3.411   7.416 -1.7106  0.1085 -1.7924
  699MOL0     H94304   7.772   3.395   7.186 -0.8903 -0.1719  1.3959
  699MOL0     H94305   7.859   3.245   7.174 -1.0325 -0.6139 -2.5604
  699MOL0     H94306   7.603   3.221   7.148  3.3529  0.2654 -1.5196
  699MOL0     H94307   7.663   3.141   7.307  1.4558  0.5176  0.3305
  699MOL0     H94308   7.593   3.361   7.422 -0.1614  0.9704 -0.8173
  699MOL0     H94309   7.530   3.408   7.263  4.3607  1.6807 -0.5796
  699MOL0     H94310   7.441   3.167   7.420 -0.0222 -0.3211 -0.0710
  699MOL0     H94311   7.369   3.321   7.425 -0.2787 -1.8653  1.4405
  699MOL0     H94312   7.381   3.178   7.162  0.5734  1.5116  0.0769
  699MOL0     H94313   7.269   3.131   7.295  0.9679  0.1337  2.5829
  699MOL0     H94314   7.249   3.426   7.212 -0.5392  0.6919 -1.6491
  699MOL0     H94315   7.140   3.323   7.293 -0.6725  0.6592 -1.1480
  699MOL0     H94316   7.050   3.111   7.117  1.7905  0.9642  1.1814
  699MOL0     H94317   7.009   3.094   6.733  1.7477 -0.1415  1.2301
  699MOL0     H94318   6.979   3.008   6.875 -0.9021 -1.1508 -1.5816
  699MOL0     H94319   6.818   3.101   6.692 -2.4067  2.9658  0.2078
  699MOL0     H94320   6.796   3.236   6.805  0.9083  0.1383 -0.1042
  699MOL0     H94321   6.730   3.097   6.978  3.3960 -1.0773 -0.0738
  699MOL0     H94322   6.728   2.951   6.876  0.2511 -0.1340  2.5773
  699MOL0     H94323   6.517   3.011   6.843 -0.8651  0.9243 -1.0417
  699MOL0     H94324   6.578   3.113   6.715  1.6718 -3.0299 -0.6407
  699MOL0     H94325   6.327   3.103   6.743  1.0105 -0.8220  0.9051
  699MOL0     H94326   5.983   3.187   6.727  0.4548  0.4974 -0.2883
  699MOL0     H94327   6.103   3.080   6.657 -1.6144  0.8222 -0.6065
  699MOL0     H94328   5.995   3.026   6.794 -0.6270  0.6639 -0.6905
  699MOL0     H94329   5.695   3.211   6.924  1.6552 -1.2034  1.0466
  699MOL0     H94330   5.464   3.232   6.958  0.9437 -3.1416  3.5496
  699MOL0     H94331   5.333   3.530   7.264  2.2534  3.4311 -2.9629
  699MOL0     H94332   5.307   3.558   7.093  0.7665  1.9289  0.8011
  699MOL0     H94333   5.093   3.562   7.192 -1.4388 -0.2993  0.4020
  699MOL0     H94334   5.111   3.427   7.082  2.6660 -1.1505 -0.5461
  699MOL0     H94335   5.112   3.463   7.386  1.3221  0.9377 -0.8805
  699MOL0     H94336   5.149   3.302   7.329  0.3211 -0.6411 -1.7736
  699MOL0     H94337   4.878   3.443   7.265 -1.4486 -2.1148 -1.9983
  699MOL0     H94338   4.929   3.282   7.231 -0.7061  0.7787 -0.6079
  699MOL0     H94339   4.927   3.399   7.523 -2.0178  1.2970  1.1084
  699MOL0     H94340   4.936   3.225   7.474 -1.2197 -0.0126 -2.2929
  699MOL0     H94341   4.701   3.386   7.388 -0.7709  0.6510  1.8306
  699MOL0     H94342   4.719   3.208   7.409 -0.7753 -0.4433 -1.0470
  699MOL0     H94343   4.685   3.429   7.611  2.3847 -0.2799 -0.4869
  699MOL0     H94344   4.747   3.274   7.656  2.3844  2.9403  0.1298
  699MOL0     H94345   4.464   3.327   7.519  1.1106 -0.6017 -0.0115
  699MOL0     H94346   4.485   3.323   7.692  2.3337  0.0049  1.5413
  699MOL0     H94347   5.537   3.529   7.261 -0.0365  0.0821  0.6080
  699MOL0     H94348   5.777   3.516   7.218 -0.7799  1.0441 -1.2466
  699MOL0     H94349   6.163   3.362   7.125 -0.0480  1.6146 -0.6790
  699MOL0     H94350   6.405   3.348   7.071  2.4456 -1.3291 -1.6937
  699MOL0     H94351   8.256   3.459   7.333  2.4393  0.0285 -1.4122
  699MOL0     H94352   8.489   3.394   7.336 -0.4753 -1.3142 -1.7783
  699MOL0     H94353   8.855   3.353   7.536 -1.3221 -1.5893 -2.9258
  699MOL0     H94354   9.100   3.341   7.544  2.3110 -1.2072 -0.4777
  699MOL0     H94355   9.281   2.938   7.589 -1.6575  1.9934  1.3640
  699MOL0     H94356   9.294   2.972   7.411  3.7148  2.4935 -1.8788
  699MOL0     H94357   9.472   3.097   7.627  1.9954 -4.1930  0.9262
  699MOL0     H94358   9.492   3.115   7.447  1.7699 -0.9740 -0.4853
  699MOL0     H94359   9.559   2.901   7.420 -2.8649 -0.6710  1.2575
  699MOL0     H94360   9.493   2.852   7.579  0.4724 -0.0985  0.6654
  699MOL0     H94361   9.701   2.996   7.672  1.4001 -0.5584  0.8591
  699MOL0     H94362   9.754   2.993   7.499 -3.0515  2.3794 -0.9281
  699MOL0     H94363   9.807   2.589   7.612 -0.9008  0.1193  2.0900
  699MOL0     H94364   9.082   2.924   7.565  1.0576  1.0042 -3.2040
  699MOL0     H94365   8.842   2.919   7.589  1.8729 -2.0738 -2.0392
  700MOL0     O94366   3.721   7.035   0.781 -0.5742  0.1438 -0.7189
  700MOL0     C94367   3.748   6.948   0.697 -0.0396 -0.3250  0.0924
  700MOL0     O94368   3.651   6.871   0.639 -0.6977  0.4849  1.0424
  700MOL0     C94369   3.515   6.882   0.662  0.0567 -1.1410 -0.6344
  700MOL0     C94370   3.442   6.776   0.714 -1.0449 -0.0790  0.7646
  700MOL0     C94371   3.309   6.785   0.744  0.7726  0.4294 -1.0447
  700MOL0     C94372   3.243   6.901   0.716  0.0473  0.3641  0.8057
  700MOL0     O94373   3.108   6.923   0.731  0.5006 -0.9240  0.2572
  700MOL0     C94374   3.019   6.815   0.773 -0.8503  0.3839  0.2107
  700MOL0     C94375   2.872   6.860   0.768 -0.9680 -0.1634 -0.7355
  700MOL0     C94376   2.838   6.896   0.617  1.3844 -0.0509  0.0754
  700MOL0     C94377   2.677   6.887   0.622 -0.4569 -0.4741 -0.0753
  700MOL0     C94378   2.613   6.967   0.500  0.2643  0.9849 -0.5657
  700MOL0     C94379   2.478   7.035   0.536 -0.1686  0.3520 -0.5565
  700MOL0     C94380   2.427   7.103   0.413  0.3823  0.6087  0.6388
  700MOL0     C94381   2.292   7.177   0.437  0.6683 -0.6757  0.4340
  700MOL0     N94382   2.176   7.089   0.464 -0.7562 -0.0214 -0.2036
  700MOL0     C94383   2.151   6.958   0.412  0.0472 -2.0485  0.2141
  700MOL0     C94384   2.024   6.929   0.465 -1.0639  0.4077  0.5627
  700MOL0     C94385   1.948   6.799   0.428  0.0903 -0.8578 -0.2475
  700MOL0     C94386   1.805   6.847   0.403 -0.0605 -1.4235 -0.3525
  700MOL0     C94387   1.710   6.736   0.361 -0.1913  0.6016 -0.0073
  700MOL0     C94388   1.565   6.781   0.361 -0.2422 -0.7102  0.9751
  700MOL0     O94389   1.498   6.690   0.270  0.2164  0.3900  0.6158
  700MOL0     C94390   1.405   6.740   0.183 -0.6524 -0.0776 -0.0155
  700MOL0     C94391   1.328   6.848   0.212  0.5711 -0.1587 -0.5277
  700MOL0     C94392   1.225   6.885   0.122  0.3013 -0.6536 -0.3361
  700MOL0     C94393   1.143   7.005   0.164  0.3969 -0.3435 -0.9148
  700MOL0     C94394   1.198   6.816  -0.006 -0.1499  0.1031 -0.4021
  700MOL0     C94395   1.104   6.859  -0.103 -0.5297 -0.0885  0.8813
  700MOL0     O94396   1.068   6.764  -0.203 -0.2640 -0.1474  0.1144
  700MOL0     C94397   1.022   6.812  -0.323 -0.6005 -0.5155  0.1065
  700MOL0     C94398   1.105   6.802  -0.434 -0.1082 -0.6980  0.6326
  700MOL0     C94399   1.055   6.855  -0.554  0.0311  0.7547  0.6628
  700MOL0     C94400   0.933   6.923  -0.568 -0.5191 -0.4335 -0.1587
  700MOL0     O94401   0.892   6.974  -0.689  0.2716  0.6326  0.1236
  700MOL0     C94402   0.988   7.047  -0.759  0.4871 -1.2574  0.2221
  700MOL0     C94403   0.930   7.111  -0.890 -0.1143 -0.1460  0.0465
  700MOL0     C94404   0.808   7.202  -0.881 -0.2340 -0.0855  0.3781
  700MOL0     C94405   0.825   7.333  -0.788  0.3776 -0.4585 -0.0435
  700MOL0     C94406   0.938   7.420  -0.827 -0.5009 -1.2211  0.2452
  700MOL0     C94407   0.937   7.452  -0.980  1.0649  0.2091  0.7137
  700MOL0     C94408   0.804   7.511  -1.040 -0.0870 -0.6243 -0.4696
  700MOL0     C94409   0.821   7.574  -1.179  0.1654 -0.2957  1.1694
  700MOL0    Cl94410   0.784   7.455  -1.316 -0.0118 -0.0879  0.1422
  700MOL0     C94411   0.851   6.927  -0.461  0.9447  0.4180 -0.4816
  700MOL0     C94412   0.894   6.875  -0.337  0.0405  0.9110 -0.0557
  700MOL0     O94413   1.068   6.977  -0.105  0.2823 -0.2766  0.2460
  700MOL0     C94414   1.281   6.705  -0.029 -0.8767  1.0395  0.0813
  700MOL0     C94415   1.385   6.667   0.067  0.4533 -0.0113  0.5045
  700MOL0     N94416   1.984   7.038   0.537  0.3128  0.3341 -0.1401
  700MOL0     N94417   2.075   7.127   0.536 -0.4320  0.1592  0.3951
  700MOL0     C94418   3.312   7.007   0.663 -0.2164 -0.4715  0.7188
  700MOL0     C94419   3.447   7.004   0.634  0.0566 -0.1139  0.0855
  700MOL0     C94420   3.892   6.920   0.662 -0.6848 -0.6311  0.1827
  700MOL0     C94421   3.928   6.819   0.572 -0.7165  0.0975 -0.9958
  700MOL0     C94422   4.061   6.793   0.542  0.0329  0.3714  0.5948
  700MOL0     C94423   4.165   6.870   0.601  0.5201 -0.1641  0.2350
  700MOL0     O94424   4.297   6.856   0.581 -0.1799  1.2334 -0.9928
  700MOL0     C94425   4.319   6.796   0.448  1.4300 -0.8675 -0.0375
  700MOL0     C94426   4.465   6.810   0.408  0.1067 -0.7542  0.3125
  700MOL0     C94427   4.507   6.957   0.416 -0.4361 -0.0276 -0.5934
  700MOL0     C94428   4.457   7.030   0.296  0.6796  0.2481  0.1228
  700MOL0     C94429   4.536   6.995   0.179 -0.1073 -0.6425  0.4713
  700MOL0     C94430   4.595   6.967   0.075 -0.4807  0.1230 -0.2784
  700MOL0     C94431   4.124   6.972   0.702  0.3192  0.4590  0.1491
  700MOL0     C94432   3.986   6.997   0.723 -0.0903 -0.3749  0.4478
  700MOL0     H94433   3.496   6.688   0.747  1.3328  1.0415  0.0741
  700MOL0     H94434   3.248   6.704   0.782 -0.6292  0.8960 -2.2047
  700MOL0     H94435   3.031   6.730   0.706  2.2764  1.4256 -0.7297
  700MOL0     H94436   3.044   6.786   0.875  0.5226  1.9596  0.3734
  700MOL0     H94437   2.808   6.782   0.809 -2.1951  0.9342 -0.4832
  700MOL0     H94438   2.863   6.951   0.829  1.1647 -0.6799  0.4385
  700MOL0     H94439   2.873   6.999   0.605 -1.3749  0.9640  0.0807
  700MOL0     H94440   2.872   6.833   0.534 -2.3417 -0.7911 -1.0660
  700MOL0     H94441   2.643   6.783   0.631  1.6987 -1.3868 -1.5125
  700MOL0     H94442   2.646   6.937   0.714 -0.0877 -1.2571  0.4957
  700MOL0     H94443   2.677   7.051   0.471 -0.9273  2.2681  0.4157
  700MOL0     H94444   2.594   6.901   0.415  0.2415 -3.3572  2.4797
  700MOL0     H94445   2.413   6.960   0.583 -0.6564  0.0328 -1.7179
  700MOL0     H94446   2.491   7.109   0.615 -0.3953  0.2006 -0.3746
  700MOL0     H94447   2.502   7.166   0.364  1.6294 -2.6070 -1.9953
  700MOL0     H94448   2.400   7.031   0.335 -0.5752  1.5157  0.1166
  700MOL0     H94449   2.258   7.229   0.347 -2.7901 -1.8512  0.9142
  700MOL0     H94450   2.293   7.252   0.516 -2.7887 -1.7664  1.6852
  700MOL0     H94451   2.218   6.903   0.347  1.3409 -0.3451  0.0298
  700MOL0     H94452   1.988   6.765   0.332 -2.9800 -0.9566 -1.6261
  700MOL0     H94453   1.957   6.719   0.502  0.9450  1.0247  1.8009
  700MOL0     H94454   1.802   6.933   0.335 -1.4134  0.7280  2.2233
  700MOL0     H94455   1.770   6.880   0.501 -0.4112 -0.7510 -0.6909
  700MOL0     H94456   1.715   6.654   0.433 -1.3638 -0.5327 -1.1706
  700MOL0     H94457   1.751   6.704   0.264  3.5978 -2.6832  2.3904
  700MOL0     H94458   1.568   6.882   0.318  0.4863 -0.6317  1.2069
  700MOL0     H94459   1.529   6.769   0.463 -0.3542 -1.6676  0.8294
  700MOL0     H94460   1.347   6.899   0.306  0.5298 -0.0233 -0.5930
  700MOL0     H94461   1.164   7.094   0.105 -3.8454  2.0349  0.7336
  700MOL0     H94462   1.035   6.987   0.158 -0.4793  2.9449  1.9266
  700MOL0     H94463   1.150   7.033   0.269 -3.9385 -1.6180 -0.0575
  700MOL0     H94464   1.199   6.748  -0.434  2.2120  2.9720  1.2196
  700MOL0     H94465   1.121   6.856  -0.640 -1.9478  0.4130 -0.9284
  700MOL0     H94466   1.052   7.117  -0.704  0.9962 -1.0343 -0.6385
  700MOL0     H94467   1.055   6.969  -0.797  1.5025 -0.8354  1.0642
  700MOL0     H94468   1.009   7.166  -0.941 -3.0375  2.9716 -1.4450
  700MOL0     H94469   0.890   7.030  -0.952  0.0625  2.3040 -3.5305
  700MOL0     H94470   0.730   7.132  -0.848  1.9566 -1.7678  2.2800
  700MOL0     H94471   0.784   7.237  -0.982  2.3587  1.7523  0.3012
  700MOL0     H94472   0.731   7.386  -0.804  0.9633  0.6584  0.1588
  700MOL0     H94473   0.846   7.306  -0.684 -0.5519  4.0549  1.5261
  700MOL0     H94474   1.029   7.362  -0.808  1.4753  0.8677 -2.0784
  700MOL0     H94475   0.922   7.513  -0.772 -1.7234 -1.5527  0.4835
  700MOL0     H94476   1.016   7.527  -0.997  1.0046 -0.0350 -0.7979
  700MOL0     H94477   0.958   7.360  -1.036 -1.2537 -1.2650  2.1058
  700MOL0     H94478   0.783   7.593  -0.970  0.9005 -0.5860 -0.2101
  700MOL0     H94479   0.716   7.446  -1.035 -0.9489  0.5882  2.1405
  700MOL0     H94480   0.926   7.604  -1.185 -0.2351  1.4486  2.2725
  700MOL0     H94481   0.757   7.662  -1.183  1.5278  0.7125  0.5196
  700MOL0     H94482   0.758   6.981  -0.467  0.0753 -0.9996 -0.2413
  700MOL0     H94483   0.826   6.891  -0.254 -1.8245 -2.5364 -0.7391
  700MOL0     H94484   1.261   6.623  -0.098  0.3795 -0.9859  1.9789
  700MOL0     H94485   1.460   6.591   0.044  0.6312 -0.4818  2.4162
  700MOL0     H94486   3.260   7.098   0.635  1.0510  0.2241  0.5873
  700MOL0     H94487   3.510   7.083   0.596  1.5505 -0.6643  1.3044
  700MOL0     H94488   3.858   6.751   0.525 -0.0371 -0.7543 -0.8080
  700MOL0     H94489   4.082   6.708   0.478  0.6817  1.2418 -0.3735
  700MOL0     H94490   4.300   6.688   0.455  3.8605 -1.5087 -1.9205
  700MOL0     H94491   4.252   6.842   0.375  2.1656 -0.2067 -0.3026
  700MOL0     H94492   4.466   6.770   0.306 -1.4375  2.6437 -1.2160
  700MOL0     H94493   4.528   6.749   0.473  0.5846 -2.0513 -1.2935
  700MOL0     H94494   4.616   6.963   0.422 -0.5682  0.7923  1.7045
  700MOL0     H94495   4.464   7.010   0.501  0.0605  0.5349 -0.6906
  700MOL0     H94496   4.469   7.138   0.305  0.3948  0.1427  2.5963
  700MOL0     H94497   4.351   7.016   0.273  0.7721 -0.7149  0.2095
  700MOL0     H94498   4.643   6.928  -0.013  0.6184 -1.6121  1.0294
  700MOL0     H94499   4.199   7.041   0.739  0.5789  1.9208 -2.8004
  700MOL0     H94500   3.953   7.081   0.782  0.3035 -1.4356  2.2523
  701MOL0     O94501   0.214   5.464  10.691  0.1466  0.0362  0.8914
  701MOL0     C94502   0.295   5.511  10.775  0.2563  0.1743 -0.3660
  701MOL0     O94503   0.401   5.589  10.752  0.3790 -0.4714 -0.3645
  701MOL0     C94504   0.446   5.593  10.623  0.8986  0.7090  1.1552
  701MOL0     C94505   0.373   5.659  10.516  0.0066 -0.9496  0.4110
  701MOL0     C94506   0.423   5.676  10.387 -0.1837  0.6595  0.6074
  701MOL0     C94507   0.536   5.609  10.348 -0.0883 -0.0537 -0.2547
  701MOL0     O94508   0.560   5.601  10.216 -0.3137  0.0943  0.3304
  701MOL0     C94509   0.677   5.542  10.164 -0.2995 -0.9007 -0.3269
  701MOL0     C94510   0.666   5.555  10.011  0.8852 -0.1883  0.3396
  701MOL0     C94511   0.538   5.483   9.956 -0.5764 -0.5957  0.4419
  701MOL0     C94512   0.542   5.471   9.797 -0.3706 -0.1750 -0.9023
  701MOL0     C94513   0.435   5.376   9.749 -0.7967 -0.6018 -0.2178
  701MOL0     C94514   0.291   5.414   9.775 -0.3288  0.3850  0.5845
  701MOL0     C94515   0.201   5.354   9.661 -0.0246  0.5456  0.0805
  701MOL0     C94516   0.051   5.381   9.682  0.2124 -0.7742 -0.0890
  701MOL0     N94517  -0.024   5.348   9.560  0.2074 -0.1047  0.0334
  701MOL0     C94518  -0.027   5.217   9.518 -0.0456 -0.2372 -0.3657
  701MOL0     C94519  -0.059   5.231   9.387  0.7095 -0.4768  0.0520
  701MOL0     C94520  -0.084   5.123   9.296  0.3247  0.2652 -0.1354
  701MOL0     C94521   0.032   5.119   9.202  0.3770  0.2020 -1.0728
  701MOL0     C94522   0.014   5.007   9.094  0.6747  0.5824 -0.3921
  701MOL0     C94523   0.130   5.015   8.989  0.0024  0.1898 -0.2238
  701MOL0     O94524   0.236   4.961   9.058  0.1513  0.5884 -0.1419
  701MOL0     C94525   0.364   4.991   9.010  0.2324 -0.2081  0.6242
  701MOL0     C94526   0.398   5.049   8.882 -0.4148 -0.0847 -0.3182
  701MOL0     C94527   0.528   5.060   8.837  0.3811  0.4515 -0.0890
  701MOL0     C94528   0.553   5.104   8.696  0.0257  0.0711  0.1068
  701MOL0     C94529   0.637   5.020   8.921 -0.3187 -0.0887  0.4331
  701MOL0     C94530   0.785   5.024   8.889 -1.1650  0.2367 -0.3596
  701MOL0     O94531   0.835   5.043   8.761  0.1393 -0.0100  0.8249
  701MOL0     C94532   0.973   5.042   8.758 -0.2474  0.2945 -0.0942
  701MOL0     C94533   1.040   5.166   8.741 -0.1929 -0.5382  0.0463
  701MOL0     C94534   1.179   5.170   8.721  0.2160 -0.4326  0.4104
  701MOL0     C94535   1.254   5.050   8.706  0.2747  0.2601 -0.6648
  701MOL0     O94536   1.392   5.061   8.688  0.2022 -0.2491  0.1338
  701MOL0     C94537   1.438   5.020   8.565 -0.2757 -0.4343 -0.3852
  701MOL0     C94538   1.475   5.153   8.504 -0.9399  0.6277  0.1473
  701MOL0     C94539   1.601   5.215   8.563  0.1189 -0.2759  0.2250
  701MOL0     C94540   1.711   5.118   8.588 -0.0007 -0.5939  0.2521
  701MOL0     C94541   1.846   5.182   8.606  0.3544 -0.2246 -0.8494
  701MOL0     C94542   1.954   5.073   8.593 -0.4739 -1.0051  0.2850
  701MOL0     C94543   2.101   5.126   8.628 -0.1817  0.1248 -1.0829
  701MOL0     C94544   2.121   5.142   8.786 -0.0664  0.0599  0.7319
  701MOL0    Cl94545   2.073   5.002   8.890  0.1951 -0.2272  0.3335
  701MOL0     C94546   1.186   4.923   8.724 -0.2532  0.3158 -1.5625
  701MOL0     C94547   1.048   4.924   8.750  0.6768  0.0560  0.4686
  701MOL0     O94548   0.850   5.040   8.989  0.9139 -0.0289  0.0432
  701MOL0     C94549   0.601   4.962   9.041 -0.1846 -0.2070  0.8364
  701MOL0     C94550   0.471   4.956   9.088  0.1294 -0.1648 -0.1418
  701MOL0     N94551  -0.061   5.372   9.354  0.0111 -0.3878  0.0750
  701MOL0     N94552  -0.045   5.439   9.462 -0.5959 -0.3147 -0.0995
  701MOL0     C94553   0.606   5.530  10.446 -0.5145 -0.1837  0.3300
  701MOL0     C94554   0.562   5.528  10.584  0.4731  0.5392  0.2736
  701MOL0     C94555   0.286   5.458  10.917  0.3771 -0.5444  0.9733
  701MOL0     C94556   0.232   5.334  10.928  1.1631 -0.2738 -1.1525
  701MOL0     C94557   0.203   5.276  11.055 -0.2231 -0.7368 -0.3256
  701MOL0     C94558   0.242   5.350  11.171 -0.5602  0.5851 -0.3015
  701MOL0     O94559   0.222   5.293  11.298 -0.3857 -0.3543  0.5094
  701MOL0     C94560   0.120   5.194  11.313  0.1527 -0.0329  0.9514
  701MOL0     C94561   0.078   5.185  11.458 -0.0265 -0.0025  0.6950
  701MOL0     C94562   0.019   5.312  11.525 -0.0912  0.3100  0.1425
  701MOL0     C94563  -0.118   5.367  11.470  0.2093 -0.3777  0.2506
  701MOL0     C94564  -0.226   5.273  11.472  0.6443 -0.2849 -0.3122
  701MOL0     C94565  -0.313   5.202  11.484  0.4618  0.5011 -0.6536
  701MOL0     C94566   0.300   5.472  11.151  0.3170 -0.8488 -0.8584
  701MOL0     C94567   0.330   5.528  11.028  0.7878 -0.7973 -0.1931
  701MOL0     H94568   0.280   5.712  10.538 -0.7782 -2.6566  1.4389
  701MOL0     H94569   0.362   5.713  10.306  0.3737 -0.8293 -0.5340
  701MOL0     H94570   0.765   5.592  10.207  0.7746 -1.6959 -1.5146
  701MOL0     H94571   0.677   5.433  10.177  1.5210 -0.7560  1.4592
  701MOL0     H94572   0.658   5.661   9.985 -1.6879 -0.3566  0.1924
  701MOL0     H94573   0.757   5.516   9.964  2.3042  0.9258  2.0592
  701MOL0     H94574   0.545   5.379   9.988 -0.1781 -2.0585 -3.7894
  701MOL0     H94575   0.450   5.540   9.988  0.6333  0.8170  1.4136
  701MOL0     H94576   0.540   5.574   9.759  1.0357 -0.0101 -0.5824
  701MOL0     H94577   0.641   5.435   9.766  0.0775 -0.1465  0.4144
  701MOL0     H94578   0.456   5.362   9.642 -3.0101  2.6834 -1.2408
  701MOL0     H94579   0.443   5.278   9.795 -0.7178 -0.2048  0.6322
  701MOL0     H94580   0.259   5.373   9.871  1.7971  3.0009  2.5502
  701MOL0     H94581   0.278   5.523   9.776 -2.9224  0.3843 -4.0101
  701MOL0     H94582   0.227   5.407   9.569 -1.1186  1.9028  0.5277
  701MOL0     H94583   0.201   5.244   9.660  1.7591  0.5040  1.2308
  701MOL0     H94584   0.029   5.485   9.707 -0.9282 -0.9352 -0.3858
  701MOL0     H94585   0.025   5.325   9.772  3.7380  0.6224  1.9853
  701MOL0     H94586  -0.012   5.122   9.570 -2.2292 -1.1240 -1.2206
  701MOL0     H94587  -0.089   5.035   9.360 -1.1899  0.8255  0.5676
  701MOL0     H94588  -0.175   5.141   9.238  0.4326  1.2848 -0.0008
  701MOL0     H94589   0.130   5.106   9.249  1.1290  0.8537 -2.4045
  701MOL0     H94590   0.036   5.214   9.148 -0.5726  0.2375 -1.0942
  701MOL0     H94591  -0.076   5.034   9.039 -0.1832  4.0969  2.4110
  701MOL0     H94592  -0.002   4.907   9.135 -0.6091 -0.1890 -2.5837
  701MOL0     H94593   0.132   5.117   8.949 -2.1068  0.9388  1.3943
  701MOL0     H94594   0.103   4.958   8.900 -0.6516  1.3200 -0.7724
  701MOL0     H94595   0.320   5.073   8.810 -0.2638  2.3409  0.2286
  701MOL0     H94596   0.583   5.021   8.631 -0.9736 -0.7878  0.7010
  701MOL0     H94597   0.465   5.143   8.644 -2.0931 -3.4183  0.7717
  701MOL0     H94598   0.635   5.176   8.688 -0.9108  1.2539  0.7271
  701MOL0     H94599   0.978   5.255   8.734  1.9245  1.2234  2.1473
  701MOL0     H94600   1.230   5.262   8.698  0.3920 -0.6320 -0.0150
  701MOL0     H94601   1.517   4.945   8.566  0.4271  0.3016 -0.1095
  701MOL0     H94602   1.351   4.988   8.507  0.2026  2.0371 -2.6381
  701MOL0     H94603   1.491   5.135   8.397 -1.2665  1.2798 -0.0128
  701MOL0     H94604   1.390   5.221   8.512 -0.6394  1.0113  0.1130
  701MOL0     H94605   1.569   5.278   8.647  1.0875  2.1232 -1.0860
  701MOL0     H94606   1.628   5.298   8.497 -1.3720 -0.8981 -1.2409
  701MOL0     H94607   1.694   5.055   8.676  1.3320  0.1618  1.0728
  701MOL0     H94608   1.716   5.060   8.495 -3.2559 -2.3539  1.0254
  701MOL0     H94609   1.834   5.217   8.709  1.0088 -1.0418 -0.4822
  701MOL0     H94610   1.864   5.263   8.534  0.3230  1.6265  1.1346
  701MOL0     H94611   1.939   4.985   8.655  1.2384 -1.1419  0.5709
  701MOL0     H94612   1.950   5.041   8.488  0.4396  0.1479 -0.1193
  701MOL0     H94613   2.117   5.227   8.588 -0.8864  0.4161 -0.6447
  701MOL0     H94614   2.167   5.048   8.589  0.8884  0.7002 -0.4587
  701MOL0     H94615   2.057   5.223   8.822 -0.7916 -0.0748 -0.2062
  701MOL0     H94616   2.227   5.163   8.805 -0.3255  1.0602  1.0944
  701MOL0     H94617   1.240   4.829   8.723 -1.8378 -0.6762 -0.0253
  701MOL0     H94618   0.996   4.829   8.758  0.3681  0.3788  3.1893
  701MOL0     H94619   0.676   4.928   9.112  1.8334  1.7701 -0.2407
  701MOL0     H94620   0.462   4.915   9.189 -3.2909  0.7282  0.0620
  701MOL0     H94621   0.700   5.480  10.424 -0.1427  1.4800 -2.1607
  701MOL0     H94622   0.618   5.473  10.660 -1.0641 -2.3847 -0.5799
  701MOL0     H94623   0.207   5.263  10.850 -0.7135 -3.8703  2.3032
  701MOL0     H94624   0.146   5.184  11.066 -0.8054 -0.2288  1.1985
  701MOL0     H94625   0.029   5.220  11.258 -1.2741 -1.3971  2.5619
  701MOL0     H94626   0.151   5.097  11.275  2.1233  0.9509 -0.1421
  701MOL0     H94627   0.164   5.143  11.510  0.1229 -0.8253 -0.1954
  701MOL0     H94628   0.002   5.107  11.460 -1.8986  1.6753  3.9523
  701MOL0     H94629   0.094   5.391  11.532  0.4314  0.2112 -2.8989
  701MOL0     H94630   0.019   5.279  11.629  0.0639 -0.2357 -0.0216
  701MOL0     H94631  -0.104   5.406  11.369 -1.2576  1.1213  0.5836
  701MOL0     H94632  -0.143   5.453  11.533 -1.0892 -0.3007 -0.3341
  701MOL0     H94633  -0.403   5.145  11.500 -0.1842  1.3303 -1.2038
  701MOL0     H94634   0.313   5.532  11.241  0.9324 -2.7955  0.4062
  701MOL0     H94635   0.367   5.629  11.028 -0.2969 -0.2981  2.7788
  702MOL0     O94636   2.000   8.419  11.050 -0.9028 -0.9384 -0.1242
  702MOL0     C94637   2.034   8.398  10.935 -0.6048  0.0839 -0.0186
  702MOL0     O94638   1.952   8.359  10.836  0.9628  0.2989  0.2800
  702MOL0     C94639   1.820   8.366  10.853  0.1623  0.9436 -0.2090
  702MOL0     C94640   1.745   8.250  10.837 -0.0825 -0.6446 -0.2337
  702MOL0     C94641   1.601   8.259  10.843  0.4338  0.3456  0.8407
  702MOL0     C94642   1.540   8.388  10.853  0.1164  0.6955  0.2057
  702MOL0     O94643   1.405   8.399  10.851 -0.0877  0.4957  0.2953
  702MOL0     C94644   1.321   8.284  10.854 -1.2079  0.8972  0.3894
  702MOL0     C94645   1.184   8.330  10.887 -0.1159  0.4242  0.2294
  702MOL0     C94646   1.101   8.205  10.903  0.1704 -0.1377  0.0662
  702MOL0     C94647   0.962   8.238  10.859  0.5149  0.0677  0.1491
  702MOL0     C94648   0.857   8.132  10.914  0.7529 -0.0691  0.3527
  702MOL0     C94649   0.825   8.134  11.066  0.2884 -0.0543  0.7195
  702MOL0     C94650   0.696   8.053  11.091  0.2486  1.1017  0.1382
  702MOL0     C94651   0.565   8.131  11.062  0.1903  0.5508  0.2093
  702MOL0     N94652   0.460   8.053  11.127  0.1853  1.1572  1.0015
  702MOL0     C94653   0.414   7.926  11.079 -0.4172 -0.4245 -0.1984
  702MOL0     C94654   0.331   7.886  11.180 -0.7398 -0.1892 -0.4227
  702MOL0     C94655   0.271   7.752  11.200  0.3188  0.4515 -0.8290
  702MOL0     C94656   0.164   7.708  11.090  0.6052 -0.2782 -0.2329
  702MOL0     C94657   0.093   7.586  11.148 -0.0047  0.7023 -0.1895
  702MOL0     C94658  -0.018   7.528  11.056 -0.1291 -0.3947 -0.4271
  702MOL0     O94659  -0.108   7.646  11.047  0.9822  0.0030 -0.2430
  702MOL0     C94660  -0.245   7.631  11.020  0.1002  0.5089 -0.8052
  702MOL0     C94661  -0.332   7.742  11.031 -0.2511 -0.3886  0.7887
  702MOL0     C94662  -0.471   7.728  11.003 -0.5998 -0.8462 -0.3700
  702MOL0     C94663  -0.572   7.846  11.026  0.0528  0.0754  0.4027
  702MOL0     C94664  -0.519   7.603  10.955 -0.2846  0.4979 -0.0149
  702MOL0     C94665  -0.654   7.579  10.916  0.6659  1.8078  0.3901
  702MOL0     O94666  -0.700   7.449  10.926  0.8980 -0.3721  1.3652
  702MOL0     C94667  -0.834   7.424  10.921 -0.0937 -0.0578 -0.3855
  702MOL0     C94668  -0.855   7.285  10.907  0.3645  0.6396 -0.8342
  702MOL0     C94669  -0.987   7.229  10.903  0.3664  0.5662 -1.1149
  702MOL0     C94670  -1.104   7.308  10.923 -0.1396 -0.2068 -1.0413
  702MOL0     O94671  -1.242   7.280  10.916 -0.5527  0.8170  0.1815
  702MOL0     C94672  -1.271   7.134  10.900  0.1389  0.3350  0.1707
  702MOL0     C94673  -1.416   7.099  10.873  0.0597 -0.2201 -0.7286
  702MOL0     C94674  -1.474   7.125  10.736  0.2164 -0.3441 -0.7171
  702MOL0     C94675  -1.615   7.059  10.726 -0.3045 -0.0506 -0.8620
  702MOL0     C94676  -1.687   7.103  10.604  0.0965 -0.4888  0.0750
  702MOL0     C94677  -1.835   7.073  10.613  0.1689  0.2156  0.5523
  702MOL0     C94678  -1.918   7.062  10.482  0.3302  0.1465  0.3496
  702MOL0     C94679  -1.865   6.961  10.378  0.1376 -0.1679 -0.8214
  702MOL0    Cl94680  -2.004   6.881  10.290 -0.2761  0.1605  0.1600
  702MOL0     C94681  -1.077   7.442  10.948 -0.2056 -0.2774  0.7441
  702MOL0     C94682  -0.943   7.505  10.947 -0.7071  0.3872 -0.2193
  702MOL0     O94683  -0.712   7.665  10.853 -0.1291  0.4047  0.0157
  702MOL0     C94684  -0.435   7.492  10.951 -0.4268 -0.0975 -0.2188
  702MOL0     C94685  -0.297   7.505  10.984  0.8198 -0.2388 -0.3227
  702MOL0     N94686   0.324   7.978  11.271  0.4371 -0.4877  0.6520
  702MOL0     N94687   0.394   8.074  11.241 -0.5142 -0.6644 -0.4103
  702MOL0     C94688   1.616   8.503  10.856 -0.2720  0.3732 -0.5979
  702MOL0     C94689   1.753   8.494  10.854 -0.2842  0.9637 -0.2581
  702MOL0     C94690   2.174   8.435  10.887  0.5944 -0.4293  0.4241
  702MOL0     C94691   2.271   8.451  10.979 -0.6191 -0.2092 -0.3280
  702MOL0     C94692   2.394   8.492  10.936 -0.9289  0.6897  0.6346
  702MOL0     C94693   2.419   8.516  10.794  0.2544 -0.0104 -0.2411
  702MOL0     O94694   2.537   8.574  10.734  0.5547  0.3440 -0.1534
  702MOL0     C94695   2.648   8.582  10.821 -0.3609 -0.0932  0.0928
  702MOL0     C94696   2.766   8.593  10.729 -1.1098  0.6881  0.2469
  702MOL0     C94697   2.786   8.451  10.663  0.4476  0.1090  0.2915
  702MOL0     C94698   2.926   8.421  10.606  0.1862 -0.2954 -0.6996
  702MOL0     C94699   2.972   8.493  10.486  0.1466  1.1746  0.9679
  702MOL0     C94700   3.001   8.570  10.398 -0.2856  0.8622 -0.1518
  702MOL0     C94701   2.319   8.491  10.706  0.1745 -0.1995  0.2802
  702MOL0     C94702   2.196   8.447  10.756  0.3595 -0.4973 -0.1448
  702MOL0     H94703   1.798   8.156  10.831  3.4875  1.1960 -0.0334
  702MOL0     H94704   1.548   8.165  10.830 -3.6925  2.5979 -0.4683
  702MOL0     H94705   1.311   8.234  10.758 -0.0394  0.8391  0.2929
  702MOL0     H94706   1.363   8.218  10.931  0.3825  3.3790  1.7674
  702MOL0     H94707   1.186   8.391  10.978  1.3873  2.3948 -1.0447
  702MOL0     H94708   1.142   8.400  10.815  0.0076  0.7865  0.5009
  702MOL0     H94709   1.140   8.137  10.827 -0.7635  1.4662 -1.9413
  702MOL0     H94710   1.102   8.162  11.004  0.3550  2.1132  1.0812
  702MOL0     H94711   0.940   8.339  10.896 -3.2073 -0.3590 -0.4598
  702MOL0     H94712   0.957   8.233  10.750  0.5061 -1.3398  0.2006
  702MOL0     H94713   0.765   8.153  10.859  1.3154  0.5925 -0.3601
  702MOL0     H94714   0.908   8.039  10.887 -1.3215 -1.1481 -0.0068
  702MOL0     H94715   0.907   8.083  11.118  0.6276 -0.1185  0.1276
  702MOL0     H94716   0.806   8.232  11.110  0.2904 -0.1191  0.8644
  702MOL0     H94717   0.702   7.955  11.043  1.7242 -1.7633  5.3107
  702MOL0     H94718   0.695   8.037  11.199 -0.4917 -0.0075 -0.0165
  702MOL0     H94719   0.559   8.146  10.954  3.6771  2.0000  0.0631
  702MOL0     H94720   0.573   8.222  11.121  2.3693 -0.5819  1.7989
  702MOL0     H94721   0.441   7.873  10.988  1.4092  1.3694 -0.7843
  702MOL0     H94722   0.359   7.688  11.209  0.5998  1.0500  1.0986
  702MOL0     H94723   0.219   7.760  11.296 -2.4124 -1.1896 -2.0572
  702MOL0     H94724   0.214   7.690  10.994 -0.0346  2.0247 -1.0556
  702MOL0     H94725   0.103   7.796  11.068 -0.1578 -0.4387  1.1372
  702MOL0     H94726   0.055   7.602  11.250 -2.5644 -0.0075 -0.9667
  702MOL0     H94727   0.169   7.511  11.169  1.0245  1.9915  0.9328
  702MOL0     H94728  -0.066   7.438  11.096 -0.5325 -0.0434 -0.1117
  702MOL0     H94729   0.027   7.496  10.961  0.1549 -2.4688  0.3608
  702MOL0     H94730  -0.292   7.842  11.043  1.2100 -1.0074  1.2587
  702MOL0     H94731  -0.528   7.921  11.094  0.4239 -0.6603  0.9897
  702MOL0     H94732  -0.598   7.893  10.931 -0.8819 -0.4725  0.3713
  702MOL0     H94733  -0.655   7.791  11.072  0.9639 -1.1529  0.6002
  702MOL0     H94734  -0.774   7.214  10.890  1.3519  0.8467  2.2796
  702MOL0     H94735  -1.014   7.126  10.884  0.5001  0.7732 -2.5456
  702MOL0     H94736  -1.211   7.092  10.819 -2.1284 -2.6409 -0.1314
  702MOL0     H94737  -1.239   7.088  10.994  0.0946  2.6073  1.3642
  702MOL0     H94738  -1.430   6.994  10.899 -1.6980  0.2726  0.5316
  702MOL0     H94739  -1.470   7.168  10.939 -1.6709 -3.9913  2.1344
  702MOL0     H94740  -1.412   7.070  10.664  0.9754  0.2221 -0.5164
  702MOL0     H94741  -1.473   7.233  10.714 -1.4613 -0.1798 -0.1176
  702MOL0     H94742  -1.611   6.951  10.739  1.1962  0.2045  1.5052
  702MOL0     H94743  -1.681   7.098  10.805  0.7769 -0.8352  0.4763
  702MOL0     H94744  -1.643   7.051  10.519  1.1181 -2.6343  1.8351
  702MOL0     H94745  -1.669   7.210  10.584  1.2858 -0.8206 -0.7469
  702MOL0     H94746  -1.846   6.985  10.676 -0.9629  0.7122  1.0757
  702MOL0     H94747  -1.881   7.158  10.665 -0.5630  0.0194  0.2355
  702MOL0     H94748  -1.920   7.162  10.439  1.5654  0.0941  0.1295
  702MOL0     H94749  -2.017   7.034  10.521  0.9277 -1.5297  0.7457
  702MOL0     H94750  -1.819   6.875  10.429 -0.4273 -0.1186 -0.2110
  702MOL0     H94751  -1.796   7.004  10.305  0.4531 -0.6231 -0.8010
  702MOL0     H94752  -1.163   7.504  10.971  0.0537 -0.9356  4.0922
  702MOL0     H94753  -0.920   7.610  10.960 -2.6837  0.9484 -0.9768
  702MOL0     H94754  -0.463   7.389  10.936 -0.5194  0.1278 -1.6825
  702MOL0     H94755  -0.227   7.422  10.982  0.8637 -0.2032 -0.2760
  702MOL0     H94756   1.563   8.597  10.864 -1.4134 -0.3520  0.6705
  702MOL0     H94757   1.819   8.579  10.842  1.1477 -0.0490  0.2272
  702MOL0     H94758   2.247   8.443  11.085 -0.7079 -0.2110 -0.3482
  702MOL0     H94759   2.477   8.508  11.004  2.5809 -0.1584 -3.0030
  702MOL0     H94760   2.644   8.675  10.879 -1.3090 -0.1523  0.1392
  702MOL0     H94761   2.657   8.491  10.881  0.7830  1.1448  1.9319
  702MOL0     H94762   2.854   8.618  10.788 -0.3784 -0.3461 -0.3847
  702MOL0     H94763   2.755   8.676  10.659  1.0372  1.7757  1.1182
  702MOL0     H94764   2.712   8.437  10.583 -0.1404 -0.6682  0.9623
  702MOL0     H94765   2.765   8.372  10.735 -0.7544 -0.6161 -0.8014
  702MOL0     H94766   2.935   8.313  10.586 -1.6613 -0.9751  1.7442
  702MOL0     H94767   3.003   8.429  10.683  1.1527 -3.1465 -1.2480
  702MOL0     H94768   3.025   8.653  10.334 -1.4381  2.5353  1.4725
  702MOL0     H94769   2.347   8.501  10.602 -1.8426 -2.9331 -0.6621
  702MOL0     H94770   2.114   8.420  10.690 -1.2349 -3.1258  2.6661
  703MOL0     O94771   1.190   7.023   3.489  0.3820  0.1290 -0.2057
  703MOL0     C94772   1.171   6.907   3.459  0.4142 -0.4892  0.2605
  703MOL0     O94773   1.261   6.819   3.430 -1.0333 -0.2444  0.2306
  703MOL0     C94774   1.393   6.829   3.470 -0.8529  0.3862  0.3093
  703MOL0     C94775   1.445   6.898   3.583  0.2574 -0.2155 -0.7674
  703MOL0     C94776   1.589   6.908   3.615 -0.1417  0.2669  0.4374
  703MOL0     C94777   1.676   6.840   3.538 -0.5230 -1.0853  0.7306
  703MOL0     O94778   1.811   6.849   3.554 -0.1010 -0.3752  0.5282
  703MOL0     C94779   1.867   6.982   3.553  0.3006 -0.0801 -0.1960
  703MOL0     C94780   1.868   7.063   3.418  0.8724  0.2457 -0.8163
  703MOL0     C94781   1.926   7.200   3.435  0.2410 -0.3727  0.4276
  703MOL0     C94782   2.073   7.186   3.467 -0.2714  0.5768  0.2457
  703MOL0     C94783   2.136   7.324   3.464 -0.1712  0.1780 -0.0861
  703MOL0     C94784   2.102   7.406   3.589 -0.4882 -1.0135  0.6195
  703MOL0     C94785   2.181   7.536   3.610  0.0581 -0.2973 -0.5914
  703MOL0     C94786   2.336   7.514   3.585  0.0888  0.1577 -0.1952
  703MOL0     N94787   2.418   7.613   3.651 -0.8264  0.1003  0.0343
  703MOL0     C94788   2.414   7.636   3.778 -0.1729 -0.0071 -1.0241
  703MOL0     C94789   2.515   7.729   3.794  0.3806 -0.0660 -0.6697
  703MOL0     C94790   2.547   7.796   3.920 -0.0630  0.2987 -0.5349
  703MOL0     C94791   2.442   7.801   4.027  0.8235 -0.2583  0.0545
  703MOL0     C94792   2.352   7.927   4.018 -0.1731  0.3388  0.5346
  703MOL0     C94793   2.240   7.925   3.917 -0.2996 -0.0431 -0.1903
  703MOL0     O94794   2.135   7.836   3.941  0.6938  0.0163  0.4114
  703MOL0     C94795   2.014   7.872   3.897  0.1735  0.3103 -0.0533
  703MOL0     C94796   1.912   7.907   3.976  0.0326  0.1223 -0.0585
  703MOL0     C94797   1.782   7.953   3.929 -1.0080  0.0121 -0.4123
  703MOL0     C94798   1.693   8.020   4.034 -0.4660  0.1588  0.7462
  703MOL0     C94799   1.752   7.920   3.797 -0.0064 -0.2286 -0.3285
  703MOL0     C94800   1.613   7.911   3.749  0.6384  0.0886  0.3836
  703MOL0     O94801   1.594   7.923   3.618  0.7011  0.5642  0.3942
  703MOL0     C94802   1.463   7.912   3.561  0.1473 -0.8749  0.2779
  703MOL0     C94803   1.379   8.026   3.539  0.4678  1.3675  0.3374
  703MOL0     C94804   1.246   8.007   3.501 -0.5802 -0.3732  0.1272
  703MOL0     C94805   1.186   7.884   3.502  0.7119  0.8091 -0.6612
  703MOL0     O94806   1.057   7.863   3.494 -0.0589 -0.3481 -0.0061
  703MOL0     C94807   0.989   7.946   3.396  0.3810 -0.0214  0.3000
  703MOL0     C94808   0.856   7.880   3.355 -0.1625 -0.0172  0.1829
  703MOL0     C94809   0.763   7.990   3.312 -0.8345  0.5671  1.2407
  703MOL0     C94810   0.617   7.940   3.285  0.4305 -0.1297 -0.3490
  703MOL0     C94811   0.521   8.044   3.222 -0.2960  0.0985  0.1054
  703MOL0     C94812   0.374   8.006   3.211 -0.1427 -0.3168  0.7483
  703MOL0     C94813   0.289   8.107   3.136  0.3387  0.1963 -1.5949
  703MOL0     C94814   0.305   8.105   2.987  0.1751  0.1524 -0.2260
  703MOL0    Cl94815   0.247   8.254   2.910 -0.3517  0.0111 -0.0237
  703MOL0     C94816   1.263   7.770   3.529  0.5166 -0.2346 -0.2171
  703MOL0     C94817   1.398   7.787   3.557  0.4696  0.1576  0.0383
  703MOL0     O94818   1.523   7.883   3.827  0.8789 -0.6939 -0.2582
  703MOL0     C94819   1.858   7.878   3.710 -0.5166  0.1746  0.1262
  703MOL0     C94820   1.985   7.858   3.766 -0.1903  0.1315  0.3394
  703MOL0     N94821   2.572   7.759   3.677  0.7358 -0.3415  0.2552
  703MOL0     N94822   2.515   7.683   3.588  0.7950  0.0768  0.2321
  703MOL0     C94823   1.627   6.766   3.430  0.0548  0.0812  0.4522
  703MOL0     C94824   1.492   6.763   3.386  0.2132 -0.1543  0.8124
  703MOL0     C94825   1.033   6.864   3.446  0.0294  0.3090 -0.7307
  703MOL0     C94826   1.000   6.738   3.397 -0.4071 -0.0325 -0.4418
  703MOL0     C94827   0.864   6.702   3.377  0.2331  0.5276 -0.2025
  703MOL0     C94828   0.766   6.784   3.401  0.1582 -0.2791 -0.0161
  703MOL0     O94829   0.633   6.762   3.395  0.3094  0.3315 -0.0903
  703MOL0     C94830   0.578   6.631   3.396 -0.1853  0.4721 -0.4842
  703MOL0     C94831   0.553   6.593   3.248  0.1082  0.9162  0.9342
  703MOL0     C94832   0.527   6.445   3.230 -0.2552 -0.1023 -0.6630
  703MOL0     C94833   0.480   6.447   3.089 -0.1629 -0.2798  0.8536
  703MOL0     C94834   0.341   6.489   3.052  0.0557 -0.0862  0.3093
  703MOL0     C94835   0.231   6.537   3.027 -0.2530  0.3145 -0.4700
  703MOL0     C94836   0.799   6.917   3.440  0.1106 -0.7264  0.3107
  703MOL0     C94837   0.931   6.952   3.471  0.2962  0.1974 -0.5950
  703MOL0     H94838   1.380   6.965   3.638  1.5854  1.2942 -0.9539
  703MOL0     H94839   1.619   6.968   3.701 -0.5986 -2.0401  2.3223
  703MOL0     H94840   1.807   7.047   3.617 -1.9396 -2.8769  0.6911
  703MOL0     H94841   1.971   6.971   3.587  0.4406 -1.6975 -1.0462
  703MOL0     H94842   1.907   7.002   3.336 -1.5753 -3.0013  0.2199
  703MOL0     H94843   1.764   7.085   3.392  1.1145  1.7319 -0.6660
  703MOL0     H94844   1.903   7.262   3.349 -1.1533 -1.6513 -0.1600
  703MOL0     H94845   1.880   7.258   3.516 -0.2454 -1.0734  0.6640
  703MOL0     H94846   2.103   7.143   3.563  1.0401  1.3477  0.2078
  703MOL0     H94847   2.110   7.124   3.386 -2.8450  1.5623 -1.8324
  703MOL0     H94848   2.243   7.304   3.464 -0.3732 -1.0377  1.0804
  703MOL0     H94849   2.099   7.384   3.380 -1.1891 -2.4112 -1.6182
  703MOL0     H94850   1.997   7.436   3.584 -0.8031 -2.3144 -2.2364
  703MOL0     H94851   2.124   7.343   3.676  0.8208 -0.2622  0.8631
  703MOL0     H94852   2.151   7.614   3.539  2.7377 -0.1882 -1.7464
  703MOL0     H94853   2.155   7.573   3.709  3.8435  0.7847  0.1828
  703MOL0     H94854   2.364   7.508   3.479  2.0134  0.7671  0.2508
  703MOL0     H94855   2.360   7.416   3.626 -0.8710 -1.3561 -2.9848
  703MOL0     H94856   2.349   7.591   3.852 -0.9192  1.7269 -0.5966
  703MOL0     H94857   2.630   7.743   3.968 -1.9873 -1.8242  0.6514
  703MOL0     H94858   2.580   7.895   3.886  0.6363  0.6822  1.1585
  703MOL0     H94859   2.493   7.803   4.124 -0.6059  0.9612  0.8251
  703MOL0     H94860   2.382   7.710   4.037 -0.4467  0.5860  0.4003
  703MOL0     H94861   2.418   8.006   3.980 -0.9117  0.2932 -0.9394
  703MOL0     H94862   2.301   7.956   4.110 -0.3824 -1.5067  1.0419
  703MOL0     H94863   2.264   7.926   3.810 -1.1313  2.7064 -0.4392
  703MOL0     H94864   2.189   8.021   3.927  1.7657  1.1991 -0.9888
  703MOL0     H94865   1.936   7.899   4.082 -3.3916 -1.7902  0.7060
  703MOL0     H94866   1.608   7.955   4.058 -0.9877  0.8874  0.9063
  703MOL0     H94867   1.748   8.049   4.124  0.4860  3.7404 -0.8415
  703MOL0     H94868   1.636   8.100   3.987 -1.0517 -0.3553  0.5693
  703MOL0     H94869   1.417   8.127   3.539 -1.3664  2.1340 -1.7975
  703MOL0     H94870   1.195   8.098   3.473 -1.5247 -1.0699 -0.4755
  703MOL0     H94871   0.958   8.041   3.441 -2.5540 -0.3615 -0.8094
  703MOL0     H94872   1.051   7.973   3.310 -0.9252 -0.6585 -0.8706
  703MOL0     H94873   0.866   7.806   3.275  0.3538  2.5363 -2.2740
  703MOL0     H94874   0.815   7.825   3.440  1.3418 -0.6109  0.5709
  703MOL0     H94875   0.809   8.034   3.224 -1.2362  2.9572  2.1314
  703MOL0     H94876   0.755   8.074   3.382 -1.4046  0.1656  1.6657
  703MOL0     H94877   0.604   7.848   3.228 -2.3010 -0.7691  1.1706
  703MOL0     H94878   0.576   7.925   3.385 -0.5252  1.4391 -0.4790
  703MOL0     H94879   0.551   8.067   3.119  2.9452  1.6679  1.2792
  703MOL0     H94880   0.516   8.131   3.287 -1.2425 -0.4783  0.8354
  703MOL0     H94881   0.373   7.915   3.150 -0.1118  0.0475  0.1932
  703MOL0     H94882   0.337   7.979   3.310 -1.7782 -2.2895 -0.3062
  703MOL0     H94883   0.315   8.208   3.168  1.8491  0.0624 -2.3057
  703MOL0     H94884   0.184   8.085   3.157  0.2527  1.7227 -0.1979
  703MOL0     H94885   0.233   8.031   2.951 -1.0980  1.3273 -0.1605
  703MOL0     H94886   0.411   8.084   2.967  0.6050  1.3442  0.6188
  703MOL0     H94887   1.205   7.679   3.531 -3.7141  2.2132  1.8069
  703MOL0     H94888   1.450   7.701   3.599 -2.2355 -1.8660 -0.4719
  703MOL0     H94889   1.835   7.838   3.611 -0.3741 -1.9094  0.8873
  703MOL0     H94890   2.061   7.824   3.696 -0.9802  3.1046 -2.1887
  703MOL0     H94891   1.697   6.705   3.374 -1.0963 -0.7017 -0.1790
  703MOL0     H94892   1.458   6.711   3.297 -0.1551  1.7379 -0.2141
  703MOL0     H94893   1.079   6.664   3.390 -0.6344 -0.1758 -1.6706
  703MOL0     H94894   0.837   6.601   3.349  0.3961  0.6007 -0.6371
  703MOL0     H94895   0.650   6.574   3.456 -0.7196 -0.1871 -0.4684
  703MOL0     H94896   0.488   6.627   3.458  0.1937  2.8299  0.3268
  703MOL0     H94897   0.632   6.627   3.182 -0.4763  0.3648 -0.0683
  703MOL0     H94898   0.464   6.652   3.224  1.2725  3.6783  2.8632
  703MOL0     H94899   0.442   6.412   3.292  0.5871 -1.4225 -0.1514
  703MOL0     H94900   0.616   6.383   3.246  0.4500  1.2499  0.9103
  703MOL0     H94901   0.500   6.352   3.040  3.7733 -0.2156  1.9908
  703MOL0     H94902   0.539   6.512   3.024  1.9162 -2.8197  0.0373
  703MOL0     H94903   0.128   6.563   3.012 -0.0531  1.4886  0.1098
  703MOL0     H94904   0.724   6.994   3.454  3.2724  2.1928  2.9954
  703MOL0     H94905   0.961   7.052   3.502 -2.9365  0.0264  4.2105
  704MOL0     O94906   8.810  11.322   4.339 -0.6995  0.5110  0.4775
  704MOL0     C94907   8.836  11.202   4.333  0.2743 -0.8439  0.2635
  704MOL0     O94908   8.783  11.105   4.411  0.1196 -0.5132  0.4159
  704MOL0     C94909   8.664  11.123   4.483 -0.1082 -0.3001 -0.2074
  704MOL0     C94910   8.565  11.216   4.465  0.2376  0.8769 -0.8286
  704MOL0     C94911   8.446  11.203   4.542 -0.3992  0.2224 -0.5620
  704MOL0     C94912   8.428  11.097   4.637 -1.9241  0.7593 -0.4886
  704MOL0     O94913   8.309  11.102   4.704  0.2008 -0.3587 -0.5578
  704MOL0     C94914   8.300  11.019   4.822 -0.1084 -0.3556 -0.4657
  704MOL0     C94915   8.218  10.890   4.791  0.2748  0.1488  0.1307
  704MOL0     C94916   8.085  10.926   4.722 -0.0525 -0.1301 -0.1141
  704MOL0     C94917   8.000  10.794   4.714  0.1546  0.3338 -0.1023
  704MOL0     C94918   7.868  10.812   4.643  0.3165 -0.1330 -0.2840
  704MOL0     C94919   7.779  10.903   4.719  0.1763 -0.0204 -0.5498
  704MOL0     C94920   7.645  10.919   4.647  0.0865 -0.4739  0.9674
  704MOL0     C94921   7.533  10.991   4.730  0.0694  0.6094 -0.0021
  704MOL0     N94922   7.402  10.983   4.658  0.4144  0.0666  0.0448
  704MOL0     C94923   7.286  11.045   4.702 -0.1041 -0.8953  0.0700
  704MOL0     C94924   7.205  11.005   4.602 -0.0533 -0.3206 -0.5092
  704MOL0     C94925   7.067  11.052   4.587  0.5414 -0.2182  0.4900
  704MOL0     C94926   6.967  11.001   4.692  1.0695 -0.4218  0.2270
  704MOL0     C94927   6.819  11.062   4.682 -0.4453 -0.2968  0.7465
  704MOL0     C94928   6.749  11.007   4.563  0.1160  0.7838  0.6896
  704MOL0     O94929   6.621  11.078   4.542 -0.4536  0.4851  0.0783
  704MOL0     C94930   6.506  11.007   4.572  0.0550 -0.0403  0.6162
  704MOL0     C94931   6.491  10.893   4.649  1.1452 -0.1922  0.0009
  704MOL0     C94932   6.365  10.834   4.678  0.1792 -0.2690  0.5957
  704MOL0     C94933   6.355  10.703   4.748  0.1344  0.4384 -0.1429
  704MOL0     C94934   6.245  10.897   4.622  0.4400 -0.4828  0.3372
  704MOL0     C94935   6.109  10.858   4.650 -0.3931  0.2569  0.4061
  704MOL0     O94936   6.022  10.913   4.564 -0.3509 -0.1810  0.5023
  704MOL0     C94937   5.891  10.884   4.578  0.4777  0.9153  0.6849
  704MOL0     C94938   5.789  10.975   4.608 -0.2620  0.4726 -0.4748
  704MOL0     C94939   5.663  10.922   4.629 -0.1776 -0.6841 -0.3001
  704MOL0     C94940   5.629  10.786   4.599 -0.3067  0.5701 -0.5635
  704MOL0     O94941   5.509  10.724   4.598  0.1235  0.2817  0.7251
  704MOL0     C94942   5.414  10.788   4.513  0.1766  0.3492 -1.1896
  704MOL0     C94943   5.276  10.716   4.515 -0.1233 -0.5781  0.3398
  704MOL0     C94944   5.177  10.822   4.460  0.2135  0.1645 -0.1307
  704MOL0     C94945   5.033  10.771   4.473  0.1537 -0.0998 -0.0599
  704MOL0     C94946   4.929  10.878   4.465  0.2061  0.4382 -0.3984
  704MOL0     C94947   4.797  10.818   4.425 -0.0295  0.4188 -0.1014
  704MOL0     C94948   4.686  10.915   4.414  0.6462  0.0885  0.8549
  704MOL0     C94949   4.552  10.837   4.405 -0.1451 -0.3668  0.1556
  704MOL0    Cl94950   4.426  10.974   4.378  0.4313  0.1732 -0.0647
  704MOL0     C94951   5.729  10.697   4.562  0.1221 -0.1049 -0.2047
  704MOL0     C94952   5.859  10.747   4.557 -0.1281  0.9438  0.6366
  704MOL0     O94953   6.086  10.775   4.736  0.6549 -0.5306  0.6647
  704MOL0     C94954   6.269  11.012   4.540  0.7801  0.8264  0.3744
  704MOL0     C94955   6.388  11.061   4.515 -0.4531 -0.4456 -0.6758
  704MOL0     N94956   7.266  10.925   4.503 -0.0719 -0.7255 -0.0976
  704MOL0     N94957   7.386  10.918   4.536  1.4705  0.0424  0.1767
  704MOL0     C94958   8.528  10.990   4.641  0.2121  0.2409  0.0747
  704MOL0     C94959   8.639  11.008   4.566  0.3777 -0.6068  0.7419
  704MOL0     C94960   8.952  11.158   4.264 -0.1834  0.2705  0.2312
  704MOL0     C94961   9.025  11.040   4.300  0.6783 -0.7791  0.1997
  704MOL0     C94962   9.140  11.001   4.243  0.2011  0.0024  0.0688
  704MOL0     C94963   9.203  11.084   4.149  1.0934  0.1576 -0.4471
  704MOL0     O94964   9.315  11.040   4.088 -0.1722 -0.8875  0.6202
  704MOL0     C94965   9.415  10.976   4.169  0.2769 -0.2197  0.2038
  704MOL0     C94966   9.552  10.975   4.091 -0.9669  0.1768 -0.4307
  704MOL0     C94967   9.543  10.898   3.954  1.0314 -0.1694  0.0919
  704MOL0     C94968   9.664  10.815   3.918 -0.4960 -0.5694 -0.4762
  704MOL0     C94969   9.773  10.906   3.918  0.8461  0.4711 -0.6451
  704MOL0     C94970   9.883  10.965   3.940  0.5534 -0.2236  0.3531
  704MOL0     C94971   9.138  11.198   4.098 -0.5950  0.2837 -0.0217
  704MOL0     C94972   9.014  11.238   4.158  0.9865  0.9057 -0.4759
  704MOL0     H94973   8.583  11.301   4.400 -2.8125  4.8520  2.9112
  704MOL0     H94974   8.370  11.278   4.525 -1.3922 -1.0653 -1.9936
  704MOL0     H94975   8.395  10.980   4.859 -0.1387 -0.2902 -0.3209
  704MOL0     H94976   8.244  11.080   4.893 -3.2886 -2.6389 -0.7843
  704MOL0     H94977   8.283  10.819   4.739  2.5501  0.8739  1.8039
  704MOL0     H94978   8.189  10.831   4.879 -1.1682  0.0417 -0.3883
  704MOL0     H94979   8.033  11.001   4.783 -1.7833 -2.2532  1.1751
  704MOL0     H94980   8.099  10.954   4.617 -0.3091  0.5381  0.0284
  704MOL0     H94981   8.050  10.715   4.659 -1.4188  0.0122 -1.1413
  704MOL0     H94982   7.983  10.750   4.813  2.1619  0.0905  0.1768
  704MOL0     H94983   7.892  10.854   4.545  0.1865 -0.6784 -0.5543
  704MOL0     H94984   7.821  10.715   4.630 -1.1444  0.6559 -1.0729
  704MOL0     H94985   7.775  10.858   4.818  4.1218  0.7161  0.1291
  704MOL0     H94986   7.823  11.002   4.737  1.0111 -0.7175  1.4660
  704MOL0     H94987   7.654  10.968   4.550 -4.2494 -2.4033 -0.6657
  704MOL0     H94988   7.614  10.819   4.616  1.3938 -0.8114  0.7195
  704MOL0     H94989   7.554  11.096   4.748 -1.1374  1.0402 -0.9065
  704MOL0     H94990   7.526  10.942   4.827  2.8287  0.3419  0.1321
  704MOL0     H94991   7.268  11.111   4.786  0.4704  0.2783 -0.7019
  704MOL0     H94992   7.077  11.161   4.594  1.0249 -0.3503  2.5799
  704MOL0     H94993   7.024  11.019   4.492 -5.9756 -4.9165  4.2129
  704MOL0     H94994   7.016  11.019   4.788  3.2867 -1.1088 -0.7091
  704MOL0     H94995   6.954  10.894   4.671  1.4483 -0.0559 -2.2173
  704MOL0     H94996   6.827  11.168   4.656  1.4089 -0.7467 -0.6697
  704MOL0     H94997   6.757  11.058   4.773 -0.5134  0.9247  0.7836
  704MOL0     H94998   6.738  10.898   4.567  1.8454  0.3919 -2.0045
  704MOL0     H94999   6.807  11.031   4.473 -0.6135 -0.8762 -0.2687
  704MOL0     H95000   6.581  10.850   4.692  0.2259 -1.7555  0.4540
  704MOL0     H95001   6.317  10.723   4.848 -0.7089  0.7058 -0.5175
  704MOL0     H95002   6.296  10.628   4.695  3.1114 -1.7400 -0.6435
  704MOL0     H95003   6.456  10.660   4.754  1.8315  4.0217 -0.4573
  704MOL0     H95004   5.814  11.080   4.617  0.0551  0.2076  3.1420
  704MOL0     H95005   5.584  10.987   4.663  2.7496  1.8241  2.3805
  704MOL0     H95006   5.402  10.893   4.539 -0.4318  0.0446 -0.1851
  704MOL0     H95007   5.453  10.792   4.411 -1.3372  1.9686 -1.7545
  704MOL0     H95008   5.279  10.624   4.455  0.1958 -0.3342 -0.0284
  704MOL0     H95009   5.249  10.687   4.617 -2.3226 -2.0523 -0.5745
  704MOL0     H95010   5.195  10.829   4.353 -1.8652 -4.0185 -0.9819
  704MOL0     H95011   5.194  10.920   4.505  1.3323 -0.5573  1.0937
  704MOL0     H95012   5.015  10.693   4.398 -4.9426 -1.8086  2.4965
  704MOL0     H95013   5.020  10.720   4.570  2.4727 -0.4440  0.1364
  704MOL0     H95014   4.952  10.959   4.395 -0.7958  1.3961  0.3337
  704MOL0     H95015   4.912  10.929   4.561  2.2728  1.5291 -0.5637
  704MOL0     H95016   4.807  10.770   4.327 -4.3411  0.1977 -0.6648
  704MOL0     H95017   4.767  10.737   4.493  1.7200 -0.7000 -0.6171
  704MOL0     H95018   4.701  10.970   4.321  1.3817 -2.3742 -0.5629
  704MOL0     H95019   4.690  10.986   4.498  2.1617  1.8414 -0.6066
  704MOL0     H95020   4.526  10.784   4.497 -2.5539  1.2629  0.4926
  704MOL0     H95021   4.563  10.764   4.325 -0.4795 -1.5791  1.1804
  704MOL0     H95022   5.713  10.592   4.540 -1.8732  0.8229 -4.0450
  704MOL0     H95023   5.942  10.680   4.536  1.3905  1.5953  3.7939
  704MOL0     H95024   6.178  11.067   4.515 -1.1698 -2.4340 -0.2498
  704MOL0     H95025   6.394  11.149   4.451  2.7503 -0.7459 -0.9889
  704MOL0     H95026   8.506  10.908   4.707 -3.8615  0.9414 -0.1876
  704MOL0     H95027   8.708  10.924   4.569 -0.3889 -1.2301  1.6276
  704MOL0     H95028   8.980  10.980   4.378 -2.2326 -2.1718 -2.3502
  704MOL0     H95029   9.184  10.906   4.272  1.4823  0.4684 -0.2931
  704MOL0     H95030   9.429  11.029   4.263 -0.1353  2.4367 -1.1369
  704MOL0     H95031   9.381  10.873   4.186 -0.8914  0.0543 -0.3902
  704MOL0     H95032   9.635  10.936   4.151  0.1647  1.0275 -1.3996
  704MOL0     H95033   9.575  11.079   4.068 -0.4333  0.4664  1.2882
  704MOL0     H95034   9.522  10.966   3.871  1.7813  0.2875  0.2568
  704MOL0     H95035   9.455  10.834   3.957 -0.8063  2.2125 -0.2968
  704MOL0     H95036   9.651  10.790   3.812 -0.3971 -0.2383 -0.5689
  704MOL0     H95037   9.670  10.724   3.978  0.9375  0.4515  1.0064
  704MOL0     H95038   9.968  11.022   3.970 -1.4552  1.6739  3.0327
  704MOL0     H95039   9.197  11.263   4.035  1.1031  0.2430  1.4559
  704MOL0     H95040   8.967  11.330   4.126 -0.9586  0.2553  0.3862
  705MOL0     O95041   9.581  10.898  10.305  0.5099 -0.3487 -0.3957
  705MOL0     C95042   9.603  11.003  10.236  0.5830  0.6719 -0.2847
  705MOL0     O95043   9.503  11.073  10.162 -0.0269  0.1330 -0.5107
  705MOL0     C95044   9.375  11.015  10.176 -1.1383 -0.3077 -0.0096
  705MOL0     C95045   9.335  10.911  10.095  0.7683  0.7509  0.2389
  705MOL0     C95046   9.201  10.866  10.094  0.7532 -0.2744  0.5891
  705MOL0     C95047   9.099  10.932  10.157 -0.8077 -0.2113  0.3261
  705MOL0     O95048   8.968  10.883  10.134  0.0171 -0.0802 -0.0035
  705MOL0     C95049   8.857  10.951  10.193 -1.0253 -0.2244 -0.5730
  705MOL0     C95050   8.730  10.918  10.122  0.2037 -0.2253 -0.4303
  705MOL0     C95051   8.613  10.970  10.206  0.5183  0.1462  0.8106
  705MOL0     C95052   8.478  10.913  10.160 -0.2843 -0.5491 -1.6948
  705MOL0     C95053   8.347  10.984  10.208  0.0975 -0.6116  0.3833
  705MOL0     C95054   8.217  10.927  10.145 -0.2034  0.3436  0.0052
  705MOL0     C95055   8.085  10.984  10.197  0.5457  0.2167  0.3871
  705MOL0     C95056   7.959  10.909  10.141  0.7304  0.0328  0.1165
  705MOL0     N95057   7.834  10.985  10.174  0.2622  0.2276 -0.3792
  705MOL0     C95058   7.819  11.118  10.211 -0.5615 -0.6152 -0.5478
  705MOL0     C95059   7.693  11.141  10.252  0.1676  0.4245 -0.0185
  705MOL0     C95060   7.644  11.277  10.293  0.2655  0.8705 -0.1614
  705MOL0     C95061   7.531  11.261  10.404 -0.1201 -0.8871  0.1802
  705MOL0     C95062   7.476  11.410  10.439 -0.5128  0.0269  0.5151
  705MOL0     C95063   7.351  11.388  10.520  0.2399 -0.7580  1.1611
  705MOL0     O95064   7.379  11.373  10.651  0.3189  0.1494  0.0508
  705MOL0     C95065   7.282  11.385  10.745 -0.0811  0.2161  0.6543
  705MOL0     C95066   7.316  11.399  10.882 -0.2211 -0.1659 -0.1333
  705MOL0     C95067   7.225  11.439  10.983 -0.4994 -0.1637 -0.2759
  705MOL0     C95068   7.278  11.461  11.121  0.9551 -0.2780 -0.1133
  705MOL0     C95069   7.091  11.451  10.943 -0.0997  0.8457  0.1297
  705MOL0     C95070   6.981  11.483  11.032  0.0492 -0.1417 -0.2854
  705MOL0     O95071   6.889  11.578  10.988 -0.4235  0.4606  0.3285
  705MOL0     C95072   6.791  11.622  11.068  0.0180 -0.1428  0.2704
  705MOL0     C95073   6.799  11.758  11.117 -0.5211  0.2281  0.8772
  705MOL0     C95074   6.698  11.818  11.188 -0.6276 -0.3960  0.7413
  705MOL0     C95075   6.592  11.738  11.238 -0.1720 -0.5049  0.4512
  705MOL0     O95076   6.506  11.797  11.321  0.0419 -0.1921  0.3789
  705MOL0     C95077   6.411  11.712  11.386  0.2166 -0.4482 -0.1774
  705MOL0     C95078   6.309  11.783  11.474 -1.1937 -0.3327 -0.1026
  705MOL0     C95079   6.230  11.670  11.551 -0.1197  0.9312  0.8932
  705MOL0     C95080   6.136  11.726  11.663  0.0094 -1.6034 -0.0697
  705MOL0     C95081   6.077  11.609  11.742  1.1041 -1.0264 -0.7289
  705MOL0     C95082   5.963  11.663  11.832 -1.3649  0.1280  0.2082
  705MOL0     C95083   6.003  11.741  11.954  0.3581  0.4352  0.4819
  705MOL0     C95084   5.885  11.789  12.044 -0.2447 -0.9584 -0.7856
  705MOL0    Cl95085   5.749  11.866  11.961  0.5475 -0.1953  0.4616
  705MOL0     C95086   6.589  11.608  11.199 -0.6938  0.0347 -0.0949
  705MOL0     C95087   6.679  11.549  11.118 -0.1970 -0.4046 -0.3162
  705MOL0     O95088   6.981  11.431  11.142  0.3075 -0.8591  0.8822
  705MOL0     C95089   7.049  11.436  10.815 -0.2384  0.1049  0.3588
  705MOL0     C95090   7.143  11.402  10.719  0.5387 -0.1905  0.1031
  705MOL0     N95091   7.641  11.014  10.274  0.3676  0.3313  0.1563
  705MOL0     N95092   7.715  10.925  10.216 -0.2533  0.4950  0.5482
  705MOL0     C95093   9.140  11.041  10.243 -0.5270  1.2551 -0.6233
  705MOL0     C95094   9.277  11.077  10.251 -0.0325 -0.7512 -0.3853
  705MOL0     C95095   9.737  11.069  10.241  0.5740  0.7856 -0.0801
  705MOL0     C95096   9.756  11.206  10.222  0.2586 -0.5967  0.2157
  705MOL0     C95097   9.871  11.270  10.245 -0.4284 -0.0250 -0.9610
  705MOL0     C95098   9.996  11.196  10.257 -0.4550  0.3805  0.3830
  705MOL0     O95099  10.124  11.255  10.270 -0.5339 -0.3032  0.7771
  705MOL0     C95100  10.137  11.385  10.322 -0.8504 -0.2228 -0.6139
  705MOL0     C95101  10.131  11.379  10.470 -0.1212  0.8866 -0.0050
  705MOL0     C95102  10.166  11.504  10.543  0.3278  1.2331  0.2564
  705MOL0     C95103  10.079  11.623  10.485 -0.3030 -0.9413 -0.6461
  705MOL0     C95104   9.937  11.594  10.470 -0.1046 -0.5325 -0.8752
  705MOL0     C95105   9.817  11.579  10.467  0.0321  0.0377  1.2633
  705MOL0     C95106   9.978  11.056  10.243 -0.0144 -0.0540 -0.9287
  705MOL0     C95107   9.850  10.994  10.255 -0.2558 -0.4219  1.4106
  705MOL0     H95108   9.405  10.858  10.032  0.0156  1.0312 -0.8547
  705MOL0     H95109   9.185  10.794  10.014  2.3309  1.6829 -1.6423
  705MOL0     H95110   8.852  10.913  10.296  0.2121  2.7121  0.6859
  705MOL0     H95111   8.880  11.058  10.183  3.5026 -0.9431 -0.1922
  705MOL0     H95112   8.710  10.958  10.022 -0.5798 -0.6165 -0.4313
  705MOL0     H95113   8.717  10.810  10.113  1.2764 -0.4852  0.7460
  705MOL0     H95114   8.621  10.945  10.313 -0.1413 -2.7907  0.2729
  705MOL0     H95115   8.607  11.078  10.195  3.2510  0.1104 -2.3580
  705MOL0     H95116   8.473  10.921  10.051 -2.0920  3.5551 -1.4886
  705MOL0     H95117   8.483  10.808  10.193 -0.5520  0.2000  0.9778
  705MOL0     H95118   8.339  10.993  10.317 -1.5288  4.4021  0.1335
  705MOL0     H95119   8.352  11.087  10.172 -0.2786  0.1924  2.5099
  705MOL0     H95120   8.215  10.934  10.036  1.2949  0.7995 -0.0148
  705MOL0     H95121   8.225  10.825  10.184  3.0855  0.3352 -0.4657
  705MOL0     H95122   8.080  10.971  10.306  0.3067  0.7092  0.4347
  705MOL0     H95123   8.090  11.091  10.177 -0.2544  0.0720 -0.6883
  705MOL0     H95124   7.946  10.809  10.184 -0.9112 -0.2213 -0.8741
  705MOL0     H95125   7.968  10.895  10.032 -0.8043  1.5451 -0.2588
  705MOL0     H95126   7.892  11.196  10.196 -1.0948 -0.4107 -2.3359
  705MOL0     H95127   7.725  11.347  10.313  0.9832  0.0683 -0.2035
  705MOL0     H95128   7.594  11.325  10.209 -0.8885 -0.4187 -0.2484
  705MOL0     H95129   7.574  11.214  10.493  1.9734  1.6182  0.6367
  705MOL0     H95130   7.447  11.205  10.362  0.3466 -1.2708 -0.2604
  705MOL0     H95131   7.455  11.462  10.345 -2.0164  2.2641  1.9917
  705MOL0     H95132   7.554  11.458  10.499 -0.6233  1.9713 -0.7822
  705MOL0     H95133   7.308  11.293  10.488  0.2475 -0.2916 -0.3218
  705MOL0     H95134   7.288  11.476  10.502  0.7606 -0.7128 -0.6368
  705MOL0     H95135   7.421  11.402  10.906 -0.2565  2.2462 -0.0497
  705MOL0     H95136   7.232  11.391  11.192  0.9877  1.4255  1.6988
  705MOL0     H95137   7.386  11.453  11.132  0.7377 -0.0848  3.1177
  705MOL0     H95138   7.268  11.564  11.157 -2.2348 -1.0441  1.6455
  705MOL0     H95139   6.881  11.825  11.093  0.3550 -1.1494 -0.0397
  705MOL0     H95140   6.708  11.925  11.203  1.6714 -0.1921 -1.5408
  705MOL0     H95141   6.356  11.661  11.307 -1.3957 -2.2609  1.9753
  705MOL0     H95142   6.459  11.634  11.445 -2.7149 -1.6576  0.8022
  705MOL0     H95143   6.370  11.839  11.545 -0.6858 -1.3274  0.2659
  705MOL0     H95144   6.244  11.850  11.416  0.8365  1.0278 -0.9583
  705MOL0     H95145   6.293  11.594  11.598 -0.5969 -1.7441 -2.4704
  705MOL0     H95146   6.166  11.616  11.481 -0.8231  0.2067  2.0608
  705MOL0     H95147   6.200  11.784  11.731  0.3591 -0.9592 -0.9272
  705MOL0     H95148   6.061  11.796  11.626  0.3892  0.0379  2.0655
  705MOL0     H95149   6.150  11.556  11.803  0.7131  0.0515  0.7215
  705MOL0     H95150   6.039  11.534  11.671 -0.3882 -0.2510 -0.8095
  705MOL0     H95151   5.882  11.712  11.778 -0.0299  3.6209  1.1307
  705MOL0     H95152   5.929  11.571  11.881  1.0101 -0.5311  0.7212
  705MOL0     H95153   6.042  11.839  11.924  1.2842  0.0506  0.3984
  705MOL0     H95154   6.083  11.689  12.008  0.0799  0.4042  0.8668
  705MOL0     H95155   5.915  11.864  12.117  2.1830 -2.1769 -0.4473
  705MOL0     H95156   5.851  11.704  12.103  0.1097 -0.0790  0.7458
  705MOL0     H95157   6.501  11.545  11.213 -0.5504 -0.6626 -2.0456
  705MOL0     H95158   6.671  11.441  11.106  2.5447 -0.5955 -0.8955
  705MOL0     H95159   6.944  11.460  10.799  0.1420  0.8549 -1.2080
  705MOL0     H95160   7.104  11.403  10.617  0.1052  1.3696  0.2605
  705MOL0     H95161   9.073  11.085  10.316 -0.1219  1.0265 -0.1059
  705MOL0     H95162   9.304  11.159  10.316  0.6171 -1.0924 -0.2047
  705MOL0     H95163   9.663  11.258  10.200  0.8497  0.4485  0.1711
  705MOL0     H95164   9.877  11.374  10.216 -4.6526  0.3547 -1.0610
  705MOL0     H95165  10.234  11.431  10.299 -1.6827  0.3263 -3.3876
  705MOL0     H95166  10.060  11.444  10.271 -0.1570  1.1342 -0.1253
  705MOL0     H95167  10.192  11.298  10.511  1.2339  2.5060  1.3944
  705MOL0     H95168  10.027  11.356  10.491 -0.1960 -0.0864 -1.3696
  705MOL0     H95169  10.272  11.529  10.545  0.3438  1.1510  2.1364
  705MOL0     H95170  10.137  11.491  10.647  1.8438 -1.5345  0.4321
  705MOL0     H95171  10.121  11.663  10.392 -0.5674  1.8904  0.3421
  705MOL0     H95172  10.084  11.700  10.563 -0.1281 -0.1596 -1.4073
  705MOL0     H95173   9.711  11.569  10.463  0.0711  0.0442 -1.6359
  705MOL0     H95174  10.063  10.988  10.240 -0.0815 -0.2422  0.5980
  705MOL0     H95175   9.849  10.886  10.263  0.4302 -0.4628  1.0164
  706MOL0     O95176   9.038   8.292   2.664 -0.4687  0.1400  1.1176
  706MOL0     C95177   9.058   8.283   2.543 -0.4971  0.0212 -0.5331
  706MOL0     O95178   8.967   8.274   2.447  0.2490  0.0604  0.0251
  706MOL0     C95179   8.837   8.311   2.481  1.2821 -0.4334 -0.4059
  706MOL0     C95180   8.727   8.221   2.502 -0.4423  0.8191  0.7252
  706MOL0     C95181   8.597   8.258   2.533  0.1877 -0.5350 -0.2228
  706MOL0     C95182   8.557   8.389   2.522  0.6867 -0.2961  0.4591
  706MOL0     O95183   8.427   8.438   2.541  0.3476 -0.7675 -0.2334
  706MOL0     C95184   8.324   8.348   2.522  0.9001  0.2077  0.4619
  706MOL0     C95185   8.197   8.443   2.536 -0.3377  0.0115 -0.1919
  706MOL0     C95186   8.074   8.358   2.541 -0.3000 -0.2141 -0.0192
  706MOL0     C95187   7.948   8.446   2.525 -0.4493  0.2585  0.4977
  706MOL0     C95188   7.829   8.361   2.503  0.4270  0.4367  0.3714
  706MOL0     C95189   7.708   8.410   2.592  0.7250 -0.1929  0.0130
  706MOL0     C95190   7.593   8.317   2.585  0.0701  0.6634 -0.7874
  706MOL0     C95191   7.477   8.348   2.683 -0.5957  0.2403 -0.0769
  706MOL0     N95192   7.487   8.293   2.820 -0.1894 -0.6310 -0.6786
  706MOL0     C95193   7.608   8.278   2.898 -0.0913  0.0356  0.1549
  706MOL0     C95194   7.567   8.216   3.017  0.1646 -0.5379  0.0196
  706MOL0     C95195   7.660   8.164   3.122  0.2133  0.6212 -0.2073
  706MOL0     C95196   7.741   8.272   3.184 -0.7269  0.0002  0.1564
  706MOL0     C95197   7.793   8.207   3.317 -0.5100 -0.8316  0.8101
  706MOL0     C95198   7.911   8.295   3.386 -0.7404 -0.1961  0.0426
  706MOL0     O95199   8.042   8.275   3.333 -0.5629  0.2859  0.3303
  706MOL0     C95200   8.140   8.333   3.393 -0.6965 -0.4886 -0.0200
  706MOL0     C95201   8.196   8.444   3.325 -0.2326 -0.1379  0.3850
  706MOL0     C95202   8.299   8.528   3.383 -0.1108 -0.5944  0.0762
  706MOL0     C95203   8.357   8.643   3.297 -0.3086 -0.1216  0.0226
  706MOL0     C95204   8.349   8.495   3.507 -0.3505  0.4891 -0.3014
  706MOL0     C95205   8.452   8.559   3.584  0.6067 -0.5911  0.9126
  706MOL0     O95206   8.490   8.680   3.532 -0.1651 -0.0644  0.2744
  706MOL0     C95207   8.571   8.770   3.587  0.1563 -0.5321  0.0463
  706MOL0     C95208   8.530   8.903   3.585 -0.3283  0.0244 -0.4186
  706MOL0     C95209   8.607   9.010   3.642  0.0831  0.1715  0.0145
  706MOL0     C95210   8.719   8.979   3.715  0.0298  0.4969  0.2842
  706MOL0     O95211   8.775   9.084   3.791 -0.1625 -0.1882 -0.0210
  706MOL0     C95212   8.878   9.047   3.883  0.4413 -0.0673  0.7070
  706MOL0     C95213   9.018   9.024   3.819  0.0430 -0.4827  1.0353
  706MOL0     C95214   9.118   8.989   3.932  0.4923  0.4642  0.5592
  706MOL0     C95215   9.266   8.964   3.884  0.3329  0.4445 -0.7662
  706MOL0     C95216   9.360   8.927   4.000 -0.2599  0.0771  0.1743
  706MOL0     C95217   9.494   8.889   3.936 -0.1394  0.0747 -0.0848
  706MOL0     C95218   9.601   8.841   4.035  0.0300 -0.0172 -0.6104
  706MOL0     C95219   9.714   8.759   3.966  1.1377 -0.4717 -1.0673
  706MOL0    Cl95220   9.834   8.876   3.885 -0.1466 -0.2087  0.0424
  706MOL0     C95221   8.759   8.846   3.723  0.0289  0.0250  0.6789
  706MOL0     C95222   8.688   8.743   3.660  0.4292  0.0130  0.1699
  706MOL0     O95223   8.498   8.515   3.690  0.6389  0.3589  0.7015
  706MOL0     C95224   8.293   8.378   3.577  0.2437 -0.8160 -0.2664
  706MOL0     C95225   8.187   8.304   3.521  0.2072  0.8068 -0.3698
  706MOL0     N95226   7.429   8.216   3.015  0.9722  0.0402  0.3535
  706MOL0     N95227   7.379   8.263   2.899 -0.2141 -0.7050  0.4315
  706MOL0     C95228   8.660   8.480   2.487 -0.1055  0.0606 -0.0746
  706MOL0     C95229   8.797   8.446   2.478  0.5627  0.2433  0.8605
  706MOL0     C95230   9.194   8.264   2.494 -0.2658  0.6687 -0.7504
  706MOL0     C95231   9.219   8.247   2.353  0.0163 -0.3237  0.6123
  706MOL0     C95232   9.349   8.224   2.306  0.0346  0.5787 -0.3395
  706MOL0     C95233   9.455   8.217   2.399 -0.2852 -0.3007 -0.2181
  706MOL0     O95234   9.577   8.189   2.332  0.7034 -0.5402 -0.3879
  706MOL0     C95235   9.701   8.197   2.409 -0.4429  0.7562  0.3543
  706MOL0     C95236   9.829   8.238   2.331 -0.8437  0.0997 -0.2229
  706MOL0     C95237   9.895   8.118   2.268  0.1128  1.2230 -0.3268
  706MOL0     C95238  10.042   8.145   2.237  0.6120 -0.3960  0.4314
  706MOL0     C95239  10.084   8.053   2.128  0.2558 -0.7338  0.7332
  706MOL0     C95240  10.099   7.983   2.031  0.3121  0.4142 -0.4861
  706MOL0     C95241   9.432   8.239   2.535  0.2184  0.4342 -0.0869
  706MOL0     C95242   9.305   8.277   2.572 -0.3392  0.1690 -0.1090
  706MOL0     H95243   8.753   8.116   2.503 -1.4057  0.4826 -1.7463
  706MOL0     H95244   8.530   8.184   2.576  0.1000 -0.2157  0.1927
  706MOL0     H95245   8.318   8.304   2.421  2.3912  1.7110 -0.3238
  706MOL0     H95246   8.321   8.282   2.609  1.2061 -1.3590 -0.6564
  706MOL0     H95247   8.202   8.502   2.627 -2.0913  1.1631 -0.8081
  706MOL0     H95248   8.191   8.505   2.446 -1.5146 -1.4884 -1.2049
  706MOL0     H95249   8.083   8.291   2.455 -3.2995 -1.7233  0.7245
  706MOL0     H95250   8.083   8.293   2.628  2.8559  1.0807  0.7383
  706MOL0     H95251   7.938   8.497   2.621  1.9480 -4.1669  3.4598
  706MOL0     H95252   7.962   8.522   2.448  2.0298 -0.3368  0.2554
  706MOL0     H95253   7.803   8.360   2.397 -2.5777 -0.5048  1.0070
  706MOL0     H95254   7.840   8.253   2.518  3.0342  0.6485  0.5079
  706MOL0     H95255   7.727   8.438   2.696 -1.0210 -0.4632  0.4301
  706MOL0     H95256   7.685   8.509   2.551 -0.3256 -0.1853  0.5995
  706MOL0     H95257   7.548   8.319   2.485  1.1392 -1.1289 -1.3441
  706MOL0     H95258   7.623   8.213   2.602 -2.3539  0.0192 -0.1239
  706MOL0     H95259   7.390   8.308   2.630  0.4241 -0.8633 -0.9635
  706MOL0     H95260   7.468   8.457   2.693 -0.9226  0.4247 -1.9928
  706MOL0     H95261   7.713   8.296   2.880 -0.5937  1.9242 -1.1437
  706MOL0     H95262   7.592   8.114   3.191  0.2025  0.8505 -0.0516
  706MOL0     H95263   7.737   8.098   3.082  1.6310  1.8738  0.3748
  706MOL0     H95264   7.684   8.362   3.208 -1.1246 -0.7647  2.3016
  706MOL0     H95265   7.827   8.297   3.120 -0.2112 -4.0771 -1.0101
  706MOL0     H95266   7.828   8.106   3.297  1.1878 -0.4330  1.5833
  706MOL0     H95267   7.714   8.210   3.392  0.1911 -1.2251  1.5809
  706MOL0     H95268   7.905   8.293   3.495  0.6674  1.4037  0.1886
  706MOL0     H95269   7.883   8.400   3.371  0.6264  0.2730  0.6393
  706MOL0     H95270   8.151   8.461   3.229 -1.9132 -0.7586  1.0275
  706MOL0     H95271   8.340   8.620   3.191  0.6775 -0.5025 -0.0647
  706MOL0     H95272   8.297   8.731   3.324 -2.3634 -1.7181  1.0103
  706MOL0     H95273   8.466   8.645   3.305 -0.2801 -1.5972  0.2199
  706MOL0     H95274   8.442   8.925   3.525  0.6259  2.6024 -1.0331
  706MOL0     H95275   8.566   9.111   3.644 -0.4479 -0.0491  1.0786
  706MOL0     H95276   8.887   9.127   3.957 -0.2703  0.3148  0.3965
  706MOL0     H95277   8.845   8.956   3.932 -0.3974 -1.2594 -1.8749
  706MOL0     H95278   9.026   8.948   3.740 -1.2011 -1.3075  1.6802
  706MOL0     H95279   9.046   9.118   3.772  0.0830  0.0946  2.1928
  706MOL0     H95280   9.074   8.905   3.986 -2.4967  0.9160 -0.9577
  706MOL0     H95281   9.117   9.072   4.003 -1.8544 -0.5735  1.8802
  706MOL0     H95282   9.269   8.884   3.809 -2.0617  2.2314 -2.9466
  706MOL0     H95283   9.298   9.052   3.827 -0.9881  2.0483  0.8682
  706MOL0     H95284   9.320   8.842   4.055  3.6315 -1.5025  0.9397
  706MOL0     H95285   9.361   9.019   4.058  1.7374 -0.2574  0.7701
  706MOL0     H95286   9.482   8.819   3.852  0.2283  0.2717 -0.3034
  706MOL0     H95287   9.512   8.989   3.897 -1.6977  0.1898 -0.5922
  706MOL0     H95288   9.552   8.784   4.115  0.0833  0.9578  0.1395
  706MOL0     H95289   9.640   8.934   4.078 -0.0110 -0.1495 -0.2781
  706MOL0     H95290   9.674   8.688   3.893  2.0278  1.2104 -3.3022
  706MOL0     H95291   9.755   8.710   4.055  0.2605  3.0289  1.4839
  706MOL0     H95292   8.845   8.809   3.777  3.4042 -0.3333 -4.2131
  706MOL0     H95293   8.717   8.639   3.668  1.6461  0.3718  0.7259
  706MOL0     H95294   8.326   8.337   3.672 -2.4999 -3.1867 -0.1894
  706MOL0     H95295   8.130   8.227   3.571 -0.2759  1.2299 -0.2550
  706MOL0     H95296   8.625   8.583   2.482 -1.0196 -0.2478 -0.0619
  706MOL0     H95297   8.864   8.521   2.436 -0.3946  0.1151 -1.0124
  706MOL0     H95298   9.139   8.253   2.280  0.3408 -0.4773  0.2450
  706MOL0     H95299   9.373   8.200   2.203 -3.8389 -1.9821 -0.8790
  706MOL0     H95300   9.696   8.273   2.488  1.7206  1.3060  0.0099
  706MOL0     H95301   9.714   8.104   2.464  1.6546  0.8655  0.1291
  706MOL0     H95302   9.897   8.261   2.413 -0.0379 -0.6317 -0.6697
  706MOL0     H95303   9.818   8.323   2.263 -1.1130  0.9512  0.8602
  706MOL0     H95304   9.839   8.086   2.180 -1.2409  1.0012  0.5897
  706MOL0     H95305   9.894   8.025   2.325 -3.6017 -0.3824 -2.6084
  706MOL0     H95306  10.118   8.137   2.314  1.4345  2.9263  0.1181
  706MOL0     H95307  10.049   8.246   2.195 -0.2886 -0.9343 -1.1239
  706MOL0     H95308  10.119   7.929   1.941  2.3822 -0.6693  0.5364
  706MOL0     H95309   9.515   8.237   2.604 -0.6771 -0.5897  0.9925
  706MOL0     H95310   9.301   8.297   2.679  0.4269 -0.8438  0.1334
  707MOL0     O95311   8.978   6.697   5.119  0.0611  0.4804  0.0472
  707MOL0     C95312   9.024   6.790   5.181  0.3355 -0.7373  0.1756
  707MOL0     O95313   8.951   6.906   5.209  0.4111  0.6689 -0.6911
  707MOL0     C95314   8.831   6.936   5.153  0.5542  0.8864 -0.5297
  707MOL0     C95315   8.820   6.952   5.019 -0.1780 -0.5936 -0.1195
  707MOL0     C95316   8.697   6.951   4.956 -0.7625  0.1860  0.9743
  707MOL0     C95317   8.583   6.943   5.035  0.2830 -1.0398 -0.0592
  707MOL0     O95318   8.458   6.951   4.965 -0.1260  0.5069 -0.4504
  707MOL0     C95319   8.408   6.821   4.923 -1.0894  0.2866 -0.6079
  707MOL0     C95320   8.265   6.817   4.972  0.4609  0.7332  0.2689
  707MOL0     C95321   8.166   6.929   4.935  0.9272 -0.1523  0.1289
  707MOL0     C95322   8.164   6.950   4.784 -0.0858 -0.2022 -0.1976
  707MOL0     C95323   8.037   7.033   4.748  0.5691  0.4838 -0.5152
  707MOL0     C95324   7.902   6.957   4.767  0.8671  0.1955  0.2965
  707MOL0     C95325   7.780   7.041   4.726 -0.1541 -0.1872  0.1191
  707MOL0     C95326   7.652   6.975   4.785 -0.3966 -0.1485 -0.0951
  707MOL0     N95327   7.518   7.035   4.748 -0.4197 -0.4630 -0.4611
  707MOL0     C95328   7.492   7.100   4.629  0.2014 -0.0334  0.6953
  707MOL0     C95329   7.366   7.143   4.639 -0.4002 -1.4153  0.8099
  707MOL0     C95330   7.290   7.213   4.537 -0.6197 -0.6256 -0.4301
  707MOL0     C95331   7.290   7.138   4.403  0.2376 -0.6698  0.9305
  707MOL0     C95332   7.236   7.225   4.286  0.1691 -0.4786 -0.0876
  707MOL0     C95333   7.255   7.138   4.160  0.1168 -0.3892  0.0685
  707MOL0     O95334   7.263   7.231   4.050 -0.6517 -0.6214  0.2856
  707MOL0     C95335   7.151   7.283   3.997  0.1856 -0.2820  0.6453
  707MOL0     C95336   7.016   7.235   4.023 -0.3253 -0.9119 -0.1525
  707MOL0     C95337   6.897   7.303   3.988 -0.1694 -1.0437  0.1603
  707MOL0     C95338   6.773   7.253   4.051  0.5836  0.1050  0.0771
  707MOL0     C95339   6.919   7.420   3.901 -0.2332  0.8924  0.4859
  707MOL0     C95340   6.814   7.506   3.852  0.5268 -0.2068 -0.9850
  707MOL0     O95341   6.839   7.586   3.739 -0.6985 -0.0548  0.0466
  707MOL0     C95342   6.743   7.669   3.690  0.3179 -0.1714  0.1654
  707MOL0     C95343   6.781   7.801   3.650 -0.8900  0.0987 -0.0813
  707MOL0     C95344   6.680   7.893   3.608  0.4885 -0.9613  0.4450
  707MOL0     C95345   6.546   7.852   3.587 -0.2715  0.6588  0.5296
  707MOL0     O95346   6.448   7.931   3.547 -0.0637  0.3742  0.1187
  707MOL0     C95347   6.478   8.035   3.451 -0.0486 -0.2750 -0.2751
  707MOL0     C95348   6.507   8.170   3.515  0.6737  0.1106 -0.3024
  707MOL0     C95349   6.389   8.242   3.581 -0.6639  0.4791  0.2969
  707MOL0     C95350   6.274   8.272   3.485 -0.7007 -0.5355  0.2804
  707MOL0     C95351   6.180   8.376   3.553  0.3496 -1.0984  0.4052
  707MOL0     C95352   6.056   8.396   3.474  0.3584  0.1168  0.6810
  707MOL0     C95353   5.989   8.530   3.514  0.0351  0.7341  0.5440
  707MOL0     C95354   5.854   8.546   3.437  0.4162  0.2167  0.7214
  707MOL0    Cl95355   5.728   8.445   3.515  0.5349 -0.1567  0.3657
  707MOL0     C95356   6.515   7.722   3.625 -0.0907  0.1042 -0.3657
  707MOL0     C95357   6.610   7.641   3.681  0.7370 -0.3094  0.6302
  707MOL0     O95358   6.719   7.519   3.927  0.5219 -0.1646 -0.1566
  707MOL0     C95359   7.053   7.466   3.873  0.1833 -0.3346  0.9029
  707MOL0     C95360   7.166   7.402   3.922 -0.5040  0.2962  0.5135
  707MOL0     N95361   7.315   7.098   4.763 -0.2100  0.1900  0.1480
  707MOL0     N95362   7.402   7.029   4.822 -0.1566 -0.3325  0.1496
  707MOL0     C95363   8.590   6.931   5.167  0.4866 -0.0635 -0.1216
  707MOL0     C95364   8.718   6.947   5.227  0.0149 -0.0141 -0.3081
  707MOL0     C95365   9.167   6.771   5.224 -1.4262  0.1134 -0.1216
  707MOL0     C95366   9.245   6.860   5.298 -0.3233  0.0020 -1.0755
  707MOL0     C95367   9.386   6.838   5.321  0.3650 -0.0959  0.0799
  707MOL0     C95368   9.445   6.729   5.262  0.0340  0.8675 -0.5565
  707MOL0     O95369   9.578   6.701   5.268 -0.1792  0.0813 -0.1635
  707MOL0     C95370   9.669   6.791   5.326  0.0680  1.0628 -0.8057
  707MOL0     C95371   9.814   6.761   5.284  0.0444  0.3321 -1.2460
  707MOL0     C95372   9.829   6.769   5.133  1.3697 -0.2758 -0.5400
  707MOL0     C95373   9.970   6.735   5.083 -0.0673 -1.2401  0.2867
  707MOL0     C95374  10.016   6.603   5.081 -0.1117  0.2955 -0.6584
  707MOL0     C95375  10.047   6.494   5.050  0.4286  0.0464 -0.1161
  707MOL0     C95376   9.368   6.630   5.202 -0.1471 -0.2012 -0.3975
  707MOL0     C95377   9.234   6.648   5.181 -0.4022 -0.3297  0.2356
  707MOL0     H95378   8.909   6.956   4.957 -1.3959  3.7470 -1.9278
  707MOL0     H95379   8.687   6.957   4.848 -1.4363 -2.2725  0.8341
  707MOL0     H95380   8.410   6.816   4.813  1.0549 -1.9766 -0.5469
  707MOL0     H95381   8.458   6.730   4.958  0.1302  0.7804 -1.0056
  707MOL0     H95382   8.222   6.722   4.939 -0.1802  1.4653 -1.1329
  707MOL0     H95383   8.275   6.822   5.080 -0.7439  1.8938  0.3596
  707MOL0     H95384   8.070   6.896   4.974  0.2838  0.6203 -0.7604
  707MOL0     H95385   8.194   7.021   4.987  1.5916  0.5612 -1.4456
  707MOL0     H95386   8.251   7.011   4.758 -0.5983  0.1025 -1.2810
  707MOL0     H95387   8.170   6.855   4.729 -0.5046  0.1308 -0.8402
  707MOL0     H95388   8.048   7.117   4.817  0.1167 -1.5863  2.2103
  707MOL0     H95389   8.049   7.065   4.644 -1.3770  0.7506 -0.6955
  707MOL0     H95390   7.905   6.874   4.696  1.0020  0.9387 -0.5742
  707MOL0     H95391   7.888   6.929   4.872 -1.2745 -0.1044 -0.0185
  707MOL0     H95392   7.793   7.139   4.772 -0.1284  0.5371 -1.3649
  707MOL0     H95393   7.762   7.059   4.619 -0.2913 -0.8215  0.0342
  707MOL0     H95394   7.672   6.965   4.892 -0.2779 -1.3489 -0.2211
  707MOL0     H95395   7.648   6.869   4.758 -0.7004 -1.7883  5.2286
  707MOL0     H95396   7.563   7.125   4.551 -2.0945  0.6781 -1.2991
  707MOL0     H95397   7.184   7.223   4.560 -0.6658  1.8979 -1.3812
  707MOL0     H95398   7.333   7.312   4.517  0.6197 -1.1876 -0.6540
  707MOL0     H95399   7.221   7.054   4.411 -1.2098  0.4067  0.2282
  707MOL0     H95400   7.395   7.111   4.388  0.9805  2.6101 -0.6322
  707MOL0     H95401   7.295   7.316   4.279 -0.1300 -0.2365  0.4344
  707MOL0     H95402   7.129   7.247   4.291  0.0276 -1.3665  1.8074
  707MOL0     H95403   7.187   7.054   4.146  0.6772 -0.6288 -1.3393
  707MOL0     H95404   7.352   7.092   4.178 -0.2330 -0.5749  1.6366
  707MOL0     H95405   7.004   7.153   4.093 -2.6157 -1.4728 -1.1054
  707MOL0     H95406   6.684   7.263   3.989  0.0806  0.5973  0.8610
  707MOL0     H95407   6.778   7.144   4.062 -0.7119  0.1910  2.1848
  707MOL0     H95408   6.737   7.291   4.147 -0.4079 -1.5876  0.4118
  707MOL0     H95409   6.886   7.831   3.649 -1.2299  1.3428 -0.1457
  707MOL0     H95410   6.714   7.991   3.576 -3.3496  0.2038 -0.5646
  707MOL0     H95411   6.564   8.008   3.389  1.0848  2.0488  0.1452
  707MOL0     H95412   6.392   8.053   3.387 -0.8911  2.5641  1.4675
  707MOL0     H95413   6.581   8.154   3.594 -0.0808 -0.7324  0.2478
  707MOL0     H95414   6.552   8.242   3.446  0.8617 -0.6093 -0.9405
  707MOL0     H95415   6.419   8.339   3.620  1.1164 -0.1239  0.5426
  707MOL0     H95416   6.353   8.187   3.669 -1.7634 -2.7078 -1.9281
  707MOL0     H95417   6.313   8.315   3.393  3.7154  0.0334  2.1877
  707MOL0     H95418   6.211   8.187   3.458 -3.4957  1.5692 -0.2752
  707MOL0     H95419   6.231   8.473   3.562  0.7671 -1.0889 -1.5223
  707MOL0     H95420   6.147   8.340   3.650 -1.8128  2.5310  1.2269
  707MOL0     H95421   6.069   8.391   3.366  2.9285 -0.8393  0.9555
  707MOL0     H95422   5.988   8.318   3.509 -1.6483 -0.1814 -3.3431
  707MOL0     H95423   6.060   8.611   3.497  1.2964 -0.7416 -1.6630
  707MOL0     H95424   5.965   8.515   3.620  0.0993 -0.3256  0.4247
  707MOL0     H95425   5.852   8.536   3.328  1.2175 -2.4972  0.8774
  707MOL0     H95426   5.818   8.647   3.457  1.6584  0.9274 -0.4394
  707MOL0     H95427   6.415   7.684   3.609 -0.8817  1.4010  1.2243
  707MOL0     H95428   6.566   7.548   3.718  0.4962  0.1523  1.5412
  707MOL0     H95429   7.059   7.549   3.804 -1.1873 -0.0408  1.1184
  707MOL0     H95430   7.256   7.452   3.889 -2.6740  2.9260 -2.0818
  707MOL0     H95431   8.499   6.913   5.223  1.7370 -2.0277  1.4030
  707MOL0     H95432   8.708   6.944   5.335 -1.4943  3.4956 -0.1890
  707MOL0     H95433   9.200   6.948   5.345 -1.3149 -0.2576 -1.5031
  707MOL0     H95434   9.433   6.917   5.378  0.0785  0.5755 -0.5835
  707MOL0     H95435   9.638   6.894   5.303 -3.9471  0.1679 -0.1536
  707MOL0     H95436   9.658   6.782   5.434 -0.4211  1.5215 -0.8104
  707MOL0     H95437   9.846   6.662   5.320  2.2125  1.7856  1.2032
  707MOL0     H95438   9.872   6.840   5.333  0.1046 -0.8559  0.7155
  707MOL0     H95439   9.817   6.874   5.107  1.5303 -0.6064 -2.0486
  707MOL0     H95440   9.751   6.705   5.090  0.9077 -0.3069  0.3105
  707MOL0     H95441  10.039   6.792   5.146 -2.3099  1.1949  0.7157
  707MOL0     H95442   9.978   6.769   4.979  0.9627 -1.9188  0.1264
  707MOL0     H95443  10.070   6.399   5.007 -2.0331  0.0021 -1.5647
  707MOL0     H95444   9.413   6.544   5.155  0.1105  0.2126 -0.9231
  707MOL0     H95445   9.187   6.581   5.110  0.6580 -0.2891 -0.5311
  708MOL0     O95446   9.070  10.488   9.013  0.5363  0.0144 -0.0803
  708MOL0     C95447   9.121  10.563   8.937  0.5695  1.2450  0.3090
  708MOL0     O95448   9.062  10.678   8.882  0.2292  0.2323 -0.6603
  708MOL0     C95449   8.928  10.701   8.903  0.0575  0.2804 -0.1806
  708MOL0     C95450   8.884  10.834   8.919 -0.2051 -0.2572 -0.3302
  708MOL0     C95451   8.748  10.867   8.931  0.1769  0.4223  0.7752
  708MOL0     C95452   8.651  10.766   8.922  0.1621 -0.1953 -0.1627
  708MOL0     O95453   8.519  10.787   8.939  0.6305  0.3465 -0.5014
  708MOL0     C95454   8.471  10.922   8.944 -0.0427 -1.0933  0.0735
  708MOL0     C95455   8.322  10.905   8.919  0.1891 -0.4799 -0.5396
  708MOL0     C95456   8.271  11.053   8.932  0.1652  0.3670 -0.6014
  708MOL0     C95457   8.118  11.035   8.922  0.3276 -0.4345  0.4037
  708MOL0     C95458   8.053  11.169   8.905 -0.2821 -1.0394  0.5528
  708MOL0     C95459   7.902  11.150   8.919  0.0408  0.3319 -0.9785
  708MOL0     C95460   7.818  11.266   8.885  0.4093  0.2083 -0.0089
  708MOL0     C95461   7.675  11.221   8.904 -0.6854  0.1436 -1.1136
  708MOL0     N95462   7.582  11.331   8.940 -0.0519 -1.0405 -0.0035
  708MOL0     C95463   7.589  11.417   9.042  0.6087  0.0843 -0.9251
  708MOL0     C95464   7.492  11.511   9.025  0.5816  0.5584  0.2655
  708MOL0     C95465   7.485  11.632   9.109  0.6357 -1.0448 -0.7121
  708MOL0     C95466   7.367  11.725   9.079 -0.7715 -0.4577  0.4345
  708MOL0     C95467   7.362  11.828   9.189  0.1729  0.3127  0.1693
  708MOL0     C95468   7.261  11.944   9.160 -0.1027 -0.0022  0.2137
  708MOL0     O95469   7.263  12.023   9.281  0.2066 -0.0152 -0.1728
  708MOL0     C95470   7.140  12.079   9.309 -0.2793 -0.3319 -0.7491
  708MOL0     C95471   7.150  12.176   9.411  0.4097  0.5684 -0.0161
  708MOL0     C95472   7.042  12.249   9.461  0.5380 -0.3054  1.3284
  708MOL0     C95473   7.066  12.331   9.578  0.3468 -0.0072 -0.3190
  708MOL0     C95474   6.913  12.220   9.406  0.0212  0.5889 -0.6241
  708MOL0     C95475   6.781  12.282   9.456  0.7246  0.3415 -0.1986
  708MOL0     O95476   6.659  12.244   9.390 -0.6060 -0.1941  0.5803
  708MOL0     C95477   6.547  12.295   9.439 -0.6990 -0.4153  0.4863
  708MOL0     C95478   6.472  12.227   9.527 -0.8403  0.1325 -0.3906
  708MOL0     C95479   6.355  12.278   9.575 -0.3453  0.1183 -0.1200
  708MOL0     C95480   6.308  12.407   9.537  0.2516 -0.3162  0.3813
  708MOL0     O95481   6.186  12.453   9.571  0.7374  0.2309  0.3247
  708MOL0     C95482   6.083  12.367   9.623  0.0492 -0.0619  0.4988
  708MOL0     C95483   5.959  12.459   9.634 -0.1800  0.3295  0.4441
  708MOL0     C95484   5.843  12.357   9.684 -0.2766 -0.8660  0.3291
  708MOL0     C95485   5.714  12.444   9.713  0.1701  0.3587 -0.2773
  708MOL0     C95486   5.591  12.364   9.764 -0.7899 -1.4208 -0.0891
  708MOL0     C95487   5.467  12.461   9.786  0.1047 -0.2505  0.5419
  708MOL0     C95488   5.335  12.392   9.765  0.2278 -0.2969 -0.4190
  708MOL0     C95489   5.223  12.493   9.747 -0.2893 -0.3230  0.6350
  708MOL0    Cl95490   5.069  12.424   9.717 -0.0370  0.4764  0.2775
  708MOL0     C95491   6.386  12.481   9.446 -0.2939 -0.1346 -0.2282
  708MOL0     C95492   6.510  12.426   9.394 -0.2397  0.5492 -0.0664
  708MOL0     O95493   6.780  12.366   9.546 -0.0810 -0.4653  1.0257
  708MOL0     C95494   6.901  12.121   9.302  0.0444 -0.7113  0.2849
  708MOL0     C95495   7.017  12.063   9.249 -0.1836  0.2871  0.5713
  708MOL0     N95496   7.422  11.472   8.913  0.0070 -0.7779 -0.1084
  708MOL0     N95497   7.473  11.362   8.862 -0.6813 -0.5878  0.2502
  708MOL0     C95498   8.691  10.634   8.890 -0.0808  1.2789 -0.3363
  708MOL0     C95499   8.828  10.604   8.885 -0.2698  0.6369 -1.0738
  708MOL0     C95500   9.264  10.537   8.884 -0.0679 -0.0812 -0.3364
  708MOL0     C95501   9.308  10.399   8.873  0.2380 -0.9179  0.0550
  708MOL0     C95502   9.440  10.381   8.828 -0.9255 -0.2317 -0.0194
  708MOL0     C95503   9.527  10.486   8.789 -0.0281  0.2225  0.4501
  708MOL0     O95504   9.651  10.466   8.736  0.1863 -0.6837  0.5713
  708MOL0     C95505   9.722  10.348   8.774  0.4665 -0.8032  0.5273
  708MOL0     C95506   9.863  10.354   8.740  0.1395  1.1171 -0.7501
  708MOL0     C95507   9.927  10.223   8.804  0.3334 -0.5814  0.1518
  708MOL0     C95508  10.080  10.253   8.837 -0.4726  0.4081 -0.1217
  708MOL0     C95509  10.149  10.129   8.875 -0.0242 -0.3859  0.0886
  708MOL0     C95510  10.207  10.022   8.889  0.7238  0.1211 -1.4748
  708MOL0     C95511   9.479  10.618   8.795  0.3124  0.1914 -0.0342
  708MOL0     C95512   9.350  10.645   8.851 -0.2726  0.2662  1.2709
  708MOL0     H95513   8.955  10.916   8.932  0.3240 -0.9470  1.4382
  708MOL0     H95514   8.727  10.971   8.957  1.2506  0.8327  0.0414
  708MOL0     H95515   8.498  10.959   9.043  1.1301  0.0710 -0.6588
  708MOL0     H95516   8.502  10.995   8.869 -2.7280 -0.8623 -0.9260
  708MOL0     H95517   8.304  10.857   8.823 -0.4194  0.8794 -1.1359
  708MOL0     H95518   8.273  10.840   8.992 -1.1330  1.3406  0.2825
  708MOL0     H95519   8.304  11.114   9.016 -1.1490 -0.5960  0.6661
  708MOL0     H95520   8.312  11.104   8.844  2.1264  2.9317  1.6174
  708MOL0     H95521   8.090  10.972   8.837  0.8613 -1.9888  1.3333
  708MOL0     H95522   8.082  10.993   9.016 -1.0614 -1.1139 -0.3940
  708MOL0     H95523   8.088  11.242   8.979  1.8416  0.3240 -1.6348
  708MOL0     H95524   8.079  11.208   8.806 -1.7303 -1.7520 -0.1290
  708MOL0     H95525   7.875  11.066   8.854 -2.2180  0.3534 -0.1397
  708MOL0     H95526   7.874  11.118   9.020  3.5400  2.5680  0.8736
  708MOL0     H95527   7.844  11.352   8.946 -0.2144 -1.3675  2.6371
  708MOL0     H95528   7.820  11.290   8.778 -2.5126 -0.9622 -0.4149
  708MOL0     H95529   7.676  11.145   8.983 -2.7286  2.8572  1.7787
  708MOL0     H95530   7.647  11.171   8.811  0.3817 -0.8677 -0.9167
  708MOL0     H95531   7.675  11.433   9.106  2.2274 -1.4849 -2.6156
  708MOL0     H95532   7.469  11.597   9.211 -0.0685 -0.6086 -0.6678
  708MOL0     H95533   7.574  11.697   9.108  0.3705 -0.6365  0.8162
  708MOL0     H95534   7.269  11.676   9.077 -0.0854 -1.8589 -0.8143
  708MOL0     H95535   7.398  11.782   8.991  1.3071 -1.1770  0.6611
  708MOL0     H95536   7.460  11.873   9.206  0.3277 -0.4432  1.4215
  708MOL0     H95537   7.340  11.771   9.280  2.3324  0.6078  0.9391
  708MOL0     H95538   7.168  11.890   9.142 -1.4259  2.3813 -0.6447
  708MOL0     H95539   7.298  12.006   9.077  1.7216  0.2729  1.1767
  708MOL0     H95540   7.248  12.189   9.455  0.6718  1.3347 -0.8200
  708MOL0     H95541   7.172  12.346   9.599  0.3574 -2.2467  1.7959
  708MOL0     H95542   7.024  12.431   9.564  0.8181  0.1355 -0.7257
  708MOL0     H95543   7.021  12.284   9.666 -2.4724  1.1014 -1.0845
  708MOL0     H95544   6.498  12.127   9.560  1.9259  1.5460  2.2484
  708MOL0     H95545   6.298  12.209   9.636 -3.2484  0.7117 -1.9647
  708MOL0     H95546   6.062  12.283   9.556  1.8415 -0.4589  0.3970
  708MOL0     H95547   6.104  12.317   9.718 -2.8164  0.2643  1.3999
  708MOL0     H95548   5.981  12.535   9.710  0.2322 -1.2053  1.9148
  708MOL0     H95549   5.915  12.505   9.545 -1.7284 -1.4285  0.2362
  708MOL0     H95550   5.877  12.296   9.768 -3.1109 -1.3909  1.2147
  708MOL0     H95551   5.821  12.293   9.598 -2.9613 -0.2459  0.4576
  708MOL0     H95552   5.741  12.516   9.791 -1.0912 -1.1307  1.6225
  708MOL0     H95553   5.685  12.506   9.627  1.8013  2.2841  0.4886
  708MOL0     H95554   5.609  12.311   9.858  0.4594 -0.5468  0.1952
  708MOL0     H95555   5.574  12.285   9.690 -1.1509  0.7051 -2.3858
  708MOL0     H95556   5.474  12.522   9.877  3.2275  0.1302  0.1479
  708MOL0     H95557   5.479  12.529   9.702  2.6680 -2.4213 -1.0078
  708MOL0     H95558   5.311  12.322   9.845 -0.7541 -1.5538 -1.7660
  708MOL0     H95559   5.342  12.335   9.673 -3.0434  0.4754 -1.2904
  708MOL0     H95560   5.241  12.563   9.664 -3.0509  0.0153  0.2127
  708MOL0     H95561   5.215  12.559   9.833 -3.2901 -2.3167  2.0571
  708MOL0     H95562   6.354  12.578   9.411 -0.1777  1.8818  4.4879
  708MOL0     H95563   6.584  12.474   9.332  1.0400 -1.5276 -0.2282
  708MOL0     H95564   6.802  12.106   9.261 -1.2706  1.5677  2.3472
  708MOL0     H95565   6.993  11.984   9.179 -1.5507 -3.1449  4.4470
  708MOL0     H95566   8.621  10.552   8.877  2.5085 -2.1103  3.9705
  708MOL0     H95567   8.852  10.502   8.856 -5.1061 -0.6075 -1.7242
  708MOL0     H95568   9.239  10.322   8.907 -0.3746  0.0964  1.2201
  708MOL0     H95569   9.473  10.280   8.811 -2.3633 -0.4170 -2.1452
  708MOL0     H95570   9.709  10.338   8.882  1.8451  2.2545  1.0706
  708MOL0     H95571   9.680  10.263   8.720  0.0699  1.4005 -2.9708
  708MOL0     H95572   9.908  10.451   8.764  2.3727 -0.5922  2.8110
  708MOL0     H95573   9.874  10.339   8.632 -1.9799 -1.2478 -0.7239
  708MOL0     H95574   9.913  10.134   8.741 -0.3107 -1.1375  1.0596
  708MOL0     H95575   9.886  10.198   8.903  2.1594  0.2604  1.1653
  708MOL0     H95576  10.072  10.305   8.933 -3.1920 -1.9892  1.1274
  708MOL0     H95577  10.128  10.311   8.757 -2.6499  4.3636  1.1516
  708MOL0     H95578  10.252   9.926   8.906  0.1128  0.1515  0.5569
  708MOL0     H95579   9.547  10.702   8.782 -0.1482  0.5508 -0.1695
  708MOL0     H95580   9.322  10.748   8.872 -1.2314  0.0688  0.9716
  709MOL0     O95581   6.340   6.198   7.539  0.1296 -0.3991  0.2214
  709MOL0     C95582   6.414   6.295   7.563  0.5680  0.0563 -0.9140
  709MOL0     O95583   6.367   6.412   7.629  0.2034  0.3495 -0.0493
  709MOL0     C95584   6.237   6.406   7.668 -0.2063  0.1004 -0.5449
  709MOL0     C95585   6.155   6.506   7.639  1.1914 -0.6524  0.2338
  709MOL0     C95586   6.026   6.511   7.690 -0.3032 -0.7190  0.6789
  709MOL0     C95587   5.977   6.411   7.778  0.8860  0.6771 -0.2705
  709MOL0     O95588   5.854   6.409   7.839  0.2348  0.2973  0.4302
  709MOL0     C95589   5.766   6.520   7.816 -0.0867 -0.4512  0.5017
  709MOL0     C95590   5.657   6.536   7.922 -1.0429 -0.3891 -1.2405
  709MOL0     C95591   5.601   6.675   7.920 -0.8587 -0.1786 -0.5583
  709MOL0     C95592   5.540   6.699   8.059  0.0563  0.5136  0.3655
  709MOL0     C95593   5.477   6.838   8.084  0.0237  0.9208  1.0263
  709MOL0     C95594   5.336   6.848   8.027  0.5267  0.4042  0.5260
  709MOL0     C95595   5.281   6.993   8.036  0.0034 -1.0390 -0.8398
  709MOL0     C95596   5.168   7.024   7.933  0.5954 -0.1691 -0.1387
  709MOL0     N95597   5.042   6.979   7.985 -0.2246  0.0175  1.0408
  709MOL0     C95598   4.972   7.042   8.083 -0.1033  0.3055  0.7981
  709MOL0     C95599   4.851   6.995   8.083  0.3067  0.9991  0.8716
  709MOL0     C95600   4.726   7.027   8.164 -0.3511 -0.5282  0.0680
  709MOL0     C95601   4.645   7.125   8.084  0.1289  0.2832 -0.5162
  709MOL0     C95602   4.503   7.156   8.142  0.9098  0.3939  0.1828
  709MOL0     C95603   4.442   7.271   8.054  0.1284 -0.2649 -0.0728
  709MOL0     O95604   4.319   7.299   8.110 -0.2777  0.3490 -0.1398
  709MOL0     C95605   4.210   7.263   8.050 -0.1381 -0.7149 -0.6384
  709MOL0     C95606   4.089   7.326   8.091 -0.5530  0.0517  0.0390
  709MOL0     C95607   3.962   7.291   8.041  0.1300 -0.3747  0.7663
  709MOL0     C95608   3.840   7.355   8.104 -0.2256  0.5526 -0.1450
  709MOL0     C95609   3.951   7.190   7.943 -0.2698 -1.1765  1.2275
  709MOL0     C95610   3.815   7.138   7.897 -0.0841  0.9201 -0.0718
  709MOL0     O95611   3.820   7.020   7.827  0.4832  0.6346 -1.2048
  709MOL0     C95612   3.706   6.972   7.783  0.0427  0.3355  0.6261
  709MOL0     C95613   3.700   6.941   7.649  1.4295  0.2959  1.5031
  709MOL0     C95614   3.584   6.881   7.601 -0.1524  0.6783 -0.0773
  709MOL0     C95615   3.469   6.848   7.682 -0.0484  0.4446 -0.2361
  709MOL0     O95616   3.359   6.783   7.622  0.1266  0.7081  0.1746
  709MOL0     C95617   3.232   6.801   7.687  0.6074  0.0092  0.2384
  709MOL0     C95618   3.119   6.721   7.612 -0.5355  0.0970 -0.9995
  709MOL0     C95619   2.988   6.719   7.690 -0.3516  0.0940 -0.4732
  709MOL0     C95620   2.897   6.628   7.617  0.6611 -0.5412 -0.6674
  709MOL0     C95621   2.757   6.641   7.675 -0.7807  0.1365  0.9321
  709MOL0     C95622   2.647   6.565   7.604  0.0183  0.5150 -0.2168
  709MOL0     C95623   2.518   6.544   7.684 -0.4867 -0.7796  0.2329
  709MOL0     C95624   2.411   6.468   7.608 -0.2239  0.2658  0.1223
  709MOL0    Cl95625   2.251   6.477   7.699 -0.4988  0.5689 -0.0374
  709MOL0     C95626   3.482   6.888   7.817  0.1216 -0.5746 -1.4795
  709MOL0     C95627   3.599   6.944   7.872  0.8948  0.6471 -0.1339
  709MOL0     O95628   3.713   7.202   7.920  0.3863 -0.3897 -0.2772
  709MOL0     C95629   4.071   7.130   7.898 -0.7670  0.6057 -0.4702
  709MOL0     C95630   4.197   7.161   7.953 -0.3829  1.1014 -0.3161
  709MOL0     N95631   4.859   6.884   7.993  0.4517 -0.4657 -1.0321
  709MOL0     N95632   4.974   6.874   7.938  0.8199  0.2165 -0.6616
  709MOL0     C95633   6.071   6.319   7.817 -0.3228  0.2412 -0.1534
  709MOL0     C95634   6.201   6.311   7.761  0.3231 -0.6264 -0.7485
  709MOL0     C95635   6.566   6.276   7.536  0.4894  0.0088  0.0073
  709MOL0     C95636   6.665   6.358   7.590 -0.8327  0.1293  1.3276
  709MOL0     C95637   6.804   6.330   7.560 -0.2493 -0.6158 -0.0316
  709MOL0     C95638   6.837   6.220   7.480  0.6292  0.9180 -0.3384
  709MOL0     O95639   6.965   6.199   7.424 -0.4811 -0.3496 -0.1045
  709MOL0     C95640   7.074   6.289   7.448 -0.2745 -0.5253  0.5234
  709MOL0     C95641   7.198   6.242   7.364 -0.4842  0.1197 -0.1711
  709MOL0     C95642   7.200   6.293   7.221 -0.3403 -0.2178 -0.9173
  709MOL0     C95643   7.096   6.233   7.132  0.1640  0.4083 -0.0044
  709MOL0     C95644   7.107   6.283   6.994  0.7668  0.5530  0.2387
  709MOL0     C95645   7.092   6.331   6.883 -0.3352  0.5618  0.1450
  709MOL0     C95646   6.730   6.143   7.433 -0.7116 -0.4391 -0.1266
  709MOL0     C95647   6.601   6.163   7.462  1.1935 -0.5058 -0.9596
  709MOL0     H95648   6.194   6.587   7.578  4.4994 -0.1345  2.7968
  709MOL0     H95649   5.968   6.590   7.643  3.3685  1.8580  0.0309
  709MOL0     H95650   5.820   6.615   7.811 -1.0409  0.0619 -0.5558
  709MOL0     H95651   5.721   6.510   7.717  1.9485  2.0067 -0.7883
  709MOL0     H95652   5.579   6.461   7.907 -0.3801 -1.5683  0.7968
  709MOL0     H95653   5.707   6.512   8.016 -0.2223 -1.9898 -2.0464
  709MOL0     H95654   5.690   6.738   7.911 -0.5932 -0.3286  0.7405
  709MOL0     H95655   5.533   6.701   7.839 -0.9498  0.4612 -0.2863
  709MOL0     H95656   5.457   6.629   8.071  1.7161 -1.3835  1.4839
  709MOL0     H95657   5.613   6.687   8.140 -1.6188  1.7821  2.1518
  709MOL0     H95658   5.471   6.850   8.192 -0.0623 -0.0460  1.1348
  709MOL0     H95659   5.542   6.922   8.055 -2.7853  3.4466  1.5184
  709MOL0     H95660   5.343   6.831   7.919 -0.1487 -4.7359  1.0222
  709MOL0     H95661   5.274   6.769   8.072 -0.5087 -0.0654 -1.6057
  709MOL0     H95662   5.242   7.008   8.137  1.0401  0.9609 -0.6783
  709MOL0     H95663   5.356   7.069   8.011  0.3759 -0.9222  0.5488
  709MOL0     H95664   5.178   6.960   7.845  3.3671  1.4215 -1.1077
  709MOL0     H95665   5.165   7.131   7.913  5.0204  0.1409 -0.1157
  709MOL0     H95666   5.006   7.130   8.137  0.8858  0.0199  0.6464
  709MOL0     H95667   4.678   6.933   8.191 -1.2382 -0.3667 -0.8565
  709MOL0     H95668   4.755   7.082   8.254  0.3406  0.4168 -0.7161
  709MOL0     H95669   4.628   7.094   7.980 -0.0106  3.3164 -1.4928
  709MOL0     H95670   4.699   7.219   8.075  1.7299 -0.7457 -2.7334
  709MOL0     H95671   4.494   7.180   8.248  0.6885  0.1768  0.2148
  709MOL0     H95672   4.434   7.071   8.140 -0.2318  1.1626  2.7968
  709MOL0     H95673   4.437   7.261   7.945 -2.9137  0.5856 -0.0990
  709MOL0     H95674   4.508   7.358   8.060 -2.8052  2.1743 -0.8262
  709MOL0     H95675   4.103   7.403   8.166  1.2181  0.4346 -0.6180
  709MOL0     H95676   3.778   7.396   8.024 -0.8134 -1.4297 -0.7712
  709MOL0     H95677   3.787   7.288   8.172  1.3853 -1.3767 -0.6766
  709MOL0     H95678   3.877   7.435   8.170 -0.6759 -0.7837  1.8309
  709MOL0     H95679   3.785   6.953   7.582 -1.3357  1.7270 -2.0434
  709MOL0     H95680   3.592   6.858   7.495  1.8939 -0.0411  0.1717
  709MOL0     H95681   3.239   6.754   7.785 -4.0853 -0.4701  0.5624
  709MOL0     H95682   3.204   6.906   7.691  0.6609 -0.0101  1.2000
  709MOL0     H95683   3.100   6.776   7.519  0.0064  1.4967 -0.3003
  709MOL0     H95684   3.158   6.621   7.588  0.7384  0.8382 -2.1428
  709MOL0     H95685   2.959   6.824   7.700  2.6942  0.9331  0.7574
  709MOL0     H95686   3.002   6.677   7.790  2.7067 -0.7807 -1.1598
  709MOL0     H95687   2.897   6.637   7.508  4.1751 -1.1184 -0.8483
  709MOL0     H95688   2.938   6.527   7.631 -0.4183 -0.7159  1.7337
  709MOL0     H95689   2.738   6.749   7.680  0.3400  0.4614 -0.8145
  709MOL0     H95690   2.761   6.610   7.780  0.3757 -0.2686  0.7818
  709MOL0     H95691   2.625   6.620   7.511 -0.6381 -3.3575 -2.5732
  709MOL0     H95692   2.692   6.476   7.558 -0.3639  0.4183 -0.4074
  709MOL0     H95693   2.502   6.646   7.720  2.8672 -0.9246  2.6649
  709MOL0     H95694   2.550   6.484   7.770  3.5435 -0.3601 -0.7510
  709MOL0     H95695   2.428   6.362   7.587 -0.3760 -0.0754  1.6329
  709MOL0     H95696   2.395   6.518   7.512 -2.0368  1.2999  0.9109
  709MOL0     H95697   3.396   6.869   7.879  1.5439 -1.2325  0.3876
  709MOL0     H95698   3.598   6.976   7.976  1.4546  0.4662 -0.0692
  709MOL0     H95699   4.081   7.046   7.830  1.1157  0.5102 -0.1382
  709MOL0     H95700   4.282   7.100   7.925 -1.2491 -0.5180  0.3836
  709MOL0     H95701   6.037   6.254   7.897 -1.8907 -0.2298 -1.1622
  709MOL0     H95702   6.275   6.239   7.793 -0.1463 -0.4005  0.9954
  709MOL0     H95703   6.632   6.446   7.645  1.1280  2.7004 -1.3492
  709MOL0     H95704   6.883   6.403   7.568  0.1066 -0.9123 -0.7921
  709MOL0     H95705   7.049   6.391   7.418  1.6538 -0.4534 -1.0130
  709MOL0     H95706   7.104   6.303   7.553 -5.2612 -1.4165  2.3795
  709MOL0     H95707   7.203   6.133   7.372 -0.0234  0.1534  0.0476
  709MOL0     H95708   7.290   6.283   7.407  0.0252  0.2438 -1.3391
  709MOL0     H95709   7.300   6.262   7.190  0.1003 -0.2501  0.4457
  709MOL0     H95710   7.205   6.402   7.211  1.6963 -0.1863 -0.0238
  709MOL0     H95711   6.994   6.245   7.168 -0.2250  1.0771 -1.2600
  709MOL0     H95712   7.123   6.128   7.115 -0.0281  0.3591 -0.0077
  709MOL0     H95713   7.090   6.373   6.784 -0.3605  0.6744  0.1930
  709MOL0     H95714   6.760   6.064   7.366  1.8210 -1.4363  2.0004
  709MOL0     H95715   6.529   6.098   7.413 -2.2444  2.3406 -0.1043
  710MOL0     O95716   2.030   1.600   2.055 -0.2151 -0.5338 -0.1966
  710MOL0     C95717   2.059   1.552   1.945  0.1627 -0.3535 -0.1839
  710MOL0     O95718   1.971   1.521   1.845 -0.1604 -0.9155  0.5396
  710MOL0     C95719   1.838   1.542   1.865  0.6431  0.0357  0.6228
  710MOL0     C95720   1.796   1.676   1.914  0.2672 -0.4244  0.8872
  710MOL0     C95721   1.665   1.698   1.940 -0.1472 -0.3310 -1.3197
  710MOL0     C95722   1.569   1.609   1.895 -0.0169 -0.0795  0.1984
  710MOL0     O95723   1.448   1.638   1.935  0.4783  0.2536 -0.3357
  710MOL0     C95724   1.356   1.664   1.828  0.2254  0.2284  0.5831
  710MOL0     C95725   1.252   1.748   1.892 -0.4829  0.0758  0.4434
  710MOL0     C95726   1.147   1.787   1.797  0.3467  0.2673  0.5138
  710MOL0     C95727   1.050   1.886   1.868 -0.5624 -0.3803 -0.3017
  710MOL0     C95728   0.916   1.882   1.801 -0.1200 -0.4352  0.0423
  710MOL0     C95729   0.808   1.959   1.884 -0.3290 -0.4596 -0.2278
  710MOL0     C95730   0.666   1.965   1.820  0.9576 -0.1436  0.2233
  710MOL0     C95731   0.626   1.827   1.760 -0.1510 -0.2135  0.6425
  710MOL0     N95732   0.481   1.825   1.734  0.7283 -0.0843 -0.6111
  710MOL0     C95733   0.423   1.871   1.620  1.3286 -1.0780 -0.2457
  710MOL0     C95734   0.291   1.877   1.655 -0.7698 -0.2306  0.3611
  710MOL0     C95735   0.178   1.915   1.561 -0.0788  0.3095 -0.3522
  710MOL0     C95736   0.050   1.832   1.595  0.3799  0.4972  0.4065
  710MOL0     C95737  -0.054   1.871   1.487  1.2137 -0.1858 -0.3457
  710MOL0     C95738  -0.199   1.843   1.519 -0.6246  0.0653 -0.5694
  710MOL0     O95739  -0.273   1.858   1.391 -0.5449 -0.2288  0.7895
  710MOL0     C95740  -0.404   1.819   1.379 -0.5273  0.6026 -0.6351
  710MOL0     C95741  -0.485   1.766   1.480 -0.2724 -0.4741  0.0514
  710MOL0     C95742  -0.610   1.711   1.452 -0.3448  0.8279  0.4566
  710MOL0     C95743  -0.684   1.666   1.574  1.4660  0.5452 -1.0975
  710MOL0     C95744  -0.663   1.714   1.321  0.1237  0.4148 -0.5457
  710MOL0     C95745  -0.799   1.663   1.292  0.7296 -0.5894  0.3502
  710MOL0     O95746  -0.854   1.573   1.380 -0.0690 -0.6252 -0.6535
  710MOL0     C95747  -0.990   1.551   1.384 -0.1977 -0.5910 -0.5361
  710MOL0     C95748  -1.070   1.577   1.498  0.1458  0.2142 -0.3745
  710MOL0     C95749  -1.211   1.569   1.493 -0.3125 -0.2688  0.3084
  710MOL0     C95750  -1.275   1.524   1.377 -0.4703  0.5544  0.4052
  710MOL0     O95751  -1.411   1.531   1.368  0.8595 -0.1025  0.0598
  710MOL0     C95752  -1.482   1.532   1.238 -0.0012  0.6561 -0.2018
  710MOL0     C95753  -1.633   1.568   1.258  0.3699  1.6687  1.3476
  710MOL0     C95754  -1.701   1.465   1.351 -0.1029 -0.3989 -0.5623
  710MOL0     C95755  -1.848   1.514   1.377 -0.0768 -0.1459  0.0724
  710MOL0     C95756  -1.926   1.398   1.447  0.0717  0.0196  0.1398
  710MOL0     C95757  -2.032   1.456   1.546 -0.0171  0.2936 -0.1155
  710MOL0     C95758  -2.169   1.465   1.484  0.7940  1.0102 -0.8087
  710MOL0     C95759  -2.273   1.484   1.595 -0.2091  1.0327 -0.1628
  710MOL0    Cl95760  -2.411   1.577   1.520  0.2184 -0.3683 -0.0975
  710MOL0     C95761  -1.194   1.474   1.271  0.6976  0.8861  0.1550
  710MOL0     C95762  -1.057   1.480   1.279 -0.5259  0.4328 -0.3189
  710MOL0     O95763  -0.860   1.711   1.197  0.8613 -0.3365  0.6738
  710MOL0     C95764  -0.580   1.769   1.222 -0.0884 -0.7010  0.0810
  710MOL0     C95765  -0.453   1.832   1.246 -0.6432 -0.8235  0.4604
  710MOL0     N95766   0.274   1.843   1.788  0.3688  0.2157 -0.0886
  710MOL0     N95767   0.387   1.812   1.838  0.4367 -0.9234  0.3912
  710MOL0     C95768   1.603   1.494   1.838 -0.3473 -0.3129 -0.4128
  710MOL0     C95769   1.735   1.459   1.815  0.1746 -0.5095 -0.4990
  710MOL0     C95770   2.200   1.542   1.918  0.0902  0.0488  0.5110
  710MOL0     C95771   2.253   1.474   1.813  0.8316 -0.0655 -0.1507
  710MOL0     C95772   2.390   1.447   1.802 -0.2637 -0.0039 -0.3853
  710MOL0     C95773   2.483   1.501   1.881 -0.0148 -0.5017 -0.5730
  710MOL0     O95774   2.615   1.478   1.851 -0.4838  0.6910 -0.4426
  710MOL0     C95775   2.716   1.531   1.933 -0.5463  0.5566  0.0601
  710MOL0     C95776   2.852   1.514   1.867  0.4332  0.8615 -0.2291
  710MOL0     C95777   2.889   1.364   1.824 -0.1119 -0.7093 -0.1781
  710MOL0     C95778   2.921   1.279   1.943  0.4462 -0.9165  0.6719
  710MOL0     C95779   3.039   1.322   2.024 -0.3737 -0.2071  0.0168
  710MOL0     C95780   3.147   1.337   2.079 -0.6596  0.9638 -0.1019
  710MOL0     C95781   2.434   1.582   1.988 -0.0199 -0.7013  0.6933
  710MOL0     C95782   2.297   1.602   2.005  0.5270 -0.4548 -0.0452
  710MOL0     H95783   1.872   1.753   1.928 -1.7245  3.4860 -5.5136
  710MOL0     H95784   1.641   1.785   2.000  0.2566  0.6412 -2.5408
  710MOL0     H95785   1.415   1.709   1.748  2.8084 -3.6439  0.0054
  710MOL0     H95786   1.307   1.571   1.797  1.8705  0.5087 -3.5033
  710MOL0     H95787   1.225   1.696   1.984  0.4234 -1.7484 -0.2827
  710MOL0     H95788   1.306   1.841   1.914 -3.3891  1.8361  0.6739
  710MOL0     H95789   1.181   1.829   1.702 -2.3690 -2.3329 -1.8061
  710MOL0     H95790   1.082   1.701   1.780  1.1049 -0.7647  2.4217
  710MOL0     H95791   1.028   1.853   1.970 -1.1489 -3.5557 -1.3372
  710MOL0     H95792   1.096   1.985   1.874 -0.3251 -0.5345  0.6298
  710MOL0     H95793   0.932   1.927   1.703 -0.2950 -1.2552 -0.3772
  710MOL0     H95794   0.884   1.778   1.792 -0.8125 -0.1538 -0.8444
  710MOL0     H95795   0.804   1.907   1.981  0.4551  2.3655  1.4311
  710MOL0     H95796   0.844   2.057   1.916 -3.1584  0.9848 -1.1437
  710MOL0     H95797   0.595   1.984   1.901 -0.1239  1.7366 -1.0981
  710MOL0     H95798   0.660   2.049   1.750 -0.4768  1.8040  2.5397
  710MOL0     H95799   0.661   1.745   1.824  0.2801 -2.0666 -1.7944
  710MOL0     H95800   0.677   1.810   1.665 -2.1429 -2.2330 -0.1536
  710MOL0     H95801   0.462   1.900   1.523 -1.3888  1.8539 -0.6218
  710MOL0     H95802   0.158   2.022   1.574 -0.0138  0.5316 -1.9085
  710MOL0     H95803   0.195   1.899   1.454 -1.2338 -2.2330 -0.2274
  710MOL0     H95804   0.014   1.860   1.694 -0.5379  1.7619 -0.2562
  710MOL0     H95805   0.073   1.725   1.595 -0.1448  0.3667 -1.1610
  710MOL0     H95806  -0.028   1.831   1.389 -1.2577  1.1042 -1.6225
  710MOL0     H95807  -0.057   1.979   1.475 -1.7993 -0.2426 -0.9793
  710MOL0     H95808  -0.235   1.917   1.592 -0.5758  0.1312 -0.6114
  710MOL0     H95809  -0.216   1.744   1.563 -0.5283 -0.9605 -2.7083
  710MOL0     H95810  -0.454   1.743   1.581 -1.8379 -0.0096  0.6804
  710MOL0     H95811  -0.789   1.698   1.580  1.1667 -0.6248  2.3044
  710MOL0     H95812  -0.699   1.557   1.579 -1.8671  0.8992 -1.0377
  710MOL0     H95813  -0.630   1.694   1.665  2.5736  1.9667 -2.1572
  710MOL0     H95814  -1.029   1.606   1.594  1.3490 -1.2787 -0.3995
  710MOL0     H95815  -1.264   1.593   1.585 -1.9442 -0.5238 -0.5319
  710MOL0     H95816  -1.439   1.617   1.184  0.1285  1.2744  0.8488
  710MOL0     H95817  -1.465   1.439   1.184 -1.7512  0.6024 -0.7320
  710MOL0     H95818  -1.638   1.668   1.303 -0.9305  1.9652  0.6297
  710MOL0     H95819  -1.687   1.576   1.163 -2.3805 -1.6874  2.4329
  710MOL0     H95820  -1.655   1.463   1.450  0.4819  2.2225 -0.7067
  710MOL0     H95821  -1.702   1.367   1.303 -3.8752 -0.0307 -1.5994
  710MOL0     H95822  -1.851   1.615   1.418  2.8708  0.3670 -0.7288
  710MOL0     H95823  -1.900   1.536   1.283 -2.4787  0.5351  1.4936
  710MOL0     H95824  -1.847   1.338   1.493 -0.9401 -1.7906 -0.3635
  710MOL0     H95825  -1.982   1.328   1.384 -3.5042  0.0789  2.9179
  710MOL0     H95826  -2.033   1.392   1.635  0.3589  2.9471  1.9187
  710MOL0     H95827  -1.993   1.552   1.582 -2.0271  1.8940 -1.9390
  710MOL0     H95828  -2.182   1.370   1.430  0.1127  1.4375 -1.4241
  710MOL0     H95829  -2.175   1.546   1.410  1.5738  1.8090 -0.0222
  710MOL0     H95830  -2.219   1.539   1.672  2.7709 -1.4467 -0.2937
  710MOL0     H95831  -2.310   1.390   1.637 -0.1409 -0.5424 -3.3055
  710MOL0     H95832  -1.241   1.422   1.188 -0.3127 -1.8020  2.2365
  710MOL0     H95833  -1.005   1.445   1.190  1.3680  1.1658  0.4662
  710MOL0     H95834  -0.629   1.773   1.125  0.6996 -1.9395 -0.4079
  710MOL0     H95835  -0.405   1.889   1.168 -2.2038  0.2823  0.2539
  710MOL0     H95836   1.525   1.421   1.817 -0.0810 -1.0230  0.9585
  710MOL0     H95837   1.752   1.358   1.779  1.0794 -1.8632  3.2372
  710MOL0     H95838   2.193   1.437   1.731 -0.4628  4.2396 -1.3786
  710MOL0     H95839   2.423   1.383   1.721 -0.6608 -1.2175  0.3836
  710MOL0     H95840   2.704   1.637   1.955 -1.6262  0.3470  0.5598
  710MOL0     H95841   2.709   1.466   2.021  0.1458  0.7764  0.2839
  710MOL0     H95842   2.935   1.547   1.929  0.3412 -0.3042  0.5297
  710MOL0     H95843   2.862   1.584   1.783  1.7203  0.1419 -0.6851
  710MOL0     H95844   2.980   1.353   1.763  0.3631  0.0463  0.3802
  710MOL0     H95845   2.814   1.315   1.761  1.1696 -2.5937 -0.3104
  710MOL0     H95846   2.948   1.176   1.919  1.1583 -0.6123  0.1151
  710MOL0     H95847   2.833   1.276   2.008  0.1515 -1.5595  0.2446
  710MOL0     H95848   3.245   1.355   2.117 -0.3954  0.0592 -0.3410
  710MOL0     H95849   2.502   1.626   2.060  0.4770  1.6931 -1.1101
  710MOL0     H95850   2.264   1.660   2.090  0.6976 -0.8466  0.2944
  711MOL0     O95851   4.325   1.061   4.294  0.1043 -0.0991 -0.1675
  711MOL0     C95852   4.307   0.951   4.343 -0.7336  0.4984  0.1861
  711MOL0     O95853   4.190   0.905   4.383 -0.3837  0.1165  0.2312
  711MOL0     C95854   4.069   0.973   4.382 -0.2248  1.4651 -0.3775
  711MOL0     C95855   3.984   0.933   4.484  0.7758 -0.3434  0.2475
  711MOL0     C95856   3.850   0.989   4.486 -0.4920 -0.1921 -0.0019
  711MOL0     C95857   3.804   1.079   4.390 -0.4503  0.0797 -0.2354
  711MOL0     O95858   3.692   1.150   4.418 -0.4113 -0.0305  0.3669
  711MOL0     C95859   3.608   1.199   4.316  0.5942 -0.0969  0.0158
  711MOL0     C95860   3.533   1.321   4.377 -0.0712  0.1697 -0.0187
  711MOL0     C95861   3.472   1.289   4.514  0.2458  0.2350  0.5094
  711MOL0     C95862   3.332   1.339   4.500  0.5881  0.1735 -0.1924
  711MOL0     C95863   3.243   1.298   4.616 -0.5568 -0.3644  0.4288
  711MOL0     C95864   3.097   1.348   4.587 -0.4303  0.7721 -0.9875
  711MOL0     C95865   2.995   1.300   4.690 -0.2590  0.2467  0.8414
  711MOL0     C95866   2.950   1.152   4.687 -0.2332  0.0348 -0.6586
  711MOL0     N95867   2.871   1.132   4.814 -1.0587  0.2948 -0.5352
  711MOL0     C95868   2.742   1.164   4.826 -0.0619  0.0990 -0.2160
  711MOL0     C95869   2.703   1.116   4.951 -0.5166 -0.4023  0.3830
  711MOL0     C95870   2.571   1.123   5.019 -0.2411 -0.2680 -0.9804
  711MOL0     C95871   2.457   1.088   4.913  0.7818  0.3961 -0.3271
  711MOL0     C95872   2.315   1.080   4.956  0.2975 -0.0030 -0.5677
  711MOL0     C95873   2.268   0.969   5.056 -0.3849 -0.0811  0.1111
  711MOL0     O95874   2.267   0.842   4.988 -0.5009 -0.3803 -0.0361
  711MOL0     C95875   2.148   0.791   4.930  0.5187 -0.1690 -0.5846
  711MOL0     C95876   2.032   0.870   4.899 -0.6647 -0.1883  0.1464
  711MOL0     C95877   1.908   0.818   4.850 -0.0794 -0.4752 -0.2642
  711MOL0     C95878   1.800   0.917   4.811  0.0836 -0.6202  0.0393
  711MOL0     C95879   1.901   0.672   4.829 -0.0120  0.0959 -0.0304
  711MOL0     C95880   1.778   0.604   4.786  0.2489  0.0799  0.2709
  711MOL0     O95881   1.785   0.477   4.751 -0.5404  0.5147 -0.2951
  711MOL0     C95882   1.714   0.405   4.660 -0.1022  0.5721 -1.0170
  711MOL0     C95883   1.602   0.454   4.590 -0.6558 -0.0894  1.0582
  711MOL0     C95884   1.528   0.374   4.501  0.3664  0.3958 -0.2087
  711MOL0     C95885   1.565   0.232   4.489  0.8911  0.5298 -0.3513
  711MOL0     O95886   1.499   0.148   4.408 -0.2603  0.6608  0.0780
  711MOL0     C95887   1.374   0.193   4.351  0.1693  0.7879  0.0806
  711MOL0     C95888   1.338   0.092   4.235  0.4414  0.0274 -0.0563
  711MOL0     C95889   1.351  -0.058   4.278  0.4559  0.0921  0.2213
  711MOL0     C95890   1.464  -0.125   4.201 -0.6628 -0.3350  0.7983
  711MOL0     C95891   1.606  -0.093   4.255 -0.0607 -0.4108 -0.7552
  711MOL0     C95892   1.711  -0.206   4.235  0.1414  0.3629 -0.0814
  711MOL0     C95893   1.845  -0.169   4.291 -0.1810  0.2835 -0.7274
  711MOL0     C95894   1.852  -0.183   4.443  0.3788  0.1862 -0.0313
  711MOL0    Cl95895   2.026  -0.131   4.480  0.3990  0.4297  0.2338
  711MOL0     C95896   1.677   0.188   4.557 -0.3053 -0.0680 -0.1168
  711MOL0     C95897   1.754   0.272   4.642 -0.4613 -0.0962  0.2128
  711MOL0     O95898   1.674   0.662   4.822 -0.1401  0.5650 -0.7024
  711MOL0     C95899   2.024   0.593   4.850  0.1462  0.3824  0.2388
  711MOL0     C95900   2.140   0.651   4.896 -0.5641 -0.7554 -0.0978
  711MOL0     N95901   2.819   1.061   5.010  1.2174 -0.9581  0.2919
  711MOL0     N95902   2.916   1.087   4.928  0.1578  0.2469 -0.3624
  711MOL0     C95903   3.888   1.093   4.274 -0.0102  0.5932  0.3588
  711MOL0     C95904   4.021   1.046   4.276 -0.0563 -0.2952 -0.7996
  711MOL0     C95905   4.421   0.849   4.343 -0.6445  1.0512  0.0849
  711MOL0     C95906   4.551   0.893   4.305  0.2695  0.9311 -0.6404
  711MOL0     C95907   4.650   0.798   4.319  0.3796 -0.2487 -0.3908
  711MOL0     C95908   4.630   0.667   4.364  0.3625 -0.4839 -0.7646
  711MOL0     O95909   4.747   0.601   4.382 -0.3781 -0.0255 -0.5754
  711MOL0     C95910   4.740   0.500   4.489  0.3561 -0.3098  0.2379
  711MOL0     C95911   4.887   0.452   4.508 -0.2039 -0.3706 -0.0678
  711MOL0     C95912   4.968   0.404   4.378  0.6268  0.0643 -0.8842
  711MOL0     C95913   5.118   0.391   4.417 -0.2934 -0.0963 -0.1101
  711MOL0     C95914   5.168   0.346   4.288  0.8763 -0.6137 -0.4944
  711MOL0     C95915   5.221   0.318   4.179  0.8454 -0.2887 -0.5253
  711MOL0     C95916   4.505   0.615   4.390 -0.3549 -0.7244 -0.9441
  711MOL0     C95917   4.400   0.717   4.389  0.4118  0.4205  0.7161
  711MOL0     H95918   4.015   0.874   4.569 -1.8051 -0.5280  1.1502
  711MOL0     H95919   3.794   0.960   4.574 -0.6723 -0.8087 -0.3107
  711MOL0     H95920   3.670   1.220   4.228 -0.3504 -2.1130 -1.2106
  711MOL0     H95921   3.539   1.119   4.287  1.7453 -3.2922  4.8323
  711MOL0     H95922   3.604   1.403   4.393  0.7622 -0.8407  1.7265
  711MOL0     H95923   3.462   1.359   4.304 -0.7402 -0.4475  0.2995
  711MOL0     H95924   3.470   1.183   4.541 -3.1502 -0.4205 -1.6371
  711MOL0     H95925   3.528   1.351   4.585  1.7301 -0.3721 -0.1085
  711MOL0     H95926   3.327   1.448   4.508 -2.1481  0.0432  1.0259
  711MOL0     H95927   3.283   1.308   4.407 -0.4470 -0.7827  0.6503
  711MOL0     H95928   3.244   1.189   4.621 -0.4387 -0.3844  0.0001
  711MOL0     H95929   3.275   1.332   4.714 -2.0673 -0.9502  1.1625
  711MOL0     H95930   3.103   1.457   4.596 -0.5583  0.6973  0.1724
  711MOL0     H95931   3.062   1.330   4.485 -2.1833  1.2295 -0.4965
  711MOL0     H95932   3.037   1.326   4.788 -2.1223  0.1297  1.7204
  711MOL0     H95933   2.899   1.352   4.679  0.0508  0.7341  0.3776
  711MOL0     H95934   3.032   1.079   4.678 -2.4885 -2.7764  0.1279
  711MOL0     H95935   2.891   1.133   4.597  2.2385 -2.6342 -1.8800
  711MOL0     H95936   2.695   1.219   4.746  0.6391  1.7134  0.4438
  711MOL0     H95937   2.575   1.047   5.098 -1.0443 -1.1419 -1.7560
  711MOL0     H95938   2.566   1.224   5.059  3.0022  0.5774 -2.3322
  711MOL0     H95939   2.479   0.989   4.871  0.8175  0.5775 -0.7433
  711MOL0     H95940   2.463   1.154   4.826 -1.0843 -0.7034 -1.3627
  711MOL0     H95941   2.254   1.074   4.865 -1.2379  0.3585  0.4077
  711MOL0     H95942   2.290   1.179   4.995  1.3648  0.5324 -1.1740
  711MOL0     H95943   2.170   0.994   5.098 -0.0978  0.3306  0.5475
  711MOL0     H95944   2.331   0.974   5.145  3.3523 -1.8583 -2.2159
  711MOL0     H95945   2.039   0.973   4.933  0.8652  0.5636 -2.2087
  711MOL0     H95946   1.723   0.941   4.886  0.0700 -0.2149 -0.1035
  711MOL0     H95947   1.851   1.011   4.794  2.7349 -1.5353  2.2661
  711MOL0     H95948   1.735   0.893   4.726 -2.4055  0.1267  1.6050
  711MOL0     H95949   1.579   0.557   4.614 -2.0882 -0.7739  2.8799
  711MOL0     H95950   1.437   0.411   4.454 -0.0334 -1.2495 -0.8059
  711MOL0     H95951   1.302   0.190   4.433  1.9543  1.9013  1.7410
  711MOL0     H95952   1.383   0.295   4.314  0.1131  3.0747  5.5451
  711MOL0     H95953   1.233   0.115   4.212 -0.4214 -0.7488  2.6032
  711MOL0     H95954   1.392   0.102   4.141 -3.7195  0.4381 -2.6680
  711MOL0     H95955   1.264  -0.116   4.245  1.9391 -1.5636 -0.9385
  711MOL0     H95956   1.372  -0.075   4.384  1.4149  0.9904  0.1884
  711MOL0     H95957   1.451  -0.232   4.218  0.0278 -0.0962  3.2708
  711MOL0     H95958   1.463  -0.103   4.094 -1.5854  0.5651  0.9755
  711MOL0     H95959   1.603  -0.080   4.363 -1.9763 -0.8320 -0.7270
  711MOL0     H95960   1.658  -0.009   4.209  0.1875  0.0604  0.3681
  711MOL0     H95961   1.681  -0.301   4.281  0.7229 -0.6090 -1.6060
  711MOL0     H95962   1.733  -0.220   4.128  0.4513  4.1542 -0.6512
  711MOL0     H95963   1.871  -0.068   4.257 -0.5285 -0.0546 -2.0553
  711MOL0     H95964   1.918  -0.234   4.242 -0.1112 -1.9314  2.0434
  711MOL0     H95965   1.838  -0.283   4.484 -1.8461  1.3778  2.4525
  711MOL0     H95966   1.786  -0.112   4.494  1.2484  3.1596 -2.7377
  711MOL0     H95967   1.700   0.083   4.543 -0.7522 -0.2640  0.5465
  711MOL0     H95968   1.843   0.231   4.689 -0.6293  0.0658  0.6713
  711MOL0     H95969   2.033   0.487   4.827  2.4476  1.1030 -2.9112
  711MOL0     H95970   2.228   0.591   4.918  0.1276  0.0871 -0.4885
  711MOL0     H95971   3.867   1.149   4.183  1.6319  2.2996  0.9685
  711MOL0     H95972   4.084   1.061   4.189  2.6976 -1.0004  0.9388
  711MOL0     H95973   4.573   0.986   4.254  3.7117  1.1260  0.9344
  711MOL0     H95974   4.755   0.822   4.304  0.7750 -2.7446 -2.3265
  711MOL0     H95975   4.700   0.527   4.587 -0.3142 -0.8931  0.1311
  711MOL0     H95976   4.689   0.407   4.463  1.4754 -0.7968 -0.2810
  711MOL0     H95977   4.891   0.373   4.585 -0.5005  2.4338  3.0734
  711MOL0     H95978   4.954   0.529   4.548  2.2633 -3.2505  1.8010
  711MOL0     H95979   4.953   0.481   4.301  0.3182  0.2501 -0.6425
  711MOL0     H95980   4.918   0.312   4.350  0.6945 -0.2566  0.0108
  711MOL0     H95981   5.133   0.311   4.490 -0.0700  0.8668  0.9357
  711MOL0     H95982   5.155   0.490   4.445  0.9116 -0.5856  0.1023
  711MOL0     H95983   5.285   0.298   4.095  1.3213 -0.8933 -0.0251
  711MOL0     H95984   4.506   0.509   4.416  2.6092 -0.6867 -0.5071
  711MOL0     H95985   4.297   0.692   4.412 -0.3287  0.1038 -2.4194
  712MOL0     O95986  10.328   8.661   3.821  0.7533 -0.1262 -0.2755
  712MOL0     C95987  10.375   8.569   3.752 -0.8370  0.4999 -0.0794
  712MOL0     O95988  10.317   8.496   3.653 -0.1813  0.0842  0.9750
  712MOL0     C95989  10.191   8.536   3.602 -0.2416 -0.1385 -0.1565
  712MOL0     C95990  10.110   8.445   3.536 -0.1569 -0.8934  0.4316
  712MOL0     C95991   9.976   8.481   3.501 -0.1713  0.4221 -0.1994
  712MOL0     C95992   9.921   8.602   3.521 -0.5210 -0.1311  0.6033
  712MOL0     O95993   9.791   8.620   3.483 -0.3119 -0.0998 -0.0194
  712MOL0     C95994   9.721   8.733   3.535 -0.3455  0.7292 -0.0022
  712MOL0     C95995   9.580   8.725   3.493 -0.0214 -0.0980  0.1190
  712MOL0     C95996   9.513   8.855   3.513 -0.3775  0.3019  0.2583
  712MOL0     C95997   9.384   8.860   3.440  0.7032  0.1820 -0.0471
  712MOL0     C95998   9.352   9.003   3.411  0.1784 -0.0939  1.1554
  712MOL0     C95999   9.209   9.011   3.365 -0.2576  0.4891 -0.3984
  712MOL0     C96000   9.173   9.158   3.350 -0.1894  0.4224 -0.4292
  712MOL0     C96001   9.094   9.203   3.470 -0.0645  0.0874 -0.4184
  712MOL0     N96002   9.037   9.337   3.441  0.9531 -0.5452 -0.3605
  712MOL0     C96003   8.912   9.362   3.389  0.2711  0.3413 -0.0373
  712MOL0     C96004   8.910   9.494   3.384 -0.0845 -0.2651 -0.1450
  712MOL0     C96005   8.799   9.586   3.350 -0.4533 -0.2279  0.1525
  712MOL0     C96006   8.674   9.526   3.288  0.5739 -0.2978  1.0247
  712MOL0     C96007   8.587   9.636   3.219  0.0648  1.0501  0.4058
  712MOL0     C96008   8.519   9.729   3.325 -0.0999  0.3342  0.8325
  712MOL0     O96009   8.455   9.835   3.258 -0.3660 -0.3323  0.2508
  712MOL0     C96010   8.316   9.829   3.256 -0.2441  1.0099 -1.1369
  712MOL0     C96011   8.233   9.711   3.251 -0.3974  0.3494  0.2010
  712MOL0     C96012   8.096   9.717   3.214  0.2401 -1.2619 -0.8999
  712MOL0     C96013   8.019   9.587   3.180  0.1186 -0.2289 -0.1888
  712MOL0     C96014   8.034   9.844   3.199 -0.4378  0.8525 -0.0018
  712MOL0     C96015   7.885   9.871   3.192 -0.1686  0.3898  0.4946
  712MOL0     O96016   7.842  10.001   3.200 -0.2959 -0.0752 -0.3215
  712MOL0     C96017   7.712  10.024   3.179  0.9883 -0.8116  0.5356
  712MOL0     C96018   7.642  10.078   3.290  0.1317  0.6257  0.1148
  712MOL0     C96019   7.502  10.109   3.293 -0.1669  0.8874 -0.5434
  712MOL0     C96020   7.426  10.078   3.183 -0.7795 -0.5683  0.0359
  712MOL0     O96021   7.296  10.105   3.186 -0.4414  0.0372 -0.0622
  712MOL0     C96022   7.208   9.990   3.186 -0.3352 -0.5061 -0.4891
  712MOL0     C96023   7.088  10.030   3.269  0.5170  0.4980 -0.1599
  712MOL0     C96024   6.986   9.920   3.283 -0.5731  0.2343  0.7943
  712MOL0     C96025   6.869   9.977   3.373 -0.2587 -0.2017 -0.8867
  712MOL0     C96026   6.744   9.884   3.366 -0.9648  0.0844  0.6315
  712MOL0     C96027   6.616   9.968   3.391 -0.1874 -0.2908  0.7860
  712MOL0     C96028   6.497   9.877   3.367 -0.3227 -1.0788  0.2570
  712MOL0     C96029   6.369   9.972   3.360 -0.4350  0.1005 -0.5582
  712MOL0    Cl96030   6.235   9.850   3.384  0.2347 -0.0291  0.2005
  712MOL0     C96031   7.491  10.026   3.061 -1.8652  0.7660 -0.2417
  712MOL0     C96032   7.632   9.997   3.065 -0.5490 -0.4621  0.0593
  712MOL0     O96033   7.810   9.781   3.194  0.2191 -0.2032  0.6461
  712MOL0     C96034   8.116   9.958   3.221  0.3300  0.3018  0.2645
  712MOL0     C96035   8.249   9.946   3.245 -0.1244 -0.6646  0.7264
  712MOL0     N96036   9.029   9.549   3.443 -0.8623 -0.0797 -0.8676
  712MOL0     N96037   9.105   9.450   3.455  0.3697  0.2577 -0.7134
  712MOL0     C96038  10.012   8.702   3.563  0.4666 -0.4767 -0.6667
  712MOL0     C96039  10.142   8.670   3.608 -0.7441 -0.2620  1.0792
  712MOL0     C96040  10.521   8.537   3.776 -0.0016 -0.4805  0.0341
  712MOL0     C96041  10.596   8.595   3.885 -0.0535  0.0615  0.9010
  712MOL0     C96042  10.738   8.575   3.886 -0.1545 -0.3918  0.7859
  712MOL0     C96043  10.801   8.488   3.800  0.1516  0.1879  0.2144
  712MOL0     O96044  10.938   8.484   3.817  0.5992 -0.9462  0.0642
  712MOL0     C96045  11.010   8.363   3.781 -0.4342  0.0807 -0.4940
  712MOL0     C96046  11.163   8.385   3.795 -0.7636  0.0729 -0.2140
  712MOL0     C96047  11.213   8.463   3.920 -0.1928 -0.2194  0.3352
  712MOL0     C96048  11.168   8.421   4.062  0.6379 -0.0033  0.6243
  712MOL0     C96049  11.162   8.273   4.082 -0.5192 -0.1998  0.5910
  712MOL0     C96050  11.181   8.152   4.081 -0.5258  0.1065  0.3724
  712MOL0     C96051  10.728   8.421   3.696  0.5535  0.0740 -0.8515
  712MOL0     C96052  10.587   8.451   3.685  0.2056 -0.4019  0.4032
  712MOL0     H96053  10.127   8.339   3.523  0.9757 -0.4683 -2.2701
  712MOL0     H96054   9.912   8.400   3.469 -1.7278  1.4976  0.0500
  712MOL0     H96055   9.730   8.745   3.643 -1.2468 -1.3808  0.3649
  712MOL0     H96056   9.759   8.822   3.484  2.1654 -0.0951  0.2752
  712MOL0     H96057   9.576   8.692   3.389 -2.2811  1.8209 -0.5155
  712MOL0     H96058   9.529   8.645   3.548 -1.3541  0.2419 -0.5649
  712MOL0     H96059   9.493   8.882   3.617 -0.3398  4.6723 -0.7068
  712MOL0     H96060   9.586   8.928   3.479  1.5107 -1.4329  0.4267
  712MOL0     H96061   9.396   8.810   3.344  0.3194 -1.0472  0.5267
  712MOL0     H96062   9.309   8.809   3.501 -0.3762 -1.6745 -2.7586
  712MOL0     H96063   9.366   9.065   3.500  4.1402 -2.3823  2.4099
  712MOL0     H96064   9.419   9.032   3.330  0.9842  0.2627  1.9301
  712MOL0     H96065   9.210   8.952   3.273  3.1686 -3.1712  1.6569
  712MOL0     H96066   9.146   8.967   3.442  0.9065 -2.9899 -1.2456
  712MOL0     H96067   9.268   9.210   3.339  0.2776 -0.1644  0.6739
  712MOL0     H96068   9.119   9.159   3.255  0.8113  0.0686 -1.0111
  712MOL0     H96069   9.167   9.203   3.550  1.5067 -1.2401 -1.7906
  712MOL0     H96070   9.019   9.127   3.493 -0.6737  0.8465  0.1542
  712MOL0     H96071   8.841   9.285   3.364  0.4855 -0.3953  1.5412
  712MOL0     H96072   8.780   9.651   3.436 -0.4986  1.2413 -0.9242
  712MOL0     H96073   8.850   9.642   3.271 -0.3590 -1.1983 -0.4953
  712MOL0     H96074   8.610   9.472   3.358 -1.0458  1.7968  1.2482
  712MOL0     H96075   8.708   9.467   3.202  1.8271 -2.2674  2.7923
  712MOL0     H96076   8.513   9.577   3.163  2.1534  0.1109 -1.5170
  712MOL0     H96077   8.649   9.689   3.147  2.6572 -0.9209  1.0200
  712MOL0     H96078   8.598   9.777   3.384 -0.5102  1.6810  0.3336
  712MOL0     H96079   8.450   9.685   3.397 -1.1922 -0.7449 -0.8166
  712MOL0     H96080   8.272   9.610   3.259 -0.4643  0.2760 -0.3661
  712MOL0     H96081   8.070   9.492   3.199 -2.0191 -0.8738  3.0081
  712MOL0     H96082   7.940   9.574   3.254  1.0298 -0.2621  0.7925
  712MOL0     H96083   7.983   9.578   3.077 -0.8754 -3.3562  0.3400
  712MOL0     H96084   7.699  10.102   3.380 -0.2904  0.4950  0.4196
  712MOL0     H96085   7.452  10.151   3.380 -2.5094 -0.4811 -1.1726
  712MOL0     H96086   7.180   9.969   3.082 -0.0516 -0.1148 -0.6455
  712MOL0     H96087   7.258   9.897   3.217  0.1518  0.2804  1.1491
  712MOL0     H96088   7.130  10.057   3.366  1.3363 -1.5637  0.1222
  712MOL0     H96089   7.044  10.121   3.228 -0.0399  0.6231  0.7052
  712MOL0     H96090   7.031   9.834   3.333 -2.3781 -2.1378 -1.3736
  712MOL0     H96091   6.954   9.895   3.181  1.0051 -0.6535  0.4672
  712MOL0     H96092   6.911   9.976   3.473  1.9906 -2.0974 -1.7600
  712MOL0     H96093   6.851  10.082   3.349  4.4326  1.4153  1.5354
  712MOL0     H96094   6.743   9.814   3.450 -0.7172 -0.7096 -0.0165
  712MOL0     H96095   6.747   9.835   3.268 -0.3380 -2.1259  1.6866
  712MOL0     H96096   6.615  10.001   3.495  0.7673  1.2669  0.3255
  712MOL0     H96097   6.603  10.059   3.333 -2.0468  0.9160  2.9535
  712MOL0     H96098   6.491   9.804   3.448  2.6634 -0.3719  1.2327
  712MOL0     H96099   6.499   9.824   3.271  2.9799  1.2343 -1.1347
  712MOL0     H96100   6.366  10.013   3.258  0.9032  1.5213 -0.0623
  712MOL0     H96101   6.370  10.064   3.420 -0.8785  1.0243 -1.9053
  712MOL0     H96102   7.430   9.986   2.980 -1.7732  0.1238  0.0059
  712MOL0     H96103   7.679   9.965   2.972 -1.9471 -4.0387  0.4179
  712MOL0     H96104   8.088  10.062   3.206  1.5946  0.3893 -1.8271
  712MOL0     H96105   8.308  10.036   3.231 -1.1979 -0.0825 -0.2543
  712MOL0     H96106   9.975   8.799   3.595  1.1983 -0.3019 -0.3350
  712MOL0     H96107  10.201   8.751   3.651 -2.7078  0.6681  2.1445
  712MOL0     H96108  10.540   8.664   3.948 -1.9755 -1.6904  1.2070
  712MOL0     H96109  10.792   8.620   3.969 -1.4434 -0.9546  1.9789
  712MOL0     H96110  10.985   8.282   3.850  0.2112 -0.1077 -0.4805
  712MOL0     H96111  10.982   8.341   3.677 -0.3415 -1.7694 -0.1691
  712MOL0     H96112  11.197   8.456   3.719  0.7636 -0.4504 -0.0429
  712MOL0     H96113  11.222   8.296   3.776  1.1386  1.3667 -0.6299
  712MOL0     H96114  11.187   8.569   3.912  0.4651  0.4325  4.5379
  712MOL0     H96115  11.322   8.470   3.927 -0.1426 -0.8581  0.2783
  712MOL0     H96116  11.077   8.474   4.092  1.6002  2.3218 -0.3310
  712MOL0     H96117  11.241   8.463   4.131  0.1322  1.2102  0.4489
  712MOL0     H96118  11.193   8.046   4.077 -1.0621  0.0309  0.6999
  712MOL0     H96119  10.783   8.356   3.628  5.0637  0.4661  2.0139
  712MOL0     H96120  10.531   8.404   3.605  0.6795 -0.0072 -0.1767
  713MOL0     O96121   0.952  10.907   2.113  0.9401  0.1110 -0.1791
  713MOL0     C96122   1.044  10.877   2.035 -0.0184 -0.3142 -0.3608
  713MOL0     O96123   1.042  10.884   1.896  0.1975  0.1256  0.0873
  713MOL0     C96124   0.930  10.931   1.818  0.2408  0.2751  0.5696
  713MOL0     C96125   0.792  10.933   1.854 -0.5237  0.1788  0.6386
  713MOL0     C96126   0.701  10.975   1.762  0.0705  0.1512  0.0313
  713MOL0     C96127   0.728  11.040   1.645  0.1721 -0.1583  0.6767
  713MOL0     O96128   0.639  11.102   1.565 -0.3949 -0.0110  0.0483
  713MOL0     C96129   0.610  11.242   1.604 -0.0658  0.5952  0.1906
  713MOL0     C96130   0.482  11.270   1.690  0.5930 -0.3253  0.1317
  713MOL0     C96131   0.354  11.231   1.625  0.5343  0.1715  0.2598
  713MOL0     C96132   0.303  11.323   1.506  0.2149 -0.2695  0.1931
  713MOL0     C96133   0.177  11.270   1.424  0.5276  0.1623  0.4551
  713MOL0     C96134   0.056  11.237   1.508 -0.0172  0.1844  0.3984
  713MOL0     C96135  -0.058  11.203   1.413  0.8719 -0.2071 -0.2884
  713MOL0     C96136  -0.167  11.104   1.465  0.4180 -0.3503  0.5006
  713MOL0     N96137  -0.239  11.159   1.577 -0.0360 -0.3967  0.5276
  713MOL0     C96138  -0.323  11.270   1.574 -0.1630  0.1330 -0.0794
  713MOL0     C96139  -0.354  11.303   1.702 -0.5806 -0.0680 -0.6515
  713MOL0     C96140  -0.440  11.417   1.758 -0.4048  1.0664 -0.8749
  713MOL0     C96141  -0.586  11.395   1.732 -0.4175 -0.3072  0.5879
  713MOL0     C96142  -0.667  11.527   1.760  0.7815 -1.2990  0.2866
  713MOL0     C96143  -0.817  11.518   1.744 -0.1447 -0.4172  0.1097
  713MOL0     O96144  -0.842  11.456   1.613  0.8424  0.5432  0.3311
  713MOL0     C96145  -0.968  11.453   1.570 -0.0778 -0.3568  0.0633
  713MOL0     C96146  -1.000  11.433   1.428 -0.3757  0.9168  0.1362
  713MOL0     C96147  -1.123  11.389   1.384  0.0573  0.4718 -0.2222
  713MOL0     C96148  -1.132  11.339   1.246  0.6146  0.1875 -0.3188
  713MOL0     C96149  -1.237  11.417   1.465  0.1415 -0.6391  0.1396
  713MOL0     C96150  -1.382  11.405   1.422 -0.1704  0.7976  0.5843
  713MOL0     O96151  -1.478  11.436   1.514  0.0326  0.0923 -0.3645
  713MOL0     C96152  -1.610  11.445   1.478 -0.5931  0.2752  0.1776
  713MOL0     C96153  -1.699  11.342   1.506  0.9568  0.2283  0.8723
  713MOL0     C96154  -1.840  11.355   1.477 -0.1189 -0.3845 -0.2113
  713MOL0     C96155  -1.890  11.472   1.418  0.8898 -0.2385  0.1350
  713MOL0     O96156  -2.025  11.510   1.396 -0.3721 -0.3828 -0.1325
  713MOL0     C96157  -2.134  11.416   1.410 -0.0410 -0.8454 -0.3503
  713MOL0     C96158  -2.184  11.378   1.277  0.9134  0.0278  0.0501
  713MOL0     C96159  -2.263  11.487   1.201 -0.9165 -0.1925  0.0037
  713MOL0     C96160  -2.303  11.432   1.063  0.8031 -0.2010 -0.1556
  713MOL0     C96161  -2.352  11.547   0.975 -0.8198 -0.2977 -1.5692
  713MOL0     C96162  -2.370  11.496   0.834 -0.1498  0.6431 -0.0824
  713MOL0     C96163  -2.420  11.616   0.743 -0.6210 -0.2373  0.0141
  713MOL0     C96164  -2.436  11.562   0.594  0.7349  0.4127  0.2858
  713MOL0    Cl96165  -2.288  11.596   0.512  0.5404 -0.2644  0.1793
  713MOL0     C96166  -1.791  11.572   1.392 -0.7887 -0.3609 -0.1318
  713MOL0     C96167  -1.653  11.562   1.421  0.5310 -0.4523  0.1870
  713MOL0     O96168  -1.409  11.364   1.315  0.2767 -0.5427  0.9714
  713MOL0     C96169  -1.213  11.450   1.601 -0.0430 -0.0866  0.3415
  713MOL0     C96170  -1.083  11.459   1.652 -0.0860  0.5516  0.0453
  713MOL0     N96171  -0.279  11.216   1.788  0.0602  0.1213 -0.3095
  713MOL0     N96172  -0.218  11.133   1.710 -0.2852 -0.8280 -0.6140
  713MOL0     C96173   0.856  11.028   1.602 -0.7047 -0.6105 -0.0897
  713MOL0     C96174   0.954  10.981   1.686 -0.5416  0.3010 -0.2227
  713MOL0     C96175   1.165  10.831   2.097 -0.4001 -0.3391  0.1708
  713MOL0     C96176   1.175  10.738   2.202  0.0704 -0.6679  0.5862
  713MOL0     C96177   1.298  10.679   2.226  0.6148  0.3411  0.4841
  713MOL0     C96178   1.413  10.723   2.168  0.5639  0.2295  0.3379
  713MOL0     O96179   1.538  10.670   2.207  0.9203 -0.6146 -0.3672
  713MOL0     C96180   1.659  10.718   2.156  0.1868 -1.0166  0.0239
  713MOL0     C96181   1.696  10.856   2.225  0.5345  0.4066 -0.5106
  713MOL0     C96182   1.826  10.924   2.165  0.6934  0.2340  1.2078
  713MOL0     C96183   1.941  10.830   2.170 -0.0879  0.6724  0.7492
  713MOL0     C96184   2.067  10.906   2.136 -0.0164 -0.7913  1.0276
  713MOL0     C96185   2.158  10.976   2.105  0.0217 -0.4590 -0.1807
  713MOL0     C96186   1.412  10.824   2.068 -0.0101 -0.4634  0.1814
  713MOL0     C96187   1.285  10.873   2.039  0.3458  0.2067  0.4725
  713MOL0     H96188   0.770  10.893   1.952 -0.9885 -1.0329  0.0567
  713MOL0     H96189   0.602  10.957   1.802  0.1557 -0.9601 -0.2128
  713MOL0     H96190   0.697  11.282   1.657  1.7129  0.9641 -2.7981
  713MOL0     H96191   0.607  11.293   1.508 -0.1598 -1.3839 -0.9058
  713MOL0     H96192   0.489  11.227   1.790  1.6058 -0.2376  0.1099
  713MOL0     H96193   0.470  11.378   1.703 -2.0439 -0.6961  1.5520
  713MOL0     H96194   0.361  11.125   1.598  0.8849  0.0653  0.7458
  713MOL0     H96195   0.275  11.234   1.701  1.0086 -0.7823  0.8053
  713MOL0     H96196   0.287  11.423   1.548 -0.0682 -1.0282  1.9993
  713MOL0     H96197   0.388  11.322   1.437 -2.5786 -2.8320 -3.5911
  713MOL0     H96198   0.142  11.340   1.348  2.2882 -0.2636 -0.8233
  713MOL0     H96199   0.201  11.171   1.384  0.5938 -0.8830  2.8808
  713MOL0     H96200   0.073  11.160   1.583 -0.5199  0.1688  0.5024
  713MOL0     H96201   0.034  11.328   1.566  0.1976  0.1471  0.5390
  713MOL0     H96202  -0.107  11.298   1.394  0.3593 -0.2990  0.5083
  713MOL0     H96203  -0.015  11.160   1.322 -0.0069 -0.9010 -0.3896
  713MOL0     H96204  -0.124  11.006   1.485  1.1894 -0.1340 -0.0494
  713MOL0     H96205  -0.247  11.086   1.393 -0.8025 -2.0761  2.1837
  713MOL0     H96206  -0.352  11.311   1.478  1.9251 -0.3320 -0.9775
  713MOL0     H96207  -0.434  11.423   1.867 -0.4606 -0.9487 -0.7192
  713MOL0     H96208  -0.412  11.511   1.710 -2.1382  1.0432 -2.0209
  713MOL0     H96209  -0.630  11.316   1.794 -1.1854 -0.3778 -0.0264
  713MOL0     H96210  -0.602  11.359   1.629 -0.7356  1.2793  0.0536
  713MOL0     H96211  -0.638  11.606   1.690 -0.4033 -0.7603  0.3821
  713MOL0     H96212  -0.659  11.564   1.863 -1.7331  0.8618 -0.1870
  713MOL0     H96213  -0.871  11.612   1.754  1.3414  0.9131 -2.9159
  713MOL0     H96214  -0.854  11.448   1.819 -0.6562  0.9639  1.1969
  713MOL0     H96215  -0.910  11.423   1.369  0.8859  1.2460  1.9042
  713MOL0     H96216  -1.197  11.401   1.182 -0.8596 -2.0892 -1.1562
  713MOL0     H96217  -1.033  11.346   1.199  1.0784  1.3286  0.7848
  713MOL0     H96218  -1.170  11.238   1.230  0.4937  0.1621  0.1218
  713MOL0     H96219  -1.666  11.250   1.554  1.7483  0.3257  0.5402
  713MOL0     H96220  -1.905  11.271   1.500 -1.1194  0.0252 -1.4323
  713MOL0     H96221  -2.117  11.331   1.476 -0.9575 -0.4088  0.4703
  713MOL0     H96222  -2.217  11.466   1.461 -0.1660 -2.7233  1.4259
  713MOL0     H96223  -2.094  11.344   1.225  0.4909  1.8634 -2.0621
  713MOL0     H96224  -2.248  11.292   1.297  0.2155 -0.6664 -4.2589
  713MOL0     H96225  -2.197  11.574   1.195 -0.6849 -0.3831 -0.2572
  713MOL0     H96226  -2.353  11.521   1.252 -0.3087 -0.0628  1.0069
  713MOL0     H96227  -2.216  11.375   1.030  2.2438  0.1358  2.7166
  713MOL0     H96228  -2.394  11.373   1.077  0.4893  0.5236  1.0162
  713MOL0     H96229  -2.271  11.621   0.971  0.6468 -1.8771 -1.8241
  713MOL0     H96230  -2.443  11.593   1.016 -0.2770 -1.0539  0.6162
  713MOL0     H96231  -2.277  11.451   0.798 -0.9628  1.3239 -3.3262
  713MOL0     H96232  -2.442  11.415   0.822 -1.2604  1.6835 -0.5832
  713MOL0     H96233  -2.360  11.707   0.756 -0.4480 -0.5651  1.8298
  713MOL0     H96234  -2.517  11.637   0.790 -0.7262 -1.0897  0.2024
  713MOL0     H96235  -2.515  11.625   0.552  1.6001  0.3314 -1.5281
  713MOL0     H96236  -2.459  11.456   0.583  1.6392  0.2222  0.1643
  713MOL0     H96237  -1.830  11.660   1.341  0.3249  0.1227 -0.1629
  713MOL0     H96238  -1.581  11.642   1.404 -0.3857  0.3096 -0.2471
  713MOL0     H96239  -1.291  11.459   1.675  1.3228 -0.6788  1.9206
  713MOL0     H96240  -1.074  11.480   1.758  1.7561  2.4096 -0.4289
  713MOL0     H96241   0.880  11.070   1.505  1.1491 -0.0011  0.5891
  713MOL0     H96242   1.054  10.998   1.647 -1.1216 -1.6409 -2.8167
  713MOL0     H96243   1.082  10.715   2.253 -0.6417  0.7623 -0.0214
  713MOL0     H96244   1.303  10.606   2.307  2.8171 -2.7157 -2.1514
  713MOL0     H96245   1.738  10.651   2.189 -0.8874 -2.0793  0.5421
  713MOL0     H96246   1.663  10.736   2.049 -2.1957  1.2077  0.1876
  713MOL0     H96247   1.707  10.850   2.333 -0.3172  0.0229 -0.4321
  713MOL0     H96248   1.622  10.935   2.207  0.6263  1.2061  2.1863
  713MOL0     H96249   1.843  11.023   2.208 -1.1018  3.5365 -4.5356
  713MOL0     H96250   1.800  10.935   2.059 -2.5103 -1.6355  1.6466
  713MOL0     H96251   1.925  10.744   2.103  2.0305  2.1510 -1.8814
  713MOL0     H96252   1.948  10.785   2.269 -4.0935 -0.7709  0.5485
  713MOL0     H96253   2.244  11.036   2.085 -2.0139  2.8470  0.2733
  713MOL0     H96254   1.501  10.855   2.015  0.1222  1.5007  1.4354
  713MOL0     H96255   1.275  10.929   1.946  0.1196 -0.5730  0.0230
  714MOL0     O96256   7.986   8.890   3.340  0.0780 -0.8475 -0.7320
  714MOL0     C96257   8.027   9.001   3.372  0.2812 -0.2834 -0.8470
  714MOL0     O96258   8.005   9.119   3.307  0.1584 -0.4874  1.0934
  714MOL0     C96259   7.930   9.121   3.195  1.2142 -0.8334  0.2610
  714MOL0     C96260   7.791   9.124   3.212  0.1106 -0.3258  0.1199
  714MOL0     C96261   7.713   9.146   3.097  0.1366  0.0690  0.4483
  714MOL0     C96262   7.766   9.172   2.966  0.5688 -0.3526 -0.6376
  714MOL0     O96263   7.693   9.190   2.855 -1.0000 -0.4422  0.4653
  714MOL0     C96264   7.558   9.206   2.863  0.1844 -0.3693  0.1245
  714MOL0     C96265   7.497   9.294   2.739  0.0846  0.5244  0.4707
  714MOL0     C96266   7.350   9.265   2.728 -0.0558 -0.3387  0.1192
  714MOL0     C96267   7.274   9.382   2.662  0.9056  0.1245 -0.2288
  714MOL0     C96268   7.116   9.335   2.668  0.2154  0.1658  1.5415
  714MOL0     C96269   7.029   9.458   2.642 -0.1350 -0.1826 -0.7170
  714MOL0     C96270   7.059   9.517   2.508 -0.3068  0.0920  0.1745
  714MOL0     C96271   7.061   9.424   2.388 -0.2349 -0.3901  0.0729
  714MOL0     N96272   6.925   9.385   2.354 -0.0019  0.1094  0.1634
  714MOL0     C96273   6.833   9.470   2.292  0.9790 -1.0067  0.0259
  714MOL0     C96274   6.712   9.401   2.285 -0.2299  0.1084 -0.5997
  714MOL0     C96275   6.596   9.441   2.212 -0.2868  0.4243  0.5078
  714MOL0     C96276   6.492   9.525   2.294 -0.2918  0.5690  1.5630
  714MOL0     C96277   6.435   9.436   2.409  0.2982 -0.4828 -0.0842
  714MOL0     C96278   6.313   9.509   2.465  1.3371 -0.2153 -0.7949
  714MOL0     O96279   6.331   9.636   2.529 -0.2602 -0.3259  0.0357
  714MOL0     C96280   6.213   9.692   2.566 -0.0852 -0.3132 -0.3963
  714MOL0     C96281   6.215   9.831   2.591  0.0184 -0.7248 -0.0936
  714MOL0     C96282   6.095   9.903   2.619 -0.4891  0.4571 -0.4441
  714MOL0     C96283   6.111  10.042   2.645  0.0400 -0.4051  0.2250
  714MOL0     C96284   5.976   9.829   2.628 -0.4014 -0.0345 -0.3914
  714MOL0     C96285   5.843   9.894   2.654  0.9535 -1.3000  0.5314
  714MOL0     O96286   5.748   9.818   2.695 -0.4546 -0.5050 -0.1902
  714MOL0     C96287   5.621   9.852   2.721 -0.0597 -0.8959 -0.7466
  714MOL0     C96288   5.565   9.980   2.742 -0.8201  0.1995  0.5304
  714MOL0     C96289   5.433   9.984   2.779 -0.4728  1.0403 -0.2056
  714MOL0     C96290   5.351   9.869   2.791  0.7414 -0.0298 -1.1553
  714MOL0     O96291   5.215   9.862   2.809 -0.1965  0.5982 -0.2671
  714MOL0     C96292   5.131   9.977   2.795 -0.6180  0.3564 -0.0695
  714MOL0     C96293   4.992   9.933   2.794 -0.0589 -0.4328 -0.0126
  714MOL0     C96294   4.886  10.041   2.763  0.2792  0.4342  0.2384
  714MOL0     C96295   4.744   9.978   2.751  0.2933  0.0041 -0.5084
  714MOL0     C96296   4.627  10.084   2.749 -0.3931  0.0929 -0.4907
  714MOL0     C96297   4.492  10.019   2.736  0.3783  1.0485 -0.0943
  714MOL0     C96298   4.379  10.113   2.756  0.1218  0.9980 -0.9618
  714MOL0     C96299   4.254  10.037   2.785  0.2956  0.6106 -0.1133
  714MOL0    Cl96300   4.122  10.151   2.792 -0.0269  0.1264 -0.3495
  714MOL0     C96301   5.405   9.744   2.767  0.6480  0.2734  0.0940
  714MOL0     C96302   5.542   9.740   2.733  1.1160 -0.1873  0.5793
  714MOL0     O96303   5.839  10.012   2.622  0.3648 -0.4570  0.3367
  714MOL0     C96304   5.980   9.688   2.606 -0.0893 -0.3432 -0.2014
  714MOL0     C96305   6.091   9.621   2.581 -0.0023 -0.0391  0.7628
  714MOL0     N96306   6.733   9.271   2.346  0.4185 -0.0229 -0.1883
  714MOL0     N96307   6.865   9.265   2.383 -0.2752 -0.1479 -0.4030
  714MOL0     C96308   7.905   9.171   2.960 -0.4263  0.5879  0.0946
  714MOL0     C96309   7.986   9.148   3.072 -0.4279  0.3874  0.0805
  714MOL0     C96310   8.104   9.025   3.501  0.0083  0.5250 -1.2480
  714MOL0     C96311   8.145   8.915   3.584 -0.1477  0.5751 -0.3239
  714MOL0     C96312   8.223   8.942   3.703  0.3554 -0.0994  0.0515
  714MOL0     C96313   8.264   9.072   3.730  0.6434 -0.1569 -0.3038
  714MOL0     O96314   8.326   9.112   3.837  0.0113 -0.3748  0.2108
  714MOL0     C96315   8.406   9.015   3.909 -0.2654 -0.3586  0.0989
  714MOL0     C96316   8.515   9.091   3.978  1.0249 -0.2354  0.1920
  714MOL0     C96317   8.462   9.184   4.093  0.4117 -0.6231 -0.5328
  714MOL0     C96318   8.573   9.291   4.136  0.0371  0.2376  0.5958
  714MOL0     C96319   8.694   9.219   4.183  0.1860  0.3603  0.1240
  714MOL0     C96320   8.783   9.146   4.217  0.4752 -0.2147  0.1434
  714MOL0     C96321   8.207   9.179   3.653 -0.7965 -0.9120 -0.1704
  714MOL0     C96322   8.126   9.157   3.542 -0.3670 -0.4414  0.0592
  714MOL0     H96323   7.747   9.107   3.310 -0.9839 -0.3287 -0.3584
  714MOL0     H96324   7.605   9.139   3.110 -0.1593  2.7005  0.0382
  714MOL0     H96325   7.521   9.103   2.861 -0.9916  0.0294  0.5649
  714MOL0     H96326   7.526   9.258   2.953  1.8355  1.1982 -0.1294
  714MOL0     H96327   7.511   9.400   2.764 -1.8361  0.5180  1.7106
  714MOL0     H96328   7.550   9.274   2.645  1.9601  2.0825  1.1353
  714MOL0     H96329   7.337   9.172   2.671  0.5662  1.0851 -2.5156
  714MOL0     H96330   7.313   9.235   2.827 -1.1718 -2.1164 -0.7714
  714MOL0     H96331   7.288   9.474   2.719  0.2638  1.6931 -2.4469
  714MOL0     H96332   7.305   9.394   2.558 -1.8245 -2.2080 -1.4863
  714MOL0     H96333   7.092   9.254   2.598 -0.5460  1.0448  0.7601
  714MOL0     H96334   7.090   9.304   2.770  2.7535  0.8888  2.5059
  714MOL0     H96335   6.926   9.426   2.655 -0.5690  0.3370 -2.6434
  714MOL0     H96336   7.052   9.537   2.714  1.0256 -0.8299 -0.3486
  714MOL0     H96337   6.994   9.601   2.481  2.1134  2.5931  1.5375
  714MOL0     H96338   7.158   9.564   2.521 -0.8784  0.9336  1.7491
  714MOL0     H96339   7.138   9.351   2.417  0.2328  1.4813  4.1624
  714MOL0     H96340   7.106   9.482   2.306  2.7067 -2.0552  0.3459
  714MOL0     H96341   6.846   9.571   2.254 -1.5587 -1.4791 -2.4365
  714MOL0     H96342   6.627   9.502   2.128  2.8935  1.4413  2.2660
  714MOL0     H96343   6.550   9.350   2.171 -1.2173  1.1717 -0.1309
  714MOL0     H96344   6.418   9.538   2.215 -2.8575 -4.1095  2.8529
  714MOL0     H96345   6.530   9.623   2.328  0.0712  1.3570 -0.9033
  714MOL0     H96346   6.501   9.426   2.495  0.4567 -2.6798 -0.4101
  714MOL0     H96347   6.422   9.334   2.373 -1.3959 -1.1727  2.3261
  714MOL0     H96348   6.274   9.435   2.536  1.0108 -0.8994 -1.6686
  714MOL0     H96349   6.242   9.518   2.383 -1.7350  0.9796  1.7594
  714MOL0     H96350   6.302   9.894   2.577 -0.3155  0.3414  2.1544
  714MOL0     H96351   6.061  10.066   2.740 -2.6505  0.7738 -1.3760
  714MOL0     H96352   6.216  10.071   2.657  0.7476 -2.2126 -1.1726
  714MOL0     H96353   6.070  10.091   2.556 -1.0346 -0.0358  0.8974
  714MOL0     H96354   5.623  10.070   2.724 -0.6155  0.2068  1.2193
  714MOL0     H96355   5.386  10.079   2.802  0.8671  1.9398 -0.9897
  714MOL0     H96356   5.152  10.053   2.871  0.9970  0.6241 -0.7357
  714MOL0     H96357   5.153  10.019   2.696  1.0972  1.0096  0.5470
  714MOL0     H96358   4.977   9.876   2.702 -1.8917 -0.2995  0.1587
  714MOL0     H96359   4.970   9.882   2.888 -1.5908 -2.4828 -1.3846
  714MOL0     H96360   4.909  10.098   2.672  0.6557 -0.0919 -0.0027
  714MOL0     H96361   4.894  10.108   2.849 -0.6457  0.7924  0.0574
  714MOL0     H96362   4.742   9.924   2.656  0.1829 -1.0361  0.0603
  714MOL0     H96363   4.728   9.898   2.825  1.7650  0.3166  0.1876
  714MOL0     H96364   4.656  10.150   2.666  1.1910  2.0914  1.5388
  714MOL0     H96365   4.632  10.143   2.841 -4.0423 -1.8855  1.1788
  714MOL0     H96366   4.489   9.983   2.633  0.0838  0.1116  0.2307
  714MOL0     H96367   4.487   9.930   2.799  0.7182  0.4413 -0.9062
  714MOL0     H96368   4.363  10.173   2.666 -1.5631 -0.6980 -1.8704
  714MOL0     H96369   4.389  10.176   2.844  0.1434 -2.5175  1.7560
  714MOL0     H96370   4.272   9.987   2.881  1.0427  0.7277 -0.1857
  714MOL0     H96371   4.226   9.960   2.712 -1.5664  0.6900  0.4707
  714MOL0     H96372   5.339   9.658   2.775 -1.0507  1.1974 -2.3362
  714MOL0     H96373   5.590   9.647   2.707  1.8236  0.6384 -1.3014
  714MOL0     H96374   5.885   9.636   2.615 -0.3428 -0.1192 -1.4343
  714MOL0     H96375   6.084   9.514   2.569  0.0325  0.1488 -1.3805
  714MOL0     H96376   7.962   9.175   2.868  1.1534 -1.8979  0.8525
  714MOL0     H96377   8.093   9.148   3.052 -0.8827 -0.4043 -2.8526
  714MOL0     H96378   8.130   8.813   3.550 -2.3322  0.8397 -0.2655
  714MOL0     H96379   8.263   8.861   3.763  2.1193  1.8205  1.5888
  714MOL0     H96380   8.347   8.953   3.979  1.8154 -4.4980 -1.4679
  714MOL0     H96381   8.457   8.948   3.838  1.0009 -0.5909  1.1860
  714MOL0     H96382   8.564   9.154   3.904  0.7785  0.5315  0.6651
  714MOL0     H96383   8.586   9.017   4.016 -0.8578 -1.2726  1.9601
  714MOL0     H96384   8.445   9.129   4.185  1.0399 -0.6742 -0.4398
  714MOL0     H96385   8.380   9.250   4.064  0.0819 -0.9718 -0.3939
  714MOL0     H96386   8.532   9.350   4.218  0.4088 -1.5582  2.1576
  714MOL0     H96387   8.594   9.356   4.051 -1.3111 -0.4780 -0.3281
  714MOL0     H96388   8.861   9.079   4.247  0.1367  0.2688  2.2665
  714MOL0     H96389   8.220   9.283   3.681 -0.8118 -0.3189 -2.1874
  714MOL0     H96390   8.088   9.240   3.485 -0.0942 -0.0614  0.4268
  715MOL0     O96391   6.864  11.179   7.375  0.2691 -1.1930 -0.8724
  715MOL0     C96392   6.888  11.142   7.263  0.0352 -0.4788  0.0396
  715MOL0     O96393   6.811  11.142   7.151  0.1773  0.4389  0.0068
  715MOL0     C96394   6.687  11.188   7.171 -0.6912  0.0905  0.4705
  715MOL0     C96395   6.591  11.103   7.208  0.4217 -0.7976 -0.2610
  715MOL0     C96396   6.460  11.154   7.232  0.0416 -0.0351  0.6863
  715MOL0     C96397   6.419  11.281   7.206  0.0262  0.0610  0.0924
  715MOL0     O96398   6.289  11.308   7.232  0.1094  0.5851 -0.2993
  715MOL0     C96399   6.233  11.434   7.208  0.3146 -0.2973 -0.8212
  715MOL0     C96400   6.085  11.405   7.254  0.5110  0.3679 -0.0682
  715MOL0     C96401   6.001  11.527   7.274 -0.4806 -0.8811 -0.0456
  715MOL0     C96402   5.872  11.499   7.342 -0.3618 -0.2185 -0.4153
  715MOL0     C96403   5.791  11.623   7.381 -0.2994  0.4532 -0.7463
  715MOL0     C96404   5.716  11.686   7.266  1.0759  0.6870 -0.1999
  715MOL0     C96405   5.635  11.801   7.324  0.3375 -0.5600  0.2250
  715MOL0     C96406   5.556  11.875   7.214 -0.0649 -0.4301 -0.0379
  715MOL0     N96407   5.484  11.984   7.281 -0.1157 -0.0039 -1.1544
  715MOL0     C96408   5.351  12.000   7.277 -1.3924  0.1372  0.7140
  715MOL0     C96409   5.317  12.124   7.322 -0.3884 -0.1882 -0.0475
  715MOL0     C96410   5.180  12.178   7.329 -0.2065  0.1732  0.2363
  715MOL0     C96411   5.157  12.258   7.197  0.0239 -0.9713  0.4271
  715MOL0     C96412   5.024  12.327   7.212  0.7610  0.1315  0.3208
  715MOL0     C96413   5.013  12.425   7.103 -0.0730 -0.1934  0.3628
  715MOL0     O96414   4.878  12.457   7.083 -0.1656 -0.1505 -0.2193
  715MOL0     C96415   4.788  12.377   7.014 -0.8805  0.2215 -0.0321
  715MOL0     C96416   4.653  12.423   7.028 -0.2740  0.2707  0.5872
  715MOL0     C96417   4.543  12.369   6.953  0.2679  0.6883 -0.5442
  715MOL0     C96418   4.411  12.424   6.970  0.1562  0.0608 -0.5701
  715MOL0     C96419   4.578  12.260   6.868  0.3547  0.0093 -0.5737
  715MOL0     C96420   4.472  12.186   6.800 -0.5518  0.2433  0.4335
  715MOL0     O96421   4.373  12.265   6.748  0.6936 -0.5458 -0.1310
  715MOL0     C96422   4.249  12.205   6.727 -0.6682  0.1873 -0.5075
  715MOL0     C96423   4.183  12.212   6.605  0.8287  0.7778  0.0712
  715MOL0     C96424   4.051  12.159   6.591  0.3525 -0.3570  0.0830
  715MOL0     C96425   3.994  12.081   6.691 -0.1895 -0.1754 -0.4555
  715MOL0     O96426   3.863  12.042   6.697  0.2215  1.0271 -0.1910
  715MOL0     C96427   3.781  12.015   6.585 -0.1114 -0.2851  0.0884
  715MOL0     C96428   3.847  11.915   6.495 -0.1551  0.6194  0.1703
  715MOL0     C96429   3.818  11.765   6.547 -0.3412  0.3299 -0.5493
  715MOL0     C96430   3.832  11.667   6.431  0.0791 -0.3775 -0.9757
  715MOL0     C96431   3.805  11.524   6.470 -0.6106  0.1919 -0.8042
  715MOL0     C96432   3.656  11.503   6.510  0.3303  0.2677 -0.4260
  715MOL0     C96433   3.623  11.360   6.549 -0.8945 -0.1443  0.1558
  715MOL0     C96434   3.490  11.308   6.506  0.0695 -0.4187  0.5425
  715MOL0    Cl96435   3.349  11.378   6.608  0.0244  0.5370  0.1027
  715MOL0     C96436   4.057  12.090   6.815 -0.2602  0.4754  0.1071
  715MOL0     C96437   4.187  12.141   6.830 -0.0988 -0.1942 -0.1957
  715MOL0     O96438   4.479  12.062   6.796 -0.7351  0.5722 -0.3906
  715MOL0     C96439   4.712  12.215   6.860 -0.3188  0.1610 -0.1317
  715MOL0     C96440   4.818  12.270   6.928 -0.3225  0.0537  0.1043
  715MOL0     N96441   5.433  12.184   7.363  0.3370  0.5014 -0.1284
  715MOL0     N96442   5.531  12.105   7.324  0.0181 -0.9466  0.5267
  715MOL0     C96443   6.524  11.373   7.177  1.0032 -0.3157  0.7607
  715MOL0     C96444   6.656  11.325   7.155  0.4136 -0.1366  0.5228
  715MOL0     C96445   7.026  11.088   7.248  0.2085  0.0330 -0.7497
  715MOL0     C96446   7.122  11.120   7.340  0.5678 -0.0345 -0.1853
  715MOL0     C96447   7.252  11.074   7.332 -0.0610  0.7120  1.0310
  715MOL0     C96448   7.284  10.999   7.217  0.1729  0.0539  1.1196
  715MOL0     O96449   7.411  10.952   7.217 -0.5308  0.4620 -0.8148
  715MOL0     C96450   7.460  10.891   7.101 -0.5805  0.5839 -0.0050
  715MOL0     C96451   7.594  10.826   7.120  0.1971  0.6628 -0.1015
  715MOL0     C96452   7.715  10.911   7.123  0.2693 -0.2203  0.3560
  715MOL0     C96453   7.836  10.826   7.154  0.1803  0.1937 -0.3959
  715MOL0     C96454   7.956  10.904   7.131 -0.0670  0.3230  0.0489
  715MOL0     C96455   8.062  10.968   7.135 -0.0585  0.4034 -0.3641
  715MOL0     C96456   7.186  10.979   7.113 -0.5825  0.0934 -0.0078
  715MOL0     C96457   7.058  11.019   7.129  0.0027 -0.0536 -0.4711
  715MOL0     H96458   6.609  10.999   7.235  0.1540 -1.3209 -2.0083
  715MOL0     H96459   6.378  11.088   7.259 -0.9289  0.8382 -0.0518
  715MOL0     H96460   6.288  11.507   7.267  0.0710 -0.3203 -0.5648
  715MOL0     H96461   6.236  11.455   7.101 -1.3302 -3.7104 -1.6853
  715MOL0     H96462   6.043  11.327   7.190 -0.4214 -0.3130  1.3453
  715MOL0     H96463   6.093  11.364   7.355  0.5370 -1.8871 -0.9343
  715MOL0     H96464   6.051  11.596   7.342 -1.8636 -2.0091  2.2459
  715MOL0     H96465   5.971  11.580   7.183 -0.1098  3.7504  2.2632
  715MOL0     H96466   5.818  11.443   7.266  3.0462 -2.4350 -1.4574
  715MOL0     H96467   5.885  11.434   7.429  2.5384 -0.0916 -0.6594
  715MOL0     H96468   5.722  11.588   7.459  1.4096  0.7106  0.9609
  715MOL0     H96469   5.859  11.698   7.422 -0.2213 -0.0749  0.1134
  715MOL0     H96470   5.795  11.709   7.194  0.6790 -0.2146 -0.9374
  715MOL0     H96471   5.651  11.617   7.211  0.2891  1.4868 -0.2915
  715MOL0     H96472   5.564  11.758   7.395 -0.7789  1.3683  0.3210
  715MOL0     H96473   5.713  11.863   7.369 -0.2530  1.2170 -1.0972
  715MOL0     H96474   5.495  11.819   7.142  2.4262  1.1735 -3.7207
  715MOL0     H96475   5.626  11.913   7.139  0.7742 -4.6676 -1.6686
  715MOL0     H96476   5.283  11.927   7.234 -0.6612 -0.4558  0.5573
  715MOL0     H96477   5.103  12.106   7.356  0.3139 -0.4948 -0.0449
  715MOL0     H96478   5.182  12.248   7.413 -1.9890  0.2146  0.2845
  715MOL0     H96479   5.156  12.199   7.104 -0.1062  0.8952 -0.8173
  715MOL0     H96480   5.231  12.338   7.196  0.9556 -1.4902  5.1942
  715MOL0     H96481   5.029  12.386   7.304 -2.2356 -0.0633  0.7067
  715MOL0     H96482   4.941  12.257   7.222 -0.6703  1.6509 -0.5256
  715MOL0     H96483   5.055  12.397   7.005 -0.6236  1.4337 -0.3765
  715MOL0     H96484   5.071  12.512   7.133  1.6588 -1.3395  0.4515
  715MOL0     H96485   4.645  12.501   7.103  0.8654  0.2817  0.7055
  715MOL0     H96486   4.329  12.351   6.961 -0.2391  0.6419 -1.9383
  715MOL0     H96487   4.393  12.469   7.069 -0.6138 -1.0534 -0.1799
  715MOL0     H96488   4.400  12.498   6.891  0.2604  1.2954  0.5332
  715MOL0     H96489   4.224  12.264   6.519 -2.3658  3.2601 -0.1569
  715MOL0     H96490   3.994  12.172   6.499 -0.7320  1.3767  0.9610
  715MOL0     H96491   3.680  11.979   6.608 -1.8006  2.5997 -2.1113
  715MOL0     H96492   3.774  12.102   6.519  1.2972  0.0201  0.3122
  715MOL0     H96493   3.806  11.921   6.393  3.4437 -1.7116 -1.6357
  715MOL0     H96494   3.955  11.920   6.478 -0.2786 -0.2564 -1.0397
  715MOL0     H96495   3.720  11.759   6.595 -0.7025  3.8966 -0.5376
  715MOL0     H96496   3.903  11.748   6.614 -0.3086  0.9193 -0.4364
  715MOL0     H96497   3.763  11.686   6.349 -1.9542  0.5373  0.8557
  715MOL0     H96498   3.934  11.670   6.393  0.6839 -0.4733  0.5400
  715MOL0     H96499   3.873  11.504   6.553  0.8261  1.6434 -1.5945
  715MOL0     H96500   3.832  11.454   6.390  0.4046  0.3182 -0.5827
  715MOL0     H96501   3.622  11.568   6.590 -3.9412 -1.1159 -0.8949
  715MOL0     H96502   3.591  11.532   6.426  0.2176  0.5943 -0.2258
  715MOL0     H96503   3.626  11.368   6.658 -0.2432  1.8318  0.0165
  715MOL0     H96504   3.695  11.284   6.516  0.4465  0.7019  1.0646
  715MOL0     H96505   3.484  11.198   6.504  1.3864 -0.4997 -1.2446
  715MOL0     H96506   3.476  11.339   6.402  0.2417 -2.9266 -0.3020
  715MOL0     H96507   3.998  12.044   6.894 -1.0259  4.1366  1.8589
  715MOL0     H96508   4.245  12.107   6.915 -1.9947 -1.9009  0.4866
  715MOL0     H96509   4.742  12.129   6.801  0.6268  0.3054  0.1156
  715MOL0     H96510   4.917  12.225   6.923 -0.4487 -0.3370  0.9523
  715MOL0     H96511   6.505  11.479   7.161  0.3193 -0.4968  0.3667
  715MOL0     H96512   6.740  11.390   7.135  0.6016  0.9068  4.0061
  715MOL0     H96513   7.092  11.186   7.421  0.0546  1.2648 -1.4008
  715MOL0     H96514   7.325  11.096   7.409 -0.6185  0.3266  1.6798
  715MOL0     H96515   7.402  10.807   7.060  1.7874 -0.1673 -2.0317
  715MOL0     H96516   7.460  10.967   7.022  0.3086 -0.4606 -1.0478
  715MOL0     H96517   7.610  10.758   7.036 -3.0710 -0.9477  0.4089
  715MOL0     H96518   7.581  10.767   7.211  1.7524 -0.7755 -0.7611
  715MOL0     H96519   7.709  10.982   7.206  0.9279 -0.5466  0.6838
  715MOL0     H96520   7.727  10.969   7.030 -1.4815 -3.7582 -2.3166
  715MOL0     H96521   7.834  10.730   7.101 -1.0314 -0.6632  1.0874
  715MOL0     H96522   7.839  10.798   7.260 -1.1631  1.5498  0.0272
  715MOL0     H96523   8.157  11.013   7.157  0.4003 -0.0383 -1.3810
  715MOL0     H96524   7.220  10.927   7.024  1.2583 -3.1504  2.3545
  715MOL0     H96525   6.982  10.998   7.055  0.1069 -0.4334 -0.4726
  716MOL0     O96526   0.759   7.418   4.942  0.0345  0.2159  0.1124
  716MOL0     C96527   0.751   7.480   4.838  0.4502  0.6908  0.4413
  716MOL0     O96528   0.645   7.501   4.762 -0.3459  0.4798 -0.1676
  716MOL0     C96529   0.514   7.453   4.789  0.6037  0.2528  0.0773
  716MOL0     C96530   0.438   7.462   4.672  0.7914  0.3860  0.3115
  716MOL0     C96531   0.311   7.395   4.683 -0.1017 -0.4399 -0.4212
  716MOL0     C96532   0.258   7.331   4.802 -0.3400 -0.3338 -0.3019
  716MOL0     O96533   0.131   7.274   4.804 -0.7049 -0.1800  1.1562
  716MOL0     C96534   0.070   7.213   4.912  0.7791 -0.4928  0.0561
  716MOL0     C96535  -0.042   7.130   4.851  0.4416 -0.0444 -0.5955
  716MOL0     C96536  -0.155   7.220   4.800  0.1751  0.5195 -0.5291
  716MOL0     C96537  -0.267   7.126   4.755 -0.0689 -0.0773 -0.0965
  716MOL0     C96538  -0.353   7.182   4.642  0.0207  0.1028 -0.0221
  716MOL0     C96539  -0.441   7.290   4.687  0.4352  0.1012  0.2285
  716MOL0     C96540  -0.506   7.346   4.552  0.2242  0.3937  0.6444
  716MOL0     C96541  -0.612   7.448   4.571 -0.4505 -0.1091  0.4618
  716MOL0     N96542  -0.665   7.507   4.451 -0.7389  1.3272 -0.2100
  716MOL0     C96543  -0.597   7.530   4.331  0.9162 -0.6080  0.3813
  716MOL0     C96544  -0.676   7.618   4.270  0.0377  0.8387 -0.7565
  716MOL0     C96545  -0.630   7.688   4.141  0.7167 -0.3204  0.2896
  716MOL0     C96546  -0.731   7.665   4.021  0.0231 -0.4739  0.0886
  716MOL0     C96547  -0.858   7.756   4.039  0.5100  0.2224 -0.1773
  716MOL0     C96548  -0.939   7.751   3.897 -0.8585 -0.6288  0.1802
  716MOL0     O96549  -0.992   7.632   3.841 -0.9719  0.2048 -1.1900
  716MOL0     C96550  -1.126   7.624   3.797 -0.0858 -0.9535 -0.5633
  716MOL0     C96551  -1.236   7.696   3.859 -0.4712 -0.1003  1.0888
  716MOL0     C96552  -1.370   7.690   3.808 -0.2066  1.0194 -0.1538
  716MOL0     C96553  -1.475   7.769   3.877 -0.1803 -0.5989  0.2232
  716MOL0     C96554  -1.396   7.611   3.698  0.3566  1.2213  1.2117
  716MOL0     C96555  -1.522   7.592   3.618 -0.6075  0.2815  0.3249
  716MOL0     O96556  -1.615   7.678   3.650  0.0372  0.2120 -0.2535
  716MOL0     C96557  -1.747   7.670   3.622 -0.2937  0.0607  0.2147
  716MOL0     C96558  -1.826   7.768   3.694  0.4501  0.0720  0.1178
  716MOL0     C96559  -1.968   7.776   3.675 -0.4708  0.1232 -0.8370
  716MOL0     C96560  -2.032   7.703   3.579  0.0691  0.1872 -0.0361
  716MOL0     O96561  -2.165   7.728   3.557  0.1946  0.4618  0.3174
  716MOL0     C96562  -2.229   7.665   3.447  0.3922  0.2006 -0.6757
  716MOL0     C96563  -2.371   7.728   3.456 -0.3126  0.3819 -0.2112
  716MOL0     C96564  -2.452   7.736   3.321 -0.4690 -0.3268 -0.6876
  716MOL0     C96565  -2.604   7.738   3.339  0.3630 -0.6233  0.2236
  716MOL0     C96566  -2.680   7.702   3.205 -0.5267 -0.2827 -0.2248
  716MOL0     C96567  -2.659   7.560   3.141 -0.1570 -0.4577  0.1117
  716MOL0     C96568  -2.752   7.540   3.019 -0.3680  1.3445 -0.8890
  716MOL0     C96569  -2.900   7.520   3.039  0.3409 -0.5054  0.7475
  716MOL0    Cl96570  -3.011   7.673   3.073  0.3459 -0.2347 -0.1241
  716MOL0     C96571  -1.958   7.607   3.510 -0.1609 -1.0812  0.0555
  716MOL0     C96572  -1.816   7.593   3.532 -0.4449 -0.0734  0.0182
  716MOL0     O96573  -1.529   7.505   3.536  0.1879 -0.0958  0.9387
  716MOL0     C96574  -1.279   7.546   3.639 -0.8999  0.5163 -0.1148
  716MOL0     C96575  -1.146   7.539   3.688 -0.1149 -1.1814 -0.0590
  716MOL0     N96576  -0.790   7.648   4.336  0.0715  0.6640 -0.5909
  716MOL0     N96577  -0.781   7.578   4.445 -0.6588 -0.0912  0.0261
  716MOL0     C96578   0.341   7.328   4.913  0.3423 -0.1414  0.2648
  716MOL0     C96579   0.471   7.392   4.906 -0.2513  0.1873  0.0084
  716MOL0     C96580   0.874   7.539   4.781  0.2093  0.0387 -0.3219
  716MOL0     C96581   0.873   7.576   4.641 -0.3155 -0.3204 -0.0699
  716MOL0     C96582   0.988   7.612   4.583  0.0051 -0.1440  0.2633
  716MOL0     C96583   1.106   7.632   4.654 -0.6182 -0.1129  0.0159
  716MOL0     O96584   1.217   7.681   4.586 -0.1156 -0.0711  0.0843
  716MOL0     C96585   1.353   7.650   4.618 -0.1448  0.9647  0.1362
  716MOL0     C96586   1.427   7.702   4.501  0.5227 -0.6664  1.0596
  716MOL0     C96587   1.580   7.708   4.521 -0.6137 -0.1341  0.2935
  716MOL0     C96588   1.659   7.758   4.411 -0.3828 -0.5150 -0.1792
  716MOL0     C96589   1.639   7.687   4.281  1.2072 -1.1200 -0.2207
  716MOL0     C96590   1.606   7.637   4.171 -0.4872 -0.6646  0.4704
  716MOL0     C96591   1.106   7.596   4.789 -0.5717  1.2932  0.5408
  716MOL0     C96592   0.989   7.557   4.852 -0.6759  0.0524 -0.8122
  716MOL0     H96593   0.468   7.510   4.579 -3.7790  2.3515 -0.4609
  716MOL0     H96594   0.256   7.396   4.589  0.6159 -1.7621 -0.8881
  716MOL0     H96595   0.143   7.146   4.960  1.5836 -0.8930 -1.6423
  716MOL0     H96596   0.029   7.276   4.991  2.4232 -0.7060  1.1231
  716MOL0     H96597  -0.007   7.079   4.761 -1.9005  1.0198 -2.2190
  716MOL0     H96598  -0.076   7.066   4.933 -2.6102  0.0508 -1.6559
  716MOL0     H96599  -0.187   7.287   4.879 -1.5026  0.3735 -1.0497
  716MOL0     H96600  -0.109   7.285   4.724  1.9411  1.0130  0.8836
  716MOL0     H96601  -0.233   7.034   4.707 -3.1643 -1.1918 -0.3320
  716MOL0     H96602  -0.323   7.094   4.843  1.6260  0.4939  1.2585
  716MOL0     H96603  -0.281   7.219   4.569 -0.1781  0.3645 -0.0861
  716MOL0     H96604  -0.413   7.102   4.597 -0.4912 -0.2108  1.1868
  716MOL0     H96605  -0.518   7.257   4.758 -0.6577  2.8716  0.4447
  716MOL0     H96606  -0.377   7.369   4.726  1.5773 -0.2499 -0.8809
  716MOL0     H96607  -0.421   7.390   4.500  2.6240 -3.5921  0.7514
  716MOL0     H96608  -0.549   7.263   4.495  0.7401  0.6075 -0.0663
  716MOL0     H96609  -0.570   7.528   4.632  0.7589  1.9167 -2.7941
  716MOL0     H96610  -0.684   7.387   4.627  0.4851 -0.2668  1.5267
  716MOL0     H96611  -0.503   7.479   4.314 -0.4963 -3.6053  0.8997
  716MOL0     H96612  -0.622   7.796   4.151  2.1850 -0.3552 -0.2779
  716MOL0     H96613  -0.533   7.649   4.107  0.5658  0.0778 -0.6209
  716MOL0     H96614  -0.756   7.559   4.008  0.0076 -0.4665  0.0611
  716MOL0     H96615  -0.688   7.689   3.924 -0.1876 -0.5430 -0.0234
  716MOL0     H96616  -0.844   7.860   4.070 -1.3749  1.4799 -3.0844
  716MOL0     H96617  -0.915   7.706   4.118  0.6090 -0.1451 -0.3374
  716MOL0     H96618  -0.874   7.791   3.818 -1.8574 -3.1043 -2.0472
  716MOL0     H96619  -1.021   7.824   3.894 -1.1534 -0.9327  0.8031
  716MOL0     H96620  -1.213   7.754   3.948  0.1427 -1.2548  1.7074
  716MOL0     H96621  -1.553   7.700   3.910 -2.6878  1.1432 -1.7041
  716MOL0     H96622  -1.435   7.824   3.963 -0.0121  0.6525 -0.6299
  716MOL0     H96623  -1.516   7.840   3.805 -1.1906 -1.9590 -0.5899
  716MOL0     H96624  -1.782   7.846   3.756  1.2353 -0.2270 -0.0502
  716MOL0     H96625  -2.024   7.845   3.738 -0.0478 -1.1911  1.0426
  716MOL0     H96626  -2.191   7.686   3.347 -1.3608  2.9465 -0.8873
  716MOL0     H96627  -2.232   7.557   3.462  1.1237  0.0690 -1.4232
  716MOL0     H96628  -2.421   7.659   3.524 -0.7181  0.6253 -0.2615
  716MOL0     H96629  -2.369   7.831   3.494  1.3698  0.9305 -1.6564
  716MOL0     H96630  -2.428   7.647   3.262  0.4648 -0.4591 -0.1349
  716MOL0     H96631  -2.425   7.832   3.274 -0.3526  0.0992  0.2232
  716MOL0     H96632  -2.634   7.667   3.417 -3.1431  0.3145 -0.1108
  716MOL0     H96633  -2.636   7.831   3.386  1.2182 -0.1158 -0.1631
  716MOL0     H96634  -2.666   7.781   3.129  0.0936 -2.0086 -1.9875
  716MOL0     H96635  -2.786   7.703   3.231 -0.7810  1.0750 -1.1589
  716MOL0     H96636  -2.562   7.547   3.093 -1.5710 -1.4975 -2.6510
  716MOL0     H96637  -2.678   7.479   3.212 -0.7846 -1.0180 -0.6823
  716MOL0     H96638  -2.711   7.463   2.953 -1.2272  1.4223 -1.5239
  716MOL0     H96639  -2.734   7.631   2.961  3.3261  0.1631 -1.9302
  716MOL0     H96640  -2.914   7.445   3.118  1.6583 -2.3934 -0.7280
  716MOL0     H96641  -2.934   7.482   2.942 -1.3332 -2.8318  2.1453
  716MOL0     H96642  -2.007   7.552   3.431 -0.1607  1.5235 -1.8746
  716MOL0     H96643  -1.767   7.525   3.463 -1.0961 -1.2487  0.6758
  716MOL0     H96644  -1.303   7.489   3.550 -0.4951  1.4599 -0.8310
  716MOL0     H96645  -1.070   7.472   3.648  1.1869  0.7027 -0.8906
  716MOL0     H96646   0.311   7.279   5.005  0.0961 -1.3541 -0.4339
  716MOL0     H96647   0.534   7.395   4.994  1.0822  2.1115 -0.9499
  716MOL0     H96648   0.782   7.572   4.582 -1.1191  2.4483  0.8231
  716MOL0     H96649   0.991   7.645   4.479 -0.7343 -1.4569 -0.2058
  716MOL0     H96650   1.378   7.674   4.722  0.0265 -0.9771  0.5867
  716MOL0     H96651   1.370   7.542   4.620 -1.8896  0.6256 -1.4543
  716MOL0     H96652   1.390   7.799   4.468 -2.7860 -2.7927 -2.3438
  716MOL0     H96653   1.399   7.641   4.415 -2.0609  0.2307  1.1914
  716MOL0     H96654   1.615   7.608   4.547  0.2443  0.3254  0.9457
  716MOL0     H96655   1.589   7.782   4.601 -4.9566  2.3405 -1.1330
  716MOL0     H96656   1.765   7.784   4.420 -0.1302 -0.3840 -2.7709
  716MOL0     H96657   1.619   7.859   4.403  2.0381  0.4846 -0.4595
  716MOL0     H96658   1.602   7.584   4.078  0.2221  0.7856 -0.4300
  716MOL0     H96659   1.199   7.592   4.844 -1.0154  0.1934  1.2599
  716MOL0     H96660   0.993   7.544   4.960 -3.1171  0.4575 -0.6040
  717MOL0     O96661   9.982  10.513   2.454 -0.2224  0.6058 -0.3675
  717MOL0     C96662  10.056  10.588   2.395  0.6829 -0.7509 -0.0324
  717MOL0     O96663  10.025  10.690   2.315 -0.2250  0.4038 -0.4152
  717MOL0     C96664   9.892  10.720   2.308  0.6620  0.2547  0.3704
  717MOL0     C96665   9.827  10.720   2.183  0.4140 -0.2571 -0.3243
  717MOL0     C96666   9.685  10.752   2.172 -0.2897  0.0327  0.0282
  717MOL0     C96667   9.624  10.796   2.289 -0.0371 -0.7420  0.5096
  717MOL0     O96668   9.492  10.818   2.293  0.3174  0.3527  0.1585
  717MOL0     C96669   9.402  10.715   2.240  0.0030  0.2492 -0.3980
  717MOL0     C96670   9.308  10.677   2.348  0.0979  0.2568 -0.6316
  717MOL0     C96671   9.206  10.787   2.380  0.4347  0.1725 -0.7273
  717MOL0     C96672   9.077  10.724   2.428  0.1775  0.1680 -0.7134
  717MOL0     C96673   8.948  10.805   2.449 -0.1801  0.8594  0.0917
  717MOL0     C96674   8.942  10.916   2.552  0.3203 -0.5221  0.6080
  717MOL0     C96675   8.806  10.992   2.561  0.2850  0.7336  0.3566
  717MOL0     C96676   8.796  11.103   2.664 -0.0657 -0.3832 -0.7655
  717MOL0     N96677   8.897  11.095   2.778  0.6545 -1.0485 -0.1141
  717MOL0     C96678   9.024  11.147   2.769  0.8560  0.4844 -0.1096
  717MOL0     C96679   9.078  11.127   2.888 -0.1114  0.2126 -0.4373
  717MOL0     C96680   9.223  11.155   2.934  0.2923 -0.2336 -0.0460
  717MOL0     C96681   9.304  11.034   2.972 -0.2072  0.4654 -0.2441
  717MOL0     C96682   9.308  10.928   2.856  0.1816  0.7739 -0.1944
  717MOL0     C96683   9.362  10.966   2.727  0.4511 -0.3121  0.5927
  717MOL0     O96684   9.490  11.040   2.730 -0.2687  0.8513  0.7456
  717MOL0     C96685   9.611  10.979   2.745 -0.1463 -0.1605  0.0089
  717MOL0     C96686   9.728  11.061   2.734  0.1687  0.2045  0.0372
  717MOL0     C96687   9.855  11.008   2.770 -0.6654  0.6670  0.6347
  717MOL0     C96688   9.966  11.115   2.786  0.6978  0.2969 -0.2409
  717MOL0     C96689   9.874  10.873   2.809 -0.2861  0.2384 -0.3292
  717MOL0     C96690  10.004  10.812   2.831 -0.3604 -0.6172  0.0128
  717MOL0     O96691  10.109  10.845   2.751 -0.7097 -0.6616 -0.1328
  717MOL0     C96692  10.230  10.787   2.782 -0.5569  0.2923  0.0983
  717MOL0     C96693  10.319  10.865   2.864 -0.4765  0.0473  0.4367
  717MOL0     C96694  10.445  10.815   2.898  0.3511  0.0060 -0.0958
  717MOL0     C96695  10.476  10.685   2.845  0.7719 -1.2461 -0.9624
  717MOL0     O96696  10.597  10.627   2.870 -0.2215 -0.3635  0.1270
  717MOL0     C96697  10.614  10.607   3.017  0.3384 -0.5231  0.2210
  717MOL0     C96698  10.694  10.477   3.030 -0.2678  1.1508  0.5573
  717MOL0     C96699  10.726  10.436   3.173  0.1039  0.2755  0.2834
  717MOL0     C96700  10.699  10.289   3.209  0.2059  0.4331  0.1162
  717MOL0     C96701  10.714  10.244   3.354  0.1611  0.1183 -0.6634
  717MOL0     C96702  10.854  10.287   3.409 -0.3866  0.8811  0.9569
  717MOL0     C96703  10.889  10.208   3.539 -0.3647  0.1167 -0.2480
  717MOL0     C96704  10.784  10.210   3.645 -0.6456 -0.1225 -0.6042
  717MOL0    Cl96705  10.661  10.085   3.616 -0.1105 -0.3485 -0.2825
  717MOL0     C96706  10.385  10.605   2.772  0.0276 -0.4688 -1.1296
  717MOL0     C96707  10.262  10.663   2.741  0.3377 -0.0772 -0.3941
  717MOL0     O96708  10.004  10.717   2.910 -0.1007 -0.5798 -0.0503
  717MOL0     C96709   9.755  10.794   2.819  0.1868  0.5333  0.4889
  717MOL0     C96710   9.630  10.844   2.774 -0.0862  0.0872 -0.8547
  717MOL0     N96711   8.979  11.076   2.968  0.1805  0.5713  0.0505
  717MOL0     N96712   8.872  11.058   2.904 -0.1002  1.6540  0.1636
  717MOL0     C96713   9.699  10.804   2.406  0.2457  0.7071 -0.4623
  717MOL0     C96714   9.826  10.757   2.420 -0.3607 -0.1054 -0.1823
  717MOL0     C96715  10.205  10.561   2.391 -0.6988 -0.2409  0.2565
  717MOL0     C96716  10.297  10.661   2.356  0.5161  0.0741 -0.8184
  717MOL0     C96717  10.438  10.645   2.366 -0.9444  0.2859 -0.2666
  717MOL0     C96718  10.489  10.516   2.378  0.0745 -0.0933 -0.9177
  717MOL0     O96719  10.624  10.487   2.367  1.2419  0.4915  0.4300
  717MOL0     C96720  10.717  10.594   2.396  0.5210  0.7264  0.4581
  717MOL0     C96721  10.846  10.515   2.437  0.2795  0.1442 -0.7502
  717MOL0     C96722  10.839  10.451   2.573  0.6080  0.1054  1.0065
  717MOL0     C96723  10.780  10.309   2.576 -0.1323 -0.4368  0.5418
  717MOL0     C96724  10.819  10.230   2.460  0.7147  0.6648 -0.7670
  717MOL0     C96725  10.842  10.180   2.355  0.4268  0.5223 -0.2891
  717MOL0     C96726  10.401  10.415   2.389 -0.0786  0.3268 -0.7658
  717MOL0     C96727  10.266  10.437   2.414  0.0743  1.2790 -0.2061
  717MOL0     H96728   9.873  10.679   2.095 -2.8668 -2.1220 -1.3513
  717MOL0     H96729   9.631  10.745   2.078 -0.8963 -0.8049  0.4253
  717MOL0     H96730   9.345  10.749   2.152 -0.1195  0.5877 -0.1878
  717MOL0     H96731   9.449  10.622   2.204  0.3176 -0.4223  1.6443
  717MOL0     H96732   9.252  10.587   2.319 -2.9941  1.9023 -0.1839
  717MOL0     H96733   9.354  10.666   2.446 -0.6042  0.5291 -0.2659
  717MOL0     H96734   9.251  10.859   2.448 -1.6956  1.1215 -0.2146
  717MOL0     H96735   9.179  10.854   2.298  0.3406  0.5411 -0.3997
  717MOL0     H96736   9.066  10.646   2.353  0.7389 -2.5358  1.8311
  717MOL0     H96737   9.100  10.664   2.516  1.5895  2.3528  0.5256
  717MOL0     H96738   8.928  10.849   2.351  2.1871 -2.1169 -1.9009
  717MOL0     H96739   8.873  10.732   2.480  1.7374 -1.0654  0.4113
  717MOL0     H96740   8.974  10.875   2.649  2.6120 -1.2508 -0.3918
  717MOL0     H96741   9.011  10.990   2.510  0.4928 -3.4267 -5.1317
  717MOL0     H96742   8.788  11.032   2.461 -0.1173  0.6112  0.3761
  717MOL0     H96743   8.722  10.925   2.579 -1.6229  2.4936 -1.4313
  717MOL0     H96744   8.693  11.104   2.700  0.4826  2.3570  0.9965
  717MOL0     H96745   8.803  11.203   2.619 -0.4514  0.4612  0.9728
  717MOL0     H96746   9.063  11.211   2.690  0.1409  0.1212 -0.7673
  717MOL0     H96747   9.283  11.202   2.855  0.7133  0.3013  0.5797
  717MOL0     H96748   9.212  11.232   3.011  3.5149 -0.2046  0.5485
  717MOL0     H96749   9.254  10.993   3.061  0.2574  1.7016  0.6201
  717MOL0     H96750   9.402  11.060   3.011 -0.8626 -0.7472  2.4785
  717MOL0     H96751   9.208  10.898   2.825  1.5339 -1.3464 -2.8693
  717MOL0     H96752   9.361  10.845   2.903 -1.2896  2.0583  4.2836
  717MOL0     H96753   9.294  11.030   2.671 -0.6647  0.8977  3.1813
  717MOL0     H96754   9.374  10.870   2.676  0.5519 -0.1566  0.3174
  717MOL0     H96755   9.709  11.166   2.716 -2.5426  0.5120  3.5756
  717MOL0     H96756  10.051  11.104   2.718  0.9524  1.6591 -0.1634
  717MOL0     H96757   9.926  11.215   2.763 -4.1312 -1.2528  0.2163
  717MOL0     H96758  10.000  11.110   2.889 -0.3169 -1.9559  0.0449
  717MOL0     H96759  10.295  10.968   2.887 -2.0855 -0.7418  2.6183
  717MOL0     H96760  10.519  10.865   2.959  0.7964  1.6977 -1.9182
  717MOL0     H96761  10.674  10.691   3.052  0.8682 -0.6849 -0.2652
  717MOL0     H96762  10.526  10.603   3.081  0.4980  1.5988  0.6298
  717MOL0     H96763  10.627  10.406   2.981  3.5568 -1.9512 -0.6845
  717MOL0     H96764  10.793  10.473   2.983  0.8601 -0.5875  2.8332
  717MOL0     H96765  10.656  10.495   3.232 -1.1082 -1.2840  0.4527
  717MOL0     H96766  10.830  10.468   3.187  0.1815  0.7594 -1.2067
  717MOL0     H96767  10.596  10.272   3.178  0.3515  0.7094 -0.5421
  717MOL0     H96768  10.775  10.232   3.154  0.8907 -0.2144  1.6705
  717MOL0     H96769  10.707  10.135   3.359 -1.7294  0.2639  1.3981
  717MOL0     H96770  10.636  10.288   3.417 -0.2568 -2.4366  0.6974
  717MOL0     H96771  10.933  10.268   3.336  0.7625 -3.6394  3.0510
  717MOL0     H96772  10.854  10.396   3.420  3.5150  1.1401 -0.0836
  717MOL0     H96773  10.991  10.231   3.572 -0.0556  1.0779 -1.7733
  717MOL0     H96774  10.887  10.103   3.507  1.2304  0.5566 -1.9481
  717MOL0     H96775  10.732  10.306   3.645 -1.0629 -0.3409 -0.8947
  717MOL0     H96776  10.814  10.190   3.748 -2.8328  1.0427  0.3297
  717MOL0     H96777  10.411  10.504   2.743  2.8535 -0.1260 -0.1288
  717MOL0     H96778  10.192  10.601   2.686  1.2694 -0.8504 -0.7503
  717MOL0     H96779   9.768  10.695   2.862 -0.8971  1.4496  3.1150
  717MOL0     H96780   9.554  10.767   2.778  3.4235 -3.6820 -0.5803
  717MOL0     H96781   9.646  10.832   2.497 -1.5306 -1.5896 -0.6998
  717MOL0     H96782   9.874  10.768   2.517  0.3160 -0.1674 -0.5000
  717MOL0     H96783  10.251  10.758   2.341 -2.4259 -1.0133  0.3961
  717MOL0     H96784  10.496  10.733   2.340 -2.0333 -0.1693 -5.4357
  717MOL0     H96785  10.747  10.660   2.314  2.6850 -2.3312 -1.4274
  717MOL0     H96786  10.686  10.655   2.481 -2.7362 -3.7432  2.8631
  717MOL0     H96787  10.934  10.579   2.443  0.6646 -0.3179 -1.3390
  717MOL0     H96788  10.866  10.438   2.362  4.0025  0.9328 -0.7367
  717MOL0     H96789  10.783  10.511   2.646 -0.8729  1.1648 -0.9064
  717MOL0     H96790  10.940  10.443   2.615  1.4262  1.8952 -0.4869
  717MOL0     H96791  10.671  10.317   2.570 -0.0323 -0.1361 -1.4410
  717MOL0     H96792  10.804  10.261   2.672 -0.1349 -0.5519  0.4846
  717MOL0     H96793  10.861  10.127   2.264  0.1921  1.8939 -1.1796
  717MOL0     H96794  10.429  10.310   2.386  0.7997  0.4677  1.2821
  717MOL0     H96795  10.197  10.356   2.437 -0.3110  1.5179 -0.5074
  718MOL0     O96796   1.017   1.980   1.343 -0.0024 -0.4550  0.4140
  718MOL0     C96797   0.988   1.870   1.393 -0.1326 -0.0819 -0.4228
  718MOL0     O96798   0.861   1.826   1.414 -0.0808  0.4540  0.4517
  718MOL0     C96799   0.764   1.913   1.388 -0.9240 -0.6915 -0.2345
  718MOL0     C96800   0.653   1.873   1.305 -0.8628 -0.0978 -0.3948
  718MOL0     C96801   0.546   1.958   1.287 -0.0532 -0.5499  0.1523
  718MOL0     C96802   0.541   2.091   1.322  0.4384  0.0225  0.1595
  718MOL0     O96803   0.441   2.180   1.298  0.2631  0.2069 -1.2564
  718MOL0     C96804   0.308   2.134   1.272  0.8020 -0.0041  0.9199
  718MOL0     C96805   0.213   2.251   1.248  0.5817 -0.2275 -0.0320
  718MOL0     C96806   0.065   2.212   1.218  0.1382  0.3184  0.6820
  718MOL0     C96807  -0.027   2.330   1.239  0.1862 -0.6908 -0.0592
  718MOL0     C96808  -0.178   2.294   1.239 -0.2355 -0.7763 -0.6082
  718MOL0     C96809  -0.215   2.190   1.345  0.0737 -0.6822 -0.5858
  718MOL0     C96810  -0.364   2.209   1.365 -0.8250  0.0328 -0.2337
  718MOL0     C96811  -0.444   2.195   1.234  0.0932 -0.4823  0.2725
  718MOL0     N96812  -0.587   2.191   1.260 -0.1118  0.9462 -0.5842
  718MOL0     C96813  -0.647   2.099   1.343  0.3096 -0.7528  0.0148
  718MOL0     C96814  -0.779   2.114   1.335  0.5647  0.0013  0.4453
  718MOL0     C96815  -0.889   2.023   1.379 -0.0573 -0.0734 -0.0276
  718MOL0     C96816  -1.025   2.024   1.314 -0.5991  0.1519  0.1189
  718MOL0     C96817  -1.134   1.936   1.385  0.0252  0.1682 -0.7583
  718MOL0     C96818  -1.264   1.943   1.310  0.5063 -0.6820 -0.2180
  718MOL0     O96819  -1.308   2.081   1.308  0.5261 -0.6721  0.4226
  718MOL0     C96820  -1.442   2.109   1.296  0.8909 -0.7714 -0.1298
  718MOL0     C96821  -1.471   2.241   1.347  0.1484 -0.0455  0.6464
  718MOL0     C96822  -1.600   2.288   1.350 -0.1129 -0.4295 -0.3750
  718MOL0     C96823  -1.626   2.420   1.415 -0.0138  0.5559 -1.1321
  718MOL0     C96824  -1.707   2.214   1.305  0.8038  0.1822  0.3459
  718MOL0     C96825  -1.857   2.244   1.303  0.2973  0.4134  0.0124
  718MOL0     O96826  -1.909   2.366   1.350 -0.1812 -0.4279 -0.2779
  718MOL0     C96827  -2.046   2.382   1.332 -0.4854  0.4701  0.3849
  718MOL0     C96828  -2.098   2.425   1.209  0.7811  0.3017  0.6379
  718MOL0     C96829  -2.242   2.434   1.189 -0.1474 -0.4590 -0.2177
  718MOL0     C96830  -2.327   2.425   1.301 -0.1775 -0.3362 -0.3843
  718MOL0     O96831  -2.465   2.426   1.278 -0.5131  0.0655  0.0713
  718MOL0     C96832  -2.540   2.524   1.337 -0.1758 -0.4390 -0.1494
  718MOL0     C96833  -2.684   2.494   1.305  0.0807  0.0473  0.4188
  718MOL0     C96834  -2.778   2.598   1.360 -0.0134  0.4198  0.4851
  718MOL0     C96835  -2.923   2.585   1.307 -0.5456 -0.5887 -0.3251
  718MOL0     C96836  -3.022   2.680   1.388  0.3646  0.0002 -0.5206
  718MOL0     C96837  -3.164   2.668   1.338  0.2751 -0.1859 -0.2633
  718MOL0     C96838  -3.275   2.771   1.399  0.2779  0.9249  0.5753
  718MOL0     C96839  -3.418   2.734   1.369 -0.5513 -0.3170  0.1212
  718MOL0    Cl96840  -3.474   2.844   1.231  0.2628 -0.2062 -0.2282
  718MOL0     C96841  -2.274   2.397   1.429  0.1376  0.1550  0.3304
  718MOL0     C96842  -2.139   2.374   1.439  1.1695 -0.7875  0.9274
  718MOL0     O96843  -1.927   2.155   1.258  0.3844 -0.1176 -0.0569
  718MOL0     C96844  -1.686   2.077   1.265 -0.6725  0.6380 -0.4351
  718MOL0     C96845  -1.553   2.025   1.256  0.6136  0.0566 -0.1757
  718MOL0     N96846  -0.804   2.238   1.270  0.2999 -0.1281 -1.2795
  718MOL0     N96847  -0.685   2.277   1.226  0.3863 -0.2115  0.0634
  718MOL0     C96848   0.661   2.140   1.392  0.1178  0.3978  0.0236
  718MOL0     C96849   0.758   2.048   1.435 -0.3479  0.3142 -0.6690
  718MOL0     C96850   1.097   1.767   1.421  0.2397  0.0043 -0.5018
  718MOL0     C96851   1.072   1.637   1.470  0.5015  0.2129 -0.1938
  718MOL0     C96852   1.179   1.548   1.499  0.4867 -0.0405  0.2587
  718MOL0     C96853   1.313   1.582   1.465 -0.1827  0.4445 -0.0711
  718MOL0     O96854   1.424   1.509   1.490 -0.2235 -0.1881  0.8103
  718MOL0     C96855   1.398   1.381   1.556  0.0776 -0.6579  0.2576
  718MOL0     C96856   1.521   1.295   1.560  0.1649  0.1182  0.3583
  718MOL0     C96857   1.482   1.147   1.590  0.4747  0.0374  0.4348
  718MOL0     C96858   1.605   1.062   1.570  0.0433  0.6092 -0.7594
  718MOL0     C96859   1.714   1.092   1.665  0.4143  0.8460 -0.8029
  718MOL0     C96860   1.809   1.114   1.736  0.1691  0.3313  0.0767
  718MOL0     C96861   1.334   1.712   1.434  0.7230  0.1759  0.3640
  718MOL0     C96862   1.232   1.804   1.409  0.2882 -0.2117  1.0248
  718MOL0     H96863   0.651   1.770   1.269 -1.6187 -0.0777 -0.4229
  718MOL0     H96864   0.459   1.913   1.239 -1.3044  2.2081 -0.4002
  718MOL0     H96865   0.304   2.070   1.183  0.9415  0.2342  0.7409
  718MOL0     H96866   0.275   2.084   1.363  1.6724  3.5882  3.4371
  718MOL0     H96867   0.212   2.311   1.340 -2.7851  0.5275 -0.4205
  718MOL0     H96868   0.255   2.308   1.165 -4.8337  0.9835 -2.4242
  718MOL0     H96869   0.047   2.186   1.113 -1.1228  1.9321  0.4516
  718MOL0     H96870   0.039   2.125   1.278 -1.1418  0.6337  0.6229
  718MOL0     H96871  -0.000   2.364   1.340 -1.2373  0.2354  0.0284
  718MOL0     H96872  -0.011   2.416   1.174 -1.3352  0.5423  1.1411
  718MOL0     H96873  -0.235   2.383   1.266  1.7027  0.5654 -0.7102
  718MOL0     H96874  -0.218   2.259   1.143 -1.8782 -1.0270  0.1430
  718MOL0     H96875  -0.180   2.095   1.304  4.4398  0.2729  0.3553
  718MOL0     H96876  -0.144   2.199   1.428  2.3538 -1.6089 -2.3026
  718MOL0     H96877  -0.398   2.136   1.439 -0.4461  0.7351  0.6672
  718MOL0     H96878  -0.378   2.310   1.407 -0.4463  0.0462 -0.1343
  718MOL0     H96879  -0.415   2.110   1.172 -2.4673 -0.3641 -1.2382
  718MOL0     H96880  -0.423   2.284   1.175  2.2357  1.4257  3.6068
  718MOL0     H96881  -0.594   2.014   1.384  3.7510  0.3795 -1.6715
  718MOL0     H96882  -0.852   1.922   1.357  1.3500  0.0499  1.5977
  718MOL0     H96883  -0.898   2.047   1.485  2.1817 -0.8832  0.4026
  718MOL0     H96884  -1.011   1.992   1.210  1.3121 -1.8339  0.9021
  718MOL0     H96885  -1.054   2.129   1.307  2.2298  0.9270 -2.3807
  718MOL0     H96886  -1.141   1.970   1.489 -0.9781  1.0051 -1.0829
  718MOL0     H96887  -1.106   1.831   1.395 -1.1736 -0.1723 -0.7345
  718MOL0     H96888  -1.344   1.881   1.352 -0.8010 -0.8285 -2.7116
  718MOL0     H96889  -1.252   1.892   1.214 -0.7420  0.2714 -0.9108
  718MOL0     H96890  -1.380   2.291   1.380  0.4062  0.3087 -0.5270
  718MOL0     H96891  -1.689   2.416   1.505  2.0631 -0.0837  0.3803
  718MOL0     H96892  -1.535   2.469   1.451 -0.5480  0.1717  0.8543
  718MOL0     H96893  -1.680   2.475   1.338 -1.4741 -0.5323 -0.9409
  718MOL0     H96894  -2.037   2.422   1.119 -0.0239  2.0229 -0.0159
  718MOL0     H96895  -2.277   2.433   1.086  1.4604 -2.9582 -0.8290
  718MOL0     H96896  -2.517   2.510   1.443  2.4633 -4.1203 -0.9941
  718MOL0     H96897  -2.496   2.618   1.303  0.6950 -0.6127  0.4641
  718MOL0     H96898  -2.697   2.497   1.196  0.8391  2.3969  0.3286
  718MOL0     H96899  -2.694   2.387   1.327  2.2255 -0.5352 -1.0272
  718MOL0     H96900  -2.746   2.698   1.330  0.2800  0.3434  0.5454
  718MOL0     H96901  -2.777   2.585   1.469 -1.6337  0.2146  0.5000
  718MOL0     H96902  -2.933   2.601   1.199  1.0846 -0.8290 -0.5287
  718MOL0     H96903  -2.950   2.480   1.321  1.5752 -1.0717  0.5895
  718MOL0     H96904  -2.995   2.786   1.394  0.6569 -0.1488  1.4903
  718MOL0     H96905  -3.029   2.649   1.493 -0.8516 -2.1670 -1.1703
  718MOL0     H96906  -3.167   2.671   1.228 -2.5282  2.1993 -0.2451
  718MOL0     H96907  -3.200   2.570   1.371 -1.9700  1.4655  2.6510
  718MOL0     H96908  -3.254   2.875   1.372  2.0470 -0.0195 -2.0091
  718MOL0     H96909  -3.266   2.775   1.508  1.7879 -0.3797  0.5231
  718MOL0     H96910  -3.481   2.762   1.454  0.9101  0.3257  1.0264
  718MOL0     H96911  -3.429   2.630   1.339  1.0168 -1.0864  2.0048
  718MOL0     H96912  -2.344   2.381   1.510 -1.9030  2.1223 -0.9370
  718MOL0     H96913  -2.103   2.332   1.533  0.7968 -1.7193  0.6639
  718MOL0     H96914  -1.763   2.011   1.226 -0.7841 -0.0515  0.8800
  718MOL0     H96915  -1.527   1.929   1.213  2.2371 -0.0710  0.9945
  718MOL0     H96916   0.656   2.242   1.428 -0.0646 -0.1290  1.5702
  718MOL0     H96917   0.833   2.079   1.507 -0.3940  2.7061 -1.5624
  718MOL0     H96918   0.968   1.607   1.481 -0.8994  3.5896 -2.5273
  718MOL0     H96919   1.148   1.451   1.536  0.7499 -1.2012 -2.2993
  718MOL0     H96920   1.356   1.385   1.657 -0.7246  2.9998 -0.0868
  718MOL0     H96921   1.332   1.326   1.488  0.1102 -0.2166 -0.1367
  718MOL0     H96922   1.594   1.346   1.622  2.1534 -0.0851 -1.6644
  718MOL0     H96923   1.581   1.298   1.468 -0.6389  1.0491 -0.1472
  718MOL0     H96924   1.407   1.104   1.522  1.2481  2.1733 -1.9184
  718MOL0     H96925   1.445   1.143   1.693 -0.5244  2.1136  0.1953
  718MOL0     H96926   1.638   1.087   1.469 -2.1733  5.1530 -0.6113
  718MOL0     H96927   1.586   0.957   1.592 -0.1137  0.7217 -0.3344
  718MOL0     H96928   1.896   1.137   1.795 -0.4173  0.4279  0.9297
  718MOL0     H96929   1.439   1.740   1.423  0.7394 -0.9287 -3.7388
  718MOL0     H96930   1.255   1.906   1.380  1.4536 -1.2670 -2.0784
  719MOL0     O96931   9.814   3.999   0.938 -0.5185  0.6502 -0.0814
  719MOL0     C96932   9.891   4.096   0.942  0.0388 -0.6677  0.2085
  719MOL0     O96933   9.855   4.223   0.961 -0.8064  0.1034  0.4413
  719MOL0     C96934   9.718   4.251   0.969 -0.1719 -0.2372  0.5283
  719MOL0     C96935   9.623   4.199   0.882 -0.6190 -0.6134  0.2733
  719MOL0     C96936   9.483   4.211   0.906 -0.0024  0.0556  0.8930
  719MOL0     C96937   9.435   4.299   1.001  0.1566  1.4378 -0.2961
  719MOL0     O96938   9.298   4.322   1.007  1.1451  0.0272 -0.0994
  719MOL0     C96939   9.255   4.458   1.013 -0.5348 -0.2480  0.1505
  719MOL0     C96940   9.103   4.464   0.992  0.4770 -0.3485 -0.4142
  719MOL0     C96941   9.041   4.601   1.050 -0.5092  0.7138 -0.1265
  719MOL0     C96942   8.900   4.621   0.998 -0.3794  0.3331  0.6606
  719MOL0     C96943   8.859   4.764   0.981 -0.2478 -0.2498 -0.3064
  719MOL0     C96944   8.741   4.788   0.881  0.4114  1.0367  0.3094
  719MOL0     C96945   8.615   4.755   0.949 -0.1838 -0.6165 -1.0414
  719MOL0     C96946   8.497   4.783   0.852 -0.4442 -0.4555  0.3183
  719MOL0     N96947   8.384   4.858   0.912 -0.4384  0.3240 -0.4911
  719MOL0     C96948   8.296   4.788   1.003  0.9262 -0.6784  0.2077
  719MOL0     C96949   8.209   4.888   1.038  0.5245  0.0232  0.3931
  719MOL0     C96950   8.093   4.879   1.128 -0.1613  1.1381  0.5678
  719MOL0     C96951   7.960   4.868   1.044 -0.6296 -0.4368  0.1514
  719MOL0     C96952   7.956   4.762   0.936  0.5140 -0.0403 -0.4465
  719MOL0     C96953   7.819   4.763   0.865 -0.4523 -0.5510  0.7189
  719MOL0     O96954   7.721   4.692   0.940  0.5966  0.3864 -0.0780
  719MOL0     C96955   7.585   4.719   0.939  0.7453 -0.1783  0.3335
  719MOL0     C96956   7.508   4.657   1.041 -0.3948 -1.0627 -0.3530
  719MOL0     C96957   7.373   4.676   1.053  1.5693 -0.9323 -0.1626
  719MOL0     C96958   7.293   4.593   1.153 -0.7741  0.4142  0.1694
  719MOL0     C96959   7.305   4.767   0.967 -0.7194  0.4680 -0.0533
  719MOL0     C96960   7.162   4.786   0.961  0.8938 -0.4325  0.0619
  719MOL0     O96961   7.076   4.679   0.994 -0.7613 -0.3102 -0.2472
  719MOL0     C96962   6.950   4.718   1.020  0.4157 -0.2482 -0.3542
  719MOL0     C96963   6.914   4.732   1.150  0.1064 -0.0449 -0.6803
  719MOL0     C96964   6.785   4.753   1.188  0.4564  0.7048 -0.4282
  719MOL0     C96965   6.678   4.762   1.092  0.1534  0.5608  0.3060
  719MOL0     O96966   6.544   4.798   1.125 -0.1215  0.9617  0.4254
  719MOL0     C96967   6.512   4.784   1.262 -1.1405  0.2457 -0.3615
  719MOL0     C96968   6.358   4.769   1.291 -0.3865  0.7145 -0.2926
  719MOL0     C96969   6.330   4.710   1.439  0.9984 -0.5673  0.5200
  719MOL0     C96970   6.181   4.684   1.466  0.3337  1.1334  1.1391
  719MOL0     C96971   6.096   4.810   1.471 -0.2173  0.3433 -0.6423
  719MOL0     C96972   5.952   4.753   1.494 -0.5294 -0.0726  0.1819
  719MOL0     C96973   5.857   4.876   1.476 -0.1436  0.7839 -0.3754
  719MOL0     C96974   5.717   4.819   1.501 -0.1234 -0.7082  1.1187
  719MOL0    Cl96975   5.593   4.950   1.483 -0.0099 -0.2492  0.0801
  719MOL0     C96976   6.711   4.744   0.958  0.1498 -0.0408 -0.4220
  719MOL0     C96977   6.850   4.717   0.928 -0.2570  0.3564  0.2707
  719MOL0     O96978   7.124   4.902   0.938  0.4878  0.1367 -0.6937
  719MOL0     C96979   7.388   4.828   0.863 -0.2124 -0.0069 -0.2345
  719MOL0     C96980   7.524   4.809   0.851  0.7080  0.5637 -0.0569
  719MOL0     N96981   8.250   5.005   0.981  0.0251  0.0801 -0.0165
  719MOL0     N96982   8.348   4.986   0.903 -0.4422 -0.3373 -0.9984
  719MOL0     C96983   9.528   4.363   1.083  0.3680  0.3454  0.1665
  719MOL0     C96984   9.667   4.337   1.065  0.1174 -0.2441 -0.2844
  719MOL0     C96985  10.032   4.054   0.951  0.8145  0.6762  0.0160
  719MOL0     C96986  10.128   4.139   0.899 -0.0238  1.0184 -0.7671
  719MOL0     C96987  10.265   4.102   0.896  0.3498  0.1867  0.6162
  719MOL0     C96988  10.310   3.977   0.953 -0.0785  0.1641 -0.2316
  719MOL0     O96989  10.439   3.934   0.958 -0.5871  1.2510 -0.4776
  719MOL0     C96990  10.527   4.005   0.881  0.3658 -0.0550  0.1141
  719MOL0     C96991  10.661   3.959   0.894 -0.2537 -0.6745  0.0884
  719MOL0     C96992  10.759   4.061   0.823 -0.5771  0.6353 -0.5647
  719MOL0     C96993  10.706   4.139   0.703 -0.2037  0.2777 -0.5496
  719MOL0     C96994  10.815   4.218   0.638  0.7244 -0.7695 -0.3610
  719MOL0     C96995  10.899   4.276   0.575  0.0756  0.0525  1.3011
  719MOL0     C96996  10.208   3.907   1.015 -1.5367  0.4916 -0.1873
  719MOL0     C96997  10.076   3.939   1.011  1.2509 -0.2497 -0.0874
  719MOL0     H96998   9.655   4.137   0.799 -0.9760 -0.2135 -0.1629
  719MOL0     H96999   9.412   4.154   0.847  2.2429 -0.1413 -1.8695
  719MOL0     H97000   9.270   4.509   1.109 -3.7338  0.6742  0.2977
  719MOL0     H97001   9.304   4.513   0.933  0.2926 -1.0987  0.0582
  719MOL0     H97002   9.088   4.473   0.884 -0.3265  1.3976 -0.1859
  719MOL0     H97003   9.049   4.384   1.042  1.3420  0.3129  1.6723
  719MOL0     H97004   9.039   4.596   1.160 -0.7190 -2.3570 -0.1821
  719MOL0     H97005   9.100   4.685   1.011  3.4925 -0.8180  2.0288
  719MOL0     H97006   8.899   4.572   0.900  2.0082  1.9089 -0.2270
  719MOL0     H97007   8.826   4.566   1.058  0.1658 -1.8553 -0.5575
  719MOL0     H97008   8.840   4.802   1.082 -0.7156 -2.6506  0.5684
  719MOL0     H97009   8.938   4.831   0.946  0.6580 -1.5535 -0.8258
  719MOL0     H97010   8.753   4.891   0.846  0.8406  0.9867  0.3017
  719MOL0     H97011   8.753   4.729   0.790  3.8201 -0.0383  1.3061
  719MOL0     H97012   8.615   4.655   0.993  2.1581  1.2198  3.9194
  719MOL0     H97013   8.610   4.818   1.038  2.0312 -0.2198 -1.1334
  719MOL0     H97014   8.460   4.689   0.811  1.5001 -0.7527 -0.8489
  719MOL0     H97015   8.536   4.834   0.764  0.0319 -0.6505  0.4156
  719MOL0     H97016   8.303   4.690   1.048  2.0271 -0.4199  0.6311
  719MOL0     H97017   8.110   4.791   1.190 -5.0730 -0.5354 -0.0475
  719MOL0     H97018   8.081   4.970   1.188 -0.7540 -0.6633  3.3830
  719MOL0     H97019   7.943   4.961   0.989 -1.6086 -0.5868  0.1835
  719MOL0     H97020   7.875   4.855   1.112 -0.9816  0.2275 -0.1537
  719MOL0     H97021   7.977   4.668   0.988 -0.0666 -0.0844 -0.2816
  719MOL0     H97022   8.025   4.784   0.854 -0.5184  0.5985 -1.1735
  719MOL0     H97023   7.825   4.715   0.768  0.9612  3.4221 -1.4126
  719MOL0     H97024   7.784   4.864   0.839 -0.5809 -1.0230 -1.0011
  719MOL0     H97025   7.555   4.583   1.106 -0.9728 -0.1379  1.1731
  719MOL0     H97026   7.225   4.523   1.104  0.2077 -1.4588  1.4041
  719MOL0     H97027   7.354   4.530   1.218  1.5076  3.1519  0.9061
  719MOL0     H97028   7.240   4.663   1.219 -2.0436 -0.0278 -0.3457
  719MOL0     H97029   6.986   4.728   1.231 -0.5190 -3.6379 -0.1260
  719MOL0     H97030   6.762   4.765   1.294  1.0112  1.1949 -0.3551
  719MOL0     H97031   6.559   4.694   1.302 -0.4788  1.3182  1.4532
  719MOL0     H97032   6.552   4.875   1.308  0.2163  2.0046 -4.5228
  719MOL0     H97033   6.315   4.869   1.285  0.2610  1.0618  0.6869
  719MOL0     H97034   6.320   4.704   1.211 -0.7602 -1.1748  1.3488
  719MOL0     H97035   6.374   4.781   1.510 -0.4896  0.5110  0.4257
  719MOL0     H97036   6.392   4.622   1.455  1.7040  0.0855  1.5662
  719MOL0     H97037   6.138   4.623   1.386 -0.8096  3.8562 -0.4576
  719MOL0     H97038   6.187   4.623   1.557  1.0467 -3.2437 -1.5263
  719MOL0     H97039   6.096   4.866   1.377 -2.1656  0.1606 -0.7728
  719MOL0     H97040   6.130   4.870   1.557  2.8115 -1.8706 -0.1115
  719MOL0     H97041   5.924   4.670   1.429 -1.7999 -0.4335  1.1665
  719MOL0     H97042   5.959   4.712   1.595 -0.3396  0.8881  0.5746
  719MOL0     H97043   5.867   4.918   1.375 -2.5278 -0.5973 -1.2741
  719MOL0     H97044   5.885   4.956   1.545 -0.2900  1.8317 -1.4910
  719MOL0     H97045   5.724   4.785   1.604  1.7503  0.2207  1.3392
  719MOL0     H97046   5.699   4.732   1.437  0.6667 -0.3611  0.4009
  719MOL0     H97047   6.627   4.765   0.893  1.2789 -0.6995 -2.1483
  719MOL0     H97048   6.885   4.707   0.826 -0.0332 -1.3857  0.4923
  719MOL0     H97049   7.334   4.880   0.784 -0.4724 -1.1316 -0.8161
  719MOL0     H97050   7.560   4.841   0.754 -1.1030  2.2677 -0.2236
  719MOL0     H97051   9.491   4.428   1.162  1.8272  1.2763  0.1275
  719MOL0     H97052   9.733   4.387   1.135 -1.4283  1.0427  0.3159
  719MOL0     H97053  10.112   4.232   0.845  0.2696  0.5205 -1.7358
  719MOL0     H97054  10.331   4.164   0.836 -1.1812  2.1405  0.8871
  719MOL0     H97055  10.491   4.008   0.777  1.0827 -1.2077 -0.1761
  719MOL0     H97056  10.529   4.108   0.919  1.8068  0.7551 -1.9424
  719MOL0     H97057  10.663   3.861   0.848  1.7878 -0.4302 -0.4065
  719MOL0     H97058  10.686   3.940   0.999 -1.7560 -1.4026  0.3452
  719MOL0     H97059  10.855   4.014   0.801  2.0581  1.7864  6.0980
  719MOL0     H97060  10.790   4.133   0.899  3.0406 -2.3146  1.0882
  719MOL0     H97061  10.623   4.205   0.732  0.2911  0.0533  1.5508
  719MOL0     H97062  10.663   4.060   0.642 -2.4736  0.7618  0.3224
  719MOL0     H97063  10.960   4.322   0.500  0.2069 -1.2397  0.5809
  719MOL0     H97064  10.236   3.818   1.071 -2.6548  1.9495  2.8896
  719MOL0     H97065  10.000   3.877   1.058  0.5564  0.2950 -0.4694
  720MOL0     O97066   2.683   1.982  10.556  0.0700  0.0920 -0.5366
  720MOL0     C97067   2.800   2.000  10.521  1.2680  0.1802  0.8473
  720MOL0     O97068   2.869   1.937  10.417  0.3914  0.6783 -0.3784
  720MOL0     C97069   2.793   1.861  10.323  0.4602  0.2666 -0.4445
  720MOL0     C97070   2.660   1.891  10.275 -0.5052  0.7374 -0.6232
  720MOL0     C97071   2.600   1.817  10.167 -1.0996  0.9820  0.1519
  720MOL0     C97072   2.665   1.696  10.124  1.2164  0.7548  0.1403
  720MOL0     O97073   2.608   1.591  10.050 -0.1118  0.1263  0.0782
  720MOL0     C97074   2.468   1.600  10.032  1.5382  0.0496 -0.8159
  720MOL0     C97075   2.427   1.481   9.945 -0.1667  0.0963 -0.3571
  720MOL0     C97076   2.393   1.362  10.034 -0.1196  0.1902 -0.2107
  720MOL0     C97077   2.348   1.250   9.942 -0.2628 -0.2196 -0.4179
  720MOL0     C97078   2.294   1.138  10.031 -0.2794 -0.4580  0.8438
  720MOL0     C97079   2.145   1.155  10.080  0.3248 -0.0149 -0.6259
  720MOL0     C97080   2.100   1.053  10.185  0.1875  0.4713  0.6592
  720MOL0     C97081   2.094   0.914  10.128 -0.8701  0.8536  0.2883
  720MOL0     N97082   2.001   0.906  10.014  0.6841  0.1102  0.2953
  720MOL0     C97083   1.891   0.992   9.988  0.1311  0.9053  0.3103
  720MOL0     C97084   1.825   0.936   9.882 -0.5183 -0.3214 -0.3966
  720MOL0     C97085   1.687   0.968   9.828  0.9468 -0.3588 -1.1241
  720MOL0     C97086   1.583   0.849   9.851 -0.0083  0.0559  0.1236
  720MOL0     C97087   1.437   0.898   9.818 -0.0171 -0.3468  0.5230
  720MOL0     C97088   1.337   0.792   9.865  0.1274  0.8029 -0.4130
  720MOL0     O97089   1.209   0.799   9.794  0.3095 -0.6544  0.5617
  720MOL0     C97090   1.116   0.708   9.814 -0.0440  0.5629  0.1566
  720MOL0     C97091   1.117   0.608   9.917 -0.7372  0.2447  0.9232
  720MOL0     C97092   1.017   0.520   9.935  0.6924 -0.0213 -0.0829
  720MOL0     C97093   1.028   0.421  10.044 -0.0781  0.4182 -0.5326
  720MOL0     C97094   0.905   0.516   9.847 -0.8091  0.5153 -0.0759
  720MOL0     C97095   0.806   0.412   9.844  1.0106  0.6240 -0.1065
  720MOL0     O97096   0.693   0.455   9.793 -0.4685  0.0267  0.2416
  720MOL0     C97097   0.582   0.373   9.766 -0.3956  0.0355  0.3091
  720MOL0     C97098   0.508   0.398   9.650  0.3061  0.0498  0.8934
  720MOL0     C97099   0.385   0.338   9.641  0.7068  0.4553 -0.3163
  720MOL0     C97100   0.323   0.263   9.742  0.7175  0.6282  1.0277
  720MOL0     O97101   0.208   0.197   9.710  0.3326 -0.3645  0.4998
  720MOL0     C97102   0.097   0.261   9.770  0.7486 -0.9254  0.0176
  720MOL0     C97103  -0.043   0.213   9.713 -0.0699  0.0033  1.0013
  720MOL0     C97104  -0.063   0.060   9.715  0.2051  0.2782 -0.1686
  720MOL0     C97105  -0.190   0.002   9.647 -0.1010 -0.2099  0.2795
  720MOL0     C97106  -0.209  -0.144   9.683 -0.5233 -0.1733 -0.0726
  720MOL0     C97107  -0.325  -0.202   9.609 -0.0085  0.1144 -0.6996
  720MOL0     C97108  -0.459  -0.157   9.671 -0.2307  0.4059  0.5433
  720MOL0     C97109  -0.561  -0.264   9.665 -0.9262  0.4575  1.1391
  720MOL0    Cl97110  -0.701  -0.244   9.766  0.0155  0.1834 -0.1284
  720MOL0     C97111   0.395   0.237   9.858  0.7748  0.4691 -0.0540
  720MOL0     C97112   0.529   0.289   9.862 -0.3301  0.3163 -1.3371
  720MOL0     O97113   0.831   0.292   9.873 -0.1853  0.1199 -0.9591
  720MOL0     C97114   0.890   0.625   9.762  0.2295  0.3605  0.6404
  720MOL0     C97115   0.992   0.722   9.742  1.1030 -0.0104 -0.9965
  720MOL0     N97116   1.901   0.829   9.841  0.2307 -0.2410  0.0120
  720MOL0     N97117   2.002   0.810   9.918 -0.3895  0.4730 -0.3245
  720MOL0     C97118   2.786   1.663  10.180  0.7525 -0.1446 -0.8506
  720MOL0     C97119   2.859   1.746  10.269  0.3175  0.2782 -1.0663
  720MOL0     C97120   2.872   2.089  10.607  0.6471 -1.0129 -0.2417
  720MOL0     C97121   3.000   2.053  10.653  0.3061  1.2301  0.0913
  720MOL0     C97122   3.072   2.137  10.737  1.0300  0.7750  0.6577
  720MOL0     C97123   3.021   2.261  10.779  0.9053 -0.3968 -0.4872
  720MOL0     O97124   3.102   2.340  10.848 -0.3535  0.0088  0.6988
  720MOL0     C97125   3.085   2.483  10.837  0.3247 -0.9877 -0.4903
  720MOL0     C97126   3.219   2.539  10.866  0.0413 -1.3069 -0.4043
  720MOL0     C97127   3.230   2.692  10.903 -0.5254 -0.5498 -0.4488
  720MOL0     C97128   3.153   2.731  11.037 -0.4068  0.4135  0.6118
  720MOL0     C97129   3.205   2.858  11.074  0.0417 -0.0247 -0.0785
  720MOL0     C97130   3.255   2.965  11.105 -0.3725  0.0528  0.1788
  720MOL0     C97131   2.887   2.293  10.742 -0.5331  0.1777 -0.2327
  720MOL0     C97132   2.815   2.209  10.652  0.5241 -0.5446 -1.1757
  720MOL0     H97133   2.607   1.982  10.301 -0.5120  0.4380  0.4483
  720MOL0     H97134   2.503   1.855  10.135 -1.5908  0.0613  0.5141
  720MOL0     H97135   2.409   1.588  10.123  1.0023 -1.2870 -1.3291
  720MOL0     H97136   2.438   1.695   9.987  0.6347 -0.1344 -0.6191
  720MOL0     H97137   2.335   1.510   9.893 -0.1448  1.0250  0.0969
  720MOL0     H97138   2.508   1.462   9.875 -1.5700 -1.5399 -1.6444
  720MOL0     H97139   2.477   1.332  10.099  1.7178  0.8923 -2.1349
  720MOL0     H97140   2.305   1.384  10.094 -0.6940 -0.6477 -0.7277
  720MOL0     H97141   2.267   1.276   9.873 -1.1509 -1.0307  0.2698
  720MOL0     H97142   2.431   1.220   9.878 -0.4302  1.3197 -1.4079
  720MOL0     H97143   2.300   1.050   9.966 -0.2245  1.0650 -1.3226
  720MOL0     H97144   2.355   1.116  10.119  0.7936 -1.9025 -0.2241
  720MOL0     H97145   2.126   1.254  10.123 -0.7495  0.0525 -1.2127
  720MOL0     H97146   2.071   1.148   9.999 -2.2577  0.6269  1.5199
  720MOL0     H97147   2.173   1.055  10.266  1.4634  2.1449 -0.4824
  720MOL0     H97148   2.004   1.075  10.232 -1.8981 -1.5062 -2.3191
  720MOL0     H97149   2.069   0.840  10.205  0.3995  1.0307  0.8899
  720MOL0     H97150   2.197   0.891  10.099 -0.2837  0.6331  2.3689
  720MOL0     H97151   1.858   1.082  10.041 -2.2153 -0.7562  1.8808
  720MOL0     H97152   1.649   1.047   9.893 -0.7930 -1.4064 -0.7830
  720MOL0     H97153   1.692   1.003   9.725  1.7087 -4.3106 -2.6087
  720MOL0     H97154   1.583   0.819   9.957 -0.7584 -0.0463  0.0996
  720MOL0     H97155   1.611   0.764   9.789 -2.2919  0.4155 -1.5122
  720MOL0     H97156   1.425   0.916   9.711  0.8055 -0.0600  0.4747
  720MOL0     H97157   1.418   0.994   9.866  1.1608  1.8542 -3.0355
  720MOL0     H97158   1.321   0.810   9.971  2.0885  2.9912 -0.4125
  720MOL0     H97159   1.375   0.693   9.839 -3.6281 -0.4027 -2.0073
  720MOL0     H97160   1.208   0.577   9.968 -1.7404  0.6894  3.1184
  720MOL0     H97161   1.100   0.343  10.015 -0.5775  0.1408 -1.0299
  720MOL0     H97162   1.075   0.477  10.126 -0.2297 -0.2988  0.0501
  720MOL0     H97163   0.930   0.385  10.076  0.1104  1.6027  1.5368
  720MOL0     H97164   0.550   0.462   9.574 -0.6363 -0.2085  0.1463
  720MOL0     H97165   0.316   0.347   9.557 -0.9416 -0.9743  0.8027
  720MOL0     H97166   0.089   0.238   9.877  1.5010  1.4190  0.6246
  720MOL0     H97167   0.110   0.369   9.768  4.9745 -1.2983 -1.5773
  720MOL0     H97168  -0.113   0.265   9.777  1.9659  2.0272  1.7226
  720MOL0     H97169  -0.067   0.241   9.610  0.0658 -2.0946  0.3385
  720MOL0     H97170  -0.073   0.035   9.821  0.8497 -3.5326 -0.8414
  720MOL0     H97171   0.030   0.014   9.680  0.1378 -0.0069  0.0216
  720MOL0     H97172  -0.280   0.056   9.677  0.2131  0.0124  0.8338
  720MOL0     H97173  -0.189   0.015   9.538 -0.3552  0.9000  0.3943
  720MOL0     H97174  -0.226  -0.153   9.791  0.1560  0.1735  0.0662
  720MOL0     H97175  -0.111  -0.190   9.662 -1.1889 -3.1631  2.5098
  720MOL0     H97176  -0.326  -0.173   9.503 -1.2754  0.5771 -0.5796
  720MOL0     H97177  -0.319  -0.311   9.606  3.5769  0.1884 -0.5749
  720MOL0     H97178  -0.488  -0.058   9.635 -0.0324  0.1936 -0.2184
  720MOL0     H97179  -0.445  -0.146   9.780 -0.7484 -0.3978  0.6957
  720MOL0     H97180  -0.505  -0.355   9.687  1.4137  1.8004  1.0999
  720MOL0     H97181  -0.592  -0.264   9.560 -2.4703 -0.4816  1.5621
  720MOL0     H97182   0.352   0.183   9.942 -0.1968  3.0264  1.1769
  720MOL0     H97183   0.579   0.282   9.958 -3.0989  1.5162  0.3091
  720MOL0     H97184   0.807   0.633   9.693  1.4385 -3.4466 -1.5277
  720MOL0     H97185   0.966   0.802   9.674  0.9558 -0.0596 -0.9975
  720MOL0     H97186   2.822   1.563  10.158 -0.3528 -0.2321 -2.4593
  720MOL0     H97187   2.954   1.725  10.318 -2.3284 -2.1134  3.8389
  720MOL0     H97188   3.045   1.958  10.627 -0.5705  1.2138 -1.4884
  720MOL0     H97189   3.169   2.111  10.779 -0.7735 -2.3397  3.3520
  720MOL0     H97190   3.066   2.518  10.735 -0.2252  1.4545  0.3709
  720MOL0     H97191   3.005   2.523  10.901  0.1465 -0.8488 -0.7936
  720MOL0     H97192   3.275   2.523  10.774 -2.1442 -0.1872 -2.0135
  720MOL0     H97193   3.260   2.489  10.955 -1.0691  1.0916  1.5839
  720MOL0     H97194   3.193   2.753  10.820 -2.1362 -0.5384  0.2317
  720MOL0     H97195   3.333   2.721  10.926 -1.5031  0.0820  4.0722
  720MOL0     H97196   3.188   2.659  11.112  2.5224 -0.1113 -1.0929
  720MOL0     H97197   3.044   2.725  11.030 -0.2571 -0.9536 -1.1216
  720MOL0     H97198   3.302   3.055  11.139 -1.2987  0.4862  0.3664
  720MOL0     H97199   2.835   2.387  10.761 -2.7376 -0.6764 -1.5996
  720MOL0     H97200   2.713   2.233  10.626 -1.0377 -2.3157  2.5622
  721MOL0     O97201   0.717   6.905   8.294  0.8186 -0.5452  0.0282
  721MOL0     C97202   0.760   6.868   8.407  0.1525 -0.5395 -0.5185
  721MOL0     O97203   0.693   6.792   8.508  0.3215 -0.3136  0.2468
  721MOL0     C97204   0.559   6.788   8.504 -0.1000 -0.8055 -0.5789
  721MOL0     C97205   0.474   6.896   8.533  0.5303  0.9601 -0.1491
  721MOL0     C97206   0.335   6.884   8.528  0.2678  0.1593  0.0899
  721MOL0     C97207   0.280   6.749   8.506 -0.6574  0.0591  0.3101
  721MOL0     O97208   0.149   6.730   8.507  0.1969 -0.2771 -0.2359
  721MOL0     C97209   0.082   6.816   8.422 -0.4641  0.2098  0.6876
  721MOL0     C97210  -0.051   6.742   8.396  0.3107 -0.0133  0.1397
  721MOL0     C97211  -0.149   6.802   8.294  0.7042  0.0323 -0.4023
  721MOL0     C97212  -0.288   6.729   8.292  0.5209  0.2457  0.0190
  721MOL0     C97213  -0.380   6.779   8.179  0.7360 -0.1777 -0.9878
  721MOL0     C97214  -0.516   6.740   8.233 -0.3784 -1.1168 -0.4016
  721MOL0     C97215  -0.619   6.772   8.123 -0.2175  0.1547 -0.0213
  721MOL0     C97216  -0.762   6.763   8.162 -0.8306  0.1347 -0.9814
  721MOL0     N97217  -0.840   6.775   8.040  0.0320  0.2588 -0.7817
  721MOL0     C97218  -0.930   6.679   7.990 -0.3859  0.5339  1.0387
  721MOL0     C97219  -0.959   6.723   7.865  0.2381  0.4747 -0.5714
  721MOL0     C97220  -1.040   6.645   7.756 -0.6111  0.2089 -0.3858
  721MOL0     C97221  -1.184   6.599   7.793  1.0270 -0.0849 -0.6346
  721MOL0     C97222  -1.271   6.726   7.787  0.7879  0.2896  0.0841
  721MOL0     C97223  -1.425   6.694   7.804 -0.7754 -0.0908 -0.6897
  721MOL0     O97224  -1.494   6.816   7.840 -0.4812 -0.3410 -0.4762
  721MOL0     C97225  -1.630   6.807   7.853  0.2211  0.7648 -0.1402
  721MOL0     C97226  -1.701   6.685   7.849  0.3267  0.7517  0.0296
  721MOL0     C97227  -1.838   6.676   7.864 -0.1580  0.4138 -0.2621
  721MOL0     C97228  -1.893   6.534   7.877 -0.3796  0.4582 -0.5538
  721MOL0     C97229  -1.908   6.795   7.882  0.7874 -0.5357 -0.2643
  721MOL0     C97230  -2.050   6.803   7.923 -0.1395 -0.6696 -0.7247
  721MOL0     O97231  -2.078   6.913   8.003  1.0985 -0.0838  0.6157
  721MOL0     C97232  -2.211   6.934   8.031  0.0808 -0.5935 -0.0657
  721MOL0     C97233  -2.311   6.953   7.939 -1.0996 -0.0877  0.8658
  721MOL0     C97234  -2.437   6.984   7.969 -0.7443 -0.2366 -0.5776
  721MOL0     C97235  -2.484   6.998   8.101 -0.2388  0.2133 -0.5848
  721MOL0     O97236  -2.612   7.035   8.138  0.0120 -0.2115 -0.3192
  721MOL0     C97237  -2.714   6.960   8.069  0.0581 -0.1828  0.7786
  721MOL0     C97238  -2.845   7.038   8.086  0.2464 -0.2821  1.2642
  721MOL0     C97239  -2.957   6.939   8.033 -1.1874 -0.5896  0.3904
  721MOL0     C97240  -3.069   7.024   7.966 -0.0100  1.0178 -0.1753
  721MOL0     C97241  -3.162   6.931   7.876  0.0136 -0.2169  0.4166
  721MOL0     C97242  -3.269   7.027   7.809  0.6324 -0.3370 -0.4800
  721MOL0     C97243  -3.353   6.934   7.717  0.1489 -0.4766 -0.4366
  721MOL0     C97244  -3.456   7.014   7.636 -0.3716  0.3300 -0.3354
  721MOL0    Cl97245  -3.552   6.917   7.525  0.1230  0.2419  0.2695
  721MOL0     C97246  -2.388   6.978   8.201  0.0586 -0.7131 -0.1035
  721MOL0     C97247  -2.257   6.948   8.165 -0.6635  0.4238  0.0378
  721MOL0     O97248  -2.122   6.712   7.895 -0.1459  0.4213  0.1241
  721MOL0     C97249  -1.835   6.912   7.887  0.0859 -0.1445 -0.8143
  721MOL0     C97250  -1.700   6.929   7.868 -0.0447  0.9068  0.3204
  721MOL0     N97251  -0.914   6.855   7.851 -0.0618 -0.6670 -0.3441
  721MOL0     N97252  -0.846   6.881   7.952 -0.5533 -0.0721  0.6620
  721MOL0     C97253   0.371   6.637   8.500  1.0896 -0.5762  0.5080
  721MOL0     C97254   0.506   6.665   8.499  0.6432  0.2172 -0.0688
  721MOL0     C97255   0.896   6.912   8.442 -0.0674  0.7553  0.7838
  721MOL0     C97256   0.984   6.978   8.348  0.5130  0.3800 -0.3376
  721MOL0     C97257   1.118   7.013   8.387  0.6834  0.0222 -0.0132
  721MOL0     C97258   1.169   6.980   8.513 -0.0998 -0.3682 -0.5062
  721MOL0     O97259   1.295   7.020   8.551  0.2275  0.2971 -0.0126
  721MOL0     C97260   1.316   7.158   8.583  0.6275 -0.4946  0.3348
  721MOL0     C97261   1.251   7.213   8.714 -0.0677  0.4424  0.3644
  721MOL0     C97262   1.297   7.363   8.734 -0.3966 -0.1762  0.7272
  721MOL0     C97263   1.408   7.378   8.844  0.3113 -0.4012  0.6688
  721MOL0     C97264   1.379   7.315   8.974  0.0959  0.0315  0.6523
  721MOL0     C97265   1.376   7.261   9.081 -0.3563  0.5359  0.2721
  721MOL0     C97266   1.086   6.905   8.598 -0.0951 -1.0626  0.5316
  721MOL0     C97267   0.952   6.877   8.564 -0.2938 -0.5108  0.1772
  721MOL0     H97268   0.514   6.997   8.536 -3.4396  2.6778  2.2238
  721MOL0     H97269   0.277   6.972   8.553  0.4346 -0.2068  1.8524
  721MOL0     H97270   0.061   6.914   8.466 -0.4121  0.0026  1.1765
  721MOL0     H97271   0.141   6.844   8.333 -0.0347  0.9650  1.2014
  721MOL0     H97272  -0.029   6.640   8.363 -3.6385 -0.3062 -2.2570
  721MOL0     H97273  -0.105   6.729   8.490 -1.4692  1.8929 -0.5498
  721MOL0     H97274  -0.149   6.906   8.327  1.5598 -0.2146  0.4190
  721MOL0     H97275  -0.104   6.779   8.197 -1.1466 -2.2404 -0.8109
  721MOL0     H97276  -0.272   6.622   8.277 -1.9391  0.0355 -1.7448
  721MOL0     H97277  -0.336   6.747   8.389 -1.3595 -1.7513 -0.4701
  721MOL0     H97278  -0.381   6.888   8.175  1.3036  0.0047  2.0674
  721MOL0     H97279  -0.370   6.725   8.084 -2.1427 -0.1358 -1.4148
  721MOL0     H97280  -0.518   6.633   8.258  2.6687 -0.7686  1.9718
  721MOL0     H97281  -0.557   6.797   8.317  1.1299  1.0562 -1.0500
  721MOL0     H97282  -0.605   6.875   8.090 -2.1122 -0.5534 -3.6148
  721MOL0     H97283  -0.606   6.702   8.040 -0.5455 -0.0299  0.0812
  721MOL0     H97284  -0.786   6.838   8.238  2.1569  0.1872  0.0315
  721MOL0     H97285  -0.783   6.664   8.203  1.2736 -0.7483 -1.8712
  721MOL0     H97286  -0.946   6.575   8.020  0.1964  0.5336  1.3763
  721MOL0     H97287  -1.031   6.710   7.668  2.3871 -0.3550 -0.5869
  721MOL0     H97288  -0.983   6.559   7.719 -2.0890 -0.4765 -1.1720
  721MOL0     H97289  -1.199   6.558   7.893 -3.5958 -1.0316 -1.5176
  721MOL0     H97290  -1.214   6.523   7.721 -2.0711 -0.2062  0.6553
  721MOL0     H97291  -1.267   6.786   7.696 -1.1579  0.3143 -0.0137
  721MOL0     H97292  -1.233   6.789   7.868  0.5100 -1.4559  1.6251
  721MOL0     H97293  -1.435   6.617   7.882 -0.0001 -0.4339 -0.9108
  721MOL0     H97294  -1.459   6.641   7.715 -3.6140 -0.6505  0.6171
  721MOL0     H97295  -1.650   6.589   7.844  0.4684  0.8828 -1.7655
  721MOL0     H97296  -1.968   6.530   7.957 -1.6444 -2.4917 -1.7213
  721MOL0     H97297  -1.945   6.497   7.788 -1.6280 -1.2173  0.7777
  721MOL0     H97298  -1.815   6.460   7.895 -2.0050 -1.1577  0.2031
  721MOL0     H97299  -2.293   6.925   7.836 -1.0000  0.6181  0.6861
  721MOL0     H97300  -2.498   6.989   7.880 -2.6237 -2.5797  0.4679
  721MOL0     H97301  -2.693   6.932   7.965 -4.0792 -2.1253  0.2804
  721MOL0     H97302  -2.714   6.861   8.116 -1.0369 -1.5066 -1.8142
  721MOL0     H97303  -2.854   7.074   8.189  0.0810  1.0120  0.8153
  721MOL0     H97304  -2.836   7.128   8.024  1.9626  1.1850  3.4692
  721MOL0     H97305  -3.006   6.885   8.114 -2.7675 -0.6604 -0.5714
  721MOL0     H97306  -2.913   6.883   7.950 -3.7648  0.5384 -1.8891
  721MOL0     H97307  -3.122   7.078   8.044  1.8881  4.1128 -0.8610
  721MOL0     H97308  -3.018   7.104   7.911 -0.4512 -0.5077 -3.0151
  721MOL0     H97309  -3.216   6.867   7.947 -0.1929  0.9826  1.3923
  721MOL0     H97310  -3.099   6.875   7.807 -2.4571 -2.7116 -0.0116
  721MOL0     H97311  -3.326   7.072   7.891 -1.2293 -1.3923 -1.1212
  721MOL0     H97312  -3.229   7.112   7.754 -5.0424  1.9422 -1.7998
  721MOL0     H97313  -3.406   6.856   7.773  1.5578  0.2151  2.0122
  721MOL0     H97314  -3.278   6.893   7.648  1.1278 -0.8666  0.8356
  721MOL0     H97315  -3.401   7.098   7.593 -2.1588  0.8153 -1.7978
  721MOL0     H97316  -3.517   7.063   7.713 -0.1677  0.1422 -0.0520
  721MOL0     H97317  -2.408   7.000   8.306 -0.5738  0.0838 -0.3840
  721MOL0     H97318  -2.179   6.953   8.240 -1.6068 -1.4041  1.2082
  721MOL0     H97319  -1.887   7.005   7.908  1.2321 -0.0985  2.3182
  721MOL0     H97320  -1.652   7.027   7.874  0.5534  0.5458  1.8542
  721MOL0     H97321   0.333   6.535   8.503 -0.2548 -0.0874  0.7714
  721MOL0     H97322   0.573   6.584   8.471 -0.9932 -0.5855 -1.8551
  721MOL0     H97323   0.945   7.012   8.252  0.7480  0.0098 -0.5657
  721MOL0     H97324   1.179   7.064   8.314  2.3878 -1.2595  0.4504
  721MOL0     H97325   1.424   7.181   8.583  0.7052 -0.7937 -1.2265
  721MOL0     H97326   1.276   7.215   8.499  0.9431 -2.0307 -0.8878
  721MOL0     H97327   1.286   7.154   8.799  0.9137 -0.8087 -0.8526
  721MOL0     H97328   1.143   7.199   8.713  0.1242 -1.1844 -0.3023
  721MOL0     H97329   1.212   7.425   8.765  0.7462  1.8311  0.0221
  721MOL0     H97330   1.339   7.402   8.641  2.7417  0.7466  2.4029
  721MOL0     H97331   1.430   7.484   8.862 -1.4162 -0.2336  2.0707
  721MOL0     H97332   1.503   7.333   8.815  1.3965  2.5097 -0.7163
  721MOL0     H97333   1.359   7.214   9.176 -2.8243  1.6919  0.4616
  721MOL0     H97334   1.127   6.882   8.695 -0.4834 -1.2612  0.6511
  721MOL0     H97335   0.891   6.828   8.639 -1.1545  1.0494  0.5602
  722MOL0     O97336   2.138   9.205  10.138 -0.3780  0.4914  0.1637
  722MOL0     C97337   2.197   9.241  10.239 -0.1034  0.2992  0.1054
  722MOL0     O97338   2.138   9.257  10.356  0.2169  0.0118  0.0380
  722MOL0     C97339   1.998   9.267  10.365  0.1443  0.4272  0.6607
  722MOL0     C97340   1.933   9.249  10.494  0.3719  0.4207 -0.0170
  722MOL0     C97341   1.795   9.263  10.510 -0.1787  0.7358 -0.6085
  722MOL0     C97342   1.714   9.303  10.406 -0.1724  0.1567 -0.1834
  722MOL0     O97343   1.584   9.318  10.414  0.0722  0.0618 -0.5499
  722MOL0     C97344   1.512   9.190  10.416 -0.8569  0.7465  0.1462
  722MOL0     C97345   1.364   9.208  10.422  0.1285 -0.1886 -0.1587
  722MOL0     C97346   1.325   9.289  10.299  1.1813 -0.0001 -0.1665
  722MOL0     C97347   1.189   9.364  10.316  0.0189  0.0378  0.4114
  722MOL0     C97348   1.174   9.449  10.440 -0.5586  0.0378 -0.4162
  722MOL0     C97349   1.061   9.566  10.429  0.1252 -0.3660  0.5159
  722MOL0     C97350   0.935   9.486  10.438  0.1240  0.4182  1.2774
  722MOL0     C97351   0.807   9.563  10.446 -0.5855 -0.1496 -0.7728
  722MOL0     N97352   0.799   9.658  10.335  0.4631  1.3313 -0.4325
  722MOL0     C97353   0.869   9.771  10.328 -0.1284 -0.4429 -1.2143
  722MOL0     C97354   0.857   9.811  10.202  1.6727  0.2627 -0.4913
  722MOL0     C97355   0.900   9.937  10.139  0.3595  0.4689 -1.0717
  722MOL0     C97356   0.798  10.025  10.065  0.1940 -0.5555 -0.1202
  722MOL0     C97357   0.695  10.073  10.169  0.7032 -0.0250  0.0895
  722MOL0     C97358   0.581  10.159  10.114  0.6250 -0.3008 -0.1543
  722MOL0     O97359   0.500  10.194  10.218 -0.3702 -0.4214 -0.1361
  722MOL0     C97360   0.380  10.256  10.172  0.3546  0.6946  0.3127
  722MOL0     C97361   0.264  10.212  10.242  0.4969  1.3513 -0.1390
  722MOL0     C97362   0.140  10.265  10.209  0.0544 -0.7701  0.1815
  722MOL0     C97363   0.027  10.212  10.298  0.0637  0.0102  0.5919
  722MOL0     C97364   0.117  10.352  10.103 -0.3001  0.6987  0.7094
  722MOL0     C97365  -0.013  10.390  10.042  0.6007  0.3801  0.0750
  722MOL0     O97366  -0.013  10.494   9.944  0.3596  0.4707  0.0953
  722MOL0     C97367  -0.132  10.561   9.912 -0.1808 -0.1489  0.0969
  722MOL0     C97368  -0.263  10.506   9.896 -0.2050  0.1510  0.7999
  722MOL0     C97369  -0.368  10.592   9.878  0.0361  0.0666 -0.1448
  722MOL0     C97370  -0.358  10.732   9.880  0.1188 -0.2176 -0.2099
  722MOL0     O97371  -0.471  10.808   9.868 -0.1561  1.2247 -0.1153
  722MOL0     C97372  -0.545  10.819   9.992  0.2708 -0.0390  0.2894
  722MOL0     C97373  -0.474  10.927  10.083 -0.0550 -0.1455  0.0079
  722MOL0     C97374  -0.563  11.007  10.178 -0.4359 -1.1844  0.4809
  722MOL0     C97375  -0.543  10.969  10.324 -0.1225 -0.8262  0.1895
  722MOL0     C97376  -0.650  11.031  10.419  0.9584  0.6507  0.1650
  722MOL0     C97377  -0.795  10.976  10.415 -0.4335 -0.0899  0.4573
  722MOL0     C97378  -0.887  11.050  10.512  0.1572  0.4285 -0.6196
  722MOL0     C97379  -1.035  11.030  10.467  0.4789 -0.5484  0.8629
  722MOL0    Cl97380  -1.079  10.858  10.477 -0.0742 -0.1646 -0.5131
  722MOL0     C97381  -0.229  10.790   9.887 -0.0936  0.1476 -0.2109
  722MOL0     C97382  -0.117  10.701   9.905  0.1552 -0.0887  0.0976
  722MOL0     O97383  -0.112  10.337  10.093  0.0528  0.4353  0.2453
  722MOL0     C97384   0.236  10.396  10.040  0.2629 -0.1835  0.3761
  722MOL0     C97385   0.361  10.344  10.070  0.5394 -0.1153 -0.5340
  722MOL0     N97386   0.767   9.727  10.134 -0.4317 -0.8910 -0.8346
  722MOL0     N97387   0.734   9.634  10.219  0.5472  0.6044  0.2902
  722MOL0     C97388   1.778   9.340  10.285 -0.1625  0.7165  0.7088
  722MOL0     C97389   1.920   9.330  10.266  0.2807  0.7389 -0.8953
  722MOL0     C97390   2.343   9.260  10.233 -0.1633  0.8469  0.1550
  722MOL0     C97391   2.413   9.262  10.102 -0.1540 -0.5221 -0.7260
  722MOL0     C97392   2.552   9.271  10.090  0.2233  0.2820 -0.8813
  722MOL0     C97393   2.633   9.254  10.212 -0.5725  1.1040 -0.4163
  722MOL0     O97394   2.770   9.237  10.212  0.0974 -0.2741 -0.5546
  722MOL0     C97395   2.843   9.249  10.088  0.8360  0.2419  0.0179
  722MOL0     C97396   2.990   9.234  10.101  0.0778 -0.6288  0.8466
  722MOL0     C97397   3.021   9.116  10.183  0.0777  0.1567 -0.3209
  722MOL0     C97398   3.163   9.110  10.245  0.3292 -0.2367 -0.5669
  722MOL0     C97399   3.179   8.976  10.312  0.5938 -0.5982  0.6902
  722MOL0     C97400   3.181   8.879  10.378 -0.1175 -0.1528  0.1965
  722MOL0     C97401   2.561   9.263  10.339 -0.3409  0.4420  0.0773
  722MOL0     C97402   2.422   9.264  10.350  1.1563 -0.4953  0.0760
  722MOL0     H97403   1.999   9.246  10.580  0.0363  1.7934  0.2967
  722MOL0     H97404   1.755   9.247  10.610  0.4120 -0.5027 -0.5512
  722MOL0     H97405   1.547   9.126  10.334  0.2533  1.4189  0.0703
  722MOL0     H97406   1.545   9.132  10.502  2.0268  1.6918 -0.2179
  722MOL0     H97407   1.324   9.106  10.420 -1.6636  0.4900 -0.3780
  722MOL0     H97408   1.322   9.258  10.509  1.7779 -0.5982  0.9337
  722MOL0     H97409   1.405   9.361  10.282  5.0944 -3.6590  0.9139
  722MOL0     H97410   1.322   9.224  10.211 -2.6256 -1.4321  0.8141
  722MOL0     H97411   1.167   9.425  10.228 -0.4546 -1.3344 -0.4549
  722MOL0     H97412   1.105   9.294  10.309 -0.3892  0.6135 -0.6329
  722MOL0     H97413   1.155   9.385  10.527  2.0740 -3.6571 -2.3135
  722MOL0     H97414   1.269   9.500  10.460 -2.0193  1.6091  3.6963
  722MOL0     H97415   1.062   9.642  10.508  1.9871 -1.2831  1.4399
  722MOL0     H97416   1.076   9.619  10.335 -2.9857  1.9622  1.1845
  722MOL0     H97417   0.927   9.423  10.349  1.2391  0.4553  1.1462
  722MOL0     H97418   0.948   9.417  10.523  1.3418  1.4164  1.9244
  722MOL0     H97419   0.814   9.611  10.544 -0.0976 -2.1288  0.2181
  722MOL0     H97420   0.736   9.480  10.443  0.7322 -1.4221  0.8765
  722MOL0     H97421   0.925   9.804  10.415  0.0167 -2.2520 -0.5732
  722MOL0     H97422   0.958   9.994  10.212  2.9397 -1.3146 -1.5928
  722MOL0     H97423   0.974   9.894  10.070  0.3901  1.2783 -1.5705
  722MOL0     H97424   0.743   9.961   9.995 -1.0142 -2.1775  2.1529
  722MOL0     H97425   0.849  10.103  10.009 -0.6580  0.1965  0.1278
  722MOL0     H97426   0.756  10.122  10.245  0.9268  0.5263 -0.4385
  722MOL0     H97427   0.642   9.991  10.218 -2.1449  0.8303 -1.3497
  722MOL0     H97428   0.521  10.110  10.037 -0.5877  1.8626 -0.6428
  722MOL0     H97429   0.618  10.246  10.060 -3.1205 -0.4948 -3.4868
  722MOL0     H97430   0.276  10.133  10.316  2.7347 -1.6288 -3.3463
  722MOL0     H97431  -0.046  10.285  10.333 -0.0421 -0.3538  1.1347
  722MOL0     H97432  -0.024  10.135  10.240  1.1317 -2.8472  3.2032
  722MOL0     H97433   0.080  10.161  10.379  0.2548 -2.3651 -0.9474
  722MOL0     H97434  -0.282  10.400   9.892  0.4480  0.0220  0.8990
  722MOL0     H97435  -0.457  10.530   9.873 -0.5186  0.7545  0.9293
  722MOL0     H97436  -0.643  10.858   9.963  1.2972  0.1102 -3.3962
  722MOL0     H97437  -0.555  10.723  10.044  2.3712  2.1496  5.3963
  722MOL0     H97438  -0.404  10.865  10.141  1.0899 -1.0329 -2.2366
  722MOL0     H97439  -0.414  10.999  10.028 -0.1361  0.0958  0.2282
  722MOL0     H97440  -0.667  11.008  10.144 -0.0682 -1.4503 -0.7011
  722MOL0     H97441  -0.511  11.103  10.170  0.7776 -1.6690  2.0459
  722MOL0     H97442  -0.548  10.861  10.336 -0.7725 -0.6460  1.6737
  722MOL0     H97443  -0.443  11.005  10.351  0.0735 -1.1632 -0.0826
  722MOL0     H97444  -0.649  11.138  10.394 -0.4649  0.8317  0.7358
  722MOL0     H97445  -0.613  11.022  10.521 -0.1975 -3.7338  0.4147
  722MOL0     H97446  -0.838  10.996  10.316  0.1755 -1.9081 -0.2049
  722MOL0     H97447  -0.796  10.868  10.425 -2.1167 -0.3577 -1.7835
  722MOL0     H97448  -0.870  11.158  10.513  0.0992  0.5038  2.4078
  722MOL0     H97449  -0.873  11.015  10.615  0.2561  0.6384 -0.5614
  722MOL0     H97450  -1.057  11.071  10.368 -0.1366  1.7663  1.8983
  722MOL0     H97451  -1.107  11.078  10.533 -0.0096  0.6682 -0.5073
  722MOL0     H97452  -0.226  10.899   9.885 -2.2678  0.2344 -1.5696
  722MOL0     H97453  -0.015  10.738   9.906  0.9689 -2.0830 -1.4038
  722MOL0     H97454   0.234  10.471   9.962 -0.4927  0.2526  0.8005
  722MOL0     H97455   0.446  10.373  10.009  0.1851  0.0233 -0.9599
  722MOL0     H97456   1.719   9.384  10.206  2.8644  0.1819 -2.0312
  722MOL0     H97457   1.968   9.384  10.185  2.7878  2.9185  1.7893
  722MOL0     H97458   2.343   9.258  10.019 -1.1733 -1.4229  0.1441
  722MOL0     H97459   2.595   9.275   9.990 -1.7074 -1.4852 -1.8617
  722MOL0     H97460   2.817   9.164  10.024 -0.3838  1.7568 -1.5858
  722MOL0     H97461   2.821   9.337  10.027  1.2407 -0.3153 -0.9346
  722MOL0     H97462   3.035   9.320  10.151  2.0644 -0.7673 -0.5629
  722MOL0     H97463   3.037   9.228  10.002  0.6847 -1.6018  1.1807
  722MOL0     H97464   3.024   9.030  10.116 -1.4175 -0.6106  0.5366
  722MOL0     H97465   2.951   9.099  10.266  1.1600 -0.6839  0.4719
  722MOL0     H97466   3.170   9.195  10.314 -0.6195 -1.4104  1.0326
  722MOL0     H97467   3.238   9.119  10.166 -0.8171  0.1824 -1.6357
  722MOL0     H97468   3.182   8.798  10.448  2.4677  1.5801  2.3489
  722MOL0     H97469   2.633   9.255  10.420 -0.3473 -0.6994 -0.0128
  722MOL0     H97470   2.385   9.271  10.452  0.5841  1.2643 -0.2243
  723MOL0     O97471   4.535   3.750   9.281 -0.0453 -0.1898  0.6408
  723MOL0     C97472   4.562   3.632   9.290  0.5568  0.3414  0.5913
  723MOL0     O97473   4.679   3.569   9.266  0.4950 -1.1809 -0.6369
  723MOL0     C97474   4.789   3.639   9.222  0.4231 -0.7509 -0.0712
  723MOL0     C97475   4.785   3.727   9.113  0.6531  0.1152  0.6736
  723MOL0     C97476   4.894   3.800   9.077  0.5300  0.0658 -0.6140
  723MOL0     C97477   5.012   3.801   9.161  0.3561  0.2544  0.2616
  723MOL0     O97478   5.122   3.877   9.136 -0.4027 -0.5677  0.9898
  723MOL0     C97479   5.099   4.015   9.099 -0.4875  0.3387 -0.4007
  723MOL0     C97480   5.052   4.088   9.233  0.8738 -1.0936  0.5719
  723MOL0     C97481   5.067   4.233   9.220 -0.8571  0.0086  0.0613
  723MOL0     C97482   4.970   4.320   9.293  0.3510 -0.1706 -0.5125
  723MOL0     C97483   4.847   4.352   9.220  0.8068  0.3860  0.6232
  723MOL0     C97484   4.761   4.451   9.291  0.2216 -0.2516 -0.5517
  723MOL0     C97485   4.627   4.462   9.211  0.1414 -0.8558  0.4333
  723MOL0     C97486   4.644   4.539   9.079 -0.0580  0.4272  0.2653
  723MOL0     N97487   4.522   4.539   8.994 -0.5823 -0.1490 -0.7519
  723MOL0     C97488   4.404   4.593   9.034  0.0275 -0.1019  0.0731
  723MOL0     C97489   4.312   4.558   8.938 -0.7101  0.1393 -0.0535
  723MOL0     C97490   4.171   4.597   8.924  0.0722  0.1890 -0.7913
  723MOL0     C97491   4.085   4.552   9.045 -0.1352  0.0711 -0.0145
  723MOL0     C97492   4.103   4.402   9.067 -0.0111  0.2193 -0.3977
  723MOL0     C97493   4.041   4.323   8.948 -0.6088  0.1168  0.3243
  723MOL0     O97494   3.920   4.376   8.894 -0.0036  0.4266  0.7260
  723MOL0     C97495   3.809   4.309   8.935 -0.3720 -1.1211  0.6449
  723MOL0     C97496   3.761   4.275   9.060 -0.3294 -1.0774  0.2371
  723MOL0     C97497   3.640   4.210   9.075 -0.3684 -0.2459  1.1918
  723MOL0     C97498   3.604   4.173   9.215  0.7715  0.2435 -0.5477
  723MOL0     C97499   3.560   4.178   8.971 -0.8370 -0.1215  0.7916
  723MOL0     C97500   3.416   4.139   8.977 -0.4565 -0.3044 -0.6656
  723MOL0     O97501   3.340   4.166   8.868  0.0226  0.3284 -1.0839
  723MOL0     C97502   3.208   4.154   8.890  0.7594  0.1693  1.1985
  723MOL0     C97503   3.137   4.040   8.855 -0.4287  0.7487 -0.1151
  723MOL0     C97504   2.998   4.036   8.883 -0.3560  0.6048 -0.1997
  723MOL0     C97505   2.928   4.139   8.944 -0.2202  0.5365 -0.1476
  723MOL0     O97506   2.796   4.113   8.980 -0.0462  0.1975  0.0039
  723MOL0     C97507   2.742   4.216   9.064  0.3521  0.5621  0.3855
  723MOL0     C97508   2.603   4.174   9.124 -0.0422  0.0617 -0.5230
  723MOL0     C97509   2.542   4.278   9.209  0.9314  0.4106  0.3026
  723MOL0     C97510   2.392   4.233   9.250 -0.4776 -0.5252  0.4613
  723MOL0     C97511   2.321   4.334   9.339 -0.4576  0.0067 -0.3901
  723MOL0     C97512   2.176   4.286   9.357 -0.6212 -0.0660 -0.1520
  723MOL0     C97513   2.090   4.397   9.412  0.1923 -0.0911  0.0116
  723MOL0     C97514   2.126   4.413   9.566  0.2058 -0.0671  0.1944
  723MOL0    Cl97515   2.013   4.302   9.650 -0.3157 -0.2495 -0.1301
  723MOL0     C97516   3.002   4.260   8.957  0.7572  0.2787 -0.7259
  723MOL0     C97517   3.134   4.268   8.925 -0.3117 -0.6160  0.8442
  723MOL0     O97518   3.387   4.069   9.068  0.2776  0.0636  0.4760
  723MOL0     C97519   3.610   4.205   8.842  0.8978  0.2269  0.1373
  723MOL0     C97520   3.734   4.261   8.824  0.3373 -0.7602  0.2250
  723MOL0     N97521   4.374   4.459   8.857  0.0821  0.1638 -0.3208
  723MOL0     N97522   4.493   4.461   8.886 -0.4356  0.2923  0.3737
  723MOL0     C97523   5.013   3.712   9.269  0.0872  0.5096 -0.2831
  723MOL0     C97524   4.910   3.635   9.301  0.0559  0.3082  0.5983
  723MOL0     C97525   4.451   3.536   9.324  0.1826  0.2394  0.4223
  723MOL0     C97526   4.457   3.402   9.283 -0.7318  0.3795  0.4153
  723MOL0     C97527   4.344   3.321   9.300 -0.2366 -0.0999  0.5173
  723MOL0     C97528   4.239   3.374   9.369  1.1568  0.4001 -0.1979
  723MOL0     O97529   4.130   3.290   9.379 -1.2098  0.0816 -0.2815
  723MOL0     C97530   4.056   3.277   9.256  0.8048 -0.8676 -0.0844
  723MOL0     C97531   3.929   3.201   9.299 -0.6940  0.4709  0.5981
  723MOL0     C97532   3.838   3.276   9.398  0.1853  0.2634 -0.5148
  723MOL0     C97533   3.700   3.195   9.406 -0.0354  0.5230  0.3663
  723MOL0     C97534   3.713   3.062   9.461 -0.6766 -0.4969  0.0396
  723MOL0     C97535   3.723   2.960   9.522  0.0201 -0.3991  0.0279
  723MOL0     C97536   4.233   3.497   9.423  1.0931  0.1675 -0.7053
  723MOL0     C97537   4.332   3.581   9.391  0.1277 -0.7458  0.6456
  723MOL0     H97538   4.702   3.713   9.044  0.9971 -0.1721  0.3105
  723MOL0     H97539   4.892   3.866   8.990  0.4526 -2.1790 -2.4100
  723MOL0     H97540   5.187   4.064   9.058 -1.9552  1.5937 -2.2280
  723MOL0     H97541   5.029   4.031   9.016 -0.9444  0.8250  0.0675
  723MOL0     H97542   4.944   4.070   9.236  0.6061  0.4382  1.2259
  723MOL0     H97543   5.097   4.047   9.324  0.1194 -0.4058  1.2739
  723MOL0     H97544   5.163   4.268   9.259 -0.0312 -0.6895 -1.2494
  723MOL0     H97545   5.066   4.257   9.113  1.5119  0.3769  0.0716
  723MOL0     H97546   4.956   4.291   9.397  0.1151 -3.6981 -1.3983
  723MOL0     H97547   5.014   4.419   9.296 -0.5786  0.2356  0.7357
  723MOL0     H97548   4.873   4.390   9.121  1.8695 -0.6839  0.4621
  723MOL0     H97549   4.790   4.261   9.203  2.5115 -0.4214 -1.1028
  723MOL0     H97550   4.738   4.432   9.396  0.3013 -2.3735 -0.8886
  723MOL0     H97551   4.815   4.547   9.299  1.1045 -0.6836 -1.1239
  723MOL0     H97552   4.580   4.365   9.191 -2.3918  0.4615 -0.3351
  723MOL0     H97553   4.558   4.517   9.274  1.1716  2.6627 -1.2682
  723MOL0     H97554   4.724   4.496   9.017  0.8821  2.0958  0.2487
  723MOL0     H97555   4.674   4.640   9.108 -0.8551  0.4979  0.8436
  723MOL0     H97556   4.389   4.648   9.126 -1.2820 -1.5058  0.7400
  723MOL0     H97557   4.158   4.706   8.921  0.9381  0.4529  1.9436
  723MOL0     H97558   4.129   4.569   8.827 -2.1320  2.7707 -0.6817
  723MOL0     H97559   3.977   4.563   9.033 -0.4514 -0.8558  1.6626
  723MOL0     H97560   4.108   4.610   9.135  1.3253 -0.6825  0.1160
  723MOL0     H97561   4.025   4.390   9.143  0.3451 -2.1155 -0.3149
  723MOL0     H97562   4.197   4.357   9.100 -1.4669 -1.0201  2.4438
  723MOL0     H97563   4.025   4.217   8.971 -3.2472  0.8747  2.4993
  723MOL0     H97564   4.115   4.334   8.868  0.1201 -0.4180  0.8999
  723MOL0     H97565   3.820   4.319   9.140  0.7295 -1.0817 -0.5129
  723MOL0     H97566   3.673   4.194   9.298  1.4950  1.1654 -1.3572
  723MOL0     H97567   3.511   4.224   9.239  1.5373  0.8443  1.3625
  723MOL0     H97568   3.607   4.064   9.226 -0.7570  0.2277 -0.0622
  723MOL0     H97569   3.185   3.952   8.814  1.4066  0.5988  2.1239
  723MOL0     H97570   2.945   3.948   8.845 -2.3940  2.8932 -3.1311
  723MOL0     H97571   2.805   4.225   9.153 -0.7151 -0.6791  1.3104
  723MOL0     H97572   2.739   4.309   9.007  2.7827  0.4175 -0.0969
  723MOL0     H97573   2.535   4.154   9.041 -1.3023  2.7786 -0.2799
  723MOL0     H97574   2.612   4.096   9.200 -0.5891  2.8396  2.6145
  723MOL0     H97575   2.531   4.373   9.156 -2.0207  0.8248  1.4758
  723MOL0     H97576   2.603   4.297   9.298 -0.3815  0.2300  1.2820
  723MOL0     H97577   2.330   4.239   9.160  0.9240  1.8262 -0.4316
  723MOL0     H97578   2.384   4.134   9.295  0.8187 -1.4575 -1.2233
  723MOL0     H97579   2.314   4.430   9.286 -1.9697 -0.2197 -0.6347
  723MOL0     H97580   2.381   4.350   9.429 -0.4418 -0.5352 -0.2988
  723MOL0     H97581   2.143   4.259   9.256 -2.9847 -1.5293  0.9185
  723MOL0     H97582   2.178   4.196   9.418  2.4952  0.5555  0.8126
  723MOL0     H97583   1.984   4.399   9.388 -0.1347 -1.4391  1.1808
  723MOL0     H97584   2.127   4.490   9.368 -1.0034 -0.5220 -2.0730
  723MOL0     H97585   2.111   4.516   9.598  1.2580  0.9809 -2.3888
  723MOL0     H97586   2.229   4.384   9.589 -0.3509 -0.4192  2.5131
  723MOL0     H97587   2.946   4.347   8.990  0.0630 -0.4354  0.0146
  723MOL0     H97588   3.186   4.364   8.925 -0.3664 -0.4122 -2.9682
  723MOL0     H97589   3.555   4.191   8.749  2.1994 -0.8126 -0.5044
  723MOL0     H97590   3.775   4.280   8.726  1.4933  0.0999  0.8429
  723MOL0     H97591   5.099   3.708   9.335 -0.5760 -4.3385  0.7154
  723MOL0     H97592   4.911   3.572   9.390  1.3426  1.7245  1.6443
  723MOL0     H97593   4.548   3.356   9.247 -1.4993 -1.3286  0.5658
  723MOL0     H97594   4.339   3.214   9.281 -1.3764  0.1056 -0.5134
  723MOL0     H97595   4.022   3.373   9.215  0.8478 -1.6647 -2.0679
  723MOL0     H97596   4.117   3.224   9.183 -0.4828 -0.4170 -1.5302
  723MOL0     H97597   3.963   3.110   9.349 -0.9517  0.2234  0.3257
  723MOL0     H97598   3.874   3.174   9.208  1.6379  0.5797 -0.9276
  723MOL0     H97599   3.817   3.379   9.370  1.6590  1.2029  1.6206
  723MOL0     H97600   3.885   3.287   9.496 -0.5033 -0.8077 -0.0382
  723MOL0     H97601   3.648   3.203   9.310 -0.1183  1.8838  0.4939
  723MOL0     H97602   3.636   3.258   9.469  1.1172  0.5712  1.5123
  723MOL0     H97603   3.718   2.863   9.566  1.9907 -2.0525 -3.0398
  723MOL0     H97604   4.140   3.530   9.469 -1.7344 -2.5790 -3.8536
  723MOL0     H97605   4.326   3.687   9.412  2.1907 -0.0141 -1.9090
  724MOL0     O97606   4.777   4.493   2.619  1.2771  0.4030 -0.6985
  724MOL0     C97607   4.778   4.509   2.745  0.1640  0.1646 -0.1251
  724MOL0     O97608   4.669   4.521   2.823 -0.3787  0.1530  0.2347
  724MOL0     C97609   4.551   4.463   2.780  0.2665 -1.1770  0.6751
  724MOL0     C97610   4.437   4.509   2.836  0.7756 -0.2173 -0.1699
  724MOL0     C97611   4.305   4.449   2.807  0.2804  0.2857 -0.2419
  724MOL0     C97612   4.299   4.342   2.718 -0.3856  0.0355  0.0853
  724MOL0     O97613   4.182   4.272   2.696  0.0092 -0.8685 -0.2060
  724MOL0     C97614   4.076   4.363   2.656 -1.0955 -0.2605  1.1434
  724MOL0     C97615   3.989   4.275   2.567  0.5934 -0.3228 -0.1943
  724MOL0     C97616   3.846   4.323   2.563 -0.2646 -0.2701 -0.3994
  724MOL0     C97617   3.754   4.240   2.470  0.0708  0.2005 -0.0429
  724MOL0     C97618   3.631   4.326   2.429  0.6156 -0.0112 -0.3987
  724MOL0     C97619   3.555   4.245   2.322  0.4452  1.6683 -0.3114
  724MOL0     C97620   3.515   4.104   2.382 -0.2648 -0.4772  0.0098
  724MOL0     C97621   3.395   4.046   2.323 -0.2712  0.2908 -0.3724
  724MOL0     N97622   3.271   4.117   2.355  0.0345  0.0023  0.9901
  724MOL0     C97623   3.204   4.196   2.270 -0.1116 -0.7988 -0.1906
  724MOL0     C97624   3.095   4.236   2.341 -0.0705  0.3703  1.1589
  724MOL0     C97625   2.997   4.339   2.282 -0.5710  0.3156 -0.1997
  724MOL0     C97626   3.006   4.459   2.376  0.1475  0.4650 -0.9612
  724MOL0     C97627   2.899   4.569   2.350  0.1297 -0.5797 -0.3000
  724MOL0     C97628   2.888   4.673   2.465  0.0867  0.4355  0.6363
  724MOL0     O97629   2.795   4.785   2.423  0.1271 -0.1421  0.0608
  724MOL0     C97630   2.669   4.761   2.389  0.0817 -0.2610 -0.8872
  724MOL0     C97631   2.600   4.643   2.434 -1.2215 -0.6252 -0.1996
  724MOL0     C97632   2.461   4.631   2.401 -0.3593  0.0143 -0.5692
  724MOL0     C97633   2.382   4.509   2.452  0.2079 -0.3594 -0.6113
  724MOL0     C97634   2.392   4.733   2.335  0.1208 -0.3969  0.2507
  724MOL0     C97635   2.251   4.740   2.325 -0.3097 -0.6438 -0.3609
  724MOL0     O97636   2.181   4.630   2.287  0.3835  0.6509  0.2589
  724MOL0     C97637   2.050   4.649   2.235 -0.6811 -0.1680 -0.1545
  724MOL0     C97638   2.028   4.708   2.112  0.1679  0.0909 -0.0774
  724MOL0     C97639   1.897   4.724   2.067 -0.2219 -0.4782 -0.7767
  724MOL0     C97640   1.787   4.677   2.141  0.0905  0.6563 -0.2191
  724MOL0     O97641   1.660   4.694   2.106  0.3535 -0.6224 -0.4908
  724MOL0     C97642   1.639   4.718   1.963  0.0177  0.6761  0.1086
  724MOL0     C97643   1.493   4.709   1.937 -0.0174 -0.0225 -0.1690
  724MOL0     C97644   1.448   4.795   1.813 -0.4114 -0.3268 -0.2647
  724MOL0     C97645   1.531   4.749   1.691  0.4564  0.1603 -0.5038
  724MOL0     C97646   1.450   4.786   1.572 -0.4909 -0.7901  0.0289
  724MOL0     C97647   1.535   4.768   1.450 -0.1939  0.9204  0.2608
  724MOL0     C97648   1.449   4.756   1.326 -0.1370 -0.0870  0.0200
  724MOL0     C97649   1.525   4.764   1.193 -0.6537 -0.2543 -0.1243
  724MOL0    Cl97650   1.619   4.618   1.164 -0.5186 -0.3087 -0.5241
  724MOL0     C97651   1.813   4.616   2.264 -0.2577  0.0785  0.0183
  724MOL0     C97652   1.947   4.595   2.316 -0.0178 -0.6014 -0.2275
  724MOL0     O97653   2.202   4.849   2.344  0.3297 -0.7392  0.8504
  724MOL0     C97654   2.465   4.842   2.293  0.2814 -0.6566  0.5839
  724MOL0     C97655   2.594   4.851   2.315  0.0552 -0.1370  0.1821
  724MOL0     N97656   3.102   4.178   2.467 -0.1981 -0.6150  0.4775
  724MOL0     N97657   3.206   4.100   2.468 -0.1992 -0.7046 -0.1223
  724MOL0     C97658   4.410   4.303   2.651 -0.6477 -0.3376 -0.3321
  724MOL0     C97659   4.537   4.363   2.682 -1.0414  0.1904 -0.3593
  724MOL0     C97660   4.906   4.533   2.814  0.0603  0.3207  0.7119
  724MOL0     C97661   4.924   4.550   2.948 -0.0357  0.5511  0.1022
  724MOL0     C97662   5.054   4.560   3.005 -0.1139 -0.1948  0.7426
  724MOL0     C97663   5.167   4.553   2.932 -0.8021  0.2345 -0.2424
  724MOL0     O97664   5.290   4.565   2.985 -0.0846 -0.3888  0.3101
  724MOL0     C97665   5.404   4.514   2.926 -0.4451  0.2369 -0.2258
  724MOL0     C97666   5.527   4.538   3.022 -1.0400  0.7077 -0.4685
  724MOL0     C97667   5.645   4.436   2.987  0.6688 -0.0069  0.8371
  724MOL0     C97668   5.771   4.440   3.078 -0.0526  0.6345  0.2284
  724MOL0     C97669   5.886   4.518   3.034  0.6943 -0.7540 -0.4230
  724MOL0     C97670   5.989   4.584   3.009  0.2853  0.6911  0.3937
  724MOL0     C97671   5.157   4.537   2.792  0.5748 -0.0871 -0.5144
  724MOL0     C97672   5.027   4.522   2.744 -0.0915 -0.4603 -1.1616
  724MOL0     H97673   4.437   4.584   2.914  1.1267 -0.7643  0.3725
  724MOL0     H97674   4.214   4.486   2.852  1.8594  2.1275  1.6717
  724MOL0     H97675   4.012   4.400   2.737 -1.8914  1.3129 -0.1437
  724MOL0     H97676   4.113   4.450   2.601  0.9234  0.0965  2.9036
  724MOL0     H97677   4.022   4.269   2.463 -2.3464 -3.2254 -1.1163
  724MOL0     H97678   3.980   4.175   2.608  0.5478 -0.5804 -0.8178
  724MOL0     H97679   3.806   4.297   2.661 -1.1046 -0.0605 -0.6791
  724MOL0     H97680   3.832   4.429   2.540 -2.9360 -1.1512 -3.8141
  724MOL0     H97681   3.815   4.232   2.380  0.1556  1.4322 -0.1162
  724MOL0     H97682   3.734   4.142   2.513 -1.0983  1.1796  1.7986
  724MOL0     H97683   3.567   4.351   2.514  0.7911 -2.1165  0.4175
  724MOL0     H97684   3.675   4.415   2.383 -1.2038  0.5553 -1.1034
  724MOL0     H97685   3.473   4.316   2.307  1.9159  3.1579 -1.8997
  724MOL0     H97686   3.621   4.236   2.235 -1.4886 -1.6096 -1.5993
  724MOL0     H97687   3.598   4.036   2.361  0.1196  0.4642 -1.7184
  724MOL0     H97688   3.500   4.109   2.490 -1.6840 -0.5613 -0.1727
  724MOL0     H97689   3.387   3.940   2.348  1.2685  0.4090  0.7634
  724MOL0     H97690   3.413   4.058   2.216  0.5458  2.9716 -0.0138
  724MOL0     H97691   3.236   4.213   2.168  1.4155  2.1488  0.6854
  724MOL0     H97692   3.041   4.373   2.188  0.3690  0.5628  0.3100
  724MOL0     H97693   2.899   4.292   2.277 -0.2810 -0.1490 -2.2401
  724MOL0     H97694   3.102   4.510   2.377  0.0103  0.8687  2.4205
  724MOL0     H97695   2.986   4.426   2.478 -1.3755  0.1781 -1.3179
  724MOL0     H97696   2.803   4.527   2.319  0.3272 -1.8742  0.7825
  724MOL0     H97697   2.933   4.632   2.267 -0.4688  2.6881  1.7214
  724MOL0     H97698   2.991   4.704   2.483  0.5564 -0.1866 -0.7851
  724MOL0     H97699   2.851   4.623   2.555  3.0748 -0.2891  1.5640
  724MOL0     H97700   2.649   4.568   2.494  0.2581  1.5635  1.4878
  724MOL0     H97701   2.337   4.448   2.374 -0.0406 -0.2355 -0.5657
  724MOL0     H97702   2.451   4.446   2.510 -0.9542 -0.0042  1.2394
  724MOL0     H97703   2.295   4.540   2.511  1.1186  0.4668  0.3488
  724MOL0     H97704   2.111   4.752   2.058  0.3822  1.5840  1.3714
  724MOL0     H97705   1.872   4.780   1.977 -0.5306 -0.3716 -0.6278
  724MOL0     H97706   1.682   4.811   1.925 -0.1687  1.2561  1.2710
  724MOL0     H97707   1.700   4.640   1.915  2.0094  1.0841  1.8088
  724MOL0     H97708   1.454   4.608   1.918  1.0764 -0.1292 -2.1732
  724MOL0     H97709   1.445   4.752   2.025 -1.7369 -2.4979  0.2400
  724MOL0     H97710   1.486   4.897   1.825  1.7743 -1.3414  2.8152
  724MOL0     H97711   1.340   4.802   1.793 -0.3350 -3.8183 -3.0282
  724MOL0     H97712   1.627   4.801   1.684  1.0715 -0.9725 -0.8117
  724MOL0     H97713   1.555   4.643   1.700 -1.2350 -0.4984 -2.8294
  724MOL0     H97714   1.416   4.890   1.583 -1.3103 -1.0351 -0.1118
  724MOL0     H97715   1.361   4.728   1.548  1.6511 -2.9482 -3.4542
  724MOL0     H97716   1.602   4.850   1.421 -1.4027  2.0440  0.5596
  724MOL0     H97717   1.596   4.678   1.453 -1.2383  0.2367  2.2131
  724MOL0     H97718   1.377   4.838   1.328 -0.4507 -0.2486 -2.1581
  724MOL0     H97719   1.387   4.666   1.323 -2.6773  1.4074  2.5451
  724MOL0     H97720   1.599   4.844   1.202 -0.5407 -0.2777 -0.8122
  724MOL0     H97721   1.448   4.787   1.119 -3.1534 -1.7212  1.8774
  724MOL0     H97722   1.729   4.581   2.322 -0.6855 -0.0652 -0.6702
  724MOL0     H97723   1.953   4.551   2.415 -2.2787  0.9083  0.6704
  724MOL0     H97724   2.437   4.924   2.226  1.7228  1.5185  2.5137
  724MOL0     H97725   2.649   4.930   2.264 -0.1620  1.2319  1.9604
  724MOL0     H97726   4.405   4.223   2.578 -1.5626 -1.0892  0.5259
  724MOL0     H97727   4.620   4.315   2.630 -2.2179 -0.3504 -1.8197
  724MOL0     H97728   4.844   4.561   3.020  1.7882  3.7916  1.8888
  724MOL0     H97729   5.075   4.574   3.111  2.4474 -0.0075  0.2609
  724MOL0     H97730   5.378   4.409   2.914 -0.5482  0.4424 -2.1782
  724MOL0     H97731   5.431   4.555   2.828  2.1784  0.2142  0.4017
  724MOL0     H97732   5.504   4.524   3.128  1.3424 -0.4831 -0.0534
  724MOL0     H97733   5.572   4.638   3.013  0.5888 -0.0351 -0.8889
  724MOL0     H97734   5.683   4.443   2.884  1.9103  3.9885  1.4108
  724MOL0     H97735   5.594   4.341   3.005 -2.9067  1.5409 -0.3280
  724MOL0     H97736   5.803   4.337   3.098  2.1315  1.2299  0.0723
  724MOL0     H97737   5.739   4.481   3.175 -0.7350 -2.4584  1.4679
  724MOL0     H97738   6.087   4.626   3.000  1.4542 -1.5510  1.6970
  724MOL0     H97739   5.241   4.541   2.723  0.0384 -3.5703 -1.5474
  724MOL0     H97740   5.016   4.490   2.641  1.0995  1.2850 -1.8861
  725MOL0     O97741   2.714  10.116   4.462 -0.3141  0.2545  0.3779
  725MOL0     C97742   2.776  10.097   4.568  0.6966 -0.3370 -0.7400
  725MOL0     O97743   2.717  10.038   4.680 -0.0075 -0.1387 -0.1446
  725MOL0     C97744   2.584  10.008   4.660  0.8629 -0.0240  0.4243
  725MOL0     C97745   2.547   9.875   4.626  0.7813 -0.0013 -0.1483
  725MOL0     C97746   2.412   9.845   4.596  0.1352  0.0677 -0.2010
  725MOL0     C97747   2.307   9.936   4.609 -0.1018 -0.7727  0.1187
  725MOL0     O97748   2.178   9.897   4.577 -0.4650  0.1681 -0.4159
  725MOL0     C97749   2.073   9.990   4.598 -0.3999  0.4267  0.1827
  725MOL0     C97750   1.948   9.921   4.538 -0.1943 -0.7281  0.2787
  725MOL0     C97751   1.823  10.000   4.596 -1.8208  0.1172 -0.1843
  725MOL0     C97752   1.695   9.980   4.526  0.7088 -0.3071  0.8464
  725MOL0     C97753   1.667   9.832   4.517  0.3171  0.1866  0.2782
  725MOL0     C97754   1.534   9.828   4.446 -0.4575 -0.3840 -0.4119
  725MOL0     C97755   1.484   9.693   4.412 -0.1488  0.4807  0.2790
  725MOL0     C97756   1.441   9.617   4.540 -0.4765  0.3135 -0.2076
  725MOL0     N97757   1.301   9.653   4.582 -0.1655  0.4296 -0.0000
  725MOL0     C97758   1.196   9.647   4.506 -0.6712 -0.0168 -0.1608
  725MOL0     C97759   1.096   9.693   4.583  0.3650  0.8553  0.3136
  725MOL0     C97760   0.954   9.713   4.537  0.3859  0.3573 -0.1043
  725MOL0     C97761   0.873   9.589   4.566  0.6945  0.8226  0.5087
  725MOL0     C97762   0.865   9.561   4.721  0.2959  0.5892  0.4905
  725MOL0     C97763   0.807   9.675   4.807 -0.2528  0.4190 -1.3609
  725MOL0     O97764   0.689   9.725   4.752 -0.0799 -0.2032 -0.3153
  725MOL0     C97765   0.570   9.657   4.782 -0.0680  0.3300 -0.4396
  725MOL0     C97766   0.557   9.551   4.878  0.0601 -0.3055  0.2404
  725MOL0     C97767   0.438   9.485   4.909  0.5150 -0.4785  0.4873
  725MOL0     C97768   0.439   9.395   5.027 -0.1411 -0.1855 -0.9919
  725MOL0     C97769   0.324   9.505   4.827  0.2301  0.4764  0.0097
  725MOL0     C97770   0.196   9.439   4.849 -0.4707 -0.1425  0.5360
  725MOL0     O97771   0.186   9.330   4.921  0.4162  0.1139 -0.1771
  725MOL0     C97772   0.058   9.290   4.962 -0.9031  0.4873  0.0560
  725MOL0     C97773  -0.014   9.372   5.054  0.1657 -0.7455  0.9798
  725MOL0     C97774  -0.131   9.319   5.107 -0.7615 -0.3591 -0.2128
  725MOL0     C97775  -0.181   9.192   5.081  0.0380 -0.4425 -0.0259
  725MOL0     O97776  -0.289   9.145   5.151 -0.0915 -0.0990  0.8595
  725MOL0     C97777  -0.378   9.045   5.101  0.2278 -0.0056 -0.0030
  725MOL0     C97778  -0.499   9.055   5.188 -1.0053 -0.0421  0.3691
  725MOL0     C97779  -0.615   8.984   5.130  0.3282 -0.2204 -0.8780
  725MOL0     C97780  -0.737   9.024   5.221  0.4323 -0.0366 -0.5040
  725MOL0     C97781  -0.851   8.927   5.203  0.8082  1.3219  0.0677
  725MOL0     C97782  -0.850   8.816   5.304  0.4795  0.1858 -0.3240
  725MOL0     C97783  -0.980   8.736   5.304 -0.2744  0.7696  1.1747
  725MOL0     C97784  -0.985   8.612   5.377 -0.8216  0.2096 -0.2826
  725MOL0    Cl97785  -1.152   8.572   5.424  0.2270  0.4964  0.0216
  725MOL0     C97786  -0.103   9.119   4.991 -0.9773  0.5909  0.2130
  725MOL0     C97787   0.016   9.167   4.935  0.6306 -0.1191  0.3073
  725MOL0     O97788   0.102   9.481   4.782 -0.1368 -0.2298  0.0793
  725MOL0     C97789   0.343   9.603   4.726  1.0507 -0.1472  0.2679
  725MOL0     C97790   0.462   9.677   4.702 -0.1040 -0.4915 -0.6855
  725MOL0     N97791   1.149   9.742   4.703  0.2537  0.5502  0.4000
  725MOL0     N97792   1.266   9.709   4.710 -0.4543  0.0643  0.3190
  725MOL0     C97793   2.344  10.062   4.661  0.4528  0.8269 -0.0490
  725MOL0     C97794   2.474  10.093   4.680 -0.4332 -0.1655 -0.4312
  725MOL0     C97795   2.914  10.138   4.577  0.0484  0.1737  1.2354
  725MOL0     C97796   2.983  10.193   4.464  1.0778  0.5506 -0.2582
  725MOL0     C97797   3.111  10.253   4.483  0.2308  0.1252 -0.3541
  725MOL0     C97798   3.184  10.248   4.608  0.3033 -0.0933 -0.4202
  725MOL0     O97799   3.313  10.296   4.633  0.8768 -0.0068  0.6891
  725MOL0     C97800   3.364  10.399   4.546  1.0426 -0.0073  0.0007
  725MOL0     C97801   3.494  10.458   4.609  0.1701 -0.1122  0.1567
  725MOL0     C97802   3.497  10.616   4.638 -0.4251  0.1429 -1.1990
  725MOL0     C97803   3.411  10.658   4.756 -0.2115  0.4271  0.2767
  725MOL0     C97804   3.442  10.575   4.874 -1.0429  0.9533  0.6581
  725MOL0     C97805   3.469  10.505   4.965  0.3205  0.2324  0.3403
  725MOL0     C97806   3.122  10.170   4.705  0.5902  0.2742  0.3928
  725MOL0     C97807   2.987  10.123   4.694 -0.3894 -0.5340 -0.6562
  725MOL0     H97808   2.637   9.820   4.599  2.7016  3.3416 -1.2076
  725MOL0     H97809   2.388   9.742   4.573 -0.5039 -0.4051  2.3063
  725MOL0     H97810   2.070  10.018   4.704  1.9181 -0.2455  0.4806
  725MOL0     H97811   2.092  10.080   4.541  1.2918 -1.4945 -2.5117
  725MOL0     H97812   1.950   9.952   4.433  0.0510  0.8157  0.7255
  725MOL0     H97813   1.942   9.814   4.560 -1.5500 -0.5966  0.6164
  725MOL0     H97814   1.810   9.975   4.702  1.6581 -1.6607 -0.0212
  725MOL0     H97815   1.855  10.104   4.586  0.8320 -0.7847 -2.7988
  725MOL0     H97816   1.623  10.036   4.586 -0.1066 -0.4417  0.0162
  725MOL0     H97817   1.704  10.024   4.427  0.3269  1.7140  1.6656
  725MOL0     H97818   1.744   9.773   4.465 -0.2101 -0.2911  0.0176
  725MOL0     H97819   1.667   9.782   4.614  0.0009 -0.6756 -0.1527
  725MOL0     H97820   1.459   9.896   4.489 -0.9512 -0.8353 -0.5412
  725MOL0     H97821   1.555   9.887   4.356 -0.6685 -1.9626 -1.5264
  725MOL0     H97822   1.409   9.709   4.334  2.5680  0.7068 -2.5100
  725MOL0     H97823   1.566   9.640   4.362 -2.3091 -1.4076 -1.4562
  725MOL0     H97824   1.509   9.630   4.625 -1.4122 -0.2851  0.6551
  725MOL0     H97825   1.449   9.509   4.523 -1.6635  0.5901 -3.2032
  725MOL0     H97826   1.195   9.613   4.403  1.5830  1.6729 -0.8327
  725MOL0     H97827   0.911   9.803   4.582  3.0745  2.3685 -1.2737
  725MOL0     H97828   0.960   9.722   4.428 -1.2613  0.6647 -0.1935
  725MOL0     H97829   0.917   9.505   4.512  1.2206  2.1100 -1.1390
  725MOL0     H97830   0.772   9.595   4.527 -0.8977 -2.5889  3.4673
  725MOL0     H97831   0.969   9.549   4.756  0.6248  1.0473 -0.3127
  725MOL0     H97832   0.813   9.467   4.742 -1.5736  1.0759 -1.6195
  725MOL0     H97833   0.876   9.760   4.811 -1.3726  1.3829 -1.9529
  725MOL0     H97834   0.794   9.633   4.907 -0.9209  0.4843 -1.4164
  725MOL0     H97835   0.647   9.510   4.923  0.6329  0.6550  0.0006
  725MOL0     H97836   0.345   9.416   5.079 -1.2830 -4.3342 -0.9813
  725MOL0     H97837   0.434   9.290   4.996  0.7989 -0.4429 -0.3169
  725MOL0     H97838   0.527   9.403   5.091 -2.2317 -2.0186  2.3863
  725MOL0     H97839   0.012   9.477   5.063  2.9001 -0.9371 -2.2562
  725MOL0     H97840  -0.176   9.367   5.193 -1.9908 -1.4337 -0.2192
  725MOL0     H97841  -0.396   9.078   4.998  1.1862  0.0547 -0.1586
  725MOL0     H97842  -0.322   8.951   5.103  1.5739  0.7651 -0.2111
  725MOL0     H97843  -0.465   9.028   5.288 -0.1876 -0.4927 -0.0188
  725MOL0     H97844  -0.520   9.162   5.193 -3.3177 -0.2967 -1.7150
  725MOL0     H97845  -0.600   8.875   5.135  3.6067  0.1526 -0.6942
  725MOL0     H97846  -0.643   9.011   5.027  0.0770  1.3619 -0.4137
  725MOL0     H97847  -0.712   9.011   5.327 -1.9240  2.1164  0.4119
  725MOL0     H97848  -0.763   9.130   5.218 -0.7973 -0.3398 -1.1580
  725MOL0     H97849  -0.856   8.868   5.111 -0.9451 -0.5537  1.2684
  725MOL0     H97850  -0.948   8.976   5.204 -0.8848 -1.6066  3.9694
  725MOL0     H97851  -0.760   8.755   5.295  0.9895  0.3256  2.6694
  725MOL0     H97852  -0.849   8.857   5.406 -1.1961 -0.7974  0.1268
  725MOL0     H97853  -1.011   8.718   5.201 -2.6256  1.2675  1.7400
  725MOL0     H97854  -1.051   8.807   5.348 -0.2699 -0.6599  3.6660
  725MOL0     H97855  -0.921   8.617   5.465 -1.2391 -2.9541  0.3248
  725MOL0     H97856  -0.947   8.520   5.330 -0.6835 -1.4660  2.8613
  725MOL0     H97857  -0.136   9.019   4.968 -2.5313  0.7600  1.5785
  725MOL0     H97858   0.075   9.086   4.894 -3.0104 -2.2651 -1.2072
  725MOL0     H97859   0.257   9.635   4.668  1.1315  0.9759  0.7581
  725MOL0     H97860   0.458   9.735   4.610  0.0374 -0.7168 -0.8348
  725MOL0     H97861   2.261  10.132   4.667 -2.2295 -1.8107 -2.8463
  725MOL0     H97862   2.502  10.192   4.715  0.4731 -0.2454 -0.9117
  725MOL0     H97863   2.939  10.188   4.365 -0.0017  2.2069  0.0987
  725MOL0     H97864   3.146  10.312   4.399  0.8059 -1.9387 -1.6197
  725MOL0     H97865   3.387  10.368   4.444  2.1689  0.1614  0.1899
  725MOL0     H97866   3.285  10.474   4.535  0.9801 -0.0971 -0.1591
  725MOL0     H97867   3.576  10.446   4.537  0.3456 -3.8033  0.7403
  725MOL0     H97868   3.536  10.399   4.692  1.4353  2.4373  1.4307
  725MOL0     H97869   3.455  10.664   4.548 -1.2647  4.5875  1.2641
  725MOL0     H97870   3.596  10.652   4.666 -2.4276  3.2671  3.0797
  725MOL0     H97871   3.305  10.645   4.732 -0.8373 -1.7947  3.5620
  725MOL0     H97872   3.414  10.766   4.775  1.9557  0.8930 -2.1334
  725MOL0     H97873   3.498  10.442   5.047  1.1401  0.6743  0.4077
  725MOL0     H97874   3.184  10.140   4.789  0.6716 -0.2843  0.1365
  725MOL0     H97875   2.944  10.051   4.764  1.6366 -0.0685  1.1792
  726MOL0     O97876  10.017   4.481   2.159 -0.3753  0.1316  0.1900
  726MOL0     C97877  10.057   4.475   2.044 -0.4911 -0.1975  0.0890
  726MOL0     O97878   9.981   4.441   1.926 -0.4529  0.1991 -0.9619
  726MOL0     C97879   9.842   4.443   1.924  0.4639 -0.4256 -0.0857
  726MOL0     C97880   9.792   4.386   1.804 -0.4568  0.2823  0.0991
  726MOL0     C97881   9.656   4.379   1.779 -1.1744  0.0758  0.3534
  726MOL0     C97882   9.572   4.416   1.880  0.0840 -0.2029  0.1261
  726MOL0     O97883   9.440   4.415   1.848  0.2651  0.7407 -0.5140
  726MOL0     C97884   9.351   4.436   1.958 -0.1025  0.2632  0.6538
  726MOL0     C97885   9.216   4.398   1.911 -0.5337 -0.5891 -0.5341
  726MOL0     C97886   9.109   4.476   1.985 -0.9200  0.6428 -0.2872
  726MOL0     C97887   8.964   4.436   1.961  0.3284 -0.2913 -0.7098
  726MOL0     C97888   8.863   4.537   2.024  0.1300  0.1290 -0.3452
  726MOL0     C97889   8.723   4.523   1.960  0.6423 -0.1037 -0.5062
  726MOL0     C97890   8.633   4.638   1.997  0.3664  0.5875  0.2627
  726MOL0     C97891   8.488   4.627   1.935  0.1310  0.7119  0.8054
  726MOL0     N97892   8.411   4.503   1.961  0.3242 -0.7327  0.0454
  726MOL0     C97893   8.357   4.485   2.078 -0.1620 -0.4618 -0.0467
  726MOL0     C97894   8.291   4.366   2.058  0.2707 -0.3435 -0.0444
  726MOL0     C97895   8.218   4.283   2.163 -0.5676 -0.2759  0.0107
  726MOL0     C97896   8.136   4.362   2.266 -0.1714 -0.0911 -0.0571
  726MOL0     C97897   8.053   4.284   2.367  0.3982 -0.6294  1.0248
  726MOL0     C97898   7.973   4.169   2.300  0.3572  0.3759  0.1923
  726MOL0     O97899   7.871   4.203   2.205 -0.0887 -0.1165  0.3486
  726MOL0     C97900   7.784   4.108   2.165  0.0864  0.4636  0.0794
  726MOL0     C97901   7.799   3.968   2.182 -0.2645  0.7799  0.0908
  726MOL0     C97902   7.704   3.868   2.147  0.1810 -0.5321  0.6802
  726MOL0     C97903   7.719   3.715   2.170 -0.2193  0.4139 -0.1934
  726MOL0     C97904   7.582   3.931   2.082  0.4243  0.1939 -0.8556
  726MOL0     C97905   7.456   3.854   2.046  0.2402  0.7648 -1.0213
  726MOL0     O97906   7.345   3.922   2.016  0.6954 -0.5881  0.8953
  726MOL0     C97907   7.222   3.857   2.013  0.3252  0.8889  0.1071
  726MOL0     C97908   7.174   3.789   1.900  0.0716 -0.4559  0.0581
  726MOL0     C97909   7.060   3.705   1.917  0.1057 -0.3631 -0.1891
  726MOL0     C97910   6.992   3.701   2.034 -0.5219  1.1083  0.5069
  726MOL0     O97911   6.871   3.627   2.033  0.6208 -0.2445 -0.1477
  726MOL0     C97912   6.862   3.525   2.127  0.6800  0.2852 -1.1608
  726MOL0     C97913   6.769   3.419   2.074  0.3079  0.5214  0.4271
  726MOL0     C97914   6.615   3.453   2.061 -0.4621  0.5194  0.2418
  726MOL0     C97915   6.533   3.329   2.027 -0.5516 -0.0179 -0.9073
  726MOL0     C97916   6.382   3.367   2.026 -0.0405 -0.0029  0.6894
  726MOL0     C97917   6.300   3.243   2.068 -0.6160  0.7125  0.1134
  726MOL0     C97918   6.162   3.291   2.099  0.4626 -0.5571  0.4363
  726MOL0     C97919   6.054   3.169   2.089  0.1107 -0.4690  0.0156
  726MOL0    Cl97920   6.047   3.056   2.229  0.0672 -0.0711 -0.0999
  726MOL0     C97921   7.041   3.777   2.142  0.3751 -0.1081 -0.9210
  726MOL0     C97922   7.155   3.852   2.129  0.8941  0.2710 -0.5486
  726MOL0     O97923   7.461   3.731   2.056  0.8873 -0.3264  0.1031
  726MOL0     C97924   7.577   4.070   2.051 -0.1834 -0.1656 -0.7155
  726MOL0     C97925   7.675   4.156   2.107 -0.2647  0.3637 -0.0619
  726MOL0     N97926   8.282   4.339   1.927  0.3061  0.8337  0.4069
  726MOL0     N97927   8.340   4.435   1.864 -0.0081 -0.0064 -0.4764
  726MOL0     C97928   9.619   4.471   1.999  0.0502  0.2001 -0.3879
  726MOL0     C97929   9.754   4.477   2.021  0.3321  0.4357  0.1430
  726MOL0     C97930  10.208   4.489   2.020  0.6974 -0.4864  0.9746
  726MOL0     C97931  10.247   4.540   1.885 -0.2018  0.0506 -0.4552
  726MOL0     C97932  10.385   4.558   1.860 -1.1858 -0.5846 -0.3823
  726MOL0     C97933  10.484   4.514   1.949  0.3603  0.7198  0.6084
  726MOL0     O97934  10.614   4.513   1.922 -0.4129 -0.1152 -0.1661
  726MOL0     C97935  10.665   4.507   1.786 -0.3613  1.1794 -0.0463
  726MOL0     C97936  10.815   4.459   1.801  0.9008  0.5712  0.2224
  726MOL0     C97937  10.903   4.556   1.876  0.4228 -0.1046  0.0964
  726MOL0     C97938  10.971   4.669   1.802 -0.4000  0.5394  0.8292
  726MOL0     C97939  10.887   4.789   1.783 -0.9109 -0.0429  0.8503
  726MOL0     C97940  10.807   4.876   1.771  0.1078 -0.7010 -0.1978
  726MOL0     C97941  10.445   4.469   2.077  0.3210  1.5747 -0.3098
  726MOL0     C97942  10.307   4.456   2.108 -0.1105 -0.0551 -0.7940
  726MOL0     H97943   9.869   4.350   1.736 -0.8250  0.6284 -0.5077
  726MOL0     H97944   9.609   4.348   1.686 -0.5382  2.9908 -1.0823
  726MOL0     H97945   9.377   4.376   2.045 -2.2807  0.5294  1.5715
  726MOL0     H97946   9.351   4.540   1.992  2.8503 -0.4716  3.2699
  726MOL0     H97947   9.202   4.436   1.809 -0.8107  4.2028  1.0347
  726MOL0     H97948   9.206   4.292   1.932 -1.2555  0.0825  3.2247
  726MOL0     H97949   9.120   4.458   2.093 -0.6863 -1.9801 -0.6722
  726MOL0     H97950   9.122   4.582   1.961 -0.0241  1.5589  3.4710
  726MOL0     H97951   8.955   4.430   1.852 -0.0417  0.2447 -0.7110
  726MOL0     H97952   8.941   4.338   2.002 -2.3360 -1.0123 -3.5849
  726MOL0     H97953   8.863   4.521   2.132 -1.3259  1.2241 -0.1493
  726MOL0     H97954   8.909   4.636   2.017  3.0911 -0.9166  2.0083
  726MOL0     H97955   8.734   4.512   1.852  0.6327 -0.5423 -0.4652
  726MOL0     H97956   8.677   4.429   1.993 -0.4795  0.7825  0.5813
  726MOL0     H97957   8.627   4.654   2.105 -1.1686 -0.4664  0.3720
  726MOL0     H97958   8.674   4.730   1.954  0.5851  1.2478  1.7882
  726MOL0     H97959   8.506   4.652   1.830  3.9154 -0.1124  1.1262
  726MOL0     H97960   8.418   4.706   1.965 -0.0611 -0.1128  2.6172
  726MOL0     H97961   8.388   4.543   2.165  0.3756 -2.0983  0.9080
  726MOL0     H97962   8.143   4.226   2.107 -0.2336  0.6183 -1.3942
  726MOL0     H97963   8.292   4.223   2.217 -1.7413 -0.7338  1.1468
  726MOL0     H97964   8.060   4.419   2.211 -3.6694 -0.7733  3.6638
  726MOL0     H97965   8.206   4.433   2.312 -2.7136  0.3321  3.4802
  726MOL0     H97966   7.991   4.355   2.423  1.3786 -0.3648  1.8007
  726MOL0     H97967   8.129   4.241   2.433  1.0338  1.1985  1.5485
  726MOL0     H97968   7.929   4.112   2.382  1.9784  0.7692  1.3949
  726MOL0     H97969   8.035   4.099   2.243  1.0204 -0.4034  1.7969
  726MOL0     H97970   7.890   3.923   2.220 -0.7923 -0.6524 -0.2778
  726MOL0     H97971   7.693   3.664   2.077  1.4543  1.5891 -1.3740
  726MOL0     H97972   7.824   3.698   2.196 -0.9534 -1.4131  1.9023
  726MOL0     H97973   7.651   3.681   2.248 -1.4371  1.2855 -0.8388
  726MOL0     H97974   7.220   3.795   1.802 -1.9090  0.3814 -0.8637
  726MOL0     H97975   7.022   3.635   1.844 -2.6113  0.9257 -0.1711
  726MOL0     H97976   6.964   3.488   2.141  0.8690  1.1053 -0.1899
  726MOL0     H97977   6.825   3.565   2.222 -0.5779 -2.0616 -0.5875
  726MOL0     H97978   6.814   3.397   1.977  2.6779 -0.9058  1.7389
  726MOL0     H97979   6.774   3.320   2.122 -0.4271  0.0304 -0.4840
  726MOL0     H97980   6.589   3.531   1.989  1.9583 -0.3165 -1.7131
  726MOL0     H97981   6.580   3.486   2.159 -2.2017 -3.2795  1.0897
  726MOL0     H97982   6.567   3.303   1.927  1.8818  0.9710 -0.4043
  726MOL0     H97983   6.549   3.253   2.104 -2.0345  0.7976  0.2866
  726MOL0     H97984   6.339   3.402   1.931 -2.7885 -1.9433  1.0851
  726MOL0     H97985   6.368   3.444   2.102 -2.0203 -0.5672  0.9551
  726MOL0     H97986   6.300   3.175   1.982  0.8967 -0.8469  1.2530
  726MOL0     H97987   6.343   3.195   2.157  0.3594  0.4704 -0.4651
  726MOL0     H97988   6.127   3.366   2.027  0.1719 -0.0398  1.1024
  726MOL0     H97989   6.152   3.333   2.199 -1.3270 -0.8018  0.3857
  726MOL0     H97990   6.072   3.104   2.003 -2.2833 -1.1971 -0.0120
  726MOL0     H97991   5.955   3.217   2.078 -1.1449 -1.6920  4.1451
  726MOL0     H97992   6.992   3.768   2.238 -0.4466 -1.5086 -1.4375
  726MOL0     H97993   7.195   3.917   2.207 -1.1033 -0.6941  1.3825
  726MOL0     H97994   7.501   4.123   1.992 -0.4622  0.1448 -0.0876
  726MOL0     H97995   7.660   4.262   2.092  0.3435  0.1709 -2.4588
  726MOL0     H97996   9.551   4.503   2.077  1.1121  0.9332  0.2420
  726MOL0     H97997   9.787   4.508   2.119  0.8080  3.0250 -0.7557
  726MOL0     H97998  10.178   4.576   1.810  0.2088  0.0306 -0.8410
  726MOL0     H97999  10.415   4.610   1.770  2.4990 -0.6028  0.6682
  726MOL0     H98000  10.611   4.431   1.727  1.1877 -1.9496  2.2532
  726MOL0     H98001  10.653   4.595   1.722 -0.8888  2.2900  1.5264
  726MOL0     H98002  10.838   4.453   1.694 -2.0701 -1.3752 -0.4434
  726MOL0     H98003  10.827   4.358   1.841  1.8500 -1.1240 -3.8208
  726MOL0     H98004  10.977   4.497   1.931  1.7234  0.4774 -0.9736
  726MOL0     H98005  10.848   4.599   1.960 -2.0164  1.5482 -2.1760
  726MOL0     H98006  10.999   4.637   1.702 -1.7862  0.0696  0.5758
  726MOL0     H98007  11.068   4.692   1.848  0.3411  0.1972 -0.5314
  726MOL0     H98008  10.733   4.954   1.766  0.9206  0.1043 -0.0137
  726MOL0     H98009  10.510   4.427   2.153 -2.2930 -1.3197  0.5296
  726MOL0     H98010  10.290   4.423   2.210  4.5174 -5.1400 -1.1999
  727MOL0     O98011   4.757   3.750   4.846  0.6344  0.0968 -0.0039
  727MOL0     C98012   4.872   3.712   4.804 -0.3740 -0.2864  0.2988
  727MOL0     O98013   4.992   3.755   4.862  0.9742  0.1320 -0.4584
  727MOL0     C98014   4.975   3.842   4.972 -0.7558  0.1056  0.6835
  727MOL0     C98015   4.947   3.975   4.959 -0.6144 -0.0919  0.2647
  727MOL0     C98016   4.923   4.047   5.077  0.2836 -0.0237 -0.5800
  727MOL0     C98017   4.933   3.984   5.199  0.3384 -1.1735 -0.0454
  727MOL0     O98018   4.919   4.051   5.323 -0.2261  0.8468  0.1954
  727MOL0     C98019   4.825   4.158   5.322  0.3175 -0.5484 -0.0892
  727MOL0     C98020   4.891   4.302   5.337 -0.0890  0.4860 -0.2826
  727MOL0     C98021   4.804   4.417   5.398  1.3237  0.4560 -0.1497
  727MOL0     C98022   4.661   4.430   5.340  0.1995  0.3806  0.6797
  727MOL0     C98023   4.619   4.574   5.330 -0.7899 -0.5543  0.1984
  727MOL0     C98024   4.477   4.592   5.281  0.8721  0.0546  0.0534
  727MOL0     C98025   4.418   4.738   5.299 -0.3840 -0.0985  0.4408
  727MOL0     C98026   4.496   4.832   5.207 -0.3506  0.6107  1.0068
  727MOL0     N98027   4.455   4.974   5.229  0.2843 -0.3019  0.1355
  727MOL0     C98028   4.387   5.060   5.149  1.2184  0.4418  0.1898
  727MOL0     C98029   4.350   5.167   5.227  0.1022  0.5716  0.0577
  727MOL0     C98030   4.294   5.297   5.178  0.7713  0.1709 -0.3924
  727MOL0     C98031   4.150   5.304   5.134  0.2094  0.2871  0.0852
  727MOL0     C98032   4.061   5.275   5.252 -1.4790  0.9117 -0.5912
  727MOL0     C98033   3.914   5.282   5.225 -0.6972  0.1785  0.1365
  727MOL0     O98034   3.837   5.264   5.340 -0.2899 -0.7517 -0.5847
  727MOL0     C98035   3.703   5.256   5.328  0.8737  0.0730  0.1595
  727MOL0     C98036   3.631   5.296   5.214  0.3113 -0.9633 -0.3352
  727MOL0     C98037   3.487   5.274   5.200 -0.4097 -0.2184  0.2575
  727MOL0     C98038   3.423   5.288   5.067  0.0177  0.6306  0.4266
  727MOL0     C98039   3.417   5.243   5.326 -0.5550 -0.0744  0.1848
  727MOL0     C98040   3.271   5.231   5.347 -0.2365 -0.1804 -0.4986
  727MOL0     O98041   3.207   5.308   5.250 -0.5650  0.3277 -0.5721
  727MOL0     C98042   3.074   5.303   5.230  0.5866  0.0281  0.1137
  727MOL0     C98043   2.970   5.230   5.297 -0.2266  0.5715 -0.4900
  727MOL0     C98044   2.840   5.244   5.256  0.0414  0.5589  0.2595
  727MOL0     C98045   2.801   5.318   5.141 -0.1202  0.4891  0.3599
  727MOL0     O98046   2.667   5.341   5.106  0.0169  0.0477 -0.5847
  727MOL0     C98047   2.599   5.219   5.065  0.5757 -0.4813 -1.2916
  727MOL0     C98048   2.657   5.153   4.942 -1.0254 -0.6975 -0.2343
  727MOL0     C98049   2.565   5.057   4.861 -0.5860  0.0321 -0.1577
  727MOL0     C98050   2.422   5.045   4.909  0.0750 -0.0783 -0.4696
  727MOL0     C98051   2.329   4.949   4.844 -0.9457  0.3712  0.6176
  727MOL0     C98052   2.312   4.957   4.692  0.1390 -0.4616  0.2487
  727MOL0     C98053   2.203   4.859   4.649  1.0326 -0.3165  0.4271
  727MOL0     C98054   2.063   4.927   4.639  0.4601  0.0842  0.2112
  727MOL0    Cl98055   1.996   5.008   4.784  0.0087 -0.1714 -0.5946
  727MOL0     C98056   2.896   5.395   5.084 -0.6404 -0.3083  0.2280
  727MOL0     C98057   3.033   5.377   5.116  0.3778 -0.0425 -0.2272
  727MOL0     O98058   3.214   5.191   5.451  0.0848 -0.1080  0.1101
  727MOL0     C98059   3.494   5.200   5.438 -0.0414  0.1000  0.4904
  727MOL0     C98060   3.632   5.198   5.437  0.4774  0.9695 -0.5372
  727MOL0     N98061   4.398   5.144   5.356 -0.0249  0.5074  0.2277
  727MOL0     N98062   4.468   5.031   5.354  0.9323 -0.0390  0.2661
  727MOL0     C98063   4.959   3.843   5.209 -0.6508  0.8761  1.5105
  727MOL0     C98064   4.983   3.769   5.093  0.6380 -0.2894  0.8656
  727MOL0     C98065   4.893   3.622   4.685  1.2890 -0.7711  0.0810
  727MOL0     C98066   4.783   3.602   4.597 -1.1826  0.0499 -0.6669
  727MOL0     C98067   4.804   3.520   4.485 -0.1274  0.1750 -0.7303
  727MOL0     C98068   4.923   3.457   4.458  0.0447 -0.3552  0.1631
  727MOL0     O98069   4.924   3.393   4.336  0.0014 -0.4706  0.0124
  727MOL0     C98070   5.020   3.283   4.320 -0.0988  1.2200 -1.3147
  727MOL0     C98071   5.130   3.325   4.234 -0.2483  0.2601  0.2387
  727MOL0     C98072   5.246   3.228   4.198 -0.1696 -0.0166 -0.4565
  727MOL0     C98073   5.288   3.154   4.325 -0.3179  0.0621  0.3811
  727MOL0     C98074   5.414   3.082   4.300 -0.0150 -0.5262 -0.3697
  727MOL0     C98075   5.499   3.007   4.275 -0.5902  0.7950  0.6500
  727MOL0     C98076   5.027   3.472   4.557  0.5672  1.1025  0.4527
  727MOL0     C98077   5.013   3.552   4.666  0.7082 -0.1429 -0.1708
  727MOL0     H98078   4.944   4.030   4.865  0.0392  0.1250  0.3640
  727MOL0     H98079   4.905   4.154   5.070  2.0308  0.3216 -0.3938
  727MOL0     H98080   4.751   4.160   5.241  0.1275  1.3102  0.0762
  727MOL0     H98081   4.765   4.133   5.410 -0.4577 -2.3311 -1.0716
  727MOL0     H98082   4.984   4.295   5.394 -0.3791  1.2650  0.2947
  727MOL0     H98083   4.920   4.338   5.238  0.5808  2.2511  0.5255
  727MOL0     H98084   4.799   4.404   5.506 -0.8804 -2.3054 -0.4746
  727MOL0     H98085   4.853   4.513   5.374  0.1396  1.1505  0.1315
  727MOL0     H98086   4.657   4.390   5.238 -0.0490 -1.1886  1.2814
  727MOL0     H98087   4.591   4.362   5.389 -0.5105  0.4641 -0.2086
  727MOL0     H98088   4.636   4.627   5.425  4.1535 -0.7696 -0.3558
  727MOL0     H98089   4.687   4.625   5.262 -1.1251  1.8145  1.5294
  727MOL0     H98090   4.485   4.574   5.173  2.5062  0.6326  0.0533
  727MOL0     H98091   4.411   4.519   5.330 -0.7295  0.3584 -1.5405
  727MOL0     H98092   4.309   4.744   5.289 -0.4552 -0.0726  1.1454
  727MOL0     H98093   4.435   4.762   5.405  0.7259  1.0570  0.0206
  727MOL0     H98094   4.470   4.808   5.104  0.4159 -0.0672  0.9686
  727MOL0     H98095   4.603   4.817   5.220  0.1427  0.8502 -2.0300
  727MOL0     H98096   4.358   5.049   5.045 -1.6101 -1.1885  1.0525
  727MOL0     H98097   4.318   5.381   5.244  0.1945  0.3959 -0.4668
  727MOL0     H98098   4.360   5.316   5.093  0.9371  2.4460  0.1672
  727MOL0     H98099   4.118   5.230   5.060 -1.6641 -0.9708  2.0099
  727MOL0     H98100   4.136   5.403   5.091  2.5387  1.0410  0.9235
  727MOL0     H98101   4.089   5.353   5.324 -0.4640  0.2091 -0.2062
  727MOL0     H98102   4.073   5.177   5.298  0.1733  1.0647 -0.6359
  727MOL0     H98103   3.884   5.213   5.146 -0.3557  0.7127 -0.4780
  727MOL0     H98104   3.902   5.384   5.185  1.0455  0.3980  0.0936
  727MOL0     H98105   3.693   5.344   5.139  0.1127 -1.7852 -1.0482
  727MOL0     H98106   3.497   5.276   4.987  1.9346 -0.8613  2.3217
  727MOL0     H98107   3.369   5.198   5.035  3.7154 -0.9973 -1.8545
  727MOL0     H98108   3.376   5.386   5.052  3.3208  2.2439 -0.3076
  727MOL0     H98109   2.982   5.164   5.382  0.2590  0.9565 -0.2510
  727MOL0     H98110   2.767   5.198   5.321  1.8823 -0.1215  1.9659
  727MOL0     H98111   2.590   5.162   5.158 -1.4152  2.7701  0.7237
  727MOL0     H98112   2.499   5.258   5.044  0.8056  0.5966 -0.4849
  727MOL0     H98113   2.689   5.232   4.873  1.4665  0.2049  1.8080
  727MOL0     H98114   2.751   5.104   4.967  0.4698  3.6799  4.4104
  727MOL0     H98115   2.610   4.957   4.859 -0.6242 -0.0172  0.7872
  727MOL0     H98116   2.562   5.086   4.756  0.4527 -3.2261 -1.2077
  727MOL0     H98117   2.433   5.015   5.014  1.5422 -1.5955 -1.0108
  727MOL0     H98118   2.365   5.137   4.894 -4.3844 -1.9444  2.6856
  727MOL0     H98119   2.229   4.946   4.886 -1.8966 -0.2117 -1.5382
  727MOL0     H98120   2.368   4.850   4.870  0.3211  0.2546 -1.4242
  727MOL0     H98121   2.288   5.060   4.666 -0.7749 -0.5140  0.8052
  727MOL0     H98122   2.409   4.932   4.648 -0.9058 -0.7305 -2.0638
  727MOL0     H98123   2.200   4.770   4.711  1.1993  1.3225  2.9346
  727MOL0     H98124   2.234   4.813   4.555 -0.3168 -3.3613  1.3429
  727MOL0     H98125   1.992   4.855   4.598  2.2977 -0.6981 -1.8291
  727MOL0     H98126   2.075   5.006   4.563 -1.2104  0.9117  0.7653
  727MOL0     H98127   2.863   5.461   5.004 -2.9665 -0.8812  0.6267
  727MOL0     H98128   3.106   5.436   5.062 -1.2771  1.7896 -0.5881
  727MOL0     H98129   3.443   5.150   5.520  1.9493 -1.0272  1.0972
  727MOL0     H98130   3.698   5.158   5.513  0.8388  2.4037 -0.0506
  727MOL0     H98131   4.965   3.794   5.306 -1.0375 -2.4405  0.0059
  727MOL0     H98132   5.001   3.662   5.092 -0.4735 -0.5297  2.7200
  727MOL0     H98133   4.688   3.645   4.627 -0.7769  0.6711 -0.2231
  727MOL0     H98134   4.719   3.503   4.419 -3.9511  0.3057  3.7020
  727MOL0     H98135   5.055   3.239   4.413 -1.0711 -0.4690 -1.7124
  727MOL0     H98136   4.966   3.202   4.270  1.0941 -0.8566  0.6142
  727MOL0     H98137   5.177   3.413   4.279  1.4929  0.2032 -1.3410
  727MOL0     H98138   5.095   3.374   4.142  2.2609  0.5892 -0.6244
  727MOL0     H98139   5.330   3.288   4.162  0.5245  1.1624  2.7894
  727MOL0     H98140   5.224   3.153   4.121  0.8267  0.8163 -1.6055
  727MOL0     H98141   5.215   3.084   4.365 -0.4292 -2.3448 -3.5248
  727MOL0     H98142   5.306   3.227   4.404 -0.3638 -1.0310  1.4142
  727MOL0     H98143   5.584   2.950   4.244  0.7146  2.6869  0.5645
  727MOL0     H98144   5.124   3.425   4.543 -0.3832 -0.7802 -0.1052
  727MOL0     H98145   5.092   3.564   4.740  2.6943  0.6975 -2.3069
  728MOL0     O98146   9.952   2.921   9.240  0.3853  0.1853  0.1786
  728MOL0     C98147   9.999   2.968   9.337  0.0171  0.1290 -0.4096
  728MOL0     O98148   9.981   3.093   9.379 -0.9494  0.5092 -0.6360
  728MOL0     C98149   9.903   3.191   9.313  0.0850 -0.7371 -0.1949
  728MOL0     C98150   9.882   3.188   9.169 -1.1596 -0.2919 -0.4289
  728MOL0     C98151   9.798   3.280   9.105 -0.0220  0.4899 -0.1403
  728MOL0     C98152   9.738   3.380   9.174  0.5146  0.1386  0.3231
  728MOL0     O98153   9.640   3.445   9.101  0.3737 -0.0003  0.1666
  728MOL0     C98154   9.590   3.568   9.154 -0.0282 -0.2642 -0.0290
  728MOL0     C98155   9.475   3.621   9.066  0.9495  0.5835 -0.2400
  728MOL0     C98156   9.519   3.647   8.931 -0.8843  0.5221 -0.5463
  728MOL0     C98157   9.412   3.719   8.847  0.7920 -0.5151 -0.0291
  728MOL0     C98158   9.439   3.867   8.824  0.3111 -0.6246 -0.3951
  728MOL0     C98159   9.459   3.949   8.945  0.3652 -0.2643 -0.0168
  728MOL0     C98160   9.445   4.097   8.930 -0.4721  0.2389  0.7559
  728MOL0     C98161   9.551   4.160   8.831 -0.3857  1.0186  0.5003
  728MOL0     N98162   9.566   4.305   8.812 -0.5559  0.2752 -0.0928
  728MOL0     C98163   9.503   4.378   8.713 -0.4847 -0.6939 -0.4093
  728MOL0     C98164   9.530   4.513   8.751 -0.7212 -0.7839 -0.5289
  728MOL0     C98165   9.457   4.633   8.681  0.0954  0.3761 -0.2415
  728MOL0     C98166   9.375   4.603   8.555 -0.6405 -0.3226 -0.3805
  728MOL0     C98167   9.461   4.589   8.437 -0.7476 -0.1301 -0.3550
  728MOL0     C98168   9.377   4.555   8.310  0.2451  0.9887 -1.0875
  728MOL0     O98169   9.294   4.441   8.340 -0.6043  0.4911  0.7038
  728MOL0     C98170   9.182   4.429   8.264  0.1431 -0.2007 -0.3725
  728MOL0     C98171   9.077   4.362   8.323 -0.1761  0.4956 -0.2983
  728MOL0     C98172   8.951   4.343   8.247  0.0275  0.3643  0.8782
  728MOL0     C98173   8.839   4.278   8.328 -0.6386  0.7270 -0.2331
  728MOL0     C98174   8.940   4.384   8.106  0.1433 -0.1254 -0.7024
  728MOL0     C98175   8.820   4.375   8.031 -0.7228 -0.0847  0.0044
  728MOL0     O98176   8.795   4.470   7.944 -0.6761  0.1244 -0.0858
  728MOL0     C98177   8.669   4.475   7.880 -0.3866 -0.1579 -0.8063
  728MOL0     C98178   8.659   4.481   7.735 -0.4577 -0.1453  0.4124
  728MOL0     C98179   8.529   4.505   7.683  0.0489 -0.7744 -0.1366
  728MOL0     C98180   8.418   4.530   7.767  0.9052 -0.7755  1.0559
  728MOL0     O98181   8.287   4.556   7.728 -0.7370 -0.1882  0.1529
  728MOL0     C98182   8.259   4.543   7.584 -1.5576  0.6716 -0.3299
  728MOL0     C98183   8.114   4.560   7.556  0.5060 -0.6191 -0.4801
  728MOL0     C98184   8.027   4.474   7.635  0.1499  0.3727  0.0762
  728MOL0     C98185   7.874   4.525   7.642 -1.3903 -0.2119  0.4798
  728MOL0     C98186   7.788   4.462   7.745  0.2057  0.1152 -0.9614
  728MOL0     C98187   7.652   4.521   7.724 -0.2910  0.6932 -0.1174
  728MOL0     C98188   7.560   4.469   7.832 -0.0448  0.9600 -0.6141
  728MOL0     C98189   7.472   4.350   7.795 -0.5610  1.0163 -0.1071
  728MOL0    Cl98190   7.327   4.392   7.707  0.0333 -0.4605  0.1021
  728MOL0     C98191   8.429   4.525   7.900 -0.5112  0.1147 -0.2621
  728MOL0     C98192   8.555   4.501   7.960  0.2366  0.5001  0.1663
  728MOL0     O98193   8.764   4.269   8.032 -0.1056  0.5334  0.4055
  728MOL0     C98194   9.056   4.453   8.062  0.3196  0.3420  0.6029
  728MOL0     C98195   9.175   4.466   8.139  0.2890  0.6204  0.0383
  728MOL0     N98196   9.616   4.508   8.860  0.9726  0.4047  0.0585
  728MOL0     N98197   9.619   4.385   8.901 -0.1924 -0.3153  0.6167
  728MOL0     C98198   9.774   3.402   9.307 -0.1986 -0.3232 -0.4740
  728MOL0     C98199   9.857   3.308   9.374  0.5875  0.7942  0.2536
  728MOL0     C98200  10.097   2.885   9.416  0.6101 -0.5397  0.3314
  728MOL0     C98201  10.150   2.768   9.366 -0.1830  0.1960  0.0330
  728MOL0     C98202  10.250   2.703   9.448  0.5038 -0.0074  0.6599
  728MOL0     C98203  10.296   2.758   9.566  0.1010 -0.3386  1.0715
  728MOL0     O98204  10.382   2.686   9.650 -0.6719 -0.1519 -0.3736
  728MOL0     C98205  10.470   2.588   9.594 -0.2983  0.5426 -0.7494
  728MOL0     C98206  10.580   2.634   9.504 -0.2606 -0.3672  0.1502
  728MOL0     C98207  10.669   2.735   9.579 -0.6229 -0.2771  0.5891
  728MOL0     C98208  10.790   2.784   9.491  0.5294  0.2248  0.3644
  728MOL0     C98209  10.882   2.859   9.575 -0.1794  0.1661 -0.6862
  728MOL0     C98210  10.957   2.906   9.652 -0.3659  0.4203 -0.0924
  728MOL0     C98211  10.246   2.876   9.612 -0.2891 -0.1721 -0.4778
  728MOL0     C98212  10.150   2.937   9.542 -0.5953  0.1442  0.8890
  728MOL0     H98213   9.917   3.114   9.098 -0.7871  0.4281 -1.0110
  728MOL0     H98214   9.775   3.285   8.999 -2.4347 -0.0063  0.2976
  728MOL0     H98215   9.544   3.548   9.252  0.1431 -1.8923 -0.2599
  728MOL0     H98216   9.665   3.645   9.175  0.3005 -0.7462  0.6257
  728MOL0     H98217   9.399   3.544   9.056  0.6457  0.8377  0.0753
  728MOL0     H98218   9.424   3.709   9.106 -0.0509 -0.3521  0.5932
  728MOL0     H98219   9.615   3.700   8.939 -0.8378  0.7659 -2.4681
  728MOL0     H98220   9.525   3.549   8.883  1.9074  1.6275 -2.6801
  728MOL0     H98221   9.391   3.673   8.750 -0.6999 -2.9504  1.3536
  728MOL0     H98222   9.320   3.712   8.906  0.9625  0.1219  0.3236
  728MOL0     H98223   9.535   3.886   8.775  2.3949 -0.3440  3.4285
  728MOL0     H98224   9.352   3.900   8.767  0.7180 -1.1743 -1.3609
  728MOL0     H98225   9.386   3.916   9.019  0.8230 -0.2578  0.4426
  728MOL0     H98226   9.559   3.933   8.987  1.8521  5.3705 -0.6583
  728MOL0     H98227   9.349   4.101   8.878  0.4759  3.3898 -0.9563
  728MOL0     H98228   9.444   4.146   9.028  0.2806 -1.9069  1.9113
  728MOL0     H98229   9.532   4.115   8.733  0.9044  1.8826 -0.1907
  728MOL0     H98230   9.651   4.133   8.867  0.0199 -0.1830 -1.3891
  728MOL0     H98231   9.438   4.339   8.635  0.5304  1.0197 -2.2045
  728MOL0     H98232   9.385   4.670   8.754 -2.2230 -0.2807 -2.1087
  728MOL0     H98233   9.526   4.715   8.658 -0.1906  0.8637  0.5964
  728MOL0     H98234   9.313   4.691   8.541 -1.2270 -0.9134 -1.5929
  728MOL0     H98235   9.319   4.511   8.575 -0.7866  0.5131  4.0907
  728MOL0     H98236   9.542   4.517   8.453  1.0975  1.6917 -1.0584
  728MOL0     H98237   9.518   4.675   8.401 -1.5510  0.8547  0.6755
  728MOL0     H98238   9.439   4.543   8.221  1.4568  2.2973 -0.4616
  728MOL0     H98239   9.312   4.641   8.292 -0.1203  1.4592  1.9387
  728MOL0     H98240   9.081   4.328   8.426 -1.3840 -1.1496 -0.7564
  728MOL0     H98241   8.831   4.171   8.304 -2.0909  0.8956 -0.6014
  728MOL0     H98242   8.850   4.289   8.436 -0.5571 -0.3068 -0.1217
  728MOL0     H98243   8.738   4.313   8.305 -0.7543  1.9647  1.9714
  728MOL0     H98244   8.754   4.473   7.683 -0.8374  0.0094 -0.3221
  728MOL0     H98245   8.510   4.520   7.577  4.3233  1.6660 -0.7889
  728MOL0     H98246   8.299   4.628   7.528 -1.0026  0.3232 -0.4656
  728MOL0     H98247   8.307   4.452   7.546  0.2026  1.5399 -0.2550
  728MOL0     H98248   8.074   4.661   7.567  2.3955 -0.0313  1.6797
  728MOL0     H98249   8.102   4.544   7.449  0.4043 -1.6853 -0.3232
  728MOL0     H98250   8.074   4.461   7.733 -2.1234 -2.6879  0.9080
  728MOL0     H98251   8.025   4.375   7.589 -0.4525 -0.4121  1.7377
  728MOL0     H98252   7.871   4.632   7.664 -1.2896 -0.1776  0.3326
  728MOL0     H98253   7.834   4.503   7.543  2.3715 -0.6962 -1.1279
  728MOL0     H98254   7.826   4.498   7.841 -0.1904 -2.4880  0.2743
  728MOL0     H98255   7.787   4.353   7.739 -1.9901 -0.2606  2.7511
  728MOL0     H98256   7.639   4.629   7.726  0.1830  0.8295 -2.5625
  728MOL0     H98257   7.623   4.493   7.623 -1.9186  3.0919 -0.4022
  728MOL0     H98258   7.491   4.547   7.867 -0.0921  0.6587 -0.0237
  728MOL0     H98259   7.619   4.450   7.922 -1.7674 -1.7122  0.0700
  728MOL0     H98260   7.456   4.283   7.880  0.9590 -0.0159 -0.5922
  728MOL0     H98261   7.537   4.291   7.730  0.2306  2.1070 -0.3278
  728MOL0     H98262   8.347   4.552   7.967  0.1929 -0.9029  1.0677
  728MOL0     H98263   8.566   4.505   8.068 -2.6629 -2.2116  0.7095
  728MOL0     H98264   9.059   4.495   7.962 -2.8162  2.8780  1.4039
  728MOL0     H98265   9.263   4.504   8.088  0.6162 -1.0484 -0.7152
  728MOL0     H98266   9.735   3.481   9.370  1.0237  0.6309 -0.8700
  728MOL0     H98267   9.889   3.321   9.477  2.0044 -0.8057  0.0645
  728MOL0     H98268  10.103   2.734   9.274 -1.5193 -0.6742  1.0023
  728MOL0     H98269  10.285   2.613   9.399  3.3303  2.0044 -1.3080
  728MOL0     H98270  10.513   2.534   9.679 -0.7646  2.3533  0.6959
  728MOL0     H98271  10.417   2.517   9.529  1.9214  0.2392 -2.3230
  728MOL0     H98272  10.531   2.679   9.417  1.1254 -1.7830 -1.4418
  728MOL0     H98273  10.646   2.551   9.477 -1.1020 -0.7856 -0.7182
  728MOL0     H98274  10.708   2.697   9.674 -1.7077 -0.0870  1.1229
  728MOL0     H98275  10.614   2.825   9.608 -0.5757 -0.8639  2.6434
  728MOL0     H98276  10.750   2.845   9.409  0.5934 -0.4640 -0.1925
  728MOL0     H98277  10.847   2.698   9.455  1.4016  0.6182  0.7736
  728MOL0     H98278  11.010   2.943   9.737 -1.6562 -2.1965  1.9720
  728MOL0     H98279  10.267   2.907   9.714 -3.5007  1.7454 -0.2760
  728MOL0     H98280  10.118   3.031   9.585  1.4082  2.0436 -1.5000
  729MOL0     O98281   1.932  11.201   9.839 -0.0960 -0.2113  0.3398
  729MOL0     C98282   1.873  11.265   9.753 -0.2816  0.8864 -0.0534
  729MOL0     O98283   1.740  11.249   9.725 -0.1450  0.1417  0.3468
  729MOL0     C98284   1.663  11.147   9.783  0.6045 -0.7100 -0.1337
  729MOL0     C98285   1.557  11.093   9.703  1.1369 -0.2713  0.9378
  729MOL0     C98286   1.466  10.998   9.754  0.1835 -0.2139  0.0557
  729MOL0     C98287   1.484  10.941   9.881  0.6259 -0.5934 -0.3314
  729MOL0     O98288   1.410  10.826   9.916 -0.5221 -0.5554  0.3189
  729MOL0     C98289   1.470  10.738   9.999 -0.6529 -0.5866  0.0225
  729MOL0     C98290   1.368  10.713  10.114  0.5706  0.8405 -0.3908
  729MOL0     C98291   1.243  10.635  10.066 -0.9534 -0.2020 -0.0886
  729MOL0     C98292   1.124  10.723  10.042 -0.1159 -0.0758 -0.0421
  729MOL0     C98293   0.997  10.642  10.022  0.3600 -0.6432 -0.1796
  729MOL0     C98294   0.881  10.740  10.001 -0.5044 -0.3657  1.0199
  729MOL0     C98295   0.751  10.673   9.960 -0.0079 -0.1674  1.4097
  729MOL0     C98296   0.638  10.777   9.931  0.0605 -0.5481  0.9682
  729MOL0     N98297   0.539  10.707   9.847  0.1166  0.5831  0.9474
  729MOL0     C98298   0.494  10.760   9.729  0.1503  0.6173 -0.1904
  729MOL0     C98299   0.386  10.691   9.693  0.1225 -0.1007  0.5770
  729MOL0     C98300   0.296  10.696   9.568 -0.7987 -0.4565  0.1903
  729MOL0     C98301   0.150  10.695   9.604 -0.1582 -0.2613  0.3464
  729MOL0     C98302   0.058  10.685   9.480 -0.1169 -0.2111 -0.4912
  729MOL0     C98303  -0.079  10.666   9.518  1.0666  0.6922 -0.4708
  729MOL0     O98304  -0.152  10.647   9.403 -0.5588 -0.1384  0.5349
  729MOL0     C98305  -0.283  10.674   9.405 -0.0748  0.1065  0.5422
  729MOL0     C98306  -0.352  10.711   9.288  0.5196  1.0536  0.8944
  729MOL0     C98307  -0.493  10.727   9.288  0.2098 -0.0884  0.2782
  729MOL0     C98308  -0.561  10.741   9.151  0.4224  0.9011 -0.3112
  729MOL0     C98309  -0.565  10.731   9.409 -0.3092 -0.0058 -0.1551
  729MOL0     C98310  -0.715  10.742   9.419  0.5002 -1.1362  0.3886
  729MOL0     O98311  -0.766  10.685   9.534 -0.6078 -0.5184 -0.4325
  729MOL0     C98312  -0.896  10.715   9.556  0.4511  0.2373 -0.0277
  729MOL0     C98313  -0.999  10.636   9.509 -0.3962 -0.3658  0.1922
  729MOL0     C98314  -1.132  10.673   9.539 -0.1780 -0.0763  0.9734
  729MOL0     C98315  -1.163  10.792   9.614  0.4549 -0.3088 -0.0980
  729MOL0     O98316  -1.295  10.829   9.655 -0.1187 -0.3134 -0.0900
  729MOL0     C98317  -1.403  10.765   9.577 -0.3797 -0.5170  0.8512
  729MOL0     C98318  -1.532  10.789   9.652 -0.1720 -0.0143  0.2936
  729MOL0     C98319  -1.564  10.931   9.680  0.3160 -0.3971 -0.2417
  729MOL0     C98320  -1.711  10.953   9.722  0.6943 -0.4965 -0.4048
  729MOL0     C98321  -1.746  11.094   9.764 -0.2525  0.7620  0.1527
  729MOL0     C98322  -1.895  11.118   9.795  0.2161 -0.1108  0.5770
  729MOL0     C98323  -1.937  11.258   9.830  0.4977 -0.6117  0.1340
  729MOL0     C98324  -2.083  11.268   9.878 -0.0645 -0.2672 -0.2626
  729MOL0    Cl98325  -2.069  11.445   9.945  0.8843  0.4731 -0.5419
  729MOL0     C98326  -1.056  10.871   9.656  0.1617 -0.2765  0.0363
  729MOL0     C98327  -0.916  10.831   9.630 -0.0409 -0.8790  0.4325
  729MOL0     O98328  -0.781  10.812   9.338  0.4385  0.8149 -0.3227
  729MOL0     C98329  -0.496  10.700   9.525 -0.3668 -0.0838 -0.9231
  729MOL0     C98330  -0.357  10.679   9.526 -0.2705 -0.2760  0.7572
  729MOL0     N98331   0.358  10.600   9.796  0.1485 -0.5975  0.6654
  729MOL0     N98332   0.450  10.612   9.878 -0.7818  0.4952 -0.8009
  729MOL0     C98333   1.580  10.999   9.968  0.2628 -0.3236 -0.4569
  729MOL0     C98334   1.667  11.102   9.919  0.4483 -0.2219 -0.5510
  729MOL0     C98335   1.947  11.366   9.669  0.2565  1.0985 -0.3712
  729MOL0     C98336   1.889  11.442   9.565  0.6469  0.6557  0.0422
  729MOL0     C98337   1.957  11.534   9.496  0.1277  0.5236 -0.6094
  729MOL0     C98338   2.097  11.537   9.495  0.1539  0.1827 -0.2884
  729MOL0     O98339   2.156  11.621   9.404  1.1652  0.0793 -0.0629
  729MOL0     C98340   2.296  11.633   9.419 -0.0910  0.4993 -0.5891
  729MOL0     C98341   2.347  11.725   9.310 -0.0319 -0.0175  0.0739
  729MOL0     C98342   2.506  11.708   9.278 -0.2878 -0.3903 -0.6455
  729MOL0     C98343   2.585  11.754   9.399  0.9169  0.0877 -0.4402
  729MOL0     C98344   2.559  11.891   9.452 -0.1932  0.1739  0.0794
  729MOL0     C98345   2.549  12.001   9.489 -0.7724  0.6318  0.6999
  729MOL0     C98346   2.164  11.457   9.592 -0.2220  0.3780 -0.2234
  729MOL0     C98347   2.094  11.370   9.676  0.5654 -0.7565 -0.7455
  729MOL0     H98348   1.552  11.123   9.599  1.2026 -1.3048  0.6203
  729MOL0     H98349   1.388  10.945   9.701 -0.4795  2.8560 -2.3276
  729MOL0     H98350   1.512  10.654   9.943  2.5734  1.9105 -1.5981
  729MOL0     H98351   1.563  10.766  10.050 -0.4367  0.9289 -1.1260
  729MOL0     H98352   1.414  10.652  10.192  2.2803  0.7586 -1.4134
  729MOL0     H98353   1.332  10.809  10.152  0.3284  1.0131 -1.0443
  729MOL0     H98354   1.274  10.581   9.976  1.4924  0.7552  0.1114
  729MOL0     H98355   1.220  10.552  10.134  0.1788 -0.0697  0.4624
  729MOL0     H98356   1.101  10.798  10.117  1.8107  1.0459 -0.5069
  729MOL0     H98357   1.142  10.787   9.955 -1.0430  3.2358  2.0526
  729MOL0     H98358   1.000  10.578   9.934  0.8268  1.2567 -1.6250
  729MOL0     H98359   0.984  10.569  10.103 -1.6071 -2.3089 -1.8815
  729MOL0     H98360   0.863  10.796  10.093  2.0410 -1.6845  2.4353
  729MOL0     H98361   0.909  10.810   9.922  0.3272 -1.5342  0.2515
  729MOL0     H98362   0.770  10.624   9.864 -2.4908 -0.2227  0.8712
  729MOL0     H98363   0.708  10.596  10.025 -1.3893  0.7178  1.5781
  729MOL0     H98364   0.669  10.864   9.872  0.4774 -1.0917  0.3782
  729MOL0     H98365   0.594  10.814  10.024  1.5133 -1.7377  2.1782
  729MOL0     H98366   0.537  10.842   9.672 -0.9747  2.1516  1.0720
  729MOL0     H98367   0.322  10.772   9.494 -1.2687 -0.8647 -0.4094
  729MOL0     H98368   0.317  10.600   9.519  1.2114 -0.5759  1.1607
  729MOL0     H98369   0.133  10.792   9.652 -1.8329 -0.4926  0.2877
  729MOL0     H98370   0.132  10.614   9.674 -0.3334  0.3680  1.0479
  729MOL0     H98371   0.072  10.597   9.417 -1.3571  0.7134 -2.1414
  729MOL0     H98372   0.086  10.774   9.422 -1.1098  1.8336  1.9659
  729MOL0     H98373  -0.109  10.753   9.576  0.6364 -0.6141  1.3679
  729MOL0     H98374  -0.089  10.578   9.584 -2.5557 -0.7628 -2.6716
  729MOL0     H98375  -0.305  10.709   9.190 -0.7107  2.7587  0.2158
  729MOL0     H98376  -0.625  10.829   9.146  2.1513  2.2129 -0.2433
  729MOL0     H98377  -0.486  10.746   9.071  0.8824 -1.3795 -0.0867
  729MOL0     H98378  -0.622  10.652   9.135  1.8074 -0.3466  1.0526
  729MOL0     H98379  -0.992  10.546   9.450 -2.4437  1.3227 -2.9440
  729MOL0     H98380  -1.206  10.613   9.487 -2.0379  0.7045  2.5945
  729MOL0     H98381  -1.417  10.810   9.478  0.0758 -0.4210  0.8282
  729MOL0     H98382  -1.394  10.657   9.565 -3.3614 -1.1132  2.9174
  729MOL0     H98383  -1.619  10.753   9.596  0.6926 -1.5766 -0.1094
  729MOL0     H98384  -1.521  10.729   9.743  0.1778  2.9068  2.2878
  729MOL0     H98385  -1.558  10.991   9.588 -0.4989 -1.8234 -1.2705
  729MOL0     H98386  -1.495  10.966   9.757  0.7128 -3.0538  0.7154
  729MOL0     H98387  -1.777  10.918   9.642  0.0881  0.0841 -0.1613
  729MOL0     H98388  -1.717  10.900   9.818 -1.3110  1.8049  0.8386
  729MOL0     H98389  -1.701  11.161   9.690 -1.6508  1.9727  0.3525
  729MOL0     H98390  -1.702  11.111   9.863 -0.4191 -0.8132  0.5190
  729MOL0     H98391  -1.957  11.085   9.711  2.2697 -3.2780  0.1567
  729MOL0     H98392  -1.918  11.058   9.883  2.4793 -1.8090  0.0917
  729MOL0     H98393  -1.917  11.328   9.748 -2.3444 -2.7731 -2.6616
  729MOL0     H98394  -1.870  11.305   9.902 -0.2665  2.3752 -0.9518
  729MOL0     H98395  -2.104  11.186   9.947 -1.6651 -1.5916 -2.1889
  729MOL0     H98396  -2.153  11.257   9.795  1.3138  0.0133 -1.5104
  729MOL0     H98397  -1.084  10.958   9.715  0.8396  1.5233 -2.1885
  729MOL0     H98398  -0.837  10.895   9.668 -0.9691  0.1256  0.7507
  729MOL0     H98399  -0.546  10.705   9.622  1.6280  1.8456  0.0886
  729MOL0     H98400  -0.307  10.658   9.619 -1.4789  0.5162  1.6111
  729MOL0     H98401   1.581  10.955  10.067 -1.5394 -0.9845 -0.6873
  729MOL0     H98402   1.737  11.146   9.989  1.1051 -0.1198 -1.2615
  729MOL0     H98403   1.785  11.419   9.546  0.3622  0.1525  1.9230
  729MOL0     H98404   1.904  11.590   9.420 -1.1356  2.8196  1.7881
  729MOL0     H98405   2.342  11.659   9.515  1.2436 -2.4697 -0.2932
  729MOL0     H98406   2.339  11.535   9.395 -2.0802 -0.2428 -1.2913
  729MOL0     H98407   2.321  11.827   9.341  0.4266 -0.5298  2.2608
  729MOL0     H98408   2.295  11.696   9.218 -0.7843 -0.3745  0.6083
  729MOL0     H98409   2.527  11.764   9.186 -1.8465 -0.6588 -1.2011
  729MOL0     H98410   2.522  11.604   9.249  0.4903 -0.7263  0.9068
  729MOL0     H98411   2.691  11.748   9.374  1.0630 -1.3691  0.3929
  729MOL0     H98412   2.571  11.671   9.470 -1.5640  1.5897  0.9938
  729MOL0     H98413   2.558  12.101   9.526  1.3181 -0.3439  3.1413
  729MOL0     H98414   2.271  11.442   9.600 -0.2602 -0.8609 -1.5470
  729MOL0     H98415   2.145  11.308   9.749 -0.0709 -0.9220 -0.4294
  730MOL0     O98416  11.168   6.531   2.528 -0.0180  0.2195 -0.1930
  730MOL0     C98417  11.166   6.424   2.463  0.7013  0.1945  0.2791
  730MOL0     O98418  11.062   6.332   2.456 -0.8490 -0.4178 -0.8808
  730MOL0     C98419  10.939   6.371   2.501  0.1770  0.5405 -0.4165
  730MOL0     C98420  10.889   6.489   2.473  0.2463 -0.3727  0.7466
  730MOL0     C98421  10.771   6.531   2.519  0.1125 -0.1699  0.1422
  730MOL0     C98422  10.699   6.457   2.615 -0.7194 -0.6068  0.7824
  730MOL0     O98423  10.578   6.509   2.667  1.0571  0.7654 -0.5270
  730MOL0     C98424  10.539   6.483   2.803 -0.4940 -0.2678 -0.1365
  730MOL0     C98425  10.414   6.554   2.844  0.2709  0.8500 -0.0091
  730MOL0     C98426  10.291   6.533   2.753 -0.1191 -1.0173 -0.0224
  730MOL0     C98427  10.153   6.577   2.811  0.7676 -0.6603 -0.5513
  730MOL0     C98428  10.154   6.728   2.846 -0.3562  0.0370 -0.6692
  730MOL0     C98429  10.031   6.772   2.940 -0.1230  0.6317  0.8354
  730MOL0     C98430   9.894   6.704   2.906  0.1174  0.3887  0.4018
  730MOL0     C98431   9.840   6.757   2.769  0.1792 -0.1522  0.5031
  730MOL0     N98432   9.709   6.692   2.729 -0.4313 -0.5579 -0.6876
  730MOL0     C98433   9.603   6.680   2.814 -0.1329  0.2034 -0.3769
  730MOL0     C98434   9.504   6.613   2.745  0.5001  0.1826  0.6511
  730MOL0     C98435   9.375   6.568   2.804  0.6185 -0.4010  0.2615
  730MOL0     C98436   9.288   6.687   2.802  0.0525 -0.1782 -0.1658
  730MOL0     C98437   9.265   6.745   2.658 -0.7893  0.8187 -0.4816
  730MOL0     C98438   9.192   6.640   2.565  0.0620  0.0532  0.3502
  730MOL0     O98439   9.075   6.585   2.623  0.4064 -0.3000  0.1454
  730MOL0     C98440   8.953   6.657   2.607 -0.4536 -0.2274 -0.5398
  730MOL0     C98441   8.936   6.771   2.544 -0.1700  0.3442 -0.7945
  730MOL0     C98442   8.810   6.837   2.525  0.2146  0.3400 -1.2217
  730MOL0     C98443   8.810   6.964   2.447  0.3741  0.1800 -0.4256
  730MOL0     C98444   8.691   6.775   2.594 -0.5217 -0.2417  0.1386
  730MOL0     C98445   8.551   6.829   2.591 -1.1955  0.6604 -0.7982
  730MOL0     O98446   8.463   6.758   2.664  0.2083 -0.2076 -0.2534
  730MOL0     C98447   8.332   6.806   2.665 -0.1582 -0.2054  1.0369
  730MOL0     C98448   8.255   6.796   2.550  0.0724 -0.8329 -0.3361
  730MOL0     C98449   8.124   6.835   2.546  0.0930  0.0939 -0.2342
  730MOL0     C98450   8.064   6.898   2.660 -0.1420 -0.5194 -0.2437
  730MOL0     O98451   7.928   6.936   2.665 -0.1461 -0.0164 -0.4171
  730MOL0     C98452   7.879   7.001   2.552  0.3175 -0.0424  0.2989
  730MOL0     C98453   7.933   7.145   2.557 -0.3455 -0.9050  0.0155
  730MOL0     C98454   7.839   7.237   2.495  0.1223 -0.5756  0.3559
  730MOL0     C98455   7.886   7.255   2.347  0.5727  0.0968 -0.5236
  730MOL0     C98456   7.812   7.360   2.272  0.0749  0.3791  0.9621
  730MOL0     C98457   7.658   7.347   2.272 -1.1167 -0.2133  0.1572
  730MOL0     C98458   7.597   7.491   2.268 -1.2022  0.9736  0.6207
  730MOL0     C98459   7.455   7.502   2.246 -0.8812  0.3284  0.1951
  730MOL0    Cl98460   7.437   7.659   2.161  0.2229 -0.1830 -0.0748
  730MOL0     C98461   8.139   6.906   2.778  1.0558  0.4094 -0.8283
  730MOL0     C98462   8.274   6.864   2.780 -1.1505  0.2487 -0.2710
  730MOL0     O98463   8.534   6.941   2.543 -0.3398 -0.2396  0.3055
  730MOL0     C98464   8.715   6.646   2.657 -0.1139 -0.4630  0.0025
  730MOL0     C98465   8.845   6.587   2.660  0.3352  0.3373 -0.6971
  730MOL0     N98466   9.560   6.578   2.625 -0.0378  0.0251  0.3386
  730MOL0     N98467   9.680   6.630   2.617  0.7062  0.2850  1.1627
  730MOL0     C98468  10.756   6.328   2.649  0.2233  0.4816  0.2269
  730MOL0     C98469  10.871   6.282   2.586  0.4909  0.1992 -0.9518
  730MOL0     C98470  11.281   6.387   2.394  0.1356  1.0227  0.7578
  730MOL0     C98471  11.400   6.460   2.400  1.0407  0.2194 -0.0523
  730MOL0     C98472  11.517   6.420   2.325  0.1131 -0.8521  0.1018
  730MOL0     C98473  11.513   6.299   2.255  0.4476 -0.4307 -0.2812
  730MOL0     O98474  11.617   6.258   2.189 -0.1785  0.0191 -0.1077
  730MOL0     C98475  11.716   6.335   2.128  0.4084 -0.4288 -0.7295
  730MOL0     C98476  11.846   6.325   2.218  0.7021 -0.5312 -0.8118
  730MOL0     C98477  11.871   6.173   2.246 -0.3093  0.0560  0.1647
  730MOL0     C98478  11.998   6.160   2.321 -1.0507  0.0129 -0.3484
  730MOL0     C98479  11.987   6.222   2.454  0.2991 -0.3816 -0.8401
  730MOL0     C98480  11.985   6.270   2.565  0.1796 -0.8091 -0.1580
  730MOL0     C98481  11.394   6.230   2.248  0.2354  0.0403 -0.1097
  730MOL0     C98482  11.285   6.259   2.326 -0.3875  0.2615 -0.6371
  730MOL0     H98483  10.946   6.555   2.407  1.5566 -1.9323  0.2534
  730MOL0     H98484  10.742   6.631   2.488  2.0047  0.8997  1.5894
  730MOL0     H98485  10.515   6.377   2.811  0.9862 -0.6415 -0.3996
  730MOL0     H98486  10.612   6.514   2.878 -0.0437 -1.6197  0.0020
  730MOL0     H98487  10.399   6.523   2.948  2.4721  1.4223  0.5510
  730MOL0     H98488  10.433   6.662   2.849 -4.3430  1.8225  0.4873
  730MOL0     H98489  10.316   6.576   2.656 -1.1762 -2.1395 -0.8298
  730MOL0     H98490  10.280   6.427   2.725  1.0451 -0.5208 -2.6682
  730MOL0     H98491  10.073   6.561   2.738  1.9295 -2.9356 -1.4085
  730MOL0     H98492  10.137   6.518   2.901  0.0214  0.2905 -0.0416
  730MOL0     H98493  10.245   6.751   2.903 -2.0802  0.0196  2.3360
  730MOL0     H98494  10.156   6.790   2.756 -1.5551 -1.7705 -2.0005
  730MOL0     H98495  10.059   6.742   3.042 -0.8099  2.2959  1.5444
  730MOL0     H98496  10.030   6.880   2.930  4.2128  0.7585 -0.1234
  730MOL0     H98497   9.898   6.595   2.896  1.4401  0.4200  0.3610
  730MOL0     H98498   9.819   6.728   2.981  0.2691 -3.3533  1.9829
  730MOL0     H98499   9.913   6.745   2.689  1.0121  1.5327  0.9643
  730MOL0     H98500   9.822   6.864   2.783 -1.6336 -0.4919  1.0793
  730MOL0     H98501   9.596   6.715   2.916 -1.2397 -2.0100  0.3815
  730MOL0     H98502   9.342   6.487   2.738  1.0633  0.4836 -1.1115
  730MOL0     H98503   9.388   6.535   2.907  2.5048 -2.3254 -0.5194
  730MOL0     H98504   9.340   6.766   2.857  1.5514  0.4155 -2.3257
  730MOL0     H98505   9.199   6.651   2.856  0.5664 -0.6914  0.3540
  730MOL0     H98506   9.352   6.783   2.603 -0.0614  0.0704  0.1137
  730MOL0     H98507   9.216   6.842   2.666 -0.4482  0.8435  2.7788
  730MOL0     H98508   9.263   6.568   2.525 -1.4864  0.0073 -2.5409
  730MOL0     H98509   9.164   6.697   2.476  2.4161  1.4083  0.3939
  730MOL0     H98510   9.018   6.838   2.515  0.2787  0.4798  0.7261
  730MOL0     H98511   8.900   6.977   2.387  1.4972  3.0803  1.6700
  730MOL0     H98512   8.727   6.981   2.377 -0.3705 -0.5879  0.2596
  730MOL0     H98513   8.801   7.049   2.516  3.4701 -0.9412  1.5590
  730MOL0     H98514   8.311   6.761   2.463 -0.5336  1.3989 -1.7156
  730MOL0     H98515   8.063   6.821   2.457 -1.8374  1.5215  0.8175
  730MOL0     H98516   7.911   6.952   2.460 -2.0326 -2.6069  0.7379
  730MOL0     H98517   7.770   6.998   2.560  0.1097 -0.6668 -1.9444
  730MOL0     H98518   7.942   7.183   2.659 -1.1031  0.0913 -0.2790
  730MOL0     H98519   8.033   7.148   2.513 -0.4353 -1.5029 -0.2428
  730MOL0     H98520   7.867   7.334   2.538 -2.7828  1.3189 -1.6849
  730MOL0     H98521   7.734   7.223   2.519 -0.5829  0.9297 -1.5471
  730MOL0     H98522   7.990   7.290   2.350  0.5624  0.1469 -0.7427
  730MOL0     H98523   7.872   7.170   2.280 -0.8217 -1.5087  1.6765
  730MOL0     H98524   7.835   7.350   2.166 -0.1065  1.3561  0.8203
  730MOL0     H98525   7.830   7.463   2.306 -2.2735  2.2594 -2.7640
  730MOL0     H98526   7.625   7.294   2.183  0.9941 -1.6228  0.1438
  730MOL0     H98527   7.619   7.298   2.362  0.5303 -0.9635  0.4964
  730MOL0     H98528   7.642   7.541   2.182 -2.4393  0.8603 -0.1131
  730MOL0     H98529   7.619   7.544   2.361 -3.1377 -0.1187  1.7609
  730MOL0     H98530   7.396   7.477   2.334  0.4835 -4.8358 -0.0231
  730MOL0     H98531   7.437   7.430   2.166  1.9884  0.6778 -0.9080
  730MOL0     H98532   8.089   6.938   2.869 -0.8285 -2.3195 -0.7768
  730MOL0     H98533   8.324   6.873   2.876 -0.0156 -0.0795 -0.8266
  730MOL0     H98534   8.630   6.586   2.686  0.6594 -1.4512  0.3157
  730MOL0     H98535   8.862   6.488   2.701 -1.4816  0.7030  1.0507
  730MOL0     H98536  10.709   6.266   2.725  0.9608  0.4830  0.6943
  730MOL0     H98537  10.901   6.179   2.602 -0.1959  0.1270 -0.0753
  730MOL0     H98538  11.401   6.548   2.463  0.2702  0.5803 -0.5175
  730MOL0     H98539  11.606   6.479   2.345 -0.4146  1.1648 -2.8178
  730MOL0     H98540  11.734   6.297   2.027 -1.7241 -2.3457 -0.4729
  730MOL0     H98541  11.684   6.439   2.122  1.9615  0.0613 -0.8210
  730MOL0     H98542  11.831   6.383   2.309 -3.4993 -3.1151  0.4210
  730MOL0     H98543  11.924   6.364   2.152 -1.0680  0.5525 -2.3468
  730MOL0     H98544  11.884   6.127   2.148 -2.7686  2.3886 -1.3955
  730MOL0     H98545  11.784   6.128   2.296 -1.1941  0.3769 -1.0448
  730MOL0     H98546  12.084   6.205   2.271 -1.0231 -0.7653 -1.0338
  730MOL0     H98547  12.027   6.055   2.334  0.7142  0.5761  0.5302
  730MOL0     H98548  11.998   6.311   2.663 -0.2485 -4.0001  1.3348
  730MOL0     H98549  11.397   6.130   2.207  1.3874 -0.0211  0.1036
  730MOL0     H98550  11.199   6.194   2.328 -2.0696  2.3746  2.0082
  731MOL0     O98551   7.540   4.318   1.037  0.2145 -0.8879 -0.0770
  731MOL0     C98552   7.555   4.332   0.914  0.2016 -0.3897 -0.2730
  731MOL0     O98553   7.461   4.311   0.821 -0.0880 -0.0761 -0.0492
  731MOL0     C98554   7.329   4.298   0.867  0.2404 -0.4950  0.1802
  731MOL0     C98555   7.283   4.181   0.930 -0.6074  0.8135  0.3829
  731MOL0     C98556   7.146   4.181   0.969 -0.4385 -0.2374 -0.3627
  731MOL0     C98557   7.056   4.280   0.939 -0.0837 -0.3820  0.4279
  731MOL0     O98558   6.930   4.269   0.980  0.3078  1.1289  0.4950
  731MOL0     C98559   6.833   4.354   0.917 -0.4422 -1.1077  0.1035
  731MOL0     C98560   6.696   4.311   0.962  0.4582  0.7478 -0.8007
  731MOL0     C98561   6.581   4.402   0.917  0.0794 -0.3619  0.0910
  731MOL0     C98562   6.447   4.311   0.927  0.1777  0.0573  0.1706
  731MOL0     C98563   6.327   4.383   0.870  0.1833 -1.0187 -0.9920
  731MOL0     C98564   6.306   4.514   0.943  0.5582  0.6984 -0.2747
  731MOL0     C98565   6.170   4.572   0.915  0.1672 -0.9218  0.4699
  731MOL0     C98566   6.113   4.564   0.769  0.6528 -0.9294 -0.1130
  731MOL0     N98567   6.209   4.611   0.669 -0.1182 -0.3144 -0.1054
  731MOL0     C98568   6.310   4.707   0.692 -0.1621 -0.0077 -0.1790
  731MOL0     C98569   6.392   4.695   0.583  0.0848  0.0133 -0.6680
  731MOL0     C98570   6.512   4.770   0.554  0.0910  0.0119 -0.0351
  731MOL0     C98571   6.611   4.686   0.475 -0.8161 -0.1963 -0.2394
  731MOL0     C98572   6.735   4.764   0.421 -0.7931 -0.1966 -0.2882
  731MOL0     C98573   6.822   4.676   0.341 -0.3711 -0.4497  0.1521
  731MOL0     O98574   6.949   4.737   0.313  0.3409 -0.9181 -0.0930
  731MOL0     C98575   7.031   4.659   0.232 -0.9536  0.2686  0.4938
  731MOL0     C98576   7.012   4.531   0.170 -0.6195 -0.1745  0.0413
  731MOL0     C98577   7.106   4.479   0.073  0.1280  0.0280  0.1174
  731MOL0     C98578   7.061   4.351   0.006 -0.2098  0.7103  0.1010
  731MOL0     C98579   7.232   4.538   0.057 -0.4070  0.3716  0.0345
  731MOL0     C98580   7.333   4.494  -0.047  0.0483  1.2975  0.7588
  731MOL0     O98581   7.456   4.535  -0.028 -0.3087  0.3250  0.3043
  731MOL0     C98582   7.571   4.469  -0.072  0.1524 -0.4144 -0.9131
  731MOL0     C98583   7.679   4.540  -0.118  1.4033 -0.3496  0.6111
  731MOL0     C98584   7.786   4.478  -0.174 -0.1149  0.0872  0.0844
  731MOL0     C98585   7.789   4.339  -0.180 -0.6910  0.2966  0.1170
  731MOL0     O98586   7.904   4.291  -0.235 -0.2983 -0.3571 -0.5551
  731MOL0     C98587   7.932   4.156  -0.223 -0.3552 -0.1148 -0.3547
  731MOL0     C98588   7.875   4.089  -0.346 -0.0106  0.7021  1.3853
  731MOL0     C98589   7.874   3.939  -0.332  0.2062  0.2018 -0.0266
  731MOL0     C98590   7.925   3.871  -0.464  0.2581  0.3113  0.7178
  731MOL0     C98591   7.810   3.859  -0.560  0.6082 -0.0621  0.2212
  731MOL0     C98592   7.829   3.775  -0.684  0.0035 -0.3497  0.5435
  731MOL0     C98593   7.963   3.810  -0.760  0.1610 -0.4897 -0.4663
  731MOL0     C98594   7.968   3.749  -0.897 -0.4497  0.1418  1.0322
  731MOL0    Cl98595   7.864   3.848  -1.009  0.1542  0.2249  0.1432
  731MOL0     C98596   7.675   4.267  -0.132 -0.3573 -0.4234  0.3973
  731MOL0     C98597   7.574   4.328  -0.075 -0.5820  0.9116  0.2738
  731MOL0     O98598   7.291   4.427  -0.144 -0.1670  0.1412 -0.1086
  731MOL0     C98599   7.250   4.661   0.121 -0.3498  0.0539 -0.3005
  731MOL0     C98600   7.151   4.723   0.193  0.3109  0.3391  0.2563
  731MOL0     N98601   6.330   4.605   0.496  0.6957 -0.0853 -0.4113
  731MOL0     N98602   6.217   4.561   0.545 -0.5850  0.6351  1.2847
  731MOL0     C98603   7.100   4.383   0.858 -0.7611  0.0824 -0.9066
  731MOL0     C98604   7.237   4.393   0.837 -0.4985  0.2742 -0.5814
  731MOL0     C98605   7.687   4.346   0.857  0.4585 -0.2319  0.3042
  731MOL0     C98606   7.712   4.297   0.730  0.5665 -0.5267  1.0314
  731MOL0     C98607   7.845   4.299   0.674  0.3835  0.0434 -0.1331
  731MOL0     C98608   7.959   4.356   0.742  1.0683  0.7459  0.5892
  731MOL0     O98609   8.088   4.342   0.702  0.0438 -0.0921 -0.2997
  731MOL0     C98610   8.127   4.297   0.578  0.5970  0.2373 -0.8013
  731MOL0     C98611   8.275   4.250   0.590  0.1501  0.2007 -0.1996
  731MOL0     C98612   8.324   4.207   0.446 -0.2724  0.8087 -0.1472
  731MOL0     C98613   8.472   4.165   0.448 -0.9243  1.0071  0.0319
  731MOL0     C98614   8.506   4.046   0.528  0.2573 -0.3271 -0.2441
  731MOL0     C98615   8.502   3.952   0.609 -0.6844 -0.7727 -0.2595
  731MOL0     C98616   7.929   4.396   0.865 -0.3943  0.4499 -0.0267
  731MOL0     C98617   7.804   4.383   0.925  0.0655 -0.2138 -0.0057
  731MOL0     H98618   7.356   4.100   0.936  0.2387  1.2659 -2.3038
  731MOL0     H98619   7.110   4.102   1.034 -0.7193 -1.3907 -1.8707
  731MOL0     H98620   6.855   4.459   0.937 -0.3019 -0.2025 -3.9606
  731MOL0     H98621   6.839   4.338   0.809  0.5957  2.3449 -0.4535
  731MOL0     H98622   6.683   4.211   0.920 -1.4153  0.2893  0.7629
  731MOL0     H98623   6.682   4.292   1.069 -0.3997 -0.1217 -1.0537
  731MOL0     H98624   6.574   4.488   0.984  2.4141  1.2854 -1.6419
  731MOL0     H98625   6.606   4.434   0.816  1.5186 -1.2292  0.1426
  731MOL0     H98626   6.465   4.213   0.884 -0.3770 -1.0816  2.3819
  731MOL0     H98627   6.422   4.296   1.033 -2.5962  0.0374 -0.4169
  731MOL0     H98628   6.333   4.417   0.766 -1.4351  2.5627 -0.0882
  731MOL0     H98629   6.233   4.330   0.888 -1.2408  1.5362 -0.3467
  731MOL0     H98630   6.296   4.493   1.050 -0.1316  2.0371 -0.0505
  731MOL0     H98631   6.382   4.592   0.931 -0.8810  2.2125  0.1155
  731MOL0     H98632   6.102   4.524   0.986 -0.7556  0.9146  0.8819
  731MOL0     H98633   6.178   4.676   0.949  0.5434 -0.5549 -0.6896
  731MOL0     H98634   6.023   4.625   0.765  3.4109  4.0109  2.7067
  731MOL0     H98635   6.095   4.461   0.736  3.4262 -1.7116  0.5299
  731MOL0     H98636   6.322   4.786   0.766  1.3024  0.9007 -1.3087
  731MOL0     H98637   6.476   4.850   0.489 -1.7927 -0.7225  0.0344
  731MOL0     H98638   6.561   4.814   0.641 -0.0747 -1.2625  0.7305
  731MOL0     H98639   6.558   4.653   0.386 -1.7454  0.8523 -0.0909
  731MOL0     H98640   6.633   4.600   0.539  1.1194  1.2828  1.2382
  731MOL0     H98641   6.805   4.801   0.498  0.9905  1.5806 -2.6163
  731MOL0     H98642   6.694   4.847   0.363 -0.1877  0.5715  0.3467
  731MOL0     H98643   6.773   4.664   0.243 -0.5592  2.5921 -0.2039
  731MOL0     H98644   6.840   4.586   0.401  2.6513  0.3167  0.5482
  731MOL0     H98645   6.934   4.459   0.194  0.3073 -1.5208 -0.8420
  731MOL0     H98646   7.144   4.283  -0.016  1.1537  2.3123  0.1250
  731MOL0     H98647   7.004   4.301   0.085 -0.2502  0.4216 -0.1093
  731MOL0     H98648   7.004   4.365  -0.087  0.3639 -0.5384 -0.4685
  731MOL0     H98649   7.679   4.648  -0.114 -0.4521 -0.3327  3.4530
  731MOL0     H98650   7.872   4.533  -0.211  0.1760 -2.1867 -3.0943
  731MOL0     H98651   8.041   4.158  -0.226 -0.3281  1.5729  0.2646
  731MOL0     H98652   7.893   4.108  -0.132  0.2560  0.5007  0.2473
  731MOL0     H98653   7.774   4.118  -0.378 -0.4979 -1.3358  0.8838
  731MOL0     H98654   7.943   4.110  -0.429  0.0581  1.4045  1.6189
  731MOL0     H98655   7.782   3.906  -0.284 -0.0016 -0.8297 -1.0881
  731MOL0     H98656   7.947   3.910  -0.256  1.1088  1.2434 -0.4597
  731MOL0     H98657   8.007   3.932  -0.503  0.2942  0.3103  0.7921
  731MOL0     H98658   7.973   3.775  -0.441 -1.6781 -0.7223  0.6320
  731MOL0     H98659   7.781   3.960  -0.589  0.2950  0.2457  1.5634
  731MOL0     H98660   7.740   3.806  -0.496  1.0173  1.1935  1.7691
  731MOL0     H98661   7.822   3.669  -0.658 -1.8066  0.2416  2.8048
  731MOL0     H98662   7.748   3.787  -0.757 -0.8382  1.0977  1.6601
  731MOL0     H98663   8.046   3.760  -0.709  0.8940  2.1815  1.1394
  731MOL0     H98664   7.979   3.918  -0.766 -0.2802 -0.4459 -0.9369
  731MOL0     H98665   7.944   3.643  -0.907  0.0906  0.2271 -3.7149
  731MOL0     H98666   8.067   3.760  -0.942 -2.0581  0.3303 -2.8364
  731MOL0     H98667   7.669   4.158  -0.130 -2.6359 -0.3439  0.8600
  731MOL0     H98668   7.486   4.277  -0.037 -2.0244  2.0847 -1.3312
  731MOL0     H98669   7.328   4.732   0.094 -0.3498 -0.4694 -1.7464
  731MOL0     H98670   7.171   4.828   0.213 -2.5717  2.4818 -5.5661
  731MOL0     H98671   7.031   4.460   0.825 -2.0325 -0.7545 -0.2718
  731MOL0     H98672   7.265   4.485   0.787 -3.0101  0.3311 -2.0718
  731MOL0     H98673   7.635   4.244   0.675  1.1983  1.2800 -1.7557
  731MOL0     H98674   7.863   4.256   0.576 -1.3982 -0.8674 -0.0937
  731MOL0     H98675   8.068   4.215   0.537 -0.8103 -0.1037  1.7542
  731MOL0     H98676   8.131   4.384   0.511 -0.4041  1.8103  1.0782
  731MOL0     H98677   8.275   4.166   0.661  1.2824 -0.0931 -0.5248
  731MOL0     H98678   8.336   4.328   0.634 -1.8062  0.7649  1.7033
  731MOL0     H98679   8.313   4.287   0.373 -1.4873  1.4764  0.7423
  731MOL0     H98680   8.260   4.128   0.406 -2.0442  1.3316  1.5058
  731MOL0     H98681   8.542   4.240   0.486 -0.3184  0.6255 -0.3047
  731MOL0     H98682   8.498   4.154   0.342 -0.1137  3.1480 -0.0319
  731MOL0     H98683   8.495   3.878   0.687 -4.8130 -0.5560 -0.1617
  731MOL0     H98684   8.003   4.440   0.931 -0.1432 -0.0701  0.0485
  731MOL0     H98685   7.793   4.428   1.023  0.6542 -1.3389  0.5983
  732MOL0     O98686   0.135   3.184   0.020 -1.3083  0.0994 -0.6574
  732MOL0     C98687   0.130   3.077   0.084 -0.7753  0.5085 -0.5256
  732MOL0     O98688   0.018   2.998   0.089 -0.5453 -0.4271  0.1816
  732MOL0     C98689  -0.091   3.039   0.017 -0.0404 -0.3798  1.1677
  732MOL0     C98690  -0.208   3.079   0.077  0.5756  0.6137  0.4053
  732MOL0     C98691  -0.327   3.114   0.001 -0.6440  0.1080  0.1825
  732MOL0     C98692  -0.329   3.101  -0.140  0.5100  0.1499 -0.0223
  732MOL0     O98693  -0.437   3.149  -0.206 -0.6954 -0.0289  0.1808
  732MOL0     C98694  -0.455   3.092  -0.335  0.5925 -0.1061 -0.5818
  732MOL0     C98695  -0.606   3.094  -0.367 -0.8302  0.3414 -0.5138
  732MOL0     C98696  -0.626   3.020  -0.499  0.3902 -0.0433  1.3000
  732MOL0     C98697  -0.774   2.997  -0.518  0.5983 -0.0473 -0.8869
  732MOL0     C98698  -0.812   2.923  -0.646  0.6976 -0.7988 -0.6277
  732MOL0     C98699  -0.959   2.913  -0.665 -0.1081  0.2945 -0.0977
  732MOL0     C98700  -1.001   2.867  -0.804 -0.7244  1.3611 -0.5015
  732MOL0     C98701  -0.937   2.724  -0.837  0.6855  0.4571 -0.2249
  732MOL0     N98702  -0.951   2.683  -0.972  0.9791 -0.0959  0.7393
  732MOL0     C98703  -1.067   2.663  -1.046  0.3153 -0.5415  0.1683
  732MOL0     C98704  -1.023   2.607  -1.160 -0.6668  0.0458 -0.6386
  732MOL0     C98705  -1.103   2.565  -1.279 -0.4352  0.5877  0.5840
  732MOL0     C98706  -1.195   2.668  -1.342  0.5988  0.0834  0.4036
  732MOL0     C98707  -1.231   2.611  -1.487  0.2257  0.7481  0.0124
  732MOL0     C98708  -1.352   2.668  -1.556  0.0933 -0.0821  0.0681
  732MOL0     O98709  -1.405   2.787  -1.499 -0.9748 -0.2462 -0.2179
  732MOL0     C98710  -1.489   2.869  -1.570 -0.0759  0.6015  0.1975
  732MOL0     C98711  -1.550   2.829  -1.691 -0.5447 -0.0355 -0.2186
  732MOL0     C98712  -1.639   2.907  -1.758 -0.1102 -0.0376 -0.3615
  732MOL0     C98713  -1.689   2.855  -1.902 -0.2039  0.8758 -0.9240
  732MOL0     C98714  -1.667   3.037  -1.710  0.0147  0.0233  0.5999
  732MOL0     C98715  -1.777   3.116  -1.764  0.1678 -0.1235  0.2921
  732MOL0     O98716  -1.873   3.056  -1.836 -0.2784  0.6432 -0.2588
  732MOL0     C98717  -1.952   3.127  -1.929  0.4194  0.4931  0.0317
  732MOL0     C98718  -1.904   3.236  -1.997  0.0716 -0.0476  0.0117
  732MOL0     C98719  -1.984   3.308  -2.080  0.1892  0.8171 -0.0701
  732MOL0     C98720  -2.124   3.263  -2.104  0.4925  0.7482  0.1830
  732MOL0     O98721  -2.202   3.327  -2.199  0.0889  0.3099 -0.2620
  732MOL0     C98722  -2.307   3.252  -2.267  0.2189  0.0830  0.4529
  732MOL0     C98723  -2.446   3.255  -2.185  0.2061  0.3432  0.0679
  732MOL0     C98724  -2.498   3.385  -2.133  0.1996  0.9643 -0.0160
  732MOL0     C98725  -2.646   3.371  -2.095 -0.1298 -0.0669  0.2353
  732MOL0     C98726  -2.699   3.507  -2.055  0.8042  0.1527  0.0872
  732MOL0     C98727  -2.712   3.607  -2.175 -0.6829 -0.0586  0.0637
  732MOL0     C98728  -2.804   3.723  -2.164 -0.8433 -0.2693  0.1781
  732MOL0     C98729  -2.956   3.705  -2.185  0.2080 -0.2839 -0.5525
  732MOL0    Cl98730  -2.998   3.681  -2.357  0.4319 -0.0878 -0.3255
  732MOL0     C98731  -2.168   3.154  -2.038  0.2648  0.0599  0.7609
  732MOL0     C98732  -2.085   3.086  -1.944  0.4217  0.2027 -0.3661
  732MOL0     O98733  -1.776   3.235  -1.729 -0.3687  0.7573  1.0781
  732MOL0     C98734  -1.605   3.075  -1.585  0.8014  0.5478 -0.4024
  732MOL0     C98735  -1.530   2.989  -1.520 -0.5900 -0.0812  1.3126
  732MOL0     N98736  -0.887   2.590  -1.151 -0.6110 -0.0405 -0.1865
  732MOL0     N98737  -0.846   2.648  -1.046 -0.2079 -0.3878  0.0752
  732MOL0     C98738  -0.205   3.067  -0.199  0.0938 -0.0959  0.1678
  732MOL0     C98739  -0.089   3.035  -0.125  0.3933  0.0344  0.0537
  732MOL0     C98740   0.258   3.025   0.148  0.0277  0.1098  0.2478
  732MOL0     C98741   0.357   3.116   0.182 -0.5978 -0.0722 -0.4615
  732MOL0     C98742   0.457   3.075   0.268  0.2299 -0.4724  0.6409
  732MOL0     C98743   0.473   2.940   0.306 -0.3998 -0.4429 -0.1439
  732MOL0     O98744   0.581   2.909   0.379  0.0646  0.3188  0.1122
  732MOL0     C98745   0.654   2.784   0.353 -0.1822 -0.5910 -0.3450
  732MOL0     C98746   0.789   2.838   0.297  1.0832 -0.5705  0.7781
  732MOL0     C98747   0.880   2.913   0.389 -0.4065  0.9354  0.0881
  732MOL0     C98748   1.014   2.943   0.314  0.5251 -1.0201  0.3966
  732MOL0     C98749   1.134   2.961   0.397  0.3496  0.0968 -0.1974
  732MOL0     C98750   1.240   2.957   0.457  0.6070  0.4768 -0.0108
  732MOL0     C98751   0.380   2.839   0.256  0.9102 -0.0285  0.5533
  732MOL0     C98752   0.271   2.886   0.179 -0.6187 -0.0784 -0.0981
  732MOL0     H98753  -0.197   3.076   0.185 -1.1173 -1.9360  0.5915
  732MOL0     H98754  -0.411   3.154   0.057  0.1057 -1.7752  2.8971
  732MOL0     H98755  -0.395   3.154  -0.402 -0.3170  1.4984  0.0480
  732MOL0     H98756  -0.421   2.988  -0.335 -2.0758 -1.0540 -0.9733
  732MOL0     H98757  -0.657   3.054  -0.279 -1.7200  5.6466  1.8043
  732MOL0     H98758  -0.633   3.199  -0.384  2.1334  0.9774 -1.9313
  732MOL0     H98759  -0.591   3.088  -0.578 -4.0575  0.5996 -0.4007
  732MOL0     H98760  -0.575   2.924  -0.498  1.2048  0.3778  2.3264
  732MOL0     H98761  -0.812   2.944  -0.431 -2.1708  1.2943 -1.1546
  732MOL0     H98762  -0.818   3.097  -0.529  0.0300 -0.4048 -1.9378
  732MOL0     H98763  -0.772   2.991  -0.721 -2.5780  3.4829  1.1412
  732MOL0     H98764  -0.771   2.821  -0.655 -1.0490 -2.2780  4.6418
  732MOL0     H98765  -0.999   2.844  -0.590 -0.3642 -1.7306 -1.9785
  732MOL0     H98766  -0.999   3.014  -0.655  0.4847  0.4632  0.6304
  732MOL0     H98767  -1.110   2.872  -0.810 -0.7315  2.8246  0.5409
  732MOL0     H98768  -0.955   2.937  -0.874  0.8273  0.1709 -0.7511
  732MOL0     H98769  -0.980   2.654  -0.764  0.8070  0.9297  0.3079
  732MOL0     H98770  -0.828   2.720  -0.826  0.5760 -2.5746  0.6534
  732MOL0     H98771  -1.171   2.694  -1.033  0.6920  0.6072  0.5430
  732MOL0     H98772  -1.029   2.528  -1.350  2.5786  2.9261  2.2878
  732MOL0     H98773  -1.165   2.479  -1.252  1.7521 -1.4449 -0.5236
  732MOL0     H98774  -1.161   2.771  -1.355  0.9632  0.1076  1.4234
  732MOL0     H98775  -1.291   2.669  -1.288  1.1553 -0.8223  1.4503
  732MOL0     H98776  -1.254   2.504  -1.487 -1.3234  0.8964 -4.1618
  732MOL0     H98777  -1.146   2.639  -1.550  0.5723 -0.2823 -0.0069
  732MOL0     H98778  -1.429   2.590  -1.558 -0.7401  0.6416  2.0316
  732MOL0     H98779  -1.324   2.685  -1.661  0.4827  2.2659  0.4928
  732MOL0     H98780  -1.549   2.726  -1.726 -0.3276 -0.4997  1.1139
  732MOL0     H98781  -1.794   2.826  -1.898  0.1872 -0.6443 -1.0847
  732MOL0     H98782  -1.675   2.928  -1.982 -1.7947 -0.5827 -2.6550
  732MOL0     H98783  -1.640   2.759  -1.920  0.4857  0.5492  2.1565
  732MOL0     H98784  -1.799   3.260  -1.985  0.3751 -1.8855  1.5279
  732MOL0     H98785  -1.950   3.397  -2.132 -0.6096  1.4092  0.4005
  732MOL0     H98786  -2.324   3.277  -2.372  2.9224 -5.6616 -1.8245
  732MOL0     H98787  -2.274   3.148  -2.279 -2.1757 -0.9064  1.8436
  732MOL0     H98788  -2.523   3.225  -2.258  0.9137  0.9913 -0.9618
  732MOL0     H98789  -2.452   3.179  -2.106 -0.6568 -0.7927 -1.0315
  732MOL0     H98790  -2.495   3.450  -2.221 -2.2740  1.0185 -0.1189
  732MOL0     H98791  -2.452   3.422  -2.041 -2.0360  1.1392  1.1080
  732MOL0     H98792  -2.705   3.335  -2.180 -1.9592  2.8251  0.1440
  732MOL0     H98793  -2.649   3.289  -2.022  2.9639  0.2271  0.7986
  732MOL0     H98794  -2.636   3.546  -1.975  0.2665 -1.3528  1.2811
  732MOL0     H98795  -2.794   3.489  -2.004  0.3442  2.5057  0.2108
  732MOL0     H98796  -2.613   3.642  -2.206  0.3526 -1.2189  1.8918
  732MOL0     H98797  -2.757   3.554  -2.259  0.6890  1.4878 -1.7248
  732MOL0     H98798  -2.777   3.807  -2.229  0.4615  0.9615  2.2060
  732MOL0     H98799  -2.793   3.760  -2.062  1.7750 -0.5376  0.0481
  732MOL0     H98800  -3.005   3.799  -2.156  1.8883 -0.0929  2.0325
  732MOL0     H98801  -2.979   3.614  -2.128  3.9788 -1.0425  0.0350
  732MOL0     H98802  -2.259   3.095  -2.045  1.5047 -1.7079 -2.3972
  732MOL0     H98803  -2.121   2.999  -1.890 -0.7870  1.3073  0.6730
  732MOL0     H98804  -1.619   3.169  -1.533  2.1353  0.9317 -0.7064
  732MOL0     H98805  -1.485   3.016  -1.425  2.9599  1.7122 -0.6879
  732MOL0     H98806  -0.199   3.059  -0.307 -3.6674 -1.0303 -0.1143
  732MOL0     H98807  -0.003   2.991  -0.174 -0.3765 -0.0476 -1.2779
  732MOL0     H98808   0.351   3.218   0.148  0.2606  0.0725 -0.2179
  732MOL0     H98809   0.527   3.155   0.289 -0.8109  0.3496  1.0644
  732MOL0     H98810   0.671   2.738   0.452  0.4326  1.1033  0.3705
  732MOL0     H98811   0.602   2.717   0.284 -1.6690  2.2552 -2.1776
  732MOL0     H98812   0.762   2.890   0.204 -1.8931  0.7575  2.2443
  732MOL0     H98813   0.850   2.755   0.258  0.9267 -1.9821  3.3362
  732MOL0     H98814   0.889   2.841   0.471 -0.3323  1.8756  0.9126
  732MOL0     H98815   0.830   2.996   0.439  0.4767  1.1128  0.6895
  732MOL0     H98816   1.010   3.039   0.262 -2.2468 -2.1932 -1.7498
  732MOL0     H98817   1.030   2.868   0.236 -1.4214 -0.7292 -0.3299
  732MOL0     H98818   1.332   2.946   0.512 -1.3373 -0.3021  3.4252
  732MOL0     H98819   0.375   2.738   0.295 -1.9027 -0.6465 -1.1273
  732MOL0     H98820   0.191   2.814   0.166 -0.4919 -0.5145  1.3396
  733MOL0     O98821   3.103   5.692   5.061 -0.3400 -0.0669  0.3317
  733MOL0     C98822   3.171   5.782   5.015  0.3727  0.4980  0.1996
  733MOL0     O98823   3.127   5.888   4.944 -0.3801  1.3475  0.2076
  733MOL0     C98824   2.999   5.898   4.911 -0.3878  0.2542 -0.4038
  733MOL0     C98825   2.939   5.819   4.815 -0.1316  0.0018  0.7402
  733MOL0     C98826   2.806   5.858   4.779 -0.0518 -0.4455  0.0504
  733MOL0     C98827   2.736   5.948   4.843  0.8597  0.2980 -0.1280
  733MOL0     O98828   2.603   5.983   4.825  0.2560  0.3587  0.2534
  733MOL0     C98829   2.521   5.890   4.746  0.7458 -0.7249  0.1032
  733MOL0     C98830   2.377   5.936   4.744  0.7497  0.7243  0.5192
  733MOL0     C98831   2.302   5.917   4.875  0.2878  0.7529  0.3398
  733MOL0     C98832   2.176   5.993   4.884 -0.4148 -0.4753 -0.0642
  733MOL0     C98833   2.060   5.956   4.801 -1.4630 -0.0010  0.5025
  733MOL0     C98834   1.935   6.020   4.847  0.2637 -0.1276 -1.1991
  733MOL0     C98835   1.812   5.989   4.764  0.7571 -0.7303  0.5154
  733MOL0     C98836   1.790   5.842   4.757  0.0516 -0.0263  0.6857
  733MOL0     N98837   1.646   5.807   4.715 -0.7897  0.8375  0.2879
  733MOL0     C98838   1.593   5.680   4.718 -0.2469  0.2865 -0.1765
  733MOL0     C98839   1.456   5.696   4.710 -0.9688 -0.2787  0.3366
  733MOL0     C98840   1.347   5.600   4.738 -0.2460  0.1914  0.6098
  733MOL0     C98841   1.221   5.618   4.658 -0.1853  0.3393  0.1883
  733MOL0     C98842   1.106   5.548   4.740 -0.1045  0.5686 -0.1267
  733MOL0     C98843   1.116   5.398   4.760 -0.0715 -0.2656  0.3276
  733MOL0     O98844   1.017   5.360   4.847 -0.7419 -0.1258 -0.0922
  733MOL0     C98845   0.895   5.330   4.795 -0.2804  0.3636 -0.3070
  733MOL0     C98846   0.802   5.318   4.892 -0.0561  0.7797  0.5786
  733MOL0     C98847   0.671   5.284   4.864 -0.3408 -0.1216  0.4576
  733MOL0     C98848   0.583   5.269   4.985  0.7332  0.3065  0.5029
  733MOL0     C98849   0.622   5.264   4.735  0.6664 -0.6298 -0.7692
  733MOL0     C98850   0.483   5.238   4.699  0.1771  0.0341  0.1528
  733MOL0     O98851   0.382   5.252   4.790  0.0956 -0.8428  0.6156
  733MOL0     C98852   0.245   5.254   4.761  0.1872  0.8428 -0.4733
  733MOL0     C98853   0.164   5.242   4.875 -0.2692 -0.3584 -0.6734
  733MOL0     C98854   0.027   5.257   4.865  0.0827 -1.2137  0.4196
  733MOL0     C98855  -0.037   5.268   4.741  0.0461 -0.2500 -0.8580
  733MOL0     O98856  -0.173   5.291   4.722  0.7117 -0.2736  0.6147
  733MOL0     C98857  -0.249   5.231   4.822 -0.1657  0.1120  0.0787
  733MOL0     C98858  -0.394   5.230   4.785 -0.2139  0.6345 -0.1524
  733MOL0     C98859  -0.453   5.364   4.778 -0.4721 -0.5838  0.0339
  733MOL0     C98860  -0.602   5.372   4.789 -1.3156  0.1109  0.6922
  733MOL0     C98861  -0.637   5.520   4.760 -0.9089 -0.6714 -0.1324
  733MOL0     C98862  -0.784   5.523   4.789  0.1628  0.4568 -0.4007
  733MOL0     C98863  -0.874   5.452   4.678  0.1940 -0.0163  1.1406
  733MOL0     C98864  -1.022   5.467   4.685 -0.3820  0.2684  0.1346
  733MOL0    Cl98865  -1.086   5.380   4.829  0.1606  0.0681  0.4596
  733MOL0     C98866   0.039   5.281   4.625 -0.2528 -0.3858 -0.5649
  733MOL0     C98867   0.179   5.262   4.638  0.7121  0.2968 -0.2312
  733MOL0     O98868   0.464   5.191   4.584 -0.8368  0.0626 -0.1383
  733MOL0     C98869   0.710   5.297   4.631  0.2626 -0.6661  0.0003
  733MOL0     C98870   0.847   5.332   4.661  0.5982  0.2117 -0.4029
  733MOL0     N98871   1.440   5.829   4.669 -0.1907 -0.3423  0.5659
  733MOL0     N98872   1.548   5.898   4.684 -0.3132 -0.0411 -0.1110
  733MOL0     C98873   2.788   6.018   4.949 -0.2991  0.1039 -0.3015
  733MOL0     C98874   2.921   5.992   4.986  0.4760  0.1392 -0.1172
  733MOL0     C98875   3.316   5.765   5.028 -0.8355 -0.6638  0.0711
  733MOL0     C98876   3.408   5.816   4.933  0.6246  0.0757 -0.5882
  733MOL0     C98877   3.550   5.795   4.949 -0.4682 -0.1553 -0.0052
  733MOL0     C98878   3.606   5.723   5.046 -1.0643  0.4756 -0.3783
  733MOL0     O98879   3.744   5.707   5.066  0.0255 -0.1094 -0.3986
  733MOL0     C98880   3.825   5.775   4.971 -0.7462 -1.4542  0.1934
  733MOL0     C98881   3.969   5.727   4.996 -0.0942  0.1922 -0.7434
  733MOL0     C98882   4.022   5.778   5.131 -0.5300 -0.3560 -0.0787
  733MOL0     C98883   4.141   5.696   5.177 -1.5257 -0.6986 -0.0659
  733MOL0     C98884   4.252   5.691   5.079 -0.6335 -0.3403  0.4136
  733MOL0     C98885   4.333   5.704   4.988  0.0452  0.2217 -0.4851
  733MOL0     C98886   3.513   5.666   5.138 -0.0774 -0.0318  0.3491
  733MOL0     C98887   3.373   5.693   5.131  0.0996  0.4553  0.5296
  733MOL0     H98888   3.003   5.747   4.766 -1.8447 -0.4055 -1.0323
  733MOL0     H98889   2.758   5.799   4.701 -2.9799  2.3745 -0.5057
  733MOL0     H98890   2.564   5.879   4.646  1.1807 -0.8283  0.3020
  733MOL0     H98891   2.519   5.787   4.783  1.1102 -1.6424 -2.2641
  733MOL0     H98892   2.374   6.039   4.710 -3.0791  0.8086  0.7006
  733MOL0     H98893   2.330   5.891   4.656  1.6483  3.8397 -1.7177
  733MOL0     H98894   2.281   5.810   4.880 -4.2870  1.2925 -1.6975
  733MOL0     H98895   2.369   5.945   4.957 -0.6188  1.8899  0.7274
  733MOL0     H98896   2.150   5.995   4.990 -3.1954  0.4767 -0.6855
  733MOL0     H98897   2.202   6.095   4.855  1.4711 -0.3704  1.7193
  733MOL0     H98898   2.082   5.985   4.698 -0.0805 -3.1815 -0.2109
  733MOL0     H98899   2.063   5.848   4.787  1.2101  0.2132 -1.5705
  733MOL0     H98900   1.921   5.976   4.947  4.3394  1.6915  0.3935
  733MOL0     H98901   1.946   6.128   4.854  0.5676 -0.2498  1.0180
  733MOL0     H98902   1.728   6.038   4.814  0.7591  0.2834 -0.4290
  733MOL0     H98903   1.826   6.040   4.668  1.3134  0.1584  1.0504
  733MOL0     H98904   1.798   5.794   4.855 -1.0056 -0.3147  0.6365
  733MOL0     H98905   1.861   5.789   4.692  2.2743  1.6470  1.6226
  733MOL0     H98906   1.635   5.587   4.755 -1.6551  0.5928  2.4307
  733MOL0     H98907   1.388   5.501   4.716 -2.5305 -0.6790  0.0188
  733MOL0     H98908   1.331   5.611   4.846  0.8901  1.4133  0.6836
  733MOL0     H98909   1.237   5.584   4.555  1.8919  0.2016  0.5112
  733MOL0     H98910   1.192   5.722   4.641 -0.2430  0.0763 -1.5236
  733MOL0     H98911   1.010   5.567   4.693 -0.4867 -0.2663  0.2883
  733MOL0     H98912   1.094   5.595   4.839 -0.5632  0.4212 -0.1099
  733MOL0     H98913   1.217   5.379   4.798  0.2094  3.1446  1.7057
  733MOL0     H98914   1.103   5.353   4.662  1.2914 -0.5242  0.2569
  733MOL0     H98915   0.835   5.327   4.995  2.3405 -1.1049  0.0485
  733MOL0     H98916   0.639   5.292   5.076 -0.5033 -1.3361  1.7657
  733MOL0     H98917   0.494   5.332   4.986 -1.8790 -3.0297 -0.3158
  733MOL0     H98918   0.546   5.166   4.997 -0.1167  0.5358 -0.0465
  733MOL0     H98919   0.198   5.234   4.978 -3.6473 -2.1580  0.4473
  733MOL0     H98920  -0.029   5.243   4.957 -1.2943  0.3084 -0.1346
  733MOL0     H98921  -0.222   5.125   4.834 -1.2087  0.0412  2.2054
  733MOL0     H98922  -0.233   5.267   4.924  0.2500 -0.2471  0.1473
  733MOL0     H98923  -0.396   5.184   4.686 -0.4018 -0.3844  0.3082
  733MOL0     H98924  -0.453   5.168   4.853 -0.1354 -2.4609 -2.6751
  733MOL0     H98925  -0.423   5.402   4.680 -0.8717  0.0911  0.1647
  733MOL0     H98926  -0.394   5.432   4.842  0.3345 -0.8387 -0.4279
  733MOL0     H98927  -0.640   5.311   4.707 -0.1527  0.7412 -0.3577
  733MOL0     H98928  -0.642   5.326   4.880  2.0321  0.6677  2.6155
  733MOL0     H98929  -0.610   5.555   4.660 -0.5340  1.0045  0.5091
  733MOL0     H98930  -0.571   5.579   4.826  0.0602 -3.9880  2.1051
  733MOL0     H98931  -0.800   5.469   4.883 -0.2542 -1.3412 -1.4396
  733MOL0     H98932  -0.815   5.625   4.811  1.1978  0.4365  1.4034
  733MOL0     H98933  -0.850   5.345   4.679  1.7151  0.1832 -1.8219
  733MOL0     H98934  -0.839   5.495   4.584 -1.3924 -1.2589 -0.0588
  733MOL0     H98935  -1.069   5.429   4.593  1.8059  0.4457 -1.1267
  733MOL0     H98936  -1.043   5.572   4.707  1.7292  0.3680  1.9922
  733MOL0     H98937  -0.015   5.292   4.531 -1.5384 -0.5416  0.1386
  733MOL0     H98938   0.215   5.262   4.535 -0.7674  1.9961 -0.7879
  733MOL0     H98939   0.673   5.311   4.530  1.9620 -0.6555 -0.6722
  733MOL0     H98940   0.922   5.353   4.586  0.0423 -0.1590 -1.0768
  733MOL0     H98941   2.725   6.096   4.990  0.0311  0.2267 -0.0247
  733MOL0     H98942   2.955   6.050   5.071 -1.5381  1.6300 -0.2582
  733MOL0     H98943   3.367   5.870   4.849 -1.0729 -1.4228 -0.7899
  733MOL0     H98944   3.608   5.831   4.865 -1.3777 -5.4446 -3.3516
  733MOL0     H98945   3.797   5.745   4.869  0.0513 -2.5476  0.2844
  733MOL0     H98946   3.826   5.884   4.977  3.4715 -1.3522  0.3819
  733MOL0     H98947   4.032   5.766   4.916 -2.3528  4.1122 -0.8489
  733MOL0     H98948   3.981   5.618   4.994  2.3915  0.4282 -1.3701
  733MOL0     H98949   3.944   5.776   5.208  0.3199  1.5219  0.9008
  733MOL0     H98950   4.046   5.884   5.117  0.3979 -0.5671 -0.1883
  733MOL0     H98951   4.115   5.593   5.204 -1.6491  0.1728  3.7202
  733MOL0     H98952   4.171   5.729   5.277 -0.7902  2.5781 -1.2517
  733MOL0     H98953   4.409   5.720   4.914  0.1186 -1.0070 -0.6950
  733MOL0     H98954   3.537   5.598   5.219 -1.7905  0.0999  1.0097
  733MOL0     H98955   3.312   5.643   5.206  1.8338  0.8085  2.2770
  734MOL0     O98956   5.974   3.592   4.042  0.7816 -0.0134  0.1487
  734MOL0     C98957   6.037   3.660   3.976 -0.4469 -0.1723  0.0951
  734MOL0     O98958   5.999   3.771   3.912  0.2428 -0.8900 -0.2936
  734MOL0     C98959   5.869   3.815   3.905  0.4295  0.3921  0.0955
  734MOL0     C98960   5.761   3.768   3.979 -0.0511 -0.5817 -0.2459
  734MOL0     C98961   5.629   3.801   3.943 -0.4706 -0.2661 -0.1590
  734MOL0     C98962   5.609   3.888   3.836  0.9692 -0.1001  0.2742
  734MOL0     O98963   5.478   3.917   3.800 -0.1192  0.0573  0.0194
  734MOL0     C98964   5.370   3.865   3.882 -0.1906  0.0388  0.2098
  734MOL0     C98965   5.238   3.930   3.830 -0.6230  0.4146  0.1091
  734MOL0     C98966   5.117   3.898   3.908  0.7760  0.3274 -0.4258
  734MOL0     C98967   5.064   3.755   3.899  0.0981 -0.5289  0.8048
  734MOL0     C98968   4.915   3.743   3.970 -0.4402  0.1059  0.0282
  734MOL0     C98969   4.921   3.772   4.124  0.1516 -0.4371 -0.2063
  734MOL0     C98970   4.816   3.702   4.206  0.2908 -0.4721  0.2312
  734MOL0     C98971   4.681   3.751   4.180  0.0716 -0.1476  0.0717
  734MOL0     N98972   4.586   3.688   4.283 -0.3791  0.8936 -0.1012
  734MOL0     C98973   4.493   3.586   4.260 -0.3835 -0.6605  0.4132
  734MOL0     C98974   4.431   3.577   4.380  0.5030 -1.1757  0.5889
  734MOL0     C98975   4.317   3.490   4.423 -0.4471  0.6704 -0.5049
  734MOL0     C98976   4.179   3.496   4.360 -0.3410  0.0073  0.0199
  734MOL0     C98977   4.127   3.640   4.363 -1.1026  0.5584  0.4450
  734MOL0     C98978   4.099   3.689   4.502 -0.2083  0.4350 -0.5996
  734MOL0     O98979   4.020   3.593   4.588 -0.0742 -0.0388 -0.3402
  734MOL0     C98980   3.889   3.606   4.590  0.2172  0.1864  0.0698
  734MOL0     C98981   3.820   3.535   4.688 -0.5235 -0.4885  0.3788
  734MOL0     C98982   3.677   3.520   4.680 -0.8355 -0.1198 -0.2452
  734MOL0     C98983   3.625   3.423   4.789  0.3295  0.4724 -0.1226
  734MOL0     C98984   3.602   3.582   4.577 -0.7820 -0.2110 -0.4976
  734MOL0     C98985   3.456   3.583   4.564  0.1671 -0.3016 -0.2751
  734MOL0     O98986   3.406   3.643   4.444  0.1555 -0.3648 -0.1207
  734MOL0     C98987   3.277   3.620   4.398  1.1173  0.4926  0.1360
  734MOL0     C98988   3.182   3.518   4.447 -0.4385 -0.2185  0.0914
  734MOL0     C98989   3.057   3.499   4.387  0.3929 -0.5243 -0.5366
  734MOL0     C98990   3.020   3.574   4.271 -0.2215  0.0344 -0.5210
  734MOL0     O98991   2.895   3.545   4.215  1.0740  0.5139 -0.0407
  734MOL0     C98992   2.851   3.635   4.117  0.3530 -0.0988 -0.1520
  734MOL0     C98993   2.711   3.624   4.061  0.0778 -0.0633  0.0749
  734MOL0     C98994   2.606   3.656   4.173  0.0618  0.2170  0.0515
  734MOL0     C98995   2.458   3.660   4.119 -0.2882 -0.4374 -0.0671
  734MOL0     C98996   2.352   3.702   4.225  0.1617 -0.2001  0.5081
  734MOL0     C98997   2.212   3.669   4.158 -0.5362  0.7390 -0.1536
  734MOL0     C98998   2.167   3.776   4.066 -0.5060  0.2584  0.5422
  734MOL0     C98999   2.033   3.744   3.988 -0.0268 -0.0590  0.6848
  734MOL0    Cl99000   1.889   3.722   4.099 -0.1041  0.2487 -0.3909
  734MOL0     C99001   3.105   3.679   4.226 -0.4035  0.6442  0.3348
  734MOL0     C99002   3.231   3.703   4.299  0.6798  0.2378 -0.1964
  734MOL0     O99003   3.383   3.528   4.644  0.2919  0.2386  0.0053
  734MOL0     C99004   3.679   3.651   4.482  0.6581 -0.4097  0.9052
  734MOL0     C99005   3.815   3.669   4.489  0.5806  0.5967 -0.8721
  734MOL0     N99006   4.481   3.675   4.473 -0.0354  0.7116 -0.1008
  734MOL0     N99007   4.585   3.725   4.417 -0.6433  0.1408  0.0671
  734MOL0     C99008   5.711   3.948   3.764 -0.2796  0.5573 -0.0009
  734MOL0     C99009   5.839   3.909   3.801  0.0853 -1.0475 -0.2877
  734MOL0     C99010   6.178   3.621   3.964  0.2218  0.3795 -0.2806
  734MOL0     C99011   6.204   3.486   3.971 -0.4179 -0.3721 -0.6739
  734MOL0     C99012   6.330   3.439   3.932 -0.9703  0.4733 -0.3328
  734MOL0     C99013   6.434   3.529   3.887  0.4254 -0.8492 -0.0716
  734MOL0     O99014   6.563   3.505   3.848 -0.2526 -0.1803  0.5417
  734MOL0     C99015   6.624   3.380   3.849  0.2621  0.6223 -0.0691
  734MOL0     C99016   6.739   3.370   3.748 -0.0518 -0.0131 -0.1278
  734MOL0     C99017   6.834   3.251   3.780  0.3015 -0.4197  0.9803
  734MOL0     C99018   6.886   3.246   3.925  0.5760 -0.1885  0.1700
  734MOL0     C99019   7.010   3.172   3.929  0.0791  1.1448 -0.3042
  734MOL0     C99020   7.118   3.115   3.940  0.7056 -0.4706 -0.2295
  734MOL0     C99021   6.413   3.672   3.889 -0.0772  0.1161  1.4248
  734MOL0     C99022   6.279   3.708   3.916 -0.0131 -0.1466 -0.4231
  734MOL0     H99023   5.769   3.692   4.056  0.9341 -1.1805 -0.9084
  734MOL0     H99024   5.555   3.743   3.997  0.3083 -0.4464  0.7397
  734MOL0     H99025   5.365   3.756   3.874 -0.7094  0.1867 -2.3495
  734MOL0     H99026   5.379   3.901   3.985 -3.3092 -0.0851  0.6118
  734MOL0     H99027   5.250   4.038   3.843  0.5619  0.4937 -1.4333
  734MOL0     H99028   5.224   3.918   3.722  0.8244  3.4469 -0.5239
  734MOL0     H99029   5.133   3.911   4.016  0.8496 -0.3021 -0.3545
  734MOL0     H99030   5.036   3.968   3.887 -0.0933 -0.3031  0.6647
  734MOL0     H99031   5.070   3.721   3.795  0.7800  3.1887 -0.5048
  734MOL0     H99032   5.122   3.675   3.946 -0.4739 -2.7290 -1.9881
  734MOL0     H99033   4.831   3.795   3.922 -2.4010 -2.0773  0.8552
  734MOL0     H99034   4.884   3.637   3.974  1.2171 -0.4069  4.3485
  734MOL0     H99035   5.017   3.737   4.163  0.8332 -0.0459 -1.4830
  734MOL0     H99036   4.911   3.880   4.143  1.3418 -0.4806  0.8047
  734MOL0     H99037   4.819   3.594   4.193  1.5462 -0.6775  1.8656
  734MOL0     H99038   4.842   3.717   4.311  1.0284  1.3235 -0.1576
  734MOL0     H99039   4.659   3.719   4.078  1.4013  0.0900 -0.3161
  734MOL0     H99040   4.670   3.859   4.185  0.4422 -0.0363 -1.1525
  734MOL0     H99041   4.479   3.538   4.164 -0.6620 -0.1119  0.1759
  734MOL0     H99042   4.363   3.392   4.407 -0.0576  0.6784  0.4956
  734MOL0     H99043   4.310   3.496   4.532  0.1586  0.2794 -0.4450
  734MOL0     H99044   4.111   3.425   4.409 -2.8670  1.7594 -0.7749
  734MOL0     H99045   4.187   3.451   4.260  0.8139  1.2501 -0.4720
  734MOL0     H99046   4.039   3.632   4.299  1.3019 -1.7638 -2.9321
  734MOL0     H99047   4.195   3.710   4.314  1.7759 -1.2839  1.5197
  734MOL0     H99048   4.059   3.791   4.499 -0.2265  0.7657  3.9363
  734MOL0     H99049   4.195   3.695   4.555 -0.2898  1.0944 -0.5119
  734MOL0     H99050   3.879   3.484   4.764 -0.1140  2.8167  2.4896
  734MOL0     H99051   3.672   3.429   4.887  0.7145  0.9625 -0.3345
  734MOL0     H99052   3.522   3.452   4.812 -0.1971 -0.2933 -1.3885
  734MOL0     H99053   3.635   3.319   4.756 -0.3408  1.2648 -3.1823
  734MOL0     H99054   3.200   3.451   4.530  0.4072 -1.3261 -0.9486
  734MOL0     H99055   2.988   3.428   4.431 -0.8626  3.5668  5.4154
  734MOL0     H99056   2.851   3.735   4.164  0.1145 -0.2793  0.2456
  734MOL0     H99057   2.924   3.639   4.036 -0.1187 -0.2116 -0.5872
  734MOL0     H99058   2.689   3.683   3.971 -2.0559  0.4519  0.8711
  734MOL0     H99059   2.700   3.520   4.026  2.9502 -0.3484 -0.2146
  734MOL0     H99060   2.625   3.760   4.199 -3.1603  1.5556 -2.2160
  734MOL0     H99061   2.617   3.592   4.261 -0.1409  1.3203  0.9032
  734MOL0     H99062   2.446   3.726   4.032  0.5939 -0.1509  0.0173
  734MOL0     H99063   2.436   3.557   4.088 -0.2738 -1.3130  2.6073
  734MOL0     H99064   2.360   3.809   4.248 -3.9248  1.3210 -3.6890
  734MOL0     H99065   2.364   3.640   4.314  1.9788  1.1545  1.2733
  734MOL0     H99066   2.207   3.572   4.108 -1.8797  2.1480 -3.0243
  734MOL0     H99067   2.140   3.667   4.241 -0.7506  0.3666 -0.3443
  734MOL0     H99068   2.246   3.804   3.995 -1.3063  0.4153 -0.3050
  734MOL0     H99069   2.135   3.853   4.136 -1.0654 -0.3989  1.0265
  734MOL0     H99070   2.035   3.652   3.928 -0.9157  1.2658 -1.4830
  734MOL0     H99071   2.005   3.826   3.922  0.0663 -0.4547  0.1478
  734MOL0     H99072   3.093   3.722   4.127 -1.8081 -2.1797 -0.8358
  734MOL0     H99073   3.304   3.776   4.265  0.7316  0.0347 -0.5236
  734MOL0     H99074   3.631   3.706   4.401 -0.0865 -0.0302  1.5968
  734MOL0     H99075   3.857   3.729   4.409  0.3965 -2.3295 -3.3432
  734MOL0     H99076   5.673   4.018   3.690 -1.0685 -2.6916 -2.8763
  734MOL0     H99077   5.915   3.953   3.737 -0.7783  2.3007  0.7693
  734MOL0     H99078   6.127   3.413   3.997  0.8878 -1.9280 -1.0381
  734MOL0     H99079   6.333   3.331   3.931 -2.4521  0.4070 -0.7071
  734MOL0     H99080   6.665   3.374   3.951 -0.6947 -1.6873  0.2508
  734MOL0     H99081   6.554   3.298   3.829  2.3985 -0.8282 -2.2658
  734MOL0     H99082   6.786   3.467   3.765 -1.8204  0.5120  2.4044
  734MOL0     H99083   6.701   3.365   3.645  3.0730  0.6081 -1.4095
  734MOL0     H99084   6.927   3.253   3.722  0.2619 -2.3062  0.7844
  734MOL0     H99085   6.786   3.154   3.768 -0.6997 -0.0523  1.8812
  734MOL0     H99086   6.811   3.198   3.989 -3.2846  1.4108 -2.7478
  734MOL0     H99087   6.899   3.348   3.964 -1.5424 -0.5446  2.0392
  734MOL0     H99088   7.216   3.072   3.943  1.2678  0.7950  0.9988
  734MOL0     H99089   6.498   3.737   3.869 -0.0775 -0.3897 -0.3990
  734MOL0     H99090   6.245   3.808   3.895 -2.5307 -1.2866 -2.2230
  735MOL0     O99091   6.080   6.293   8.676  0.6282 -0.4711  0.1236
  735MOL0     C99092   6.049   6.295   8.793  0.1064 -0.2712 -0.3232
  735MOL0     O99093   5.976   6.404   8.844 -0.4471  0.1782  0.6062
  735MOL0     C99094   5.922   6.494   8.751 -0.1143  0.2408 -0.1874
  735MOL0     C99095   5.961   6.625   8.767 -0.2487 -0.1966 -0.3728
  735MOL0     C99096   5.917   6.728   8.683  0.7970 -0.5183  0.6385
  735MOL0     C99097   5.821   6.704   8.585  0.7624 -0.1435  0.0219
  735MOL0     O99098   5.764   6.794   8.492 -0.2560  0.4718 -0.2407
  735MOL0     C99099   5.723   6.913   8.552 -1.0699 -0.2747 -0.1335
  735MOL0     C99100   5.593   6.929   8.635  0.0902  0.3908 -0.1365
  735MOL0     C99101   5.477   6.851   8.566 -0.3844  0.0708 -0.2916
  735MOL0     C99102   5.349   6.904   8.617 -0.0161  0.1530  0.4502
  735MOL0     C99103   5.238   6.858   8.527 -0.2849 -0.0862 -0.2825
  735MOL0     C99104   5.208   6.709   8.541  0.0172 -0.0135 -0.8440
  735MOL0     C99105   5.155   6.642   8.411 -0.7827  0.4044 -0.1181
  735MOL0     C99106   5.044   6.717   8.340 -0.8299  0.4341 -0.3481
  735MOL0     N99107   4.925   6.758   8.416  0.3379 -0.1080 -0.0134
  735MOL0     C99108   4.840   6.674   8.469 -0.1086  0.0197  0.0422
  735MOL0     C99109   4.760   6.755   8.547 -0.8253 -0.1204 -0.2956
  735MOL0     C99110   4.661   6.697   8.634  0.3457  0.2969  0.4334
  735MOL0     C99111   4.519   6.676   8.577  0.3168  0.3055 -0.3405
  735MOL0     C99112   4.421   6.789   8.571 -0.4213 -0.0889 -1.1984
  735MOL0     C99113   4.374   6.849   8.705  0.6535  0.0790  0.1008
  735MOL0     O99114   4.317   6.739   8.780 -0.4088 -0.1647 -0.3687
  735MOL0     C99115   4.193   6.690   8.764 -0.9912 -0.0008  0.3471
  735MOL0     C99116   4.166   6.560   8.807 -0.5781  0.0253  0.2613
  735MOL0     C99117   4.036   6.506   8.786 -0.2035  0.7654  0.0882
  735MOL0     C99118   4.013   6.366   8.830  0.2395  0.3647  0.3958
  735MOL0     C99119   3.931   6.576   8.715  0.4463 -0.1210  0.0230
  735MOL0     C99120   3.797   6.525   8.666  0.4604  0.2653 -0.5703
  735MOL0     O99121   3.706   6.618   8.652 -0.2534 -0.2271  0.4365
  735MOL0     C99122   3.581   6.567   8.637 -0.3230 -0.0129  0.9341
  735MOL0     C99123   3.517   6.557   8.515  0.1908 -0.4281  0.5128
  735MOL0     C99124   3.389   6.495   8.499 -0.2066  0.5569  0.4340
  735MOL0     C99125   3.321   6.442   8.606 -0.4973  0.6508  0.4917
  735MOL0     O99126   3.194   6.403   8.593  0.3941 -0.2646 -0.2322
  735MOL0     C99127   3.128   6.404   8.462  0.7213 -0.0030  0.2838
  735MOL0     C99128   2.987   6.332   8.480 -0.6103 -0.1499  1.0185
  735MOL0     C99129   2.891   6.370   8.364  0.8627  0.2122  0.0415
  735MOL0     C99130   2.750   6.310   8.387  0.0299 -0.1563 -0.3026
  735MOL0     C99131   2.643   6.360   8.290  0.1076  0.4538  0.0994
  735MOL0     C99132   2.519   6.264   8.299  0.2350 -0.1516  0.2077
  735MOL0     C99133   2.401   6.323   8.226  0.8427  0.0921  0.0647
  735MOL0     C99134   2.259   6.265   8.256 -0.6226  0.0727  1.0788
  735MOL0    Cl99135   2.240   6.095   8.182 -0.5676  0.1112 -0.0887
  735MOL0     C99136   3.381   6.461   8.727  0.5102 -0.0039 -0.4489
  735MOL0     C99137   3.502   6.518   8.744  0.9692 -0.6440  0.2364
  735MOL0     O99138   3.783   6.407   8.639  0.2043  0.6566  0.0068
  735MOL0     C99139   3.966   6.702   8.674  0.4208 -0.7417  0.1689
  735MOL0     C99140   4.093   6.753   8.694  0.2083  0.5081  0.7589
  735MOL0     N99141   4.789   6.890   8.512  0.1971 -0.5547 -0.2134
  735MOL0     N99142   4.900   6.887   8.445 -0.2724  0.4557 -0.1427
  735MOL0     C99143   5.775   6.569   8.580 -1.0206  0.0547  0.6680
  735MOL0     C99144   5.829   6.462   8.656  0.2817 -0.0945 -0.0259
  735MOL0     C99145   6.101   6.184   8.882  0.6898  0.8730  0.8953
  735MOL0     C99146   6.110   6.208   9.018  0.6580  0.0621  0.2949
  735MOL0     C99147   6.154   6.106   9.106  0.1514  0.5033  0.1002
  735MOL0     C99148   6.186   5.976   9.055  0.2966 -0.9838  0.0807
  735MOL0     O99149   6.231   5.874   9.135  0.6171 -0.6328 -0.0616
  735MOL0     C99150   6.158   5.752   9.124 -0.5176  0.4023  0.9673
  735MOL0     C99151   6.208   5.661   9.224 -0.3889  0.3564  0.0380
  735MOL0     C99152   6.106   5.545   9.255 -0.3782  0.8833 -0.3997
  735MOL0     C99153   6.179   5.410   9.307 -0.0571  0.2112  0.5729
  735MOL0     C99154   6.146   5.384   9.448 -0.5563 -0.3958  0.2433
  735MOL0     C99155   6.093   5.370   9.554  0.4843  0.6568 -0.8010
  735MOL0     C99156   6.169   5.960   8.913 -0.2804  0.8441  0.8195
  735MOL0     C99157   6.128   6.060   8.827  0.0854  0.0549  0.4859
  735MOL0     H99158   6.026   6.652   8.850  1.2626  0.6464 -1.7739
  735MOL0     H99159   5.958   6.827   8.699  1.4965 -0.5944 -0.5850
  735MOL0     H99160   5.801   6.972   8.602 -0.6954  0.8812 -2.0013
  735MOL0     H99161   5.703   6.976   8.465 -1.8453  0.8354  0.8248
  735MOL0     H99162   5.605   6.884   8.734 -0.8245  1.7564  0.6362
  735MOL0     H99163   5.578   7.037   8.639 -0.5086  0.4040 -1.8864
  735MOL0     H99164   5.492   6.840   8.459 -1.0123  0.7547 -0.4571
  735MOL0     H99165   5.490   6.752   8.611 -2.6896  0.3182  1.0966
  735MOL0     H99166   5.333   6.869   8.719  0.4327 -0.9989  0.1420
  735MOL0     H99167   5.349   7.013   8.621 -0.9095  0.2022 -0.3622
  735MOL0     H99168   5.146   6.912   8.550  0.7450  1.6899 -0.1750
  735MOL0     H99169   5.272   6.879   8.425 -1.3035  0.6602 -0.4756
  735MOL0     H99170   5.296   6.652   8.573  0.8760  1.6650 -0.1177
  735MOL0     H99171   5.134   6.697   8.620 -1.3782 -1.4787 -2.2897
  735MOL0     H99172   5.240   6.630   8.344  0.4016  0.2502  1.3424
  735MOL0     H99173   5.111   6.543   8.432  1.9808 -0.7278  0.7952
  735MOL0     H99174   5.005   6.654   8.260 -2.4042  0.7320  0.1432
  735MOL0     H99175   5.091   6.803   8.292 -0.5391 -0.3343 -1.4652
  735MOL0     H99176   4.848   6.566   8.481  1.6445  0.4190  4.2239
  735MOL0     H99177   4.687   6.594   8.657  1.8509  0.4920 -0.2523
  735MOL0     H99178   4.658   6.758   8.725 -2.8917  1.9300 -0.5732
  735MOL0     H99179   4.466   6.604   8.641 -1.3791  1.5481 -0.2705
  735MOL0     H99180   4.533   6.637   8.476  1.1834  5.3490 -2.4502
  735MOL0     H99181   4.339   6.751   8.509 -2.0543 -1.8929  1.8526
  735MOL0     H99182   4.471   6.867   8.511  1.0823  0.5589  0.7735
  735MOL0     H99183   4.305   6.932   8.685 -0.9046 -0.8066  1.6212
  735MOL0     H99184   4.458   6.894   8.760 -0.3462  0.5406  1.2911
  735MOL0     H99185   4.238   6.493   8.853 -2.5999 -1.9579  0.6896
  735MOL0     H99186   3.939   6.364   8.911 -2.7860  0.1422 -2.2085
  735MOL0     H99187   3.979   6.305   8.746  0.1280  0.6663  0.2211
  735MOL0     H99188   4.108   6.319   8.858  0.2460 -1.2879 -2.0964
  735MOL0     H99189   3.554   6.596   8.420 -1.3841  0.1520  0.1065
  735MOL0     H99190   3.363   6.485   8.395  1.4035  0.5102  0.0036
  735MOL0     H99191   3.129   6.508   8.428  2.1602  0.6121  2.0340
  735MOL0     H99192   3.185   6.347   8.388  1.7647 -0.1304  1.1560
  735MOL0     H99193   3.011   6.226   8.467 -3.0926 -0.6935  0.3327
  735MOL0     H99194   2.944   6.362   8.576 -1.7413  0.8003  0.2315
  735MOL0     H99195   2.935   6.338   8.269  1.2054  1.7447 -0.3478
  735MOL0     H99196   2.875   6.478   8.361  2.7170  0.5331 -3.7700
  735MOL0     H99197   2.775   6.204   8.381  1.8106  0.2835 -2.1189
  735MOL0     H99198   2.717   6.328   8.489  0.8799  0.0670 -0.0594
  735MOL0     H99199   2.690   6.339   8.194 -0.8177 -0.1312 -0.2364
  735MOL0     H99200   2.614   6.465   8.302 -1.0580  0.0243  1.2676
  735MOL0     H99201   2.538   6.163   8.261 -0.6696 -0.0464 -0.5678
  735MOL0     H99202   2.484   6.252   8.402  4.0714  0.0933  1.7017
  735MOL0     H99203   2.426   6.312   8.120  1.4436  0.9301  0.1009
  735MOL0     H99204   2.406   6.430   8.251  1.9375 -0.0270  0.4150
  735MOL0     H99205   2.185   6.328   8.206 -0.9092  0.1104  1.5434
  735MOL0     H99206   2.238   6.266   8.363  0.0339  2.0193  1.2333
  735MOL0     H99207   3.336   6.430   8.821 -1.9050  2.2321 -0.7452
  735MOL0     H99208   3.540   6.511   8.845  0.0088  0.9765  0.7422
  735MOL0     H99209   3.901   6.763   8.611 -0.7031  0.6894  2.5442
  735MOL0     H99210   4.116   6.849   8.649 -0.0759  0.4288  0.4419
  735MOL0     H99211   5.703   6.547   8.502  0.2550 -1.6889 -0.0875
  735MOL0     H99212   5.793   6.361   8.639 -0.7297  0.2682 -0.1644
  735MOL0     H99213   6.071   6.303   9.052  1.6788  0.2893  0.8590
  735MOL0     H99214   6.159   6.122   9.213 -0.2208 -0.6572  0.3045
  735MOL0     H99215   6.049   5.761   9.117 -0.4203  0.4023 -3.0974
  735MOL0     H99216   6.178   5.707   9.026  2.1052 -1.3590  2.2073
  735MOL0     H99217   6.241   5.707   9.317 -0.4970 -1.5912  1.0697
  735MOL0     H99218   6.295   5.607   9.185 -0.6018 -0.9007  1.2445
  735MOL0     H99219   6.046   5.516   9.168 -1.1491  0.5681  0.2238
  735MOL0     H99220   6.044   5.584   9.336  0.5421 -2.0239  1.8415
  735MOL0     H99221   6.285   5.428   9.287 -0.8980  2.9471 -2.2296
  735MOL0     H99222   6.153   5.325   9.244  1.1744 -0.3319  0.7710
  735MOL0     H99223   6.036   5.359   9.645  2.0191 -0.3295  0.0774
  735MOL0     H99224   6.194   5.868   8.861 -2.9375  0.3552  0.2707
  735MOL0     H99225   6.123   6.039   8.721  1.7590 -2.1057  0.7555
  736MOL0     O99226   9.126   7.318   8.211  0.6106 -0.8922 -0.3132
  736MOL0     C99227   9.215   7.398   8.187  0.9597 -0.1082  0.1970
  736MOL0     O99228   9.192   7.530   8.197 -0.3099 -0.1617 -0.1117
  736MOL0     C99229   9.078   7.586   8.238  0.3569  0.9462 -0.7664
  736MOL0     C99230   8.982   7.625   8.139 -0.4938 -0.6516  0.3536
  736MOL0     C99231   8.866   7.684   8.175  1.4458 -0.1090 -0.3850
  736MOL0     C99232   8.855   7.722   8.313  0.2364  0.4945  0.5248
  736MOL0     O99233   8.757   7.794   8.363  0.0043 -0.9782 -0.1692
  736MOL0     C99234   8.622   7.739   8.354  0.3890  0.4011 -0.0292
  736MOL0     C99235   8.590   7.674   8.487 -0.0400 -0.5373  0.5945
  736MOL0     C99236   8.450   7.604   8.480  0.2561 -0.4176 -0.2976
  736MOL0     C99237   8.395   7.578   8.617 -0.0259 -0.4559  0.6080
  736MOL0     C99238   8.252   7.536   8.597 -0.2189 -0.0502 -0.2544
  736MOL0     C99239   8.197   7.522   8.734 -0.3528  0.7134 -0.9675
  736MOL0     C99240   8.041   7.486   8.739 -0.1380  0.3896 -0.3083
  736MOL0     C99241   8.005   7.379   8.645 -0.3407 -0.0193 -0.8579
  736MOL0     N99242   7.868   7.319   8.671 -0.8718 -0.0362 -0.9214
  736MOL0     C99243   7.848   7.187   8.697 -0.2954 -0.1771 -0.6333
  736MOL0     C99244   7.714   7.174   8.692 -0.4989  0.9281  0.0455
  736MOL0     C99245   7.617   7.058   8.677 -0.4406  0.0192  0.0003
  736MOL0     C99246   7.620   6.981   8.549  1.2659  0.4200  0.1057
  736MOL0     C99247   7.753   6.925   8.508  0.0433  0.2375 -0.5743
  736MOL0     C99248   7.744   6.806   8.414  0.0494  0.4873  0.2418
  736MOL0     O99249   7.667   6.836   8.292 -0.1194 -0.1173 -0.5419
  736MOL0     C99250   7.553   6.767   8.264  0.5739 -0.3015 -0.4102
  736MOL0     C99251   7.448   6.833   8.200  0.3611  0.4679  0.5430
  736MOL0     C99252   7.325   6.769   8.173 -0.2594  0.1216 -0.4782
  736MOL0     C99253   7.219   6.849   8.102  0.5560  0.4249 -0.0006
  736MOL0     C99254   7.315   6.637   8.221 -0.2763  0.1088  0.1677
  736MOL0     C99255   7.185   6.573   8.236 -0.2107  0.4443  0.2250
  736MOL0     O99256   7.173   6.436   8.232 -0.1574  0.6363 -0.6769
  736MOL0     C99257   7.061   6.379   8.293 -0.7893 -0.8486  0.4648
  736MOL0     C99258   6.950   6.353   8.215 -0.3378  0.3837  0.0024
  736MOL0     C99259   6.835   6.301   8.267 -0.0021  0.8061  0.5155
  736MOL0     C99260   6.828   6.256   8.395 -0.0412 -0.6871 -1.1653
  736MOL0     O99261   6.724   6.195   8.454  0.8857 -0.3881  0.2860
  736MOL0     C99262   6.601   6.169   8.371  0.0278  0.1661 -0.5687
  736MOL0     C99263   6.490   6.139   8.471  0.7732 -0.4268  0.4323
  736MOL0     C99264   6.458   6.254   8.574  0.3970 -0.1848 -0.0181
  736MOL0     C99265   6.394   6.375   8.510  0.3867  0.0730 -0.3647
  736MOL0     C99266   6.369   6.490   8.609  0.2421  0.0692 -0.0250
  736MOL0     C99267   6.316   6.616   8.542  0.4770 -0.3257 -0.9001
  736MOL0     C99268   6.326   6.736   8.632 -0.2512  0.2152 -0.2226
  736MOL0     C99269   6.256   6.866   8.588  1.5521 -0.1637  0.6338
  736MOL0    Cl99270   6.324   6.986   8.709  0.2489 -0.4286  0.5283
  736MOL0     C99271   6.938   6.281   8.478 -0.8584 -0.4495  0.2290
  736MOL0     C99272   7.049   6.350   8.426  1.2680  0.4145 -0.2532
  736MOL0     O99273   7.098   6.646   8.278  0.0532 -0.4016  1.1024
  736MOL0     C99274   7.424   6.563   8.264 -0.4561 -0.4057 -1.1458
  736MOL0     C99275   7.542   6.630   8.289  0.3040 -0.4388 -0.7615
  736MOL0     N99276   7.654   7.298   8.680 -0.3988  0.3339  0.2418
  736MOL0     N99277   7.748   7.383   8.656  1.1406  0.4036  0.2086
  736MOL0     C99278   8.938   7.671   8.409  0.1279  0.3434  1.3468
  736MOL0     C99279   9.051   7.605   8.376 -0.3231  1.2279 -0.5169
  736MOL0     C99280   9.354   7.350   8.162 -0.2612 -0.2181  0.4565
  736MOL0     C99281   9.461   7.436   8.161 -0.3803  0.0204 -0.1537
  736MOL0     C99282   9.599   7.395   8.162  0.4153 -0.0705 -0.2327
  736MOL0     C99283   9.623   7.257   8.156 -0.0862 -0.1137 -0.0723
  736MOL0     O99284   9.750   7.200   8.159  0.4977  0.3880  0.4056
  736MOL0     C99285   9.854   7.275   8.110  0.0603  0.0227  0.2139
  736MOL0     C99286   9.992   7.212   8.110 -0.1921  1.1808 -0.3853
  736MOL0     C99287   9.996   7.093   8.010  0.8600 -0.4550  0.7113
  736MOL0     C99288  10.128   7.096   7.923 -0.0280 -0.6579 -0.0191
  736MOL0     C99289  10.142   7.221   7.836 -0.0843  1.3664 -0.5258
  736MOL0     C99290  10.158   7.311   7.752  0.6572 -0.4960  0.1217
  736MOL0     C99291   9.513   7.167   8.157  0.1499 -0.7717  0.3644
  736MOL0     C99292   9.390   7.215   8.167  0.5500  0.2089  0.4987
  736MOL0     H99293   9.019   7.617   8.037  0.7760  1.6109  0.5726
  736MOL0     H99294   8.783   7.700   8.107  0.7828 -4.1854 -0.8268
  736MOL0     H99295   8.548   7.819   8.346  1.6765  1.7001  0.4143
  736MOL0     H99296   8.613   7.666   8.274  2.1095  0.2807 -0.1553
  736MOL0     H99297   8.675   7.607   8.502  0.1170 -0.5846 -0.4475
  736MOL0     H99298   8.583   7.757   8.559  1.4381  1.4399 -1.4183
  736MOL0     H99299   8.381   7.673   8.429  4.4753  3.5687 -1.3229
  736MOL0     H99300   8.453   7.517   8.414  0.5325 -0.1359 -0.6688
  736MOL0     H99301   8.454   7.505   8.673  1.1715 -0.1337 -0.1858
  736MOL0     H99302   8.400   7.676   8.665  0.3347 -0.8939  1.4886
  736MOL0     H99303   8.197   7.615   8.546 -1.8406 -1.3697 -0.6355
  736MOL0     H99304   8.249   7.443   8.541 -1.9123 -0.7304  0.8899
  736MOL0     H99305   8.251   7.438   8.779 -0.9453 -0.5226 -2.4404
  736MOL0     H99306   8.206   7.617   8.788 -2.0557 -0.0241  0.7393
  736MOL0     H99307   8.004   7.456   8.838  0.5237  2.0204  0.4712
  736MOL0     H99308   7.984   7.575   8.709 -1.6000  0.8218  3.2674
  736MOL0     H99309   8.077   7.296   8.648  0.2815  0.5018 -1.1420
  736MOL0     H99310   8.008   7.417   8.542 -0.6649  1.7106 -0.2490
  736MOL0     H99311   7.911   7.099   8.702 -0.1992 -0.0598  2.6882
  736MOL0     H99312   7.632   6.984   8.756 -1.8425  0.9031  1.1537
  736MOL0     H99313   7.516   7.095   8.698 -0.6731 -0.4484 -0.2723
  736MOL0     H99314   7.589   7.043   8.464 -0.8015 -0.3125  0.2579
  736MOL0     H99315   7.543   6.903   8.555  0.3194  1.2729 -0.4874
  736MOL0     H99316   7.809   6.888   8.594 -1.3299  1.8170  1.0710
  736MOL0     H99317   7.812   7.002   8.458  1.0882  1.1429  1.8978
  736MOL0     H99318   7.699   6.721   8.466  3.1604 -0.4732  1.5533
  736MOL0     H99319   7.844   6.771   8.387 -0.7477 -1.9080  0.2193
  736MOL0     H99320   7.455   6.939   8.178 -0.2743  1.1398  3.1373
  736MOL0     H99321   7.132   6.864   8.166 -0.0913 -0.7753 -0.5603
  736MOL0     H99322   7.254   6.947   8.070 -1.3949  1.2949  0.3682
  736MOL0     H99323   7.182   6.795   8.014 -2.2313  0.1440  1.2118
  736MOL0     H99324   6.962   6.373   8.109 -2.2732 -0.3093 -0.3943
  736MOL0     H99325   6.752   6.294   8.197  0.1847  0.6894  0.3036
  736MOL0     H99326   6.576   6.256   8.310  0.4214 -1.1601 -2.7259
  736MOL0     H99327   6.614   6.085   8.302 -2.3610 -0.5734 -0.1914
  736MOL0     H99328   6.400   6.105   8.418  2.0643 -2.2896 -0.6752
  736MOL0     H99329   6.511   6.046   8.526  0.4619  0.7753  2.6894
  736MOL0     H99330   6.553   6.286   8.617 -0.2746  1.0966  0.5837
  736MOL0     H99331   6.391   6.219   8.654  1.0011  1.6410  1.3438
  736MOL0     H99332   6.456   6.420   8.432  1.7915 -0.3785  0.4712
  736MOL0     H99333   6.299   6.348   8.463  0.0496  1.2443 -0.4140
  736MOL0     H99334   6.460   6.508   8.667  1.5724 -1.2621 -1.6231
  736MOL0     H99335   6.295   6.466   8.686 -2.0904  1.5257 -1.6636
  736MOL0     H99336   6.370   6.628   8.448  0.6371 -1.5987 -0.9782
  736MOL0     H99337   6.212   6.593   8.519  0.8795 -0.5606 -2.5851
  736MOL0     H99338   6.430   6.766   8.653 -0.3161  1.0446 -1.0091
  736MOL0     H99339   6.283   6.703   8.728  1.3474  0.3315  0.5731
  736MOL0     H99340   6.147   6.857   8.591  1.4312 -0.4995 -2.1177
  736MOL0     H99341   6.279   6.892   8.484 -0.1156  1.8176  0.7082
  736MOL0     H99342   6.940   6.245   8.580 -2.1865  1.3623  0.9535
  736MOL0     H99343   7.130   6.392   8.484  0.1660  4.1113 -1.1644
  736MOL0     H99344   7.410   6.460   8.293  0.5506 -0.3117 -0.2266
  736MOL0     H99345   7.613   6.567   8.342  1.3984  1.0307 -0.3915
  736MOL0     H99346   8.914   7.667   8.515 -4.3302 -2.9517  0.5017
  736MOL0     H99347   9.127   7.568   8.444 -1.7234 -0.8486  0.0199
  736MOL0     H99348   9.436   7.542   8.164 -1.1116 -0.1042 -1.1435
  736MOL0     H99349   9.665   7.481   8.158 -1.8362  1.8538  0.7965
  736MOL0     H99350   9.822   7.296   8.008  0.3234  1.5592  0.4376
  736MOL0     H99351   9.871   7.368   8.165  0.9434 -0.5921  1.0156
  736MOL0     H99352  10.021   7.185   8.212  0.6335  0.9730 -0.6636
  736MOL0     H99353  10.070   7.285   8.087  3.7733 -2.2218  1.0515
  736MOL0     H99354   9.915   7.097   7.935 -1.8171 -0.2611  3.4187
  736MOL0     H99355   9.985   6.997   8.061  0.3926 -0.4823  0.5651
  736MOL0     H99356  10.125   7.021   7.845 -1.4266  0.1221 -0.7611
  736MOL0     H99357  10.217   7.078   7.984 -0.3859  0.9682  1.0692
  736MOL0     H99358  10.147   7.387   7.677 -1.6325 -0.7109  0.1652
  736MOL0     H99359   9.533   7.061   8.165  2.6709 -0.3952  0.0060
  736MOL0     H99360   9.319   7.134   8.183  0.7048  0.0623  0.4465
  737MOL0     O99361   9.855   6.514  11.148  0.0324  0.2186 -0.6611
  737MOL0     C99362   9.879   6.629  11.118  0.2091 -0.4456  0.1333
  737MOL0     O99363   9.789   6.731  11.134 -0.3874  1.6792  0.0893
  737MOL0     C99364   9.661   6.721  11.140 -0.8006  0.5455 -0.2535
  737MOL0     C99365   9.603   6.821  11.067  0.3036 -0.1597 -0.3795
  737MOL0     C99366   9.467   6.802  11.028  0.5553  0.3047 -0.9560
  737MOL0     C99367   9.393   6.710  11.095  0.5368 -0.4078 -0.0566
  737MOL0     O99368   9.260   6.695  11.067  0.7219  0.0278 -0.0577
  737MOL0     C99369   9.208   6.690  10.937  1.0867 -0.4589  0.3281
  737MOL0     C99370   9.062   6.722  10.935  0.1776  0.4491 -0.2730
  737MOL0     C99371   9.021   6.785  10.799 -0.5137 -0.6594 -1.4339
  737MOL0     C99372   8.879   6.847  10.811  0.1575  1.2644 -0.3559
  737MOL0     C99373   8.783   6.723  10.806 -0.4170  0.5459 -0.2688
  737MOL0     C99374   8.637   6.771  10.790 -0.0991 -0.5279 -0.5752
  737MOL0     C99375   8.535   6.663  10.811  0.4444 -0.2713 -0.1931
  737MOL0     C99376   8.397   6.708  10.775 -0.3932 -0.0803  0.3834
  737MOL0     N99377   8.299   6.597  10.777  0.1715  0.4678 -0.4518
  737MOL0     C99378   8.207   6.582  10.882 -0.1525  0.5645  0.9101
  737MOL0     C99379   8.138   6.471  10.842  0.3151 -0.3357  0.0875
  737MOL0     C99380   8.020   6.405  10.922 -0.3030 -0.4157  0.7618
  737MOL0     C99381   7.902   6.490  10.949  1.1817 -0.2618 -0.0222
  737MOL0     C99382   7.827   6.522  10.818 -0.2170  0.6150 -0.0098
  737MOL0     C99383   7.685   6.571  10.842  0.6318  0.3935  0.4350
  737MOL0     O99384   7.603   6.452  10.839 -0.0742  0.1271  0.3924
  737MOL0     C99385   7.470   6.466  10.877 -0.5410 -0.1390 -0.2677
  737MOL0     C99386   7.398   6.572  10.826  0.7690 -0.0181 -0.0182
  737MOL0     C99387   7.259   6.590  10.850 -0.3352  0.2073 -0.7429
  737MOL0     C99388   7.187   6.704  10.782  0.1401 -0.1761 -0.0946
  737MOL0     C99389   7.192   6.505  10.944  0.6507  0.5492  0.3970
  737MOL0     C99390   7.042   6.501  10.962  0.0428  0.4980  0.2683
  737MOL0     O99391   6.972   6.616  10.930  0.2168  0.4420 -0.2062
  737MOL0     C99392   6.831   6.606  10.948  0.1283 -1.0742 -1.0357
  737MOL0     C99393   6.751   6.503  10.899 -0.4747  0.3013  0.2339
  737MOL0     C99394   6.608   6.497  10.899  0.3346  0.1123  0.3927
  737MOL0     C99395   6.538   6.597  10.971 -0.0525 -0.5920 -0.1037
  737MOL0     O99396   6.398   6.611  10.975  0.1580  0.6837  0.0344
  737MOL0     C99397   6.328   6.548  10.869  0.3808 -0.4592 -0.9198
  737MOL0     C99398   6.184   6.581  10.890 -0.0401 -0.4968 -0.0277
  737MOL0     C99399   6.108   6.511  10.771 -0.5218 -0.5135  0.0500
  737MOL0     C99400   5.970   6.580  10.758  1.1329 -0.1886 -0.3179
  737MOL0     C99401   5.891   6.504  10.663 -0.5583 -0.5865  0.8657
  737MOL0     C99402   5.781   6.586  10.592  0.3820 -0.2171 -0.1271
  737MOL0     C99403   5.669   6.614  10.694 -0.4234 -0.0675  0.1433
  737MOL0     C99404   5.548   6.640  10.617  0.9368  0.1454  0.1059
  737MOL0    Cl99405   5.407   6.702  10.708 -0.3523 -0.2532  0.0483
  737MOL0     C99406   6.613   6.702  11.028 -0.6137  0.0767  0.5676
  737MOL0     C99407   6.756   6.711  11.012 -0.1625  0.3248  0.4950
  737MOL0     O99408   6.997   6.387  10.997  0.1115  0.4365 -0.1344
  737MOL0     C99409   7.264   6.387  10.980 -0.3468  0.2910  0.1548
  737MOL0     C99410   7.403   6.370  10.951 -0.6019  0.0243  0.5564
  737MOL0     N99411   8.194   6.423  10.727 -0.4589  0.0466 -0.5732
  737MOL0     N99412   8.287   6.507  10.678  0.3271  0.0861 -0.2093
  737MOL0     C99413   9.449   6.606  11.180  0.0995  0.5048  0.0107
  737MOL0     C99414   9.590   6.616  11.202  0.4540 -0.7381 -0.6611
  737MOL0     C99415  10.013   6.673  11.105 -0.0497  0.8280 -0.1123
  737MOL0     C99416  10.115   6.587  11.064  0.4221 -0.6596 -0.0531
  737MOL0     C99417  10.244   6.628  11.063 -0.1322  0.6336  0.6119
  737MOL0     C99418  10.278   6.764  11.078 -0.8044  0.2730  0.2159
  737MOL0     O99419  10.399   6.820  11.057  0.0530 -1.1969 -0.2987
  737MOL0     C99420  10.529   6.759  11.080 -0.0899  0.0858  0.6120
  737MOL0     C99421  10.644   6.853  11.052  0.0581  0.1189  0.5008
  737MOL0     C99422  10.687   6.836  10.905 -0.7108 -0.1952 -0.5460
  737MOL0     C99423  10.758   6.959  10.850 -0.2836  0.2058  0.9485
  737MOL0     C99424  10.867   6.982  10.945  0.1460 -0.4084 -0.2663
  737MOL0     C99425  10.963   6.994  11.014 -0.5484 -0.0641  0.1378
  737MOL0     C99426  10.178   6.854  11.122 -0.0395 -0.1750 -0.1085
  737MOL0     C99427  10.046   6.806  11.144  0.3734  0.0835  0.0065
  737MOL0     H99428   9.660   6.908  11.037 -0.5225  0.9538  1.1347
  737MOL0     H99429   9.421   6.866  10.954 -2.4387 -0.3682  0.1790
  737MOL0     H99430   9.256   6.763  10.872  0.9692 -1.7092 -1.2085
  737MOL0     H99431   9.225   6.595  10.885  0.4118 -1.6109  2.0991
  737MOL0     H99432   9.004   6.635  10.967  1.1871 -0.6061 -1.1853
  737MOL0     H99433   9.052   6.781  11.026 -0.0039  0.8427 -0.5482
  737MOL0     H99434   9.082   6.872  10.776  0.1609 -0.5506  0.5764
  737MOL0     H99435   9.032   6.718  10.713  1.5999 -1.1569 -0.8282
  737MOL0     H99436   8.860   6.908  10.900  1.9668 -2.1776  2.6943
  737MOL0     H99437   8.860   6.903  10.719 -3.6668  0.1137 -0.4358
  737MOL0     H99438   8.804   6.650  10.727  0.3990  0.6766 -0.1890
  737MOL0     H99439   8.805   6.667  10.898  4.0241 -0.1102 -1.4580
  737MOL0     H99440   8.612   6.857  10.853  1.4142  0.3070 -1.0590
  737MOL0     H99441   8.633   6.789  10.682  2.3884 -0.2814 -0.6806
  737MOL0     H99442   8.558   6.579  10.745 -1.3774  0.9591 -2.5685
  737MOL0     H99443   8.531   6.640  10.917 -1.7106 -1.0476 -0.3936
  737MOL0     H99444   8.393   6.744  10.672 -2.3639 -0.6947  0.1943
  737MOL0     H99445   8.378   6.800  10.831  1.6179  0.8734 -0.4286
  737MOL0     H99446   8.181   6.651  10.962  0.1784  1.6175  0.1297
  737MOL0     H99447   7.995   6.318  10.860 -0.8456 -1.1919  2.0340
  737MOL0     H99448   8.057   6.368  11.018  0.6273  0.5875  0.8067
  737MOL0     H99449   7.935   6.582  11.000 -1.6995  0.2901  1.0737
  737MOL0     H99450   7.830   6.441  11.016 -0.5084  0.3804 -1.2802
  737MOL0     H99451   7.826   6.430  10.759 -1.9878  0.8999 -0.5038
  737MOL0     H99452   7.893   6.594  10.770  0.6481  0.0590  0.3293
  737MOL0     H99453   7.658   6.638  10.760  2.5900  1.8196  0.8904
  737MOL0     H99454   7.682   6.632  10.932  1.7647 -1.8457  2.0981
  737MOL0     H99455   7.437   6.646  10.757  2.8007 -2.0362 -1.1804
  737MOL0     H99456   7.257   6.772  10.733  0.4342 -1.1754 -1.1049
  737MOL0     H99457   7.116   6.669  10.707  0.1841  3.0837 -1.8396
  737MOL0     H99458   7.134   6.773  10.848  0.8188  2.2742 -1.9875
  737MOL0     H99459   6.802   6.427  10.841 -2.8286  0.1594 -1.8361
  737MOL0     H99460   6.556   6.407  10.866 -1.2635  0.2934  2.1936
  737MOL0     H99461   6.362   6.593  10.775  1.4680 -0.2161 -0.4358
  737MOL0     H99462   6.340   6.440  10.868 -0.2865 -0.5882  1.0273
  737MOL0     H99463   6.142   6.549  10.986  1.3550 -0.8668  0.4845
  737MOL0     H99464   6.185   6.690  10.880  2.7183 -0.6270 -2.7910
  737MOL0     H99465   6.104   6.406  10.800  2.1173  0.5489  5.4723
  737MOL0     H99466   6.154   6.526  10.673 -0.2361 -5.9782 -0.9764
  737MOL0     H99467   5.913   6.602  10.849  1.8549 -0.1258  0.1238
  737MOL0     H99468   5.977   6.681  10.716  1.1400  0.1207  0.4172
  737MOL0     H99469   5.852   6.419  10.719  1.7680 -0.9175  2.1049
  737MOL0     H99470   5.958   6.475  10.582 -0.5742 -0.5743  0.8485
  737MOL0     H99471   5.815   6.682  10.551  0.6130 -0.5173 -0.6436
  737MOL0     H99472   5.743   6.530  10.506 -2.3300  2.6605 -1.0056
  737MOL0     H99473   5.695   6.705  10.747  0.3140  2.0420 -3.4713
  737MOL0     H99474   5.656   6.530  10.763  0.6741  0.7764  1.4322
  737MOL0     H99475   5.512   6.547  10.571 -0.5313  1.1176 -0.7949
  737MOL0     H99476   5.582   6.715  10.545  0.9658  0.1214  0.0955
  737MOL0     H99477   6.563   6.778  11.086 -0.5026 -0.7780  1.8373
  737MOL0     H99478   6.802   6.801  11.051  1.6357 -0.6654  0.7426
  737MOL0     H99479   7.216   6.304  11.030  0.6836 -1.0457 -1.0237
  737MOL0     H99480   7.461   6.281  10.974  4.4489  2.7781 -0.3082
  737MOL0     H99481   9.383   6.530  11.219  0.0694  0.8114  0.5775
  737MOL0     H99482   9.631   6.538  11.265 -4.0460 -2.0536  1.0497
  737MOL0     H99483  10.098   6.481  11.043 -1.6813  0.1282 -3.1244
  737MOL0     H99484  10.330   6.563  11.047 -0.3685  0.0692  1.5530
  737MOL0     H99485  10.519   6.723  11.183 -0.1733 -2.4657 -0.2149
  737MOL0     H99486  10.537   6.663  11.028 -0.9319  0.0729  0.4934
  737MOL0     H99487  10.725   6.840  11.125  0.7624  1.2997 -0.0291
  737MOL0     H99488  10.603   6.955  11.057  2.0035  1.0437 -1.1590
  737MOL0     H99489  10.603   6.831  10.835 -1.7398  0.5124  0.6041
  737MOL0     H99490  10.764   6.758  10.903  0.2159  0.6882 -0.0860
  737MOL0     H99491  10.701   7.050  10.831  1.8676  1.5958  0.7461
  737MOL0     H99492  10.806   6.932  10.756 -1.9362  2.6521 -0.7206
  737MOL0     H99493  11.050   6.981  11.075  0.0911  0.0037 -0.7459
  737MOL0     H99494  10.199   6.960  11.133 -1.3942  0.0855  0.2157
  737MOL0     H99495   9.968   6.874  11.178  1.3719  0.5495  1.4738
  738MOL0     O99496   0.060   0.619   2.872 -0.0073 -0.2331 -0.1377
  738MOL0     C99497   0.050   0.723   2.941  0.2151 -0.3644 -0.4539
  738MOL0     O99498  -0.060   0.811   2.930  0.4581  0.3804 -1.1857
  738MOL0     C99499  -0.171   0.775   2.866  0.5547 -0.0322  1.1105
  738MOL0     C99500  -0.229   0.644   2.877  0.1056  0.5934 -1.5460
  738MOL0     C99501  -0.337   0.599   2.793  0.5717  1.2305  0.6652
  738MOL0     C99502  -0.395   0.692   2.695 -0.2861  0.4377  0.3448
  738MOL0     O99503  -0.487   0.657   2.603 -0.1705  0.7066 -0.1439
  738MOL0     C99504  -0.551   0.524   2.614  0.5249 -0.0217  0.5573
  738MOL0     C99505  -0.674   0.534   2.525  1.3146  1.0328  0.1207
  738MOL0     C99506  -0.794   0.444   2.570  0.4083  0.0310  0.2693
  738MOL0     C99507  -0.894   0.433   2.461  0.4853  0.4750 -0.0402
  738MOL0     C99508  -1.029   0.365   2.494  0.4833 -0.0170  0.1501
  738MOL0     C99509  -1.134   0.379   2.385 -0.0037 -0.4153  0.0611
  738MOL0     C99510  -1.281   0.370   2.422  0.1006 -0.1907 -0.4844
  738MOL0     C99511  -1.330   0.227   2.447 -1.0224  0.2642  0.0433
  738MOL0     N99512  -1.464   0.220   2.498 -0.9951  0.9355 -0.0995
  738MOL0     C99513  -1.485   0.219   2.637  0.2818  0.5161 -0.0584
  738MOL0     C99514  -1.620   0.210   2.642  0.0290  0.1182 -1.0090
  738MOL0     C99515  -1.704   0.193   2.763 -0.4231  0.3085 -0.1524
  738MOL0     C99516  -1.856   0.218   2.733 -0.7445 -0.6486  0.4933
  738MOL0     C99517  -1.939   0.184   2.861 -0.6380 -0.5046 -0.3647
  738MOL0     C99518  -2.083   0.198   2.824  0.0938 -0.1576  0.4443
  738MOL0     O99519  -2.177   0.218   2.924 -0.1369  0.2129 -0.1870
  738MOL0     C99520  -2.311   0.188   2.893  0.4423 -0.0196 -0.6425
  738MOL0     C99521  -2.389   0.143   2.990 -0.0193 -0.0812  0.8228
  738MOL0     C99522  -2.516   0.118   2.974 -0.2136 -0.3560  0.1638
  738MOL0     C99523  -2.600   0.076   3.090 -0.1875  0.5867  0.1727
  738MOL0     C99524  -2.575   0.137   2.847 -0.2366  0.1303  0.3105
  738MOL0     C99525  -2.718   0.105   2.813 -0.7507  0.1194  0.1176
  738MOL0     O99526  -2.779   0.197   2.742  0.6019 -0.1636  0.5731
  738MOL0     C99527  -2.917   0.202   2.744 -0.0013  0.0728 -0.9651
  738MOL0     C99528  -2.983   0.246   2.636  0.3471  0.4507 -0.2384
  738MOL0     C99529  -3.124   0.239   2.628  0.6645 -0.0436 -0.2442
  738MOL0     C99530  -3.195   0.193   2.737 -0.5296 -0.2243  0.3199
  738MOL0     O99531  -3.324   0.158   2.719  1.0112 -0.2271 -0.7695
  738MOL0     C99532  -3.415   0.264   2.684  0.1381 -0.6334  0.7251
  738MOL0     C99533  -3.553   0.209   2.661  0.6341 -0.5526 -0.3462
  738MOL0     C99534  -3.658   0.308   2.640 -0.9224  0.1853 -0.3340
  738MOL0     C99535  -3.656   0.353   2.487 -0.0714  0.0281 -1.0127
  738MOL0     C99536  -3.767   0.440   2.433 -0.3282  0.7112 -0.2618
  738MOL0     C99537  -3.744   0.496   2.295 -0.7234 -0.1673 -0.0708
  738MOL0     C99538  -3.863   0.561   2.229  0.0562  0.2873  0.6932
  738MOL0     C99539  -3.821   0.611   2.095  0.9522 -0.1883 -0.1022
  738MOL0    Cl99540  -3.950   0.684   1.990 -0.1600  0.1795  0.1797
  738MOL0     C99541  -3.129   0.154   2.843 -0.5144 -0.9054  0.5106
  738MOL0     C99542  -2.993   0.170   2.858 -0.1956  0.7594 -0.3943
  738MOL0     O99543  -2.770  -0.003   2.848 -0.1557  0.0872  0.3687
  738MOL0     C99544  -2.491   0.175   2.739  0.0750  0.0993 -0.0565
  738MOL0     C99545  -2.359   0.198   2.764  0.0145  0.5011 -0.4193
  738MOL0     N99546  -1.670   0.229   2.513 -0.8425  0.5338 -1.2302
  738MOL0     N99547  -1.577   0.206   2.428  0.0897 -0.9214 -0.2915
  738MOL0     C99548  -0.336   0.821   2.683 -0.1915  0.0486 -0.3479
  738MOL0     C99549  -0.237   0.864   2.776  0.0892 -0.0657 -0.2821
  738MOL0     C99550   0.160   0.765   3.044 -0.4034 -0.4964 -0.4419
  738MOL0     C99551   0.156   0.883   3.124  0.4561  0.6795  0.1156
  738MOL0     C99552   0.248   0.903   3.228  0.4324  0.0697 -0.2962
  738MOL0     C99553   0.343   0.820   3.263 -0.0043  0.8530  0.4302
  738MOL0     O99554   0.442   0.836   3.353 -0.3781 -0.4571  0.2306
  738MOL0     C99555   0.392   0.862   3.483  0.1404 -0.7959 -0.0090
  738MOL0     C99556   0.507   0.855   3.583 -0.0781 -0.2828 -0.3168
  738MOL0     C99557   0.593   0.722   3.576  1.4503 -0.6254  0.8729
  738MOL0     C99558   0.683   0.711   3.695 -0.4078  0.5189 -0.8368
  738MOL0     C99559   0.726   0.569   3.716 -0.1482  0.5431  0.6798
  738MOL0     C99560   0.749   0.453   3.734  0.4483  0.4203 -0.5861
  738MOL0     C99561   0.360   0.708   3.171  0.5738 -0.0940  0.7134
  738MOL0     C99562   0.268   0.681   3.067 -0.4956  0.4257 -0.7083
  738MOL0     H99563  -0.192   0.584   2.959 -2.0270  2.1073  0.6637
  738MOL0     H99564  -0.386   0.505   2.819 -1.3507  1.4728 -1.6750
  738MOL0     H99565  -0.488   0.442   2.577 -1.0439 -1.0721  0.1117
  738MOL0     H99566  -0.566   0.494   2.718  1.0994  0.0180  0.6550
  738MOL0     H99567  -0.704   0.638   2.534 -0.3094  0.6528 -0.5596
  738MOL0     H99568  -0.642   0.507   2.424  1.7437  1.6598  0.0865
  738MOL0     H99569  -0.771   0.342   2.603 -2.6836 -0.5528  0.8824
  738MOL0     H99570  -0.835   0.502   2.653  2.0307  2.3182 -0.4207
  738MOL0     H99571  -0.912   0.536   2.429  1.4544  0.4351 -0.7490
  738MOL0     H99572  -0.855   0.384   2.372  0.7908 -1.1486  0.9463
  738MOL0     H99573  -1.014   0.258   2.514 -1.1960 -0.1663  0.7889
  738MOL0     H99574  -1.061   0.410   2.588 -0.0986 -0.4139  0.1487
  738MOL0     H99575  -1.113   0.472   2.332  0.2220 -1.3150 -1.4965
  738MOL0     H99576  -1.112   0.305   2.307 -0.7974  0.2046 -0.7768
  738MOL0     H99577  -1.304   0.434   2.507 -1.8379 -1.8471  0.3387
  738MOL0     H99578  -1.337   0.413   2.339  1.2100 -0.1694 -1.2432
  738MOL0     H99579  -1.270   0.176   2.523  0.0026 -2.6728 -2.5067
  738MOL0     H99580  -1.322   0.167   2.356  4.3055  0.2464  0.2212
  738MOL0     H99581  -1.429   0.206   2.729  1.4188 -1.8817 -1.0241
  738MOL0     H99582  -1.692   0.095   2.810  0.6399  1.8052  2.9362
  738MOL0     H99583  -1.663   0.272   2.827 -1.4508  0.7854 -0.0603
  738MOL0     H99584  -1.898   0.164   2.647  0.4167  0.2074 -0.6494
  738MOL0     H99585  -1.867   0.322   2.701  2.1379 -0.1229  0.9712
  738MOL0     H99586  -1.916   0.253   2.943  1.1739 -0.4504 -0.8842
  738MOL0     H99587  -1.926   0.083   2.902 -2.6599 -1.4928 -1.9653
  738MOL0     H99588  -2.102   0.123   2.746  2.6739 -1.8829  1.3472
  738MOL0     H99589  -2.106   0.289   2.767 -5.5912 -1.2564  0.3610
  738MOL0     H99590  -2.350   0.114   3.087  0.2442 -0.0277  0.7331
  738MOL0     H99591  -2.571   0.122   3.185  0.2370 -1.1318  0.9099
  738MOL0     H99592  -2.703   0.108   3.076  0.1296  1.7838  0.4561
  738MOL0     H99593  -2.593  -0.033   3.097 -0.3762  0.5182 -0.5852
  738MOL0     H99594  -2.935   0.275   2.543  2.6031  2.2149  1.3894
  738MOL0     H99595  -3.178   0.267   2.538  3.3256  0.7435 -1.7125
  738MOL0     H99596  -3.423   0.329   2.772  1.1336 -2.5115  2.3007
  738MOL0     H99597  -3.394   0.318   2.591 -1.3695 -0.9872  0.1462
  738MOL0     H99598  -3.544   0.139   2.577  0.4028 -0.9631 -0.0292
  738MOL0     H99599  -3.583   0.161   2.754  3.4273 -1.3043  0.2782
  738MOL0     H99600  -3.631   0.390   2.708 -1.5859 -0.7573  1.1073
  738MOL0     H99601  -3.757   0.270   2.669 -1.3649  1.6627  0.2439
  738MOL0     H99602  -3.563   0.410   2.477  1.2161 -0.4758  4.4233
  738MOL0     H99603  -3.644   0.272   2.414 -0.1202 -0.1306 -0.8467
  738MOL0     H99604  -3.786   0.519   2.506  0.4455 -1.9929  3.1185
  738MOL0     H99605  -3.855   0.375   2.437  0.9310 -1.0050  1.7831
  738MOL0     H99606  -3.658   0.564   2.298 -1.2736  0.5053  0.4870
  738MOL0     H99607  -3.706   0.412   2.235 -2.2511 -0.3446 -0.8208
  738MOL0     H99608  -3.903   0.646   2.285  1.2080  0.6372  1.0109
  738MOL0     H99609  -3.938   0.482   2.216  0.9621 -0.3624 -0.8931
  738MOL0     H99610  -3.765   0.530   2.049  0.5715 -1.8997  2.2642
  738MOL0     H99611  -3.758   0.700   2.110 -0.8364  1.5846 -2.3587
  738MOL0     H99612  -3.187   0.128   2.931 -2.1176 -1.4203 -0.6706
  738MOL0     H99613  -2.947   0.144   2.953  0.5931  0.8316 -0.7472
  738MOL0     H99614  -2.527   0.191   2.638 -0.0059  1.0133  0.1131
  738MOL0     H99615  -2.301   0.222   2.676 -0.8110  2.5001 -0.4540
  738MOL0     H99616  -0.391   0.875   2.606  0.6175  1.9529  0.3521
  738MOL0     H99617  -0.205   0.965   2.751 -0.4936 -0.3084 -2.1711
  738MOL0     H99618   0.073   0.951   3.109 -0.0969  0.5839  2.3223
  738MOL0     H99619   0.239   0.998   3.280  1.7506 -0.6139  1.2879
  738MOL0     H99620   0.335   0.955   3.492 -0.2209 -0.9501 -0.6532
  738MOL0     H99621   0.323   0.779   3.499 -1.8142  0.7455 -0.1022
  738MOL0     H99622   0.460   0.861   3.681  0.9828  0.3206  0.1584
  738MOL0     H99623   0.574   0.941   3.579  2.2238 -1.8430  1.9114
  738MOL0     H99624   0.652   0.718   3.484 -0.7630  2.3688 -0.8571
  738MOL0     H99625   0.519   0.642   3.580  2.0496 -1.1367  2.2755
  738MOL0     H99626   0.624   0.749   3.779 -1.1378  0.5896 -1.3622
  738MOL0     H99627   0.771   0.775   3.681 -1.3806  1.8374 -1.1521
  738MOL0     H99628   0.761   0.347   3.748 -1.1526  0.2558 -0.2162
  738MOL0     H99629   0.458   0.661   3.179  2.9981  4.3342  0.2809
  738MOL0     H99630   0.267   0.585   3.015  0.5307  1.2039 -2.2484
  739MOL0     O99631  10.005   7.893   8.501 -0.1584  0.0756  0.0970
  739MOL0     C99632   9.979   7.852   8.614 -0.2833  0.0919 -0.4978
  739MOL0     O99633   9.862   7.815   8.663  0.3545  0.4038 -0.7335
  739MOL0     C99634   9.763   7.845   8.578  0.9995 -0.3879  0.3179
  739MOL0     C99635   9.711   7.756   8.480  0.0690  0.0595 -0.0442
  739MOL0     C99636   9.578   7.767   8.426  0.6476 -0.7297 -0.3787
  739MOL0     C99637   9.500   7.879   8.449  0.1331  0.8382 -0.9064
  739MOL0     O99638   9.374   7.871   8.406 -0.2095 -0.4448  0.0061
  739MOL0     C99639   9.323   8.000   8.352  0.1028  0.2825 -0.0253
  739MOL0     C99640   9.183   7.983   8.291  0.5121 -0.2680 -0.0467
  739MOL0     C99641   9.130   8.110   8.221  0.0694  0.2566 -0.0087
  739MOL0     C99642   8.996   8.110   8.162 -0.1915  0.2906 -0.2203
  739MOL0     C99643   8.890   8.127   8.269  0.1237  0.2263  0.3210
  739MOL0     C99644   8.758   8.149   8.205  0.5559  0.4768 -0.5269
  739MOL0     C99645   8.633   8.136   8.299 -0.0416 -0.5812 -0.2117
  739MOL0     C99646   8.511   8.118   8.221  0.5283 -0.8029  0.7425
  739MOL0     N99647   8.380   8.125   8.285  0.1616 -0.5817 -0.2946
  739MOL0     C99648   8.312   8.241   8.298  1.2653 -0.0452 -0.4522
  739MOL0     C99649   8.212   8.195   8.383 -0.4258 -0.1298  1.1494
  739MOL0     C99650   8.098   8.283   8.407 -0.2189 -0.4144 -0.2216
  739MOL0     C99651   7.962   8.242   8.336  0.8006 -0.0425 -0.2926
  739MOL0     C99652   7.983   8.250   8.182 -0.7316 -0.2482  0.1350
  739MOL0     C99653   7.859   8.197   8.102  0.0462  0.3461  0.2870
  739MOL0     O99654   7.738   8.247   8.155 -0.4274 -1.0384 -0.5918
  739MOL0     C99655   7.620   8.187   8.113  0.1320 -0.5794 -0.7097
  739MOL0     C99656   7.545   8.120   8.205  0.4041  0.4374  0.1433
  739MOL0     C99657   7.437   8.038   8.177  0.8237  0.6863  0.0142
  739MOL0     C99658   7.388   7.946   8.290 -0.4366  0.0440 -0.5651
  739MOL0     C99659   7.393   8.045   8.041 -0.5003 -0.6282 -0.5472
  739MOL0     C99660   7.290   7.946   7.989 -0.4808  0.7964 -0.3234
  739MOL0     O99661   7.275   7.952   7.849 -0.5503  0.8593 -0.6490
  739MOL0     C99662   7.174   7.884   7.783 -0.4018 -0.1090 -0.8721
  739MOL0     C99663   7.201   7.742   7.763  0.5072 -0.3425 -0.8772
  739MOL0     C99664   7.119   7.664   7.683  0.2599  0.1764  0.8258
  739MOL0     C99665   7.000   7.725   7.634 -0.9169 -0.4544  0.3862
  739MOL0     O99666   6.909   7.657   7.561 -0.4139  0.2626  0.4593
  739MOL0     C99667   6.795   7.591   7.624 -0.4915 -0.6956 -0.4231
  739MOL0     C99668   6.708   7.512   7.534  0.0207  1.0197 -0.3897
  739MOL0     C99669   6.557   7.515   7.588 -0.2834 -0.7865 -0.0302
  739MOL0     C99670   6.455   7.565   7.491 -0.1591  0.1273  0.4761
  739MOL0     C99671   6.449   7.722   7.489 -0.0427  0.4398  0.1406
  739MOL0     C99672   6.325   7.787   7.433 -0.2553 -0.1944  0.2804
  739MOL0     C99673   6.346   7.914   7.363 -1.2999 -0.0169 -0.4203
  739MOL0     C99674   6.213   7.957   7.301  0.5142 -0.6348  0.8214
  739MOL0    Cl99675   6.228   8.080   7.178  0.3081 -0.2600  0.2412
  739MOL0     C99676   6.982   7.866   7.656 -0.4444  0.0303 -0.9674
  739MOL0     C99677   7.059   7.946   7.740 -0.3077 -0.3439 -0.0305
  739MOL0     O99678   7.238   7.856   8.059 -0.0933  0.0642 -0.2239
  739MOL0     C99679   7.458   8.125   7.945  0.6483 -1.1353 -0.0183
  739MOL0     C99680   7.571   8.194   7.986 -0.0878  0.3643  0.4696
  739MOL0     N99681   8.221   8.060   8.408  0.3983  0.7120 -0.3019
  739MOL0     N99682   8.320   8.018   8.348 -0.4044  0.1360  0.0888
  739MOL0     C99683   9.553   7.973   8.538 -1.1279  0.0771 -0.1334
  739MOL0     C99684   9.678   7.957   8.602 -0.4259  0.7660  0.5728
  739MOL0     C99685  10.089   7.862   8.717  0.8076  0.7265  1.2466
  739MOL0     C99686  10.217   7.901   8.680 -0.0119 -0.4896 -0.3160
  739MOL0     C99687  10.322   7.931   8.773  0.1573  0.6689  0.2141
  739MOL0     C99688  10.306   7.895   8.912 -0.2335  0.1002  0.7622
  739MOL0     O99689  10.403   7.908   9.007  0.2106  0.0976  0.1623
  739MOL0     C99690  10.529   7.955   8.953 -0.2750  0.1229 -0.1326
  739MOL0     C99691  10.635   7.985   9.054 -0.1964  0.7916  0.9228
  739MOL0     C99692  10.764   8.038   8.979 -0.1155 -0.2709 -0.5873
  739MOL0     C99693  10.867   8.097   9.077 -0.8288  0.2247 -0.7571
  739MOL0     C99694  10.952   7.996   9.144  0.0817  0.4932 -0.1997
  739MOL0     C99695  11.010   7.896   9.191 -0.0648 -0.0142  0.4790
  739MOL0     C99696  10.178   7.856   8.945  0.2230 -0.1984  0.1858
  739MOL0     C99697  10.075   7.845   8.853  0.2061  1.2417  1.0451
  739MOL0     H99698   9.782   7.678   8.455  0.3227  0.2134  0.1843
  739MOL0     H99699   9.544   7.683   8.368 -3.2437  0.9086 -0.7395
  739MOL0     H99700   9.319   8.071   8.435  0.7174  0.1148  0.1502
  739MOL0     H99701   9.394   8.036   8.278 -0.4223  1.1337 -0.1292
  739MOL0     H99702   9.181   7.896   8.225 -0.9250 -0.6697  0.4666
  739MOL0     H99703   9.110   7.958   8.369  0.8430  2.0195  1.0786
  739MOL0     H99704   9.139   8.193   8.292 -0.9810  0.9101 -0.6108
  739MOL0     H99705   9.200   8.132   8.140  2.0190  1.6007  1.9219
  739MOL0     H99706   8.983   8.195   8.094  0.5414  0.9683  0.4610
  739MOL0     H99707   8.973   8.022   8.101 -3.8620  0.4565  0.6781
  739MOL0     H99708   8.880   8.035   8.327  0.9091  0.6581  1.1527
  739MOL0     H99709   8.921   8.211   8.331  0.1339  1.2718 -1.0502
  739MOL0     H99710   8.766   8.252   8.170  0.2179  0.2852 -1.1741
  739MOL0     H99711   8.750   8.076   8.125 -1.5913 -3.0913  2.5957
  739MOL0     H99712   8.649   8.052   8.366  1.0315  0.6459  1.1492
  739MOL0     H99713   8.633   8.229   8.356  1.2367  1.1137 -2.7665
  739MOL0     H99714   8.526   8.018   8.179 -1.0021  1.0064 -5.0668
  739MOL0     H99715   8.504   8.183   8.133 -0.5804 -0.5107  1.0236
  739MOL0     H99716   8.323   8.341   8.258  0.3449 -0.2849 -1.3538
  739MOL0     H99717   8.081   8.276   8.515  0.3242  0.7737 -0.0345
  739MOL0     H99718   8.122   8.389   8.388 -0.5862 -0.7391 -2.9588
  739MOL0     H99719   7.884   8.311   8.370 -1.2830 -2.4698  0.1806
  739MOL0     H99720   7.933   8.138   8.353 -1.6805  0.5204 -0.6957
  739MOL0     H99721   8.065   8.183   8.157 -0.2986  0.2615  0.1762
  739MOL0     H99722   8.013   8.352   8.154  1.3875 -1.0232 -0.5570
  739MOL0     H99723   7.861   8.088   8.096  1.5168  0.1197  3.0368
  739MOL0     H99724   7.866   8.221   7.996  0.9621 -0.2649  0.1975
  739MOL0     H99725   7.565   8.144   8.309 -0.5065  1.9721 -0.0025
  739MOL0     H99726   7.290   7.973   8.330 -0.1268 -1.2377  1.1684
  739MOL0     H99727   7.375   7.842   8.258 -0.6159 -0.0014 -0.3529
  739MOL0     H99728   7.467   7.949   8.365 -0.9163 -1.9886  0.0688
  739MOL0     H99729   7.295   7.703   7.801  1.1298  2.2230  0.4193
  739MOL0     H99730   7.131   7.556   7.674  0.6082 -0.0777  3.5932
  739MOL0     H99731   6.835   7.534   7.708 -1.0516 -0.5695 -0.0691
  739MOL0     H99732   6.744   7.679   7.664 -1.3841 -0.9118 -1.0274
  739MOL0     H99733   6.700   7.560   7.436  0.3446  2.6586  0.3672
  739MOL0     H99734   6.738   7.407   7.521 -2.4763  0.0043  1.3569
  739MOL0     H99735   6.552   7.577   7.678  1.0329 -3.1083  1.7536
  739MOL0     H99736   6.535   7.416   7.629  0.0670 -0.1747  1.7231
  739MOL0     H99737   6.472   7.524   7.391  0.0368  0.7686  0.2411
  739MOL0     H99738   6.358   7.516   7.504 -0.2282 -0.1791 -1.0241
  739MOL0     H99739   6.529   7.752   7.421 -1.4333 -1.8247 -2.7061
  739MOL0     H99740   6.467   7.765   7.588 -2.4399  1.7672  0.0636
  739MOL0     H99741   6.267   7.718   7.372 -0.7061 -1.0973  1.6780
  739MOL0     H99742   6.275   7.805   7.529  1.4474  1.0782  0.9762
  739MOL0     H99743   6.421   7.887   7.287 -0.9045 -1.3539  0.4213
  739MOL0     H99744   6.382   7.995   7.428  0.6480 -1.0942 -0.0585
  739MOL0     H99745   6.140   8.004   7.367 -2.5371 -1.8195 -1.4721
  739MOL0     H99746   6.155   7.879   7.252 -3.2585  2.2576  0.1966
  739MOL0     H99747   6.894   7.915   7.615 -2.1017 -0.0295  2.1661
  739MOL0     H99748   7.034   8.048   7.768 -0.1090 -1.4437  4.9368
  739MOL0     H99749   7.432   8.131   7.840  2.4110 -0.3401 -0.4654
  739MOL0     H99750   7.631   8.249   7.915  0.2461  0.2222  0.6425
  739MOL0     H99751   9.504   8.066   8.565  0.8300  0.7217  1.4101
  739MOL0     H99752   9.709   8.038   8.667  0.8229  1.9632 -1.4215
  739MOL0     H99753  10.235   7.924   8.575  2.2527  1.5064  0.4209
  739MOL0     H99754  10.414   7.968   8.729 -0.1816  3.0789  1.4079
  739MOL0     H99755  10.573   7.886   8.880 -1.2649 -2.2306  1.3980
  739MOL0     H99756  10.507   8.050   8.904  1.5795  0.9733  0.5703
  739MOL0     H99757  10.647   7.898   9.120  0.0896  0.3378  0.2715
  739MOL0     H99758  10.588   8.063   9.115  0.9444  2.0453  0.2655
  739MOL0     H99759  10.737   8.123   8.916  0.6955  1.6438  1.5236
  739MOL0     H99760  10.820   7.960   8.926  4.4965  2.8631 -0.9612
  739MOL0     H99761  10.827   8.157   9.159  0.1387 -0.8739  0.5624
  739MOL0     H99762  10.923   8.171   9.019  0.1859  1.0471  1.1845
  739MOL0     H99763  11.060   7.811   9.234 -0.6671 -0.3467  0.5242
  739MOL0     H99764  10.157   7.826   9.047  0.8709 -2.9920 -0.4444
  739MOL0     H99765   9.973   7.825   8.885 -0.0219  1.0400  0.2191
  740MOL0     O99766   3.481   4.227   1.045 -0.2179  0.5396 -0.1765
  740MOL0     C99767   3.486   4.204   0.919  0.4611 -0.0492  0.2407
  740MOL0     O99768   3.373   4.213   0.840  0.3182  0.3218 -0.1491
  740MOL0     C99769   3.250   4.261   0.874  0.2263 -0.3523 -0.1182
  740MOL0     C99770   3.223   4.370   0.966 -0.6521 -0.2504  0.0294
  740MOL0     C99771   3.090   4.412   0.988  0.4089  0.9380  0.6079
  740MOL0     C99772   2.985   4.335   0.941 -0.9281  0.7770 -0.2592
  740MOL0     O99773   2.849   4.357   0.966 -0.1161  0.2602  0.6797
  740MOL0     C99774   2.800   4.405   1.093 -0.2989 -0.2139 -0.7502
  740MOL0     C99775   2.649   4.391   1.101  0.5869 -0.2644 -0.0446
  740MOL0     C99776   2.570   4.489   1.016 -0.3952  0.0767 -0.6844
  740MOL0     C99777   2.431   4.443   0.994  0.7169 -0.3447 -0.3425
  740MOL0     C99778   2.349   4.522   0.891 -0.3858 -0.0848  0.0028
  740MOL0     C99779   2.204   4.465   0.853 -0.7495  0.0957  0.0494
  740MOL0     C99780   2.213   4.328   0.783 -0.8352 -0.4588 -0.2168
  740MOL0     C99781   2.280   4.331   0.645  0.4474  0.0998  0.5064
  740MOL0     N99782   2.288   4.191   0.596  0.5656 -0.3915  0.5299
  740MOL0     C99783   2.345   4.083   0.657  0.3236 -0.0152 -0.1060
  740MOL0     C99784   2.315   3.978   0.573  0.4922 -0.6486 -0.1593
  740MOL0     C99785   2.336   3.833   0.574  0.0237  0.3339  0.9081
  740MOL0     C99786   2.481   3.797   0.543  0.0030  0.0580  0.6210
  740MOL0     C99787   2.512   3.647   0.548 -0.0603  0.0462  0.2768
  740MOL0     C99788   2.414   3.547   0.496 -0.1579 -0.4767 -0.3817
  740MOL0     O99789   2.385   3.583   0.356 -0.0476 -0.2113 -0.1496
  740MOL0     C99790   2.464   3.531   0.256  0.2716  0.0947 -1.1614
  740MOL0     C99791   2.427   3.584   0.130 -0.8280 -0.1987 -0.2142
  740MOL0     C99792   2.477   3.535   0.010 -0.0803  0.0782  0.7096
  740MOL0     C99793   2.432   3.603  -0.115  0.1056 -0.0165 -1.2937
  740MOL0     C99794   2.589   3.441   0.021 -0.2086  0.2766 -0.1410
  740MOL0     C99795   2.671   3.389  -0.089  0.1255 -1.2037 -0.7911
  740MOL0     O99796   2.777   3.323  -0.059 -0.7314 -0.4761  0.5520
  740MOL0     C99797   2.853   3.281  -0.164  0.0070  0.9217  0.3380
  740MOL0     C99798   2.936   3.370  -0.230 -0.2557  0.0768  0.2870
  740MOL0     C99799   3.029   3.335  -0.329  0.2242  0.0509  0.9663
  740MOL0     C99800   3.027   3.199  -0.371  0.3590 -1.0039  0.0690
  740MOL0     O99801   3.092   3.167  -0.486  0.4018  0.6881  0.2171
  740MOL0     C99802   3.234   3.190  -0.494 -0.3130  0.6142 -0.0194
  740MOL0     C99803   3.280   3.170  -0.635 -0.3331 -0.5070  0.0006
  740MOL0     C99804   3.433   3.173  -0.648  0.2177 -0.2807 -0.3570
  740MOL0     C99805   3.465   3.191  -0.796 -0.2908 -0.0949 -0.1593
  740MOL0     C99806   3.611   3.177  -0.829  0.0055  0.1513 -0.1500
  740MOL0     C99807   3.701   3.302  -0.804  0.1834 -1.0231 -0.3189
  740MOL0     C99808   3.773   3.302  -0.666 -0.5177 -0.0767  0.0324
  740MOL0     C99809   3.812   3.444  -0.612 -0.0274 -0.5579 -0.1555
  740MOL0    Cl99810   3.886   3.434  -0.452  0.2797  0.1198 -0.2112
  740MOL0     C99811   2.937   3.109  -0.315 -0.5216  0.0930 -0.4810
  740MOL0     C99812   2.859   3.151  -0.210  0.1615  0.2008  0.0288
  740MOL0     O99813   2.628   3.406  -0.204 -0.4106 -0.1440  0.0624
  740MOL0     C99814   2.631   3.401   0.148 -0.6377 -0.4954 -0.2399
  740MOL0     C99815   2.574   3.442   0.270 -0.1745  0.1923  0.4236
  740MOL0     N99816   2.217   4.026   0.484 -0.4690 -0.1397 -0.0954
  740MOL0     N99817   2.201   4.151   0.499 -0.7798 -0.4118 -0.0085
  740MOL0     C99818   3.016   4.242   0.840  0.8181  0.0261  0.2347
  740MOL0     C99819   3.147   4.201   0.813  0.0663  0.1484  0.6711
  740MOL0     C99820   3.609   4.158   0.860  0.0533  0.2065 -1.0203
  740MOL0     C99821   3.732   4.173   0.925 -0.3927  0.4771  0.0835
  740MOL0     C99822   3.851   4.136   0.854  0.5325 -1.0835  0.1380
  740MOL0     C99823   3.840   4.079   0.728 -0.1280  0.2778  0.9481
  740MOL0     O99824   3.959   4.033   0.666  0.4487  0.1343  0.0121
  740MOL0     C99825   3.946   3.919   0.577 -1.0236 -0.8330  0.0722
  740MOL0     C99826   4.075   3.846   0.544 -1.3590  1.3263 -0.1385
  740MOL0     C99827   4.157   3.899   0.426  0.5618 -0.4910 -0.9254
  740MOL0     C99828   4.273   3.810   0.395 -0.4521  0.1162  0.3733
  740MOL0     C99829   4.383   3.873   0.462  0.0143  0.3407  0.8784
  740MOL0     C99830   4.469   3.939   0.524 -0.0848  0.8794  0.7154
  740MOL0     C99831   3.719   4.050   0.670  0.0459 -0.3205  0.7389
  740MOL0     C99832   3.606   4.093   0.736  0.9116 -0.5691  0.6034
  740MOL0     H99833   3.296   4.435   1.013 -0.7131  0.8958 -1.3860
  740MOL0     H99834   3.063   4.503   1.040 -0.9534  1.4381 -0.9022
  740MOL0     H99835   2.837   4.349   1.179 -2.8777  1.1900  1.4445
  740MOL0     H99836   2.840   4.503   1.122  0.0401 -0.8875  1.2746
  740MOL0     H99837   2.618   4.293   1.066 -3.0516  1.2292 -1.5031
  740MOL0     H99838   2.621   4.403   1.206 -1.3135  2.0416 -0.7122
  740MOL0     H99839   2.572   4.591   1.056  0.7396  0.5323 -1.8566
  740MOL0     H99840   2.615   4.503   0.918 -4.4409  1.5366 -2.5637
  740MOL0     H99841   2.436   4.339   0.961 -1.4198 -0.5903 -0.0336
  740MOL0     H99842   2.368   4.449   1.083  0.4692  2.1208 -0.6317
  740MOL0     H99843   2.326   4.623   0.927 -0.4572  1.3350 -3.5592
  740MOL0     H99844   2.404   4.531   0.797  0.8154 -1.6973  0.5102
  740MOL0     H99845   2.141   4.447   0.941 -0.7430  1.9680  0.4749
  740MOL0     H99846   2.150   4.534   0.788  1.1939  1.8173  0.1777
  740MOL0     H99847   2.271   4.269   0.855 -1.6035 -2.4313 -1.1434
  740MOL0     H99848   2.115   4.279   0.780 -1.3497  0.5519 -0.3991
  740MOL0     H99849   2.385   4.361   0.655  1.3860 -3.3848  3.0924
  740MOL0     H99850   2.222   4.391   0.575  0.0245  0.4956  1.1881
  740MOL0     H99851   2.402   4.071   0.749 -1.9591 -2.5350  1.1309
  740MOL0     H99852   2.316   3.787   0.671  2.8368 -3.4729 -0.1005
  740MOL0     H99853   2.269   3.787   0.501  2.8643  0.0979 -1.7660
  740MOL0     H99854   2.552   3.850   0.607 -0.2649  0.8756  0.2593
  740MOL0     H99855   2.495   3.842   0.444 -4.1365  1.8072  0.6175
  740MOL0     H99856   2.542   3.625   0.651  0.7130 -2.3286 -0.4036
  740MOL0     H99857   2.606   3.643   0.491  0.5990  0.6696  1.2742
  740MOL0     H99858   2.322   3.549   0.555  0.4272 -0.1216  0.5465
  740MOL0     H99859   2.461   3.448   0.505  0.6608  0.0459  1.7769
  740MOL0     H99860   2.351   3.662   0.125  0.0587  0.6658 -0.6065
  740MOL0     H99861   2.515   3.635  -0.178  0.1956  1.1135 -0.6362
  740MOL0     H99862   2.380   3.529  -0.177 -0.0684 -1.6983  0.7218
  740MOL0     H99863   2.365   3.686  -0.089  0.1823 -0.7837  1.7578
  740MOL0     H99864   2.931   3.476  -0.207  1.6748  0.0034  1.2887
  740MOL0     H99865   3.105   3.399  -0.374  2.4096 -0.4751  3.6223
  740MOL0     H99866   3.260   3.293  -0.468  0.0595  0.8853 -1.3781
  740MOL0     H99867   3.283   3.125  -0.422 -1.7886 -0.3813  0.1301
  740MOL0     H99868   3.260   3.068  -0.671  2.5410 -1.4505  0.7792
  740MOL0     H99869   3.241   3.248  -0.700  1.7853  1.8388  1.3383
  740MOL0     H99870   3.473   3.077  -0.612 -0.0650 -0.3251 -0.1543
  740MOL0     H99871   3.465   3.264  -0.597  1.3935  1.1421 -3.4157
  740MOL0     H99872   3.416   3.118  -0.861  3.6575 -3.7482  0.5458
  740MOL0     H99873   3.424   3.290  -0.820 -1.3535 -0.4067  0.3362
  740MOL0     H99874   3.605   3.166  -0.938  1.8740  0.3312 -0.3082
  740MOL0     H99875   3.640   3.080  -0.789 -1.2168 -0.0385  0.3006
  740MOL0     H99876   3.776   3.307  -0.884 -1.5546 -0.0139 -1.9720
  740MOL0     H99877   3.644   3.394  -0.819  2.3876  0.8074  1.7309
  740MOL0     H99878   3.864   3.243  -0.661 -1.8027 -2.2282 -0.7411
  740MOL0     H99879   3.694   3.263  -0.600 -2.1612  1.1352 -1.1119
  740MOL0     H99880   3.730   3.516  -0.615 -0.8954 -1.5438 -2.0082
  740MOL0     H99881   3.885   3.483  -0.683 -1.3735 -0.1204 -1.3598
  740MOL0     H99882   2.935   3.007  -0.350 -3.5992 -0.6996  1.6480
  740MOL0     H99883   2.795   3.086  -0.152 -0.4780  1.2426  0.5048
  740MOL0     H99884   2.708   3.325   0.158 -0.7247 -0.3893  1.6538
  740MOL0     H99885   2.612   3.408   0.366 -2.1677 -0.3058  1.0866
  740MOL0     H99886   2.935   4.196   0.785  0.8956  0.0005  0.1402
  740MOL0     H99887   3.160   4.115   0.749 -0.9189  0.3969  0.1058
  740MOL0     H99888   3.740   4.202   1.030  1.3686 -0.1602  0.1514
  740MOL0     H99889   3.948   4.168   0.891  0.1844 -0.2668  0.3678
  740MOL0     H99890   3.887   3.845   0.630  1.4406 -1.9411  1.4226
  740MOL0     H99891   3.905   3.955   0.482  0.4621 -2.1256 -1.1076
  740MOL0     H99892   4.057   3.740   0.522 -0.0941  1.1881 -0.5698
  740MOL0     H99893   4.143   3.859   0.629 -1.4142  0.6441  0.0189
  740MOL0     H99894   4.181   4.004   0.444 -1.2216  0.3507 -3.0859
  740MOL0     H99895   4.094   3.902   0.337  2.7177  2.3482 -2.5388
  740MOL0     H99896   4.293   3.803   0.288 -3.5836  1.3769 -0.4099
  740MOL0     H99897   4.248   3.708   0.424  0.4464 -1.0659 -2.6719
  740MOL0     H99898   4.541   4.002   0.573  0.3032  0.5820  0.5318
  740MOL0     H99899   3.710   4.007   0.571 -0.2256 -0.4508  0.8197
  740MOL0     H99900   3.507   4.071   0.697 -0.5028  0.4780  3.3724
  741MOL0     O99901   7.514   0.273   3.297 -0.1571 -0.3761  0.0400
  741MOL0     C99902   7.583   0.242   3.400 -0.2331 -0.9670  0.5832
  741MOL0     O99903   7.534   0.186   3.517 -0.3510  0.0274 -0.8321
  741MOL0     C99904   7.403   0.155   3.508  0.5615  0.3388 -0.6823
  741MOL0     C99905   7.356   0.038   3.464  0.6751  0.4160  1.0584
  741MOL0     C99906   7.218   0.007   3.458  1.0360 -0.0810  0.4389
  741MOL0     C99907   7.124   0.104   3.499  0.1472 -0.1148 -0.3422
  741MOL0     O99908   6.991   0.101   3.484  0.6984  0.5008  0.8328
  741MOL0     C99909   6.935  -0.010   3.413 -0.5684 -0.4746 -0.2427
  741MOL0     C99910   6.791   0.014   3.387  0.3091  0.4749  0.6774
  741MOL0     C99911   6.714  -0.111   3.339  0.7239  0.2974 -0.8204
  741MOL0     C99912   6.580  -0.120   3.412  0.0725 -0.0207 -0.1688
  741MOL0     C99913   6.510  -0.251   3.377  0.5810 -0.1913 -0.8023
  741MOL0     C99914   6.391  -0.263   3.461  0.4980 -0.1855  0.5267
  741MOL0     C99915   6.323  -0.397   3.452 -0.8598 -0.0473 -0.2016
  741MOL0     C99916   6.255  -0.427   3.319 -0.4009  0.3838 -0.1387
  741MOL0     N99917   6.159  -0.319   3.285  0.2585 -0.6024  0.8481
  741MOL0     C99918   6.062  -0.281   3.371  0.0402 -0.7837  0.5991
  741MOL0     C99919   6.009  -0.171   3.299  0.5672  0.6377  0.7611
  741MOL0     C99920   5.896  -0.081   3.330  0.5814 -0.0602  0.0044
  741MOL0     C99921   5.779  -0.172   3.273 -0.5807 -0.2017 -0.7914
  741MOL0     C99922   5.654  -0.098   3.305 -0.6593  0.9262 -0.3561
  741MOL0     C99923   5.532  -0.171   3.254 -0.9034  0.5763 -0.0489
  741MOL0     O99924   5.542  -0.180   3.112  0.2251  0.3246  0.8644
  741MOL0     C99925   5.430  -0.220   3.037  0.6711 -0.0687 -0.7618
  741MOL0     C99926   5.302  -0.217   3.085 -0.7513  0.3370 -0.0684
  741MOL0     C99927   5.197  -0.238   3.008  0.0593  0.0205  0.7768
  741MOL0     C99928   5.062  -0.246   3.068 -0.7072  0.4836 -0.2210
  741MOL0     C99929   5.223  -0.261   2.862  1.2037 -0.2074 -0.3847
  741MOL0     C99930   5.121  -0.282   2.760 -0.7919 -0.8130  0.3355
  741MOL0     O99931   5.161  -0.360   2.646  0.2047 -0.1379 -0.1219
  741MOL0     C99932   5.086  -0.345   2.532 -1.1488  0.0851  0.3864
  741MOL0     C99933   4.949  -0.370   2.524  0.9130  0.5031 -0.1342
  741MOL0     C99934   4.883  -0.350   2.407 -0.5382  0.3587 -0.5790
  741MOL0     C99935   4.952  -0.302   2.298  0.2254 -0.1006 -0.5932
  741MOL0     O99936   4.890  -0.284   2.178  0.0935 -0.6391  0.5003
  741MOL0     C99937   4.880  -0.148   2.126 -0.2701  0.3405 -1.0121
  741MOL0     C99938   4.887  -0.149   1.982 -0.0121 -0.1169  0.1944
  741MOL0     C99939   4.977  -0.267   1.924  0.0420 -0.8671 -0.4585
  741MOL0     C99940   4.978  -0.249   1.778  0.7310  0.7699  0.3026
  741MOL0     C99941   5.087  -0.332   1.717 -0.4145 -0.3364 -0.4581
  741MOL0     C99942   5.063  -0.478   1.684  0.2131  0.8824  0.2990
  741MOL0     C99943   5.198  -0.559   1.646  1.3949 -0.0239 -0.5018
  741MOL0     C99944   5.267  -0.517   1.511 -0.5101  0.2055  0.1359
  741MOL0    Cl99945   5.423  -0.617   1.510 -0.1103  0.2310  0.3585
  741MOL0     C99946   5.088  -0.277   2.300  0.2848 -0.1573 -0.2946
  741MOL0     C99947   5.149  -0.295   2.420  0.6296 -0.1832 -0.4482
  741MOL0     O99948   5.022  -0.212   2.761  0.5250  0.4971 -0.1190
  741MOL0     C99949   5.359  -0.273   2.820  0.0705  0.0256  0.4681
  741MOL0     C99950   5.462  -0.270   2.911  0.5779 -0.0011 -0.6187
  741MOL0     N99951   6.091  -0.148   3.183  0.3647  0.2650 -0.1410
  741MOL0     N99952   6.180  -0.230   3.185 -0.1682 -0.5297  0.0422
  741MOL0     C99953   7.173   0.218   3.563 -0.6224  0.1316  0.1804
  741MOL0     C99954   7.312   0.239   3.562  0.1003  0.5402 -0.3999
  741MOL0     C99955   7.721   0.307   3.425  0.6122 -0.3521  0.4818
  741MOL0     C99956   7.751   0.424   3.359 -0.7021 -1.0178 -0.4559
  741MOL0     C99957   7.877   0.484   3.375  0.2515 -0.1186  0.8744
  741MOL0     C99958   7.974   0.431   3.455  0.1492 -0.4479  0.6006
  741MOL0     O99959   8.100   0.498   3.454  0.0813 -1.0265  0.3731
  741MOL0     C99960   8.205   0.454   3.534  0.7556  0.2787  0.3654
  741MOL0     C99961   8.189   0.505   3.678 -0.0384  0.3009 -0.2809
  741MOL0     C99962   8.240   0.650   3.694  0.8493 -0.3107  0.1143
  741MOL0     C99963   8.272   0.689   3.835 -0.2760 -0.3632 -0.4342
  741MOL0     C99964   8.420   0.659   3.857  0.2993  0.9003 -0.0655
  741MOL0     C99965   8.543   0.679   3.880 -0.0308 -0.0917  0.2656
  741MOL0     C99966   7.948   0.310   3.512  0.7475 -0.2134  0.4215
  741MOL0     C99967   7.822   0.248   3.502  0.2731 -0.4436  0.8331
  741MOL0     H99968   7.431  -0.034   3.434  0.8544  0.2903  1.7876
  741MOL0     H99969   7.181  -0.091   3.428  0.6658  0.2591 -0.2224
  741MOL0     H99970   6.988  -0.017   3.317 -1.1554  0.7285 -0.6712
  741MOL0     H99971   6.942  -0.107   3.464  0.0342 -1.0882 -1.4329
  741MOL0     H99972   6.745   0.053   3.478 -4.4010  1.2584 -1.7281
  741MOL0     H99973   6.773   0.093   3.314  0.6429  0.5903  0.7178
  741MOL0     H99974   6.708  -0.123   3.231 -1.2420  0.3649 -0.7571
  741MOL0     H99975   6.773  -0.195   3.375  1.5469  1.1954  0.0101
  741MOL0     H99976   6.598  -0.100   3.518 -1.1342  1.5003 -0.2160
  741MOL0     H99977   6.518  -0.043   3.365  2.0171  2.0035  0.4043
  741MOL0     H99978   6.479  -0.247   3.272 -1.7341  0.2689 -0.1621
  741MOL0     H99979   6.576  -0.338   3.379 -0.8955 -1.3849 -1.7012
  741MOL0     H99980   6.421  -0.232   3.562  2.0708  0.8117 -0.2008
  741MOL0     H99981   6.310  -0.201   3.421 -1.2333 -2.9296 -0.4722
  741MOL0     H99982   6.390  -0.476   3.487 -1.4868 -0.2303  0.6205
  741MOL0     H99983   6.244  -0.406   3.527 -1.4376  1.5916 -0.5867
  741MOL0     H99984   6.198  -0.520   3.312 -1.3533  1.0517 -1.6249
  741MOL0     H99985   6.335  -0.428   3.245  0.7330  1.1723  1.0224
  741MOL0     H99986   6.018  -0.323   3.461 -2.4324 -0.2575 -0.2777
  741MOL0     H99987   5.893  -0.065   3.438 -0.4023  2.0048 -0.2822
  741MOL0     H99988   5.896   0.020   3.289 -0.0432  0.1880  0.5914
  741MOL0     H99989   5.776  -0.266   3.329 -2.0538 -0.9926 -2.1360
  741MOL0     H99990   5.802  -0.191   3.168 -1.3842 -3.3758 -0.4931
  741MOL0     H99991   5.642   0.009   3.282 -1.5623  1.3701  1.9200
  741MOL0     H99992   5.653  -0.091   3.414  0.2635  1.0271 -0.3456
  741MOL0     H99993   5.444  -0.112   3.283 -2.6347 -1.3083 -1.1940
  741MOL0     H99994   5.528  -0.272   3.297 -2.1601  0.8466  0.5273
  741MOL0     H99995   5.282  -0.189   3.188  0.6077  1.1614  0.0032
  741MOL0     H99996   4.990  -0.270   2.988 -0.1841  2.0094 -1.2026
  741MOL0     H99997   5.046  -0.325   3.141 -0.5647  0.1046 -0.5937
  741MOL0     H99998   5.035  -0.149   3.113 -0.5415  0.3797  0.1028
  741MOL0     H99999   4.899  -0.386   2.619 -1.1879  0.8818 -1.1097
  741MOL0     H    0   4.775  -0.360   2.410 -0.5690  0.7889  1.8114
  741MOL0     H    1   4.781  -0.113   2.156 -1.2627 -2.9272 -0.1180
  741MOL0     H    2   4.962  -0.084   2.159 -0.3253 -0.1761  0.1598
  741MOL0     H    3   4.787  -0.159   1.941  0.0487  0.0185  0.0114
  741MOL0     H    4   4.918  -0.050   1.947  0.9218 -1.3395 -2.7454
  741MOL0     H    5   4.934  -0.367   1.937 -1.2319 -0.0241  2.5428
  741MOL0     H    6   5.077  -0.266   1.969 -0.1229 -3.4066  0.1025
  741MOL0     H    7   4.879  -0.280   1.746  0.7119 -1.2216  2.0600
  741MOL0     H    8   4.990  -0.141   1.766 -1.1556  0.8938 -0.7696
  741MOL0     H    9   5.165  -0.337   1.793  0.3585  1.0172 -1.1309
  741MOL0     H   10   5.137  -0.277   1.637 -0.7854  0.7110  0.0175
  741MOL0     H   11   5.027  -0.526   1.775  0.8306  1.1070  0.6655
  741MOL0     H   12   4.989  -0.484   1.604  3.3212  0.2764 -2.7648
  741MOL0     H   13   5.169  -0.664   1.640  2.3957 -0.2989 -0.7176
  741MOL0     H   14   5.267  -0.557   1.731  2.8668  0.4230 -1.6675
  741MOL0     H   15   5.284  -0.410   1.495 -0.8289  0.3200  0.5478
  741MOL0     H   16   5.198  -0.552   1.433 -2.4753  0.6956  1.5833
  741MOL0     H   17   5.151  -0.257   2.214  0.9151  0.8061  0.3714
  741MOL0     H   18   5.252  -0.262   2.430  0.7379 -0.9047  1.0612
  741MOL0     H   19   5.389  -0.271   2.716 -0.6827  3.0953  0.2110
  741MOL0     H   20   5.564  -0.258   2.876  0.2598 -1.5133 -2.2309
  741MOL0     H   21   7.110   0.300   3.596  1.4735  0.9934  2.4026
  741MOL0     H   22   7.347   0.334   3.601 -1.9496  0.4182  2.0475
  741MOL0     H   23   7.676   0.473   3.298 -2.2627 -1.3872  1.0783
  741MOL0     H   24   7.890   0.577   3.322  1.9077 -2.2852 -2.8854
  741MOL0     H   25   8.200   0.345   3.544 -1.5468  0.3998  0.9049
  741MOL0     H   26   8.299   0.494   3.494  0.9452 -0.2847  0.2313
  741MOL0     H   27   8.240   0.424   3.732 -0.8306  0.4540  0.7128
  741MOL0     H   28   8.091   0.506   3.725  2.1718 -2.6296  5.3951
  741MOL0     H   29   8.167   0.712   3.642 -1.8490 -4.1267 -1.1355
  741MOL0     H   30   8.330   0.657   3.632 -0.7562  2.5436 -2.1289
  741MOL0     H   31   8.214   0.636   3.911 -1.3489  2.4112  0.7798
  741MOL0     H   32   8.266   0.798   3.843 -0.0488 -0.4649  1.7301
  741MOL0     H   33   8.646   0.703   3.895 -0.1500 -0.5556  2.0991
  741MOL0     H   34   8.022   0.248   3.561  0.7437 -0.6439 -0.1045
  741MOL0     H   35   7.806   0.157   3.560  0.6384  0.7449  2.9281
  742MOL0     O   36   0.841   8.932   1.927  0.4302  0.0889  0.5111
  742MOL0     C   37   0.865   8.999   1.833 -0.6897  0.4325 -0.0678
  742MOL0     O   38   0.778   9.020   1.734  0.1075 -0.3599 -0.0713
  742MOL0     C   39   0.654   8.959   1.756  0.2533  0.4338  1.1887
  742MOL0     C   40   0.640   8.828   1.692  0.4911 -1.0965  0.2503
  742MOL0     C   41   0.521   8.755   1.720 -1.1064  0.1185 -0.7391
  742MOL0     C   42   0.422   8.815   1.797 -0.1788 -0.0712 -0.4639
  742MOL0     O   43   0.316   8.742   1.811 -0.3559  0.1607 -0.1931
  742MOL0     C   44   0.215   8.774   1.909 -0.3086 -0.0104 -0.2607
  742MOL0     C   45   0.249   8.758   2.058 -0.5554 -0.7307 -0.5634
  742MOL0     C   46   0.262   8.611   2.107 -0.7741 -0.2493 -0.1471
  742MOL0     C   47   0.317   8.622   2.247 -0.4610 -0.1454 -0.0838
  742MOL0     C   48   0.325   8.479   2.315 -1.0212 -0.1725 -0.1675
  742MOL0     C   49   0.193   8.429   2.365  0.5563  0.3925  0.0127
  742MOL0     C   50   0.209   8.286   2.437 -0.0647  0.4998 -0.7112
  742MOL0     C   51   0.084   8.216   2.502  0.5956  0.4117 -0.0076
  742MOL0     N   52  -0.041   8.208   2.420  0.0164 -0.2518  0.3439
  742MOL0     C   53  -0.064   8.185   2.291 -0.0985  0.3095  1.0735
  742MOL0     C   54  -0.189   8.199   2.272  0.3187  0.4915 -0.8827
  742MOL0     C   55  -0.269   8.176   2.149 -0.2947  0.4029  0.0645
  742MOL0     C   56  -0.383   8.068   2.163  0.3283 -0.0847 -0.9714
  742MOL0     C   57  -0.415   7.994   2.031 -0.1704  0.2753  0.3454
  742MOL0     C   58  -0.537   7.904   2.045  0.8051  0.0425  0.1962
  742MOL0     O   59  -0.651   7.992   2.058 -0.0550  0.1199 -0.1376
  742MOL0     C   60  -0.749   7.966   1.971 -0.0762 -1.0163 -0.9744
  742MOL0     C   61  -0.794   8.059   1.877 -0.1865 -1.0905  0.0376
  742MOL0     C   62  -0.890   8.041   1.786  1.1410 -0.0071  1.0968
  742MOL0     C   63  -0.915   8.154   1.684 -0.2016 -0.0112  0.0920
  742MOL0     C   64  -0.966   7.925   1.780  0.0212  0.5366  0.3661
  742MOL0     C   65  -1.079   7.895   1.698  0.3858 -0.6185 -0.1935
  742MOL0     O   66  -1.163   7.795   1.736 -0.1966  0.2466 -0.0296
  742MOL0     C   67  -1.272   7.762   1.662 -0.1662 -0.4521  0.1387
  742MOL0     C   68  -1.283   7.749   1.521 -0.1910  0.3492 -0.0534
  742MOL0     C   69  -1.397   7.720   1.459  0.4585  0.1712  0.2288
  742MOL0     C   70  -1.515   7.693   1.535 -0.3717  0.6003  1.0523
  742MOL0     O   71  -1.628   7.659   1.458  0.4627  0.0750 -0.1797
  742MOL0     C   72  -1.753   7.618   1.513  0.7657  0.6431 -0.8355
  742MOL0     C   73  -1.868   7.603   1.409  0.2477 -0.5748 -0.5262
  742MOL0     C   74  -1.955   7.482   1.448  0.0594 -0.8734 -0.6436
  742MOL0     C   75  -2.045   7.500   1.562 -0.2917 -0.2328 -0.4095
  742MOL0     C   76  -2.170   7.581   1.531  0.5200 -0.1985  0.5839
  742MOL0     C   77  -2.230   7.635   1.655  0.2314  0.3902  0.8078
  742MOL0     C   78  -2.367   7.692   1.625 -0.6215 -0.0219  0.2026
  742MOL0     C   79  -2.478   7.602   1.570  0.9590 -0.1938  0.9217
  742MOL0    Cl   80  -2.643   7.690   1.563 -0.4809  0.3420  0.1374
  742MOL0     C   81  -1.507   7.697   1.675  0.0855 -0.4987  0.1565
  742MOL0     C   82  -1.388   7.736   1.733 -0.2682 -1.1516 -0.9216
  742MOL0     O   83  -1.107   7.977   1.610  0.2418  0.3354  0.5593
  742MOL0     C   84  -0.925   7.818   1.873 -0.7611  0.0647  0.3126
  742MOL0     C   85  -0.813   7.846   1.966 -0.4380  0.4804 -0.5643
  742MOL0     N   86  -0.256   8.224   2.386 -0.2246  0.0836  0.2961
  742MOL0     N   87  -0.167   8.237   2.473  0.3024  0.0551 -0.1295
  742MOL0     C   88   0.438   8.941   1.850  1.0338 -0.3462 -0.8376
  742MOL0     C   89   0.555   9.017   1.827 -0.8408  0.3787 -0.5994
  742MOL0     C   90   0.996   9.068   1.833  0.8489  0.0002  0.1505
  742MOL0     C   91   1.101   9.024   1.915  0.5785 -0.5398  0.3881
  742MOL0     C   92   1.221   9.086   1.900 -0.4388  0.7982 -0.9927
  742MOL0     C   93   1.241   9.196   1.819 -0.1049 -1.0730  0.1750
  742MOL0     O   94   1.367   9.247   1.802  0.5866 -0.0003  0.4036
  742MOL0     C   95   1.440   9.170   1.703  0.3070 -0.8356  0.2512
  742MOL0     C   96   1.565   9.110   1.764  0.7613 -0.4750 -0.3862
  742MOL0     C   97   1.673   9.221   1.789 -0.2964 -0.4958 -0.4641
  742MOL0     C   98   1.809   9.170   1.839  0.8108 -0.0773 -0.6012
  742MOL0     C   99   1.907   9.267   1.891  0.8721 -0.2796  0.2626
  742MOL0     C  100   1.993   9.336   1.944 -0.0147 -0.2517 -0.7387
  742MOL0     C  101   1.134   9.252   1.747  1.3416  0.3401 -0.1051
  742MOL0     C  102   1.017   9.181   1.752  1.6024 -0.1890  0.1234
  742MOL0     H  103   0.731   8.793   1.645  1.2681 -0.0084  0.8819
  742MOL0     H  104   0.504   8.651   1.693  0.7379 -1.0051  1.9648
  742MOL0     H  105   0.180   8.875   1.886  0.7694  0.5011  0.2633
  742MOL0     H  106   0.128   8.715   1.879  0.1820 -0.0444 -1.6691
  742MOL0     H  107   0.341   8.814   2.078 -0.7110 -1.3945  2.3965
  742MOL0     H  108   0.175   8.804   2.123  2.4241  2.9873  0.5654
  742MOL0     H  109   0.168   8.556   2.106 -0.5459 -0.7819  2.0326
  742MOL0     H  110   0.335   8.568   2.038 -0.8803  0.7847 -0.9205
  742MOL0     H  111   0.413   8.674   2.254 -0.9064  0.8523 -1.0437
  742MOL0     H  112   0.250   8.687   2.304  2.5967  2.6918  0.6038
  742MOL0     H  113   0.364   8.403   2.246 -0.1546  1.0168 -1.0158
  742MOL0     H  114   0.397   8.488   2.397 -0.0032  3.4456 -1.3134
  742MOL0     H  115   0.146   8.490   2.443 -4.0777 -2.2857 -0.2878
  742MOL0     H  116   0.122   8.420   2.283  1.1939  4.0266 -1.0976
  742MOL0     H  117   0.254   8.220   2.363  2.0091 -0.0764  0.9503
  742MOL0     H  118   0.285   8.302   2.514  0.7369  1.1473 -1.6120
  742MOL0     H  119   0.046   8.268   2.591 -4.5816 -1.9990 -0.4075
  742MOL0     H  120   0.114   8.117   2.537 -2.5848 -0.0075  1.9750
  742MOL0     H  121   0.011   8.149   2.221  0.2049  1.4587  0.7920
  742MOL0     H  122  -0.313   8.270   2.115  1.3377  1.6165  1.1224
  742MOL0     H  123  -0.206   8.135   2.069 -2.3250  0.5143 -1.6818
  742MOL0     H  124  -0.473   8.120   2.200  1.1595  3.3249 -3.2063
  742MOL0     H  125  -0.366   8.001   2.247  1.0480  1.0367 -0.1886
  742MOL0     H  126  -0.329   7.932   2.004 -1.1463 -0.6564 -0.6954
  742MOL0     H  127  -0.442   8.069   1.956 -1.1937  2.5338  2.8445
  742MOL0     H  128  -0.528   7.850   2.139  1.5592  0.9437  0.6587
  742MOL0     H  129  -0.540   7.830   1.964 -0.1350 -0.1856  0.4246
  742MOL0     H  130  -0.743   8.154   1.864 -0.3067 -0.6983  2.0895
  742MOL0     H  131  -0.841   8.229   1.714  0.9479 -1.5337  1.2543
  742MOL0     H  132  -0.912   8.132   1.576 -0.1084 -0.1241  0.1171
  742MOL0     H  133  -1.014   8.200   1.694 -0.6437 -1.2406  1.7500
  742MOL0     H  134  -1.202   7.773   1.453 -0.0429  3.1312  0.9725
  742MOL0     H  135  -1.388   7.707   1.352 -0.0486  2.9519 -0.2326
  742MOL0     H  136  -1.738   7.530   1.576  0.8679  1.7906  0.8040
  742MOL0     H  137  -1.791   7.693   1.583  1.4588 -0.5033  0.8074
  742MOL0     H  138  -1.929   7.693   1.403  1.6161  0.3093 -1.8501
  742MOL0     H  139  -1.825   7.580   1.310  1.7050  2.8293 -0.8025
  742MOL0     H  140  -1.892   7.400   1.483  1.5431  0.5513  0.1509
  742MOL0     H  141  -2.014   7.449   1.362 -1.4762 -2.1767  0.8401
  742MOL0     H  142  -2.078   7.402   1.598 -2.1367  0.4936 -0.0522
  742MOL0     H  143  -1.985   7.548   1.640 -1.6696  1.2718 -0.2421
  742MOL0     H  144  -2.245   7.529   1.470 -0.5331  1.8360  0.0414
  742MOL0     H  145  -2.123   7.665   1.480  0.5139  1.3167  2.9333
  742MOL0     H  146  -2.230   7.558   1.734 -0.0757  1.1512  1.5656
  742MOL0     H  147  -2.167   7.720   1.681  1.3351 -0.2093  0.1822
  742MOL0     H  148  -2.355   7.783   1.567  0.1730  0.2008  0.6975
  742MOL0     H  149  -2.407   7.726   1.722  2.0869 -3.0097  2.5975
  742MOL0     H  150  -2.484   7.510   1.629  2.1067  0.4686  2.1462
  742MOL0     H  151  -2.455   7.569   1.469  2.0116  2.2755  0.2803
  742MOL0     H  152  -1.589   7.674   1.742 -0.0097 -2.0413 -0.4491
  742MOL0     H  153  -1.401   7.735   1.841 -1.1651 -0.6250 -1.0171
  742MOL0     H  154  -0.970   7.719   1.875 -0.5950 -0.0069  1.4923
  742MOL0     H  155  -0.777   7.762   2.026  0.9338  2.3416  1.3527
  742MOL0     H  156   0.361   8.982   1.916  2.6562  1.5574 -0.0045
  742MOL0     H  157   0.558   9.115   1.873 -3.9259 -0.2832  1.2228
  742MOL0     H  158   1.086   8.944   1.987  1.9426  0.5442  1.9525
  742MOL0     H  159   1.301   9.048   1.963 -1.3776  0.8322  0.2638
  742MOL0     H  160   1.382   9.089   1.659  1.4358 -1.8521  0.5856
  742MOL0     H  161   1.474   9.224   1.614  0.3300 -1.7806 -0.3205
  742MOL0     H  162   1.603   9.042   1.688 -0.5146  1.4258 -2.8744
  742MOL0     H  163   1.536   9.039   1.842  2.7246  0.4167  1.2270
  742MOL0     H  164   1.633   9.289   1.865 -0.0436  1.3232 -1.8728
  742MOL0     H  165   1.694   9.280   1.699  0.8951  0.6528  0.5222
  742MOL0     H  166   1.862   9.103   1.770  2.1969  0.9709 -0.6082
  742MOL0     H  167   1.791   9.104   1.924 -1.2784  0.0601 -0.8979
  742MOL0     H  168   2.070   9.393   1.994 -0.4848  1.2510 -1.6636
  742MOL0     H  169   1.152   9.338   1.684  2.7594  1.5138  1.7805
  742MOL0     H  170   0.931   9.202   1.689 -0.2648 -3.2143  1.4258
  743MOL0     O  171   7.380   7.794   4.539  0.1171  0.2555  0.8024
  743MOL0     C  172   7.434   7.705   4.480 -0.5242 -0.6404 -0.1758
  743MOL0     O  173   7.373   7.604   4.406 -0.1585 -0.2528 -0.0337
  743MOL0     C  174   7.236   7.594   4.397  0.2934  0.3144 -0.2107
  743MOL0     C  175   7.182   7.583   4.272 -0.1526  0.0262  0.9657
  743MOL0     C  176   7.044   7.567   4.255  0.1793 -0.0013 -0.4828
  743MOL0     C  177   6.961   7.562   4.372  0.3764  0.0118  0.9055
  743MOL0     O  178   6.824   7.544   4.358  0.2608  0.0313  0.6106
  743MOL0     C  179   6.766   7.605   4.236 -0.5197  0.0237  0.7145
  743MOL0     C  180   6.617   7.602   4.237 -0.0293 -0.1452  0.0897
  743MOL0     C  181   6.552   7.733   4.189  0.4707 -1.2121  0.3508
  743MOL0     C  182   6.476   7.719   4.056 -0.2443 -0.1117 -0.1474
  743MOL0     C  183   6.428   7.852   3.995  1.0331  0.7097 -0.1399
  743MOL0     C  184   6.542   7.959   3.989 -0.4228 -0.6256  0.4247
  743MOL0     C  185   6.502   8.078   3.897 -0.9448 -0.2057 -0.2972
  743MOL0     C  186   6.555   8.204   3.963  0.2006  0.4394  0.3760
  743MOL0     N  187   6.457   8.257   4.053  0.6995 -0.2086  0.6320
  743MOL0     C  188   6.327   8.283   4.018 -0.6105  0.2068  0.4650
  743MOL0     C  189   6.260   8.309   4.129  0.4695  0.4492  0.3311
  743MOL0     C  190   6.128   8.373   4.116 -0.2221  1.2589  0.2519
  743MOL0     C  191   6.142   8.520   4.071  0.6435  0.2801 -0.1547
  743MOL0     C  192   6.260   8.599   4.139  0.1391 -0.6463 -0.2897
  743MOL0     C  193   6.238   8.610   4.294 -0.1771  0.5782 -0.4240
  743MOL0     O  194   6.105   8.667   4.315  0.4298 -0.9034  0.2719
  743MOL0     C  195   6.088   8.806   4.289  0.2369  0.1967  0.8783
  743MOL0     C  196   5.955   8.846   4.282  0.5084  0.5623 -0.1557
  743MOL0     C  197   5.916   8.977   4.243 -0.7224 -0.1673 -0.7031
  743MOL0     C  198   5.763   9.014   4.242 -0.7087 -0.1211 -0.3624
  743MOL0     C  199   6.022   9.071   4.218  0.3207  0.0188  0.7919
  743MOL0     C  200   5.998   9.216   4.179 -0.5377  0.3216  0.6544
  743MOL0     O  201   6.102   9.308   4.189  0.2052 -0.6347 -0.1163
  743MOL0     C  202   6.084   9.445   4.178  0.1915 -0.1244  0.5264
  743MOL0     C  203   6.167   9.522   4.252  0.5105 -0.4694  0.0492
  743MOL0     C  204   6.163   9.666   4.238 -0.3872  0.6919  0.3845
  743MOL0     C  205   6.078   9.729   4.152 -0.1860  0.1168 -0.7796
  743MOL0     O  206   6.075   9.863   4.123 -0.1083  0.3214 -0.3313
  743MOL0     C  207   6.154   9.952   4.213 -0.2227 -0.2931  0.7052
  743MOL0     C  208   6.088  10.089   4.204 -0.0472  0.0515 -0.6574
  743MOL0     C  209   5.965  10.089   4.287 -1.1351  0.3533  0.2472
  743MOL0     C  210   5.887  10.215   4.273  0.6809 -0.5002 -0.1855
  743MOL0     C  211   5.789  10.217   4.387  0.7413  0.2789  0.1658
  743MOL0     C  212   5.687  10.332   4.394  0.1938 -0.1672  0.1962
  743MOL0     C  213   5.595  10.341   4.268 -0.2690 -0.3066 -0.3699
  743MOL0     C  214   5.467  10.408   4.301 -1.0275 -0.1073  0.3790
  743MOL0    Cl  215   5.408  10.463   4.150  0.1578  0.6097 -0.0473
  743MOL0     C  216   5.997   9.648   4.079 -0.0003  0.7582 -0.0208
  743MOL0     C  217   6.000   9.509   4.085 -0.7134 -0.4550 -0.7988
  743MOL0     O  218   5.891   9.238   4.120 -0.1588  0.0473 -0.0667
  743MOL0     C  219   6.155   9.028   4.236 -0.0549  1.2762 -0.4903
  743MOL0     C  220   6.194   8.900   4.269  0.3308  0.1243 -0.8416
  743MOL0     N  221   6.343   8.295   4.233  0.0961 -0.0340 -0.0138
  743MOL0     N  222   6.462   8.271   4.188  0.4653  0.3966  0.4334
  743MOL0     C  223   7.014   7.560   4.497 -0.2373  0.0112 -0.3579
  743MOL0     C  224   7.152   7.588   4.513  0.0057  0.8510  0.3193
  743MOL0     C  225   7.581   7.690   4.504 -0.9771  0.1126  0.3302
  743MOL0     C  226   7.648   7.567   4.484  0.7128 -0.4701 -0.1765
  743MOL0     C  227   7.793   7.558   4.513 -0.2820 -0.2037 -0.4609
  743MOL0     C  228   7.873   7.668   4.553 -0.2558  0.0636 -0.2550
  743MOL0     O  229   8.009   7.660   4.564 -0.5751  0.4936 -0.0075
  743MOL0     C  230   8.100   7.771   4.552 -1.1357 -0.2312  1.0694
  743MOL0     C  231   8.242   7.733   4.499  0.9387 -0.1270  0.4191
  743MOL0     C  232   8.320   7.646   4.599  0.0159  0.6309 -0.4467
  743MOL0     C  233   8.468   7.615   4.566  1.0724  0.4093 -0.0305
  743MOL0     C  234   8.572   7.657   4.662 -0.0632 -0.3009 -0.1431
  743MOL0     C  235   8.674   7.661   4.733  0.2214 -0.4700  0.7472
  743MOL0     C  236   7.803   7.792   4.561 -0.6743  0.0514 -0.1347
  743MOL0     C  237   7.662   7.802   4.533  0.1029  0.9652 -0.9138
  743MOL0     H  238   7.239   7.580   4.179 -2.1518 -1.8941 -0.3053
  743MOL0     H  239   7.008   7.562   4.152 -0.0952  0.5751 -0.4164
  743MOL0     H  240   6.800   7.708   4.247  3.3461 -0.1435 -5.2934
  743MOL0     H  241   6.801   7.554   4.146  1.4148  1.2396  0.7217
  743MOL0     H  242   6.580   7.514   4.184  1.1957 -1.4681  1.3440
  743MOL0     H  243   6.585   7.606   4.342  1.9978  5.7139  0.8773
  743MOL0     H  244   6.476   7.765   4.261 -0.2642 -1.4276 -0.3267
  743MOL0     H  245   6.623   7.816   4.179 -0.2082 -0.8617 -2.1147
  743MOL0     H  246   6.539   7.676   3.977  0.4378 -1.4561  1.0659
  743MOL0     H  247   6.392   7.649   4.067  0.9308 -1.8077 -1.5078
  743MOL0     H  248   6.391   7.830   3.894 -1.4665  0.4145  0.7707
  743MOL0     H  249   6.346   7.890   4.056  0.6516  4.3311 -2.5897
  743MOL0     H  250   6.559   7.996   4.090  1.7299 -0.2797 -0.0016
  743MOL0     H  251   6.634   7.912   3.952  0.3156 -0.9102  2.5180
  743MOL0     H  252   6.535   8.077   3.793 -2.1460  0.5068 -0.7105
  743MOL0     H  253   6.393   8.076   3.883 -0.9806  0.3444 -0.1156
  743MOL0     H  254   6.587   8.280   3.891 -1.1412 -0.8397 -1.6962
  743MOL0     H  255   6.636   8.185   4.034 -1.4297  1.0510  2.5407
  743MOL0     H  256   6.288   8.283   3.917  2.0772 -1.3526 -0.6738
  743MOL0     H  257   6.067   8.307   4.053  1.4550 -1.4462  1.2953
  743MOL0     H  258   6.073   8.376   4.211  0.0072  0.0603  0.4389
  743MOL0     H  259   6.053   8.568   4.112  2.3256  1.0566  2.8982
  743MOL0     H  260   6.149   8.534   3.963 -0.1900 -0.9583 -0.3900
  743MOL0     H  261   6.257   8.701   4.100  1.1276 -0.7088 -0.5576
  743MOL0     H  262   6.354   8.555   4.106 -0.0844 -1.0753 -0.3663
  743MOL0     H  263   6.325   8.660   4.338  1.4058 -1.0719 -1.5583
  743MOL0     H  264   6.237   8.506   4.326  1.9754 -0.4302 -3.2587
  743MOL0     H  265   5.886   8.768   4.312  0.9367  0.3720  0.3398
  743MOL0     H  266   5.703   8.926   4.265 -1.2602  0.3170 -0.0960
  743MOL0     H  267   5.745   9.087   4.321  0.7570  1.8219 -1.7236
  743MOL0     H  268   5.733   9.049   4.143 -0.0372 -0.9757 -0.8799
  743MOL0     H  269   6.233   9.469   4.319 -0.5172 -0.9854  0.6773
  743MOL0     H  270   6.245   9.725   4.277  0.0127  1.8900 -2.0747
  743MOL0     H  271   6.162   9.919   4.317  0.9714  2.5904  1.6395
  743MOL0     H  272   6.255   9.976   4.179 -1.2339  0.8201 -1.6992
  743MOL0     H  273   6.153  10.171   4.238 -1.7868  0.7015  1.3667
  743MOL0     H  274   6.051  10.121   4.106 -2.0137  2.5063  0.7358
  743MOL0     H  275   5.995  10.071   4.391  2.4744  0.5747 -0.6247
  743MOL0     H  276   5.907  10.002   4.254  2.3766 -1.6497 -1.0894
  743MOL0     H  277   5.952  10.304   4.272 -0.7760  0.6619  1.6928
  743MOL0     H  278   5.839  10.215   4.174  4.1048  2.4582 -2.1159
  743MOL0     H  279   5.849  10.215   4.479  3.0979 -2.0252 -1.3157
  743MOL0     H  280   5.732  10.124   4.389  2.3428 -0.7452  0.1077
  743MOL0     H  281   5.622  10.314   4.481 -2.7175 -0.6213 -1.9373
  743MOL0     H  282   5.743  10.426   4.398  0.4155 -0.3433  2.7308
  743MOL0     H  283   5.566  10.244   4.228  1.2151  0.6817 -4.2979
  743MOL0     H  284   5.655  10.401   4.198  0.5575 -1.9614 -1.1475
  743MOL0     H  285   5.483  10.495   4.365 -2.2033 -2.2928  3.9155
  743MOL0     H  286   5.400  10.333   4.344 -0.0230 -1.1199  0.2346
  743MOL0     H  287   5.922   9.685   4.010 -1.2710  0.0207  0.9294
  743MOL0     H  288   5.931   9.445   4.030  2.1255 -3.4709 -1.2331
  743MOL0     H  289   6.236   9.098   4.212 -0.2554  1.6400 -0.1221
  743MOL0     H  290   6.301   8.882   4.274  0.8428  3.0852  0.4889
  743MOL0     H  291   6.952   7.565   4.586 -1.9272 -1.2048 -1.3935
  743MOL0     H  292   7.179   7.605   4.617 -2.1906  1.7560  0.8111
  743MOL0     H  293   7.587   7.482   4.455 -2.8253  1.2470  1.5828
  743MOL0     H  294   7.843   7.462   4.500 -0.0491 -0.0020 -1.0690
  743MOL0     H  295   8.070   7.856   4.489  3.4402  0.6951 -0.2939
  743MOL0     H  296   8.104   7.797   4.658 -0.8235 -1.2207  1.3075
  743MOL0     H  297   8.298   7.823   4.473  1.9630 -1.1551 -1.0739
  743MOL0     H  298   8.231   7.675   4.408 -1.1748  1.5713 -0.4786
  743MOL0     H  299   8.266   7.554   4.620 -0.5294  0.1552 -3.3787
  743MOL0     H  300   8.308   7.701   4.693  0.7369  2.7426 -1.5078
  743MOL0     H  301   8.500   7.646   4.466  5.0145 -1.6905  0.4040
  743MOL0     H  302   8.484   7.507   4.572  2.6925  0.6840  1.4816
  743MOL0     H  303   8.769   7.662   4.783  1.7847  1.9527 -1.9089
  743MOL0     H  304   7.873   7.871   4.587  3.2083 -1.9920 -3.2802
  743MOL0     H  305   7.616   7.900   4.545  2.5131  1.9030  1.6813
  744MOL0     O  306   5.396   7.379   9.183  0.3852  0.3260 -0.0277
  744MOL0     C  307   5.343   7.268   9.206 -0.1712 -0.0206 -0.0432
  744MOL0     O  308   5.408   7.158   9.266  0.1304 -0.1025 -0.3395
  744MOL0     C  309   5.541   7.179   9.306 -0.0623  0.0542 -0.5100
  744MOL0     C  310   5.593   7.121   9.425  0.3295 -0.0542  0.0880
  744MOL0     C  311   5.729   7.126   9.455 -0.8000  0.0641 -0.6815
  744MOL0     C  312   5.830   7.189   9.370  0.3595 -0.0260  0.0123
  744MOL0     O  313   5.964   7.204   9.393  0.4622  0.0557  0.5032
  744MOL0     C  314   6.020   7.142   9.512 -0.0763 -0.3245 -0.5119
  744MOL0     C  315   6.049   6.995   9.495  0.2803 -0.1191  0.9561
  744MOL0     C  316   6.131   6.937   9.608  0.8491  1.1848  0.3754
  744MOL0     C  317   6.196   6.807   9.551  0.2786  0.4612 -0.1446
  744MOL0     C  318   6.293   6.753   9.661 -0.2454  0.1591 -0.1668
  744MOL0     C  319   6.377   6.635   9.627  0.1897  0.6983 -1.1408
  744MOL0     C  320   6.461   6.580   9.749  0.3324  1.0426 -0.7180
  744MOL0     C  321   6.564   6.678   9.790 -0.3775  0.4397 -0.3172
  744MOL0     N  322   6.515   6.768   9.895  0.0340 -0.4672 -0.2759
  744MOL0     C  323   6.548   6.898   9.915 -0.3427 -0.2662  0.1791
  744MOL0     C  324   6.496   6.945  10.024 -0.1725  0.3945 -0.3678
  744MOL0     C  325   6.502   7.081  10.098  0.0649 -0.0601 -0.4395
  744MOL0     C  326   6.452   7.192  10.016 -0.6222 -0.0380  0.2440
  744MOL0     C  327   6.303   7.198   9.990  0.3727 -0.2167 -0.0805
  744MOL0     C  328   6.215   7.224  10.116  0.0761 -0.3814 -0.2325
  744MOL0     O  329   6.246   7.349  10.185 -0.2656  0.0124  0.7720
  744MOL0     C  330   6.163   7.454  10.167 -0.7687 -0.0553 -0.0032
  744MOL0     C  331   6.177   7.549  10.061  0.0769  0.3845  0.5355
  744MOL0     C  332   6.093   7.656  10.066  0.9957 -0.3173 -0.5755
  744MOL0     C  333   6.119   7.756   9.954 -0.3447  1.1787 -0.3806
  744MOL0     C  334   5.978   7.656  10.150  0.2589 -0.2186 -0.8245
  744MOL0     C  335   5.878   7.766  10.157  0.5627 -0.4419 -0.0730
  744MOL0     O  336   5.748   7.734  10.187  0.5737 -0.5243  0.1862
  744MOL0     C  337   5.648   7.829  10.205  0.1533 -0.0772  0.5769
  744MOL0     C  338   5.522   7.764  10.229  0.0242  0.4092 -0.1273
  744MOL0     C  339   5.404   7.832  10.243  0.1613 -0.1502 -0.4623
  744MOL0     C  340   5.410   7.978  10.222 -0.2600  0.3547  0.2348
  744MOL0     O  341   5.290   8.051  10.245  0.0539  0.6256  0.4457
  744MOL0     C  342   5.301   8.188  10.256 -0.4566 -0.0259  0.0359
  744MOL0     C  343   5.165   8.243  10.279 -0.0351 -0.4890  0.7192
  744MOL0     C  344   5.134   8.252  10.422  0.8870  0.1842 -0.8417
  744MOL0     C  345   4.987   8.299  10.449 -0.1965 -0.0808 -0.4867
  744MOL0     C  346   4.970   8.361  10.590 -0.3202 -0.0608 -0.8745
  744MOL0     C  347   4.820   8.398  10.639 -1.0004 -0.5929 -0.3368
  744MOL0     C  348   4.726   8.273  10.634  0.0547  0.3286 -0.0412
  744MOL0     C  349   4.621   8.275  10.746 -0.4399 -0.8238  0.0258
  744MOL0    Cl  350   4.518   8.422  10.743 -0.1251 -0.1320 -0.0144
  744MOL0     C  351   5.539   8.038  10.195 -0.7355 -0.0327 -0.1811
  744MOL0     C  352   5.652   7.963  10.182 -0.3515  0.3257 -0.2832
  744MOL0     O  353   5.921   7.879  10.146  0.3424 -0.2579  0.1784
  744MOL0     C  354   5.963   7.559  10.247 -0.5775  0.0092 -0.2252
  744MOL0     C  355   6.056   7.457  10.255 -0.1313  0.1139  0.1732
  744MOL0     N  356   6.444   6.830  10.089  0.3021  0.4595  0.1028
  744MOL0     N  357   6.462   6.726  10.018 -0.8034 -0.5328 -0.2387
  744MOL0     C  358   5.781   7.238   9.254 -0.0594 -0.2047 -0.2928
  744MOL0     C  359   5.640   7.233   9.214 -0.6492  0.2778 -0.1222
  744MOL0     C  360   5.198   7.253   9.177 -0.4560 -1.4765  0.3804
  744MOL0     C  361   5.135   7.130   9.151 -0.6235  0.0454 -0.5573
  744MOL0     C  362   4.996   7.134   9.124  0.2343  0.5332  0.5090
  744MOL0     C  363   4.917   7.243   9.114 -0.2796  0.1538 -0.3871
  744MOL0     O  364   4.791   7.247   9.061 -0.3165  0.4908  0.6497
  744MOL0     C  365   4.700   7.141   9.078 -0.3928 -0.3080 -0.4008
  744MOL0     C  366   4.561   7.179   9.032  0.7366  0.4566  0.4067
  744MOL0     C  367   4.455   7.063   9.025  0.1311  0.1098 -0.0888
  744MOL0     C  368   4.331   7.102   8.939 -0.7437 -0.6448  0.2085
  744MOL0     C  369   4.232   6.996   8.968 -0.5800  0.2001 -1.5253
  744MOL0     C  370   4.144   6.920   8.991  0.3741  0.6492  0.2345
  744MOL0     C  371   4.987   7.367   9.139  0.3214  0.0978 -0.0894
  744MOL0     C  372   5.124   7.374   9.161  0.1936  0.0594  0.3577
  744MOL0     H  373   5.525   7.075   9.497 -1.6419  0.3369 -1.4482
  744MOL0     H  374   5.774   7.101   9.551  1.1708  2.3034 -0.9415
  744MOL0     H  375   6.119   7.186   9.522  1.1966 -3.0781  0.0809
  744MOL0     H  376   5.966   7.159   9.606  0.2775  1.7902 -0.6448
  744MOL0     H  377   5.961   6.933   9.479  1.3147 -0.8376 -3.2884
  744MOL0     H  378   6.107   6.989   9.402 -2.0415 -2.7938 -0.4581
  744MOL0     H  379   6.207   7.004   9.647  1.8784  0.4698 -0.3430
  744MOL0     H  380   6.068   6.900   9.690  1.8131 -3.2571 -0.6059
  744MOL0     H  381   6.118   6.736   9.524  0.1242 -0.9520  3.4559
  744MOL0     H  382   6.261   6.819   9.464  0.9470  0.3930  0.3348
  744MOL0     H  383   6.357   6.840   9.683 -1.0855  1.0441 -1.1127
  744MOL0     H  384   6.246   6.741   9.759 -0.9690  3.9090  0.1106
  744MOL0     H  385   6.313   6.554   9.590 -1.4162 -0.4341  3.5064
  744MOL0     H  386   6.449   6.657   9.547  2.9341 -4.1102 -0.4096
  744MOL0     H  387   6.397   6.542   9.829  1.5145  1.5243  0.4987
  744MOL0     H  388   6.502   6.487   9.707 -0.5052  0.2548  0.1719
  744MOL0     H  389   6.602   6.743   9.711  0.4305  3.1108  2.1060
  744MOL0     H  390   6.651   6.622   9.827  0.6770  0.2633 -2.8580
  744MOL0     H  391   6.612   6.959   9.852 -0.1810  0.3708  0.9451
  744MOL0     H  392   6.430   7.070  10.180 -0.3169 -1.3933 -0.9225
  744MOL0     H  393   6.604   7.096  10.136 -0.1038  2.0952 -0.7394
  744MOL0     H  394   6.506   7.178   9.922  1.3564 -3.0800  1.6503
  744MOL0     H  395   6.482   7.278  10.077 -0.6838 -0.2253  0.5382
  744MOL0     H  396   6.271   7.113   9.930  3.8158  0.6137 -3.4729
  744MOL0     H  397   6.290   7.278   9.916 -1.0246 -1.4297 -1.2053
  744MOL0     H  398   6.219   7.150  10.197 -1.0889  1.5079  1.6671
  744MOL0     H  399   6.115   7.227  10.074  0.5539 -0.7745 -1.4270
  744MOL0     H  400   6.258   7.539   9.990 -2.2128  0.2276 -2.2355
  744MOL0     H  401   6.104   7.692   9.867  2.1313  1.7941 -1.3281
  744MOL0     H  402   6.043   7.834   9.941 -0.2096  1.4806  0.5174
  744MOL0     H  403   6.220   7.798   9.955  1.1080 -1.9678  1.7805
  744MOL0     H  404   5.524   7.656  10.241  0.7943  0.6131  2.1557
  744MOL0     H  405   5.308   7.790  10.270  0.0599  0.5451  0.2984
  744MOL0     H  406   5.384   8.222  10.320 -0.2447  1.7059 -1.0926
  744MOL0     H  407   5.335   8.226  10.159 -1.2930 -2.0351 -1.0952
  744MOL0     H  408   5.171   8.340  10.230  0.5460 -0.4157  0.9290
  744MOL0     H  409   5.080   8.187  10.237 -0.2030  0.8656 -0.8324
  744MOL0     H  410   5.206   8.310  10.479 -0.0109 -0.9113  1.5205
  744MOL0     H  411   5.152   8.152  10.461  0.8396 -0.2874 -1.9864
  744MOL0     H  412   4.954   8.379  10.382 -1.2843 -1.8666 -2.2031
  744MOL0     H  413   4.912   8.220  10.440 -2.5009  1.8179  0.9200
  744MOL0     H  414   5.028   8.452  10.575 -0.3130  0.2304  0.7103
  744MOL0     H  415   5.011   8.288  10.660  0.3803 -0.2300 -1.4536
  744MOL0     H  416   4.817   8.449  10.736 -0.9626  0.5349 -0.9123
  744MOL0     H  417   4.779   8.475  10.574  0.1516  0.5401  0.2227
  744MOL0     H  418   4.792   8.186  10.644 -1.0412 -0.8811 -2.6231
  744MOL0     H  419   4.670   8.261  10.542  1.3156 -0.2720 -0.7625
  744MOL0     H  420   4.673   8.278  10.842  1.0421 -0.0918 -0.7680
  744MOL0     H  421   4.556   8.187  10.745  1.4538 -2.6088  4.9401
  744MOL0     H  422   5.554   8.145  10.189 -0.5986  0.2342  3.0695
  744MOL0     H  423   5.748   8.009  10.159  0.9797 -1.5811  1.0745
  744MOL0     H  424   5.883   7.567  10.321 -2.5631 -0.2980 -2.2348
  744MOL0     H  425   6.054   7.383  10.335 -0.5494 -1.9865 -1.6990
  744MOL0     H  426   5.852   7.277   9.181  0.9763 -2.0646 -0.3405
  744MOL0     H  427   5.608   7.272   9.118 -0.6625  0.4660 -0.0414
  744MOL0     H  428   5.190   7.037   9.163  1.1013  1.1887  0.9347
  744MOL0     H  429   4.961   7.042   9.079  1.8506  0.5847 -0.9467
  744MOL0     H  430   4.731   7.055   9.017  0.0142 -0.1229 -0.4530
  744MOL0     H  431   4.689   7.108   9.182  1.3258  0.1982 -0.0397
  744MOL0     H  432   4.572   7.206   8.926 -0.3829  0.0766  0.1732
  744MOL0     H  433   4.527   7.260   9.097  0.3964 -1.2455  2.4537
  744MOL0     H  434   4.427   7.036   9.128 -0.6048 -3.7320 -1.1255
  744MOL0     H  435   4.505   6.975   8.983 -2.3461 -0.7579 -1.3823
  744MOL0     H  436   4.358   7.112   8.834 -1.1275 -1.3089  0.0385
  744MOL0     H  437   4.307   7.197   8.986  1.3827 -0.3050  0.7107
  744MOL0     H  438   4.054   6.865   9.012  0.0986  0.2939 -1.7425
  744MOL0     H  439   4.916   7.449   9.137 -0.6936 -0.7226  0.9729
  744MOL0     H  440   5.157   7.474   9.187  1.6443 -0.5068  0.7701
  745MOL0     O  441   6.404   5.004   6.127  0.0553 -0.1260  0.7565
  745MOL0     C  442   6.426   5.112   6.069 -0.4429 -0.3384  0.0914
  745MOL0     O  443   6.330   5.207   6.030  0.2016 -0.2863 -0.2954
  745MOL0     C  444   6.208   5.186   6.072  1.0902  0.1125 -0.0665
  745MOL0     C  445   6.121   5.085   6.013 -0.5585  0.5646  0.9948
  745MOL0     C  446   5.988   5.073   6.050  0.8848 -1.1221 -1.1176
  745MOL0     C  447   5.941   5.153   6.161 -0.3236  0.3437  0.1353
  745MOL0     O  448   5.810   5.178   6.194 -0.3243  0.0248 -0.3096
  745MOL0     C  449   5.752   5.236   6.083  0.1234  1.0583  0.6024
  745MOL0     C  450   5.630   5.313   6.133  0.0086 -0.3243  0.9938
  745MOL0     C  451   5.538   5.244   6.232  1.0225  0.2870 -0.7010
  745MOL0     C  452   5.443   5.336   6.297 -0.4336 -0.1870  0.0773
  745MOL0     C  453   5.362   5.265   6.391  0.0086 -0.5992 -1.2457
  745MOL0     C  454   5.265   5.361   6.464  0.5124 -0.7206  0.2960
  745MOL0     C  455   5.161   5.300   6.553 -0.5020 -0.1879  0.1083
  745MOL0     C  456   5.081   5.417   6.599  0.5636  0.4003 -0.6811
  745MOL0     N  457   4.997   5.389   6.721 -0.3527  0.3918 -0.3781
  745MOL0     C  458   4.869   5.335   6.727 -0.0026 -0.0865  0.3301
  745MOL0     C  459   4.837   5.307   6.856 -0.2097  0.7856  0.3407
  745MOL0     C  460   4.728   5.213   6.894  0.7386  0.1966 -0.7409
  745MOL0     C  461   4.650   5.254   7.027  0.9121  0.8392  0.3666
  745MOL0     C  462   4.535   5.157   7.044  0.9354 -0.2577 -1.2419
  745MOL0     C  463   4.440   5.216   7.144  0.2980 -0.7456  0.4236
  745MOL0     O  464   4.471   5.197   7.284 -0.0963 -0.0216  0.0702
  745MOL0     C  465   4.377   5.247   7.377 -0.1491  0.0768  0.5910
  745MOL0     C  466   4.254   5.305   7.346  0.4924 -0.9231 -0.0453
  745MOL0     C  467   4.158   5.342   7.434  0.4988 -0.2686 -0.3632
  745MOL0     C  468   4.020   5.370   7.373 -0.0809  0.7646  0.1392
  745MOL0     C  469   4.185   5.335   7.577 -1.1144 -0.6193  0.8459
  745MOL0     C  470   4.101   5.375   7.688 -0.1491  0.3914 -0.0045
  745MOL0     O  471   4.156   5.365   7.821 -0.2430 -0.4653  0.7310
  745MOL0     C  472   4.075   5.423   7.915 -0.7435  1.0269  0.3601
  745MOL0     C  473   4.056   5.559   7.932 -0.0593 -1.0530  0.6630
  745MOL0     C  474   3.979   5.619   8.023 -0.3615 -0.1038  0.0317
  745MOL0     C  475   3.917   5.534   8.115 -0.4300 -0.4290  0.3511
  745MOL0     O  476   3.843   5.597   8.208  0.4418 -0.4017  0.3722
  745MOL0     C  477   3.791   5.512   8.313  0.3256  0.1649  0.2042
  745MOL0     C  478   3.687   5.596   8.391 -0.6117  0.1328 -0.1113
  745MOL0     C  479   3.614   5.504   8.487 -0.3009 -0.5283  0.5419
  745MOL0     C  480   3.519   5.565   8.576 -0.1141  0.2563 -0.1249
  745MOL0     C  481   3.463   5.473   8.694 -0.7448 -0.1185 -0.1009
  745MOL0     C  482   3.336   5.538   8.753 -0.0189 -0.2435 -0.0146
  745MOL0     C  483   3.285   5.478   8.888 -0.8979 -0.4583  0.5152
  745MOL0     C  484   3.167   5.561   8.944 -0.7051  0.2271 -0.6271
  745MOL0    Cl  485   3.027   5.519   8.850 -0.1695  0.1725 -0.0357
  745MOL0     C  486   3.936   5.393   8.106 -0.9805  0.6215 -0.5557
  745MOL0     C  487   4.016   5.335   8.005  0.5315 -0.0430 -0.8513
  745MOL0     O  488   3.997   5.438   7.653  0.5305  0.5464 -0.3053
  745MOL0     C  489   4.312   5.280   7.610 -0.6161 -0.0033  0.0491
  745MOL0     C  490   4.407   5.241   7.512 -1.4763  0.5018  0.1857
  745MOL0     N  491   4.943   5.363   6.931 -0.1506 -0.3702  0.4454
  745MOL0     N  492   5.031   5.409   6.849 -0.2301  0.3710  1.3310
  745MOL0     C  493   6.035   5.232   6.231 -0.5155 -0.0140 -1.0696
  745MOL0     C  494   6.161   5.254   6.180 -0.0647 -1.1610  0.0358
  745MOL0     C  495   6.568   5.161   6.046  0.0314 -0.4898  0.5794
  745MOL0     C  496   6.670   5.113   6.120 -0.5184 -0.2436 -0.4540
  745MOL0     C  497   6.801   5.164   6.113 -0.4058  0.4122 -0.0816
  745MOL0     C  498   6.836   5.263   6.020 -0.5138 -0.1833  0.0033
  745MOL0     O  499   6.961   5.308   5.986  0.2840 -0.2162 -0.6210
  745MOL0     C  500   7.085   5.260   6.032  0.8410  0.0874 -0.0147
  745MOL0     C  501   7.140   5.361   6.138  0.8350 -0.1684 -0.0182
  745MOL0     C  502   7.286   5.334   6.160  0.4376 -0.0581 -0.0488
  745MOL0     C  503   7.331   5.370   6.295  0.0062 -1.2434  0.3530
  745MOL0     C  504   7.475   5.349   6.306  0.4374  0.0043  0.4050
  745MOL0     C  505   7.596   5.314   6.305 -0.5247  0.5836  0.8136
  745MOL0     C  506   6.728   5.314   5.949 -0.1000  1.4241 -0.3182
  745MOL0     C  507   6.600   5.272   5.962  0.4850 -0.3236 -0.6852
  745MOL0     H  508   6.150   5.027   5.925  0.1928  1.2918  0.7549
  745MOL0     H  509   5.913   5.011   6.003 -1.3310  0.7993 -0.2833
  745MOL0     H  510   5.818   5.287   6.013 -1.7491 -0.2665 -2.3372
  745MOL0     H  511   5.719   5.157   6.015 -2.1093 -0.2699  3.0346
  745MOL0     H  512   5.660   5.410   6.174 -0.7925  0.5685 -0.4688
  745MOL0     H  513   5.567   5.348   6.051  3.7765  3.6185 -0.5952
  745MOL0     H  514   5.485   5.169   6.173  0.5007 -0.9982  1.3228
  745MOL0     H  515   5.597   5.189   6.306  1.0936  0.4350 -0.6474
  745MOL0     H  516   5.501   5.419   6.337  0.9697 -0.6541 -0.8978
  745MOL0     H  517   5.378   5.380   6.220  1.7814 -0.4828 -2.0985
  745MOL0     H  518   5.303   5.184   6.346 -3.0582  0.4813  0.6025
  745MOL0     H  519   5.426   5.217   6.466 -1.6451 -1.8355 -0.5665
  745MOL0     H  520   5.323   5.431   6.525  1.0820 -2.4375  1.8023
  745MOL0     H  521   5.218   5.422   6.386  0.8980 -0.3917  0.3139
  745MOL0     H  522   5.096   5.231   6.498 -0.4677  0.8486 -1.2772
  745MOL0     H  523   5.208   5.248   6.637 -0.3698 -0.4165 -0.1045
  745MOL0     H  524   5.020   5.463   6.520 -1.1511  1.0200  0.9388
  745MOL0     H  525   5.152   5.495   6.628  4.9002 -3.8370  1.6980
  745MOL0     H  526   4.809   5.297   6.645  3.0530 -3.9545 -0.3961
  745MOL0     H  527   4.670   5.181   6.807 -1.6589 -2.1562  1.5304
  745MOL0     H  528   4.772   5.117   6.923 -1.2807 -0.3517  0.7261
  745MOL0     H  529   4.615   5.357   7.018 -1.4018  0.0905  0.2147
  745MOL0     H  530   4.718   5.244   7.113  0.6850 -2.1400  0.2996
  745MOL0     H  531   4.565   5.056   7.073 -0.3449 -1.8879 -4.9412
  745MOL0     H  532   4.471   5.141   6.956 -2.0550 -0.4248  0.8120
  745MOL0     H  533   4.352   5.160   7.110 -0.3402  2.1006 -3.4075
  745MOL0     H  534   4.423   5.322   7.120  2.3687  0.5099  3.8247
  745MOL0     H  535   4.223   5.313   7.243  0.7044  0.4581 -0.0134
  745MOL0     H  536   4.016   5.339   7.268 -1.5572  0.8197  0.1561
  745MOL0     H  537   3.951   5.310   7.433  2.0845 -2.2559 -0.1917
  745MOL0     H  538   3.972   5.469   7.382 -2.9653 -0.6884  2.8444
  745MOL0     H  539   4.101   5.627   7.861  2.0596 -1.4148  1.5832
  745MOL0     H  540   3.977   5.727   8.030  0.5676  0.0684 -1.7645
  745MOL0     H  541   3.741   5.421   8.277 -2.8520  0.6875  2.7774
  745MOL0     H  542   3.873   5.479   8.377 -0.8102 -3.0258  0.2053
  745MOL0     H  543   3.735   5.675   8.450 -1.0887  1.5091 -1.4941
  745MOL0     H  544   3.614   5.630   8.317 -1.2498 -0.6439  0.1451
  745MOL0     H  545   3.682   5.441   8.546  0.7573 -0.8017 -0.9277
  745MOL0     H  546   3.569   5.437   8.413  0.9951  1.5270 -2.2948
  745MOL0     H  547   3.570   5.648   8.626  0.4752  0.7427 -1.4737
  745MOL0     H  548   3.436   5.606   8.517 -0.3682 -0.6558 -0.4134
  745MOL0     H  549   3.542   5.458   8.768 -2.5307  1.8415  2.3973
  745MOL0     H  550   3.449   5.375   8.648  2.5563 -0.4984 -0.5383
  745MOL0     H  551   3.358   5.644   8.772 -0.3403 -0.0298 -0.8145
  745MOL0     H  552   3.259   5.538   8.675 -0.6939 -0.5534  0.6408
  745MOL0     H  553   3.371   5.488   8.956 -0.0253 -1.0186 -0.4711
  745MOL0     H  554   3.254   5.374   8.871 -1.7629 -0.3205  1.1905
  745MOL0     H  555   3.176   5.670   8.946 -0.6103  0.2441  2.0998
  745MOL0     H  556   3.149   5.531   9.048 -0.0281  3.7913  0.6658
  745MOL0     H  557   3.889   5.327   8.178 -0.7699  1.5331  0.4495
  745MOL0     H  558   4.040   5.230   8.009 -0.2232 -0.1914  0.4434
  745MOL0     H  559   4.341   5.251   7.711 -1.2246 -1.7452 -0.2504
  745MOL0     H  560   4.497   5.189   7.542 -0.1693  2.4842 -0.0391
  745MOL0     H  561   5.999   5.294   6.313 -0.1472 -0.1183 -0.8302
  745MOL0     H  562   6.231   5.321   6.229 -1.5435  0.3184  0.2383
  745MOL0     H  563   6.670   5.032   6.193 -0.3709 -1.5332 -1.8392
  745MOL0     H  564   6.875   5.116   6.176 -1.4187  1.3884  1.9669
  745MOL0     H  565   7.073   5.158   6.071  0.2660  0.8897  2.0166
  745MOL0     H  566   7.153   5.244   5.948 -1.3497 -0.7408 -1.7419
  745MOL0     H  567   7.082   5.364   6.231 -0.3831  2.6783 -0.7882
  745MOL0     H  568   7.133   5.466   6.112  0.9377  0.5469  2.5425
  745MOL0     H  569   7.345   5.388   6.085  1.0256  0.4791  0.7852
  745MOL0     H  570   7.309   5.229   6.144  3.4580  0.3966  0.7008
  745MOL0     H  571   7.272   5.309   6.363 -2.7873  0.0909 -0.7396
  745MOL0     H  572   7.303   5.470   6.330  0.8065 -0.7974 -0.2382
  745MOL0     H  573   7.698   5.285   6.289 -0.3632  1.4189  0.2402
  745MOL0     H  574   6.761   5.385   5.873  2.5815 -1.0686 -1.6507
  745MOL0     H  575   6.523   5.330   5.912  1.8776 -0.6498 -3.3957
  746MOL0     O  576   0.049   8.589   1.067  0.2987  1.0003  0.1787
  746MOL0     C  577   0.049   8.626   1.186  0.2795 -0.4926  0.2472
  746MOL0     O  578  -0.035   8.714   1.237  0.8024 -0.2175 -0.0069
  746MOL0     C  579  -0.133   8.767   1.161 -0.9811 -0.0109  0.2315
  746MOL0     C  580  -0.239   8.683   1.113  0.2144  0.1531  0.5691
  746MOL0     C  581  -0.339   8.737   1.023  0.0822 -0.1942  0.4011
  746MOL0     C  582  -0.346   8.876   0.994 -0.3369  1.4914  0.5597
  746MOL0     O  583  -0.451   8.925   0.919  0.4164  0.2832 -0.4604
  746MOL0     C  584  -0.454   9.066   0.883  0.5807 -0.0233 -0.2215
  746MOL0     C  585  -0.590   9.086   0.807 -0.2875 -0.1273 -0.0686
  746MOL0     C  586  -0.704   9.040   0.885 -0.1672  0.9732 -0.8629
  746MOL0     C  587  -0.835   9.066   0.813  0.7221 -0.1294 -0.0824
  746MOL0     C  588  -0.958   9.061   0.905 -0.4530 -0.7180 -0.4515
  746MOL0     C  589  -1.078   9.062   0.812  0.9978 -0.0152  0.4457
  746MOL0     C  590  -1.217   9.066   0.881  0.7014 -0.0484  0.3175
  746MOL0     C  591  -1.243   8.926   0.958  0.3199 -0.0294  0.9468
  746MOL0     N  592  -1.376   8.921   1.021  0.9949 -0.3098 -0.1794
  746MOL0     C  593  -1.426   9.011   1.119  1.2382  0.7867  0.8677
  746MOL0     C  594  -1.547   8.968   1.153  0.2037 -0.1612  0.2401
  746MOL0     C  595  -1.640   9.030   1.256 -0.9136 -0.8445 -0.8566
  746MOL0     C  596  -1.705   9.149   1.192 -0.0077 -0.3646  0.1808
  746MOL0     C  597  -1.813   9.217   1.289 -0.4465 -0.6100  0.1608
  746MOL0     C  598  -1.881   9.130   1.398  0.0707 -0.0459 -0.4915
  746MOL0     O  599  -1.961   9.211   1.490  0.5513 -0.0745  0.3761
  746MOL0     C  600  -2.094   9.210   1.475 -0.1192 -0.3801 -0.2412
  746MOL0     C  601  -2.163   9.289   1.575 -0.8607 -0.4275  0.0318
  746MOL0     C  602  -2.302   9.295   1.581 -0.4984 -0.4030  0.2910
  746MOL0     C  603  -2.359   9.340   1.719 -0.6199 -0.3924  0.1257
  746MOL0     C  604  -2.378   9.241   1.472 -0.5563 -0.2628  0.1201
  746MOL0     C  605  -2.528   9.261   1.466 -0.2845 -0.8160 -0.4835
  746MOL0     O  606  -2.601   9.179   1.387 -0.2279  0.3291  0.0626
  746MOL0     C  607  -2.736   9.193   1.371  0.0323  0.1847  0.1146
  746MOL0     C  608  -2.789   9.099   1.278  0.1746 -0.5382 -0.4564
  746MOL0     C  609  -2.926   9.091   1.261 -0.4052 -0.8074 -0.2210
  746MOL0     C  610  -3.013   9.173   1.337  0.2840  0.3466  0.1548
  746MOL0     O  611  -3.149   9.158   1.339  0.4108 -0.4512  0.1821
  746MOL0     C  612  -3.216   9.081   1.248  1.1750 -1.0182  0.0101
  746MOL0     C  613  -3.353   9.061   1.299  0.1104  0.0422  0.1753
  746MOL0     C  614  -3.344   8.990   1.432  0.9606 -0.2594  0.4763
  746MOL0     C  615  -3.487   8.986   1.502 -0.6370 -0.1029 -0.2194
  746MOL0     C  616  -3.478   8.910   1.641  0.3156 -0.1475  0.1933
  746MOL0     C  617  -3.610   8.909   1.710  0.8783  0.5907  0.0478
  746MOL0     C  618  -3.585   8.862   1.858  0.8444  0.8516 -0.5461
  746MOL0     C  619  -3.715   8.851   1.933 -0.0535 -0.4442 -0.6804
  746MOL0    Cl  620  -3.803   8.696   1.886 -0.2803 -0.2287  0.0812
  746MOL0     C  621  -2.956   9.271   1.416  0.1492 -0.1115  0.4453
  746MOL0     C  622  -2.818   9.289   1.429 -0.6070 -0.2717 -0.3830
  746MOL0     O  623  -2.567   9.358   1.531  0.1824 -0.1458  0.1036
  746MOL0     C  624  -2.313   9.175   1.363 -0.1867 -0.1738 -0.2559
  746MOL0     C  625  -2.170   9.171   1.362  0.0437 -0.2987  0.5076
  746MOL0     N  626  -1.577   8.857   1.081  0.2821 -0.1517  0.4121
  746MOL0     N  627  -1.475   8.828   1.011  0.6911  0.9786 -0.0221
  746MOL0     C  628  -0.244   8.952   1.049 -0.2702 -1.1014 -0.4043
  746MOL0     C  629  -0.135   8.900   1.119 -0.3360 -0.2521 -0.1768
  746MOL0     C  630   0.152   8.569   1.288  0.3293 -0.9033 -0.1342
  746MOL0     C  631   0.249   8.481   1.241 -0.5859 -0.1345 -0.3229
  746MOL0     C  632   0.348   8.421   1.335  0.0389 -0.3636 -0.0292
  746MOL0     C  633   0.346   8.459   1.476  0.9127  0.0526  0.1974
  746MOL0     O  634   0.440   8.405   1.561  0.6604  0.5503  0.2390
  746MOL0     C  635   0.576   8.444   1.522  0.7431 -0.6695  0.0597
  746MOL0     C  636   0.644   8.325   1.460  0.1333  0.4479 -0.1467
  746MOL0     C  637   0.800   8.335   1.433  0.9223  0.3455  0.3131
  746MOL0     C  638   0.849   8.229   1.332 -0.3417 -0.2445  1.2456
  746MOL0     C  639   0.998   8.238   1.314  0.5869  0.4286 -0.3721
  746MOL0     C  640   1.114   8.244   1.318 -0.3941  0.6223  0.4468
  746MOL0     C  641   0.242   8.539   1.521 -0.2189 -0.2658  0.6829
  746MOL0     C  642   0.155   8.601   1.428 -0.1203 -0.2938 -0.2021
  746MOL0     H  643  -0.246   8.576   1.130 -0.9216  0.4284  1.9786
  746MOL0     H  644  -0.421   8.681   0.980 -0.8175  2.1139 -1.0470
  746MOL0     H  645  -0.444   9.120   0.978  2.6863 -0.7337  0.0053
  746MOL0     H  646  -0.374   9.088   0.812  0.1308  0.2370 -0.6568
  746MOL0     H  647  -0.604   9.194   0.796  1.9278  0.1925 -0.1385
  746MOL0     H  648  -0.580   9.044   0.706  0.8146  0.7953 -0.3623
  746MOL0     H  649  -0.712   8.932   0.903  0.5960  0.9647 -0.5453
  746MOL0     H  650  -0.706   9.085   0.985  1.1876 -3.3943  1.3988
  746MOL0     H  651  -0.823   9.165   0.768  1.4246 -0.2214 -0.1161
  746MOL0     H  652  -0.854   8.993   0.734  1.2142 -4.1204  3.1671
  746MOL0     H  653  -0.957   8.971   0.967  0.0352 -2.3832 -2.7762
  746MOL0     H  654  -0.960   9.155   0.962 -1.6278 -0.6252 -0.6201
  746MOL0     H  655  -1.063   9.150   0.748  4.2335 -0.9721 -0.3052
  746MOL0     H  656  -1.065   8.972   0.752 -1.4641 -0.4293  0.4439
  746MOL0     H  657  -1.210   9.146   0.956 -0.3165 -0.5951  1.0208
  746MOL0     H  658  -1.298   9.091   0.812  1.0003 -0.9332 -0.3679
  746MOL0     H  659  -1.174   8.906   1.040  1.1604 -0.7863  0.0851
  746MOL0     H  660  -1.236   8.842   0.888 -0.5777  1.2247 -0.7264
  746MOL0     H  661  -1.369   9.098   1.148  1.0212  0.6668  1.6611
  746MOL0     H  662  -1.707   8.952   1.293 -0.7838 -0.0900  1.0582
  746MOL0     H  663  -1.578   9.069   1.337  0.7320 -0.3006 -2.3132
  746MOL0     H  664  -1.750   9.127   1.094  0.3133 -3.6898  0.6746
  746MOL0     H  665  -1.622   9.216   1.168 -1.4699  0.9766 -1.3824
  746MOL0     H  666  -1.888   9.260   1.222  0.0840  0.7477  0.4089
  746MOL0     H  667  -1.765   9.301   1.340 -2.2066  2.5920 -2.9735
  746MOL0     H  668  -1.801   9.084   1.456 -1.2316 -1.5746  0.1516
  746MOL0     H  669  -1.942   9.051   1.354 -2.5147  2.6229 -2.0057
  746MOL0     H  670  -2.104   9.318   1.662  0.6909 -1.5396 -0.6058
  746MOL0     H  671  -2.439   9.278   1.761 -0.4199  0.0229  1.1443
  746MOL0     H  672  -2.283   9.336   1.798 -0.8736 -3.5475  0.3574
  746MOL0     H  673  -2.394   9.443   1.723 -0.2112 -0.2647  0.5371
  746MOL0     H  674  -2.719   9.028   1.236  1.1284  0.8171 -1.2381
  746MOL0     H  675  -2.962   9.003   1.208 -2.5890 -2.5145  3.6914
  746MOL0     H  676  -3.224   9.131   1.151 -0.9418 -1.2142  0.0365
  746MOL0     H  677  -3.174   8.981   1.239  3.2335 -0.0486 -2.5292
  746MOL0     H  678  -3.393   9.161   1.320  0.6600  0.4279 -0.5734
  746MOL0     H  679  -3.432   9.016   1.237 -0.6757  2.3244 -0.5824
  746MOL0     H  680  -3.276   9.039   1.501  1.2708  0.2909 -0.2103
  746MOL0     H  681  -3.308   8.889   1.411 -0.2324 -0.4588 -0.7379
  746MOL0     H  682  -3.532   9.085   1.505  1.4495  0.8788  1.1822
  746MOL0     H  683  -3.556   8.935   1.434 -1.2372 -1.2905  1.2235
  746MOL0     H  684  -3.412   8.957   1.714 -1.6736  4.1795 -0.4927
  746MOL0     H  685  -3.446   8.807   1.623 -0.7725 -0.6503  1.0767
  746MOL0     H  686  -3.659   9.005   1.726 -3.2746 -1.3109 -0.0985
  746MOL0     H  687  -3.688   8.850   1.660  0.7963  1.2659 -0.6410
  746MOL0     H  688  -3.513   8.926   1.910 -0.0816  2.9114 -1.6841
  746MOL0     H  689  -3.538   8.763   1.853  0.2149  0.6055 -2.9133
  746MOL0     H  690  -3.772   8.943   1.919  1.6066  0.9041  1.0897
  746MOL0     H  691  -3.681   8.839   2.036 -0.3744  0.2352 -0.4881
  746MOL0     H  692  -3.030   9.337   1.460 -0.6348  0.1646 -1.2075
  746MOL0     H  693  -2.802   9.381   1.485 -0.1665 -0.4356 -0.2418
  746MOL0     H  694  -2.371   9.144   1.277  1.3923  0.8801 -1.7583
  746MOL0     H  695  -2.127   9.123   1.275  0.7479 -1.7681  1.6189
  746MOL0     H  696  -0.237   9.058   1.026 -1.0091 -1.0898 -0.5950
  746MOL0     H  697  -0.066   8.974   1.158 -1.9184  0.0368  2.2945
  746MOL0     H  698   0.268   8.480   1.135 -3.2330 -0.2739 -0.8614
  746MOL0     H  699   0.431   8.372   1.285  1.0288  1.8950 -0.7242
  746MOL0     H  700   0.564   8.522   1.447 -1.4755 -2.0234 -1.0786
  746MOL0     H  701   0.635   8.484   1.606  1.4963  0.9780 -1.1951
  746MOL0     H  702   0.597   8.297   1.365 -1.4159 -3.9656  1.6080
  746MOL0     H  703   0.642   8.245   1.535 -0.2034 -0.1033 -0.7341
  746MOL0     H  704   0.856   8.322   1.525  0.4966 -1.5591  0.3626
  746MOL0     H  705   0.818   8.433   1.388 -1.0813  0.4811 -0.2961
  746MOL0     H  706   0.801   8.232   1.234 -1.0507 -0.9972  1.5539
  746MOL0     H  707   0.820   8.131   1.372 -1.7446 -0.0331  0.8102
  746MOL0     H  708   1.220   8.260   1.320 -0.5935  2.0357  1.3148
  746MOL0     H  709   0.238   8.573   1.624  0.3796  2.5682 -0.1571
  746MOL0     H  710   0.083   8.670   1.470  2.3224  0.4750  3.1731
  747MOL0     O  711   2.299  10.266  11.128 -0.1370 -0.0082 -0.3261
  747MOL0     C  712   2.351  10.375  11.165  0.5808  0.0172 -0.0982
  747MOL0     O  713   2.297  10.465  11.246  0.1917 -0.2311 -0.2924
  747MOL0     C  714   2.173  10.429  11.280 -0.3383 -0.1490 -0.6975
  747MOL0     C  715   2.149  10.366  11.408 -0.0532 -0.3926  0.6249
  747MOL0     C  716   2.023  10.316  11.453 -0.7201 -0.4882  0.6821
  747MOL0     C  717   1.916  10.334  11.369 -0.1111 -0.4984  0.9848
  747MOL0     O  718   1.797  10.280  11.403  0.4052  0.2089  0.3589
  747MOL0     C  719   1.678  10.319  11.327  0.6062  0.3146 -0.0694
  747MOL0     C  720   1.548  10.289  11.410  0.3667  0.4047 -0.2439
  747MOL0     C  721   1.420  10.293  11.333  0.0702  0.1957 -0.0897
  747MOL0     C  722   1.291  10.296  11.419 -0.6582 -0.4542 -0.5270
  747MOL0     C  723   1.183  10.324  11.329  0.5273  0.3993  0.5060
  747MOL0     C  724   1.143  10.204  11.228  1.1433  0.0493 -0.3913
  747MOL0     C  725   0.999  10.174  11.195  0.5520 -0.8740 -0.9110
  747MOL0     C  726   0.940  10.079  11.308  0.5580 -0.2609 -0.6821
  747MOL0     N  727   0.819  10.016  11.254  0.4372 -0.3421 -0.0423
  747MOL0     C  728   0.792   9.880  11.247  0.7284 -0.1450  0.6478
  747MOL0     C  729   0.662   9.872  11.194  0.4441 -0.3844  0.4190
  747MOL0     C  730   0.562   9.758  11.171 -0.1536 -0.3234 -0.3251
  747MOL0     C  731   0.452   9.741  11.283  0.1966  0.2823  1.3125
  747MOL0     C  732   0.353   9.629  11.244  0.0227  0.6312 -0.3609
  747MOL0     C  733   0.229   9.612  11.333  0.8437 -0.8274  0.1261
  747MOL0     O  734   0.166   9.735  11.356 -0.9612 -0.3309  0.8993
  747MOL0     C  735   0.061   9.733  11.447 -0.8006 -0.4124  0.3600
  747MOL0     C  736  -0.004   9.617  11.496 -0.5309 -0.1709  0.2514
  747MOL0     C  737  -0.099   9.621  11.591  0.8799  0.6046 -0.3455
  747MOL0     C  738  -0.161   9.490  11.636  0.1679  0.5942 -0.1052
  747MOL0     C  739  -0.148   9.745  11.651  0.0034 -0.0828  0.3207
  747MOL0     C  740  -0.251   9.767  11.749  0.1918  1.3342  0.1249
  747MOL0     O  741  -0.335   9.870  11.714 -0.0995 -0.1209 -0.0012
  747MOL0     C  742  -0.465   9.878  11.758  0.1294  0.3650  0.7748
  747MOL0     C  743  -0.493   9.877  11.891 -0.4217  0.8537 -0.4409
  747MOL0     C  744  -0.626   9.885  11.930 -0.0415 -0.0519  0.4297
  747MOL0     C  745  -0.735   9.891  11.841 -0.3651  0.6287  0.8087
  747MOL0     O  746  -0.861   9.867  11.902 -0.3214 -0.1301  0.9806
  747MOL0     C  747  -0.971   9.852  11.816 -0.3587  0.0415  0.3525
  747MOL0     C  748  -1.092   9.855  11.908  0.5525  0.0177 -0.4268
  747MOL0     C  749  -1.222   9.811  11.829 -0.4370  1.1888 -0.5394
  747MOL0     C  750  -1.337   9.794  11.919 -0.0987 -0.0722 -0.0249
  747MOL0     C  751  -1.449   9.742  11.827  0.3189  0.6484 -0.1032
  747MOL0     C  752  -1.579   9.763  11.904 -0.6222  0.4761 -0.1067
  747MOL0     C  753  -1.698   9.776  11.815 -0.1159 -0.2253 -0.4948
  747MOL0     C  754  -1.819   9.822  11.906 -0.6071 -0.1480 -0.1314
  747MOL0    Cl  755  -1.959   9.837  11.802  0.6587  0.1614  0.2955
  747MOL0     C  756  -0.701   9.899  11.708 -0.2073 -0.1727 -0.4671
  747MOL0     C  757  -0.572   9.892  11.667 -0.6565  0.7709  0.0569
  747MOL0     O  758  -0.267   9.683  11.839 -0.4311  0.0381 -0.4139
  747MOL0     C  759  -0.085   9.861  11.596 -0.3026 -0.0459  0.4642
  747MOL0     C  760   0.021   9.853  11.506 -0.2418 -0.1800  0.1063
  747MOL0     N  761   0.618  10.002  11.176  0.7192 -0.2194  0.3719
  747MOL0     N  762   0.700  10.089  11.207  0.5261 -0.7451  0.4106
  747MOL0     C  763   1.935  10.404  11.252 -0.1612 -0.8832 -0.0794
  747MOL0     C  764   2.056  10.449  11.205  0.5538  0.0452 -0.1068
  747MOL0     C  765   2.482  10.411  11.095  0.1725 -0.7691 -0.4902
  747MOL0     C  766   2.529  10.341  10.996  0.0356  0.5433  0.4527
  747MOL0     C  767   2.643  10.384  10.921 -0.1141 -0.3360 -0.5165
  747MOL0     C  768   2.710  10.503  10.953 -0.6695  0.2276  0.5739
  747MOL0     O  769   2.825  10.540  10.902 -0.4380 -0.1354  0.8520
  747MOL0     C  770   2.867  10.476  10.774  0.1334 -0.5638 -0.0633
  747MOL0     C  771   2.967  10.558  10.698 -0.3460  0.3741  0.0572
  747MOL0     C  772   2.908  10.683  10.663 -0.2637  0.9926 -0.3951
  747MOL0     C  773   2.993  10.735  10.551  0.1892  0.0395 -0.3340
  747MOL0     C  774   2.955  10.867  10.507 -0.4821  0.3609 -0.7113
  747MOL0     C  775   2.932  10.982  10.478 -0.0758 -0.6758  0.8701
  747MOL0     C  776   2.664  10.584  11.058  1.3046 -0.9970 -0.4307
  747MOL0     C  777   2.543  10.535  11.124 -0.2789  0.0357  0.0008
  747MOL0     H  778   2.238  10.346  11.468  1.1210 -0.0852 -0.9564
  747MOL0     H  779   2.021  10.258  11.545  0.9189  0.1904  1.1678
  747MOL0     H  780   1.674  10.427  11.309 -0.1062  0.4400  0.7553
  747MOL0     H  781   1.672  10.262  11.234  2.7626 -2.1068  1.1609
  747MOL0     H  782   1.570  10.189  11.449 -0.1301  0.7224  0.8773
  747MOL0     H  783   1.549  10.363  11.490 -0.8383 -0.1342  0.2941
  747MOL0     H  784   1.431  10.383  11.272  2.3122 -0.3029 -0.4895
  747MOL0     H  785   1.405  10.202  11.274  0.0203 -0.4023  0.8263
  747MOL0     H  786   1.276  10.200  11.470  2.4796 -1.4193 -1.2085
  747MOL0     H  787   1.306  10.378  11.490  6.0344 -0.6902 -0.9743
  747MOL0     H  788   1.095  10.343  11.391  0.0248  0.8089 -0.3179
  747MOL0     H  789   1.213  10.405  11.262 -0.4078 -1.5337 -2.4961
  747MOL0     H  790   1.187  10.222  11.130  1.2034  1.7578 -0.0890
  747MOL0     H  791   1.188  10.113  11.267  2.2745 -0.1292 -2.0548
  747MOL0     H  792   0.945  10.268  11.184 -0.7240 -1.5522 -0.6258
  747MOL0     H  793   1.006  10.111  11.106  1.8912 -0.4960 -1.0847
  747MOL0     H  794   0.920  10.143  11.394  2.4565  0.9094 -1.0518
  747MOL0     H  795   1.002   9.990  11.324 -0.3562 -1.0852 -1.5652
  747MOL0     H  796   0.856   9.801  11.285  0.5969 -0.2264  0.6981
  747MOL0     H  797   0.515   9.765  11.073 -2.1122  1.1954  0.6590
  747MOL0     H  798   0.608   9.659  11.174 -0.9234 -0.7399 -1.7471
  747MOL0     H  799   0.403   9.838  11.294  0.2222  0.2262  1.9553
  747MOL0     H  800   0.495   9.733  11.383  1.2127  3.3420  1.2402
  747MOL0     H  801   0.407   9.534  11.250  1.5273  1.1572 -3.4788
  747MOL0     H  802   0.324   9.644  11.139  2.5603  3.5544 -0.7784
  747MOL0     H  803   0.257   9.561  11.426  0.3808 -3.9467 -1.3251
  747MOL0     H  804   0.146   9.562  11.281 -0.5204  1.5862 -0.2043
  747MOL0     H  805   0.012   9.518  11.455 -0.1482  0.0195 -0.0624
  747MOL0     H  806  -0.171   9.487  11.745 -1.5276 -0.2555 -0.2497
  747MOL0     H  807  -0.261   9.484  11.592  0.5453 -1.5148 -0.7871
  747MOL0     H  808  -0.103   9.403  11.605 -1.3158 -0.3497 -0.3364
  747MOL0     H  809  -0.421   9.865  11.972 -1.2449 -1.1495  0.0821
  747MOL0     H  810  -0.652   9.890  12.036  1.1750  2.0916  0.7052
  747MOL0     H  811  -0.978   9.936  11.745 -1.4897 -0.1645  0.2067
  747MOL0     H  812  -0.967   9.763  11.753 -3.0334 -0.6046  0.9903
  747MOL0     H  813  -1.065   9.804  12.000  1.1737  0.7533 -0.1898
  747MOL0     H  814  -1.104   9.963  11.922  0.6107  0.5911 -3.8039
  747MOL0     H  815  -1.207   9.711  11.789  2.8230  0.8039  1.1991
  747MOL0     H  816  -1.239   9.875  11.742 -0.2796  2.8361  0.5880
  747MOL0     H  817  -1.316   9.722  11.999 -0.4296 -1.8310 -1.4639
  747MOL0     H  818  -1.374   9.888  11.961  0.0474 -0.8584  1.9711
  747MOL0     H  819  -1.425   9.638  11.807  0.2095  0.4921  0.5551
  747MOL0     H  820  -1.454   9.795  11.732  1.7273  1.2004  0.1054
  747MOL0     H  821  -1.578   9.681  11.976  3.0139  0.9543  0.5510
  747MOL0     H  822  -1.580   9.851  11.969  0.6733 -0.2741  0.9693
  747MOL0     H  823  -1.721   9.679  11.771  4.0142  0.0668 -3.9627
  747MOL0     H  824  -1.675   9.839  11.728 -1.4169  1.1871  0.1334
  747MOL0     H  825  -1.794   9.915  11.957 -1.2892 -0.0932  0.1103
  747MOL0     H  826  -1.835   9.756  11.992  1.1395  0.5269  0.7522
  747MOL0     H  827  -0.781   9.924  11.640  0.7092  2.4514 -0.6977
  747MOL0     H  828  -0.559   9.896  11.559 -0.2707  0.2641  0.0796
  747MOL0     H  829  -0.109   9.959  11.636  1.2419  0.3401  0.4960
  747MOL0     H  830   0.068   9.945  11.472 -1.7377  0.0792 -1.4162
  747MOL0     H  831   1.864  10.431  11.175  0.9055  0.6710 -0.5768
  747MOL0     H  832   2.062  10.500  11.110  2.1916 -1.4336 -0.8602
  747MOL0     H  833   2.485  10.244  10.978 -3.3304  2.1952 -1.1165
  747MOL0     H  834   2.676  10.314  10.844  0.5803 -0.0005 -0.5323
  747MOL0     H  835   2.919  10.381  10.793  0.6393 -0.7231 -2.0462
  747MOL0     H  836   2.781  10.453  10.711 -2.0939  3.9266  0.9217
  747MOL0     H  837   2.992  10.500  10.608 -1.1189  1.4083 -0.8448
  747MOL0     H  838   3.059  10.575  10.755 -1.7735  1.3797  2.1972
  747MOL0     H  839   2.912  10.754  10.746 -0.4724 -0.8397  1.2490
  747MOL0     H  840   2.802  10.675  10.639 -0.5188  1.4502  0.5409
  747MOL0     H  841   2.994  10.670  10.463  0.6488 -1.5144  0.7729
  747MOL0     H  842   3.100  10.725  10.573 -0.0739  1.2987  1.7609
  747MOL0     H  843   2.908  11.078  10.437 -2.6961 -1.4800  0.3755
  747MOL0     H  844   2.700  10.683  11.086 -1.1383  0.2334 -1.3176
  747MOL0     H  845   2.500  10.598  11.200  0.1009  1.4674 -0.9349
  748MOL0     O  846   7.277   4.937   6.605  0.0053  0.4714 -0.3772
  748MOL0     C  847   7.293   5.055   6.593 -0.6210  1.1882  0.8312
  748MOL0     O  848   7.198   5.150   6.585  0.5812  0.2383  0.2676
  748MOL0     C  849   7.065   5.113   6.577  0.4474  0.3579 -0.2288
  748MOL0     C  850   6.999   5.168   6.469 -0.2753  0.1320 -0.5234
  748MOL0     C  851   6.863   5.139   6.441  0.0636  0.6319 -0.1706
  748MOL0     C  852   6.787   5.070   6.542  0.5589  0.2830 -0.1468
  748MOL0     O  853   6.646   5.072   6.518 -0.0242  0.0795  0.0225
  748MOL0     C  854   6.595   4.943   6.482  0.6409  0.6612  0.6140
  748MOL0     C  855   6.438   4.962   6.472 -0.1278 -0.4372  1.1163
  748MOL0     C  856   6.371   4.839   6.412  0.1760 -0.1335  0.4348
  748MOL0     C  857   6.231   4.867   6.354 -0.0862  0.5786 -0.7384
  748MOL0     C  858   6.116   4.862   6.461  0.7370 -1.0764 -0.6744
  748MOL0     C  859   5.977   4.887   6.397  0.1659 -0.2433  0.8558
  748MOL0     C  860   5.869   4.891   6.502 -0.1627 -0.5693 -0.2666
  748MOL0     C  861   5.734   4.937   6.450  0.9340  0.2308 -0.6713
  748MOL0     N  862   5.678   4.831   6.363  0.1455 -0.5064 -0.5555
  748MOL0     C  863   5.682   4.829   6.225  0.4683 -0.1533  0.8451
  748MOL0     C  864   5.585   4.744   6.184 -0.3231  0.6952 -0.6731
  748MOL0     C  865   5.567   4.716   6.043  0.6176  0.1193 -0.1297
  748MOL0     C  866   5.509   4.836   5.969  0.0543  0.5871  0.5098
  748MOL0     C  867   5.359   4.864   6.003  0.2951 -0.4159 -0.9533
  748MOL0     C  868   5.314   4.872   6.156 -0.0426  0.6344  0.0219
  748MOL0     O  869   5.181   4.938   6.166  0.5223  0.5311  0.2723
  748MOL0     C  870   5.095   4.930   6.278 -0.3179  0.2310  0.5576
  748MOL0     C  871   4.971   4.987   6.253  0.6038  0.6562  0.3649
  748MOL0     C  872   4.880   5.004   6.362  0.3616 -0.5623 -0.3280
  748MOL0     C  873   4.735   5.061   6.335 -0.4267  0.3737 -0.1157
  748MOL0     C  874   4.911   4.947   6.489 -0.7269 -0.3946 -1.3518
  748MOL0     C  875   4.818   4.949   6.613  0.0079  0.3460 -0.1293
  748MOL0     O  876   4.835   4.844   6.700  0.0328  0.5523  0.0581
  748MOL0     C  877   4.754   4.837   6.810  0.0867  0.8011 -0.4291
  748MOL0     C  878   4.810   4.798   6.929  0.6594 -0.6444  0.0334
  748MOL0     C  879   4.730   4.780   7.043 -0.9760 -0.1249  0.4545
  748MOL0     C  880   4.596   4.777   7.032 -0.5876  0.4742 -0.2095
  748MOL0     O  881   4.527   4.759   7.146  0.0967  0.2682 -0.3122
  748MOL0     C  882   4.402   4.818   7.144 -0.0898 -0.8728  1.0801
  748MOL0     C  883   4.335   4.803   7.273 -0.0356  0.0431  0.4507
  748MOL0     C  884   4.196   4.876   7.276  0.2374 -0.1195 -0.2621
  748MOL0     C  885   4.151   4.909   7.416  0.4901  0.5314 -0.0628
  748MOL0     C  886   4.002   4.959   7.421  0.2052  0.0945  0.1741
  748MOL0     C  887   3.959   4.999   7.564  0.0265 -1.0204 -0.2483
  748MOL0     C  888   3.809   5.016   7.561 -0.2136  0.0926  0.7045
  748MOL0     C  889   3.753   5.056   7.697 -1.2282 -0.8412  0.3128
  748MOL0    Cl  890   3.584   5.013   7.719 -0.0732 -0.2330  0.5060
  748MOL0     C  891   4.543   4.800   6.907 -0.2309 -0.1122 -0.6556
  748MOL0     C  892   4.621   4.831   6.803  0.4858  0.7539  0.0405
  748MOL0     O  893   4.737   5.033   6.618  0.3521 -0.3640 -0.0003
  748MOL0     C  894   5.042   4.895   6.509 -0.3408  0.2500  0.1306
  748MOL0     C  895   5.132   4.893   6.403 -0.8599  0.7094  0.2014
  748MOL0     N  896   5.530   4.693   6.297 -0.5277  0.2812 -0.9374
  748MOL0     N  897   5.588   4.738   6.402  0.6632 -0.1204  0.3021
  748MOL0     C  898   6.852   5.009   6.652 -0.2630 -0.2150 -0.5389
  748MOL0     C  899   6.993   5.027   6.673 -0.1649 -0.6747  0.6690
  748MOL0     C  900   7.432   5.108   6.600  0.6900  0.4866  0.0894
  748MOL0     C  901   7.544   5.029   6.564 -0.0225  0.7806 -0.1327
  748MOL0     C  902   7.666   5.078   6.568 -0.8413  0.5351  0.1726
  748MOL0     C  903   7.689   5.202   6.631 -0.7867  0.0055  0.1033
  748MOL0     O  904   7.819   5.248   6.655 -0.0662 -0.2455 -0.0533
  748MOL0     C  905   7.859   5.247   6.791  0.0652  0.1544  0.2506
  748MOL0     C  906   7.948   5.119   6.795 -0.3000  0.1574 -0.7779
  748MOL0     C  907   7.977   5.079   6.950  0.2506 -0.5060  0.9017
  748MOL0     C  908   8.016   5.204   7.036  0.7072 -0.3378  0.5810
  748MOL0     C  909   8.136   5.272   6.992  0.4088 -0.2774 -0.1724
  748MOL0     C  910   8.235   5.316   6.938  0.3761 -0.0908  0.0874
  748MOL0     C  911   7.579   5.283   6.667  0.5131  0.4131  0.9877
  748MOL0     C  912   7.452   5.238   6.645  0.0362 -0.0301 -0.3102
  748MOL0     H  913   7.053   5.226   6.395  1.0891 -1.6077 -0.9496
  748MOL0     H  914   6.809   5.184   6.359 -1.6040  0.6588  0.8993
  748MOL0     H  915   6.639   4.914   6.386 -2.8337 -0.4363 -0.8006
  748MOL0     H  916   6.602   4.868   6.562 -0.6841  1.1915  1.2552
  748MOL0     H  917   6.400   4.993   6.570  0.6138  0.7642  1.0366
  748MOL0     H  918   6.417   5.042   6.401 -0.9727 -1.2129  0.4639
  748MOL0     H  919   6.433   4.806   6.328  0.1230  0.5156  0.1401
  748MOL0     H  920   6.369   4.751   6.478  0.2474 -1.8518 -1.7292
  748MOL0     H  921   6.230   4.967   6.310  0.2906  1.6011  1.4196
  748MOL0     H  922   6.220   4.789   6.278 -2.4165 -0.9922  1.0684
  748MOL0     H  923   6.120   4.767   6.515 -0.9661  0.4008  2.3329
  748MOL0     H  924   6.118   4.947   6.530  0.3864 -1.0648 -0.6764
  748MOL0     H  925   5.990   4.983   6.346 -1.3482  0.4194  1.6819
  748MOL0     H  926   5.964   4.808   6.322  0.9074  0.8347 -0.4634
  748MOL0     H  927   5.848   4.794   6.548 -1.5000 -0.6343 -0.9756
  748MOL0     H  928   5.898   4.966   6.576 -1.8082 -0.5744  0.4079
  748MOL0     H  929   5.746   5.024   6.384 -3.1742  0.0220 -1.9980
  748MOL0     H  930   5.661   4.961   6.528 -0.4498  2.1003 -2.4141
  748MOL0     H  931   5.744   4.887   6.157 -2.6683  2.6186  0.1055
  748MOL0     H  932   5.662   4.679   6.003  0.6300 -0.9979  0.8618
  748MOL0     H  933   5.494   4.634   6.041  0.0050  0.6645 -0.3882
  748MOL0     H  934   5.522   4.822   5.861 -0.0310  2.6356  0.1992
  748MOL0     H  935   5.578   4.919   5.988  1.9073 -1.1077  1.5791
  748MOL0     H  936   5.301   4.799   5.937 -0.2619  0.3768 -1.2682
  748MOL0     H  937   5.339   4.965   5.967  1.0926 -0.5378 -1.7591
  748MOL0     H  938   5.382   4.932   6.217 -1.0765  1.1142  0.7352
  748MOL0     H  939   5.307   4.771   6.198 -0.4457  1.5455  2.3311
  748MOL0     H  940   4.946   5.020   6.153  1.2772  4.6032  1.3242
  748MOL0     H  941   4.675   4.973   6.363 -0.5214  0.5929  0.3710
  748MOL0     H  942   4.706   5.148   6.395 -2.8144 -0.2410 -0.2604
  748MOL0     H  943   4.721   5.080   6.228 -0.9146  0.8697  0.0298
  748MOL0     H  944   4.912   4.784   6.964 -0.1155 -0.3315  2.6330
  748MOL0     H  945   4.782   4.780   7.139 -2.8033  0.8288  1.4913
  748MOL0     H  946   4.403   4.926   7.123 -0.0874 -1.6376 -4.2859
  748MOL0     H  947   4.333   4.777   7.070 -0.7296  0.6590  0.7901
  748MOL0     H  948   4.323   4.699   7.305 -0.1838 -0.4725 -1.1928
  748MOL0     H  949   4.392   4.861   7.347 -1.2048  0.3348  1.1569
  748MOL0     H  950   4.128   4.807   7.226  0.4984  0.5799 -1.6449
  748MOL0     H  951   4.196   4.966   7.214  0.8151  0.7578  0.9670
  748MOL0     H  952   4.153   4.817   7.475 -1.2672  1.0355  0.8658
  748MOL0     H  953   4.219   4.985   7.455 -1.2829  2.6733 -0.8712
  748MOL0     H  954   3.938   4.879   7.383  0.8213  0.0266 -0.7410
  748MOL0     H  955   3.986   5.042   7.352 -2.1961 -2.6308 -2.8590
  748MOL0     H  956   3.979   4.923   7.640 -3.9041 -0.7425  1.2426
  748MOL0     H  957   4.007   5.090   7.601 -1.8616 -1.1821  2.8802
  748MOL0     H  958   3.752   4.925   7.538 -0.7562  0.1424  1.8010
  748MOL0     H  959   3.785   5.099   7.494  3.1399  1.2221  0.7239
  748MOL0     H  960   3.772   5.163   7.709 -2.7099 -0.1720 -2.4354
  748MOL0     H  961   3.791   5.007   7.787 -0.5980  1.3057  1.2823
  748MOL0     H  962   4.436   4.806   6.897 -0.2506  2.6768  0.3726
  748MOL0     H  963   4.570   4.831   6.707  1.9657  1.5485 -0.7809
  748MOL0     H  964   5.071   4.862   6.608 -2.6778  1.6226  1.3687
  748MOL0     H  965   5.227   4.850   6.430 -2.4268 -3.4101 -0.1280
  748MOL0     H  966   6.781   4.964   6.721 -0.8749  0.4210 -0.7369
  748MOL0     H  967   7.050   4.975   6.749  1.1561 -3.1878 -1.8241
  748MOL0     H  968   7.530   4.927   6.531 -0.3340  1.0841 -0.9775
  748MOL0     H  969   7.756   5.018   6.561 -0.8038  0.4843  0.9498
  748MOL0     H  970   7.912   5.340   6.813 -1.2338  0.9380  0.1292
  748MOL0     H  971   7.774   5.239   6.859 -0.3710 -4.2039 -0.5065
  748MOL0     H  972   8.045   5.138   6.747 -0.4640  0.6316 -0.9276
  748MOL0     H  973   7.906   5.033   6.741  4.0460 -0.4520 -3.7527
  748MOL0     H  974   8.057   5.005   6.935 -0.2166 -0.9847  0.7233
  748MOL0     H  975   7.889   5.028   6.992 -1.0123 -0.1462 -1.1773
  748MOL0     H  976   8.033   5.162   7.136  0.9582  0.4126  0.8641
  748MOL0     H  977   7.933   5.275   7.044 -0.0574 -0.8713 -1.7609
  748MOL0     H  978   8.314   5.371   6.891  1.2594 -1.7717 -0.4587
  748MOL0     H  979   7.599   5.383   6.704 -0.2003  0.8371  0.2368
  748MOL0     H  980   7.365   5.298   6.667 -1.8410 -2.3933 -0.9374
  749MOL0     O  981   1.069   9.568   1.768  0.2967  0.5445 -0.6822
  749MOL0     C  982   1.128   9.636   1.687 -0.2510 -0.7292 -0.5900
  749MOL0     O  983   1.066   9.693   1.581 -0.1349  0.1792 -0.1764
  749MOL0     C  984   0.930   9.687   1.565  0.3899 -0.5866 -0.6877
  749MOL0     C  985   0.860   9.807   1.554  0.8225  0.0601  0.6764
  749MOL0     C  986   0.723   9.804   1.548  0.2639  0.2127 -0.5851
  749MOL0     C  987   0.652   9.685   1.539 -0.5436  0.6219  0.9310
  749MOL0     O  988   0.515   9.664   1.537 -0.0753 -0.5943  0.4831
  749MOL0     C  989   0.436   9.754   1.458 -0.5782  0.0232 -0.0642
  749MOL0     C  990   0.294   9.716   1.476  0.0556 -0.8797  0.2907
  749MOL0     C  991   0.203   9.830   1.437  0.1238  0.2420 -0.6019
  749MOL0     C  992   0.059   9.788   1.440 -0.8614  0.7935 -0.1177
  749MOL0     C  993  -0.050   9.884   1.392  0.0039  0.4591  0.6230
  749MOL0     C  994  -0.063  10.005   1.478  0.1866 -0.8313  0.4776
  749MOL0     C  995  -0.168  10.094   1.412  0.4450 -0.0285 -0.5682
  749MOL0     C  996  -0.213  10.214   1.503 -0.2933  0.9304 -0.6111
  749MOL0     N  997  -0.320  10.293   1.434 -0.0451  0.4346 -0.1520
  749MOL0     C  998  -0.452  10.308   1.481 -0.2275  0.5636 -0.4879
  749MOL0     C  999  -0.503  10.411   1.411  0.1174 -0.3893  0.4190
  749MOL0     C 1000  -0.629  10.500   1.433 -0.2407  0.3725  0.3481
  749MOL0     C 1001  -0.716  10.520   1.308 -0.4240 -0.3858 -0.3050
  749MOL0     C 1002  -0.664  10.642   1.236 -0.1456  0.3602  0.4143
  749MOL0     C 1003  -0.765  10.689   1.132  0.0365  0.7281 -0.2002
  749MOL0     O 1004  -0.879  10.752   1.191  0.5725 -0.3757  0.2301
  749MOL0     C 1005  -0.929  10.849   1.109  0.1541 -0.1821  1.2500
  749MOL0     C 1006  -0.865  10.972   1.088  0.4430 -0.0913  0.5471
  749MOL0     C 1007  -0.932  11.083   1.021 -0.2434  0.2115  0.4820
  749MOL0     C 1008  -0.853  11.210   1.004 -0.4616 -0.4207 -0.3525
  749MOL0     C 1009  -1.064  11.059   0.974 -0.0779 -0.1757 -0.3259
  749MOL0     C 1010  -1.151  11.161   0.902  0.2926 -0.0631  0.3501
  749MOL0     O 1011  -1.287  11.174   0.948 -0.1749 -0.0380  0.2855
  749MOL0     C 1012  -1.387  11.207   0.855 -0.4601  0.1963 -0.2324
  749MOL0     C 1013  -1.513  11.252   0.903 -0.4555  0.1320 -0.8963
  749MOL0     C 1014  -1.621  11.268   0.821 -0.4222 -0.5588 -0.5900
  749MOL0     C 1015  -1.614  11.251   0.681 -0.2594 -0.2071 -0.1124
  749MOL0     O 1016  -1.732  11.274   0.609 -0.4670  0.6669  0.4048
  749MOL0     C 1017  -1.725  11.262   0.466 -0.4443 -0.0468  0.4861
  749MOL0     C 1018  -1.861  11.312   0.411  0.1043 -0.2518  0.2862
  749MOL0     C 1019  -1.876  11.462   0.410 -0.0717 -0.8405 -0.9876
  749MOL0     C 1020  -1.954  11.520   0.286  0.1283  0.0541 -0.6718
  749MOL0     C 1021  -1.983  11.675   0.296 -0.9162  0.2251  0.7700
  749MOL0     C 1022  -2.095  11.725   0.198 -0.3850  0.6861  0.3966
  749MOL0     C 1023  -2.090  11.655   0.063  0.4108 -0.3915  0.2100
  749MOL0     C 1024  -2.182  11.707  -0.042  0.2472  0.0115  0.0148
  749MOL0    Cl 1025  -2.331  11.592  -0.056 -0.4275  0.0948  0.1465
  749MOL0     C 1026  -1.491  11.216   0.632 -0.8177 -0.1920  0.3479
  749MOL0     C 1027  -1.380  11.195   0.713 -0.2461  0.1434  0.8686
  749MOL0     O 1028  -1.099  11.236   0.819 -0.6805  0.7178  0.0187
  749MOL0     C 1029  -1.126  10.938   1.000  0.0681  1.2055 -0.0953
  749MOL0     C 1030  -1.061  10.834   1.067 -0.0470  0.6543  0.3996
  749MOL0     N 1031  -0.410  10.431   1.302  0.4881 -1.1397 -0.4086
  749MOL0     N 1032  -0.308  10.359   1.313  0.1035 -0.0265 -0.3897
  749MOL0     C 1033   0.727   9.562   1.541 -0.1028  1.1972 -0.6968
  749MOL0     C 1034   0.869   9.568   1.560 -0.8354 -0.5653 -0.3583
  749MOL0     C 1035   1.272   9.636   1.700 -0.2947 -1.6884 -0.8128
  749MOL0     C 1036   1.346   9.556   1.783  0.6170 -0.2518  0.0172
  749MOL0     C 1037   1.479   9.547   1.779 -0.9779 -0.9971  0.3542
  749MOL0     C 1038   1.558   9.640   1.706 -0.2197 -0.6881 -0.2009
  749MOL0     O 1039   1.695   9.640   1.724  0.0033  0.1828  0.3635
  749MOL0     C 1040   1.756   9.771   1.715 -0.8754 -0.1963 -0.4430
  749MOL0     C 1041   1.909   9.751   1.761  0.1484 -0.0090 -0.4638
  749MOL0     C 1042   1.922   9.735   1.923 -0.2761  0.6872 -0.2177
  749MOL0     C 1043   2.060   9.671   1.953 -0.5392  0.2019 -0.5907
  749MOL0     C 1044   2.170   9.778   1.953  0.2641 -0.5329 -0.0151
  749MOL0     C 1045   2.263   9.859   1.955  0.0017 -0.3517  0.1058
  749MOL0     C 1046   1.488   9.733   1.629  0.0167 -0.0586  0.1598
  749MOL0     C 1047   1.350   9.731   1.631 -0.2412  0.3926 -0.0097
  749MOL0     H 1048   0.911   9.902   1.545  0.2936  0.1332 -3.8192
  749MOL0     H 1049   0.662   9.892   1.534  0.9949  0.7716 -0.3236
  749MOL0     H 1050   0.443   9.856   1.496  1.7695 -0.3184  0.5379
  749MOL0     H 1051   0.463   9.763   1.352 -3.1457  0.6583 -0.7538
  749MOL0     H 1052   0.268   9.634   1.408  0.7209  1.6655 -3.2872
  749MOL0     H 1053   0.269   9.681   1.576 -1.1467 -2.3204 -0.4660
  749MOL0     H 1054   0.220   9.900   1.520  0.2494  1.4116 -1.5867
  749MOL0     H 1055   0.243   9.867   1.342  3.1289 -2.3948 -0.5355
  749MOL0     H 1056   0.051   9.694   1.386 -0.3401 -1.2433  3.0930
  749MOL0     H 1057   0.035   9.757   1.542  2.0982  0.5079  0.5749
  749MOL0     H 1058  -0.029   9.924   1.293  0.6182 -2.1961 -0.4120
  749MOL0     H 1059  -0.144   9.827   1.399  1.4470 -2.0887  0.3793
  749MOL0     H 1060  -0.099   9.977   1.578  1.4655  0.1097  1.2304
  749MOL0     H 1061   0.034  10.049   1.500  0.3044 -1.4930  1.3263
  749MOL0     H 1062  -0.118  10.121   1.318  2.7306 -1.6691  0.1091
  749MOL0     H 1063  -0.263  10.045   1.388  0.6816 -0.7582 -0.0356
  749MOL0     H 1064  -0.125  10.274   1.527  1.6458 -2.5614  1.8596
  749MOL0     H 1065  -0.234  10.170   1.600  5.2282  0.0941  0.5452
  749MOL0     H 1066  -0.487  10.268   1.576 -1.1821  1.3431 -0.5018
  749MOL0     H 1067  -0.689  10.455   1.513  1.9491 -0.8092  1.4422
  749MOL0     H 1068  -0.593  10.598   1.467  1.1223  0.5526 -1.4647
  749MOL0     H 1069  -0.814  10.540   1.351  0.5287  2.6801  0.6559
  749MOL0     H 1070  -0.723  10.432   1.242 -0.6052 -0.4252 -0.2338
  749MOL0     H 1071  -0.576  10.607   1.182  0.7893  0.5446  1.7577
  749MOL0     H 1072  -0.630  10.720   1.305 -2.1235  0.4174  1.3893
  749MOL0     H 1073  -0.786  10.601   1.070  2.4948  0.7626 -1.1733
  749MOL0     H 1074  -0.719  10.755   1.058 -0.3733  0.0562 -1.0687
  749MOL0     H 1075  -0.767  10.972   1.133  0.8439 -0.1804 -0.3109
  749MOL0     H 1076  -0.765  11.211   1.070 -0.4249 -0.7135 -0.3978
  749MOL0     H 1077  -0.828  11.224   0.899  2.4511 -0.2255  0.2793
  749MOL0     H 1078  -0.910  11.299   1.031  3.3319  1.0391  4.1544
  749MOL0     H 1079  -1.526  11.243   1.011  1.9336 -1.4496 -0.6485
  749MOL0     H 1080  -1.719  11.287   0.866  0.8028 -0.3468  2.1830
  749MOL0     H 1081  -1.639  11.297   0.408 -0.0533 -1.7052 -0.0004
  749MOL0     H 1082  -1.727  11.155   0.444  0.0120  0.3843 -1.9910
  749MOL0     H 1083  -1.865  11.291   0.304  1.4691  0.4101  0.0865
  749MOL0     H 1084  -1.949  11.267   0.458  0.7935  0.1058  1.9676
  749MOL0     H 1085  -1.777  11.508   0.406 -0.4414  0.2820  1.1907
  749MOL0     H 1086  -1.926  11.488   0.504 -3.0683 -1.9811 -2.1415
  749MOL0     H 1087  -1.890  11.508   0.198 -0.2552  1.8910 -1.2540
  749MOL0     H 1088  -2.043  11.457   0.276  0.8568 -1.1113 -0.0429
  749MOL0     H 1089  -1.894  11.736   0.280  0.6475 -1.5314  2.2826
  749MOL0     H 1090  -2.008  11.696   0.401  0.0740 -0.9426  1.2654
  749MOL0     H 1091  -2.190  11.723   0.251 -1.0683 -1.5993 -0.7859
  749MOL0     H 1092  -2.091  11.834   0.185  1.8147  0.3691 -2.6150
  749MOL0     H 1093  -2.111  11.548   0.065  2.0310 -0.7390 -0.1354
  749MOL0     H 1094  -1.987  11.674   0.033  0.4571  1.2923  1.2710
  749MOL0     H 1095  -2.135  11.699  -0.141 -0.6178 -2.7858 -0.2590
  749MOL0     H 1096  -2.206  11.811  -0.019  0.3320 -0.3389  1.8147
  749MOL0     H 1097  -1.491  11.201   0.524 -1.6676 -0.1259  0.3299
  749MOL0     H 1098  -1.288  11.169   0.661 -2.0590 -0.8936 -2.0260
  749MOL0     H 1099  -1.218  10.912   0.950  0.1866 -0.2556  0.4050
  749MOL0     H 1100  -1.102  10.733   1.070  1.3856 -0.1117 -2.5293
  749MOL0     H 1101   0.665   9.473   1.549  0.5020  0.9149  1.7251
  749MOL0     H 1102   0.930   9.479   1.569  0.0755 -0.1552 -2.0245
  749MOL0     H 1103   1.299   9.491   1.856 -1.5739  0.7226 -0.4625
  749MOL0     H 1104   1.520   9.476   1.849 -2.1422  0.2674  2.4335
  749MOL0     H 1105   1.753   9.808   1.612 -2.8003 -1.3572 -0.8523
  749MOL0     H 1106   1.719   9.858   1.770  1.3670  0.7691 -0.3606
  749MOL0     H 1107   1.956   9.841   1.722 -1.0172 -0.1596 -2.3446
  749MOL0     H 1108   1.961   9.665   1.717  0.3680  1.0659 -2.3729
  749MOL0     H 1109   1.842   9.675   1.968 -0.0437 -0.4769 -1.2870
  749MOL0     H 1110   1.919   9.831   1.974  1.6602  0.0782  1.1235
  749MOL0     H 1111   2.082   9.588   1.885 -3.0045 -1.8103  0.8995
  749MOL0     H 1112   2.064   9.623   2.051  2.6766  0.1901 -0.6037
  749MOL0     H 1113   2.351   9.919   1.963 -0.1150 -0.3272  1.3698
  749MOL0     H 1114   1.544   9.791   1.556 -0.1564 -0.6323 -0.4454
  749MOL0     H 1115   1.307   9.807   1.566  0.0899 -0.9617 -1.9071
  750MOL0     O 1116   0.047   0.928   8.016  0.4108 -0.3735  0.3223
  750MOL0     C 1117   0.115   0.830   7.997 -0.2299  0.0953 -0.4660
  750MOL0     O 1118   0.062   0.699   7.982 -0.3111 -0.8751 -0.0114
  750MOL0     C 1119  -0.073   0.675   7.986 -0.1757  0.2787  0.3014
  750MOL0     C 1120  -0.141   0.708   8.097  0.0413  1.5549 -0.3662
  750MOL0     C 1121  -0.278   0.692   8.108 -0.3997  0.4650 -0.4434
  750MOL0     C 1122  -0.351   0.654   7.990 -0.0538  0.0969 -0.5894
  750MOL0     O 1123  -0.487   0.639   7.975 -0.4269  0.4413  0.4704
  750MOL0     C 1124  -0.572   0.704   8.069  0.7670 -0.0068 -0.4277
  750MOL0     C 1125  -0.714   0.681   8.024  0.2815 -0.4919  0.3074
  750MOL0     C 1126  -0.824   0.759   8.105 -0.4983 -0.2413 -0.4460
  750MOL0     C 1127  -0.838   0.915   8.057 -0.5840  0.3554 -0.3790
  750MOL0     C 1128  -0.938   0.996   8.144  0.0535  0.4059  0.0641
  750MOL0     C 1129  -1.083   0.991   8.104  0.8818 -0.5588 -0.0136
  750MOL0     C 1130  -1.167   1.072   8.207  0.5975 -0.3348  0.4240
  750MOL0     C 1131  -1.218   0.993   8.327  0.2877 -0.2813  0.1131
  750MOL0     N 1132  -1.362   0.941   8.325 -0.3702  0.3614  0.0338
  750MOL0     C 1133  -1.469   1.022   8.293 -0.9197 -0.3499 -0.3017
  750MOL0     C 1134  -1.565   0.931   8.275  0.6448  0.6790  0.0957
  750MOL0     C 1135  -1.705   0.938   8.235  0.6067  0.3711 -0.4552
  750MOL0     C 1136  -1.726   0.998   8.100 -0.4601  1.1569 -0.4548
  750MOL0     C 1137  -1.877   1.005   8.056 -0.3643  0.4877  0.4691
  750MOL0     C 1138  -1.881   1.078   7.918  0.1143 -0.0245  0.8268
  750MOL0     O 1139  -2.020   1.104   7.883  0.3997 -0.1524 -0.7865
  750MOL0     C 1140  -2.075   1.049   7.768 -0.8193  0.1148  0.2998
  750MOL0     C 1141  -2.191   1.100   7.732  0.4600 -0.4405 -0.3212
  750MOL0     C 1142  -2.259   1.077   7.615  0.0957 -0.2716  0.0793
  750MOL0     C 1143  -2.385   1.145   7.594  0.0148  0.2634 -0.1983
  750MOL0     C 1144  -2.213   0.979   7.528 -0.3785  0.5303 -0.7938
  750MOL0     C 1145  -2.290   0.945   7.409 -0.5029  0.5750  0.4580
  750MOL0     O 1146  -2.363   0.833   7.408 -0.3413 -0.4117 -0.1283
  750MOL0     C 1147  -2.465   0.828   7.319  0.1191  0.4731  0.2593
  750MOL0     C 1148  -2.443   0.769   7.194 -0.4299 -0.2048 -0.6759
  750MOL0     C 1149  -2.550   0.752   7.099 -1.0452 -0.3655  0.9479
  750MOL0     C 1150  -2.683   0.786   7.138 -0.4277  0.3689 -1.0648
  750MOL0     O 1151  -2.799   0.771   7.068  0.7081  0.0816  0.8264
  750MOL0     C 1152  -2.788   0.712   6.938  0.0417 -0.4235 -0.3048
  750MOL0     C 1153  -2.928   0.721   6.880 -0.4310 -0.0394 -0.0776
  750MOL0     C 1154  -3.023   0.631   6.947  1.0701  0.2063 -0.5518
  750MOL0     C 1155  -3.173   0.642   6.910 -0.1766 -0.0245 -0.0128
  750MOL0     C 1156  -3.244   0.544   7.006  0.2770 -0.8270  0.1824
  750MOL0     C 1157  -3.394   0.525   6.970  0.3617 -0.4854 -0.0598
  750MOL0     C 1158  -3.466   0.407   7.044  0.4490  0.2461 -0.0615
  750MOL0     C 1159  -3.519   0.449   7.184 -0.4355  0.1197  0.5559
  750MOL0    Cl 1160  -3.578   0.303   7.279 -0.3804  0.4726  0.0815
  750MOL0     C 1161  -2.702   0.846   7.264  0.7987  0.0856  0.1001
  750MOL0     C 1162  -2.597   0.869   7.355 -0.4427  0.4328  0.5499
  750MOL0     O 1163  -2.293   1.031   7.324 -0.3020 -0.3775  0.5210
  750MOL0     C 1164  -2.088   0.913   7.568  0.3295 -0.4289  0.4601
  750MOL0     C 1165  -2.016   0.954   7.683  0.4611  0.0830 -0.4354
  750MOL0     N 1166  -1.513   0.799   8.302  0.2047 -0.2334 -0.3581
  750MOL0     N 1167  -1.396   0.813   8.347  0.0732 -0.6244 -0.3985
  750MOL0     C 1168  -0.275   0.622   7.877 -0.5489  0.6260  0.6541
  750MOL0     C 1169  -0.141   0.641   7.874  0.0049 -0.4073  0.8811
  750MOL0     C 1170   0.265   0.847   8.009 -0.0684  0.3576  0.2674
  750MOL0     C 1171   0.354   0.742   8.000  0.0659  0.3257  0.0760
  750MOL0     C 1172   0.486   0.763   8.023  0.2329 -0.2078  0.0126
  750MOL0     C 1173   0.546   0.881   8.051 -0.2276 -0.3236 -0.2796
  750MOL0     O 1174   0.677   0.877   8.080  0.0062 -0.5238 -0.1602
  750MOL0     C 1175   0.733   1.005   8.109 -0.2510  0.1540 -0.5086
  750MOL0     C 1176   0.889   1.000   8.134  0.4365  0.2482  0.5182
  750MOL0     C 1177   0.939   0.884   8.224 -0.0767 -0.0792 -0.5888
  750MOL0     C 1178   1.092   0.874   8.220  0.5824 -0.5841 -0.3297
  750MOL0     C 1179   1.138   0.797   8.329 -0.7815  0.8570  0.2405
  750MOL0     C 1180   1.167   0.743   8.435 -0.3081  0.2204 -0.6756
  750MOL0     C 1181   0.455   0.991   8.057  0.6435 -0.3599  0.1008
  750MOL0     C 1182   0.316   0.975   8.037 -0.2649  0.6834  1.1193
  750MOL0     H 1183  -0.085   0.736   8.186 -0.0649 -1.0973  0.6346
  750MOL0     H 1184  -0.324   0.724   8.201 -0.7327  0.5208 -0.6274
  750MOL0     H 1185  -0.549   0.653   8.163 -2.5317 -1.1813 -0.1190
  750MOL0     H 1186  -0.551   0.811   8.071 -2.9990  0.9155 -1.7463
  750MOL0     H 1187  -0.725   0.704   7.917  1.3368  0.8705  0.4674
  750MOL0     H 1188  -0.731   0.573   8.027  1.2597 -0.6320  1.9985
  750MOL0     H 1189  -0.922   0.712   8.093 -0.1729 -0.9881 -0.2356
  750MOL0     H 1190  -0.805   0.749   8.213 -2.3186 -1.1159 -0.1861
  750MOL0     H 1191  -0.738   0.958   8.067  0.4307 -2.0583  0.7366
  750MOL0     H 1192  -0.868   0.930   7.953 -2.8036 -1.9425 -0.1645
  750MOL0     H 1193  -0.939   0.971   8.250 -2.2123 -0.1782 -0.0530
  750MOL0     H 1194  -0.921   1.104   8.145 -0.9606  0.5874  1.8026
  750MOL0     H 1195  -1.081   1.019   7.998  1.0394 -0.7223 -0.0531
  750MOL0     H 1196  -1.118   0.888   8.111  1.5011 -0.6605  2.2689
  750MOL0     H 1197  -1.110   1.158   8.244  0.3978 -1.3707  3.3707
  750MOL0     H 1198  -1.254   1.110   8.152  0.7332 -0.2242  0.2835
  750MOL0     H 1199  -1.220   1.074   8.400 -0.8978  1.0139 -1.2950
  750MOL0     H 1200  -1.147   0.915   8.359  0.6416  0.2617  0.6662
  750MOL0     H 1201  -1.466   1.127   8.266  2.0717 -0.7435 -2.0223
  750MOL0     H 1202  -1.749   0.838   8.238  0.4179  0.4501  2.4039
  750MOL0     H 1203  -1.765   0.983   8.315 -0.1197 -1.4229  0.0595
  750MOL0     H 1204  -1.661   0.945   8.030 -0.5608 -0.0299  0.3082
  750MOL0     H 1205  -1.691   1.100   8.115 -1.1842  1.8740 -3.1597
  750MOL0     H 1206  -1.927   1.067   8.132 -0.0403  2.2253 -0.6632
  750MOL0     H 1207  -1.914   0.903   8.046 -1.4162  1.0830 -3.1975
  750MOL0     H 1208  -1.812   1.041   7.842  1.2966  0.4934  1.6164
  750MOL0     H 1209  -1.833   1.176   7.930 -1.9019  1.3676 -1.5053
  750MOL0     H 1210  -2.227   1.178   7.798 -0.5828  0.2372 -1.6283
  750MOL0     H 1211  -2.456   1.062   7.606  0.8370 -0.8463 -2.5527
  750MOL0     H 1212  -2.396   1.234   7.656  1.4622  1.1742 -1.1941
  750MOL0     H 1213  -2.391   1.169   7.488  4.2713  2.2181 -0.1963
  750MOL0     H 1214  -2.342   0.735   7.170  0.6333  1.1946  1.5536
  750MOL0     H 1215  -2.519   0.713   7.003  0.8177  3.0707 -0.0080
  750MOL0     H 1216  -2.725   0.773   6.873 -0.7952  0.3475 -0.4236
  750MOL0     H 1217  -2.751   0.610   6.947  0.0176 -0.2567  3.0548
  750MOL0     H 1218  -2.960   0.825   6.888  0.0314  0.0730  0.3427
  750MOL0     H 1219  -2.928   0.691   6.775  0.7349 -1.1189  0.2144
  750MOL0     H 1220  -3.020   0.672   7.048  0.1818  0.0388 -0.4465
  750MOL0     H 1221  -2.988   0.527   6.943  1.5063  0.3362 -0.1738
  750MOL0     H 1222  -3.201   0.747   6.921 -2.5086 -0.4341 -1.3685
  750MOL0     H 1223  -3.192   0.604   6.810 -3.1393 -3.3058  1.5710
  750MOL0     H 1224  -3.236   0.583   7.108 -0.8408  1.4286 -0.5197
  750MOL0     H 1225  -3.190   0.450   6.990 -0.0310 -0.6724 -1.9408
  750MOL0     H 1226  -3.439   0.625   6.977  1.4160  0.0312 -0.3847
  750MOL0     H 1227  -3.387   0.495   6.865 -0.6190  2.3393 -1.0375
  750MOL0     H 1228  -3.386   0.332   7.049  3.3897  3.1598  0.8101
  750MOL0     H 1229  -3.538   0.364   6.974  0.1444 -0.3864  0.6289
  750MOL0     H 1230  -3.602   0.520   7.173 -0.6874 -0.4352 -1.4437
  750MOL0     H 1231  -3.441   0.496   7.244 -1.8615  1.4322  1.4829
  750MOL0     H 1232  -2.805   0.864   7.294  1.2418  0.8735  1.2006
  750MOL0     H 1233  -2.616   0.912   7.453  1.2590 -0.5346  1.3503
  750MOL0     H 1234  -2.061   0.825   7.510 -0.9142 -2.9997  3.4820
  750MOL0     H 1235  -1.922   0.908   7.712  0.2036 -1.2283 -1.5311
  750MOL0     H 1236  -0.325   0.584   7.788 -0.1900 -0.1040  0.7562
  750MOL0     H 1237  -0.087   0.614   7.783  0.6857 -0.7144  1.3731
  750MOL0     H 1238   0.326   0.640   7.976 -1.6064 -0.0656  3.2210
  750MOL0     H 1239   0.547   0.674   8.013  0.9068 -0.2690  3.3197
  750MOL0     H 1240   0.724   1.091   8.042 -0.0702  2.3744  2.1226
  750MOL0     H 1241   0.682   1.045   8.197  0.8431  1.3276 -0.3765
  750MOL0     H 1242   0.919   1.090   8.188 -1.2324  0.0393  1.8598
  750MOL0     H 1243   0.949   0.995   8.042  0.2059 -0.0094  0.3830
  750MOL0     H 1244   0.909   0.786   8.183  2.5783 -1.1324 -0.1694
  750MOL0     H 1245   0.895   0.894   8.323 -0.3775 -2.8179 -0.3479
  750MOL0     H 1246   1.144   0.970   8.216 -2.6930  1.3245 -0.7710
  750MOL0     H 1247   1.110   0.825   8.124 -2.0516  0.0364 -1.2341
  750MOL0     H 1248   1.191   0.696   8.528 -1.5566  1.0528  0.0880
  750MOL0     H 1249   0.498   1.087   8.082  2.8890 -1.3340  0.2885
  750MOL0     H 1250   0.259   1.068   8.031  2.6387  2.5368  0.1004
  751MOL0     O 1251   8.691   4.398   6.557 -0.2260  0.1344 -0.3798
  751MOL0     C 1252   8.689   4.346   6.444  0.0313 -0.2490  0.0987
  751MOL0     O 1253   8.574   4.299   6.377 -0.6494  0.4302 -0.1784
  751MOL0     C 1254   8.451   4.306   6.422  0.1884  0.5030 -0.9776
  751MOL0     C 1255   8.378   4.189   6.415  0.6049 -0.7026 -0.5732
  751MOL0     C 1256   8.243   4.188   6.466 -0.1400  0.2357  0.4011
  751MOL0     C 1257   8.181   4.304   6.515  0.5593  0.7874  0.2429
  751MOL0     O 1258   8.042   4.296   6.550 -0.4375 -0.1981  0.6026
  751MOL0     C 1259   7.954   4.392   6.497 -0.1223  0.7468  0.1551
  751MOL0     C 1260   7.852   4.316   6.414  0.0861  0.0333 -0.0590
  751MOL0     C 1261   7.755   4.422   6.354  0.0265  1.0363 -0.2261
  751MOL0     C 1262   7.630   4.371   6.282  0.1952  0.0018  0.0413
  751MOL0     C 1263   7.536   4.481   6.231 -0.6731  1.0810  0.4283
  751MOL0     C 1264   7.427   4.429   6.130 -0.5148 -0.6859  0.7770
  751MOL0     C 1265   7.339   4.319   6.187  0.2629 -0.1270  0.0039
  751MOL0     C 1266   7.227   4.274   6.100  0.3729  0.3524 -0.7503
  751MOL0     N 1267   7.139   4.383   6.053 -0.3579  0.3581  0.0474
  751MOL0     C 1268   7.043   4.445   6.131  0.0107  0.1858  0.4761
  751MOL0     C 1269   6.998   4.544   6.049 -0.6681 -0.1699  0.1240
  751MOL0     C 1270   6.901   4.652   6.082 -0.0741  0.4051 -0.8307
  751MOL0     C 1271   6.753   4.615   6.063 -0.0510 -0.2202  0.3708
  751MOL0     C 1272   6.666   4.736   6.105 -0.5533  0.1755  0.1396
  751MOL0     C 1273   6.522   4.705   6.087 -0.4881  0.3240  0.2748
  751MOL0     O 1274   6.494   4.705   5.945  1.3812  0.4143 -0.3572
  751MOL0     C 1275   6.363   4.729   5.901 -0.4337  0.5857  0.0104
  751MOL0     C 1276   6.335   4.778   5.771 -0.2342 -0.5439  0.7823
  751MOL0     C 1277   6.204   4.805   5.723  0.0258  0.3047 -0.0353
  751MOL0     C 1278   6.191   4.868   5.584 -0.4286  0.0287  0.0590
  751MOL0     C 1279   6.094   4.790   5.810  0.1082  0.5877 -0.1181
  751MOL0     C 1280   5.949   4.810   5.781 -0.1172  0.5289 -0.5623
  751MOL0     O 1281   5.920   4.885   5.675 -0.2702 -0.4022 -0.2734
  751MOL0     C 1282   5.793   4.922   5.651 -0.3744 -0.7596 -0.3124
  751MOL0     C 1283   5.743   5.043   5.687 -0.5913 -0.0594 -0.9320
  751MOL0     C 1284   5.602   5.062   5.686  0.0757  0.1267  0.3947
  751MOL0     C 1285   5.517   4.966   5.626  0.3928 -0.5711 -0.2932
  751MOL0     O 1286   5.380   4.984   5.627 -0.4434 -0.1446 -0.3947
  751MOL0     C 1287   5.328   5.107   5.681 -0.3491 -0.2325  0.2984
  751MOL0     C 1288   5.172   5.097   5.696 -0.3931 -0.1203 -0.3174
  751MOL0     C 1289   5.128   5.231   5.760 -0.4024  0.3885 -0.2647
  751MOL0     C 1290   5.139   5.242   5.910  0.5887 -0.0389  0.4124
  751MOL0     C 1291   5.048   5.361   5.958 -0.2358  0.2365 -0.0151
  751MOL0     C 1292   4.902   5.310   5.972 -0.0389 -0.1042  0.0895
  751MOL0     C 1293   4.833   5.400   6.075  0.1291 -0.1602 -0.6548
  751MOL0     C 1294   4.683   5.368   6.076  0.1019 -0.1261  0.2082
  751MOL0    Cl 1295   4.618   5.432   5.922  0.1885 -0.0264  0.3089
  751MOL0     C 1296   5.569   4.859   5.566  0.1070 -0.4180 -0.3168
  751MOL0     C 1297   5.704   4.839   5.580 -0.1524  0.3885  0.2147
  751MOL0     O 1298   5.866   4.776   5.870 -0.1195 -0.8534  0.4786
  751MOL0     C 1299   6.127   4.750   5.943  0.3829  0.3793  0.3475
  751MOL0     C 1300   6.257   4.726   5.988 -0.5634  0.2122  0.2155
  751MOL0     N 1301   7.048   4.521   5.923  0.4108 -0.7654 -0.0050
  751MOL0     N 1302   7.131   4.421   5.920 -0.0909 -0.3696 -0.6552
  751MOL0     C 1303   8.257   4.417   6.533 -0.3548 -0.5826 -0.3361
  751MOL0     C 1304   8.394   4.423   6.489 -0.0680 -0.0849 -0.7938
  751MOL0     C 1305   8.818   4.323   6.368  0.1410  0.2441 -0.4464
  751MOL0     C 1306   8.936   4.377   6.415  0.6771 -0.4584  0.1987
  751MOL0     C 1307   9.049   4.388   6.344 -0.3435  0.0024 -0.2818
  751MOL0     C 1308   9.057   4.320   6.224 -0.2257 -0.4530  0.3906
  751MOL0     O 1309   9.177   4.331   6.152 -0.6551  0.7200 -0.9707
  751MOL0     C 1310   9.208   4.268   6.027  0.2540 -0.5113 -0.1943
  751MOL0     C 1311   9.320   4.355   5.962 -0.2223 -0.1680 -0.2635
  751MOL0     C 1312   9.371   4.303   5.829  0.7897 -0.2311 -0.5145
  751MOL0     C 1313   9.425   4.159   5.841 -0.1772 -0.0794 -0.5364
  751MOL0     C 1314   9.476   4.130   5.713 -0.6061 -0.2998  0.6579
  751MOL0     C 1315   9.499   4.106   5.594  0.5445  0.2239  0.3000
  751MOL0     C 1316   8.943   4.252   6.179 -1.1606 -0.0037 -0.7046
  751MOL0     C 1317   8.824   4.263   6.240  0.3488 -0.0796 -0.1729
  751MOL0     H 1318   8.427   4.097   6.385  1.2541 -0.3137 -0.7293
  751MOL0     H 1319   8.184   4.100   6.443 -2.0717  2.1005 -2.3803
  751MOL0     H 1320   7.897   4.445   6.575 -1.3207 -1.3509  0.7768
  751MOL0     H 1321   8.009   4.470   6.443 -0.9361 -0.2087 -2.1698
  751MOL0     H 1322   7.911   4.263   6.339  0.1937 -0.3409  0.2923
  751MOL0     H 1323   7.793   4.239   6.464 -2.1232 -0.7754 -3.4793
  751MOL0     H 1324   7.735   4.505   6.423  0.8151  0.1470  1.1512
  751MOL0     H 1325   7.798   4.465   6.264 -2.0316  4.1336  0.1591
  751MOL0     H 1326   7.659   4.310   6.197 -1.2732 -1.6190  0.6389
  751MOL0     H 1327   7.584   4.297   6.348 -1.9819  0.5222 -0.8121
  751MOL0     H 1328   7.483   4.532   6.312 -0.6390  1.6072  0.1252
  751MOL0     H 1329   7.599   4.549   6.173  0.0046  0.5289  0.5015
  751MOL0     H 1330   7.369   4.518   6.105 -1.7042 -1.4242  0.8244
  751MOL0     H 1331   7.472   4.387   6.039  1.4776 -0.6621  1.6827
  751MOL0     H 1332   7.404   4.235   6.213  1.4446  0.7975  0.1210
  751MOL0     H 1333   7.297   4.366   6.277  1.0407  1.9619 -0.6601
  751MOL0     H 1334   7.164   4.196   6.144  0.0930 -0.0770 -1.8840
  751MOL0     H 1335   7.267   4.219   6.014 -1.5976 -0.8893 -0.9520
  751MOL0     H 1336   7.014   4.424   6.233  0.4114  2.4758  1.1079
  751MOL0     H 1337   6.913   4.686   6.186 -2.0926 -0.7386 -0.1743
  751MOL0     H 1338   6.931   4.725   6.007  3.1921 -1.4493 -1.5198
  751MOL0     H 1339   6.729   4.528   6.124 -1.0704 -1.2224 -1.3749
  751MOL0     H 1340   6.728   4.598   5.958  3.1059 -0.2688 -0.4584
  751MOL0     H 1341   6.694   4.830   6.057  1.9669 -0.9149 -0.6533
  751MOL0     H 1342   6.669   4.742   6.214  1.5202 -2.7653  0.3760
  751MOL0     H 1343   6.460   4.785   6.130 -1.1646 -0.2560  0.3937
  751MOL0     H 1344   6.482   4.616   6.136 -2.3445  1.6544  1.3057
  751MOL0     H 1345   6.421   4.787   5.705  2.0191 -0.1377  3.5672
  751MOL0     H 1346   6.159   4.972   5.593  0.9241  0.3914  0.9718
  751MOL0     H 1347   6.286   4.878   5.530 -0.8987 -2.2268 -1.3099
  751MOL0     H 1348   6.121   4.811   5.521  0.6684 -1.1486 -0.1454
  751MOL0     H 1349   5.815   5.104   5.740  0.2478  0.1637 -2.2904
  751MOL0     H 1350   5.570   5.157   5.726  2.7499  1.0344  0.5821
  751MOL0     H 1351   5.359   5.119   5.785 -1.8281 -1.4260  0.9161
  751MOL0     H 1352   5.357   5.191   5.618  0.7395 -0.5305  0.3795
  751MOL0     H 1353   5.139   5.095   5.592  1.0286 -2.2972 -0.7975
  751MOL0     H 1354   5.139   5.006   5.747 -1.1106  0.8754  1.0577
  751MOL0     H 1355   5.023   5.245   5.736 -1.0823  2.5689  3.2956
  751MOL0     H 1356   5.184   5.315   5.718 -1.3266  1.9754  1.5157
  751MOL0     H 1357   5.114   5.147   5.959  0.2111 -0.4314 -0.5125
  751MOL0     H 1358   5.240   5.275   5.934 -0.4447  3.5121  0.4169
  751MOL0     H 1359   5.055   5.452   5.898  0.8241  0.5847  0.6075
  751MOL0     H 1360   5.090   5.385   6.056 -0.4561  0.5079  0.0144
  751MOL0     H 1361   4.854   5.309   5.874  2.2697 -2.5747 -1.1526
  751MOL0     H 1362   4.894   5.207   6.007 -2.2070  0.3911  1.2271
  751MOL0     H 1363   4.842   5.508   6.058 -1.1663 -0.0315 -0.6313
  751MOL0     H 1364   4.876   5.380   6.173  0.0317 -0.8219 -0.7432
  751MOL0     H 1365   4.645   5.429   6.159  0.4021  0.7391 -0.2775
  751MOL0     H 1366   4.661   5.261   6.076  0.6655 -0.2852 -2.0955
  751MOL0     H 1367   5.508   4.783   5.519  1.5677 -2.7461  1.3312
  751MOL0     H 1368   5.742   4.756   5.521 -0.6213  0.3795 -0.0800
  751MOL0     H 1369   6.046   4.746   6.015  1.2788  1.1274  1.4437
  751MOL0     H 1370   6.270   4.695   6.091  2.4387 -4.0617 -1.1624
  751MOL0     H 1371   8.221   4.510   6.576  3.5830  1.7342 -1.5541
  751MOL0     H 1372   8.457   4.511   6.496 -0.9111  0.5085 -0.6170
  751MOL0     H 1373   8.932   4.423   6.513 -2.4623 -0.2915  0.0857
  751MOL0     H 1374   9.141   4.435   6.377 -2.2387  2.4716  1.8422
  751MOL0     H 1375   9.230   4.161   6.035 -1.3472 -1.2665 -3.7113
  751MOL0     H 1376   9.118   4.273   5.964  0.6550  0.2641 -0.7166
  751MOL0     H 1377   9.401   4.351   6.035  0.3608 -0.0588 -0.8944
  751MOL0     H 1378   9.291   4.460   5.950 -1.4779 -0.7447 -2.8077
  751MOL0     H 1379   9.457   4.365   5.803  1.4996 -1.3023 -0.8362
  751MOL0     H 1380   9.285   4.313   5.762 -0.5376  1.4881  1.3375
  751MOL0     H 1381   9.361   4.080   5.881 -2.2434  1.9813  0.4470
  751MOL0     H 1382   9.512   4.152   5.907  0.5060  0.3288 -1.3704
  751MOL0     H 1383   9.495   4.073   5.492 -2.0062 -0.7659  0.6469
  751MOL0     H 1384   8.944   4.211   6.078 -3.2685  1.6855 -1.4938
  751MOL0     H 1385   8.738   4.221   6.189 -0.2571  0.5222  0.3292
  752MOL0     O 1386   1.041  10.083   2.281  0.4737  0.0405  0.6509
  752MOL0     C 1387   1.117  10.163   2.335 -0.4833 -0.4278 -0.1030
  752MOL0     O 1388   1.108  10.295   2.332 -0.6691  0.1931  0.3814
  752MOL0     C 1389   0.994  10.346   2.261 -0.7145  0.2817 -0.1050
  752MOL0     C 1390   1.017  10.434   2.150  0.0315 -0.0726 -0.2289
  752MOL0     C 1391   0.904  10.475   2.073  0.0215 -0.3434  0.6214
  752MOL0     C 1392   0.773  10.443   2.121 -0.0884 -0.5530  0.0351
  752MOL0     O 1393   0.674  10.508   2.051  0.0860  0.6273 -0.0188
  752MOL0     C 1394   0.541  10.462   2.063  0.2206  0.3038  0.4383
  752MOL0     C 1395   0.462  10.519   1.951 -0.0723 -0.6458  0.6991
  752MOL0     C 1396   0.433  10.667   1.976  0.1049 -0.3162  0.2179
  752MOL0     C 1397   0.306  10.711   1.895 -0.0716  0.3005  0.1292
  752MOL0     C 1398   0.263  10.860   1.926  0.0522 -0.2792  0.4924
  752MOL0     C 1399   0.130  10.891   1.864  0.7272 -0.1909  0.7611
  752MOL0     C 1400   0.053  11.000   1.941 -0.4574 -0.2505 -0.0542
  752MOL0     C 1401   0.108  11.141   1.916  0.9414 -0.0588 -0.8638
  752MOL0     N 1402   0.061  11.247   2.013 -0.6488 -0.0191 -0.0224
  752MOL0     C 1403  -0.061  11.305   2.008  0.0292  0.0046 -1.3063
  752MOL0     C 1404  -0.060  11.374   2.130  0.1284  1.2127 -0.4021
  752MOL0     C 1405  -0.172  11.460   2.185  0.0912 -0.8682 -0.1715
  752MOL0     C 1406  -0.315  11.397   2.182  0.0817 -0.5568  0.1786
  752MOL0     C 1407  -0.423  11.508   2.180 -0.4478  0.0817  0.0008
  752MOL0     C 1408  -0.565  11.441   2.172  0.5641 -0.1673 -0.1953
  752MOL0     O 1409  -0.665  11.551   2.186 -0.7113 -0.4343 -0.0763
  752MOL0     C 1410  -0.789  11.529   2.134  0.3178  0.2070 -0.6014
  752MOL0     C 1411  -0.860  11.630   2.083 -0.7210  0.3121 -0.2135
  752MOL0     C 1412  -0.998  11.622   2.048 -0.0769 -0.3166 -1.0454
  752MOL0     C 1413  -1.065  11.748   2.000 -1.2207  0.1701 -0.2075
  752MOL0     C 1414  -1.067  11.493   2.058 -0.3756 -0.2642 -0.2060
  752MOL0     C 1415  -1.213  11.475   2.028  0.1826  0.7572  0.6438
  752MOL0     O 1416  -1.293  11.576   1.988  0.2630  0.3453  0.2432
  752MOL0     C 1417  -1.429  11.558   1.982 -0.1121  0.2364 -0.7331
  752MOL0     C 1418  -1.493  11.590   1.865 -0.0288  0.1514 -0.3364
  752MOL0     C 1419  -1.629  11.574   1.845 -0.6154  0.1544 -0.1028
  752MOL0     C 1420  -1.704  11.543   1.958  0.3620 -0.2725 -0.7301
  752MOL0     O 1421  -1.844  11.541   1.968 -1.1119 -0.6374  0.7231
  752MOL0     C 1422  -1.913  11.501   1.849 -0.8828 -0.0362  0.3365
  752MOL0     C 1423  -2.064  11.503   1.854  0.5374  0.5225  1.2188
  752MOL0     C 1424  -2.118  11.401   1.948  0.0669 -0.5489  0.2759
  752MOL0     C 1425  -2.266  11.367   1.929 -0.2187  0.4914 -0.4985
  752MOL0     C 1426  -2.308  11.244   2.023 -1.5110 -0.3970 -0.1954
  752MOL0     C 1427  -2.256  11.112   1.977  0.1652 -0.5457  0.1416
  752MOL0     C 1428  -2.310  10.993   2.050 -0.1454 -0.2926 -0.3147
  752MOL0     C 1429  -2.430  10.938   1.965 -0.7682  0.5590 -0.9165
  752MOL0    Cl 1430  -2.524  10.806   2.040  0.2623 -0.3928  0.1179
  752MOL0     C 1431  -1.647  11.509   2.078  0.1978 -0.3221 -0.5293
  752MOL0     C 1432  -1.506  11.522   2.088  0.1338  0.6833  0.4260
  752MOL0     O 1433  -1.252  11.366   2.068 -0.3756 -0.1050  0.9777
  752MOL0     C 1434  -0.986  11.391   2.106  0.2365  0.1583  0.8769
  752MOL0     C 1435  -0.856  11.405   2.138  0.5853 -0.1311  0.0823
  752MOL0     N 1436   0.045  11.325   2.206 -0.1031  0.2847  0.0166
  752MOL0     N 1437   0.116  11.246   2.136 -0.3086 -0.5391 -0.3610
  752MOL0     C 1438   0.751  10.364   2.237  0.3206 -0.0756 -0.1001
  752MOL0     C 1439   0.860  10.322   2.306 -0.0235 -0.5051 -0.4325
  752MOL0     C 1440   1.230  10.113   2.425  0.1542  0.4831 -0.2867
  752MOL0     C 1441   1.246   9.971   2.447  0.4536  0.2736  0.0613
  752MOL0     C 1442   1.353   9.931   2.522 -0.9164 -0.1607 -0.1691
  752MOL0     C 1443   1.439  10.021   2.593  1.0521  0.1161  0.0818
  752MOL0     O 1444   1.547   9.994   2.675  0.3110 -0.4043  0.1558
  752MOL0     C 1445   1.546   9.855   2.711 -0.5243 -0.0452 -0.9354
  752MOL0     C 1446   1.652   9.815   2.814 -0.4817 -0.1198  0.5363
  752MOL0     C 1447   1.666   9.661   2.831  0.3618 -0.4946 -0.8362
  752MOL0     C 1448   1.790   9.615   2.910  0.2112 -0.3735  0.2738
  752MOL0     C 1449   1.917   9.641   2.833  0.3215 -0.9340 -0.5048
  752MOL0     C 1450   2.020   9.669   2.787 -0.5741 -0.9605  0.4506
  752MOL0     C 1451   1.422  10.154   2.568  0.8373 -0.1639 -0.2046
  752MOL0     C 1452   1.323  10.199   2.478  0.4994 -0.4434  0.1927
  752MOL0     H 1453   1.123  10.449   2.129  0.6183 -1.0984  1.6897
  752MOL0     H 1454   0.916  10.546   1.992  2.7600  3.6581  4.0792
  752MOL0     H 1455   0.542  10.353   2.053  2.2012  0.3010  0.2074
  752MOL0     H 1456   0.506  10.487   2.163 -2.5336 -1.0671 -0.0811
  752MOL0     H 1457   0.507  10.498   1.853  0.6087 -1.3044  1.1436
  752MOL0     H 1458   0.371  10.458   1.952 -0.5180 -0.0699 -1.1945
  752MOL0     H 1459   0.409  10.682   2.082 -1.1176  0.7707 -0.1827
  752MOL0     H 1460   0.520  10.730   1.952 -0.9114  0.4584 -1.6882
  752MOL0     H 1461   0.325  10.694   1.788  3.1974 -0.7807  0.7633
  752MOL0     H 1462   0.213  10.659   1.917 -0.7905  1.9397  1.1127
  752MOL0     H 1463   0.267  10.871   2.034  1.3330  2.0077  0.2820
  752MOL0     H 1464   0.332  10.937   1.892 -0.7977 -0.1029 -0.9317
  752MOL0     H 1465   0.132  10.915   1.757 -2.1818  0.5798  0.7973
  752MOL0     H 1466   0.058  10.809   1.870  0.2880  0.0835 -0.4483
  752MOL0     H 1467  -0.052  10.996   1.907 -0.9958  1.3425  1.2771
  752MOL0     H 1468   0.051  10.977   2.048 -1.7994 -1.2513 -0.2640
  752MOL0     H 1469   0.073  11.170   1.816 -0.7586 -0.4151 -0.4104
  752MOL0     H 1470   0.216  11.150   1.923  0.7411  3.4678 -0.1942
  752MOL0     H 1471  -0.141  11.303   1.935 -2.6851  0.7144  1.4588
  752MOL0     H 1472  -0.149  11.468   2.292  2.8444  1.5860 -0.8071
  752MOL0     H 1473  -0.163  11.559   2.139  0.4956 -0.6267  0.4070
  752MOL0     H 1474  -0.321  11.334   2.272 -1.9509 -0.1536  0.3839
  752MOL0     H 1475  -0.320  11.328   2.098  0.1551  1.0316 -1.1843
  752MOL0     H 1476  -0.400  11.577   2.098  1.4045  1.1646  1.3310
  752MOL0     H 1477  -0.414  11.559   2.277  0.1740 -1.5657  0.8494
  752MOL0     H 1478  -0.577  11.372   2.257 -0.2471  1.4643  1.0834
  752MOL0     H 1479  -0.579  11.385   2.079 -0.5864 -1.3341  0.6380
  752MOL0     H 1480  -0.807  11.723   2.063  0.2566 -0.3397 -0.7965
  752MOL0     H 1481  -1.140  11.734   1.922 -3.4300  2.6040  1.3105
  752MOL0     H 1482  -1.113  11.788   2.090  1.3086 -0.7391  1.6706
  752MOL0     H 1483  -0.991  11.818   1.961 -1.2668  0.4728  0.2371
  752MOL0     H 1484  -1.434  11.617   1.778 -0.5497  1.9498 -0.1683
  752MOL0     H 1485  -1.675  11.595   1.749  0.5705  2.4405 -0.2507
  752MOL0     H 1486  -1.882  11.566   1.767  1.5768  0.8884  1.9003
  752MOL0     H 1487  -1.869  11.404   1.825 -1.0815 -0.3173  1.0775
  752MOL0     H 1488  -2.103  11.603   1.879 -0.9899 -0.0140  1.1284
  752MOL0     H 1489  -2.103  11.480   1.754 -0.2936  2.0608  1.1556
  752MOL0     H 1490  -2.102  11.430   2.053 -0.2035 -0.8861  0.4102
  752MOL0     H 1491  -2.052  11.319   1.921 -0.2017 -0.2439 -1.4315
  752MOL0     H 1492  -2.333  11.451   1.947 -2.7832 -1.6833  0.9254
  752MOL0     H 1493  -2.287  11.335   1.826  0.4236 -1.4365 -0.0751
  752MOL0     H 1494  -2.417  11.251   2.024 -1.4778  0.5828  1.6756
  752MOL0     H 1495  -2.276  11.250   2.128  1.9708  1.3356 -1.2000
  752MOL0     H 1496  -2.269  11.099   1.869  2.6298 -2.4831 -0.0294
  752MOL0     H 1497  -2.147  11.109   1.986  0.0611  0.6184  2.4029
  752MOL0     H 1498  -2.343  11.024   2.149 -1.6726 -0.6387 -0.6905
  752MOL0     H 1499  -2.236  10.914   2.057 -0.3156 -0.5251 -0.9977
  752MOL0     H 1500  -2.384  10.894   1.876  1.3976 -0.8332  0.7535
  752MOL0     H 1501  -2.494  11.021   1.936 -0.6133  0.5149 -1.3844
  752MOL0     H 1502  -1.705  11.472   2.162  1.3922  2.9811  1.9693
  752MOL0     H 1503  -1.455  11.499   2.182  1.2456  1.9116  0.1485
  752MOL0     H 1504  -1.032  11.294   2.122 -1.4774  0.8590  0.4725
  752MOL0     H 1505  -0.796  11.327   2.183 -0.4310  0.1353  2.0356
  752MOL0     H 1506   0.655  10.342   2.281 -0.2880  1.4911 -0.5881
  752MOL0     H 1507   0.832  10.247   2.378 -0.8632  0.2220  0.0178
  752MOL0     H 1508   1.187   9.891   2.405 -2.0434 -0.5347  4.5038
  752MOL0     H 1509   1.371   9.824   2.530 -0.0427  0.1063  2.4760
  752MOL0     H 1510   1.451   9.843   2.764 -0.0882  1.0375  0.1511
  752MOL0     H 1511   1.555   9.791   2.623  1.6839 -0.7644 -0.2483
  752MOL0     H 1512   1.628   9.857   2.912  3.4751  0.3068  1.4892
  752MOL0     H 1513   1.744   9.856   2.771 -0.5089 -3.1974 -2.9854
  752MOL0     H 1514   1.686   9.613   2.735  3.6801  0.7774 -0.9175
  752MOL0     H 1515   1.578   9.609   2.869  1.3851 -1.6868  0.0103
  752MOL0     H 1516   1.790   9.509   2.939  0.2162 -0.8374 -1.2894
  752MOL0     H 1517   1.789   9.684   2.995  0.8499 -1.0191  0.8217
  752MOL0     H 1518   2.112   9.708   2.748 -1.5493  0.3976 -0.6137
  752MOL0     H 1519   1.479  10.228   2.623  0.0187 -1.2205  2.1654
  752MOL0     H 1520   1.312  10.304   2.451 -0.3535 -0.4158  0.6183
  753MOL0     O 1521   9.743  10.711   3.515  0.5966 -0.2305 -0.5148
  753MOL0     C 1522   9.811  10.682   3.416  0.4491 -0.5621  0.0831
  753MOL0     O 1523   9.762  10.637   3.293  0.2989 -0.0204 -0.0141
  753MOL0     C 1524   9.623  10.634   3.268 -0.3162 -0.5829 -0.3199
  753MOL0     C 1525   9.567  10.732   3.189 -0.8628  0.4636 -0.1909
  753MOL0     C 1526   9.426  10.737   3.173  0.2023 -0.1410 -0.4125
  753MOL0     C 1527   9.343  10.650   3.241  0.4488 -0.6510  0.0188
  753MOL0     O 1528   9.215  10.669   3.212  0.1497  0.3931  0.1106
  753MOL0     C 1529   9.120  10.587   3.283 -0.4166  0.5863 -0.2013
  753MOL0     C 1530   8.983  10.642   3.274 -0.1764  0.9492 -0.2221
  753MOL0     C 1531   8.877  10.540   3.311  0.2320  0.9395  0.0824
  753MOL0     C 1532   8.744  10.608   3.293 -0.0756 -0.2759 -0.8738
  753MOL0     C 1533   8.639  10.514   3.355 -0.3270 -0.2279  0.1850
  753MOL0     C 1534   8.493  10.558   3.326  1.0692  0.4634 -0.2310
  753MOL0     C 1535   8.380  10.461   3.373  0.1031  0.3051  0.1012
  753MOL0     C 1536   8.254  10.460   3.296 -0.0854 -0.5785  0.4694
  753MOL0     N 1537   8.178  10.587   3.317  0.1275  0.4254  0.3232
  753MOL0     C 1538   8.080  10.607   3.412 -0.7349 -0.7399 -0.3400
  753MOL0     C 1539   8.013  10.725   3.377 -0.3946 -0.7469  0.3489
  753MOL0     C 1540   7.908  10.777   3.464  0.4347 -0.1827 -0.7598
  753MOL0     C 1541   7.860  10.918   3.416 -0.0766  0.0836 -0.5494
  753MOL0     C 1542   7.787  10.983   3.532  1.0313  0.8253  0.4670
  753MOL0     C 1543   7.697  11.104   3.489 -0.8571  1.3946 -0.4706
  753MOL0     O 1544   7.611  11.083   3.376 -0.3615  0.1157 -0.4772
  753MOL0     C 1545   7.488  11.019   3.392 -1.4456 -0.6866  0.9983
  753MOL0     C 1546   7.406  10.998   3.283 -1.2816 -0.0276  0.0902
  753MOL0     C 1547   7.280  10.944   3.289 -0.5311 -0.1790  0.5078
  753MOL0     C 1548   7.213  10.919   3.163  0.3872 -0.2937  0.7180
  753MOL0     C 1549   7.212  10.921   3.416  0.2811  0.4222  0.4047
  753MOL0     C 1550   7.073  10.859   3.428 -0.3530  0.6531 -1.0018
  753MOL0     O 1551   7.034  10.747   3.360 -0.8246  0.2197 -0.6894
  753MOL0     C 1552   6.908  10.698   3.377  0.2631  0.1969 -0.3822
  753MOL0     C 1553   6.803  10.752   3.297 -0.7336 -1.1897 -0.3875
  753MOL0     C 1554   6.681  10.693   3.296 -0.4338 -0.2882 -0.4410
  753MOL0     C 1555   6.659  10.570   3.368 -0.3122 -0.7590  0.3165
  753MOL0     O 1556   6.545  10.504   3.384  0.0893 -0.0268 -0.0639
  753MOL0     C 1557   6.432  10.533   3.293  0.6480 -0.6600 -0.1405
  753MOL0     C 1558   6.309  10.465   3.353  0.7549  0.2192  0.2873
  753MOL0     C 1559   6.181  10.506   3.291 -1.2546 -0.6711 -0.3179
  753MOL0     C 1560   6.064  10.448   3.360  0.4573 -0.4552 -0.6818
  753MOL0     C 1561   5.921  10.484   3.304 -0.1409  0.2070  0.0337
  753MOL0     C 1562   5.805  10.405   3.382  0.3700  0.2620  0.3639
  753MOL0     C 1563   5.802  10.256   3.357  0.3845  0.4081  1.3746
  753MOL0     C 1564   5.688  10.180   3.433 -0.3615 -0.4031 -0.2681
  753MOL0    Cl 1565   5.530  10.246   3.394 -0.0235  0.3632 -0.3471
  753MOL0     C 1566   6.762  10.522   3.446  0.1510  0.6033  0.4550
  753MOL0     C 1567   6.888  10.581   3.444  0.9242 -0.0285  0.6660
  753MOL0     O 1568   7.007  10.919   3.514  0.5083 -0.1829 -0.2993
  753MOL0     C 1569   7.295  10.950   3.530  0.0313  0.7511  0.0966
  753MOL0     C 1570   7.429  10.991   3.507 -0.7976  0.3148 -0.1959
  753MOL0     N 1571   8.075  10.778   3.271 -0.1533  0.6971  0.8912
  753MOL0     N 1572   8.171  10.689   3.226 -0.0881 -0.4605 -0.3196
  753MOL0     C 1573   9.405  10.551   3.309  0.0250  0.7192 -0.5215
  753MOL0     C 1574   9.542  10.543   3.321  0.1670  0.3021  0.6579
  753MOL0     C 1575   9.962  10.665   3.440  0.2173  0.4512 -0.2221
  753MOL0     C 1576  10.010  10.693   3.567 -0.1166 -0.2136  0.2205
  753MOL0     C 1577  10.145  10.690   3.595 -0.2186  0.2091 -0.2191
  753MOL0     C 1578  10.236  10.661   3.496  0.5629 -0.6145 -0.0883
  753MOL0     O 1579  10.364  10.660   3.548  0.7585  0.6903  0.4313
  753MOL0     C 1580  10.465  10.611   3.469  0.1536 -0.1998  0.4119
  753MOL0     C 1581  10.587  10.559   3.557 -0.5667 -0.4763 -0.0060
  753MOL0     C 1582  10.666  10.652   3.639  0.4975  1.0750 -0.4143
  753MOL0     C 1583  10.725  10.760   3.554  0.3297 -0.0214 -0.7066
  753MOL0     C 1584  10.786  10.865   3.621  0.1508 -0.0542  0.3293
  753MOL0     C 1585  10.827  10.963   3.671 -0.5788 -0.5243 -0.6953
  753MOL0     C 1586  10.190  10.624   3.371  0.5477  0.6388  0.4889
  753MOL0     C 1587  10.055  10.628   3.337  1.9665  0.4286  0.3343
  753MOL0     H 1588   9.630  10.810   3.148  1.5148 -2.8987 -3.6402
  753MOL0     H 1589   9.391  10.827   3.123 -1.3670  0.7231  2.0286
  753MOL0     H 1590   9.123  10.481   3.254  1.0784 -0.4087  3.1287
  753MOL0     H 1591   9.151  10.599   3.387  5.4428  1.9676 -1.7155
  753MOL0     H 1592   8.984  10.731   3.337  1.4514  0.2033  0.8738
  753MOL0     H 1593   8.971  10.660   3.167  1.6021 -0.1408 -0.6521
  753MOL0     H 1594   8.878  10.464   3.232  1.2364  0.9244  0.0945
  753MOL0     H 1595   8.899  10.510   3.414 -0.8739  1.6108  0.5190
  753MOL0     H 1596   8.743  10.704   3.345  0.8545 -2.6386  4.1381
  753MOL0     H 1597   8.726  10.633   3.188  2.5489  0.2413 -1.2806
  753MOL0     H 1598   8.658  10.415   3.314  0.3542  0.9473 -2.5592
  753MOL0     H 1599   8.663  10.509   3.462  2.0107 -0.9692 -0.3111
  753MOL0     H 1600   8.467  10.653   3.375 -2.1430 -0.2316 -0.3821
  753MOL0     H 1601   8.481  10.570   3.218  2.0680  0.4523 -0.3449
  753MOL0     H 1602   8.414  10.357   3.369  1.3699  0.7293 -1.9784
  753MOL0     H 1603   8.360  10.478   3.479 -0.1473  0.2624  0.0620
  753MOL0     H 1604   8.193  10.372   3.317  0.5665 -0.6158  2.3782
  753MOL0     H 1605   8.266  10.453   3.187 -0.9264  2.9770  0.0219
  753MOL0     H 1606   8.038  10.543   3.489 -0.3425 -2.0163 -1.1562
  753MOL0     H 1607   7.822  10.710   3.456  0.8495 -0.6974 -0.9609
  753MOL0     H 1608   7.931  10.775   3.571 -1.2837 -0.3983 -0.3574
  753MOL0     H 1609   7.801  10.917   3.323 -0.4999  1.5117 -0.3210
  753MOL0     H 1610   7.937  10.985   3.378 -3.1442  3.2327 -1.7239
  753MOL0     H 1611   7.862  11.017   3.604  1.8777 -1.0062  0.4970
  753MOL0     H 1612   7.721  10.908   3.577  1.0311  0.5866  0.0780
  753MOL0     H 1613   7.760  11.186   3.454 -0.0268  0.2224 -1.8564
  753MOL0     H 1614   7.638  11.145   3.572 -0.6827  3.2748 -1.2148
  753MOL0     H 1615   7.446  11.027   3.186  1.6303 -1.1079  0.8541
  753MOL0     H 1616   7.256  10.968   3.075 -1.9916 -2.5013 -1.8767
  753MOL0     H 1617   7.222  10.812   3.142  0.7554 -0.1768  0.2710
  753MOL0     H 1618   7.109  10.953   3.166  0.1067 -1.1649  1.0338
  753MOL0     H 1619   6.798  10.832   3.225 -1.1530  0.8588  1.8007
  753MOL0     H 1620   6.598  10.747   3.251 -0.6965  0.4330  0.8779
  753MOL0     H 1621   6.397  10.637   3.288  2.7488  0.1346  0.8313
  753MOL0     H 1622   6.471  10.494   3.199  0.8874  1.6129 -1.0300
  753MOL0     H 1623   6.326  10.359   3.333  2.2672  0.6427 -0.9172
  753MOL0     H 1624   6.303  10.471   3.462 -0.0393 -1.8797  0.3957
  753MOL0     H 1625   6.187  10.460   3.192  1.1454 -1.7700  0.2616
  753MOL0     H 1626   6.166  10.615   3.296  0.2495 -0.4673  0.1955
  753MOL0     H 1627   6.077  10.339   3.360 -1.2325 -0.6953 -0.6511
  753MOL0     H 1628   6.062  10.481   3.464  0.3487  1.7224 -1.3285
  753MOL0     H 1629   5.921  10.449   3.200  1.9884  1.8743 -0.5921
  753MOL0     H 1630   5.916  10.593   3.306 -1.4291  0.1706 -0.4002
  753MOL0     H 1631   5.811  10.421   3.490 -1.5286  0.6401  0.4436
  753MOL0     H 1632   5.712  10.446   3.341 -0.3563 -1.9214 -0.3261
  753MOL0     H 1633   5.896  10.216   3.397  0.8864  1.0305  0.8416
  753MOL0     H 1634   5.804  10.229   3.251 -1.4339 -0.1624  1.4637
  753MOL0     H 1635   5.711  10.193   3.539  1.9109  3.3759 -1.0530
  753MOL0     H 1636   5.693  10.075   3.403  0.7949  0.3295 -2.8608
  753MOL0     H 1637   6.751  10.431   3.502  0.7494  1.6042  2.2882
  753MOL0     H 1638   6.967  10.528   3.497  0.5908 -0.1999  0.9919
  753MOL0     H 1639   7.255  10.933   3.629 -2.6232  2.9799 -0.4584
  753MOL0     H 1640   7.504  10.990   3.585  0.7180  0.9461 -1.5986
  753MOL0     H 1641   9.348  10.482   3.370  0.5194  1.0483  0.3350
  753MOL0     H 1642   9.593  10.468   3.380 -0.8458 -0.0451  1.1150
  753MOL0     H 1643   9.939  10.706   3.647  0.8317  1.2547  0.8717
  753MOL0     H 1644  10.173  10.699   3.699 -1.9777  3.2189  0.0775
  753MOL0     H 1645  10.417  10.528   3.416 -0.3745  0.4779 -0.1965
  753MOL0     H 1646  10.488  10.683   3.390 -0.0292 -2.3952 -1.7761
  753MOL0     H 1647  10.652  10.495   3.495 -1.2834  1.3366 -2.8258
  753MOL0     H 1648  10.545  10.494   3.634 -0.7551 -1.1501 -0.6557
  753MOL0     H 1649  10.736  10.584   3.690  1.2341  0.7767 -1.7938
  753MOL0     H 1650  10.616  10.704   3.722 -1.2918 -0.8686 -0.1906
  753MOL0     H 1651  10.642  10.800   3.496 -1.5158 -1.0740  1.0460
  753MOL0     H 1652  10.795  10.727   3.478  1.7228  1.5415 -0.1816
  753MOL0     H 1653  10.866  11.054   3.712 -2.6072  1.6915 -3.2654
  753MOL0     H 1654  10.248  10.585   3.288 -0.9309 -1.7090  0.4379
  753MOL0     H 1655  10.010  10.613   3.240  0.3270  1.1600  0.9434
  754MOL0     O 1656   9.100   6.700   1.086  0.7397  0.3865 -0.1244
  754MOL0     C 1657   9.143   6.733   0.976  0.5007 -0.1297 -0.5538
  754MOL0     O 1658   9.165   6.861   0.943  0.4291 -0.7950 -0.3103
  754MOL0     C 1659   9.116   6.957   1.039 -0.6083  0.3648  0.2059
  754MOL0     C 1660   9.203   7.036   1.113 -0.5031  0.3198 -0.0851
  754MOL0     C 1661   9.160   7.130   1.206  0.3159 -0.6634 -0.0849
  754MOL0     C 1662   9.029   7.156   1.227  0.6059 -0.2312  0.4484
  754MOL0     O 1663   8.986   7.245   1.317  1.2424  0.3276  0.0343
  754MOL0     C 1664   8.876   7.322   1.275 -0.0513  0.1081  0.0986
  754MOL0     C 1665   8.746   7.295   1.353 -0.8518 -0.4725  0.2820
  754MOL0     C 1666   8.638   7.399   1.326 -0.7562 -0.0582  0.0217
  754MOL0     C 1667   8.586   7.377   1.187  0.6204 -0.6668 -0.9910
  754MOL0     C 1668   8.479   7.490   1.160  0.3323 -0.7230  0.9051
  754MOL0     C 1669   8.412   7.486   1.016  0.0122 -0.3905 -0.6246
  754MOL0     C 1670   8.359   7.347   0.980 -0.5075 -0.4754 -0.5731
  754MOL0     C 1671   8.286   7.357   0.846 -0.4440  0.0823  0.0227
  754MOL0     N 1672   8.236   7.229   0.800 -1.0880 -0.0150  0.8318
  754MOL0     C 1673   8.140   7.150   0.853 -0.3013 -0.2346  0.3057
  754MOL0     C 1674   8.137   7.039   0.776  0.4680 -1.2151 -0.1121
  754MOL0     C 1675   8.055   6.907   0.793 -1.4180 -0.7651 -0.0035
  754MOL0     C 1676   7.915   6.944   0.805  0.3883 -0.6276 -0.4005
  754MOL0     C 1677   7.820   6.833   0.782  0.2917 -0.5264  0.5391
  754MOL0     C 1678   7.674   6.844   0.819  0.2356 -0.2477  0.0030
  754MOL0     O 1679   7.624   6.955   0.744  0.2748  0.4354  0.3404
  754MOL0     C 1680   7.491   6.990   0.755 -0.7646 -0.4175 -0.9007
  754MOL0     C 1681   7.391   6.918   0.813 -0.1838 -0.4966 -0.8223
  754MOL0     C 1682   7.257   6.966   0.823 -0.7374 -0.3334  1.0759
  754MOL0     C 1683   7.164   6.882   0.903 -0.0383 -0.2354 -0.2068
  754MOL0     C 1684   7.223   7.098   0.773  0.3988 -0.7352 -0.4393
  754MOL0     C 1685   7.085   7.142   0.788 -0.5321 -0.9410  0.0095
  754MOL0     O 1686   7.004   7.094   0.884  0.2880  0.4245 -0.0853
  754MOL0     C 1687   6.873   7.128   0.904  0.1554 -0.4316  0.2556
  754MOL0     C 1688   6.764   7.035   0.877 -0.6596 -0.2554 -0.5848
  754MOL0     C 1689   6.630   7.062   0.906 -0.7358 -0.0363 -0.9976
  754MOL0     C 1690   6.596   7.184   0.965 -0.2579  0.0741  0.5034
  754MOL0     O 1691   6.462   7.192   0.983 -0.5481 -0.4373  0.2933
  754MOL0     C 1692   6.417   7.329   0.993 -0.5092 -0.6856 -0.0484
  754MOL0     C 1693   6.270   7.346   0.991  0.2845 -0.4125 -0.0046
  754MOL0     C 1694   6.214   7.333   0.852 -0.0444  0.0827 -0.6698
  754MOL0     C 1695   6.067   7.368   0.847  0.0568  0.5032 -0.8132
  754MOL0     C 1696   6.019   7.371   0.709  0.6154 -0.9544 -0.0255
  754MOL0     C 1697   5.868   7.386   0.699 -0.6188  0.0458 -0.1790
  754MOL0     C 1698   5.815   7.503   0.776 -0.2015 -0.2415  0.0632
  754MOL0     C 1699   5.662   7.485   0.770 -0.1781 -0.6286  0.1440
  754MOL0    Cl 1700   5.610   7.339   0.863 -0.1737 -0.5002 -0.1303
  754MOL0     C 1701   6.699   7.284   0.979 -0.0120 -0.0168 -0.0381
  754MOL0     C 1702   6.833   7.254   0.952  0.2037  0.1086  0.7593
  754MOL0     O 1703   7.045   7.223   0.703 -0.0504 -0.9414 -0.1016
  754MOL0     C 1704   7.325   7.167   0.700  0.4380 -0.0102  0.6634
  754MOL0     C 1705   7.460   7.111   0.696 -0.2084 -0.3407  0.4251
  754MOL0     N 1706   8.237   7.055   0.676 -0.9251 -0.1588  0.4000
  754MOL0     N 1707   8.295   7.167   0.692  0.2451 -0.0649  0.3659
  754MOL0     C 1708   8.936   7.064   1.166  0.0478  0.5597 -0.1302
  754MOL0     C 1709   8.980   6.977   1.063  0.1523  0.1618 -0.3495
  754MOL0     C 1710   9.189   6.627   0.880 -0.0851  0.9250  0.4246
  754MOL0     C 1711   9.182   6.487   0.914 -0.1777 -0.7181  0.3964
  754MOL0     C 1712   9.241   6.397   0.818  0.3709 -0.0952  0.2427
  754MOL0     C 1713   9.308   6.443   0.710  0.0162 -0.4383  0.1593
  754MOL0     O 1714   9.366   6.338   0.637  0.2893 -0.3157 -0.6811
  754MOL0     C 1715   9.453   6.366   0.522  0.6088  0.3773 -0.0823
  754MOL0     C 1716   9.589   6.432   0.575  0.4802 -0.2068  0.2571
  754MOL0     C 1717   9.701   6.338   0.629  0.6231  0.5805 -0.2313
  754MOL0     C 1718   9.664   6.281   0.766 -0.2976 -0.3202 -0.5175
  754MOL0     C 1719   9.773   6.219   0.837 -0.0546  0.4279  0.1116
  754MOL0     C 1720   9.869   6.186   0.907 -0.2574  0.1380 -0.2245
  754MOL0     C 1721   9.311   6.579   0.677 -0.6086  0.9862 -0.5648
  754MOL0     C 1722   9.245   6.669   0.761 -0.1390 -1.0379  0.8405
  754MOL0     H 1723   9.310   7.020   1.103 -0.6472 -1.2606  0.7370
  754MOL0     H 1724   9.231   7.186   1.265 -1.1395  1.9382 -0.6527
  754MOL0     H 1725   8.904   7.428   1.279 -3.1932  1.3149 -3.7289
  754MOL0     H 1726   8.859   7.303   1.169  0.0903  1.5306 -0.1965
  754MOL0     H 1727   8.703   7.202   1.315 -1.3947  1.1091 -3.4285
  754MOL0     H 1728   8.774   7.290   1.459  1.0904  0.5208 -0.1316
  754MOL0     H 1729   8.554   7.383   1.395 -0.1488 -0.4538  0.6803
  754MOL0     H 1730   8.659   7.502   1.355 -0.1552 -0.2476  0.2673
  754MOL0     H 1731   8.662   7.384   1.109  1.0035 -3.8157 -1.0368
  754MOL0     H 1732   8.539   7.279   1.197 -1.7815  0.6236  2.2388
  754MOL0     H 1733   8.405   7.498   1.240  1.4552 -1.9454  2.1135
  754MOL0     H 1734   8.535   7.584   1.166 -0.6602  0.0167 -0.6860
  754MOL0     H 1735   8.325   7.551   1.020  0.9020  0.8113 -0.3597
  754MOL0     H 1736   8.479   7.521   0.936  0.1437  3.9791  1.1645
  754MOL0     H 1737   8.445   7.279   0.973  1.7959  2.0626  1.0693
  754MOL0     H 1738   8.298   7.308   1.062 -0.2442 -1.1540 -0.6949
  754MOL0     H 1739   8.348   7.393   0.763  1.2144  0.1280  1.2260
  754MOL0     H 1740   8.211   7.435   0.856  2.5062  3.2106 -0.5059
  754MOL0     H 1741   8.071   7.172   0.934 -3.0970  1.2893 -2.2835
  754MOL0     H 1742   8.072   6.838   0.710  3.8120 -0.9897  0.9121
  754MOL0     H 1743   8.082   6.861   0.888 -0.7820 -0.4142 -0.0049
  754MOL0     H 1744   7.904   7.027   0.735  0.1726 -0.3925 -0.0873
  754MOL0     H 1745   7.902   6.987   0.904  2.7036  2.1041 -1.1495
  754MOL0     H 1746   7.866   6.749   0.833  0.2838 -1.5303 -1.0280
  754MOL0     H 1747   7.810   6.808   0.675  0.2127 -0.2199  0.4729
  754MOL0     H 1748   7.650   6.848   0.925 -1.2293 -2.0836 -0.2248
  754MOL0     H 1749   7.614   6.761   0.781 -2.5139  1.6161 -0.0393
  754MOL0     H 1750   7.422   6.819   0.847  2.7266  0.6108  0.0532
  754MOL0     H 1751   7.072   6.852   0.854  1.3147  0.7893 -3.6700
  754MOL0     H 1752   7.235   6.806   0.936  2.2424  1.3598 -1.1511
  754MOL0     H 1753   7.144   6.939   0.994 -1.7973 -1.9560  0.5496
  754MOL0     H 1754   6.801   6.938   0.845  1.2735 -0.0284  0.8031
  754MOL0     H 1755   6.553   6.987   0.889  0.7215 -1.5751 -1.0356
  754MOL0     H 1756   6.455   7.358   1.092  3.0621  0.9105 -1.7378
  754MOL0     H 1757   6.467   7.388   0.916 -1.9032 -0.3850 -0.7484
  754MOL0     H 1758   6.226   7.258   1.039 -0.5084 -1.5936 -2.6817
  754MOL0     H 1759   6.251   7.446   1.029  1.1215 -1.1489  2.5381
  754MOL0     H 1760   6.228   7.230   0.817  2.7580  0.4346 -0.8408
  754MOL0     H 1761   6.273   7.395   0.783  1.4017 -2.5825 -2.0150
  754MOL0     H 1762   6.010   7.305   0.915  0.1377  0.0008 -1.2028
  754MOL0     H 1763   6.052   7.471   0.880  0.2033 -0.0182  0.9633
  754MOL0     H 1764   6.056   7.282   0.658  0.6276 -0.0094 -1.7338
  754MOL0     H 1765   6.062   7.453   0.651 -1.2487  0.0913 -0.0165
  754MOL0     H 1766   5.839   7.410   0.596 -2.6931 -1.3284  0.0405
  754MOL0     H 1767   5.835   7.288   0.734  1.0853  0.4674  3.0065
  754MOL0     H 1768   5.846   7.598   0.731  0.4568  1.6734  4.1005
  754MOL0     H 1769   5.845   7.517   0.880  1.6084 -1.7147 -0.1984
  754MOL0     H 1770   5.629   7.475   0.666 -0.8371  0.3983  0.2448
  754MOL0     H 1771   5.621   7.581   0.802  2.4252  1.3582 -1.9552
  754MOL0     H 1772   6.681   7.389   0.997  0.9313  0.5289 -2.0014
  754MOL0     H 1773   6.903   7.336   0.967 -0.3787  0.6415  0.6290
  754MOL0     H 1774   7.301   7.260   0.649 -0.0497 -0.1844  0.5608
  754MOL0     H 1775   7.544   7.165   0.653 -0.8330 -0.1680 -0.6342
  754MOL0     H 1776   8.828   7.071   1.181 -0.2168 -3.8257  1.6299
  754MOL0     H 1777   8.911   6.925   0.997  0.9363  0.4753 -1.4436
  754MOL0     H 1778   9.134   6.445   1.001 -1.1232 -0.3599  0.0587
  754MOL0     H 1779   9.239   6.289   0.823  0.9709 -0.1204 -0.0071
  754MOL0     H 1780   9.471   6.269   0.474 -2.2485  0.9015 -2.5396
  754MOL0     H 1781   9.406   6.435   0.451 -0.0607 -2.4567 -2.6366
  754MOL0     H 1782   9.566   6.510   0.649  2.3045 -0.1458  0.8131
  754MOL0     H 1783   9.624   6.489   0.488  0.2270 -1.7436 -0.8748
  754MOL0     H 1784   9.796   6.394   0.624  1.6581 -1.1228 -0.3180
  754MOL0     H 1785   9.709   6.251   0.563 -1.6003 -0.9628  1.3863
  754MOL0     H 1786   9.586   6.206   0.752  1.2359 -1.9494 -0.7634
  754MOL0     H 1787   9.630   6.357   0.837  0.7074  2.3499 -2.7026
  754MOL0     H 1788   9.942   6.159   0.980  0.6511 -0.5159 -1.3354
  754MOL0     H 1789   9.355   6.606   0.581  0.3561 -0.8608 -0.6848
  754MOL0     H 1790   9.242   6.772   0.729 -2.2171 -1.4534 -0.4591
  755MOL0     O 1791   5.819   7.748   3.362  0.1116 -0.1902 -0.8876
  755MOL0     C 1792   5.929   7.747   3.420  0.0613 -0.1575 -0.2174
  755MOL0     O 1793   5.983   7.837   3.514 -0.5530 -0.2587 -0.4220
  755MOL0     C 1794   5.910   7.937   3.579 -0.3541 -0.1206 -0.0278
  755MOL0     C 1795   5.986   8.020   3.663  0.2619  0.1959  0.4614
  755MOL0     C 1796   5.939   8.113   3.748 -0.4735  0.2412 -0.3956
  755MOL0     C 1797   5.798   8.130   3.751 -0.1478 -0.1635 -0.1831
  755MOL0     O 1798   5.739   8.215   3.835  0.5562  0.3856  0.1098
  755MOL0     C 1799   5.811   8.278   3.941 -0.5685 -0.3610 -0.1895
  755MOL0     C 1800   5.727   8.381   4.024 -0.7294 -1.0357  0.2024
  755MOL0     C 1801   5.741   8.534   3.992 -0.4331 -0.4780  0.2429
  755MOL0     C 1802   5.665   8.573   3.859  0.4261  0.0587  0.0654
  755MOL0     C 1803   5.662   8.720   3.836  0.5220  0.2345  0.0253
  755MOL0     C 1804   5.814   8.780   3.830 -0.6577  0.5304  0.0435
  755MOL0     C 1805   5.812   8.931   3.821  0.6546 -1.1225 -0.3499
  755MOL0     C 1806   5.758   8.984   3.684 -0.5507  0.0808 -0.1934
  755MOL0     N 1807   5.752   9.128   3.690 -0.1359 -0.0934 -0.1942
  755MOL0     C 1808   5.654   9.197   3.751  0.4017 -0.3515 -0.0470
  755MOL0     C 1809   5.698   9.329   3.745  0.3881 -1.1677  0.5368
  755MOL0     C 1810   5.635   9.456   3.799 -0.0518  0.3326  0.0825
  755MOL0     C 1811   5.526   9.510   3.710  0.1423 -0.2329 -0.3864
  755MOL0     C 1812   5.461   9.643   3.737  0.4841  0.4178  0.4441
  755MOL0     C 1813   5.307   9.641   3.752  0.4114  0.6432  0.3009
  755MOL0     O 1814   5.264   9.776   3.750 -0.0093  1.3867  1.2956
  755MOL0     C 1815   5.133   9.804   3.752  0.8962 -0.6899 -1.0238
  755MOL0     C 1816   5.096   9.923   3.697 -0.3293  0.2890 -0.7850
  755MOL0     C 1817   4.966   9.966   3.706 -0.5418  0.4623 -0.0151
  755MOL0     C 1818   4.939  10.105   3.645 -0.8597 -0.2174  0.4110
  755MOL0     C 1819   4.865   9.898   3.779 -0.2953 -0.1673 -0.5903
  755MOL0     C 1820   4.725   9.946   3.815 -0.2352 -0.4149 -0.3837
  755MOL0     O 1821   4.663   9.879   3.919 -0.0123 -0.3575  0.8626
  755MOL0     C 1822   4.530   9.909   3.943  0.4777  0.8383 -0.0788
  755MOL0     C 1823   4.498  10.003   4.035  0.1018 -0.2693 -0.2396
  755MOL0     C 1824   4.371  10.036   4.076 -0.3640  0.3085  0.7062
  755MOL0     C 1825   4.260   9.965   4.023 -0.0560 -0.0111  0.3993
  755MOL0     O 1826   4.129   9.990   4.043 -0.5126  0.2428  0.2760
  755MOL0     C 1827   4.078  10.072   4.143  0.4834 -0.3694 -0.4671
  755MOL0     C 1828   4.020   9.984   4.260  0.7792 -0.1142  0.3298
  755MOL0     C 1829   3.899   9.899   4.220  0.0157 -0.6020 -0.3340
  755MOL0     C 1830   3.935   9.743   4.207 -0.4566 -0.6806  0.3065
  755MOL0     C 1831   3.814   9.674   4.128 -0.7899  0.9182  0.3331
  755MOL0     C 1832   3.677   9.673   4.197 -0.0581 -0.2895  0.1059
  755MOL0     C 1833   3.560   9.598   4.122 -0.5552  0.2611  0.4216
  755MOL0     C 1834   3.580   9.449   4.112 -0.4627  0.4320  0.0547
  755MOL0    Cl 1835   3.429   9.392   4.032  0.5089  0.4545 -0.4139
  755MOL0     C 1836   4.286   9.871   3.930 -0.7529 -0.0591  0.7688
  755MOL0     C 1837   4.421   9.839   3.889  0.2192 -0.6470 -0.2964
  755MOL0     O 1838   4.670  10.034   3.749 -0.9330 -0.7107 -0.4082
  755MOL0     C 1839   4.906   9.780   3.842 -0.3232  0.0927 -0.7689
  755MOL0     C 1840   5.038   9.733   3.827  0.1524  0.8144 -0.0471
  755MOL0     N 1841   5.826   9.334   3.680 -0.5030 -0.6063 -0.3168
  755MOL0     N 1842   5.856   9.212   3.650  0.4357  0.5613  0.2090
  755MOL0     C 1843   5.713   8.062   3.670  0.6598 -0.6684  0.1692
  755MOL0     C 1844   5.773   7.964   3.582  0.6017 -0.7741 -0.1578
  755MOL0     C 1845   6.022   7.646   3.370  0.1245  0.2052 -0.4454
  755MOL0     C 1846   6.151   7.642   3.423  0.0757  0.9445  0.0824
  755MOL0     C 1847   6.236   7.531   3.393 -0.2282 -0.8366 -0.4753
  755MOL0     C 1848   6.200   7.434   3.300  0.1561  0.2559  0.1402
  755MOL0     O 1849   6.287   7.342   3.260 -0.0332 -0.2662 -0.4898
  755MOL0     C 1850   6.318   7.254   3.365  0.2238 -0.0580  0.9881
  755MOL0     C 1851   6.298   7.113   3.324  0.6142 -0.1543 -0.0995
  755MOL0     C 1852   6.403   7.066   3.217  0.4266  0.2461  0.1613
  755MOL0     C 1853   6.540   7.052   3.280 -0.6093  0.5692 -0.9536
  755MOL0     C 1854   6.622   6.973   3.185  0.1533 -0.0674  0.3784
  755MOL0     C 1855   6.700   6.927   3.105 -0.8278 -0.5570 -0.4494
  755MOL0     C 1856   6.072   7.434   3.249  0.4912  0.4910 -0.0229
  755MOL0     C 1857   5.985   7.537   3.286 -0.9668  0.0298  0.1453
  755MOL0     H 1858   6.093   8.002   3.665  0.3763  0.8670  2.1809
  755MOL0     H 1859   6.017   8.163   3.806 -0.2183 -2.8819  2.2390
  755MOL0     H 1860   5.855   8.203   4.007  1.5390  3.1852  2.8508
  755MOL0     H 1861   5.894   8.329   3.892 -1.1247  0.7646  0.0166
  755MOL0     H 1862   5.622   8.350   4.018 -1.6983  2.2300 -2.4080
  755MOL0     H 1863   5.760   8.378   4.128 -2.2793  1.8078  0.8692
  755MOL0     H 1864   5.704   8.599   4.072  0.8879  1.3029 -0.5288
  755MOL0     H 1865   5.848   8.555   3.981 -0.8259  0.5004 -2.1936
  755MOL0     H 1866   5.717   8.529   3.773  0.9853 -0.2054  0.5333
  755MOL0     H 1867   5.562   8.535   3.862  0.1069  0.9081  0.4987
  755MOL0     H 1868   5.607   8.742   3.744 -4.0499 -3.5866  1.4442
  755MOL0     H 1869   5.596   8.762   3.913  2.0854 -0.3031  1.7327
  755MOL0     H 1870   5.867   8.748   3.920  1.7783  0.3553 -1.3663
  755MOL0     H 1871   5.871   8.737   3.746 -2.9349  0.0863 -1.3616
  755MOL0     H 1872   5.752   8.967   3.905  1.1280  1.8513 -1.1951
  755MOL0     H 1873   5.914   8.971   3.824 -0.2784  1.3523  1.5656
  755MOL0     H 1874   5.663   8.945   3.645  0.9145 -2.4827 -1.5043
  755MOL0     H 1875   5.836   8.959   3.612 -0.7326 -2.9126  0.5093
  755MOL0     H 1876   5.567   9.148   3.794  1.5061 -1.2824  1.2568
  755MOL0     H 1877   5.593   9.436   3.898 -0.3308 -2.0574 -0.4472
  755MOL0     H 1878   5.706   9.538   3.813 -0.3874  0.4164  1.3630
  755MOL0     H 1879   5.445   9.436   3.708  0.8109 -1.0310  0.9082
  755MOL0     H 1880   5.560   9.504   3.606 -0.5208 -4.3436 -0.5470
  755MOL0     H 1881   5.500   9.709   3.659 -1.8695  0.2298 -0.9592
  755MOL0     H 1882   5.495   9.676   3.836 -1.1061 -2.7711  2.1965
  755MOL0     H 1883   5.283   9.596   3.849  0.0665 -1.0913 -0.5485
  755MOL0     H 1884   5.248   9.590   3.675  1.1766 -0.5298  0.4632
  755MOL0     H 1885   5.164   9.985   3.639  0.4079  0.2688  0.0251
  755MOL0     H 1886   4.945  10.183   3.721 -3.0026 -0.8681  1.2966
  755MOL0     H 1887   5.012  10.121   3.564 -2.5315 -1.9905 -1.5549
  755MOL0     H 1888   4.839  10.109   3.602 -1.0408 -1.7541  0.6145
  755MOL0     H 1889   4.577  10.061   4.082  0.6818  0.3837 -1.9162
  755MOL0     H 1890   4.351  10.107   4.156  0.1942 -0.2645  1.3614
  755MOL0     H 1891   4.153  10.143   4.178  0.7299 -1.3663  1.1339
  755MOL0     H 1892   3.998  10.134   4.101  0.7847 -1.2588 -2.4635
  755MOL0     H 1893   4.093   9.920   4.310  1.3614 -0.2240 -0.6401
  755MOL0     H 1894   3.996  10.062   4.333  1.0705 -1.2082  1.6301
  755MOL0     H 1895   3.859   9.947   4.130  1.3113 -2.0110 -1.7314
  755MOL0     H 1896   3.817   9.919   4.289  0.3132  3.6955 -0.9827
  755MOL0     H 1897   4.025   9.720   4.149  0.5390 -2.1555  2.3401
  755MOL0     H 1898   3.944   9.701   4.307  0.2934  3.0852  1.9726
  755MOL0     H 1899   3.848   9.572   4.107 -0.3816  1.1207 -0.0037
  755MOL0     H 1900   3.799   9.727   4.034 -3.5820  4.8463  2.7004
  755MOL0     H 1901   3.685   9.623   4.294  1.1247 -1.1378 -0.4074
  755MOL0     H 1902   3.642   9.775   4.218 -0.7357 -0.0166 -2.1454
  755MOL0     H 1903   3.545   9.638   4.021 -2.2892 -0.2967  0.4254
  755MOL0     H 1904   3.466   9.617   4.175 -2.6221  3.5327 -3.7469
  755MOL0     H 1905   3.610   9.418   4.213  2.3825  2.5523 -0.0030
  755MOL0     H 1906   3.658   9.425   4.039 -1.0833  0.4939 -0.6364
  755MOL0     H 1907   4.210   9.795   3.911 -0.3838  0.0156 -1.2317
  755MOL0     H 1908   4.443   9.761   3.817  0.6897 -1.1712  0.4048
  755MOL0     H 1909   4.835   9.736   3.912 -0.0299  2.8321  1.4290
  755MOL0     H 1910   5.066   9.641   3.875 -1.3991 -0.3695 -1.2874
  755MOL0     H 1911   5.606   8.078   3.668  0.4787 -1.8187 -1.5189
  755MOL0     H 1912   5.709   7.898   3.523  2.0435 -3.6367  1.2842
  755MOL0     H 1913   6.190   7.724   3.482  4.8825  0.5028 -1.9838
  755MOL0     H 1914   6.332   7.527   3.443  0.3824  2.1041 -1.2208
  755MOL0     H 1915   6.418   7.268   3.406  0.0037 -1.4089  2.0669
  755MOL0     H 1916   6.250   7.257   3.450 -2.0943  0.6614 -0.7883
  755MOL0     H 1917   6.197   7.103   3.282  0.6785  0.7145 -0.4806
  755MOL0     H 1918   6.287   7.042   3.406 -1.1806 -1.4868 -1.4051
  755MOL0     H 1919   6.403   7.132   3.129 -1.5325  0.2866  0.1443
  755MOL0     H 1920   6.376   6.965   3.186 -1.7036  0.0067  2.4675
  755MOL0     H 1921   6.534   6.993   3.372  1.6426 -0.6543 -1.5006
  755MOL0     H 1922   6.590   7.148   3.293  1.4006 -0.7236  1.8783
  755MOL0     H 1923   6.780   6.904   3.037 -0.5022  1.0888 -0.6608
  755MOL0     H 1924   6.043   7.363   3.172 -2.0351  2.2545 -0.8157
  755MOL0     H 1925   5.888   7.540   3.237  0.2016 -1.6342 -2.5168
  756MOL0     O 1926  10.058   3.038   5.162 -0.0776  0.4250 -0.1195
  756MOL0     C 1927  10.112   3.148   5.162 -0.0316 -0.3673  0.4990
  756MOL0     O 1928  10.061   3.254   5.240  1.0488  0.1569  0.5452
  756MOL0     C 1929   9.937   3.239   5.302  0.8268  0.8627 -0.3198
  756MOL0     C 1930   9.919   3.229   5.438 -0.1548 -0.0490  0.0788
  756MOL0     C 1931   9.795   3.201   5.499  1.1197 -0.2918 -0.1642
  756MOL0     C 1932   9.681   3.181   5.415 -0.5680 -0.0207  0.1527
  756MOL0     O 1933   9.562   3.151   5.463 -0.0215  0.4045 -0.1228
  756MOL0     C 1934   9.508   3.258   5.536 -0.1740  0.2450 -0.4426
  756MOL0     C 1935   9.355   3.249   5.526 -0.1725 -0.1437 -0.4664
  756MOL0     C 1936   9.305   3.342   5.635  0.1091  0.1337 -0.5183
  756MOL0     C 1937   9.159   3.385   5.635  0.1129  0.4027  0.9691
  756MOL0     C 1938   9.050   3.281   5.666  0.0135 -1.5799 -0.3395
  756MOL0     C 1939   9.084   3.217   5.798  0.4862 -1.2248  0.4252
  756MOL0     C 1940   8.980   3.125   5.851  0.8108  0.0689 -0.1330
  756MOL0     C 1941   8.906   3.027   5.754 -0.6517 -0.5819 -0.2248
  756MOL0     N 1942   9.005   2.946   5.677  0.5367  0.4466  0.9268
  756MOL0     C 1943   9.118   2.888   5.727 -0.3248 -0.8181  0.3633
  756MOL0     C 1944   9.199   2.876   5.621 -0.4487 -0.8610  0.6106
  756MOL0     C 1945   9.334   2.809   5.642  0.3135  0.1801 -0.4953
  756MOL0     C 1946   9.433   2.920   5.684 -0.3729  0.1568 -0.5489
  756MOL0     C 1947   9.555   2.850   5.756 -0.8923  0.1424 -0.1968
  756MOL0     C 1948   9.686   2.935   5.747 -0.1485 -0.4826  0.0074
  756MOL0     O 1949   9.662   3.072   5.785  0.9562  0.2255 -0.5350
  756MOL0     C 1950   9.633   3.086   5.919  0.2278  0.2393  0.5117
  756MOL0     C 1951   9.510   3.150   5.946  0.4841 -0.3188  0.1707
  756MOL0     C 1952   9.464   3.189   6.079  0.8651 -0.2938 -0.3468
  756MOL0     C 1953   9.346   3.267   6.099  0.7873 -0.0883 -0.9022
  756MOL0     C 1954   9.548   3.153   6.190  1.0868 -0.2233 -0.4320
  756MOL0     C 1955   9.520   3.171   6.334 -0.0608  0.2483 -0.5392
  756MOL0     O 1956   9.587   3.090   6.420 -0.0859 -0.1213  0.4417
  756MOL0     C 1957   9.543   3.075   6.551 -0.1763 -0.8579  0.1595
  756MOL0     C 1958   9.637   3.078   6.650  0.2122  0.0852  0.4514
  756MOL0     C 1959   9.600   3.052   6.783 -0.0054 -0.3896 -0.4518
  756MOL0     C 1960   9.471   3.054   6.824  1.0942 -0.0884 -0.3722
  756MOL0     O 1961   9.435   3.056   6.954 -0.1416  0.1366 -0.1227
  756MOL0     C 1962   9.523   3.117   7.047  0.0116 -0.2333  0.5578
  756MOL0     C 1963   9.447   3.139   7.184  0.2417 -0.0205  0.5317
  756MOL0     C 1964   9.349   3.254   7.178  0.1224 -0.5395  0.5224
  756MOL0     C 1965   9.211   3.202   7.137 -0.3337  0.3185  0.2213
  756MOL0     C 1966   9.108   3.315   7.120 -0.0828  0.6102 -0.4302
  756MOL0     C 1967   8.974   3.287   7.050 -0.3654 -0.6004  0.7273
  756MOL0     C 1968   8.911   3.150   7.074  0.1534 -0.2075 -0.5526
  756MOL0     C 1969   8.765   3.173   7.048  0.0974 -0.6429  0.1397
  756MOL0    Cl 1970   8.695   3.248   7.199 -0.1156  0.1189  0.0914
  756MOL0     C 1971   9.375   3.050   6.720 -0.3711  1.0577 -1.0045
  756MOL0     C 1972   9.412   3.056   6.586  0.6284 -0.2226  0.2301
  756MOL0     O 1973   9.427   3.243   6.361 -0.1020 -0.5738 -0.3153
  756MOL0     C 1974   9.664   3.089   6.152  0.0182 -0.6806 -0.5935
  756MOL0     C 1975   9.705   3.047   6.024  0.1429 -0.1536  0.0402
  756MOL0     N 1976   9.139   2.923   5.512  0.0535 -0.8627 -0.4566
  756MOL0     N 1977   9.020   2.961   5.546 -0.9973  0.0641 -0.1687
  756MOL0     C 1978   9.702   3.197   5.284  0.7208 -0.1883  0.6695
  756MOL0     C 1979   9.823   3.213   5.225  0.0806  0.5809  0.0947
  756MOL0     C 1980  10.238   3.148   5.079 -0.3041  0.8723 -0.7211
  756MOL0     C 1981  10.294   3.026   5.032 -0.5093  0.1104 -0.0629
  756MOL0     C 1982  10.405   3.034   4.953  0.9799  0.3456  0.4960
  756MOL0     C 1983  10.451   3.147   4.902 -0.0382  0.4669  0.0363
  756MOL0     O 1984  10.560   3.128   4.826  0.1354  0.3965 -0.3680
  756MOL0     C 1985  10.620   3.252   4.771  0.6611 -0.0957  0.3488
  756MOL0     C 1986  10.751   3.232   4.693  0.5094  0.8419  1.1443
  756MOL0     C 1987  10.840   3.126   4.750 -0.0289 -0.3502  0.0910
  756MOL0     C 1988  10.905   3.046   4.631 -0.6151  0.1267  0.4178
  756MOL0     C 1989  11.035   2.986   4.684  1.2606  0.4239  0.0424
  756MOL0     C 1990  11.129   2.919   4.712 -0.3863 -0.4303  0.3137
  756MOL0     C 1991  10.384   3.264   4.919  0.5200 -0.0100  0.1823
  756MOL0     C 1992  10.276   3.263   5.010  0.1673  0.3987 -0.0558
  756MOL0     H 1993  10.002   3.248   5.505  0.2435  1.8711 -0.9102
  756MOL0     H 1994   9.795   3.183   5.606  0.5296 -4.4682 -0.6854
  756MOL0     H 1995   9.535   3.251   5.642 -0.8352  2.7840 -0.0319
  756MOL0     H 1996   9.531   3.361   5.506  0.4952 -0.4890 -2.6622
  756MOL0     H 1997   9.313   3.278   5.429 -2.0897  2.9455  1.1392
  756MOL0     H 1998   9.325   3.146   5.548  0.9561 -0.1745  1.0332
  756MOL0     H 1999   9.340   3.317   5.735  0.7772  1.2702 -0.4596
  756MOL0     H 2000   9.353   3.438   5.617 -1.1661  0.9364  0.2420
  756MOL0     H 2001   9.134   3.461   5.709 -0.3749  1.3304 -0.1240
  756MOL0     H 2002   9.139   3.414   5.531 -1.9291 -5.3912 -0.6827
  756MOL0     H 2003   8.953   3.332   5.666  1.2462  0.9264 -0.5199
  756MOL0     H 2004   9.059   3.198   5.595 -1.5073 -2.0649  0.0161
  756MOL0     H 2005   9.178   3.162   5.790 -0.0608 -1.8979 -2.1353
  756MOL0     H 2006   9.101   3.292   5.876  0.4479 -0.6232 -0.1373
  756MOL0     H 2007   9.034   3.065   5.924  2.5638  1.0207 -0.5858
  756MOL0     H 2008   8.903   3.183   5.903  1.4282  0.4072  0.4245
  756MOL0     H 2009   8.847   3.089   5.685  0.0177 -0.3055 -0.5625
  756MOL0     H 2010   8.837   2.958   5.803  1.3345 -1.2919  1.7347
  756MOL0     H 2011   9.128   2.850   5.828 -0.7192  1.5043  1.3396
  756MOL0     H 2012   9.313   2.731   5.715 -0.7187  0.9180  0.0107
  756MOL0     H 2013   9.369   2.748   5.557 -0.6511 -2.7779  1.0853
  756MOL0     H 2014   9.387   2.998   5.746  0.2863 -0.4844  0.7901
  756MOL0     H 2015   9.472   2.975   5.598  1.5224  1.2017  0.8839
  756MOL0     H 2016   9.580   2.757   5.704  0.3859  0.2778  0.1533
  756MOL0     H 2017   9.525   2.844   5.861  0.9465  0.4364  0.3746
  756MOL0     H 2018   9.716   2.947   5.642 -2.4339  0.5554 -0.5745
  756MOL0     H 2019   9.765   2.891   5.809  1.4537  0.0361 -1.5469
  756MOL0     H 2020   9.460   3.174   5.853  0.9812  1.2781  0.2789
  756MOL0     H 2021   9.365   3.356   6.159  2.7669 -0.1675 -1.3450
  756MOL0     H 2022   9.290   3.292   6.008  0.2143 -1.0870 -0.8341
  756MOL0     H 2023   9.283   3.197   6.154  0.3261 -0.1145 -1.4515
  756MOL0     H 2024   9.741   3.099   6.628  0.6782 -1.3413  1.1849
  756MOL0     H 2025   9.676   3.038   6.860 -0.4985 -3.8065 -0.4457
  756MOL0     H 2026   9.612   3.055   7.063 -0.9125 -1.5863  0.6991
  756MOL0     H 2027   9.547   3.217   7.010 -3.3131  0.5003  0.0757
  756MOL0     H 2028   9.404   3.043   7.214 -0.7183  0.4303  0.6489
  756MOL0     H 2029   9.522   3.171   7.257  1.4948  1.8531 -1.4626
  756MOL0     H 2030   9.382   3.333   7.110 -1.5287  0.9187  1.3047
  756MOL0     H 2031   9.338   3.291   7.281  0.9903  0.8201  0.1473
  756MOL0     H 2032   9.235   3.161   7.038  2.6603  1.3059  0.4441
  756MOL0     H 2033   9.188   3.122   7.208  3.2841 -1.7467 -0.6639
  756MOL0     H 2034   9.155   3.404   7.078  0.1099  0.5648 -0.3086
  756MOL0     H 2035   9.093   3.347   7.223  1.3236  2.4953 -0.7715
  756MOL0     H 2036   8.908   3.371   7.072 -1.4766 -1.2695  0.0508
  756MOL0     H 2037   8.999   3.292   6.944  0.8011 -2.3953  0.8637
  756MOL0     H 2038   8.916   3.110   7.176 -2.2052  1.6735  0.4040
  756MOL0     H 2039   8.945   3.074   7.003  0.2623 -3.3553  2.5788
  756MOL0     H 2040   8.722   3.073   7.036  0.2930 -0.7283  0.1451
  756MOL0     H 2041   8.749   3.237   6.961  0.9889 -1.0710 -0.3528
  756MOL0     H 2042   9.270   3.049   6.747 -0.3461  0.6328 -0.9193
  756MOL0     H 2043   9.343   3.043   6.503  0.6672 -1.1753  0.3414
  756MOL0     H 2044   9.725   3.049   6.232  1.2379  0.7286 -0.7757
  756MOL0     H 2045   9.795   2.989   6.007 -1.4205 -1.7282 -4.3225
  756MOL0     H 2046   9.608   3.183   5.231 -0.8877  3.4656  2.2860
  756MOL0     H 2047   9.833   3.208   5.117 -3.7301  2.0646 -0.4705
  756MOL0     H 2048  10.258   2.929   5.064 -1.4582  0.7199  0.7795
  756MOL0     H 2049  10.445   2.939   4.918 -0.1231 -0.0383  0.2098
  756MOL0     H 2050  10.549   3.302   4.705  2.6543  1.3212 -0.8447
  756MOL0     H 2051  10.643   3.317   4.855 -1.3155  1.3274 -0.1452
  756MOL0     H 2052  10.808   3.325   4.692 -0.3171  1.3987 -1.4648
  756MOL0     H 2053  10.718   3.216   4.590  0.7220  5.3551  0.1855
  756MOL0     H 2054  10.780   3.063   4.817 -0.1859  2.5223  2.8582
  756MOL0     H 2055  10.915   3.171   4.815 -0.1284  0.0763 -0.0855
  756MOL0     H 2056  10.935   3.113   4.549  0.9874 -0.9812  0.0591
  756MOL0     H 2057  10.829   2.984   4.583 -1.9180  2.9173 -1.4098
  756MOL0     H 2058  11.214   2.859   4.738  0.4885  0.4541 -0.4219
  756MOL0     H 2059  10.421   3.356   4.875  1.5225 -0.6768 -0.4184
  756MOL0     H 2060  10.227   3.358   5.027  2.6325  1.5318  1.1388
  757MOL0     O 2061   1.130   3.317   0.286 -0.6240  0.2792 -0.6413
  757MOL0     C 2062   1.173   3.388   0.188  0.4395  0.6412  0.0227
  757MOL0     O 2063   1.094   3.432   0.085  0.2480  0.0844  0.6282
  757MOL0     C 2064   0.965   3.406   0.057  0.3276 -0.0782 -0.4780
  757MOL0     C 2065   0.883   3.308   0.111  0.3697  1.3339  0.0149
  757MOL0     C 2066   0.748   3.295   0.077 -0.1809 -0.4251 -0.6148
  757MOL0     C 2067   0.678   3.387  -0.004  0.2142 -0.3294  0.0624
  757MOL0     O 2068   0.549   3.363  -0.043 -0.2691 -0.0739  1.1672
  757MOL0     C 2069   0.472   3.456  -0.123 -0.0565 -0.2093 -0.2302
  757MOL0     C 2070   0.326   3.418  -0.113  0.3516  0.2046 -0.5711
  757MOL0     C 2071   0.233   3.493  -0.211  0.1900 -1.3090 -0.1299
  757MOL0     C 2072   0.093   3.463  -0.176  0.0303 -0.9363 -0.2568
  757MOL0     C 2073   0.003   3.507  -0.290  0.8334 -0.1966 -0.1076
  757MOL0     C 2074  -0.136   3.441  -0.262  0.9144  0.6535  0.4882
  757MOL0     C 2075  -0.235   3.511  -0.357 -0.6844 -0.8586  0.5558
  757MOL0     C 2076  -0.381   3.478  -0.323  0.1391  0.2020  0.0367
  757MOL0     N 2077  -0.478   3.519  -0.421 -0.1601 -0.2944 -0.8388
  757MOL0     C 2078  -0.524   3.643  -0.436 -0.5447  0.1279 -0.8826
  757MOL0     C 2079  -0.630   3.633  -0.528 -1.1043  1.1956 -0.2369
  757MOL0     C 2080  -0.727   3.729  -0.579  0.8242  0.0573  0.1491
  757MOL0     C 2081  -0.660   3.854  -0.632 -0.0763 -0.8314 -0.2709
  757MOL0     C 2082  -0.542   3.840  -0.730  0.2640 -0.9964 -0.4946
  757MOL0     C 2083  -0.573   3.786  -0.870 -0.0508 -0.2971 -0.6869
  757MOL0     O 2084  -0.680   3.858  -0.929 -0.1188 -0.0095  0.4211
  757MOL0     C 2085  -0.697   3.850  -1.063  0.1964 -0.7600 -0.1223
  757MOL0     C 2086  -0.759   3.957  -1.116  0.8551 -0.7697  0.0548
  757MOL0     C 2087  -0.778   3.965  -1.252  0.0084  0.4552  0.2608
  757MOL0     C 2088  -0.816   4.112  -1.289 -0.8114  0.3564  1.0093
  757MOL0     C 2089  -0.760   3.851  -1.333 -0.1195  0.2417  0.4662
  757MOL0     C 2090  -0.785   3.845  -1.482 -0.0804  0.0759  0.5097
  757MOL0     O 2091  -0.832   3.959  -1.543 -0.6267 -0.3741 -0.1058
  757MOL0     C 2092  -0.898   3.968  -1.664 -0.1049  0.1425 -0.7146
  757MOL0     C 2093  -0.940   4.101  -1.697  0.2620  0.2534  1.1536
  757MOL0     C 2094  -1.005   4.117  -1.820  0.3890 -0.6064 -0.0337
  757MOL0     C 2095  -1.046   4.020  -1.906 -0.2566 -0.3627 -0.9112
  757MOL0     O 2096  -1.088   4.035  -2.037  0.2927 -0.0609 -0.0906
  757MOL0     C 2097  -1.090   4.173  -2.081 -0.2021 -0.9393  0.5260
  757MOL0     C 2098  -1.149   4.163  -2.223 -0.3882  0.1568  0.1372
  757MOL0     C 2099  -1.168   4.302  -2.281 -0.4921  0.6477 -0.3712
  757MOL0     C 2100  -1.036   4.391  -2.288 -0.3409 -0.0176  0.2694
  757MOL0     C 2101  -1.056   4.526  -2.358  0.4004 -0.0490  0.2468
  757MOL0     C 2102  -0.923   4.598  -2.395 -0.1087 -0.5184  0.0660
  757MOL0     C 2103  -0.900   4.583  -2.549  0.3946 -0.3699 -0.0638
  757MOL0     C 2104  -0.773   4.649  -2.602  0.4805 -0.9370 -0.2140
  757MOL0    Cl 2105  -0.767   4.616  -2.773 -0.0125  0.5373  0.2061
  757MOL0     C 2106  -1.028   3.893  -1.853  0.4321  0.0287 -0.6052
  757MOL0     C 2107  -0.940   3.862  -1.750 -0.9380 -1.1975 -0.2368
  757MOL0     O 2108  -0.776   3.734  -1.536 -0.0755 -0.0861  0.6507
  757MOL0     C 2109  -0.714   3.735  -1.270 -1.2294  0.2420 -0.0275
  757MOL0     C 2110  -0.684   3.739  -1.129  0.0985  0.2603  1.2132
  757MOL0     N 2111  -0.637   3.502  -0.567  0.4023  0.6342  0.2288
  757MOL0     N 2112  -0.553   3.439  -0.504 -0.4214  0.8687 -0.4072
  757MOL0     C 2113   0.760   3.492  -0.055 -0.0410  0.3068  0.2942
  757MOL0     C 2114   0.896   3.497  -0.023 -0.3074  0.5006  0.4900
  757MOL0     C 2115   1.315   3.410   0.184 -0.4547 -0.1136  0.7925
  757MOL0     C 2116   1.368   3.467   0.067 -0.8144  0.0665  0.2529
  757MOL0     C 2117   1.505   3.494   0.055 -0.1560  0.2580 -0.6113
  757MOL0     C 2118   1.591   3.458   0.158 -1.0317 -1.0167  0.3808
  757MOL0     O 2119   1.723   3.467   0.132 -0.1345 -0.3757 -0.8552
  757MOL0     C 2120   1.785   3.581   0.197  0.4764 -0.5912  0.3528
  757MOL0     C 2121   1.896   3.538   0.293 -0.0083 -0.2943 -0.2680
  757MOL0     C 2122   1.935   3.667   0.373  0.5371  0.4227  1.2082
  757MOL0     C 2123   1.996   3.659   0.519 -0.0787  0.2561  0.2518
  757MOL0     C 2124   1.915   3.583   0.618  0.7641  0.0151 -0.7112
  757MOL0     C 2125   1.845   3.520   0.697  0.0012  0.0697 -0.1431
  757MOL0     C 2126   1.540   3.401   0.268  0.0173 -0.2981  0.0601
  757MOL0     C 2127   1.404   3.374   0.286  0.3437 -0.9358  0.6807
  757MOL0     H 2128   0.929   3.233   0.176 -0.4350 -0.4837 -1.4180
  757MOL0     H 2129   0.708   3.208   0.128  1.3689  1.3713  4.2081
  757MOL0     H 2130   0.480   3.558  -0.084  1.4744 -0.8247  1.1889
  757MOL0     H 2131   0.504   3.444  -0.227  0.5719 -1.7156  0.1121
  757MOL0     H 2132   0.320   3.310  -0.129 -0.3983 -0.1351  1.6889
  757MOL0     H 2133   0.289   3.443  -0.013 -1.3513 -0.7188 -0.9332
  757MOL0     H 2134   0.244   3.601  -0.194  0.1324 -1.5232  1.3986
  757MOL0     H 2135   0.269   3.465  -0.310  2.3108 -1.7974  0.6985
  757MOL0     H 2136   0.083   3.354  -0.182  0.4632 -1.0095  0.2591
  757MOL0     H 2137   0.057   3.502  -0.080  0.1768 -1.0198 -0.1666
  757MOL0     H 2138  -0.001   3.616  -0.299  5.5357  0.0223 -2.6005
  757MOL0     H 2139   0.043   3.485  -0.389  3.1582  2.9466 -0.0078
  757MOL0     H 2140  -0.139   3.336  -0.291  0.5326  1.2850 -1.9642
  757MOL0     H 2141  -0.178   3.459  -0.163 -3.4995 -0.9111 -0.8797
  757MOL0     H 2142  -0.229   3.619  -0.338 -2.4691 -0.6691  0.2312
  757MOL0     H 2143  -0.212   3.494  -0.462 -3.0018  1.4332 -0.4544
  757MOL0     H 2144  -0.410   3.532  -0.232  1.6939  0.8133  0.1954
  757MOL0     H 2145  -0.390   3.371  -0.300 -0.3764 -0.6195 -3.3877
  757MOL0     H 2146  -0.497   3.734  -0.383 -2.6112 -0.4965  1.3985
  757MOL0     H 2147  -0.779   3.685  -0.664  0.9085  2.8648 -1.4870
  757MOL0     H 2148  -0.796   3.762  -0.500  0.6951 -2.3232  1.1358
  757MOL0     H 2149  -0.620   3.904  -0.543 -0.4401 -3.1713  1.3082
  757MOL0     H 2150  -0.740   3.920  -0.668  0.8752  1.2298  1.1636
  757MOL0     H 2151  -0.463   3.781  -0.683  1.6406 -2.8724 -4.6900
  757MOL0     H 2152  -0.498   3.939  -0.747 -1.3541  0.4569  2.7790
  757MOL0     H 2153  -0.597   3.680  -0.859  2.5653 -0.8765  0.1158
  757MOL0     H 2154  -0.482   3.797  -0.931  2.0493 -4.4533  1.2641
  757MOL0     H 2155  -0.795   4.038  -1.053 -1.6374 -0.2960 -1.8279
  757MOL0     H 2156  -0.750   4.141  -1.371 -1.1849  0.8288  0.8683
  757MOL0     H 2157  -0.921   4.119  -1.318 -0.1606  1.2208 -1.3127
  757MOL0     H 2158  -0.803   4.185  -1.208 -1.2160  0.4376  1.0055
  757MOL0     H 2159  -0.925   4.187  -1.632 -1.1238  2.1058 -0.8416
  757MOL0     H 2160  -1.025   4.221  -1.842 -0.6777 -0.6132  0.8327
  757MOL0     H 2161  -1.146   4.235  -2.011  0.6481 -0.4530  0.7920
  757MOL0     H 2162  -0.991   4.220  -2.086  0.1755 -1.6336  1.1868
  757MOL0     H 2163  -1.080   4.122  -2.298 -2.6211 -0.4348 -1.7172
  757MOL0     H 2164  -1.244   4.107  -2.223  0.5983 -1.7051 -2.1750
  757MOL0     H 2165  -1.249   4.349  -2.225 -0.9139  0.1698 -0.5624
  757MOL0     H 2166  -1.204   4.298  -2.384  0.1170  2.2372 -0.6709
  757MOL0     H 2167  -1.009   4.424  -2.187 -0.8014  3.1254 -0.5274
  757MOL0     H 2168  -0.951   4.338  -2.332 -1.1597 -0.6127 -0.6396
  757MOL0     H 2169  -1.112   4.596  -2.296  3.4349  1.5961  1.3400
  757MOL0     H 2170  -1.112   4.512  -2.451  0.7501 -1.9806  0.2763
  757MOL0     H 2171  -0.919   4.706  -2.380  0.9534 -0.4530 -0.6025
  757MOL0     H 2172  -0.839   4.549  -2.345 -0.4807 -0.5493  0.6736
  757MOL0     H 2173  -0.978   4.625  -2.613  1.9325 -0.9933 -2.4834
  757MOL0     H 2174  -0.890   4.477  -2.572 -0.8686 -0.5871  0.2980
  757MOL0     H 2175  -0.683   4.632  -2.543  0.9046 -1.3357 -0.9696
  757MOL0     H 2176  -0.785   4.758  -2.593  1.2820 -0.8993  0.5825
  757MOL0     H 2177  -1.073   3.811  -1.910 -2.0504  1.5999 -1.0645
  757MOL0     H 2178  -0.916   3.762  -1.716 -1.6451 -1.1964  0.2842
  757MOL0     H 2179  -0.689   3.648  -1.330  0.8843  0.0659  1.0194
  757MOL0     H 2180  -0.644   3.652  -1.077 -0.5191 -0.4127  0.5883
  757MOL0     H 2181   0.724   3.576  -0.112 -0.9259  1.7522  2.8124
  757MOL0     H 2182   0.952   3.582  -0.060 -1.3533  0.6578 -0.7931
  757MOL0     H 2183   1.301   3.504  -0.010 -2.3454  0.8841  1.8932
  757MOL0     H 2184   1.556   3.554  -0.020  0.0073  0.2770 -0.4857
  757MOL0     H 2185   1.827   3.647   0.121 -0.6625  0.7559  0.8246
  757MOL0     H 2186   1.722   3.654   0.249  1.6599 -1.1402  2.7126
  757MOL0     H 2187   1.975   3.491   0.235 -0.2578 -3.4560  1.7615
  757MOL0     H 2188   1.852   3.470   0.366  1.1023  0.1590  0.8555
  757MOL0     H 2189   1.861   3.745   0.394  0.9180  0.1358  4.1072
  757MOL0     H 2190   1.998   3.721   0.302  0.7885  0.0862  1.1743
  757MOL0     H 2191   2.000   3.762   0.555 -1.5672  0.5994 -0.4779
  757MOL0     H 2192   2.102   3.630   0.523  1.6791  5.7663  1.7157
  757MOL0     H 2193   1.791   3.473   0.776 -2.6882 -0.3234 -2.0845
  757MOL0     H 2194   1.601   3.381   0.356  1.3333 -2.1971 -1.1960
  757MOL0     H 2195   1.354   3.340   0.376 -0.5558 -0.4096  0.3968
  758MOL0     O 2196   7.282  10.431   5.056 -0.8097  0.0741  0.1745
  758MOL0     C 2197   7.322  10.483   4.946 -0.4942 -1.5319 -1.2718
  758MOL0     O 2198   7.247  10.556   4.861 -0.7426 -0.4135 -0.3868
  758MOL0     C 2199   7.115  10.525   4.847 -0.0534 -0.5163  0.2635
  758MOL0     C 2200   7.046  10.618   4.763 -0.7493  0.0865 -0.6703
  758MOL0     C 2201   6.912  10.595   4.720 -1.2453 -0.6286  0.7139
  758MOL0     C 2202   6.847  10.466   4.739  0.1592  0.3176  0.1929
  758MOL0     O 2203   6.725  10.445   4.681 -0.3782 -1.1083 -0.2635
  758MOL0     C 2204   6.694  10.315   4.657 -0.7780  0.4164  0.4548
  758MOL0     C 2205   6.598  10.294   4.542  0.2710 -0.0461  0.4181
  758MOL0     C 2206   6.465  10.369   4.568  0.5493  0.2000  0.6799
  758MOL0     C 2207   6.360  10.321   4.465  0.7284 -0.0857 -0.2736
  758MOL0     C 2208   6.230  10.392   4.476 -1.1220  0.1747 -0.0131
  758MOL0     C 2209   6.157  10.350   4.608 -0.2563  0.7792  0.6506
  758MOL0     C 2210   6.042  10.435   4.638  0.1625 -0.5264 -0.2910
  758MOL0     C 2211   5.952  10.389   4.753 -1.0190  0.0513 -0.1582
  758MOL0     N 2212   6.031  10.374   4.872 -0.2939  0.2910 -0.2319
  758MOL0     C 2213   6.089  10.478   4.938 -0.1423  1.1441 -1.1413
  758MOL0     C 2214   6.176  10.418   5.024  0.0259 -0.4963 -0.5549
  758MOL0     C 2215   6.229  10.505   5.145  0.5867  0.2104  0.4521
  758MOL0     C 2216   6.293  10.426   5.258  1.5313  0.1319 -0.4220
  758MOL0     C 2217   6.390  10.515   5.340 -0.2688  0.6511  0.1852
  758MOL0     C 2218   6.393  10.462   5.476 -1.0150  0.3118 -0.2055
  758MOL0     O 2219   6.410  10.325   5.501 -0.1614  0.5054 -0.5280
  758MOL0     C 2220   6.534  10.259   5.486  0.0690  0.3829 -0.1736
  758MOL0     C 2221   6.658  10.319   5.454 -0.4744  1.0175  0.6091
  758MOL0     C 2222   6.782  10.254   5.435 -0.3826 -0.8768 -0.9902
  758MOL0     C 2223   6.898  10.343   5.400 -0.1909  0.5499  0.0994
  758MOL0     C 2224   6.784  10.114   5.450  0.3846 -0.2999  0.4664
  758MOL0     C 2225   6.905  10.034   5.435 -0.6349  1.0183 -0.4184
  758MOL0     O 2226   7.016  10.090   5.465  0.3285  0.2840  0.4907
  758MOL0     C 2227   7.127  10.012   5.470 -0.5699 -0.1976 -0.1479
  758MOL0     C 2228   7.211   9.999   5.356  0.6637 -0.0595 -0.4625
  758MOL0     C 2229   7.326   9.923   5.359 -0.9530  0.1797 -0.8261
  758MOL0     C 2230   7.352   9.844   5.469 -0.1662 -0.6025 -0.2889
  758MOL0     O 2231   7.469   9.769   5.458  0.3657  0.2535 -0.2392
  758MOL0     C 2232   7.500   9.662   5.543 -0.0073 -0.1155  0.2001
  758MOL0     C 2233   7.637   9.596   5.517  0.5371 -0.2002  0.2036
  758MOL0     C 2234   7.752   9.697   5.532  0.1544 -0.0549  0.5153
  758MOL0     C 2235   7.884   9.619   5.519 -0.6869  0.4895 -0.3352
  758MOL0     C 2236   7.997   9.718   5.523 -0.6451  0.2266 -0.2687
  758MOL0     C 2237   8.139   9.652   5.499 -0.5219 -0.3179  0.8366
  758MOL0     C 2238   8.244   9.751   5.436  0.2375  0.3424  0.9537
  758MOL0     C 2239   8.366   9.682   5.372 -0.0751  0.2378  0.4548
  758MOL0    Cl 2240   8.317   9.540   5.268  0.3213 -0.1000  0.3934
  758MOL0     C 2241   7.279   9.862   5.586 -0.1912  0.0548  0.6260
  758MOL0     C 2242   7.169   9.944   5.590 -0.0911  0.4473 -0.2031
  758MOL0     O 2243   6.889   9.926   5.374  0.3248 -0.5170  0.6452
  758MOL0     C 2244   6.662  10.050   5.493  0.4637 -0.8939 -0.3704
  758MOL0     C 2245   6.543  10.120   5.505 -0.0914 -0.3750 -0.6291
  758MOL0     N 2246   6.181  10.282   5.002  0.1011 -0.9451  0.3384
  758MOL0     N 2247   6.093  10.259   4.906 -0.1665 -0.1379 -0.1224
  758MOL0     C 2248   6.917  10.379   4.828 -0.6844  0.6630 -0.3666
  758MOL0     C 2249   7.049  10.405   4.874  0.1747 -0.3767  0.5875
  758MOL0     C 2250   7.463  10.465   4.902  0.0905 -0.4364  0.6934
  758MOL0     C 2251   7.539  10.390   4.987 -0.7410 -0.6954  0.1036
  758MOL0     C 2252   7.669  10.359   4.955 -0.7420  0.8747 -0.4408
  758MOL0     C 2253   7.726  10.397   4.836  0.9608 -0.4176 -0.6316
  758MOL0     O 2254   7.859  10.363   4.836  0.6079 -0.0976  0.6630
  758MOL0     C 2255   7.951  10.458   4.776 -0.2481  0.1924 -0.4918
  758MOL0     C 2256   8.091  10.405   4.743  0.1672 -0.6701  0.4600
  758MOL0     C 2257   8.155  10.324   4.859 -0.4665 -0.2022  0.2179
  758MOL0     C 2258   8.307  10.365   4.885 -0.7170  1.1465 -0.0952
  758MOL0     C 2259   8.318  10.499   4.942  0.0861 -0.1541  0.1368
  758MOL0     C 2260   8.301  10.600   5.003 -0.0555  0.2163  0.0415
  758MOL0     C 2261   7.654  10.473   4.745  0.0367  0.6667 -0.1275
  758MOL0     C 2262   7.523  10.510   4.781  0.2792  0.4166  0.0048
  758MOL0     H 2263   7.102  10.708   4.740  3.5826 -2.5867 -1.5831
  758MOL0     H 2264   6.867  10.674   4.661 -0.3327 -0.8441 -0.2813
  758MOL0     H 2265   6.777  10.249   4.630 -2.5321 -0.7088 -2.7154
  758MOL0     H 2266   6.644  10.269   4.743 -2.1877 -0.6694 -0.8880
  758MOL0     H 2267   6.640  10.322   4.444 -1.3750  2.1627  0.2633
  758MOL0     H 2268   6.576  10.187   4.546 -1.6899  0.3617  3.6185
  758MOL0     H 2269   6.428  10.360   4.670 -0.6053  3.1249  0.6111
  758MOL0     H 2270   6.485  10.476   4.562  3.4671 -0.2527  0.4427
  758MOL0     H 2271   6.404  10.345   4.368 -1.3811 -0.8753 -1.4686
  758MOL0     H 2272   6.347  10.214   4.482 -2.2090  0.5368  2.0755
  758MOL0     H 2273   6.237  10.501   4.480  1.0612  0.0470  0.8530
  758MOL0     H 2274   6.169  10.368   4.388 -1.8926 -1.1399  0.8501
  758MOL0     H 2275   6.123  10.246   4.606 -0.1954  0.7523  0.9729
  758MOL0     H 2276   6.226  10.371   4.690  2.7243  3.2493 -2.2154
  758MOL0     H 2277   6.074  10.538   4.653  0.2831 -0.7357  1.0315
  758MOL0     H 2278   5.984  10.439   4.546  0.4382 -0.3487 -0.4564
  758MOL0     H 2279   5.908  10.292   4.727  1.8004 -1.1555 -0.8295
  758MOL0     H 2280   5.879  10.467   4.773 -1.4569 -0.6212  0.9560
  758MOL0     H 2281   6.054  10.581   4.932 -1.1529  0.7652 -1.9160
  758MOL0     H 2282   6.294  10.583   5.104 -2.8480  1.9965 -2.0583
  758MOL0     H 2283   6.142  10.554   5.190 -2.0629 -0.5361 -3.3882
  758MOL0     H 2284   6.339  10.333   5.221  1.6654  1.0009 -2.5678
  758MOL0     H 2285   6.208  10.394   5.319  2.3824 -0.9620  0.2384
  758MOL0     H 2286   6.354  10.619   5.341 -3.1654 -0.2357  2.4787
  758MOL0     H 2287   6.484  10.527   5.285 -1.5746  0.1156 -2.3180
  758MOL0     H 2288   6.303  10.500   5.526  0.1828  0.5647  1.8815
  758MOL0     H 2289   6.475  10.511   5.530 -0.3417 -1.6066  0.5767
  758MOL0     H 2290   6.641  10.425   5.434 -0.4111  1.4135  2.4910
  758MOL0     H 2291   6.962  10.291   5.329  1.6476  0.3582  1.8247
  758MOL0     H 2292   6.868  10.432   5.343 -0.0888  0.1681 -0.5660
  758MOL0     H 2293   6.958  10.376   5.485  0.8788  3.6223 -1.7128
  758MOL0     H 2294   7.185  10.057   5.268  1.0359  0.9510  0.0756
  758MOL0     H 2295   7.387   9.919   5.269  1.4066 -0.4376  0.7068
  758MOL0     H 2296   7.503   9.693   5.648 -0.3221 -0.7425  0.4047
  758MOL0     H 2297   7.423   9.584   5.536 -0.4043  0.1883  1.0319
  758MOL0     H 2298   7.659   9.507   5.576  1.2642 -1.5862 -2.0545
  758MOL0     H 2299   7.637   9.567   5.412 -0.8032  0.5065 -0.0082
  758MOL0     H 2300   7.746   9.759   5.622 -1.1404 -0.6872  0.8908
  758MOL0     H 2301   7.742   9.774   5.455 -0.7904 -2.6536 -2.1215
  758MOL0     H 2302   7.896   9.551   5.603  0.0334  3.5869  2.2967
  758MOL0     H 2303   7.896   9.567   5.424  0.9099  0.8068 -0.3407
  758MOL0     H 2304   7.997   9.767   5.621  2.7025 -2.0319  1.0407
  758MOL0     H 2305   7.975   9.799   5.453  0.1382  1.0709  0.4479
  758MOL0     H 2306   8.173   9.605   5.592  1.7594  0.6841  0.5911
  758MOL0     H 2307   8.120   9.578   5.421 -1.7599  1.6974 -0.8801
  758MOL0     H 2308   8.264   9.834   5.505  0.0450  2.8126 -1.7759
  758MOL0     H 2309   8.195   9.792   5.347  2.3745  0.5880 -0.1833
  758MOL0     H 2310   8.412   9.631   5.456 -0.8121  0.2431  0.8722
  758MOL0     H 2311   8.441   9.747   5.325  0.4333  1.9822  3.4489
  758MOL0     H 2312   7.311   9.822   5.682 -0.0132 -1.4463 -0.0275
  758MOL0     H 2313   7.120   9.965   5.684 -0.6124 -1.6934  0.0609
  758MOL0     H 2314   6.664   9.942   5.501 -0.6056 -0.8537  0.6518
  758MOL0     H 2315   6.446  10.080   5.532 -0.7555  1.4198 -0.1499
  758MOL0     H 2316   6.868  10.285   4.853 -2.7006  2.2412  2.2331
  758MOL0     H 2317   7.104  10.326   4.924  1.4077  0.9342  1.3652
  758MOL0     H 2318   7.499  10.365   5.085 -1.7215 -0.8013 -0.3078
  758MOL0     H 2319   7.728  10.312   5.032  0.0761 -0.7090 -1.9556
  758MOL0     H 2320   7.919  10.507   4.684 -1.3779  3.4793  1.5074
  758MOL0     H 2321   7.959  10.545   4.841  0.8611  0.9796 -1.6293
  758MOL0     H 2322   8.150  10.489   4.704 -0.0005 -1.0352 -0.6216
  758MOL0     H 2323   8.081  10.338   4.656 -2.0020 -0.9079  0.8454
  758MOL0     H 2324   8.133  10.217   4.863 -4.1447  0.3631 -1.2055
  758MOL0     H 2325   8.096  10.357   4.945 -1.7155 -0.4577 -0.5102
  758MOL0     H 2326   8.364  10.355   4.792 -0.3138  0.3453  0.2282
  758MOL0     H 2327   8.341  10.300   4.966  0.2643 -0.2833 -1.5767
  758MOL0     H 2328   8.277  10.692   5.053 -0.8029  0.0016  0.0866
  758MOL0     H 2329   7.701  10.489   4.649 -1.7962  2.0708 -0.8435
  758MOL0     H 2330   7.465  10.560   4.704  0.2597  1.2775  0.5641
  759MOL0     O 2331   4.681   5.571   8.756 -0.2463  0.6524 -0.8036
  759MOL0     C 2332   4.669   5.451   8.787 -0.3289  0.4306 -0.6357
  759MOL0     O 2333   4.539   5.386   8.803 -0.3711 -0.7520 -0.3113
  759MOL0     C 2334   4.426   5.458   8.798 -0.2063 -1.0211 -0.0160
  759MOL0     C 2335   4.329   5.433   8.710  0.7092 -0.3241  0.3696
  759MOL0     C 2336   4.204   5.505   8.709 -0.3598 -0.2115 -0.0477
  759MOL0     C 2337   4.185   5.605   8.805 -0.0097 -0.2070  0.2680
  759MOL0     O 2338   4.071   5.665   8.845 -0.1856 -0.4275 -0.7724
  759MOL0     C 2339   3.960   5.576   8.845 -0.5252 -0.1722  0.2916
  759MOL0     C 2340   3.850   5.635   8.918 -0.5456 -0.6597  0.7444
  759MOL0     C 2341   3.765   5.734   8.838 -0.2434  0.2986 -0.4252
  759MOL0     C 2342   3.634   5.776   8.910 -0.6709  0.4175  0.2863
  759MOL0     C 2343   3.588   5.910   8.876  0.4171 -0.4618  0.1647
  759MOL0     C 2344   3.524   5.922   8.732  0.1777 -0.3861  0.1763
  759MOL0     C 2345   3.464   6.064   8.699 -0.5157 -0.2939 -0.6464
  759MOL0     C 2346   3.440   6.083   8.553  0.3555 -0.2985 -0.3379
  759MOL0     N 2347   3.327   5.998   8.504  0.0729 -0.1891 -0.0324
  759MOL0     C 2348   3.341   5.888   8.428  0.1206 -0.1836  0.2120
  759MOL0     C 2349   3.216   5.828   8.428 -0.3816  0.3730  0.2636
  759MOL0     C 2350   3.192   5.697   8.359  0.6060 -0.1158  0.5697
  759MOL0     C 2351   3.066   5.631   8.407 -0.5899 -0.4386 -0.2902
  759MOL0     C 2352   3.085   5.484   8.370  1.2596 -0.3907  0.7679
  759MOL0     C 2353   2.955   5.401   8.399  0.0009  0.2527 -0.2261
  759MOL0     O 2354   2.860   5.435   8.290 -0.2238 -0.0506 -0.8003
  759MOL0     C 2355   2.750   5.357   8.283  0.0790  0.5324  0.7468
  759MOL0     C 2356   2.688   5.286   8.390 -0.8077  0.4899  0.3256
  759MOL0     C 2357   2.563   5.230   8.375  0.3263 -0.4766 -0.1712
  759MOL0     C 2358   2.493   5.184   8.495  0.2308  0.0446 -0.4177
  759MOL0     C 2359   2.498   5.227   8.251  0.2550  0.0613 -0.3442
  759MOL0     C 2360   2.357   5.191   8.232 -0.0021  0.5189 -0.6354
  759MOL0     O 2361   2.310   5.243   8.109 -0.6565  0.4302 -0.5207
  759MOL0     C 2362   2.170   5.255   8.099  0.1929  0.1252 -0.1038
  759MOL0     C 2363   2.105   5.215   7.979  0.3219  0.0669  0.7084
  759MOL0     C 2364   1.965   5.207   7.958 -0.3338  0.4018  0.8903
  759MOL0     C 2365   1.878   5.232   8.069 -0.0847  0.3836  0.8736
  759MOL0     O 2366   1.746   5.210   8.047 -0.1622 -0.7921  0.0427
  759MOL0     C 2367   1.652   5.299   8.118 -0.7686  0.4010  0.3983
  759MOL0     C 2368   1.674   5.446   8.079  0.4074 -0.2410 -0.0106
  759MOL0     C 2369   1.671   5.493   7.934 -0.6495 -0.1413  0.4231
  759MOL0     C 2370   1.545   5.445   7.860  0.3669 -0.6880 -0.0882
  759MOL0     C 2371   1.516   5.514   7.725 -0.0362 -0.3247 -1.2568
  759MOL0     C 2372   1.367   5.519   7.689 -0.4013  0.2381 -0.7115
  759MOL0     C 2373   1.308   5.384   7.664  0.7228  0.6562  0.2227
  759MOL0     C 2374   1.155   5.393   7.648  0.3451  0.3093  0.1367
  759MOL0    Cl 2375   1.121   5.502   7.513  0.1778  0.1834  0.2513
  759MOL0     C 2376   1.933   5.264   8.194  0.1892 -0.1166  0.4273
  759MOL0     C 2377   2.075   5.281   8.209  0.4181 -0.2769 -0.1480
  759MOL0     O 2378   2.301   5.119   8.311  0.5564  0.1122  0.0104
  759MOL0     C 2379   2.573   5.278   8.143  0.1786  0.0203  1.6922
  759MOL0     C 2380   2.698   5.341   8.155 -0.7939 -0.5796 -0.5808
  759MOL0     N 2381   3.131   5.912   8.498 -0.6129 -1.0104 -0.8804
  759MOL0     N 2382   3.197   6.017   8.535 -0.1808  0.6171  0.7090
  759MOL0     C 2383   4.294   5.644   8.886 -0.4666  0.2226 -0.1035
  759MOL0     C 2384   4.420   5.580   8.873  0.2786  0.5339 -0.6604
  759MOL0     C 2385   4.795   5.385   8.836 -0.5296  0.0657 -0.0520
  759MOL0     C 2386   4.795   5.242   8.852 -0.0616 -0.2838 -0.0797
  759MOL0     C 2387   4.904   5.170   8.896  0.5600 -0.7931  0.2824
  759MOL0     C 2388   5.027   5.240   8.929  0.4095  1.3156 -0.4218
  759MOL0     O 2389   5.135   5.165   8.972  0.0833 -0.4735  0.4137
  759MOL0     C 2390   5.258   5.189   8.904 -0.4197 -0.3702  0.1191
  759MOL0     C 2391   5.370   5.102   8.971  0.3264 -0.3857 -0.4928
  759MOL0     C 2392   5.504   5.101   8.902 -0.7025  0.6172 -0.0909
  759MOL0     C 2393   5.594   5.024   9.000  0.5394 -0.1137 -0.3315
  759MOL0     C 2394   5.731   5.038   8.960 -0.3588 -0.0220 -0.8862
  759MOL0     C 2395   5.845   5.053   8.942 -0.1482 -0.3618  0.7507
  759MOL0     C 2396   5.027   5.381   8.919 -0.4653 -0.2847  0.0033
  759MOL0     C 2397   4.911   5.452   8.865 -0.2184  0.8943  0.4671
  759MOL0     H 2398   4.332   5.360   8.630  0.0998  2.0460 -1.9514
  759MOL0     H 2399   4.119   5.483   8.645 -0.2709  1.4863 -0.8074
  759MOL0     H 2400   3.930   5.561   8.741  1.7907  1.8038 -0.7484
  759MOL0     H 2401   3.981   5.481   8.895 -2.2660 -2.0695 -2.2810
  759MOL0     H 2402   3.789   5.548   8.944 -2.1876 -0.2343 -1.3813
  759MOL0     H 2403   3.886   5.681   9.010  0.0034 -0.3407  0.3696
  759MOL0     H 2404   3.831   5.819   8.823  0.8951 -0.6232 -0.7875
  759MOL0     H 2405   3.748   5.693   8.738  4.1522  0.1959 -1.3180
  759MOL0     H 2406   3.554   5.704   8.887  0.7469 -1.7484  1.7615
  759MOL0     H 2407   3.662   5.768   9.015  0.7850 -0.0430 -0.1066
  759MOL0     H 2408   3.502   5.935   8.938 -1.8696 -0.1716 -2.8584
  759MOL0     H 2409   3.670   5.982   8.885 -1.8300  2.6163 -1.6967
  759MOL0     H 2410   3.605   5.907   8.660 -1.3794  1.6674 -2.1473
  759MOL0     H 2411   3.436   5.858   8.725 -1.1207  0.7175  3.8387
  759MOL0     H 2412   3.370   6.083   8.751  0.2518  0.2577  0.5860
  759MOL0     H 2413   3.538   6.136   8.736 -1.3693 -0.0108  0.5694
  759MOL0     H 2414   3.533   6.062   8.499  2.3959  4.8992  0.5042
  759MOL0     H 2415   3.401   6.184   8.541  0.7308 -0.1922 -0.6991
  759MOL0     H 2416   3.411   5.840   8.360 -1.0985 -2.6077  0.5487
  759MOL0     H 2417   3.188   5.723   8.252 -1.3843  1.8484  1.0379
  759MOL0     H 2418   3.281   5.638   8.384  0.9591 -0.2574 -0.9143
  759MOL0     H 2419   2.982   5.680   8.357 -1.5133  0.6951  2.2163
  759MOL0     H 2420   3.049   5.651   8.513 -3.5957  0.5965 -0.8555
  759MOL0     H 2421   3.168   5.444   8.430  0.4938  0.9527  2.8224
  759MOL0     H 2422   3.097   5.455   8.265 -2.7839 -1.2118  0.3644
  759MOL0     H 2423   2.918   5.422   8.500 -2.8836 -0.5075 -1.0388
  759MOL0     H 2424   2.980   5.294   8.397  0.9149  0.4211  0.9399
  759MOL0     H 2425   2.728   5.293   8.491  1.7790  0.2622 -0.6253
  759MOL0     H 2426   2.495   5.074   8.488  2.3004 -0.1715  2.0136
  759MOL0     H 2427   2.550   5.215   8.582 -0.6663 -0.3901  0.3455
  759MOL0     H 2428   2.397   5.227   8.524  1.5118 -0.1700  5.1175
  759MOL0     H 2429   2.172   5.204   7.894 -0.1851  2.6931 -0.1188
  759MOL0     H 2430   1.933   5.168   7.862 -1.1595  0.4429  1.1461
  759MOL0     H 2431   1.550   5.275   8.090 -0.9236  1.9205 -0.4244
  759MOL0     H 2432   1.667   5.291   8.226 -0.9374 -0.8744  0.3417
  759MOL0     H 2433   1.592   5.490   8.137  0.5715  1.0272 -0.6987
  759MOL0     H 2434   1.770   5.487   8.115  1.3907  0.1034 -2.8165
  759MOL0     H 2435   1.764   5.456   7.890  0.7509  1.1504  2.1019
  759MOL0     H 2436   1.675   5.603   7.935 -0.0510 -0.1637  1.1185
  759MOL0     H 2437   1.526   5.337   7.857 -1.5878 -0.5399  2.5875
  759MOL0     H 2438   1.464   5.481   7.924  1.0095 -1.7167  1.3623
  759MOL0     H 2439   1.565   5.458   7.644 -4.1457 -3.6958 -1.7993
  759MOL0     H 2440   1.551   5.617   7.732 -1.2231  0.1498 -2.0440
  759MOL0     H 2441   1.317   5.576   7.767 -0.5443 -0.3164 -0.3939
  759MOL0     H 2442   1.366   5.574   7.594  1.3684  0.0510 -0.8790
  759MOL0     H 2443   1.323   5.316   7.748 -2.2272 -0.2273  0.1194
  759MOL0     H 2444   1.354   5.335   7.578  0.5072 -1.1270  1.0816
  759MOL0     H 2445   1.099   5.432   7.734 -1.3582  1.4580 -1.4031
  759MOL0     H 2446   1.119   5.292   7.626  1.6106  0.4196 -3.0634
  759MOL0     H 2447   1.881   5.290   8.286 -1.9235 -1.3795 -0.3461
  759MOL0     H 2448   2.118   5.310   8.304 -2.7249 -1.4427  1.7666
  759MOL0     H 2449   2.537   5.265   8.042 -0.4536 -1.6321  2.0972
  759MOL0     H 2450   2.752   5.390   8.076 -0.9200  1.8124  0.7204
  759MOL0     H 2451   4.277   5.721   8.960  0.4837 -1.9380  2.5462
  759MOL0     H 2452   4.509   5.600   8.932  0.0079  2.4748 -0.8399
  759MOL0     H 2453   4.704   5.184   8.838 -0.5828  0.2641  0.9385
  759MOL0     H 2454   4.893   5.062   8.903  4.4372 -1.2478  2.8058
  759MOL0     H 2455   5.250   5.153   8.802 -1.4729 -0.6901  0.3059
  759MOL0     H 2456   5.292   5.293   8.895  2.3676 -1.3313 -1.4494
  759MOL0     H 2457   5.333   5.000   8.982 -2.4656  0.6383  0.4844
  759MOL0     H 2458   5.378   5.141   9.073 -0.6393  3.0080 -1.5894
  759MOL0     H 2459   5.533   5.205   8.888 -1.1762  0.7877  0.2098
  759MOL0     H 2460   5.502   5.055   8.802 -1.3202 -1.6582  0.8925
  759MOL0     H 2461   5.572   4.918   9.016 -0.0232 -0.1175 -1.0668
  759MOL0     H 2462   5.589   5.058   9.104 -0.0370 -5.4661  1.6952
  759MOL0     H 2463   5.946   5.081   8.924  0.0444 -0.5188  1.5211
  759MOL0     H 2464   5.112   5.439   8.955 -2.0377  1.6784  0.7630
  759MOL0     H 2465   4.923   5.559   8.863 -0.2726  0.8948  0.1338
  760MOL0     O 2466   1.948   5.474   9.069 -0.1531 -0.3897 -0.0678
  760MOL0     C 2467   1.928   5.356   9.100  0.5097 -0.9143 -0.0132
  760MOL0     O 2468   1.807   5.291   9.108  0.0347  0.6280 -0.1780
  760MOL0     C 2469   1.694   5.363   9.077  0.3389  0.2021  0.2412
  760MOL0     C 2470   1.622   5.340   8.954 -0.5032  0.0130  0.2005
  760MOL0     C 2471   1.499   5.414   8.922 -0.1562  0.2571  0.0221
  760MOL0     C 2472   1.447   5.499   9.021  0.2630 -0.9356  0.1970
  760MOL0     O 2473   1.322   5.546   8.990  0.4193 -0.6330 -0.0229
  760MOL0     C 2474   1.215   5.532   9.090 -0.5133 -0.8540  0.3961
  760MOL0     C 2475   1.075   5.550   9.022 -0.8524 -0.5608 -0.0041
  760MOL0     C 2476   0.969   5.479   9.112 -0.6144  0.7882  0.0514
  760MOL0     C 2477   0.836   5.463   9.052 -0.4834  0.1597  0.6500
  760MOL0     C 2478   0.748   5.400   9.149  0.0994  0.2449 -0.2395
  760MOL0     C 2479   0.600   5.357   9.105 -0.1693  0.2931  0.1191
  760MOL0     C 2480   0.527   5.276   9.221 -0.2569  0.2699 -0.2482
  760MOL0     C 2481   0.512   5.356   9.348  0.3153 -0.5788  0.7161
  760MOL0     N 2482   0.438   5.484   9.345 -0.8148 -0.1004  0.3670
  760MOL0     C 2483   0.313   5.497   9.298 -0.3287 -0.1111 -0.0772
  760MOL0     C 2484   0.283   5.628   9.325 -0.1477 -0.3479  0.4811
  760MOL0     C 2485   0.158   5.697   9.289 -0.0298 -0.0632 -0.4120
  760MOL0     C 2486   0.075   5.760   9.403  0.3283 -0.4017 -0.3333
  760MOL0     C 2487  -0.052   5.829   9.352  0.4664  0.1311 -0.2678
  760MOL0     C 2488  -0.130   5.881   9.473  0.1421 -0.6409  0.4182
  760MOL0     O 2489  -0.258   5.904   9.409  0.2754 -0.3553 -0.0877
  760MOL0     C 2490  -0.373   5.891   9.479  0.2372 -0.0968  0.1138
  760MOL0     C 2491  -0.375   5.854   9.611 -0.5249 -0.1495  0.9235
  760MOL0     C 2492  -0.494   5.827   9.673 -0.3164  0.1468 -0.5149
  760MOL0     C 2493  -0.469   5.778   9.815 -0.0750  0.4013 -0.1358
  760MOL0     C 2494  -0.623   5.835   9.613 -0.4303  0.5840  0.0999
  760MOL0     C 2495  -0.755   5.823   9.681 -0.8801 -1.0190 -0.0848
  760MOL0     O 2496  -0.866   5.805   9.604 -0.0189  0.2250 -0.0723
  760MOL0     C 2497  -0.986   5.843   9.657 -0.5491 -0.1367  0.4387
  760MOL0     C 2498  -1.045   5.951   9.592  0.0221 -0.1744  0.0676
  760MOL0     C 2499  -1.163   6.010   9.644 -0.3623 -0.4966  0.2944
  760MOL0     C 2500  -1.218   5.961   9.765 -0.6632  0.6448  0.2586
  760MOL0     O 2501  -1.339   6.013   9.806  0.0707 -0.0098  0.7315
  760MOL0     C 2502  -1.445   5.923   9.835 -0.2632  0.3292 -0.1386
  760MOL0     C 2503  -1.577   5.997   9.863  0.5284  0.0705 -0.3237
  760MOL0     C 2504  -1.639   6.060   9.742 -0.1448  0.6589 -0.1551
  760MOL0     C 2505  -1.798   6.094   9.749 -0.4301 -0.3992 -0.3788
  760MOL0     C 2506  -1.835   6.167   9.625  0.1660  0.6025  0.8527
  760MOL0     C 2507  -1.967   6.242   9.646 -0.7016 -0.1315 -0.6000
  760MOL0     C 2508  -2.085   6.136   9.632  0.1443 -0.3487  0.4928
  760MOL0     C 2509  -2.206   6.190   9.699  0.1132 -0.1264 -0.0100
  760MOL0    Cl 2510  -2.214   6.127   9.865  0.3162 -0.2780  0.1664
  760MOL0     C 2511  -1.150   5.854   9.831  0.5600  0.9331  0.4709
  760MOL0     C 2512  -1.042   5.794   9.777 -0.1925  0.3057 -0.1352
  760MOL0     O 2513  -0.762   5.841   9.803 -0.8114  0.0966 -0.4761
  760MOL0     C 2514  -0.624   5.875   9.473 -0.0104 -0.6828 -0.2968
  760MOL0     C 2515  -0.497   5.899   9.421 -0.3569 -1.1307  0.6791
  760MOL0     N 2516   0.394   5.694   9.378 -0.4369  0.4264  0.6962
  760MOL0     N 2517   0.488   5.607   9.390  0.1163  0.8860  0.7089
  760MOL0     C 2518   1.519   5.523   9.141  1.2294  1.2586 -0.4903
  760MOL0     C 2519   1.634   5.442   9.172  0.3204 -0.1585 -0.8894
  760MOL0     C 2520   2.048   5.283   9.137 -0.5571 -0.6420 -0.2735
  760MOL0     C 2521   2.179   5.338   9.124  1.0535  0.1773  0.3789
  760MOL0     C 2522   2.293   5.272   9.171  0.2103 -0.7147  0.1800
  760MOL0     C 2523   2.292   5.148   9.227 -0.0502 -0.0839  0.2525
  760MOL0     O 2524   2.409   5.079   9.243  0.4084  0.2316 -0.6071
  760MOL0     C 2525   2.534   5.139   9.200 -0.0707  0.5486 -0.2220
  760MOL0     C 2526   2.654   5.049   9.242  0.4482  0.4600 -0.5431
  760MOL0     C 2527   2.658   5.005   9.393  0.1304 -0.0094 -0.4566
  760MOL0     C 2528   2.791   4.971   9.451  0.1555 -0.1511  0.6942
  760MOL0     C 2529   2.871   4.900   9.351  0.7686 -0.9628  0.1751
  760MOL0     C 2530   2.937   4.832   9.275  0.3287 -0.3070 -0.3806
  760MOL0     C 2531   2.170   5.083   9.231 -0.1578 -0.5038 -0.4547
  760MOL0     C 2532   2.053   5.148   9.185 -0.4726  0.0873 -0.1634
  760MOL0     H 2533   1.673   5.275   8.884 -1.0378 -0.4501  0.2409
  760MOL0     H 2534   1.445   5.398   8.829 -0.4314 -0.8728  0.3648
  760MOL0     H 2535   1.222   5.430   9.130  3.3919 -1.4412 -1.3030
  760MOL0     H 2536   1.230   5.605   9.170  0.9970 -1.7301  0.9612
  760MOL0     H 2537   1.044   5.652   8.998 -0.2045 -0.1851  0.7024
  760MOL0     H 2538   1.074   5.483   8.936 -3.0376 -0.1324 -0.3468
  760MOL0     H 2539   0.998   5.382   9.152 -6.4385 -2.1948 -1.8723
  760MOL0     H 2540   0.942   5.534   9.203 -3.9998  0.2161 -0.4537
  760MOL0     H 2541   0.799   5.561   9.021  0.7918  1.2248  2.3266
  760MOL0     H 2542   0.844   5.393   8.968  0.5523  0.2599  0.6537
  760MOL0     H 2543   0.800   5.313   9.189 -0.6114 -1.4206 -2.6902
  760MOL0     H 2544   0.738   5.465   9.237 -5.0751 -0.5154  0.0562
  760MOL0     H 2545   0.539   5.446   9.088  0.7133  1.1939  1.5090
  760MOL0     H 2546   0.602   5.300   9.011  1.3704  0.0626  0.2594
  760MOL0     H 2547   0.426   5.246   9.190  0.0371 -0.2217 -0.7342
  760MOL0     H 2548   0.563   5.175   9.239 -0.2870 -0.0561 -1.8722
  760MOL0     H 2549   0.613   5.384   9.380  1.5106 -1.2145 -2.1737
  760MOL0     H 2550   0.452   5.300   9.420 -1.8852  0.3287 -0.2849
  760MOL0     H 2551   0.247   5.427   9.247 -1.1248  0.2962  0.3800
  760MOL0     H 2552   0.183   5.764   9.207  1.3129 -0.1690 -0.1029
  760MOL0     H 2553   0.089   5.628   9.240 -2.5639  1.5919  0.5522
  760MOL0     H 2554   0.143   5.823   9.462 -2.9608  2.0417  1.2131
  760MOL0     H 2555   0.040   5.681   9.471 -1.5714  0.7020  0.0449
  760MOL0     H 2556  -0.113   5.752   9.306  2.8379 -2.4277  0.5751
  760MOL0     H 2557  -0.029   5.919   9.294 -2.6908  3.0374  2.5553
  760MOL0     H 2558  -0.088   5.977   9.505 -1.6150 -0.0959  1.2090
  760MOL0     H 2559  -0.124   5.806   9.552  0.6805 -0.1273  0.8769
  760MOL0     H 2560  -0.279   5.840   9.659 -0.0337 -1.4082 -0.3569
  760MOL0     H 2561  -0.496   5.672   9.821 -1.5150  0.7289 -0.4105
  760MOL0     H 2562  -0.366   5.798   9.846 -0.1186  1.6258 -0.7051
  760MOL0     H 2563  -0.526   5.839   9.885 -1.9220  1.3292 -2.3293
  760MOL0     H 2564  -1.005   5.977   9.495 -1.7597  0.4808 -0.5374
  760MOL0     H 2565  -1.218   6.098   9.611  0.2424  0.0877  0.8166
  760MOL0     H 2566  -1.449   5.843   9.761  0.7457  0.4294 -0.3065
  760MOL0     H 2567  -1.423   5.874   9.931 -0.2860  0.4457 -0.0730
  760MOL0     H 2568  -1.646   5.933   9.919  0.9862  1.4639  1.9275
  760MOL0     H 2569  -1.552   6.073   9.938  0.4997 -0.2518  0.0191
  760MOL0     H 2570  -1.614   5.997   9.656  0.8944 -0.7563  1.1271
  760MOL0     H 2571  -1.598   6.162   9.743  1.7270 -0.0560  0.4358
  760MOL0     H 2572  -1.865   6.007   9.753 -2.8053  1.2951 -1.2547
  760MOL0     H 2573  -1.809   6.148   9.843  1.4914 -0.4630 -0.0778
  760MOL0     H 2574  -1.847   6.094   9.544 -0.0698  0.1367  1.2973
  760MOL0     H 2575  -1.747   6.227   9.602  1.9921 -0.7310  3.8903
  760MOL0     H 2576  -1.962   6.281   9.748  2.7828 -1.3494 -0.1668
  760MOL0     H 2577  -1.979   6.319   9.569 -0.8149 -0.5951 -1.0527
  760MOL0     H 2578  -2.065   6.034   9.667  0.5693 -0.8387 -1.0794
  760MOL0     H 2579  -2.108   6.140   9.525 -2.3213  1.3000  1.0142
  760MOL0     H 2580  -2.296   6.164   9.643  0.9786  1.6686 -2.4255
  760MOL0     H 2581  -2.219   6.299   9.697  0.1963 -0.1185 -0.2345
  760MOL0     H 2582  -1.173   5.805   9.925  0.8183  0.0545  0.0782
  760MOL0     H 2583  -0.993   5.704   9.813 -0.5403 -0.5965 -1.8192
  760MOL0     H 2584  -0.714   5.877   9.412  0.1887 -1.2806 -0.6219
  760MOL0     H 2585  -0.494   5.919   9.314  0.3524  3.8687  1.4046
  760MOL0     H 2586   1.485   5.599   9.210 -2.4572 -1.6628  1.3009
  760MOL0     H 2587   1.686   5.452   9.266 -0.6694 -0.3898 -0.3033
  760MOL0     H 2588   2.188   5.432   9.071 -3.1304  0.4013 -0.3090
  760MOL0     H 2589   2.388   5.322   9.158 -0.0199 -0.0464  0.9493
  760MOL0     H 2590   2.536   5.161   9.093 -0.0436 -1.4001 -0.6690
  760MOL0     H 2591   2.547   5.234   9.252 -0.6382  2.1527 -2.8532
  760MOL0     H 2592   2.742   5.113   9.225  1.1156  0.3479  2.0526
  760MOL0     H 2593   2.654   4.960   9.180  3.4152 -0.1877  0.2131
  760MOL0     H 2594   2.599   4.914   9.400  1.0706 -0.7410 -1.6891
  760MOL0     H 2595   2.608   5.075   9.461 -4.4775 -1.7795 -1.7269
  760MOL0     H 2596   2.780   4.922   9.548 -1.9170  2.1036  1.7163
  760MOL0     H 2597   2.847   5.062   9.477 -1.1275  1.3199 -1.3180
  760MOL0     H 2598   3.014   4.776   9.224  0.6993 -1.3446  1.2497
  760MOL0     H 2599   2.161   4.983   9.272 -1.7852 -0.9266 -1.7334
  760MOL0     H 2600   1.962   5.091   9.197 -1.3245  1.5006  0.3032
  761MOL0     O 2601   5.321   4.930   4.199  0.0549  0.1464  0.0698
  761MOL0     C 2602   5.245   4.831   4.190 -0.3522 -0.3253 -0.3002
  761MOL0     O 2603   5.279   4.705   4.207 -0.1539  0.3210 -0.9172
  761MOL0     C 2604   5.408   4.681   4.234 -0.3906  0.2407 -0.1984
  761MOL0     C 2605   5.438   4.635   4.365 -1.1869 -0.0235  0.9346
  761MOL0     C 2606   5.566   4.575   4.378 -0.4434  0.5710  0.0203
  761MOL0     C 2607   5.650   4.559   4.266  1.0881 -0.0959  0.2668
  761MOL0     O 2608   5.773   4.500   4.294 -0.2050  0.0713  0.3321
  761MOL0     C 2609   5.867   4.471   4.186 -0.2334 -0.3105 -0.2873
  761MOL0     C 2610   5.983   4.386   4.240  0.1143  0.7954  0.5313
  761MOL0     C 2611   5.925   4.253   4.263 -0.6578  0.5607 -0.4171
  761MOL0     C 2612   6.045   4.150   4.265  0.4134 -0.2978  0.3187
  761MOL0     C 2613   6.000   4.009   4.266 -0.3567 -0.2852  0.3532
  761MOL0     C 2614   6.116   3.906   4.236  0.5831 -0.3938  0.3947
  761MOL0     C 2615   6.206   3.896   4.350  1.0551 -0.2723  0.6025
  761MOL0     C 2616   6.346   3.862   4.310  0.1670  0.7312 -0.1222
  761MOL0     N 2617   6.439   3.880   4.425 -0.0082  0.9008  0.1560
  761MOL0     C 2618   6.489   3.993   4.480 -0.5056  1.0328  0.6765
  761MOL0     C 2619   6.584   3.957   4.574 -0.2943 -0.2145 -0.1412
  761MOL0     C 2620   6.667   4.052   4.656  1.1395 -0.4461  0.3357
  761MOL0     C 2621   6.747   4.153   4.570 -0.1063  0.7047 -0.4483
  761MOL0     C 2622   6.767   4.279   4.653  0.7552  0.5007 -0.4952
  761MOL0     C 2623   6.638   4.363   4.664  0.1180 -0.6688 -0.0878
  761MOL0     O 2624   6.549   4.333   4.552  0.1846 -0.0997 -0.1058
  761MOL0     C 2625   6.426   4.394   4.553  0.4200  0.1037  0.6273
  761MOL0     C 2626   6.321   4.357   4.646 -0.0511 -0.0790  0.5495
  761MOL0     C 2627   6.199   4.427   4.650  0.3318  0.2815 -0.7399
  761MOL0     C 2628   6.108   4.376   4.760  0.4715 -0.3711  0.3073
  761MOL0     C 2629   6.173   4.530   4.562 -0.1191  0.3399  0.0240
  761MOL0     C 2630   6.049   4.605   4.567 -0.6241 -0.1859  0.4557
  761MOL0     O 2631   6.051   4.735   4.516 -0.3696 -0.2079  0.5197
  761MOL0     C 2632   5.939   4.803   4.536 -0.1703 -0.2926 -1.1942
  761MOL0     C 2633   5.919   4.892   4.649  0.3957 -0.0458 -0.3785
  761MOL0     C 2634   5.787   4.954   4.668 -0.1586  0.4263  0.7993
  761MOL0     C 2635   5.685   4.940   4.576 -0.9285  0.4637 -0.1237
  761MOL0     O 2636   5.579   5.017   4.602  0.5238  0.7145  0.4813
  761MOL0     C 2637   5.460   4.986   4.529 -0.3415  0.4595 -0.2048
  761MOL0     C 2638   5.370   5.098   4.568 -0.3684  0.7911  1.0138
  761MOL0     C 2639   5.218   5.057   4.562  0.7035  0.4511 -0.1262
  761MOL0     C 2640   5.130   5.176   4.590  0.4742  0.4809  0.7946
  761MOL0     C 2641   4.991   5.161   4.535  0.6005 -0.7126  0.2264
  761MOL0     C 2642   4.909   5.288   4.562 -0.6868 -0.2446  0.0927
  761MOL0     C 2643   4.772   5.278   4.508 -1.1215 -0.2327 -0.3004
  761MOL0     C 2644   4.685   5.402   4.524 -0.9973  0.8635 -0.4152
  761MOL0    Cl 2645   4.526   5.359   4.461  0.0866 -0.0082  0.0176
  761MOL0     C 2646   5.710   4.857   4.465  0.1944  0.4362  0.5859
  761MOL0     C 2647   5.827   4.793   4.445 -0.3835 -0.7116  0.2597
  761MOL0     O 2648   5.948   4.550   4.612  0.0651 -0.4082  0.4849
  761MOL0     C 2649   6.271   4.556   4.459  0.2452 -1.0798  0.8068
  761MOL0     C 2650   6.390   4.480   4.450  0.1708 -0.1371 -0.8491
  761MOL0     N 2651   6.584   3.817   4.582 -0.2729  0.0121  0.2486
  761MOL0     N 2652   6.495   3.775   4.498 -0.8549 -1.4026 -0.2099
  761MOL0     C 2653   5.620   4.610   4.136  0.2897  0.8112 -0.4937
  761MOL0     C 2654   5.497   4.676   4.122 -0.1906 -0.7037 -0.5804
  761MOL0     C 2655   5.101   4.860   4.179 -0.1122  0.9445 -0.9210
  761MOL0     C 2656   5.050   4.990   4.168  0.4300 -0.0843 -0.0991
  761MOL0     C 2657   4.918   5.011   4.113 -0.1582  0.3626 -0.6729
  761MOL0     C 2658   4.831   4.903   4.091  0.2300 -0.7249 -0.5222
  761MOL0     O 2659   4.708   4.910   4.032 -0.0597  0.3966  0.2181
  761MOL0     C 2660   4.644   5.038   4.028  0.1627  0.5322  0.0156
  761MOL0     C 2661   4.597   5.095   4.166  0.2070 -0.2521 -1.1073
  761MOL0     C 2662   4.526   4.996   4.252  0.6249 -0.1333  0.4722
  761MOL0     C 2663   4.378   4.994   4.225  0.6128  0.2005 -0.9082
  761MOL0     C 2664   4.285   5.087   4.307 -0.2792  0.5569  0.2368
  761MOL0     C 2665   4.194   5.145   4.364  0.0386  0.3616 -0.1492
  761MOL0     C 2666   4.880   4.776   4.129 -0.7511  0.4617 -0.3015
  761MOL0     C 2667   5.012   4.748   4.166  0.7579 -0.3450 -0.4681
  761MOL0     H 2668   5.364   4.634   4.445  0.1669  2.0965  2.2986
  761MOL0     H 2669   5.589   4.531   4.475 -1.4402  0.5005  0.2382
  761MOL0     H 2670   5.811   4.419   4.107  0.7874 -1.4820 -0.2664
  761MOL0     H 2671   5.905   4.562   4.139  0.1994 -0.3973 -0.1046
  761MOL0     H 2672   6.067   4.391   4.169 -0.0404 -1.6209  0.1076
  761MOL0     H 2673   6.018   4.427   4.335  0.6004  3.4791 -0.6821
  761MOL0     H 2674   5.871   4.244   4.358 -2.8068  2.2719 -1.3993
  761MOL0     H 2675   5.848   4.227   4.190 -3.4721  3.0736  1.4266
  761MOL0     H 2676   6.113   4.163   4.180 -1.1179 -1.3844 -1.1698
  761MOL0     H 2677   6.109   4.167   4.351  0.2068  3.0633 -0.0504
  761MOL0     H 2678   5.953   3.984   4.361  1.4110  0.9164  1.5955
  761MOL0     H 2679   5.929   3.997   4.184 -0.9653 -0.4717  0.9011
  761MOL0     H 2680   6.092   3.800   4.225  1.5747 -0.5640 -0.1301
  761MOL0     H 2681   6.158   3.950   4.146 -2.4240  3.5880  0.6369
  761MOL0     H 2682   6.216   3.993   4.399 -2.1518  0.4373  0.0729
  761MOL0     H 2683   6.177   3.822   4.426  2.2719 -0.7626  0.6143
  761MOL0     H 2684   6.376   3.928   4.229 -0.8616  2.0767  0.5546
  761MOL0     H 2685   6.359   3.760   4.271 -3.4070 -0.6910  1.8451
  761MOL0     H 2686   6.471   4.095   4.448  2.6952  1.9677  1.5153
  761MOL0     H 2687   6.601   4.105   4.726  0.1839 -1.5575  0.3100
  761MOL0     H 2688   6.735   3.995   4.719 -1.4610 -1.0860  2.7953
  761MOL0     H 2689   6.709   4.176   4.470 -1.5220 -2.2227 -0.6982
  761MOL0     H 2690   6.846   4.108   4.555 -0.5264 -0.0728 -0.9595
  761MOL0     H 2691   6.839   4.347   4.606  0.5668  2.5094  1.9082
  761MOL0     H 2692   6.802   4.264   4.756 -0.1364 -0.3675 -0.3014
  761MOL0     H 2693   6.662   4.469   4.675  1.1790 -1.0221  1.4275
  761MOL0     H 2694   6.600   4.326   4.760  1.7054 -2.3887 -0.0505
  761MOL0     H 2695   6.342   4.279   4.719  2.2327  1.8929  2.1523
  761MOL0     H 2696   6.027   4.323   4.710  0.3936 -0.5340  0.6011
  761MOL0     H 2697   6.160   4.306   4.827  2.2328 -2.2124 -2.7798
  761MOL0     H 2698   6.056   4.453   4.818  1.0641  1.0260 -0.9602
  761MOL0     H 2699   5.996   4.910   4.723 -1.4161 -0.5969  1.7238
  761MOL0     H 2700   5.772   5.017   4.756  1.2411 -0.5510  1.7760
  761MOL0     H 2701   5.472   4.983   4.420 -1.2047  1.9176 -0.3664
  761MOL0     H 2702   5.419   4.892   4.566  0.5089  1.2470  3.0732
  761MOL0     H 2703   5.401   5.132   4.668  2.9267 -0.3581  0.5136
  761MOL0     H 2704   5.385   5.188   4.508 -2.5097  0.3881 -0.1996
  761MOL0     H 2705   5.173   4.994   4.639 -1.8170  0.0736 -1.7741
  761MOL0     H 2706   5.197   5.005   4.468 -1.5342  2.5076 -0.8834
  761MOL0     H 2707   5.134   5.178   4.699  1.6812  1.7981  0.7571
  761MOL0     H 2708   5.173   5.267   4.546 -0.2202 -0.5401 -2.2412
  761MOL0     H 2709   4.940   5.074   4.576 -1.9630  0.0685 -1.0816
  761MOL0     H 2710   5.008   5.147   4.428  1.0930 -3.1576  0.5734
  761MOL0     H 2711   4.898   5.298   4.671 -0.3053  1.4658 -0.0013
  761MOL0     H 2712   4.944   5.376   4.508 -1.7954  0.1566  0.0147
  761MOL0     H 2713   4.717   5.201   4.563 -2.4421 -1.5724 -3.2801
  761MOL0     H 2714   4.782   5.254   4.401  1.8976  2.4093 -0.7829
  761MOL0     H 2715   4.739   5.476   4.465  1.5167 -2.8626 -3.2756
  761MOL0     H 2716   4.683   5.442   4.626  0.5634 -0.2958  0.1160
  761MOL0     H 2717   5.635   4.840   4.389  1.9931 -0.8285 -0.9957
  761MOL0     H 2718   5.830   4.727   4.358  0.5821 -0.5456  0.1537
  761MOL0     H 2719   6.245   4.636   4.392 -1.4198 -2.1851  0.0616
  761MOL0     H 2720   6.462   4.491   4.369  0.7069  4.4860 -0.0409
  761MOL0     H 2721   5.688   4.601   4.052 -1.0938 -1.1068 -1.4752
  761MOL0     H 2722   5.468   4.699   4.020 -1.2041 -0.6083 -0.2868
  761MOL0     H 2723   5.120   5.071   4.183 -0.1892  0.0713  2.2220
  761MOL0     H 2724   4.890   5.116   4.103  2.6460  1.2457  0.0467
  761MOL0     H 2725   4.705   5.108   3.969  0.5811  0.3912  0.2750
  761MOL0     H 2726   4.554   5.030   3.966 -1.5198  1.2487  2.2543
  761MOL0     H 2727   4.523   5.176   4.164  0.6027  0.8909  5.6736
  761MOL0     H 2728   4.685   5.141   4.212 -0.6268  2.8048 -2.2965
  761MOL0     H 2729   4.550   5.020   4.356  4.2315  0.5197 -0.3738
  761MOL0     H 2730   4.562   4.893   4.242  3.8566  0.7660  1.6187
  761MOL0     H 2731   4.343   4.892   4.243  2.7743 -0.7456 -1.7062
  761MOL0     H 2732   4.357   5.010   4.118 -3.7306  1.7325 -0.0323
  761MOL0     H 2733   4.125   5.207   4.417  1.2785  0.2928  1.6351
  761MOL0     H 2734   4.817   4.691   4.104  2.0068 -0.8356 -3.4712
  761MOL0     H 2735   5.049   4.647   4.185  1.2423  0.1139  1.1792
  762MOL0     O 2736   7.184   2.382   7.407 -0.3366 -0.0267  0.5001
  762MOL0     C 2737   7.175   2.400   7.284 -0.4196 -0.1960  0.5483
  762MOL0     O 2738   7.059   2.405   7.213 -0.4081 -0.5957  0.1100
  762MOL0     C 2739   6.942   2.387   7.285 -1.6664 -1.0772 -0.4667
  762MOL0     C 2740   6.887   2.500   7.357 -0.2050  0.5036  0.9861
  762MOL0     C 2741   6.760   2.488   7.411 -0.8291 -0.4774  0.1171
  762MOL0     C 2742   6.694   2.370   7.406  0.6273  0.7189  0.7086
  762MOL0     O 2743   6.561   2.356   7.450 -0.8730 -1.1467 -0.9627
  762MOL0     C 2744   6.479   2.243   7.416 -0.0371  0.6238  0.4624
  762MOL0     C 2745   6.332   2.281   7.452  0.7816 -0.2919  1.1114
  762MOL0     C 2746   6.308   2.334   7.588 -0.3474 -0.4778  0.0998
  762MOL0     C 2747   6.167   2.394   7.591 -0.9849  0.0462 -0.6188
  762MOL0     C 2748   6.152   2.456   7.734 -0.3704  0.5810  0.7686
  762MOL0     C 2749   6.028   2.542   7.744  0.0205  0.1768 -0.2519
  762MOL0     C 2750   6.011   2.582   7.892  0.3065 -0.5319  0.0327
  762MOL0     C 2751   5.873   2.663   7.914 -0.4051 -0.4540 -0.2974
  762MOL0     N 2752   5.749   2.609   7.866  0.4813 -0.0535 -0.3269
  762MOL0     C 2753   5.697   2.640   7.749 -0.5787 -0.1524  0.2688
  762MOL0     C 2754   5.579   2.579   7.738 -0.5614 -0.2554 -0.7246
  762MOL0     C 2755   5.487   2.587   7.626 -0.3646  0.4602 -0.0539
  762MOL0     C 2756   5.436   2.453   7.577 -0.1567 -0.4731  0.0923
  762MOL0     C 2757   5.553   2.345   7.544 -0.7979  0.4832  0.8209
  762MOL0     C 2758   5.662   2.395   7.444  0.4272  1.2858 -0.0575
  762MOL0     O 2759   5.747   2.281   7.413 -0.4610 -0.0001  0.2915
  762MOL0     C 2760   5.862   2.292   7.338  0.4873 -0.1718  0.3190
  762MOL0     C 2761   5.910   2.176   7.282  0.0181  0.2782 -0.1762
  762MOL0     C 2762   6.036   2.169   7.228  1.0153  0.1780  0.3362
  762MOL0     C 2763   6.080   2.032   7.171 -0.3098  0.1529 -0.1637
  762MOL0     C 2764   6.108   2.293   7.218  0.9475 -0.6128  0.0402
  762MOL0     C 2765   6.241   2.312   7.153  0.2085  0.8877  0.0296
  762MOL0     O 2766   6.284   2.434   7.137 -0.9470  0.2537  0.3159
  762MOL0     C 2767   6.399   2.454   7.061  0.7550  0.1083 -0.4327
  762MOL0     C 2768   6.401   2.446   6.917 -0.0504 -0.4751  0.4869
  762MOL0     C 2769   6.528   2.458   6.856  0.4444 -0.9179 -0.4011
  762MOL0     C 2770   6.651   2.470   6.923 -0.1298 -0.9975  0.5348
  762MOL0     O 2771   6.759   2.478   6.844  0.2691  0.0654 -0.1758
  762MOL0     C 2772   6.793   2.619   6.816  0.0616 -0.7237  0.0770
  762MOL0     C 2773   6.930   2.621   6.734 -0.2297  0.3964 -0.1296
  762MOL0     C 2774   7.009   2.750   6.741 -0.2708  0.0648 -0.1503
  762MOL0     C 2775   7.144   2.729   6.670 -0.0068 -0.1004 -0.8224
  762MOL0     C 2776   7.230   2.855   6.678  0.0345 -0.9024  0.1692
  762MOL0     C 2777   7.376   2.822   6.660  0.5108 -0.3627  0.9997
  762MOL0     C 2778   7.473   2.936   6.654 -0.4367  0.6189 -0.4956
  762MOL0     C 2779   7.473   3.035   6.766  0.3114  0.3238  0.4556
  762MOL0    Cl 2780   7.517   2.977   6.928 -0.3722  0.2116  0.2990
  762MOL0     C 2781   6.644   2.480   7.062 -0.4025 -0.2545  0.0817
  762MOL0     C 2782   6.520   2.470   7.133 -0.1370 -0.0980  0.3242
  762MOL0     O 2783   6.307   2.209   7.140  0.0333  0.0036 -0.2602
  762MOL0     C 2784   6.050   2.403   7.268 -0.4292  0.5099  0.1531
  762MOL0     C 2785   5.939   2.404   7.330  1.2633 -0.1698 -0.8142
  762MOL0     N 2786   5.564   2.502   7.850 -0.2200 -0.4466  0.6638
  762MOL0     N 2787   5.664   2.516   7.923 -0.4762  0.2842 -0.1294
  762MOL0     C 2788   6.764   2.260   7.339  0.7133  0.2262 -0.7212
  762MOL0     C 2789   6.885   2.266   7.283  0.8662 -1.0551  0.0128
  762MOL0     C 2790   7.306   2.394   7.197 -0.0221 -0.8999  0.0015
  762MOL0     C 2791   7.298   2.371   7.057  0.2207  0.0664  0.1088
  762MOL0     C 2792   7.411   2.384   6.981  0.3776 -0.3167  0.1486
  762MOL0     C 2793   7.530   2.421   7.037 -0.0867  0.7874 -0.4240
  762MOL0     O 2794   7.643   2.418   6.960 -0.1834 -0.3134  0.0253
  762MOL0     C 2795   7.656   2.547   6.889  0.1601  0.4837 -0.0321
  762MOL0     C 2796   7.726   2.652   6.965 -0.9450 -0.3056 -0.0780
  762MOL0     C 2797   7.865   2.603   6.995  0.0277  0.0218 -0.9189
  762MOL0     C 2798   7.948   2.706   7.076 -0.5734 -0.2622 -0.7200
  762MOL0     C 2799   8.074   2.650   7.131  0.3658  0.2519 -0.0773
  762MOL0     C 2800   8.174   2.605   7.168  0.3914  0.0672  0.3134
  762MOL0     C 2801   7.547   2.436   7.167  0.1512  0.0345 -0.5390
  762MOL0     C 2802   7.432   2.432   7.248 -0.0850  0.1869  0.5363
  762MOL0     H 2803   6.931   2.599   7.357  1.9377 -0.3892  0.8306
  762MOL0     H 2804   6.710   2.570   7.462 -1.5580 -1.1615  0.5309
  762MOL0     H 2805   6.482   2.220   7.309 -0.5564 -0.5317  0.6864
  762MOL0     H 2806   6.506   2.155   7.475 -0.3860  0.6953  0.7330
  762MOL0     H 2807   6.296   2.358   7.382  0.9202 -0.7177  0.5687
  762MOL0     H 2808   6.273   2.190   7.439 -0.1786  0.4903 -0.2036
  762MOL0     H 2809   6.313   2.254   7.663 -0.3652  0.5230  1.2089
  762MOL0     H 2810   6.385   2.409   7.610 -0.3214 -0.3587 -0.4050
  762MOL0     H 2811   6.172   2.479   7.521  1.8489  0.6291  0.1391
  762MOL0     H 2812   6.085   2.325   7.570 -1.8390  0.6090  0.7589
  762MOL0     H 2813   6.145   2.374   7.807 -1.2785 -0.3945 -0.3595
  762MOL0     H 2814   6.234   2.522   7.760 -0.1663  1.1616 -1.1776
  762MOL0     H 2815   6.044   2.634   7.687  0.4692 -0.0312 -0.4626
  762MOL0     H 2816   5.935   2.498   7.707 -0.0605 -0.4456  0.6862
  762MOL0     H 2817   6.020   2.492   7.954  2.4467 -1.1969 -1.1359
  762MOL0     H 2818   6.096   2.644   7.922 -0.4499  1.2476 -1.3409
  762MOL0     H 2819   5.887   2.764   7.873  0.0604  0.5593  2.2087
  762MOL0     H 2820   5.859   2.673   8.022  4.6086 -0.3907  0.5873
  762MOL0     H 2821   5.744   2.700   7.672  1.5585 -1.7814  0.2262
  762MOL0     H 2822   5.402   2.639   7.673 -0.3495 -1.9745  3.0565
  762MOL0     H 2823   5.521   2.654   7.546  0.0591 -1.6063 -1.6723
  762MOL0     H 2824   5.377   2.481   7.489 -0.4993  0.9073  0.7280
  762MOL0     H 2825   5.370   2.407   7.651 -1.9978 -1.3186 -1.9259
  762MOL0     H 2826   5.511   2.259   7.493 -1.7732 -0.7184  3.4604
  762MOL0     H 2827   5.607   2.309   7.632  0.3189  0.7949  0.2838
  762MOL0     H 2828   5.709   2.481   7.493 -2.5331  2.9669  0.0751
  762MOL0     H 2829   5.616   2.434   7.352  1.9123  1.1458 -0.9066
  762MOL0     H 2830   5.842   2.091   7.288  0.1360  0.1573 -0.5662
  762MOL0     H 2831   6.081   2.035   7.061  0.6311 -1.0254 -0.2146
  762MOL0     H 2832   6.183   2.016   7.206  0.7464  3.0400 -1.5855
  762MOL0     H 2833   6.029   1.944   7.210 -1.0522  0.6610  0.0226
  762MOL0     H 2834   6.306   2.431   6.866 -1.7228  0.5490  3.0709
  762MOL0     H 2835   6.523   2.459   6.747  0.4755 -1.0413 -0.4034
  762MOL0     H 2836   6.720   2.673   6.756  2.0747  1.2559 -0.7141
  762MOL0     H 2837   6.813   2.673   6.909 -2.9800 -0.4086  0.6531
  762MOL0     H 2838   7.012   2.559   6.770  0.8160  2.0187  0.4215
  762MOL0     H 2839   6.912   2.602   6.628  3.5581 -0.9640 -0.6915
  762MOL0     H 2840   7.025   2.767   6.848  3.3620 -2.2040 -0.1122
  762MOL0     H 2841   6.947   2.828   6.698 -0.0678 -0.2837 -1.0990
  762MOL0     H 2842   7.200   2.648   6.718  0.0512  0.7295  0.5578
  762MOL0     H 2843   7.144   2.698   6.565  2.1195  0.8943 -1.1819
  762MOL0     H 2844   7.220   2.904   6.774  2.6417  0.7772 -0.3219
  762MOL0     H 2845   7.209   2.929   6.600  2.7135  1.0809  1.2052
  762MOL0     H 2846   7.403   2.750   6.738  2.1471 -0.8528  0.0479
  762MOL0     H 2847   7.377   2.776   6.561 -0.8853  0.2918  0.6536
  762MOL0     H 2848   7.441   2.981   6.560  1.7165  1.8787 -0.6873
  762MOL0     H 2849   7.577   2.907   6.637 -0.5925 -0.9190  0.9328
  762MOL0     H 2850   7.371   3.074   6.775 -0.1468 -1.0809  1.8245
  762MOL0     H 2851   7.544   3.114   6.739  1.1342 -0.9540 -1.2789
  762MOL0     H 2852   6.731   2.497   7.123 -0.7176  0.5767  0.3168
  762MOL0     H 2853   6.517   2.473   7.242 -0.1061 -1.0238  0.3608
  762MOL0     H 2854   6.106   2.496   7.267 -1.8490  1.4447 -1.7673
  762MOL0     H 2855   5.916   2.494   7.386 -1.5718 -1.3405  0.0791
  762MOL0     H 2856   6.706   2.169   7.334 -3.2700  2.2324  2.4910
  762MOL0     H 2857   6.940   2.187   7.233 -2.2677 -3.9067  0.6658
  762MOL0     H 2858   7.205   2.333   7.014 -0.6970  0.6811  1.4908
  762MOL0     H 2859   7.424   2.351   6.878  2.1219  0.3776  0.1106
  762MOL0     H 2860   7.713   2.521   6.800  2.0173 -0.6242  1.4002
  762MOL0     H 2861   7.566   2.589   6.845  1.6710  1.0846 -2.7667
  762MOL0     H 2862   7.670   2.676   7.055 -0.8132 -0.5029  0.0582
  762MOL0     H 2863   7.723   2.741   6.901 -4.0212 -0.3419 -0.1119
  762MOL0     H 2864   7.915   2.574   6.903  1.9021 -0.7444  0.2813
  762MOL0     H 2865   7.856   2.515   7.059 -2.4202  1.1832  0.4670
  762MOL0     H 2866   7.891   2.731   7.167  3.1657 -1.7945  2.3183
  762MOL0     H 2867   7.976   2.801   7.030  0.7851  0.5385  1.5951
  762MOL0     H 2868   8.263   2.563   7.211  1.1256 -0.7802 -1.8861
  762MOL0     H 2869   7.643   2.461   7.211  1.1960 -0.9685 -2.1577
  762MOL0     H 2870   7.432   2.466   7.351 -0.6954 -2.6221  1.5417
  763MOL0     O 2871   6.802   4.256   9.690 -0.0776 -0.1124 -0.7779
  763MOL0     C 2872   6.835   4.240   9.812  0.0292 -0.6745 -0.0589
  763MOL0     O 2873   6.753   4.210   9.913 -0.5065 -0.0021  0.2756
  763MOL0     C 2874   6.629   4.168   9.888 -0.4792 -0.0698 -0.2616
  763MOL0     C 2875   6.530   4.250   9.937  0.2172  0.2147  0.0749
  763MOL0     C 2876   6.394   4.213   9.914 -0.5308  0.5864 -0.2073
  763MOL0     C 2877   6.367   4.094   9.849 -0.3306  0.9145  0.0572
  763MOL0     O 2878   6.244   4.037   9.843  0.0673 -0.5770 -0.1785
  763MOL0     C 2879   6.128   4.087   9.911 -0.3849  0.0918 -0.1167
  763MOL0     C 2880   5.995   4.032   9.850  0.1514  0.5840  0.5972
  763MOL0     C 2881   5.869   4.084   9.937 -0.6126  0.1782 -0.4833
  763MOL0     C 2882   5.742   4.051   9.858  0.4604 -0.0547  0.4180
  763MOL0     C 2883   5.609   4.087   9.908  0.3638  0.6273  0.6152
  763MOL0     C 2884   5.589   4.005  10.030 -0.8686 -0.4482 -0.3035
  763MOL0     C 2885   5.449   3.999  10.071 -0.8611 -0.9803 -0.3648
  763MOL0     C 2886   5.381   4.137  10.112 -0.9355 -0.9381 -0.1716
  763MOL0     N 2887   5.234   4.127  10.126  0.0994  0.4403 -0.1540
  763MOL0     C 2888   5.153   4.079  10.027 -0.4277 -0.3720 -0.2256
  763MOL0     C 2889   5.026   4.091  10.094  0.9304  0.0269 -0.3623
  763MOL0     C 2890   4.899   4.041  10.041  0.5132  0.3032 -0.3528
  763MOL0     C 2891   4.766   4.114  10.080  0.5944  0.4628  0.1292
  763MOL0     C 2892   4.762   4.265  10.039  0.0909 -0.4171  0.8097
  763MOL0     C 2893   4.654   4.344  10.116  0.4779  0.0182  0.3514
  763MOL0     O 2894   4.534   4.318  10.047  0.5794  0.1513  0.6940
  763MOL0     C 2895   4.419   4.369  10.089 -0.5338 -0.1045  0.3887
  763MOL0     C 2896   4.308   4.334  10.014  0.2597  0.0294 -0.2420
  763MOL0     C 2897   4.180   4.383  10.045  0.1480  0.5538 -0.0302
  763MOL0     C 2898   4.063   4.334   9.957  0.5494 -0.6760 -1.2011
  763MOL0     C 2899   4.160   4.465  10.156 -0.5585  0.4387  0.9464
  763MOL0     C 2900   4.026   4.509  10.206 -0.2056 -0.1755  0.5810
  763MOL0     O 2901   3.920   4.434  10.178  0.4910 -0.3779 -0.6791
  763MOL0     C 2902   3.812   4.432  10.260 -0.3185  0.9447 -0.2575
  763MOL0     C 2903   3.822   4.444  10.393  0.1920  0.3791  0.0026
  763MOL0     C 2904   3.710   4.440  10.476 -0.0127  0.3256  0.6678
  763MOL0     C 2905   3.583   4.419  10.415 -0.2226 -1.0322 -0.0885
  763MOL0     O 2906   3.480   4.412  10.503  0.4093 -0.0739  0.0284
  763MOL0     C 2907   3.360   4.467  10.449 -0.3052 -0.0509 -0.1794
  763MOL0     C 2908   3.268   4.478  10.562  0.9403 -0.0401  0.1906
  763MOL0     C 2909   3.129   4.506  10.504 -0.3149  0.6627 -0.4089
  763MOL0     C 2910   3.023   4.501  10.625 -0.1743  0.6127  0.9413
  763MOL0     C 2911   2.891   4.561  10.570  0.0949  0.1417  0.0751
  763MOL0     C 2912   2.781   4.571  10.673  0.2349  0.8582  0.3849
  763MOL0     C 2913   2.663   4.672  10.640 -0.2514 -0.2893  0.3989
  763MOL0     C 2914   2.551   4.675  10.739 -1.1066 -0.0592 -0.1507
  763MOL0    Cl 2915   2.440   4.822  10.741  0.2787  0.1690  0.2243
  763MOL0     C 2916   3.576   4.389  10.274  0.4353  0.4601 -1.4588
  763MOL0     C 2917   3.690   4.401  10.200 -0.0424 -0.3427 -0.4585
  763MOL0     O 2918   4.028   4.610  10.275  0.4200 -0.6208 -0.3695
  763MOL0     C 2919   4.276   4.494  10.234  0.5770  0.3849  0.7252
  763MOL0     C 2920   4.405   4.461  10.191  1.3500 -0.1951 -0.1212
  763MOL0     N 2921   5.047   4.149  10.223  0.2537  0.0685 -0.4060
  763MOL0     N 2922   5.171   4.166  10.239  0.1883 -0.0359  1.0970
  763MOL0     C 2923   6.472   4.007   9.808  0.3174 -0.5381 -0.5393
  763MOL0     C 2924   6.606   4.044   9.832  0.2832 -0.5958  0.1904
  763MOL0     C 2925   6.987   4.241   9.839 -0.5276 -0.3796  0.1794
  763MOL0     C 2926   7.042   4.225   9.969 -0.0486  0.3005 -0.9225
  763MOL0     C 2927   7.175   4.211  10.003 -0.4642  0.3374 -0.3150
  763MOL0     C 2928   7.271   4.227   9.904  0.1752 -0.6080 -0.3122
  763MOL0     O 2929   7.405   4.221   9.942  0.5032  1.0025  0.0006
  763MOL0     C 2930   7.502   4.249   9.841 -0.0468 -0.3696 -0.1027
  763MOL0     C 2931   7.633   4.253   9.900  0.1105  0.3638 -0.5763
  763MOL0     C 2932   7.652   4.368  10.003 -0.7227  0.3212  0.4015
  763MOL0     C 2933   7.774   4.452   9.973  0.0073  0.6185 -0.6346
  763MOL0     C 2934   7.755   4.526   9.842 -0.1031 -0.6174 -0.2397
  763MOL0     C 2935   7.742   4.584   9.734  0.3945  0.4071 -0.9202
  763MOL0     C 2936   7.225   4.246   9.772 -0.8751 -0.3812 -0.3446
  763MOL0     C 2937   7.088   4.249   9.734  0.1408 -0.0376  0.3391
  763MOL0     H 2938   6.553   4.346   9.981  0.8488  1.4252 -2.6994
  763MOL0     H 2939   6.318   4.277   9.957 -1.2121  1.5570 -2.6884
  763MOL0     H 2940   6.137   4.039  10.008  1.9588  2.0979  0.7766
  763MOL0     H 2941   6.124   4.196   9.908 -0.3788  0.0786 -1.9725
  763MOL0     H 2942   5.995   4.061   9.744 -0.0720 -0.0965  0.4065
  763MOL0     H 2943   5.995   3.924   9.868  1.9952  0.5444  0.5030
  763MOL0     H 2944   5.866   4.033  10.034 -1.3805  0.7530 -0.1876
  763MOL0     H 2945   5.884   4.191   9.957 -1.7602 -0.2319  3.2381
  763MOL0     H 2946   5.756   4.096   9.760  1.3112 -0.1090  0.5013
  763MOL0     H 2947   5.738   3.945   9.832  0.0999  0.8629 -3.8859
  763MOL0     H 2948   5.601   4.196   9.913 -2.4446  0.6093 -1.1567
  763MOL0     H 2949   5.534   4.060   9.834 -0.0768  2.2899  0.4020
  763MOL0     H 2950   5.616   3.902  10.004 -2.0550 -1.3078  1.6911
  763MOL0     H 2951   5.640   4.044  10.118 -0.9598 -1.7196  0.3432
  763MOL0     H 2952   5.386   3.954   9.994 -0.7460  0.8108 -1.5879
  763MOL0     H 2953   5.452   3.940  10.163  0.7356  0.4536  0.5831
  763MOL0     H 2954   5.410   4.209  10.035 -1.6478 -0.0654  0.3531
  763MOL0     H 2955   5.421   4.168  10.208 -0.5582  0.0356 -0.6281
  763MOL0     H 2956   5.182   4.043   9.929  2.6341  0.4953  0.2403
  763MOL0     H 2957   4.911   4.043   9.932  1.4086 -2.1082 -0.3785
  763MOL0     H 2958   4.884   3.938  10.075  2.9466  0.5803  1.7945
  763MOL0     H 2959   4.740   4.102  10.186  1.7874 -2.8136  0.1714
  763MOL0     H 2960   4.691   4.056  10.026  1.6943 -1.2812  0.3968
  763MOL0     H 2961   4.737   4.270   9.933  0.8646  0.5973  0.6656
  763MOL0     H 2962   4.855   4.320  10.053  0.6020 -1.2436  0.7230
  763MOL0     H 2963   4.675   4.451  10.128  0.2927  0.0036  0.7963
  763MOL0     H 2964   4.647   4.310  10.219 -0.2167  3.1916  1.4792
  763MOL0     H 2965   4.321   4.263   9.933  1.4854 -0.4594  0.3605
  763MOL0     H 2966   4.018   4.242   9.998 -1.0700  1.6021  2.7092
  763MOL0     H 2967   3.979   4.403   9.950  0.1405 -1.3408 -3.4717
  763MOL0     H 2968   4.093   4.328   9.852  4.6192  1.2822 -0.3561
  763MOL0     H 2969   3.918   4.460  10.443  0.5596 -1.9272  0.1286
  763MOL0     H 2970   3.717   4.452  10.584  1.2159  0.8069  0.5447
  763MOL0     H 2971   3.371   4.566  10.404 -1.6819  0.4176  0.4602
  763MOL0     H 2972   3.317   4.403  10.371 -0.8363  0.9868 -0.7622
  763MOL0     H 2973   3.274   4.391  10.628  2.9473 -0.5878 -0.6439
  763MOL0     H 2974   3.290   4.562  10.628 -1.3497 -0.9706  2.3068
  763MOL0     H 2975   3.111   4.421  10.438 -1.9455 -2.8032  3.9941
  763MOL0     H 2976   3.108   4.601  10.455 -2.5356 -1.5117 -4.0856
  763MOL0     H 2977   3.016   4.393  10.639 -2.9156  0.3631 -1.5351
  763MOL0     H 2978   3.062   4.549  10.716  1.4472 -1.9039  1.6735
  763MOL0     H 2979   2.858   4.520  10.475 -0.8771  0.6762  0.1707
  763MOL0     H 2980   2.930   4.660  10.546  2.7709 -1.0710 -1.0006
  763MOL0     H 2981   2.737   4.471  10.684  0.7094  0.9223  4.0130
  763MOL0     H 2982   2.827   4.600  10.768 -0.1850  2.8934 -0.0025
  763MOL0     H 2983   2.626   4.641  10.542 -3.0180 -2.7417  2.0506
  763MOL0     H 2984   2.704   4.773  10.627 -1.9319  0.1535 -2.3946
  763MOL0     H 2985   2.614   4.678  10.829 -0.4876 -1.5752 -0.4945
  763MOL0     H 2986   2.503   4.577  10.745 -1.5904  0.2408  1.5748
  763MOL0     H 2987   3.486   4.360  10.220  0.3555  0.9512 -1.5891
  763MOL0     H 2988   3.694   4.385  10.093  0.5355 -1.5215 -0.2686
  763MOL0     H 2989   4.268   4.554  10.324  2.8330 -0.0536  1.2846
  763MOL0     H 2990   4.490   4.499  10.247 -1.0984  2.1841  2.3146
  763MOL0     H 2991   6.453   3.912   9.759  0.4673 -2.7071  3.2181
  763MOL0     H 2992   6.684   3.968   9.824 -1.1277 -2.2044  1.0442
  763MOL0     H 2993   6.980   4.218  10.058 -0.0572  2.9715 -0.6453
  763MOL0     H 2994   7.214   4.195  10.103 -0.1264 -3.0323 -0.8770
  763MOL0     H 2995   7.495   4.178   9.758 -2.7543  0.5988 -0.8033
  763MOL0     H 2996   7.488   4.348   9.798  1.2969  0.0604  0.3913
  763MOL0     H 2997   7.714   4.259   9.827  0.9855 -2.0856  0.0703
  763MOL0     H 2998   7.651   4.156   9.948  2.6163  0.8054 -0.4900
  763MOL0     H 2999   7.643   4.337  10.107  0.8326  2.6436  1.3250
  763MOL0     H 3000   7.566   4.435   9.995 -1.3991 -0.3133  2.0083
  763MOL0     H 3001   7.854   4.383   9.947  0.6885  2.2382 -3.1960
  763MOL0     H 3002   7.784   4.526  10.053 -5.1246  2.5879 -1.4023
  763MOL0     H 3003   7.705   4.622   9.641 -0.0186  2.4664  0.0413
  763MOL0     H 3004   7.292   4.255   9.688 -2.3971  2.8716 -1.3899
  763MOL0     H 3005   7.060   4.267   9.631  1.8796 -1.2942 -0.4075
  764MOL0     O 3006  10.224   9.396   2.188  0.4784 -0.3845 -0.5179
  764MOL0     C 3007  10.192   9.292   2.252 -0.0177  1.0911 -0.2845
  764MOL0     O 3008  10.081   9.276   2.337 -0.4303 -0.2827  0.1565
  764MOL0     C 3009   9.999   9.388   2.362 -0.2324 -0.1598 -0.2025
  764MOL0     C 3010   9.936   9.451   2.251  0.2504 -0.3759 -0.3185
  764MOL0     C 3011   9.847   9.559   2.279 -0.4309  0.3819  0.6169
  764MOL0     C 3012   9.815   9.604   2.417 -0.3646 -0.4156  0.2541
  764MOL0     O 3013   9.746   9.717   2.459  0.1102  0.5748  0.4923
  764MOL0     C 3014   9.716   9.812   2.366  0.3971  0.5872  0.4617
  764MOL0     C 3015   9.597   9.771   2.273  0.3564 -0.3748 -0.7271
  764MOL0     C 3016   9.464   9.788   2.349 -0.4021 -0.3130 -0.0070
  764MOL0     C 3017   9.360   9.730   2.260  0.0152  0.3968  0.1139
  764MOL0     C 3018   9.218   9.782   2.296 -0.1956  0.5519 -0.3877
  764MOL0     C 3019   9.117   9.725   2.204  0.4671 -0.3769  0.1284
  764MOL0     C 3020   8.970   9.748   2.239  0.7068  0.3474  0.3752
  764MOL0     C 3021   8.938   9.893   2.265 -0.1189  0.6750 -0.4155
  764MOL0     N 3022   8.860   9.923   2.392 -0.1670 -0.6943 -0.1597
  764MOL0     C 3023   8.863  10.036   2.473  0.2271 -0.0834 -0.0469
  764MOL0     C 3024   8.751  10.028   2.555 -0.5507 -0.3895  1.2236
  764MOL0     C 3025   8.711  10.112   2.678 -0.2878  0.4664  0.4799
  764MOL0     C 3026   8.622  10.229   2.623 -0.2901  0.5484 -0.2300
  764MOL0     C 3027   8.481  10.181   2.572 -0.9270 -0.8792 -0.7294
  764MOL0     C 3028   8.389  10.304   2.569 -0.9332  0.6217 -1.5013
  764MOL0     O 3029   8.449  10.410   2.505 -0.6869  0.2083 -0.5044
  764MOL0     C 3030   8.370  10.506   2.448 -0.3566 -0.2157 -0.3544
  764MOL0     C 3031   8.448  10.596   2.373 -0.8229 -0.4666  0.3592
  764MOL0     C 3032   8.394  10.712   2.310 -0.5423  0.1047  0.2261
  764MOL0     C 3033   8.489  10.811   2.237 -0.1772  0.1232  0.3083
  764MOL0     C 3034   8.257  10.743   2.332  0.1272 -0.0799  0.1991
  764MOL0     C 3035   8.179  10.861   2.277 -0.8153 -0.1924  0.6524
  764MOL0     O 3036   8.057  10.898   2.335 -0.2011 -0.0194  0.6650
  764MOL0     C 3037   8.004  11.017   2.306  0.3476  0.4212 -0.8054
  764MOL0     C 3038   8.001  11.083   2.181  0.6642 -0.0528  0.6919
  764MOL0     C 3039   7.942  11.208   2.175  0.2078 -0.5102 -0.5035
  764MOL0     C 3040   7.909  11.284   2.294  0.2904 -0.4241  0.1894
  764MOL0     O 3041   7.862  11.410   2.288 -0.1312 -0.1093 -0.7068
  764MOL0     C 3042   7.963  11.511   2.295 -0.3689  0.1128  0.6861
  764MOL0     C 3043   7.942  11.612   2.185  0.2109 -0.2680  0.6354
  764MOL0     C 3044   8.029  11.726   2.207 -0.2880 -0.2806 -0.5534
  764MOL0     C 3045   8.034  11.830   2.097 -0.2327 -0.1717 -0.1543
  764MOL0     C 3046   8.155  11.917   2.102  1.3767  0.1480  0.5678
  764MOL0     C 3047   8.184  12.006   1.978 -0.2396 -0.6034 -1.3117
  764MOL0     C 3048   8.307  12.091   2.008  0.8811  0.1116  0.2416
  764MOL0     C 3049   8.333  12.195   1.901  0.1991 -0.0886 -0.1475
  764MOL0    Cl 3050   8.440  12.141   1.770 -0.0476  0.0522  0.0238
  764MOL0     C 3051   7.912  11.216   2.416  0.3443 -0.1399  0.5793
  764MOL0     C 3052   7.953  11.076   2.418 -0.3708 -0.5827  0.2552
  764MOL0     O 3053   8.232  10.918   2.181 -0.6173 -0.8093 -0.3990
  764MOL0     C 3054   8.176  10.651   2.404  0.0502 -0.3480 -0.1103
  764MOL0     C 3055   8.231  10.533   2.468 -0.2314 -0.6215 -1.2580
  764MOL0     N 3056   8.673   9.922   2.505  0.1997  0.7600  0.0975
  764MOL0     N 3057   8.742   9.866   2.417 -0.2422 -0.0358  0.4846
  764MOL0     C 3058   9.891   9.537   2.513 -0.1702  0.2298 -0.2795
  764MOL0     C 3059   9.968   9.428   2.490 -0.1654 -0.5788 -0.7224
  764MOL0     C 3060  10.280   9.175   2.231 -0.2236 -0.0225  0.2637
  764MOL0     C 3061  10.402   9.180   2.150  0.5459  0.6111  0.3987
  764MOL0     C 3062  10.483   9.065   2.140 -0.3951  0.5885 -0.1143
  764MOL0     C 3063  10.435   8.944   2.192 -0.1861 -0.0806  0.4401
  764MOL0     O 3064  10.503   8.821   2.181  0.8611  0.2514 -0.0665
  764MOL0     C 3065  10.624   8.801   2.104 -0.3461 -0.6088  0.0342
  764MOL0     C 3066  10.657   8.649   2.110 -0.1189  0.1672  0.4458
  764MOL0     C 3067  10.566   8.561   2.030  0.8490  0.0257  0.2407
  764MOL0     C 3068  10.613   8.417   2.026  0.5279  0.3995 -0.6260
  764MOL0     C 3069  10.735   8.389   1.968 -0.2822  0.4318 -0.1266
  764MOL0     C 3070  10.844   8.368   1.923  0.4606  0.3296  0.3005
  764MOL0     C 3071  10.320   8.940   2.265 -0.0568  0.3605 -0.0385
  764MOL0     C 3072  10.238   9.052   2.278 -0.1426 -0.3570  0.0840
  764MOL0     H 3073   9.943   9.430   2.145 -4.4583  3.5846 -1.8025
  764MOL0     H 3074   9.803   9.607   2.192  2.5595  4.1967  0.9848
  764MOL0     H 3075   9.692   9.907   2.414  0.0982  1.2827 -1.0129
  764MOL0     H 3076   9.790   9.838   2.290 -0.0535  0.0295 -0.1746
  764MOL0     H 3077   9.604   9.844   2.193  0.5555  1.4380  0.8831
  764MOL0     H 3078   9.612   9.671   2.230  3.2944 -1.1017  1.6498
  764MOL0     H 3079   9.468   9.735   2.445  0.2586  0.4018  0.3684
  764MOL0     H 3080   9.448   9.892   2.378  0.5101 -0.7985  2.5154
  764MOL0     H 3081   9.373   9.771   2.159  1.1821 -0.2278 -0.0142
  764MOL0     H 3082   9.356   9.621   2.273  0.1453  0.5038  1.0937
  764MOL0     H 3083   9.192   9.753   2.399  0.2270  0.0035 -0.4304
  764MOL0     H 3084   9.226   9.891   2.299 -0.8645  0.6063 -0.4863
  764MOL0     H 3085   9.136   9.774   2.109  0.9795  1.1996  1.0120
  764MOL0     H 3086   9.136   9.620   2.180 -0.4808 -0.4791 -0.2089
  764MOL0     H 3087   8.909   9.710   2.157  1.7060  2.4283 -1.4593
  764MOL0     H 3088   8.943   9.680   2.320 -0.3356 -1.6460 -1.5740
  764MOL0     H 3089   8.882   9.913   2.173  1.1922 -0.8623 -1.5970
  764MOL0     H 3090   9.025   9.959   2.264  1.0334 -0.7530  1.4429
  764MOL0     H 3091   8.953  10.095   2.483  0.4050 -0.4779  0.7410
  764MOL0     H 3092   8.665  10.057   2.760 -0.7250  2.4584  1.6270
  764MOL0     H 3093   8.802  10.159   2.715 -1.4468  3.8349 -0.6246
  764MOL0     H 3094   8.674  10.290   2.549 -1.5454  0.8989 -0.8592
  764MOL0     H 3095   8.592  10.289   2.709 -1.1837 -0.2588  0.0319
  764MOL0     H 3096   8.447  10.114   2.651  0.0902 -0.3567  0.1729
  764MOL0     H 3097   8.476  10.126   2.477 -0.0651 -0.4347 -1.0421
  764MOL0     H 3098   8.377  10.335   2.673  3.0383 -2.9921  0.3484
  764MOL0     H 3099   8.292  10.277   2.526 -2.9615  0.1731  2.8244
  764MOL0     H 3100   8.551  10.572   2.351 -1.0255  1.1903 -3.0418
  764MOL0     H 3101   8.478  10.798   2.129  1.1645  0.4654  0.1078
  764MOL0     H 3102   8.454  10.912   2.263 -1.4052 -0.4815  1.0815
  764MOL0     H 3103   8.594  10.802   2.268 -0.4158 -1.9008  0.6663
  764MOL0     H 3104   8.055  11.043   2.096  3.3439  3.0000  0.7737
  764MOL0     H 3105   7.940  11.263   2.081 -0.4068 -0.8547 -0.6951
  764MOL0     H 3106   7.945  11.561   2.391 -1.0418  1.1537  0.0354
  764MOL0     H 3107   8.067  11.478   2.293 -0.4831 -0.3189  1.4346
  764MOL0     H 3108   7.966  11.561   2.091  3.4091 -3.0475  2.7131
  764MOL0     H 3109   7.839  11.649   2.185 -0.1031 -1.1020  0.8925
  764MOL0     H 3110   8.129  11.693   2.237 -0.4269 -0.7511 -0.6140
  764MOL0     H 3111   7.986  11.772   2.297  0.1963 -0.5858 -0.1626
  764MOL0     H 3112   8.035  11.782   1.999 -2.3757 -2.3725  0.7914
  764MOL0     H 3113   7.935  11.877   2.097 -0.4914 -0.6891  0.7953
  764MOL0     H 3114   8.244  11.857   2.123  2.2041  1.3900  0.6725
  764MOL0     H 3115   8.139  11.984   2.187  0.8578  2.0795 -0.9855
  764MOL0     H 3116   8.201  11.945   1.889 -2.1889 -0.4216 -1.8548
  764MOL0     H 3117   8.095  12.064   1.952 -2.5993 -2.4842  1.7985
  764MOL0     H 3118   8.398  12.031   2.022  0.1251 -0.7339  1.8603
  764MOL0     H 3119   8.284  12.141   2.103 -2.2294  0.4451 -0.5752
  764MOL0     H 3120   8.384  12.280   1.947  1.0213  0.3818 -1.8397
  764MOL0     H 3121   8.237  12.226   1.861  0.5082  0.9498 -0.1054
  764MOL0     H 3122   7.867  11.260   2.504  4.4744  1.9448  1.8658
  764MOL0     H 3123   7.956  11.029   2.516  3.7337  2.4755  1.8942
  764MOL0     H 3124   8.070  10.667   2.415  0.2224  0.6667  0.1185
  764MOL0     H 3125   8.177  10.456   2.522  2.8465 -2.3956 -0.4591
  764MOL0     H 3126   9.881   9.565   2.617 -0.2405  0.2191 -0.2835
  764MOL0     H 3127  10.006   9.376   2.578 -2.9521 -1.2032  0.1972
  764MOL0     H 3128  10.424   9.273   2.098 -0.8890  0.6221 -0.2178
  764MOL0     H 3129  10.575   9.070   2.083  0.1403  0.3397  0.7130
  764MOL0     H 3130  10.615   8.816   1.996  0.3991 -0.9624 -0.0853
  764MOL0     H 3131  10.708   8.852   2.152  0.7401 -0.9610 -1.4243
  764MOL0     H 3132  10.660   8.610   2.212  0.4006  0.7419  0.6554
  764MOL0     H 3133  10.760   8.636   2.076 -0.4990 -0.4166 -0.5319
  764MOL0     H 3134  10.556   8.588   1.924 -0.5656  0.8844  0.5662
  764MOL0     H 3135  10.464   8.561   2.069  0.6127  0.9332 -0.3362
  764MOL0     H 3136  10.534   8.359   1.978 -1.3748  2.2085  0.1564
  764MOL0     H 3137  10.601   8.382   2.129  2.5997 -0.7833 -0.7326
  764MOL0     H 3138  10.944   8.344   1.894 -0.5816 -4.7123 -0.0613
  764MOL0     H 3139  10.292   8.851   2.320  2.0739  0.6775  1.6926
  764MOL0     H 3140  10.149   9.032   2.336 -0.0326 -0.7726  0.1089
  765MOL0     O 3141  11.043   6.117   1.289 -0.2589  0.3885  0.3352
  765MOL0     C 3142  11.140   6.047   1.254  0.9637  0.3623  1.4888
  765MOL0     O 3143  11.138   5.962   1.137  0.4955 -0.0492 -0.7388
  765MOL0     C 3144  11.022   5.949   1.075  0.8380  0.2442  0.6062
  765MOL0     C 3145  10.977   6.062   1.008 -0.2434  0.0092 -0.5998
  765MOL0     C 3146  10.861   6.060   0.940  0.5699  0.3087 -0.0468
  765MOL0     C 3147  10.782   5.945   0.937  0.2145 -0.0649 -0.6682
  765MOL0     O 3148  10.667   5.939   0.862 -0.3064  0.6090 -0.3384
  765MOL0     C 3149  10.597   6.051   0.817 -0.1226  0.4296 -0.1840
  765MOL0     C 3150  10.465   5.997   0.748  0.0871 -0.1139  0.0513
  765MOL0     C 3151  10.387   6.103   0.685  0.0111 -0.3700  0.4994
  765MOL0     C 3152  10.254   6.049   0.632 -0.9792 -0.0575 -0.2352
  765MOL0     C 3153  10.178   6.155   0.561 -1.1157 -0.5257  0.1190
  765MOL0     C 3154  10.061   6.086   0.503 -0.5453 -0.3013 -0.0209
  765MOL0     C 3155  10.001   6.184   0.410 -0.2902  0.6270  0.2178
  765MOL0     C 3156   9.888   6.117   0.323  0.1678 -0.5841  0.2781
  765MOL0     N 3157   9.800   6.216   0.248  0.2831  0.3562 -0.0007
  765MOL0     C 3158   9.722   6.204   0.133  0.1821 -0.7757 -0.5378
  765MOL0     C 3159   9.633   6.302   0.138 -0.4772  0.7155  0.1620
  765MOL0     C 3160   9.517   6.300   0.041 -0.7975 -0.1865  0.4405
  765MOL0     C 3161   9.429   6.172   0.059  0.1177 -0.0767  0.0988
  765MOL0     C 3162   9.339   6.175   0.185  0.1242 -0.3620 -0.3334
  765MOL0     C 3163   9.251   6.305   0.197  0.0126  0.3980 -0.3484
  765MOL0     O 3164   9.140   6.295   0.291 -0.3127 -0.7118 -0.1637
  765MOL0     C 3165   9.102   6.406   0.371 -0.1707  0.4635  0.3351
  765MOL0     C 3166   9.141   6.542   0.356 -0.3572  0.8354 -0.2182
  765MOL0     C 3167   9.101   6.641   0.442  0.0518 -0.0120 -0.6546
  765MOL0     C 3168   9.154   6.779   0.389  0.6670  0.1097 -0.7276
  765MOL0     C 3169   9.017   6.613   0.550  0.1743 -0.2712  0.1986
  765MOL0     C 3170   8.946   6.719   0.632  0.0241 -0.4025  0.4056
  765MOL0     O 3171   8.862   6.672   0.734 -0.2569 -0.4415  0.4399
  765MOL0     C 3172   8.783   6.753   0.810  0.0809 -0.4311  0.8445
  765MOL0     C 3173   8.780   6.729   0.943  0.2811 -0.5271 -0.0628
  765MOL0     C 3174   8.695   6.798   1.033  0.0277  0.7585  0.0236
  765MOL0     C 3175   8.595   6.886   0.978  0.6014  0.5760  0.7038
  765MOL0     O 3176   8.498   6.946   1.051  0.1699 -0.0173 -0.5687
  765MOL0     C 3177   8.488   6.939   1.186  0.3391 -0.3302 -0.1419
  765MOL0     C 3178   8.362   6.996   1.243  0.0338  0.7466  0.0497
  765MOL0     C 3179   8.238   6.923   1.196 -0.2188 -0.5147  0.4633
  765MOL0     C 3180   8.109   6.995   1.228 -0.6561  0.5722 -0.0307
  765MOL0     C 3181   7.985   6.905   1.208  0.4295  0.5960 -0.2286
  765MOL0     C 3182   7.848   6.978   1.226  0.1518 -0.4377 -0.1594
  765MOL0     C 3183   7.725   6.888   1.217 -0.9256 -0.1569 -0.0948
  765MOL0     C 3184   7.597   6.965   1.225 -0.6380  0.5560  0.1028
  765MOL0    Cl 3185   7.475   6.852   1.294 -0.0140 -0.0275 -0.0039
  765MOL0     C 3186   8.587   6.903   0.838  0.2932  0.7810  0.8469
  765MOL0     C 3187   8.679   6.839   0.751 -0.7713 -0.0419 -0.2526
  765MOL0     O 3188   8.967   6.839   0.610 -0.0471 -0.3994  0.6697
  765MOL0     C 3189   8.985   6.478   0.572 -0.1489 -0.8140 -0.3775
  765MOL0     C 3190   9.022   6.378   0.482  0.3548 -0.2875 -0.3409
  765MOL0     N 3191   9.666   6.378   0.236  0.2025  0.2984  0.3617
  765MOL0     N 3192   9.765   6.341   0.298  0.7670  0.4253 -0.3479
  765MOL0     C 3193  10.817   5.831   1.016 -0.4165 -0.0585  0.5004
  765MOL0     C 3194  10.938   5.838   1.086  0.1106  0.2016 -0.2390
  765MOL0     C 3195  11.267   6.054   1.325  0.2292 -0.4121 -0.4355
  765MOL0     C 3196  11.357   5.946   1.328 -0.1218 -0.6705  0.3224
  765MOL0     C 3197  11.468   5.947   1.413 -0.7065 -0.1297 -0.2907
  765MOL0     C 3198  11.492   6.057   1.486  0.4961 -0.5162 -0.3718
  765MOL0     O 3199  11.605   6.069   1.564  0.2231 -0.3947  0.1756
  765MOL0     C 3200  11.607   6.002   1.691 -0.2101  0.0860  0.1123
  765MOL0     C 3201  11.691   5.876   1.703 -0.5757  0.4183  1.0820
  765MOL0     C 3202  11.841   5.892   1.664 -0.0818 -0.6974  0.7870
  765MOL0     C 3203  11.924   5.984   1.758  0.3301 -0.1745 -0.1644
  765MOL0     C 3204  12.070   5.941   1.751  0.2623  0.8913  0.7806
  765MOL0     C 3205  12.187   5.902   1.745 -0.5583 -0.1051 -0.8185
  765MOL0     C 3206  11.410   6.163   1.481 -0.9395  0.3595  0.2242
  765MOL0     C 3207  11.295   6.165   1.403  0.0199  0.0560  0.4432
  765MOL0     H 3208  11.039   6.152   1.010 -1.5419  0.9251  0.7546
  765MOL0     H 3209  10.829   6.155   0.899  1.8988  1.5799  1.7170
  765MOL0     H 3210  10.574   6.123   0.895  2.0997  0.1937  0.7616
  765MOL0     H 3211  10.659   6.093   0.738 -0.7192  0.1247 -0.8304
  765MOL0     H 3212  10.500   5.938   0.663 -0.3185  0.3949 -0.4833
  765MOL0     H 3213  10.409   5.937   0.821 -2.8507 -0.3405 -2.1973
  765MOL0     H 3214  10.375   6.188   0.753  0.5997  1.8164 -1.9576
  765MOL0     H 3215  10.449   6.139   0.602  0.5011 -3.8325 -0.7828
  765MOL0     H 3216  10.280   5.968   0.564  1.0590 -1.7492  2.3385
  765MOL0     H 3217  10.202   6.005   0.718 -0.8086  0.7617  0.2986
  765MOL0     H 3218  10.147   6.233   0.632  1.1057 -1.4946  2.3183
  765MOL0     H 3219  10.245   6.204   0.490 -0.8177  2.2205  2.1054
  765MOL0     H 3220  10.093   6.000   0.444  0.5482 -1.3866  2.0266
  765MOL0     H 3221   9.997   6.039   0.579 -3.3078  2.4415 -0.4179
  765MOL0     H 3222   9.975   6.274   0.465 -0.1507 -0.0395  1.4001
  765MOL0     H 3223  10.078   6.207   0.336 -0.4773  1.0842  0.1640
  765MOL0     H 3224   9.826   6.053   0.386 -0.5292 -0.4556 -0.2683
  765MOL0     H 3225   9.931   6.051   0.247  0.3658  1.2560 -1.2722
  765MOL0     H 3226   9.710   6.118   0.067  1.3358 -1.5008  0.1653
  765MOL0     H 3227   9.460   6.390   0.063 -1.5062 -1.3445  3.8806
  765MOL0     H 3228   9.556   6.300  -0.062  0.1856  3.8382  0.6769
  765MOL0     H 3229   9.487   6.079   0.053  0.5731  0.3178 -3.1722
  765MOL0     H 3230   9.362   6.157  -0.026  1.8530 -0.4113 -1.2394
  765MOL0     H 3231   9.400   6.146   0.271 -1.4548 -3.9710 -0.2628
  765MOL0     H 3232   9.268   6.093   0.173  0.5436 -1.2512  2.6116
  765MOL0     H 3233   9.210   6.319   0.097 -2.6324 -3.8623 -0.1338
  765MOL0     H 3234   9.310   6.393   0.224 -1.7332  0.7664  2.7451
  765MOL0     H 3235   9.192   6.554   0.261  0.2726 -1.8465 -0.2958
  765MOL0     H 3236   9.080   6.819   0.319 -1.6968 -2.4630  0.1179
  765MOL0     H 3237   9.167   6.841   0.479 -3.3504  0.0859  0.0590
  765MOL0     H 3238   9.248   6.782   0.335  0.1516  2.2343 -1.6087
  765MOL0     H 3239   8.855   6.669   0.993  1.9628  0.4072 -1.3177
  765MOL0     H 3240   8.701   6.772   1.138 -2.4118  0.8501  0.2395
  765MOL0     H 3241   8.492   6.832   1.212 -0.2445 -0.1153  0.9151
  765MOL0     H 3242   8.565   6.995   1.241 -0.0587  0.9564 -0.8599
  765MOL0     H 3243   8.373   6.984   1.351  4.9550 -4.3567 -0.5759
  765MOL0     H 3244   8.345   7.098   1.207 -1.1363 -0.1227 -2.0648
  765MOL0     H 3245   8.241   6.830   1.253 -0.2934 -1.5044 -1.0686
  765MOL0     H 3246   8.242   6.896   1.090  0.4726 -0.4478  0.4692
  765MOL0     H 3247   8.111   7.031   1.331  1.7315 -3.3536  1.5478
  765MOL0     H 3248   8.099   7.081   1.162 -2.2217  1.2343  1.0084
  765MOL0     H 3249   7.971   6.817   1.272 -5.1833  0.0200 -1.7608
  765MOL0     H 3250   7.989   6.864   1.107 -2.2024  1.0899 -0.5863
  765MOL0     H 3251   7.851   7.021   1.327  1.6243 -3.0226  1.0169
  765MOL0     H 3252   7.851   7.063   1.158 -0.4094  0.9411  1.4570
  765MOL0     H 3253   7.728   6.802   1.284 -0.6928 -1.6321 -1.9240
  765MOL0     H 3254   7.717   6.845   1.117 -2.2312 -5.1649  1.8139
  765MOL0     H 3255   7.570   7.008   1.128  0.0503  2.1216  0.5592
  765MOL0     H 3256   7.611   7.049   1.294  1.3740  0.2386  0.1336
  765MOL0     H 3257   8.510   6.962   0.789  0.9741  0.9542 -0.0597
  765MOL0     H 3258   8.679   6.851   0.643 -0.4994 -0.6299 -0.3189
  765MOL0     H 3259   8.920   6.458   0.656  1.9758 -1.3111  1.2528
  765MOL0     H 3260   8.985   6.276   0.485 -2.0087  0.5112  0.5819
  765MOL0     H 3261  10.745   5.750   1.024 -0.0376 -0.4769 -0.3109
  765MOL0     H 3262  10.964   5.757   1.152  3.0421  0.1575 -1.3040
  765MOL0     H 3263  11.345   5.860   1.263 -0.7943  0.7145 -1.4838
  765MOL0     H 3264  11.542   5.868   1.415 -0.6028 -0.0093  0.8836
  765MOL0     H 3265  11.631   6.069   1.774  1.9461 -0.5637  0.0495
  765MOL0     H 3266  11.503   5.969   1.703 -0.2550 -0.1733 -0.8431
  765MOL0     H 3267  11.651   5.794   1.644  0.1181  0.3453  0.7048
  765MOL0     H 3268  11.684   5.837   1.805 -0.2273 -0.4865  0.7684
  765MOL0     H 3269  11.844   5.928   1.561  1.4534 -0.0986  1.0138
  765MOL0     H 3270  11.886   5.795   1.645  2.1060  0.8811 -3.2088
  765MOL0     H 3271  11.888   5.960   1.858 -1.3502  2.0853 -0.1548
  765MOL0     H 3272  11.905   6.090   1.736 -1.8394 -0.6948 -1.0819
  765MOL0     H 3273  12.282   5.854   1.752 -1.4989 -1.9390  0.2866
  765MOL0     H 3274  11.443   6.256   1.525  1.5014  1.8850 -4.1860
  765MOL0     H 3275  11.233   6.252   1.389 -1.0238 -0.0158  3.8276
  766MOL0     O 3276   6.423  10.480   9.208  0.1300  0.9310 -0.2722
  766MOL0     C 3277   6.372  10.385   9.273 -0.2695  0.8828 -0.2078
  766MOL0     O 3278   6.249  10.381   9.325 -0.4705 -0.5575 -0.3724
  766MOL0     C 3279   6.196  10.504   9.359  0.2859 -0.2793  0.6154
  766MOL0     C 3280   6.150  10.606   9.268  0.4269 -0.4156 -0.1945
  766MOL0     C 3281   6.105  10.729   9.317  0.4905 -0.2916  0.5537
  766MOL0     C 3282   6.080  10.752   9.449 -0.3165  0.0795 -0.4479
  766MOL0     O 3283   6.036  10.878   9.478 -0.2264 -0.2853  0.0255
  766MOL0     C 3284   5.989  10.903   9.616 -0.1377  0.5697  0.4921
  766MOL0     C 3285   5.960  11.048   9.644 -0.2376  0.0773  1.1018
  766MOL0     C 3286   5.848  11.070   9.748 -0.5062 -0.1959  0.5321
  766MOL0     C 3287   5.811  11.215   9.761 -0.0970 -0.8846 -1.2227
  766MOL0     C 3288   5.722  11.243   9.883 -0.1617 -0.4979  0.1956
  766MOL0     C 3289   5.678  11.390   9.893  0.4639 -0.6738  0.7937
  766MOL0     C 3290   5.592  11.427   9.769  0.1268 -0.4444 -0.5246
  766MOL0     C 3291   5.548  11.576   9.785 -0.5027  0.0915 -0.0639
  766MOL0     N 3292   5.477  11.607   9.665 -0.2085  0.0906  0.5170
  766MOL0     C 3293   5.343  11.580   9.650  0.0150  0.4395  0.3840
  766MOL0     C 3294   5.321  11.587   9.519  0.6899 -0.4213  0.2287
  766MOL0     C 3295   5.182  11.559   9.442  0.4761 -0.6949 -0.0155
  766MOL0     C 3296   5.055  11.574   9.526  0.3789 -0.9190  0.8272
  766MOL0     C 3297   4.941  11.477   9.481 -0.3061  0.1092  1.0653
  766MOL0     C 3298   4.810  11.495   9.563  0.0356  0.6726 -0.3154
  766MOL0     O 3299   4.694  11.411   9.526  0.2092  0.3312  0.8435
  766MOL0     C 3300   4.616  11.427   9.416 -0.1357 -0.1323  0.5912
  766MOL0     C 3301   4.638  11.518   9.312 -0.2116  0.5730 -0.5369
  766MOL0     C 3302   4.549  11.537   9.210  0.3170 -0.4167  0.5509
  766MOL0     C 3303   4.588  11.625   9.100 -0.4416  1.0263  0.4761
  766MOL0     C 3304   4.420  11.466   9.210  0.4689  0.4113 -0.0533
  766MOL0     C 3305   4.307  11.476   9.111 -0.5297 -0.1548  0.5096
  766MOL0     O 3306   4.241  11.359   9.102  0.1952 -0.1868 -0.1381
  766MOL0     C 3307   4.105  11.362   9.079  0.0180  0.9821  0.1676
  766MOL0     C 3308   4.041  11.245   9.118  0.1062  0.1813  0.6864
  766MOL0     C 3309   3.904  11.227   9.103  0.1508 -0.6098 -0.9265
  766MOL0     C 3310   3.820  11.323   9.050  0.5210 -0.0978  0.1863
  766MOL0     O 3311   3.686  11.301   9.035 -0.0060  0.1452  0.3075
  766MOL0     C 3312   3.603  11.399   8.980  0.1266  0.9227 -0.4016
  766MOL0     C 3313   3.457  11.350   8.985 -0.3257 -0.6525  0.8962
  766MOL0     C 3314   3.356  11.479   8.975 -1.1012  0.3216  0.5658
  766MOL0     C 3315   3.230  11.461   9.053 -1.0380 -0.0250 -0.2160
  766MOL0     C 3316   3.144  11.590   9.058 -0.1772 -0.2843  0.0982
  766MOL0     C 3317   3.017  11.559   9.128  0.3784  0.7103  0.9672
  766MOL0     C 3318   2.920  11.469   9.045  0.0014 -0.5199 -0.5357
  766MOL0     C 3319   2.770  11.495   9.077 -0.4570  0.2740  0.1982
  766MOL0    Cl 3320   2.737  11.666   9.038 -0.0330 -0.1337  0.0578
  766MOL0     C 3321   3.884  11.443   9.009 -0.1219 -0.0347 -0.1414
  766MOL0     C 3322   4.022  11.466   9.024 -0.0263 -0.2274  0.5095
  766MOL0     O 3323   4.277  11.581   9.050 -0.1461  0.5317  0.0163
  766MOL0     C 3324   4.411  11.370   9.318 -0.2573  0.2680 -0.2263
  766MOL0     C 3325   4.494  11.364   9.419 -0.6386  0.1149  0.0549
  766MOL0     N 3326   5.441  11.628   9.451 -0.3634  0.5937 -0.6228
  766MOL0     N 3327   5.530  11.647   9.543  0.8036 -0.0247  0.4284
  766MOL0     C 3328   6.121  10.652   9.540 -0.2278  0.0261  0.6459
  766MOL0     C 3329   6.182  10.530   9.494  0.7828 -0.0175  1.2931
  766MOL0     C 3330   6.451  10.256   9.289 -0.2202 -0.4772  0.8493
  766MOL0     C 3331   6.402  10.142   9.343 -0.2464  0.6983  0.2907
  766MOL0     C 3332   6.477  10.018   9.324 -0.1332  0.2730  0.2457
  766MOL0     C 3333   6.598  10.013   9.251 -0.3307 -0.4948 -0.5350
  766MOL0     O 3334   6.660   9.887   9.247  0.1087 -0.3272  0.5517
  766MOL0     C 3335   6.803   9.884   9.213  0.2784  0.3279  0.3002
  766MOL0     C 3336   6.868   9.754   9.273 -0.0435 -0.0261 -0.1606
  766MOL0     C 3337   6.913   9.759   9.431  1.0579  0.3182 -0.0675
  766MOL0     C 3338   6.801   9.768   9.533  0.4051  0.4736 -1.1534
  766MOL0     C 3339   6.708   9.655   9.512  0.0229 -0.6652  0.0596
  766MOL0     C 3340   6.633   9.562   9.496  0.6764 -0.6466  0.7761
  766MOL0     C 3341   6.646  10.139   9.202  0.4263  0.7948 -0.5541
  766MOL0     C 3342   6.570  10.251   9.224  0.1449  0.0119  0.3456
  766MOL0     H 3343   6.159  10.588   9.161  2.8913 -3.6657  0.4068
  766MOL0     H 3344   6.094  10.814   9.251  0.5219 -1.0497 -0.4436
  766MOL0     H 3345   5.898  10.846   9.634 -0.2078  0.1233 -1.1857
  766MOL0     H 3346   6.061  10.865   9.689 -0.2111  0.1621  0.3543
  766MOL0     H 3347   6.057  11.084   9.680  1.1721 -1.6236 -0.8063
  766MOL0     H 3348   5.936  11.090   9.546 -1.4541 -1.2338  0.8013
  766MOL0     H 3349   5.758  11.010   9.731  0.1879 -0.8211 -1.1456
  766MOL0     H 3350   5.891  11.046   9.845  2.9149  2.7364 -0.0526
  766MOL0     H 3351   5.908  11.262   9.779  0.1960 -1.5924 -0.9243
  766MOL0     H 3352   5.769  11.254   9.668 -0.2406  2.1255 -0.0225
  766MOL0     H 3353   5.632  11.183   9.871  1.7157 -3.0734 -2.6155
  766MOL0     H 3354   5.778  11.221   9.974  0.7017  1.2831  0.1288
  766MOL0     H 3355   5.610  11.394   9.978 -0.8283 -2.6907 -0.0884
  766MOL0     H 3356   5.762  11.459   9.907 -0.7826  1.0613  0.0804
  766MOL0     H 3357   5.651  11.414   9.678 -1.0430 -2.4348 -1.0535
  766MOL0     H 3358   5.499  11.368   9.771 -1.5751  2.1039  0.0471
  766MOL0     H 3359   5.638  11.636   9.793  1.0440 -1.8134 -1.9303
  766MOL0     H 3360   5.477  11.590   9.867 -1.4246  0.1516 -0.8514
  766MOL0     H 3361   5.276  11.557   9.732  0.0055 -0.1321  0.2142
  766MOL0     H 3362   5.189  11.630   9.359  1.5021 -1.1825 -0.3639
  766MOL0     H 3363   5.188  11.456   9.406  0.0356 -0.3295 -1.1963
  766MOL0     H 3364   5.026  11.680   9.526  4.1379  0.2954 -0.3435
  766MOL0     H 3365   5.083  11.553   9.629  1.6424  0.4475  0.8081
  766MOL0     H 3366   4.962  11.371   9.498 -1.0697 -0.7847 -2.6874
  766MOL0     H 3367   4.926  11.496   9.375  3.5127  1.0535  0.5477
  766MOL0     H 3368   4.785  11.601   9.559 -5.6281 -0.3638 -2.7574
  766MOL0     H 3369   4.838  11.468   9.665 -0.8163 -0.6872 -0.4114
  766MOL0     H 3370   4.731  11.573   9.317 -0.6764  1.3093  0.2150
  766MOL0     H 3371   4.521  11.712   9.100 -0.2079  1.2122  1.1935
  766MOL0     H 3372   4.696  11.643   9.099 -0.1820 -0.3071  1.7061
  766MOL0     H 3373   4.567  11.571   9.008  2.5366  0.5909 -0.0338
  766MOL0     H 3374   4.106  11.169   9.161  0.7207 -0.0052 -0.5240
  766MOL0     H 3375   3.867  11.128   9.129 -1.3086 -0.1706 -1.1857
  766MOL0     H 3376   3.612  11.490   9.039 -1.3670 -0.2152  1.7143
  766MOL0     H 3377   3.636  11.418   8.877 -1.9799  2.5084 -0.8602
  766MOL0     H 3378   3.445  11.279   8.903  3.1743  1.4827 -1.7560
  766MOL0     H 3379   3.430  11.296   9.077 -2.0984 -0.4906  0.5049
  766MOL0     H 3380   3.324  11.501   8.872 -1.3117 -2.4561 -0.0514
  766MOL0     H 3381   3.403  11.570   9.013  1.9805 -1.1205  0.5589
  766MOL0     H 3382   3.172  11.382   9.004  0.4941 -0.6878 -1.0088
  766MOL0     H 3383   3.259  11.427   9.153 -0.6761  0.4731 -0.1490
  766MOL0     H 3384   3.130  11.634   8.958  1.7632 -1.1222 -0.5960
  766MOL0     H 3385   3.194  11.660   9.126 -0.5085 -1.8304  1.9833
  766MOL0     H 3386   3.038  11.511   9.224 -1.3445  0.2167  1.1230
  766MOL0     H 3387   2.973  11.659   9.134 -2.8330 -0.4183 -1.2111
  766MOL0     H 3388   2.942  11.367   9.076  0.4423 -1.4365 -3.5949
  766MOL0     H 3389   2.931  11.488   8.938  2.0663 -1.0079 -0.4450
  766MOL0     H 3390   2.753  11.468   9.181 -0.9963 -0.9158 -0.1817
  766MOL0     H 3391   2.703  11.428   9.021 -0.2674  1.7865 -2.0041
  766MOL0     H 3392   3.821  11.524   8.973  0.6983  0.8640  0.4010
  766MOL0     H 3393   4.056  11.562   8.983 -0.3107  0.2663  1.4102
  766MOL0     H 3394   4.310  11.330   9.327  0.1783 -0.6608  0.7671
  766MOL0     H 3395   4.466  11.306   9.506  0.7776 -3.6682 -1.7583
  766MOL0     H 3396   6.122  10.659   9.648 -0.0479  0.1914  0.6337
  766MOL0     H 3397   6.213  10.452   9.563  2.1932 -0.7539 -0.1044
  766MOL0     H 3398   6.303  10.128   9.386 -0.6847 -0.7605 -1.1038
  766MOL0     H 3399   6.435   9.925   9.362 -0.3925 -0.4207 -1.6051
  766MOL0     H 3400   6.829   9.888   9.107  3.2853 -0.6545  0.8968
  766MOL0     H 3401   6.862   9.964   9.259 -1.9898  0.2044  3.7564
  766MOL0     H 3402   6.962   9.733   9.221  1.7473 -0.0077  2.8199
  766MOL0     H 3403   6.814   9.661   9.255 -1.9060  0.8683  0.6088
  766MOL0     H 3404   6.986   9.837   9.453  2.2489 -0.9491  0.6632
  766MOL0     H 3405   6.964   9.664   9.449 -0.2158 -0.4241 -0.2913
  766MOL0     H 3406   6.751   9.864   9.513  3.3254  2.1366 -1.0192
  766MOL0     H 3407   6.842   9.777   9.634  0.4302  1.8331 -1.2612
  766MOL0     H 3408   6.571   9.476   9.482 -0.4001  0.1561  0.4314
  766MOL0     H 3409   6.732  10.134   9.136  1.6944 -1.6985  1.1358
  766MOL0     H 3410   6.607  10.333   9.163  1.0601 -1.3331 -0.9681
  767MOL0     O 3411   6.112   1.727   0.610  0.0031 -0.0717 -0.1513
  767MOL0     C 3412   6.229   1.695   0.608  0.0957 -0.0520  0.9634
  767MOL0     O 3413   6.295   1.628   0.703 -0.4025  0.2877  0.2419
  767MOL0     C 3414   6.228   1.563   0.806 -0.0402  0.1356 -0.6343
  767MOL0     C 3415   6.162   1.623   0.911 -0.4442 -0.0776 -0.0625
  767MOL0     C 3416   6.087   1.554   1.005  0.7684 -0.0558  0.2030
  767MOL0     C 3417   6.071   1.411   0.998 -0.3026 -0.4471  0.3191
  767MOL0     O 3418   5.990   1.334   1.079 -0.0380 -0.1161  0.4913
  767MOL0     C 3419   5.908   1.406   1.168  0.0082 -0.0507 -0.4189
  767MOL0     C 3420   5.799   1.312   1.220 -0.0459  0.5522  0.1946
  767MOL0     C 3421   5.690   1.297   1.120  0.2237 -0.2951  0.4494
  767MOL0     C 3422   5.575   1.206   1.161 -0.5161  0.8131  0.3351
  767MOL0     C 3423   5.464   1.169   1.052 -0.5859  0.2065  0.3527
  767MOL0     C 3424   5.376   1.280   1.001  0.9315  0.5438 -0.2943
  767MOL0     C 3425   5.278   1.355   1.090  0.4664 -0.2436 -0.2695
  767MOL0     C 3426   5.163   1.265   1.128 -0.0124 -0.5809 -0.0431
  767MOL0     N 3427   5.063   1.347   1.201  1.1334 -0.0059 -0.1229
  767MOL0     C 3428   4.937   1.368   1.163  0.0090  0.1077  0.3338
  767MOL0     C 3429   4.885   1.451   1.252 -0.6271 -0.1125  0.9179
  767MOL0     C 3430   4.745   1.510   1.254  0.1263 -0.0773  0.4975
  767MOL0     C 3431   4.650   1.429   1.340  0.2059 -0.5445 -0.9833
  767MOL0     C 3432   4.510   1.466   1.298  0.9164  0.9911  0.3704
  767MOL0     C 3433   4.400   1.462   1.413  0.0189 -0.5662 -0.1675
  767MOL0     O 3434   4.360   1.328   1.435  0.9368  0.6603  0.5024
  767MOL0     C 3435   4.257   1.294   1.525  0.1584  0.1478 -0.9628
  767MOL0     C 3436   4.190   1.378   1.611 -0.2816 -0.3936 -0.2367
  767MOL0     C 3437   4.085   1.336   1.699 -0.0931 -0.6223 -0.5244
  767MOL0     C 3438   4.038   1.428   1.809 -0.0031  0.4852  0.5617
  767MOL0     C 3439   4.040   1.201   1.682  0.2757  0.9894  0.9156
  767MOL0     C 3440   3.927   1.141   1.757  0.4063 -0.4980  0.0254
  767MOL0     O 3441   3.826   1.107   1.675  0.6210  0.3238 -0.6496
  767MOL0     C 3442   3.719   1.068   1.738  0.2284  0.1769  0.9330
  767MOL0     C 3443   3.618   1.154   1.774 -0.4452 -0.7762 -0.1994
  767MOL0     C 3444   3.505   1.109   1.837 -0.0261 -0.2253 -0.0899
  767MOL0     C 3445   3.472   0.972   1.836 -0.3740 -0.8482  0.2783
  767MOL0     O 3446   3.352   0.930   1.887 -0.3663 -0.1835  0.8761
  767MOL0     C 3447   3.286   0.823   1.807  0.3218  0.8230  0.2443
  767MOL0     C 3448   3.206   0.867   1.685 -0.0962  0.5931  0.0390
  767MOL0     C 3449   3.077   0.950   1.733  0.1773  0.1353 -0.0817
  767MOL0     C 3450   2.992   0.995   1.615 -0.8180  0.9287 -0.2340
  767MOL0     C 3451   2.885   0.888   1.585 -0.0516 -0.2997 -0.0527
  767MOL0     C 3452   2.788   0.918   1.467 -0.7930 -0.8161 -0.2111
  767MOL0     C 3453   2.667   0.829   1.482  0.1105  0.4516  0.4446
  767MOL0     C 3454   2.593   0.834   1.348  0.4903 -0.0407  0.5891
  767MOL0    Cl 3455   2.692   0.786   1.206  0.2448 -0.0470  0.2228
  767MOL0     C 3456   3.579   0.887   1.799  0.0983  0.2219  0.1636
  767MOL0     C 3457   3.704   0.928   1.755  0.5889 -0.5441  0.1115
  767MOL0     O 3458   3.917   1.150   1.879  0.1995 -0.7625 -0.1945
  767MOL0     C 3459   4.098   1.123   1.582 -0.6670 -0.0414  0.3979
  767MOL0     C 3460   4.208   1.169   1.514 -0.4220  0.2012  0.5074
  767MOL0     N 3461   4.971   1.463   1.356  0.8425  0.5195  0.4023
  767MOL0     N 3462   5.078   1.403   1.329 -0.6111 -0.2347 -0.2915
  767MOL0     C 3463   6.157   1.349   0.909  0.6418  0.1791  1.1698
  767MOL0     C 3464   6.228   1.422   0.807 -0.7688 -0.3144  0.0621
  767MOL0     C 3465   6.306   1.743   0.487  0.4807  0.0686 -0.0558
  767MOL0     C 3466   6.437   1.704   0.464 -0.2207  0.0765 -0.2146
  767MOL0     C 3467   6.518   1.756   0.359  0.4079 -0.9886 -0.4275
  767MOL0     C 3468   6.464   1.856   0.276 -0.0098 -0.4047 -0.4243
  767MOL0     O 3469   6.538   1.907   0.178 -0.1344 -0.2454  0.2075
  767MOL0     C 3470   6.615   2.022   0.205 -0.7187 -0.1340 -0.8547
  767MOL0     C 3471   6.544   2.151   0.169 -0.7270  0.3864 -0.0315
  767MOL0     C 3472   6.602   2.283   0.233 -0.0974  0.2498 -0.5852
  767MOL0     C 3473   6.567   2.272   0.383 -0.0439 -0.7214  0.3081
  767MOL0     C 3474   6.613   2.405   0.433  0.7562  0.1407 -0.3928
  767MOL0     C 3475   6.646   2.515   0.472  0.3733 -1.0998  0.6083
  767MOL0     C 3476   6.325   1.892   0.294 -0.3795 -0.1836  0.5726
  767MOL0     C 3477   6.257   1.843   0.404 -0.0639 -0.6507 -0.2580
  767MOL0     H 3478   6.175   1.731   0.916  3.7283 -0.4635  1.4634
  767MOL0     H 3479   6.030   1.607   1.080 -0.6662 -2.2599  0.7779
  767MOL0     H 3480   5.964   1.444   1.253 -0.2020 -0.3596 -0.1371
  767MOL0     H 3481   5.848   1.485   1.121 -0.2485 -1.4385 -2.5839
  767MOL0     H 3482   5.835   1.213   1.250  0.9320  0.3628 -1.5038
  767MOL0     H 3483   5.750   1.360   1.306 -1.3301  0.6874 -0.5878
  767MOL0     H 3484   5.652   1.395   1.089 -0.1065 -0.2625  0.9404
  767MOL0     H 3485   5.736   1.257   1.030 -3.0235 -0.0390 -1.4849
  767MOL0     H 3486   5.628   1.113   1.185  0.0276  0.7516 -0.9953
  767MOL0     H 3487   5.521   1.236   1.251  0.6987 -0.9668  1.7256
  767MOL0     H 3488   5.505   1.123   0.962 -3.3798 -1.0867 -0.3934
  767MOL0     H 3489   5.391   1.104   1.101  1.5384  0.9386  4.9532
  767MOL0     H 3490   5.451   1.350   0.962  0.7736 -0.0952 -1.8221
  767MOL0     H 3491   5.321   1.240   0.915  2.0175  0.9195 -1.1945
  767MOL0     H 3492   5.333   1.389   1.179 -1.3451 -4.6204  2.8776
  767MOL0     H 3493   5.235   1.442   1.038 -0.7557  0.9052  2.4519
  767MOL0     H 3494   5.201   1.179   1.185 -1.3796 -1.0084  0.2551
  767MOL0     H 3495   5.112   1.231   1.038 -1.5372  0.9698  0.1854
  767MOL0     H 3496   4.895   1.334   1.068 -0.3680  4.2706 -1.2215
  767MOL0     H 3497   4.752   1.611   1.295  3.0639  0.4654 -1.0837
  767MOL0     H 3498   4.708   1.513   1.151  1.9897 -1.9188 -0.3106
  767MOL0     H 3499   4.662   1.454   1.446 -0.8678 -0.3144 -0.9045
  767MOL0     H 3500   4.669   1.321   1.333  0.3513 -0.7267  1.2543
  767MOL0     H 3501   4.482   1.385   1.230  1.7050  0.9681  0.0680
  767MOL0     H 3502   4.496   1.564   1.253 -1.0570  0.4879 -0.2141
  767MOL0     H 3503   4.317   1.522   1.375  0.4341  0.0829 -0.0634
  767MOL0     H 3504   4.443   1.521   1.495 -0.0052  2.1209 -1.9527
  767MOL0     H 3505   4.236   1.476   1.608  0.9949 -0.9982 -1.4419
  767MOL0     H 3506   4.117   1.496   1.844  0.5463 -1.7129  4.0915
  767MOL0     H 3507   3.950   1.490   1.787 -0.0752  0.7636  1.5576
  767MOL0     H 3508   4.003   1.366   1.892 -1.8397 -1.5968 -1.6283
  767MOL0     H 3509   3.634   1.258   1.750  2.4673 -1.1283 -0.2168
  767MOL0     H 3510   3.427   1.171   1.880  0.8837 -0.0772  1.4313
  767MOL0     H 3511   3.356   0.748   1.769 -0.2630  0.1615  0.4571
  767MOL0     H 3512   3.218   0.772   1.876  1.1354  0.5485  0.8661
  767MOL0     H 3513   3.271   0.928   1.622  1.4703 -0.5160  0.5119
  767MOL0     H 3514   3.174   0.784   1.621 -1.0493  1.2015 -0.2923
  767MOL0     H 3515   3.112   1.035   1.793  0.3011  0.1219 -0.1335
  767MOL0     H 3516   3.013   0.899   1.806  1.5938 -0.0857  1.0473
  767MOL0     H 3517   2.955   1.091   1.649 -1.2740  0.4086  0.7809
  767MOL0     H 3518   3.055   1.023   1.530  3.2131 -3.1688  0.9538
  767MOL0     H 3519   2.815   0.875   1.668 -0.6577  1.0572 -0.3149
  767MOL0     H 3520   2.938   0.795   1.563  0.3541 -0.3286  1.0209
  767MOL0     H 3521   2.749   1.021   1.465  0.1253 -0.4133  1.1593
  767MOL0     H 3522   2.829   0.909   1.365 -2.4789  0.0862 -1.0124
  767MOL0     H 3523   2.594   0.857   1.558  0.6915 -0.4976  1.3749
  767MOL0     H 3524   2.689   0.725   1.509 -0.3793  0.2710  0.1707
  767MOL0     H 3525   2.551   0.933   1.328 -1.2546 -0.9283 -0.3782
  767MOL0     H 3526   2.505   0.770   1.356 -0.8699  1.3779 -1.9301
  767MOL0     H 3527   3.562   0.780   1.795 -1.3309  0.4569 -2.1672
  767MOL0     H 3528   3.789   0.862   1.739  1.4017  0.4121  0.3916
  767MOL0     H 3529   4.068   1.020   1.564 -0.0459 -0.4658  1.7294
  767MOL0     H 3530   4.250   1.103   1.439 -0.3135  0.6870  0.1342
  767MOL0     H 3531   6.186   1.245   0.927  0.2449 -0.0453  0.5534
  767MOL0     H 3532   6.303   1.371   0.746 -0.8738 -1.8808  1.1903
  767MOL0     H 3533   6.492   1.635   0.528  0.5286  2.4626  1.8932
  767MOL0     H 3534   6.616   1.719   0.332  1.0270  0.0290  0.3778
  767MOL0     H 3535   6.629   2.020   0.314 -1.1164  0.0928 -0.7982
  767MOL0     H 3536   6.713   2.023   0.157 -1.2269  5.6323 -2.5474
  767MOL0     H 3537   6.437   2.148   0.193 -0.6510 -2.5700  0.3548
  767MOL0     H 3538   6.554   2.149   0.060  0.8507 -2.4809  0.0816
  767MOL0     H 3539   6.561   2.377   0.195 -1.2339  0.1453  0.3192
  767MOL0     H 3540   6.710   2.291   0.220 -0.0032 -1.0062 -0.7060
  767MOL0     H 3541   6.632   2.202   0.437  1.7177 -0.4965 -1.3866
  767MOL0     H 3542   6.462   2.242   0.393  0.6375 -2.5964  2.8528
  767MOL0     H 3543   6.676   2.610   0.511  2.2417 -1.0702 -0.7614
  767MOL0     H 3544   6.272   1.963   0.232  2.9563  1.1108 -1.0013
  767MOL0     H 3545   6.157   1.885   0.415 -0.4527 -1.6734  0.1599
  768MOL0     O 3546   4.934   7.069  10.338 -0.0995 -0.1172 -0.4924
  768MOL0     C 3547   5.016   7.057  10.427 -0.0758  0.5132 -0.2053
  768MOL0     O 3548   5.007   7.101  10.550  0.0109 -0.5698  0.3162
  768MOL0     C 3549   4.899   7.185  10.579  0.4918  0.3546  0.5194
  768MOL0     C 3550   4.804   7.154  10.682  0.4490  0.6773 -0.2306
  768MOL0     C 3551   4.682   7.222  10.690 -0.5229  0.7590 -0.6331
  768MOL0     C 3552   4.667   7.340  10.612 -0.8357 -0.2294 -0.0788
  768MOL0     O 3553   4.554   7.418  10.622 -0.6705  0.2135 -0.2959
  768MOL0     C 3554   4.473   7.413  10.500  0.0410 -0.4443  0.2897
  768MOL0     C 3555   4.370   7.528  10.482 -0.2146  0.1426 -0.2219
  768MOL0     C 3556   4.425   7.658  10.415  0.3797 -1.0775 -0.2803
  768MOL0     C 3557   4.306   7.738  10.354 -0.5490  0.0508 -0.2484
  768MOL0     C 3558   4.206   7.791  10.461  0.1848  0.8984 -0.5598
  768MOL0     C 3559   4.087   7.843  10.378 -0.1217  0.5982  0.1955
  768MOL0     C 3560   3.965   7.884  10.451 -0.0956  0.4956 -0.4757
  768MOL0     C 3561   3.997   7.982  10.569  0.5242 -0.2775 -0.1497
  768MOL0     N 3562   3.877   8.039  10.626 -0.0546  0.5605 -0.2684
  768MOL0     C 3563   3.769   7.964  10.677 -0.0548  0.5043 -0.1454
  768MOL0     C 3564   3.671   8.057  10.700 -0.3561 -0.7817 -0.1527
  768MOL0     C 3565   3.551   8.045  10.792 -0.1074 -0.0433 -0.8792
  768MOL0     C 3566   3.428   8.002  10.713  0.3423  0.0717 -0.6508
  768MOL0     C 3567   3.303   7.988  10.800  0.1952  0.0984 -0.6211
  768MOL0     C 3568   3.238   8.122  10.836 -0.1025  0.3756 -0.2370
  768MOL0     O 3569   3.125   8.076  10.901 -0.2792  0.1189  0.1141
  768MOL0     C 3570   3.053   8.176  10.960  0.0205  0.1348  0.1197
  768MOL0     C 3571   3.076   8.310  10.956 -0.2207 -0.3383  0.6222
  768MOL0     C 3572   2.990   8.405  11.018 -0.5414  0.5146 -0.1930
  768MOL0     C 3573   3.026   8.552  11.028 -0.0862  0.0819 -0.2150
  768MOL0     C 3574   2.878   8.354  11.085  0.1230 -0.2424 -0.4575
  768MOL0     C 3575   2.781   8.428  11.180 -0.0758  0.0039  0.0982
  768MOL0     O 3576   2.731   8.358  11.293 -0.9147 -1.4000  0.1984
  768MOL0     C 3577   2.632   8.425  11.358 -0.1501 -1.0282  0.1865
  768MOL0     C 3578   2.505   8.438  11.300  0.4238  0.0674 -0.4994
  768MOL0     C 3579   2.419   8.537  11.355  0.0977  1.0588  0.9228
  768MOL0     C 3580   2.458   8.619  11.458 -0.1063 -0.7914 -0.0168
  768MOL0     O 3581   2.375   8.715  11.509 -0.3586  0.0145 -0.1524
  768MOL0     C 3582   2.280   8.648  11.587  0.1343  0.6886 -0.3108
  768MOL0     C 3583   2.179   8.745  11.660  0.1814 -0.3035  0.3632
  768MOL0     C 3584   2.076   8.651  11.746  0.5977  0.4337 -0.2489
  768MOL0     C 3585   1.930   8.682  11.724  0.4305  0.9773  0.2088
  768MOL0     C 3586   1.849   8.564  11.790  0.0464 -0.0997  0.1280
  768MOL0     C 3587   1.856   8.540  11.941 -0.3431  1.0371 -0.3163
  768MOL0     C 3588   1.861   8.671  12.022  0.0743  0.0232 -1.1504
  768MOL0     C 3589   1.728   8.749  12.022 -0.3718 -0.2305 -0.3385
  768MOL0    Cl 3590   1.591   8.660  12.124  0.3710 -0.2933 -0.4589
  768MOL0     C 3591   2.580   8.599  11.518 -0.2925 -0.3439 -0.0159
  768MOL0     C 3592   2.676   8.504  11.471  0.7882  0.1240 -0.4000
  768MOL0     O 3593   2.756   8.542  11.147  0.1493  0.4617 -0.1802
  768MOL0     C 3594   2.848   8.220  11.070 -1.0146  0.5691  0.1203
  768MOL0     C 3595   2.941   8.129  11.017  0.8102  0.1656 -0.5563
  768MOL0     N 3596   3.722   8.178  10.649  1.0166 -0.5334  0.6534
  768MOL0     N 3597   3.839   8.159  10.599 -0.9895 -0.3620  0.0692
  768MOL0     C 3598   4.772   7.383  10.529  0.3097 -0.3465 -0.1805
  768MOL0     C 3599   4.881   7.306  10.505  0.3659  0.4357 -0.5092
  768MOL0     C 3600   5.147   6.997  10.393 -0.1770  0.4298 -0.1003
  768MOL0     C 3601   5.172   6.937  10.267  0.8634 -0.6844 -0.4163
  768MOL0     C 3602   5.291   6.886  10.220  0.0880  0.3618  0.2409
  768MOL0     C 3603   5.398   6.873  10.312  0.9587 -0.8178  0.3093
  768MOL0     O 3604   5.510   6.806  10.281 -0.0752 -0.4442 -0.9012
  768MOL0     C 3605   5.531   6.732  10.158  1.0286  0.3703  0.6801
  768MOL0     C 3606   5.625   6.620  10.186  0.0397  0.2190 -0.2331
  768MOL0     C 3607   5.667   6.547  10.062  0.4981 -0.2692 -0.3591
  768MOL0     C 3608   5.707   6.400  10.099  0.7564 -0.9316  0.1619
  768MOL0     C 3609   5.819   6.399  10.195  0.2205  0.1080 -0.0430
  768MOL0     C 3610   5.915   6.391  10.277  0.3724 -0.1580 -0.0209
  768MOL0     C 3611   5.375   6.923  10.438  1.0574 -0.5435 -0.3814
  768MOL0     C 3612   5.262   6.994  10.483 -0.5460 -0.3954  0.2723
  768MOL0     H 3613   4.811   7.067  10.746 -0.1701 -0.3508 -1.5228
  768MOL0     H 3614   4.597   7.186  10.747 -0.3982  1.5929  0.1027
  768MOL0     H 3615   4.536   7.433  10.413 -0.2960  3.2218  0.7440
  768MOL0     H 3616   4.422   7.316  10.495 -1.1303  0.2187 -2.2147
  768MOL0     H 3617   4.280   7.490  10.433 -1.4927  0.4422  1.7815
  768MOL0     H 3618   4.346   7.554  10.585  1.4603  1.4982 -0.1172
  768MOL0     H 3619   4.456   7.735  10.486 -2.6277  0.2228 -0.2069
  768MOL0     H 3620   4.494   7.642  10.332  0.4242 -2.4250 -0.0139
  768MOL0     H 3621   4.351   7.817  10.293  1.8532 -0.3847  0.8770
  768MOL0     H 3622   4.248   7.680  10.281  1.8698 -0.7283 -1.6571
  768MOL0     H 3623   4.166   7.721  10.535 -4.0618  1.6649 -1.8647
  768MOL0     H 3624   4.248   7.875  10.516  0.2828  0.4140  0.1199
  768MOL0     H 3625   4.123   7.928  10.321  3.0449 -1.8063 -1.6784
  768MOL0     H 3626   4.054   7.768  10.306 -2.0632  2.2599 -0.7658
  768MOL0     H 3627   3.890   7.926  10.384 -1.2214  1.7038  1.4500
  768MOL0     H 3628   3.920   7.791  10.486 -1.1255  1.0253 -0.3356
  768MOL0     H 3629   4.055   8.064  10.526 -1.6804  1.5196  0.1493
  768MOL0     H 3630   4.063   7.930  10.640  0.4347  0.1434  0.2413
  768MOL0     H 3631   3.757   7.859  10.699  0.9316  0.3898 -0.1187
  768MOL0     H 3632   3.563   7.974  10.873 -2.6850  2.3751  1.8420
  768MOL0     H 3633   3.527   8.140  10.840  0.9160 -0.9960  1.6712
  768MOL0     H 3634   3.460   7.903  10.677  2.9487  0.4611  0.3646
  768MOL0     H 3635   3.402   8.068  10.630 -0.1485 -1.4261 -1.7242
  768MOL0     H 3636   3.342   7.951  10.895  1.0613  1.2331 -0.5113
  768MOL0     H 3637   3.237   7.915  10.752 -1.3163  0.5721  0.6499
  768MOL0     H 3638   3.217   8.172  10.740 -3.5012  0.0962  0.2163
  768MOL0     H 3639   3.296   8.194  10.894  0.5030 -1.7128  1.8718
  768MOL0     H 3640   3.165   8.355  10.912 -0.2303  1.1687  2.0174
  768MOL0     H 3641   2.956   8.619  10.978 -0.5763 -0.0385  0.2925
  768MOL0     H 3642   3.041   8.579  11.133 -0.3686 -0.1253 -0.1216
  768MOL0     H 3643   3.119   8.567  10.972  0.3702 -3.0427 -0.4493
  768MOL0     H 3644   2.471   8.375  11.219 -0.7156 -2.1632  1.5736
  768MOL0     H 3645   2.326   8.536  11.299  0.8767 -5.3748 -1.0441
  768MOL0     H 3646   2.215   8.590  11.520  1.4481  0.1094 -1.1313
  768MOL0     H 3647   2.325   8.582  11.661  0.3801  2.1902  0.9220
  768MOL0     H 3648   2.229   8.813  11.730 -0.5055 -1.1557  1.7195
  768MOL0     H 3649   2.128   8.803  11.582 -1.1845  0.2546  1.6141
  768MOL0     H 3650   2.094   8.656  11.853 -3.0738 -1.6907  0.6588
  768MOL0     H 3651   2.091   8.548  11.711 -4.1961  0.1048 -2.1198
  768MOL0     H 3652   1.897   8.774  11.773  1.3859 -0.3074  3.5791
  768MOL0     H 3653   1.903   8.683  11.619  1.4937  1.0460 -0.0756
  768MOL0     H 3654   1.892   8.474  11.744  2.5654  0.2964  1.5382
  768MOL0     H 3655   1.744   8.584  11.764 -1.1822 -2.2917  2.8730
  768MOL0     H 3656   1.774   8.480  11.981 -2.4590  3.2165 -1.1767
  768MOL0     H 3657   1.951   8.488  11.960 -0.9185  0.4303  0.9600
  768MOL0     H 3658   1.936   8.740  11.983 -0.5342  0.6154 -1.2809
  768MOL0     H 3659   1.872   8.660  12.130 -1.8772  0.5967 -0.8626
  768MOL0     H 3660   1.692   8.769  11.921  2.8759 -1.5558 -1.9094
  768MOL0     H 3661   1.745   8.847  12.066  1.2641 -0.8056  0.3781
  768MOL0     H 3662   2.607   8.639  11.615 -2.3465  1.0041  0.0674
  768MOL0     H 3663   2.771   8.503  11.523 -0.2981  0.5869  1.6739
  768MOL0     H 3664   2.758   8.189  11.122 -1.1534 -0.2657 -0.5792
  768MOL0     H 3665   2.932   8.021  11.028 -0.4141  0.1938 -1.1900
  768MOL0     H 3666   4.753   7.476  10.477 -0.2606 -1.1018 -1.3751
  768MOL0     H 3667   4.947   7.345  10.429  0.2787  2.1320  0.2462
  768MOL0     H 3668   5.097   6.944  10.189 -1.4073  3.1531  1.7672
  768MOL0     H 3669   5.290   6.856  10.116  3.4610  3.7344 -1.0008
  768MOL0     H 3670   5.438   6.688  10.119  0.9249 -0.1522  1.4950
  768MOL0     H 3671   5.569   6.787  10.071  1.6333 -0.5474  0.3501
  768MOL0     H 3672   5.581   6.556  10.263 -2.0788  1.7457 -0.0801
  768MOL0     H 3673   5.708   6.679  10.226 -0.1105  1.1025 -1.1883
  768MOL0     H 3674   5.758   6.592  10.021  2.1752 -3.5807 -0.5813
  768MOL0     H 3675   5.584   6.546   9.991 -1.4117  0.1152  1.7423
  768MOL0     H 3676   5.738   6.341  10.012  1.3490 -2.2049  1.2032
  768MOL0     H 3677   5.621   6.346  10.141  1.4688 -2.7016 -0.5486
  768MOL0     H 3678   5.993   6.387  10.350 -0.5323 -0.9964  0.9389
  768MOL0     H 3679   5.455   6.923  10.512  0.0181 -1.7212  0.8116
  768MOL0     H 3680   5.248   7.030  10.585  0.1884 -1.0374  0.6033
  769MOL0     O 3681   7.025   8.506   6.607 -0.7944 -0.2622 -0.0134
  769MOL0     C 3682   7.075   8.411   6.671  0.2451 -0.0938 -0.1627
  769MOL0     O 3683   7.009   8.340   6.773 -0.5166  0.3017  0.0526
  769MOL0     C 3684   6.890   8.379   6.825 -0.3731 -0.6660  1.6615
  769MOL0     C 3685   6.825   8.283   6.904 -0.4176  0.4259 -0.4158
  769MOL0     C 3686   6.701   8.307   6.961  0.4596 -0.3015 -0.3643
  769MOL0     C 3687   6.634   8.430   6.939  0.0815 -0.0349 -0.1488
  769MOL0     O 3688   6.513   8.454   7.001 -0.5953 -0.0251 -0.5484
  769MOL0     C 3689   6.417   8.531   6.926 -0.7934  0.3369  0.1770
  769MOL0     C 3690   6.288   8.533   7.003 -0.1968 -0.0116 -0.7824
  769MOL0     C 3691   6.183   8.624   6.940  0.5905 -0.0007 -0.4456
  769MOL0     C 3692   6.063   8.614   7.029 -0.5426 -0.8337  0.0567
  769MOL0     C 3693   5.925   8.613   6.952  0.6427  0.1581  0.4462
  769MOL0     C 3694   5.788   8.621   7.026  0.1225  0.2087  0.9015
  769MOL0     C 3695   5.670   8.575   6.940  0.7002 -0.5313 -0.2379
  769MOL0     C 3696   5.682   8.438   6.876  0.1293  0.4228  0.0228
  769MOL0     N 3697   5.552   8.355   6.866 -0.2674 -0.0375 -0.8791
  769MOL0     C 3698   5.424   8.391   6.910 -0.2569 -0.4129  1.0271
  769MOL0     C 3699   5.345   8.283   6.900  0.8757 -0.1318  0.0569
  769MOL0     C 3700   5.200   8.268   6.927  0.7978 -0.2952  0.4944
  769MOL0     C 3701   5.111   8.281   6.793 -0.1359  0.2224  0.1847
  769MOL0     C 3702   4.959   8.275   6.810  0.0442  0.2951  0.9750
  769MOL0     C 3703   4.891   8.254   6.672 -1.4058 -0.6944  0.2683
  769MOL0     O 3704   4.977   8.229   6.556  0.8078 -0.6562 -0.2763
  769MOL0     C 3705   4.924   8.261   6.433 -0.0081  1.3364 -0.0314
  769MOL0     C 3706   4.788   8.296   6.399  0.2563  0.0479 -0.3512
  769MOL0     C 3707   4.744   8.332   6.274 -0.5341 -0.1205  0.6643
  769MOL0     C 3708   4.594   8.369   6.255 -0.1237  0.4559  0.5843
  769MOL0     C 3709   4.847   8.330   6.177 -0.7521 -0.5020 -0.1060
  769MOL0     C 3710   4.826   8.385   6.040 -0.5876  0.9200 -0.1010
  769MOL0     O 3711   4.920   8.349   5.947  0.5734 -0.5059 -0.2032
  769MOL0     C 3712   4.890   8.378   5.824 -0.0949  0.0547  1.0486
  769MOL0     C 3713   4.925   8.505   5.776 -0.3176 -0.4357 -0.3832
  769MOL0     C 3714   4.902   8.534   5.645  0.0740 -0.1812 -0.1784
  769MOL0     C 3715   4.828   8.456   5.556 -0.2021  0.5459  0.7246
  769MOL0     O 3716   4.797   8.482   5.422 -0.9638 -0.9330 -0.0722
  769MOL0     C 3717   4.898   8.542   5.340 -0.0438 -0.2452 -0.4982
  769MOL0     C 3718   4.920   8.469   5.209 -0.5316  0.4604 -0.2551
  769MOL0     C 3719   4.812   8.496   5.103  0.3725  0.0347  0.0715
  769MOL0     C 3720   4.830   8.629   5.029 -0.4776  0.0903 -0.1746
  769MOL0     C 3721   4.716   8.662   4.927  0.2737  0.3587 -0.5782
  769MOL0     C 3722   4.684   8.541   4.831  0.2894 -0.1046 -0.2569
  769MOL0     C 3723   4.618   8.585   4.702 -0.6832  0.8066  0.0465
  769MOL0     C 3724   4.546   8.479   4.606  0.3699  0.9674 -1.6879
  769MOL0    Cl 3725   4.681   8.420   4.504 -0.5227 -0.0082 -0.4795
  769MOL0     C 3726   4.784   8.325   5.606  0.4241 -0.3477  0.9514
  769MOL0     C 3727   4.829   8.282   5.730  0.9123  0.8542 -1.1405
  769MOL0     O 3728   4.740   8.465   6.023  0.4224 -0.4211  0.1154
  769MOL0     C 3729   4.978   8.295   6.204  0.3760 -0.5437  0.3570
  769MOL0     C 3730   5.013   8.257   6.327 -0.3132 -0.0545  0.6168
  769MOL0     N 3731   5.433   8.178   6.868 -0.3676  0.0190  0.0211
  769MOL0     N 3732   5.552   8.223   6.858 -0.6001 -0.3721 -0.0194
  769MOL0     C 3733   6.700   8.527   6.863  0.6063  0.0264  1.1889
  769MOL0     C 3734   6.826   8.501   6.807  0.3321  0.2424  0.4358
  769MOL0     C 3735   7.215   8.359   6.640 -0.3687 -0.8320  0.1477
  769MOL0     C 3736   7.268   8.263   6.720  0.5766 -0.0036 -0.2026
  769MOL0     C 3737   7.395   8.211   6.687  0.9078  0.2937  0.7581
  769MOL0     C 3738   7.468   8.259   6.577  0.2856 -0.1493  0.5486
  769MOL0     O 3739   7.596   8.211   6.562  0.2547 -0.4092  0.6566
  769MOL0     C 3740   7.666   8.239   6.441  0.2803 -0.2772  0.0295
  769MOL0     C 3741   7.808   8.176   6.447 -0.3050 -0.0118 -0.4738
  769MOL0     C 3742   7.899   8.237   6.564  1.0028 -0.1222 -0.3132
  769MOL0     C 3743   8.031   8.156   6.574  0.0067  0.1206 -0.0205
  769MOL0     C 3744   8.031   8.008   6.589  0.0464 -0.0872  0.2843
  769MOL0     C 3745   8.006   7.887   6.610  0.0950 -0.1984  1.4483
  769MOL0     C 3746   7.414   8.365   6.502 -0.4579  0.8852 -0.5295
  769MOL0     C 3747   7.287   8.413   6.530 -0.5653 -0.1974 -0.5180
  769MOL0     H 3748   6.881   8.192   6.924 -1.6149 -0.3861 -0.6467
  769MOL0     H 3749   6.638   8.234   7.009  0.9682  0.5922  1.8071
  769MOL0     H 3750   6.448   8.633   6.902 -1.1783 -0.0679 -2.3635
  769MOL0     H 3751   6.403   8.470   6.836  2.9450 -1.4596  0.6166
  769MOL0     H 3752   6.254   8.429   7.000 -2.0840  0.5824 -2.9902
  769MOL0     H 3753   6.303   8.557   7.109 -1.6433  0.8977 -0.7473
  769MOL0     H 3754   6.214   8.729   6.930 -1.3482  0.6524 -0.0533
  769MOL0     H 3755   6.162   8.589   6.839  0.1832 -1.9530  0.2723
  769MOL0     H 3756   6.058   8.518   7.081 -1.4500  0.1774  1.9469
  769MOL0     H 3757   6.065   8.697   7.100  1.9559  0.4380 -1.3842
  769MOL0     H 3758   5.930   8.703   6.890  0.3304 -0.5527 -0.6384
  769MOL0     H 3759   5.932   8.525   6.888 -0.3562 -0.1709  0.7785
  769MOL0     H 3760   5.803   8.558   7.114  0.5440  0.4273  0.9910
  769MOL0     H 3761   5.776   8.724   7.060  0.6341 -0.4059  3.1615
  769MOL0     H 3762   5.585   8.583   7.009 -0.4864  2.6882 -1.8435
  769MOL0     H 3763   5.656   8.648   6.859  2.1535 -0.3232 -0.3265
  769MOL0     H 3764   5.766   8.386   6.924  0.3334 -0.0470 -0.8184
  769MOL0     H 3765   5.727   8.444   6.777  3.3108  0.3483  1.3315
  769MOL0     H 3766   5.381   8.485   6.944 -1.2959 -0.0050 -1.2378
  769MOL0     H 3767   5.183   8.166   6.965 -1.4562  0.8530  2.8535
  769MOL0     H 3768   5.154   8.332   7.002 -2.7950 -1.5502 -0.4119
  769MOL0     H 3769   5.145   8.200   6.729 -1.7135  0.2540 -0.7440
  769MOL0     H 3770   5.129   8.377   6.743 -0.7095 -0.4861 -1.4520
  769MOL0     H 3771   4.933   8.372   6.854 -0.8751  0.6584 -0.3145
  769MOL0     H 3772   4.926   8.191   6.872  1.2496 -0.4971  0.5898
  769MOL0     H 3773   4.825   8.336   6.644 -1.9971 -1.0502  0.6022
  769MOL0     H 3774   4.826   8.168   6.686 -1.2581 -0.9678 -0.6809
  769MOL0     H 3775   4.713   8.280   6.475  0.9707 -0.6506  0.2251
  769MOL0     H 3776   4.553   8.356   6.155  0.4441 -2.1382  0.6227
  769MOL0     H 3777   4.537   8.299   6.318 -3.4030 -0.1357 -2.6428
  769MOL0     H 3778   4.571   8.469   6.294 -0.5075 -0.0711  1.7719
  769MOL0     H 3779   4.977   8.579   5.837 -1.5528  0.3986 -0.2829
  769MOL0     H 3780   4.944   8.628   5.609 -0.4323 -0.3928 -1.3636
  769MOL0     H 3781   4.868   8.646   5.322 -2.6472 -0.8619 -0.2133
  769MOL0     H 3782   4.986   8.542   5.405  0.2305  0.1174 -0.8650
  769MOL0     H 3783   5.014   8.503   5.166  0.7025 -0.7985  1.3130
  769MOL0     H 3784   4.925   8.360   5.223  0.8370  0.4132 -0.9554
  769MOL0     H 3785   4.707   8.508   5.132  0.1162  2.4974 -1.5795
  769MOL0     H 3786   4.809   8.411   5.033 -0.5057 -0.3280  0.5382
  769MOL0     H 3787   4.853   8.713   5.095 -1.1876  1.5555 -1.7111
  769MOL0     H 3788   4.921   8.620   4.969  1.0022  1.6448  1.6979
  769MOL0     H 3789   4.737   8.757   4.877  0.6803  0.5680 -0.0084
  769MOL0     H 3790   4.624   8.682   4.982  0.2263  0.4286 -0.6819
  769MOL0     H 3791   4.775   8.485   4.805 -1.2669 -1.8378 -2.2991
  769MOL0     H 3792   4.622   8.467   4.882  0.2753 -1.0654 -1.6056
  769MOL0     H 3793   4.690   8.627   4.631  0.5907 -2.9622 -1.1343
  769MOL0     H 3794   4.542   8.659   4.727 -2.0681 -0.4712 -0.2474
  769MOL0     H 3795   4.471   8.522   4.539  1.3660  1.1195 -2.7384
  769MOL0     H 3796   4.492   8.396   4.653  0.2213  2.3204  0.6771
  769MOL0     H 3797   4.731   8.264   5.533  0.6697  1.8341 -1.1941
  769MOL0     H 3798   4.828   8.179   5.765 -1.0577  0.8753 -0.9933
  769MOL0     H 3799   5.058   8.312   6.133  0.7964  4.7838  1.6601
  769MOL0     H 3800   5.115   8.226   6.349 -0.2755  2.0323  3.9299
  769MOL0     H 3801   6.650   8.619   6.837  2.8390  1.2894  1.1754
  769MOL0     H 3802   6.865   8.579   6.742  0.2417  1.0576  1.3290
  769MOL0     H 3803   7.211   8.225   6.804 -0.9981  1.3455 -0.6142
  769MOL0     H 3804   7.439   8.136   6.752  0.3222  2.5644  4.0391
  769MOL0     H 3805   7.602   8.206   6.359  0.5419  0.1135 -0.3309
  769MOL0     H 3806   7.670   8.348   6.436 -1.6435  0.0314  2.8281
  769MOL0     H 3807   7.849   8.195   6.347 -0.4850  0.5655 -0.4396
  769MOL0     H 3808   7.809   8.068   6.465  3.3017 -0.3709 -1.8292
  769MOL0     H 3809   7.844   8.237   6.658  1.2609  3.5964 -0.0301
  769MOL0     H 3810   7.930   8.340   6.546  2.0199 -0.2628  0.5333
  769MOL0     H 3811   8.106   8.198   6.642 -1.3433  2.0937  0.3336
  769MOL0     H 3812   8.072   8.168   6.473 -1.4213  0.4619 -0.5798
  769MOL0     H 3813   8.006   7.787   6.649  2.3588 -1.5105 -1.5046
  769MOL0     H 3814   7.471   8.400   6.416  1.0053  1.9176  0.8030
  769MOL0     H 3815   7.259   8.500   6.471 -1.2467 -1.0255 -1.4725
  770MOL0     O 3816   4.989   0.369   9.162  0.3671 -0.1157  0.7294
  770MOL0     C 3817   5.022   0.437   9.066  1.4098 -0.0750  0.3003
  770MOL0     O 3818   4.965   0.565   9.033 -0.3926  0.0528 -0.7152
  770MOL0     C 3819   4.845   0.588   9.104 -0.0284 -0.9667  0.9093
  770MOL0     C 3820   4.728   0.618   9.029 -0.4508  0.1422 -0.3899
  770MOL0     C 3821   4.608   0.655   9.093 -0.0289  0.5978  0.5263
  770MOL0     C 3822   4.597   0.661   9.231 -1.0216  0.2827 -0.8575
  770MOL0     O 3823   4.484   0.692   9.292  0.4561  0.1509 -0.4576
  770MOL0     C 3824   4.434   0.612   9.401  0.4115 -0.3730  0.5959
  770MOL0     C 3825   4.335   0.509   9.333 -0.0272  0.0572 -0.3804
  770MOL0     C 3826   4.257   0.409   9.421 -0.2112 -0.5282 -0.5258
  770MOL0     C 3827   4.115   0.385   9.379 -0.3000 -0.0414  0.3087
  770MOL0     C 3828   4.017   0.296   9.453  0.3668  0.6988 -0.1790
  770MOL0     C 3829   4.049   0.146   9.440 -0.7979 -0.6991  0.8386
  770MOL0     C 3830   3.915   0.070   9.440 -0.4723 -0.9497  0.0838
  770MOL0     C 3831   3.871   0.068   9.590  0.2149 -0.3124  1.1918
  770MOL0     N 3832   3.725   0.051   9.596  0.2276 -0.4303 -0.7947
  770MOL0     C 3833   3.656  -0.048   9.531  0.0664 -0.2668  0.9313
  770MOL0     C 3834   3.532  -0.033   9.550 -0.0704 -0.4058  0.0163
  770MOL0     C 3835   3.426  -0.126   9.514 -0.7555  0.8216  0.0920
  770MOL0     C 3836   3.463  -0.202   9.384  0.7189 -0.1292 -0.2849
  770MOL0     C 3837   3.357  -0.275   9.310 -0.5389  0.0279 -0.2390
  770MOL0     C 3838   3.223  -0.220   9.304 -0.8187  0.1276  0.6085
  770MOL0     O 3839   3.160  -0.274   9.182 -0.2103  0.0334  0.0018
  770MOL0     C 3840   3.025  -0.272   9.184  0.4870 -1.3059 -0.0596
  770MOL0     C 3841   2.965  -0.366   9.105 -0.3367  0.4222  0.4247
  770MOL0     C 3842   2.827  -0.370   9.075 -0.3533 -0.5620 -0.2928
  770MOL0     C 3843   2.775  -0.474   8.979 -0.3104 -0.3275 -0.0843
  770MOL0     C 3844   2.747  -0.275   9.150  0.5315 -0.4871  0.2199
  770MOL0     C 3845   2.590  -0.278   9.145 -0.4680  0.1210 -0.0515
  770MOL0     O 3846   2.524  -0.163   9.183 -0.0649  0.1516  0.2093
  770MOL0     C 3847   2.388  -0.165   9.181  0.0131  0.6844 -0.7840
  770MOL0     C 3848   2.322  -0.085   9.272 -0.0295  0.3909  0.8423
  770MOL0     C 3849   2.182  -0.080   9.281 -0.3816  0.5114  0.0488
  770MOL0     C 3850   2.107  -0.137   9.178  0.6339  0.4263  0.5441
  770MOL0     O 3851   1.969  -0.115   9.151 -0.7888  0.3729 -0.1839
  770MOL0     C 3852   1.898  -0.043   9.247  0.3297  0.5088 -0.1197
  770MOL0     C 3853   1.747  -0.065   9.216  0.3518  0.3508  0.1351
  770MOL0     C 3854   1.641   0.011   9.297 -0.4670  0.2415  0.3688
  770MOL0     C 3855   1.508   0.025   9.233  0.4775  0.0742  0.7272
  770MOL0     C 3856   1.405   0.081   9.326  0.1860 -0.7984 -0.9333
  770MOL0     C 3857   1.286   0.145   9.265  0.1371 -0.1067 -0.3263
  770MOL0     C 3858   1.196   0.045   9.195  1.1570 -1.7501 -0.1628
  770MOL0     C 3859   1.158  -0.072   9.283  0.7353 -0.1883  0.0761
  770MOL0    Cl 3860   1.238  -0.227   9.258  0.3552 -0.0727  0.3236
  770MOL0     C 3861   2.173  -0.209   9.082  0.2347  0.7335  0.6579
  770MOL0     C 3862   2.311  -0.238   9.085  0.2345 -0.1320 -0.0554
  770MOL0     O 3863   2.538  -0.390   9.134  0.2043  0.0883 -0.1496
  770MOL0     C 3864   2.808  -0.173   9.231  0.8089  1.2470 -0.0093
  770MOL0     C 3865   2.944  -0.168   9.240  0.5074  0.3470 -0.0762
  770MOL0     N 3866   3.512   0.095   9.613  0.1071 -0.2842 -0.6452
  770MOL0     N 3867   3.633   0.143   9.637  0.4693  0.0899 -0.6327
  770MOL0     C 3868   4.709   0.620   9.300  0.2728 -0.0904 -0.1495
  770MOL0     C 3869   4.835   0.597   9.243  0.2131 -0.6134  0.1439
  770MOL0     C 3870   5.133   0.386   8.984  0.2744 -0.7301  0.1839
  770MOL0     C 3871   5.123   0.414   8.847  0.0778  0.5937 -0.4433
  770MOL0     C 3872   5.220   0.365   8.755 -0.7847 -0.5373  0.7579
  770MOL0     C 3873   5.332   0.296   8.803  0.1700 -1.1210 -0.2686
  770MOL0     O 3874   5.442   0.263   8.730 -0.4762  0.4226  0.6357
  770MOL0     C 3875   5.423   0.257   8.588 -0.4349 -0.2571 -0.1533
  770MOL0     C 3876   5.555   0.186   8.543 -0.1005  0.3873 -0.7957
  770MOL0     C 3877   5.677   0.266   8.588  0.1074 -0.5958  0.4219
  770MOL0     C 3878   5.807   0.211   8.519 -0.8025 -0.2800  0.1958
  770MOL0     C 3879   5.932   0.271   8.574 -0.5141  0.2566 -0.0172
  770MOL0     C 3880   6.036   0.319   8.608 -0.1834 -0.3445 -0.5139
  770MOL0     C 3881   5.343   0.273   8.937 -0.1475 -0.5262  0.4224
  770MOL0     C 3882   5.249   0.316   9.027  0.3013 -0.5993  0.5739
  770MOL0     H 3883   4.723   0.594   8.924 -2.5299 -0.6367 -0.1667
  770MOL0     H 3884   4.523   0.679   9.029 -0.5864 -0.3952  0.8626
  770MOL0     H 3885   4.511   0.571   9.467 -2.0286 -0.2229  3.8033
  770MOL0     H 3886   4.365   0.673   9.461  0.1316 -1.1449  1.0662
  770MOL0     H 3887   4.260   0.557   9.269 -0.9683  0.5405  1.0272
  770MOL0     H 3888   4.388   0.455   9.254  0.6340  1.0884 -0.6652
  770MOL0     H 3889   4.304   0.310   9.423 -1.6795 -1.2419  0.5315
  770MOL0     H 3890   4.272   0.432   9.527  3.3694 -0.8311 -0.8274
  770MOL0     H 3891   4.065   0.483   9.376  1.0889  0.6727 -1.0386
  770MOL0     H 3892   4.112   0.346   9.277  2.0750  0.3929  0.0235
  770MOL0     H 3893   4.021   0.329   9.557  0.9995  0.8982 -0.2622
  770MOL0     H 3894   3.911   0.308   9.431  0.0141  1.5329  1.7750
  770MOL0     H 3895   4.100   0.135   9.344  0.0262  1.8254  0.9121
  770MOL0     H 3896   4.125   0.097   9.503  1.3287 -0.3970 -1.3309
  770MOL0     H 3897   3.844   0.128   9.380  2.7634  3.8817  0.3885
  770MOL0     H 3898   3.926  -0.033   9.403 -0.2570 -0.8377 -0.1662
  770MOL0     H 3899   3.885   0.170   9.628  0.6594 -0.5329  1.6156
  770MOL0     H 3900   3.909  -0.010   9.657 -1.8618 -1.5626  1.0222
  770MOL0     H 3901   3.692  -0.123   9.461 -0.6678  1.0132 -0.8864
  770MOL0     H 3902   3.404  -0.200   9.591 -1.8172 -0.5168 -1.4432
  770MOL0     H 3903   3.340  -0.060   9.496  0.1706  1.8219 -0.7915
  770MOL0     H 3904   3.533  -0.272   9.431 -2.4773 -1.8893  2.2212
  770MOL0     H 3905   3.521  -0.136   9.318  1.9773 -0.3219  0.5820
  770MOL0     H 3906   3.349  -0.375   9.354  0.3601 -0.0660 -0.2729
  770MOL0     H 3907   3.393  -0.290   9.207  1.0151  0.9212  0.1470
  770MOL0     H 3908   3.236  -0.113   9.288  0.2092 -0.4020 -3.1144
  770MOL0     H 3909   3.174  -0.234   9.401 -0.0491  0.7912  1.1030
  770MOL0     H 3910   3.030  -0.445   9.068  2.9102  4.2810 -3.1088
  770MOL0     H 3911   2.723  -0.558   9.027 -0.0516 -2.1866 -2.8133
  770MOL0     H 3912   2.692  -0.427   8.927 -1.8534 -0.7800  1.8194
  770MOL0     H 3913   2.842  -0.519   8.905  2.5592 -1.0025  2.7012
  770MOL0     H 3914   2.380  -0.031   9.347  0.3098 -1.4880  2.0146
  770MOL0     H 3915   2.136  -0.021   9.359  1.2977 -0.6097  1.9702
  770MOL0     H 3916   1.912  -0.075   9.350  2.1190  0.3460 -0.3886
  770MOL0     H 3917   1.922   0.062   9.231  1.5323 -0.2650 -4.9702
  770MOL0     H 3918   1.725  -0.050   9.109  1.1675  0.9809  0.0433
  770MOL0     H 3919   1.713  -0.168   9.224 -1.7400  0.8382 -1.4396
  770MOL0     H 3920   1.677   0.111   9.322  1.4123  0.1792 -1.7870
  770MOL0     H 3921   1.638  -0.040   9.394  0.7536 -1.8280 -0.6138
  770MOL0     H 3922   1.522   0.088   9.145 -1.0423  4.7155  3.4707
  770MOL0     H 3923   1.471  -0.074   9.203 -0.5385  0.7728 -0.3966
  770MOL0     H 3924   1.453   0.165   9.378  3.2832 -2.7393 -0.3765
  770MOL0     H 3925   1.376   0.007   9.402 -1.3579  0.4641 -0.2520
  770MOL0     H 3926   1.228   0.206   9.335  0.6584  0.2184 -0.1692
  770MOL0     H 3927   1.325   0.221   9.197 -0.8982  0.4855 -0.2731
  770MOL0     H 3928   1.240   0.013   9.100  0.3072  0.4253 -1.3560
  770MOL0     H 3929   1.113   0.108   9.162  3.0012  1.1568  0.4346
  770MOL0     H 3930   1.055  -0.087   9.249  1.6636 -3.6805 -1.6093
  770MOL0     H 3931   1.154  -0.057   9.392  2.2188  2.9975 -0.2044
  770MOL0     H 3932   2.117  -0.264   9.006  1.4616 -0.9878  0.9330
  770MOL0     H 3933   2.363  -0.293   9.007 -0.5702 -0.1118 -0.6206
  770MOL0     H 3934   2.736  -0.113   9.286 -2.1865 -2.4062  0.4644
  770MOL0     H 3935   2.976  -0.082   9.298  1.7461 -0.4133  0.4134
  770MOL0     H 3936   4.712   0.600   9.407  0.2318 -1.0365 -0.3222
  770MOL0     H 3937   4.912   0.578   9.316 -1.1041 -0.3640  1.6661
  770MOL0     H 3938   5.033   0.466   8.818  0.4624  1.9785  0.7585
  770MOL0     H 3939   5.211   0.390   8.650  0.2308  0.1476  0.8085
  770MOL0     H 3940   5.336   0.195   8.563  0.4131 -0.9685 -1.4276
  770MOL0     H 3941   5.417   0.352   8.534  1.0607 -0.7038 -1.1583
  770MOL0     H 3942   5.554   0.164   8.436  1.2304  4.3603 -1.7935
  770MOL0     H 3943   5.558   0.084   8.582 -2.7598  0.0973 -1.1892
  770MOL0     H 3944   5.687   0.255   8.696 -3.8882  1.5071  1.2007
  770MOL0     H 3945   5.658   0.374   8.583  0.1309 -0.6271 -0.4546
  770MOL0     H 3946   5.811   0.235   8.412 -0.6609  1.0468  0.4826
  770MOL0     H 3947   5.804   0.102   8.526 -1.8225 -0.4058 -1.6488
  770MOL0     H 3948   6.128   0.352   8.653  1.0908  1.1902 -3.9402
  770MOL0     H 3949   5.421   0.213   8.984 -3.0608 -2.4555  3.2679
  770MOL0     H 3950   5.253   0.309   9.135 -3.0083  3.4303  1.2353
  771MOL0     O 3951   1.541   2.125  10.110 -0.2469 -0.3011  0.4195
  771MOL0     C 3952   1.567   2.236  10.060 -0.8304  0.4803 -0.2983
  771MOL0     O 3953   1.475   2.326  10.013 -0.0075  0.3288 -0.2048
  771MOL0     C 3954   1.340   2.297  10.012  0.2676 -0.2694 -0.2522
  771MOL0     C 3955   1.266   2.287   9.896  0.3754 -0.3744  0.3804
  771MOL0     C 3956   1.141   2.225   9.899  0.2869 -0.4800  0.6029
  771MOL0     C 3957   1.087   2.195  10.019  0.7119 -0.2154  0.8409
  771MOL0     O 3958   0.963   2.125  10.027 -1.0360  0.5945 -0.1903
  771MOL0     C 3959   0.851   2.166   9.942 -0.1530  0.8283  0.0851
  771MOL0     C 3960   0.731   2.115  10.008  0.2643 -0.2368 -0.1579
  771MOL0     C 3961   0.600   2.146   9.922 -0.4390  0.4347  0.7326
  771MOL0     C 3962   0.486   2.077   9.986  0.5405  0.2352 -0.7046
  771MOL0     C 3963   0.345   2.108   9.935  0.7463  0.0966  0.0886
  771MOL0     C 3964   0.241   2.036  10.027 -0.4480 -0.3069 -0.4633
  771MOL0     C 3965   0.110   2.075   9.972  0.3317  0.2326 -0.1891
  771MOL0     C 3966   0.067   2.225   9.986  0.3826  0.0798 -1.1648
  771MOL0     N 3967  -0.076   2.214   9.979  0.0647 -0.0937 -0.6845
  771MOL0     C 3968  -0.141   2.222   9.855 -0.9209  0.3268 -0.2541
  771MOL0     C 3969  -0.265   2.176   9.876 -0.0749  0.2155 -0.0700
  771MOL0     C 3970  -0.358   2.146   9.759  0.2397  0.5068  0.8142
  771MOL0     C 3971  -0.312   2.031   9.658 -0.8064 -0.2947  0.0068
  771MOL0     C 3972  -0.405   2.003   9.535  0.4313 -1.1542  0.7128
  771MOL0     C 3973  -0.535   1.931   9.567  0.9980 -0.3097 -0.2381
  771MOL0     O 3974  -0.605   1.928   9.447 -0.2640  0.0848  0.5065
  771MOL0     C 3975  -0.738   1.902   9.441 -0.7406  0.4037 -1.0327
  771MOL0     C 3976  -0.798   1.838   9.547 -0.3241 -0.6071  0.0132
  771MOL0     C 3977  -0.938   1.817   9.538  0.4529  0.2176 -0.1050
  771MOL0     C 3978  -0.998   1.743   9.662  0.7279 -0.0959  1.0472
  771MOL0     C 3979  -1.011   1.881   9.435 -0.4697  0.1604  0.1670
  771MOL0     C 3980  -1.157   1.875   9.432  0.0940 -0.0841  0.7077
  771MOL0     O 3981  -1.219   1.868   9.306  0.2003  0.0874 -0.2441
  771MOL0     C 3982  -1.358   1.875   9.297  0.2960 -0.2991  0.4091
  771MOL0     C 3983  -1.421   1.997   9.312  0.7487 -0.0065 -0.6686
  771MOL0     C 3984  -1.557   2.007   9.295  0.5478 -1.2379  0.0130
  771MOL0     C 3985  -1.632   1.896   9.253 -1.1532 -0.0394  0.6397
  771MOL0     O 3986  -1.766   1.909   9.246  0.0965 -0.6048  0.4312
  771MOL0     C 3987  -1.849   1.792   9.264 -0.6652 -0.2271  0.3794
  771MOL0     C 3988  -1.987   1.846   9.309  0.0478 -0.2649 -0.0654
  771MOL0     C 3989  -2.059   1.940   9.222  0.5981 -0.7083 -0.1490
  771MOL0     C 3990  -2.200   1.967   9.277 -0.7900  0.2742  0.4207
  771MOL0     C 3991  -2.296   2.029   9.173  0.3687  0.1497 -0.1782
  771MOL0     C 3992  -2.438   2.046   9.228 -1.0843  0.5178  0.5324
  771MOL0     C 3993  -2.519   2.124   9.119  1.2300 -0.0199  0.0496
  771MOL0     C 3994  -2.646   2.192   9.180  0.4554 -0.0775 -0.9524
  771MOL0    Cl 3995  -2.742   2.261   9.055 -0.8072 -0.1944  0.4873
  771MOL0     C 3996  -1.568   1.769   9.237  0.6064  0.0437 -0.0113
  771MOL0     C 3997  -1.425   1.760   9.255  0.1256  0.8092 -0.2909
  771MOL0     O 3998  -1.221   1.902   9.532  0.8571 -0.2185 -0.6166
  771MOL0     C 3999  -0.948   1.945   9.332  0.5717  0.3868  0.0252
  771MOL0     C 4000  -0.810   1.947   9.335 -0.3296 -0.5376  0.2334
  771MOL0     N 4001  -0.285   2.151  10.005  0.2454 -0.1244 -0.4323
  771MOL0     N 4002  -0.171   2.171  10.068  0.4019 -0.3509 -0.4640
  771MOL0     C 4003   1.153   2.211  10.137 -0.6755  0.2223  0.0392
  771MOL0     C 4004   1.282   2.269  10.139  0.2301 -0.4978 -0.5257
  771MOL0     C 4005   1.707   2.288  10.065  0.3687  0.6472 -0.6096
  771MOL0     C 4006   1.807   2.235  10.150  0.0988 -0.0357  0.3479
  771MOL0     C 4007   1.939   2.282  10.150 -0.0905  0.7916 -0.2165
  771MOL0     C 4008   1.980   2.369  10.050  0.4885 -0.9561 -0.3070
  771MOL0     O 4009   2.119   2.381  10.040  0.0229 -0.7549 -0.0040
  771MOL0     C 4010   2.176   2.472   9.938  0.3478  0.8944 -0.6443
  771MOL0     C 4011   2.327   2.494   9.955  0.7504 -0.2672  0.7715
  771MOL0     C 4012   2.387   2.533  10.087 -0.1975  0.2782 -0.0454
  771MOL0     C 4013   2.361   2.674  10.148  0.0897  0.5430 -0.7014
  771MOL0     C 4014   2.226   2.674  10.204 -0.2043  0.4205  0.3353
  771MOL0     C 4015   2.116   2.656  10.245 -0.7670 -0.0590 -0.8873
  771MOL0     C 4016   1.885   2.421   9.959  0.0328 -0.4783 -0.0849
  771MOL0     C 4017   1.752   2.378   9.972 -0.7649 -0.1302  0.4716
  771MOL0     H 4018   1.311   2.321   9.803 -0.0485  4.2413  1.5926
  771MOL0     H 4019   1.081   2.206   9.810 -2.0802 -2.5968  2.4948
  771MOL0     H 4020   0.833   2.274   9.939  1.8664  1.1970 -0.3135
  771MOL0     H 4021   0.870   2.128   9.842  1.4182  0.3843  0.5207
  771MOL0     H 4022   0.746   2.009  10.027  1.5688  0.1605  1.3258
  771MOL0     H 4023   0.708   2.165  10.103  1.2144 -1.5104  0.7665
  771MOL0     H 4024   0.572   2.248   9.895  1.4929  0.0321 -3.5476
  771MOL0     H 4025   0.626   2.104   9.824 -2.7704 -2.5914  1.2356
  771MOL0     H 4026   0.514   1.971   9.983  1.8659  0.5683 -0.7787
  771MOL0     H 4027   0.487   2.093  10.094 -2.7189  2.5693 -0.9033
  771MOL0     H 4028   0.315   2.213   9.943 -3.2713 -1.0235  2.3050
  771MOL0     H 4029   0.328   2.077   9.831  2.2138 -3.3078  0.7423
  771MOL0     H 4030   0.251   1.927  10.029 -0.7231 -0.3331  1.5475
  771MOL0     H 4031   0.267   2.069  10.128  0.4284  1.2738 -1.1597
  771MOL0     H 4032   0.112   2.046   9.867  1.7480  2.4634 -0.8490
  771MOL0     H 4033   0.035   2.019  10.030 -0.4242  0.8519 -0.5445
  771MOL0     H 4034   0.111   2.287   9.908 -0.3603 -0.6584 -2.2008
  771MOL0     H 4035   0.081   2.267  10.086 -1.7809  0.4751 -0.9853
  771MOL0     H 4036  -0.091   2.231   9.758 -1.3134  1.1076 -0.3959
  771MOL0     H 4037  -0.457   2.119   9.797  0.2820 -0.5505  0.2250
  771MOL0     H 4038  -0.362   2.236   9.696 -1.6563 -1.1670 -1.6880
  771MOL0     H 4039  -0.309   1.937   9.713 -1.9418  0.5801  1.6427
  771MOL0     H 4040  -0.214   2.060   9.620 -1.0672  0.0568 -0.4152
  771MOL0     H 4041  -0.346   1.939   9.469 -1.2107  0.1176 -2.1922
  771MOL0     H 4042  -0.431   2.091   9.475 -0.7166 -3.2828 -2.0899
  771MOL0     H 4043  -0.603   1.981   9.636 -0.2830  0.1598 -1.7881
  771MOL0     H 4044  -0.510   1.832   9.607 -1.4616  0.6018  4.1131
  771MOL0     H 4045  -0.744   1.816   9.639 -1.7988  0.2331  1.1218
  771MOL0     H 4046  -1.037   1.817   9.731  1.4156  0.2066  1.1220
  771MOL0     H 4047  -1.088   1.689   9.631  0.3922  0.9628  0.1114
  771MOL0     H 4048  -0.915   1.682   9.700  1.4735  0.1243 -0.1368
  771MOL0     H 4049  -1.373   2.091   9.339  0.3787 -0.6097  2.4816
  771MOL0     H 4050  -1.611   2.098   9.320  1.2624 -1.0201  0.8023
  771MOL0     H 4051  -1.859   1.732   9.173  1.6306  0.9626 -0.7420
  771MOL0     H 4052  -1.807   1.718   9.332  2.9078  0.2474 -1.1142
  771MOL0     H 4053  -2.056   1.765   9.335  1.2764 -1.8403 -1.5183
  771MOL0     H 4054  -1.975   1.886   9.410 -1.2315 -1.9721  0.8348
  771MOL0     H 4055  -2.056   1.902   9.119 -0.2840 -2.6074  0.4734
  771MOL0     H 4056  -2.009   2.037   9.222 -2.6459  1.1480  1.6488
  771MOL0     H 4057  -2.257   1.881   9.313 -1.4548  1.6269  2.8047
  771MOL0     H 4058  -2.198   2.029   9.367 -2.1470 -2.5927  2.5796
  771MOL0     H 4059  -2.302   1.967   9.083  0.5083  0.0939 -0.1493
  771MOL0     H 4060  -2.257   2.124   9.135  3.1273 -0.3344  1.2466
  771MOL0     H 4061  -2.480   1.948   9.252  2.4052 -2.0929 -2.7435
  771MOL0     H 4062  -2.422   2.110   9.316  3.3933 -0.6229  0.8056
  771MOL0     H 4063  -2.556   2.063   9.036 -2.4876  1.5023  0.4107
  771MOL0     H 4064  -2.458   2.204   9.076 -0.1020  1.4659  0.8637
  771MOL0     H 4065  -2.611   2.278   9.238  2.2396 -1.9108  0.8610
  771MOL0     H 4066  -2.699   2.115   9.238  1.8822 -0.9998 -0.8349
  771MOL0     H 4067  -1.632   1.684   9.217  0.0753 -0.0082  1.7014
  771MOL0     H 4068  -1.366   1.669   9.247 -0.2172  0.4777  0.7421
  771MOL0     H 4069  -1.003   2.000   9.256 -2.2811  0.7766  2.2185
  771MOL0     H 4070  -0.747   1.992   9.259  0.0411 -1.5385 -0.0647
  771MOL0     H 4071   1.099   2.186  10.227  0.5645 -0.3213  0.6622
  771MOL0     H 4072   1.335   2.290  10.231 -0.2794  3.2369 -0.9365
  771MOL0     H 4073   1.777   2.167  10.230 -1.2715 -0.3917 -0.4312
  771MOL0     H 4074   2.014   2.235  10.214  0.1880  1.7982  0.2090
  771MOL0     H 4075   2.165   2.421   9.842  1.6980 -1.1098  0.1729
  771MOL0     H 4076   2.134   2.573   9.942 -1.6286  0.1569 -1.3791
  771MOL0     H 4077   2.356   2.562   9.874  0.1055 -1.8903 -0.8905
  771MOL0     H 4078   2.363   2.393   9.932 -2.0123 -0.7888 -2.0371
  771MOL0     H 4079   2.495   2.518  10.080 -0.0952  0.2043  1.4128
  771MOL0     H 4080   2.361   2.476  10.176 -2.1803  2.1640  0.6542
  771MOL0     H 4081   2.375   2.757  10.078  4.3901  1.3827  0.8790
  771MOL0     H 4082   2.434   2.683  10.229  3.4986 -1.9205 -3.2274
  771MOL0     H 4083   2.013   2.638  10.268 -0.4928 -1.2602 -0.5221
  771MOL0     H 4084   1.915   2.500   9.891  2.1304 -0.9870  0.1857
  771MOL0     H 4085   1.685   2.415   9.895  0.5025  1.0839 -0.1055
  772MOL0     O 4086   6.852   0.418   9.127  0.6381  0.0925  0.3639
  772MOL0     C 4087   6.791   0.316   9.102 -0.4773 -0.5925 -0.5929
  772MOL0     O 4088   6.662   0.289   9.139 -0.0864 -1.0286 -0.0054
  772MOL0     C 4089   6.595   0.382   9.224  0.6673  0.7993 -1.2822
  772MOL0     C 4090   6.653   0.497   9.295 -0.1217  0.3780  0.3368
  772MOL0     C 4091   6.576   0.565   9.382 -0.1463 -0.7894  1.3466
  772MOL0     C 4092   6.441   0.537   9.398  1.1542 -0.0453 -1.1193
  772MOL0     O 4093   6.354   0.628   9.456  0.4668 -0.4868  0.2375
  772MOL0     C 4094   6.261   0.575   9.552  0.2700 -0.1026  0.2885
  772MOL0     C 4095   6.114   0.591   9.520  0.0401 -0.8552 -0.7124
  772MOL0     C 4096   6.025   0.631   9.638  0.3246 -0.5723  0.1675
  772MOL0     C 4097   5.880   0.642   9.595 -0.1124 -0.0381 -0.4938
  772MOL0     C 4098   5.781   0.644   9.708 -0.5155 -0.9856 -0.0971
  772MOL0     C 4099   5.641   0.660   9.641 -0.2451  0.0126  0.5924
  772MOL0     C 4100   5.522   0.642   9.727 -0.4386 -0.5340  0.1061
  772MOL0     C 4101   5.393   0.622   9.641 -0.0028 -0.1007 -0.9734
  772MOL0     N 4102   5.280   0.624   9.738  0.2162  0.3275 -0.1054
  772MOL0     C 4103   5.201   0.730   9.764  1.2100  0.6899  0.7733
  772MOL0     C 4104   5.107   0.677   9.849  0.9264  0.5163 -0.3421
  772MOL0     C 4105   4.994   0.746   9.910 -0.2340  0.5217  0.7016
  772MOL0     C 4106   5.038   0.814  10.047  0.7549 -0.9997  0.3371
  772MOL0     C 4107   4.920   0.870  10.114  0.1832 -0.4298 -0.4148
  772MOL0     C 4108   4.844   0.971  10.028 -0.0561 -0.6050  0.3049
  772MOL0     O 4109   4.763   1.061  10.104 -0.2974 -0.5732 -0.1852
  772MOL0     C 4110   4.636   1.024  10.140 -0.3422  0.0907 -0.2787
  772MOL0     C 4111   4.578   0.903  10.118  0.2228  0.5697 -0.9361
  772MOL0     C 4112   4.465   0.860  10.177 -0.4495  0.0825 -0.1748
  772MOL0     C 4113   4.416   0.716  10.159 -0.0792 -1.2643  0.4252
  772MOL0     C 4114   4.386   0.970  10.247 -0.0766 -0.0965  1.1057
  772MOL0     C 4115   4.239   0.955  10.279  0.4054 -0.2270 -0.2585
  772MOL0     O 4116   4.166   1.074  10.296 -0.0201  0.4508 -0.1926
  772MOL0     C 4117   4.026   1.076  10.294  0.8865  0.9657 -0.0968
  772MOL0     C 4118   3.951   1.167  10.367 -0.5314  0.1393 -0.2228
  772MOL0     C 4119   3.812   1.151  10.387  0.7183  0.7942  0.3186
  772MOL0     C 4120   3.732   1.055  10.314 -0.3634 -0.1631 -0.7483
  772MOL0     O 4121   3.595   1.035  10.329 -0.2854  1.2759 -0.2117
  772MOL0     C 4122   3.550   0.948  10.429 -0.3647 -0.2283 -0.4673
  772MOL0     C 4123   3.543   1.021  10.570 -0.1216 -0.2220  1.0093
  772MOL0     C 4124   3.448   1.145  10.557 -0.4402 -0.8663 -0.1755
  772MOL0     C 4125   3.440   1.235  10.679  0.1527 -0.8358 -0.0601
  772MOL0     C 4126   3.540   1.356  10.685  0.6222  1.4212  0.7467
  772MOL0     C 4127   3.548   1.418  10.828  0.3586 -0.1880  0.9161
  772MOL0     C 4128   3.661   1.526  10.823  0.0862 -0.8228  0.2209
  772MOL0     C 4129   3.640   1.636  10.925  0.0540 -0.6773  0.0473
  772MOL0    Cl 4130   3.487   1.718  10.911 -0.4815 -0.3753  0.4381
  772MOL0     C 4131   3.810   0.966  10.229 -0.5787 -0.5292 -0.7645
  772MOL0     C 4132   3.951   0.981  10.221 -0.3147 -0.1616 -0.3313
  772MOL0     O 4133   4.200   0.843  10.298  0.0477 -0.1760 -0.1430
  772MOL0     C 4134   4.439   1.102  10.249 -0.2395 -0.1474  0.3449
  772MOL0     C 4135   4.566   1.123  10.195 -0.4616 -0.5759 -0.4246
  772MOL0     N 4136   5.146   0.545   9.888 -0.8788 -0.3221 -0.4111
  772MOL0     N 4137   5.250   0.520   9.819  0.1572 -0.4655  0.5422
  772MOL0     C 4138   6.390   0.433   9.331 -0.7233 -0.0717 -0.0273
  772MOL0     C 4139   6.467   0.353   9.249  0.2683 -0.2264  0.9566
  772MOL0     C 4140   6.875   0.198   9.062  0.8064  0.4700 -0.4242
  772MOL0     C 4141   7.011   0.218   9.021 -0.6908  0.3758 -0.1286
  772MOL0     C 4142   7.080   0.102   8.973  0.0130 -0.5749 -0.2128
  772MOL0     C 4143   7.036  -0.027   8.998  0.5370 -0.4665  1.0694
  772MOL0     O 4144   7.094  -0.147   8.977 -0.8333  0.6938  0.0333
  772MOL0     C 4145   7.229  -0.134   8.930  0.2798  0.5325  0.0247
  772MOL0     C 4146   7.283  -0.270   8.930  0.0501 -0.2563 -0.0722
  772MOL0     C 4147   7.245  -0.350   8.810  0.5253 -1.1391  0.6849
  772MOL0     C 4148   7.310  -0.303   8.675 -1.0802 -0.9470 -0.7784
  772MOL0     C 4149   7.254  -0.394   8.569 -1.2093 -0.5660 -0.7369
  772MOL0     C 4150   7.215  -0.456   8.475 -0.0742 -0.1124  0.1583
  772MOL0     C 4151   6.899  -0.041   9.034  0.0836  0.3544  0.3048
  772MOL0     C 4152   6.819   0.064   9.067 -0.6840 -0.0806  1.1019
  772MOL0     H 4153   6.756   0.530   9.297 -0.8246  2.7002  1.7668
  772MOL0     H 4154   6.611   0.654   9.431 -0.0401  0.3566 -0.6781
  772MOL0     H 4155   6.283   0.472   9.581  0.3687 -0.2647 -0.3612
  772MOL0     H 4156   6.290   0.633   9.640  2.4822 -0.8792  0.1352
  772MOL0     H 4157   6.090   0.669   9.447 -4.2921 -0.3411  1.0098
  772MOL0     H 4158   6.086   0.498   9.470  0.7790 -0.9056 -1.0586
  772MOL0     H 4159   6.035   0.564   9.724  1.5897  0.5727  0.9590
  772MOL0     H 4160   6.058   0.735   9.651  0.7678 -0.5902 -0.7123
  772MOL0     H 4161   5.865   0.739   9.545 -0.0592  0.5850  0.6564
  772MOL0     H 4162   5.853   0.559   9.530 -0.2236  1.2738 -2.1762
  772MOL0     H 4163   5.777   0.556   9.773 -1.4819 -1.2287 -0.4717
  772MOL0     H 4164   5.809   0.739   9.754  0.3966 -0.2414 -2.0909
  772MOL0     H 4165   5.636   0.759   9.596  0.1044  0.4144  1.4158
  772MOL0     H 4166   5.626   0.582   9.565 -1.3570  1.8835 -1.1862
  772MOL0     H 4167   5.537   0.553   9.789  2.4704 -1.0696 -1.2152
  772MOL0     H 4168   5.513   0.733   9.788 -0.8155  0.6128 -1.5825
  772MOL0     H 4169   5.397   0.528   9.584 -0.4644 -1.2571  0.8151
  772MOL0     H 4170   5.378   0.711   9.579 -0.4046  1.4392  1.2270
  772MOL0     H 4171   5.211   0.826   9.713  4.1643  0.1036  0.0650
  772MOL0     H 4172   4.959   0.825   9.843  1.3358 -0.7657 -1.7538
  772MOL0     H 4173   4.911   0.680   9.935  0.0072 -1.3784 -2.9005
  772MOL0     H 4174   5.115   0.889  10.027  2.5399 -2.0589  2.6802
  772MOL0     H 4175   5.090   0.740  10.109  2.1481  0.1268  0.5752
  772MOL0     H 4176   4.952   0.909  10.211 -2.2279  1.2913 -0.2337
  772MOL0     H 4177   4.864   0.780  10.141  3.7595 -2.5027  0.8388
  772MOL0     H 4178   4.790   0.926   9.945 -3.5548  2.7704  0.4919
  772MOL0     H 4179   4.921   1.037   9.987  1.2965 -0.6327  2.5977
  772MOL0     H 4180   4.626   0.827  10.058  2.5074 -1.5227  3.1450
  772MOL0     H 4181   4.374   0.676  10.252  0.7339  3.6146  3.2838
  772MOL0     H 4182   4.326   0.716  10.097 -0.7784  1.3022  1.2736
  772MOL0     H 4183   4.496   0.655  10.118  1.3155  0.7113  0.0575
  772MOL0     H 4184   4.005   1.233  10.434 -0.4107 -2.2342  2.1904
  772MOL0     H 4185   3.766   1.205  10.470 -1.4917 -0.4108 -0.0528
  772MOL0     H 4186   3.460   0.896  10.396 -1.3126  1.8835 -1.4106
  772MOL0     H 4187   3.623   0.868  10.443  0.4011  0.4122 -0.6997
  772MOL0     H 4188   3.500   0.959  10.649  0.8141  0.8965  2.4321
  772MOL0     H 4189   3.643   1.063  10.586 -0.8737  2.9665 -1.6251
  772MOL0     H 4190   3.346   1.106  10.557 -0.9385  0.2697  1.9835
  772MOL0     H 4191   3.459   1.200  10.464 -1.7872 -2.5960 -1.4146
  772MOL0     H 4192   3.340   1.279  10.680 -0.1405 -0.6398 -5.6767
  772MOL0     H 4193   3.433   1.172  10.768  2.7208  0.0400  0.8544
  772MOL0     H 4194   3.512   1.425  10.605  2.2986 -0.8564 -2.0170
  772MOL0     H 4195   3.643   1.331  10.658  0.0435 -1.8971  1.2212
  772MOL0     H 4196   3.451   1.465  10.845 -0.0365 -0.4146 -0.6186
  772MOL0     H 4197   3.570   1.334  10.894 -1.2202 -0.6528  0.8896
  772MOL0     H 4198   3.660   1.584  10.730 -0.7803  0.1121  0.7907
  772MOL0     H 4199   3.764   1.494  10.843  0.5586  0.5230  0.0190
  772MOL0     H 4200   3.717   1.712  10.909 -1.2344  0.2250 -2.3774
  772MOL0     H 4201   3.656   1.607  11.030  0.5602 -1.6956 -0.2894
  772MOL0     H 4202   3.766   0.888  10.169 -1.7322  0.0979 -0.7607
  772MOL0     H 4203   4.000   0.917  10.148 -2.7901 -0.7188 -1.6174
  772MOL0     H 4204   4.376   1.177  10.295 -0.7021 -0.1583 -0.2651
  772MOL0     H 4205   4.611   1.219  10.220 -0.1436 -1.5207  3.0855
  772MOL0     H 4206   6.282   0.438   9.322 -0.8215  3.0154  1.5358
  772MOL0     H 4207   6.420   0.278   9.186  3.0663 -0.7967 -0.6051
  772MOL0     H 4208   7.057   0.316   9.016 -0.1480  0.2742  2.0928
  772MOL0     H 4209   7.172   0.126   8.920  0.4411  1.4936  1.3101
  772MOL0     H 4210   7.222  -0.096   8.827 -1.0227  0.8986  0.2281
  772MOL0     H 4211   7.295  -0.074   8.993 -1.1897  0.1505  2.0391
  772MOL0     H 4212   7.246  -0.334   9.011 -2.1767 -1.4259 -1.8886
  772MOL0     H 4213   7.391  -0.253   8.937 -0.4494  4.8136 -0.6615
  772MOL0     H 4214   7.136  -0.340   8.805  0.7239  1.4276 -3.6861
  772MOL0     H 4215   7.271  -0.455   8.829 -1.3452 -1.9176 -0.7448
  772MOL0     H 4216   7.419  -0.289   8.674 -1.4415  2.8491 -2.3537
  772MOL0     H 4217   7.278  -0.202   8.647 -0.1961 -1.3903 -3.7787
  772MOL0     H 4218   7.167  -0.510   8.396  0.8617  0.3628 -0.7703
  772MOL0     H 4219   6.863  -0.142   9.048 -1.5415  0.5888 -1.7711
  772MOL0     H 4220   6.714   0.055   9.090 -1.3827  1.9871 -0.8399
  773MOL0     O 4221   1.435   0.956   6.661 -0.6327  0.4640 -0.3057
  773MOL0     C 4222   1.470   0.855   6.731  1.2171 -0.3404 -0.2777
  773MOL0     O 4223   1.386   0.797   6.828 -1.1976 -0.1659 -0.5504
  773MOL0     C 4224   1.282   0.863   6.889  0.1571  0.2401  0.3525
  773MOL0     C 4225   1.147   0.843   6.842  0.5986  0.0452 -0.5674
  773MOL0     C 4226   1.040   0.897   6.911 -0.6448 -0.2812 -0.3523
  773MOL0     C 4227   1.063   0.983   7.015  0.0860 -0.4243 -0.6266
  773MOL0     O 4228   0.959   1.029   7.083 -0.4751 -0.0957  0.0729
  773MOL0     C 4229   0.981   1.149   7.168 -0.8104 -0.0139  0.6793
  773MOL0     C 4230   0.847   1.204   7.198 -0.3537 -0.3868  0.2507
  773MOL0     C 4231   0.750   1.103   7.267 -0.7545 -0.1709  1.1180
  773MOL0     C 4232   0.636   1.180   7.324 -0.4220  0.2059  0.0346
  773MOL0     C 4233   0.510   1.089   7.348 -0.1763  0.1356 -0.5410
  773MOL0     C 4234   0.546   0.964   7.433 -0.3443 -0.1598  0.3172
  773MOL0     C 4235   0.431   0.878   7.454  0.4743  0.7409  0.2860
  773MOL0     C 4236   0.476   0.749   7.519  0.6322 -0.0722 -0.2854
  773MOL0     N 4237   0.357   0.661   7.530 -0.0742  0.3339 -0.1386
  773MOL0     C 4238   0.321   0.581   7.426  0.5351  0.2920 -0.4037
  773MOL0     C 4239   0.199   0.533   7.465  0.2635 -0.5103 -0.6395
  773MOL0     C 4240   0.114   0.427   7.387 -0.5127 -0.0727 -0.5540
  773MOL0     C 4241  -0.031   0.467   7.381  0.0052  0.3493 -0.1895
  773MOL0     C 4242  -0.128   0.364   7.317  0.3734  0.2147 -0.5637
  773MOL0     C 4243  -0.267   0.412   7.309 -0.1566 -0.0411  0.3711
  773MOL0     O 4244  -0.335   0.396   7.428 -0.1031  0.6666 -0.4034
  773MOL0     C 4245  -0.466   0.429   7.443  0.3097  1.2961  0.3638
  773MOL0     C 4246  -0.532   0.397   7.559 -0.4592 -0.3785 -0.6335
  773MOL0     C 4247  -0.668   0.426   7.580  0.5366  0.2536 -0.0879
  773MOL0     C 4248  -0.721   0.384   7.711 -0.0286  0.3601  0.4712
  773MOL0     C 4249  -0.745   0.502   7.475 -0.6906 -0.1639  0.2558
  773MOL0     C 4250  -0.883   0.541   7.469 -0.6102 -0.1109  0.2291
  773MOL0     O 4251  -0.906   0.650   7.385 -0.1179 -0.8509 -0.6066
  773MOL0     C 4252  -1.041   0.693   7.379  0.1089 -0.1268 -0.5747
  773MOL0     C 4253  -1.080   0.746   7.259 -0.5853  0.0359  0.0461
  773MOL0     C 4254  -1.203   0.813   7.242  0.1155  0.4836  0.0794
  773MOL0     C 4255  -1.291   0.816   7.348 -0.3592  0.6682 -0.1999
  773MOL0     O 4256  -1.411   0.871   7.326 -0.3378  0.1325  0.1987
  773MOL0     C 4257  -1.495   0.899   7.436  0.1521 -0.3132 -0.1785
  773MOL0     C 4258  -1.624   0.993   7.403 -0.0800  0.3003  1.0144
  773MOL0     C 4259  -1.702   0.925   7.285  0.0388  0.2296  0.0820
  773MOL0     C 4260  -1.854   0.968   7.290  0.0157 -0.1696  0.0643
  773MOL0     C 4261  -1.912   0.899   7.172  0.1004 -0.0003  0.4532
  773MOL0     C 4262  -1.930   0.750   7.190  0.0890  0.5235  0.6660
  773MOL0     C 4263  -2.000   0.701   7.068  0.2654  0.2536  0.3264
  773MOL0     C 4264  -2.040   0.556   7.093 -0.5757 -0.8333 -0.3770
  773MOL0    Cl 4265  -2.141   0.499   6.958 -0.2173  0.0700  0.3463
  773MOL0     C 4266  -1.253   0.752   7.469  0.0399  0.2226 -0.3708
  773MOL0     C 4267  -1.130   0.701   7.487  0.3255  0.0884 -0.2031
  773MOL0     O 4268  -0.967   0.488   7.540 -0.2792  0.7816  0.2573
  773MOL0     C 4269  -0.675   0.520   7.349 -0.1365  0.4433 -0.4886
  773MOL0     C 4270  -0.537   0.483   7.335  0.5524 -0.2653 -0.0627
  773MOL0     N 4271   0.156   0.585   7.584 -0.7630  0.5100 -0.6831
  773MOL0     N 4272   0.254   0.661   7.625 -0.1355 -0.4964 -0.2716
  773MOL0     C 4273   1.187   1.001   7.070  0.0180  1.3910 -0.6043
  773MOL0     C 4274   1.296   0.937   7.006  0.4763 -0.4682  0.1928
  773MOL0     C 4275   1.589   0.786   6.679 -0.0210 -0.3473 -0.4179
  773MOL0     C 4276   1.636   0.658   6.718  2.0625 -0.1813  0.1950
  773MOL0     C 4277   1.760   0.606   6.684 -0.4959  0.3638  0.3196
  773MOL0     C 4278   1.847   0.675   6.598  0.3008 -0.4745 -0.7049
  773MOL0     O 4279   1.963   0.617   6.549 -0.2325  0.2319  0.0653
  773MOL0     C 4280   2.084   0.686   6.577 -0.0606  0.0910  0.6342
  773MOL0     C 4281   2.163   0.658   6.707 -0.1130  0.8198 -0.0784
  773MOL0     C 4282   2.196   0.502   6.733  1.1631 -0.2923 -0.5815
  773MOL0     C 4283   2.302   0.490   6.846 -0.9246 -0.1282 -0.8831
  773MOL0     C 4284   2.432   0.533   6.800  0.0908  0.1052  0.0620
  773MOL0     C 4285   2.536   0.593   6.774 -0.2005 -0.8286  1.0626
  773MOL0     C 4286   1.799   0.795   6.544  0.2703  0.5263  0.8112
  773MOL0     C 4287   1.667   0.845   6.578 -0.2338  0.1959  0.1691
  773MOL0     H 4288   1.135   0.777   6.758 -1.0372 -1.0017  0.4434
  773MOL0     H 4289   0.940   0.879   6.872 -0.6071 -2.2667  0.3688
  773MOL0     H 4290   1.036   1.126   7.259  0.2599  0.9436  0.3008
  773MOL0     H 4291   1.033   1.231   7.116  2.1310 -1.9610  0.2893
  773MOL0     H 4292   0.864   1.290   7.264 -0.6771 -0.6775  0.7166
  773MOL0     H 4293   0.814   1.238   7.100  1.1308 -1.1682 -0.5685
  773MOL0     H 4294   0.715   1.037   7.187 -0.2898  0.3565  0.4589
  773MOL0     H 4295   0.801   1.043   7.343  1.9526 -0.3082 -0.6602
  773MOL0     H 4296   0.669   1.215   7.422  0.9778  0.7219 -0.5933
  773MOL0     H 4297   0.601   1.265   7.266 -1.3373 -0.6947 -0.7729
  773MOL0     H 4298   0.433   1.154   7.391  0.6952  0.4848  0.5226
  773MOL0     H 4299   0.463   1.056   7.255 -2.3104 -1.7628  1.0952
  773MOL0     H 4300   0.623   0.897   7.392  1.1077  0.1737  2.3644
  773MOL0     H 4301   0.591   0.987   7.529 -1.1746  0.2898  0.6053
  773MOL0     H 4302   0.355   0.932   7.510 -2.9317 -1.5744 -1.7382
  773MOL0     H 4303   0.387   0.856   7.357  4.3847 -2.9462 -0.9718
  773MOL0     H 4304   0.524   0.763   7.617  0.1653 -0.3142 -0.0139
  773MOL0     H 4305   0.543   0.697   7.451  2.5387 -0.9045  2.0967
  773MOL0     H 4306   0.369   0.557   7.332 -2.8704 -0.3265 -2.1698
  773MOL0     H 4307   0.140   0.426   7.281 -1.9012 -0.2741 -0.9077
  773MOL0     H 4308   0.128   0.330   7.436 -2.8150 -0.3313 -0.2789
  773MOL0     H 4309  -0.041   0.559   7.321  0.3568  0.2117 -0.4619
  773MOL0     H 4310  -0.066   0.486   7.482 -1.1830  0.8851 -0.6757
  773MOL0     H 4311  -0.112   0.268   7.366 -1.6194 -0.0923 -0.4231
  773MOL0     H 4312  -0.094   0.350   7.214  4.9779  3.6460  0.1565
  773MOL0     H 4313  -0.312   0.355   7.228  0.7911 -0.3390  0.0459
  773MOL0     H 4314  -0.257   0.516   7.278  3.2222 -0.7746 -1.4430
  773MOL0     H 4315  -0.479   0.349   7.641  0.6007 -0.3342 -1.2892
  773MOL0     H 4316  -0.705   0.276   7.713  0.1541  0.3889  1.5007
  773MOL0     H 4317  -0.654   0.420   7.791  1.1495 -0.5798 -0.0699
  773MOL0     H 4318  -0.823   0.416   7.733 -0.1736  3.1461 -3.2335
  773MOL0     H 4319  -1.007   0.750   7.178  2.3986 -0.1518  2.5179
  773MOL0     H 4320  -1.228   0.849   7.142  1.4935  0.4109 -0.3090
  773MOL0     H 4321  -1.534   0.802   7.468 -2.6915  0.1860 -1.7224
  773MOL0     H 4322  -1.429   0.942   7.511 -0.2767 -0.9119  0.5496
  773MOL0     H 4323  -1.684   0.977   7.493 -0.4771 -0.1239  0.6815
  773MOL0     H 4324  -1.605   1.098   7.379 -2.6574  0.8381  1.0313
  773MOL0     H 4325  -1.701   0.818   7.309 -1.3845  0.3260  0.6890
  773MOL0     H 4326  -1.648   0.955   7.195  0.6621  2.2716  1.0824
  773MOL0     H 4327  -1.900   0.950   7.388 -0.6601  0.2042 -0.1724
  773MOL0     H 4328  -1.863   1.076   7.276 -3.0719 -0.1502  1.3630
  773MOL0     H 4329  -1.852   0.921   7.083 -3.1543 -1.9288 -2.5141
  773MOL0     H 4330  -2.008   0.946   7.149  1.0707  1.4483 -0.8967
  773MOL0     H 4331  -1.834   0.698   7.196  0.3982  0.7345 -1.5024
  773MOL0     H 4332  -1.990   0.731   7.280 -1.0123  0.8328  0.0243
  773MOL0     H 4333  -1.930   0.707   6.984  0.2117  1.8016  0.3577
  773MOL0     H 4334  -2.093   0.756   7.053 -0.0650 -0.0127  1.3261
  773MOL0     H 4335  -2.104   0.551   7.182 -4.0151  1.5521 -2.4845
  773MOL0     H 4336  -1.949   0.495   7.101  0.4547  0.7035 -0.0822
  773MOL0     H 4337  -1.329   0.754   7.547 -0.7306 -0.9297 -1.0551
  773MOL0     H 4338  -1.099   0.677   7.589 -0.6208  1.4299  0.4368
  773MOL0     H 4339  -0.731   0.558   7.264  0.3509 -0.0736 -1.0489
  773MOL0     H 4340  -0.492   0.506   7.238 -1.8152  1.1468 -0.9277
  773MOL0     H 4341   1.198   1.057   7.162  0.8727  4.2350 -2.3126
  773MOL0     H 4342   1.394   0.942   7.053 -0.1473  1.6491  1.4413
  773MOL0     H 4343   1.571   0.602   6.785  1.1315  1.3360  0.6381
  773MOL0     H 4344   1.789   0.502   6.700 -1.3277 -0.7073 -3.9343
  773MOL0     H 4345   2.144   0.665   6.488 -0.8001 -1.6816  0.5168
  773MOL0     H 4346   2.065   0.794   6.575 -1.8302 -0.1517 -2.5278
  773MOL0     H 4347   2.089   0.693   6.780 -1.1126 -2.1568  0.4740
  773MOL0     H 4348   2.250   0.725   6.707  0.1522  0.4929  0.8178
  773MOL0     H 4349   2.237   0.449   6.647  0.9890 -0.4335 -0.5765
  773MOL0     H 4350   2.107   0.452   6.771  1.3607  1.3345  2.2667
  773MOL0     H 4351   2.297   0.384   6.871 -1.7314 -0.4276 -2.2165
  773MOL0     H 4352   2.276   0.552   6.932  1.8547  1.0163 -0.7718
  773MOL0     H 4353   2.622   0.647   6.742 -1.5436 -0.0913 -1.5318
  773MOL0     H 4354   1.862   0.838   6.467 -0.2692 -1.3365 -0.7587
  773MOL0     H 4355   1.632   0.935   6.528 -1.6542 -0.0230  0.7128
  774MOL0     O 4356  10.259   6.520   1.653 -0.1153 -0.4630  0.1480
  774MOL0     C 4357  10.348   6.597   1.698  0.2164  0.4909 -0.6617
  774MOL0     O 4358  10.324   6.704   1.782  0.5554 -0.3499 -0.4600
  774MOL0     C 4359  10.198   6.709   1.834 -0.4404 -0.4122 -0.7078
  774MOL0     C 4360  10.081   6.730   1.757  0.8241 -0.8537 -0.5434
  774MOL0     C 4361   9.956   6.761   1.812 -0.9864  0.3088  0.5696
  774MOL0     C 4362   9.944   6.757   1.951 -0.5889 -1.0044  0.5138
  774MOL0     O 4363   9.835   6.788   2.019 -0.1107  0.1458  0.2108
  774MOL0     C 4364   9.712   6.836   1.959 -0.1740  0.5635  0.1471
  774MOL0     C 4365   9.621   6.719   1.912  0.3897  0.8425  0.1759
  774MOL0     C 4366   9.487   6.765   1.864  0.8021 -0.6213  0.0782
  774MOL0     C 4367   9.415   6.674   1.774  0.2742  0.4197  0.8440
  774MOL0     C 4368   9.300   6.748   1.708  0.4197 -0.0750 -0.4439
  774MOL0     C 4369   9.220   6.666   1.601  0.2987  0.1932  0.2144
  774MOL0     C 4370   9.123   6.748   1.509 -0.8196 -0.0776 -0.7132
  774MOL0     C 4371   9.018   6.662   1.436  0.0763  0.4009 -0.1122
  774MOL0     N 4372   8.931   6.607   1.544 -0.4087 -0.1999  0.5902
  774MOL0     C 4373   8.897   6.478   1.567  1.3263 -0.3599 -0.0980
  774MOL0     C 4374   8.792   6.479   1.651 -0.7105  0.5766 -1.2178
  774MOL0     C 4375   8.719   6.360   1.713  0.8021  0.0199 -0.5276
  774MOL0     C 4376   8.647   6.404   1.847  0.5517  0.8303 -0.1049
  774MOL0     C 4377   8.568   6.280   1.905 -0.2766  0.2295  0.1795
  774MOL0     C 4378   8.459   6.225   1.811  0.2125 -0.3801 -0.3112
  774MOL0     O 4379   8.354   6.323   1.809 -0.1407 -0.4105 -0.1183
  774MOL0     C 4380   8.240   6.285   1.750  0.2618  0.4824  1.4398
  774MOL0     C 4381   8.228   6.172   1.660  0.6356 -0.1004 -0.1789
  774MOL0     C 4382   8.099   6.144   1.610  0.2094  0.1045 -0.2585
  774MOL0     C 4383   8.095   6.030   1.510  0.0686  0.0556 -0.4139
  774MOL0     C 4384   7.983   6.221   1.643  0.3091  0.7221 -0.1696
  774MOL0     C 4385   7.848   6.223   1.571 -0.0113  0.0737 -0.5271
  774MOL0     O 4386   7.832   6.141   1.471 -0.0237 -0.2595  0.2412
  774MOL0     C 4387   7.702   6.133   1.404 -0.5382  0.2149 -0.0683
  774MOL0     C 4388   7.596   6.083   1.484  0.2793  0.4659  0.1910
  774MOL0     C 4389   7.465   6.077   1.438  1.1438 -0.1794 -0.0522
  774MOL0     C 4390   7.431   6.131   1.311  0.1945 -0.8061  0.2155
  774MOL0     O 4391   7.308   6.108   1.242  0.1172  0.6110  0.6825
  774MOL0     C 4392   7.200   6.047   1.309 -0.5074 -0.8101 -0.3031
  774MOL0     C 4393   7.072   6.032   1.221 -0.6032  0.5585 -0.4409
  774MOL0     C 4394   6.959   5.972   1.302  0.7890 -0.2747  0.5099
  774MOL0     C 4395   6.836   5.967   1.214  0.1520  0.3728  0.4256
  774MOL0     C 4396   6.750   5.838   1.252  0.5304 -0.5309 -0.3871
  774MOL0     C 4397   6.598   5.861   1.206 -0.6338 -0.0661  0.6268
  774MOL0     C 4398   6.516   5.947   1.297 -0.5748  0.0407  0.0930
  774MOL0     C 4399   6.371   5.968   1.255  0.1638  0.2107  0.6153
  774MOL0    Cl 4400   6.373   6.055   1.107  0.3502  0.0297  0.2934
  774MOL0     C 4401   7.532   6.191   1.234  0.2848  0.2164  1.5277
  774MOL0     C 4402   7.666   6.189   1.279  0.0279  0.3716 -0.6808
  774MOL0     O 4403   7.756   6.295   1.617 -0.3727 -0.3343 -0.0396
  774MOL0     C 4404   8.002   6.317   1.743  0.6061  0.7573 -0.8642
  774MOL0     C 4405   8.125   6.355   1.790 -0.8931  0.1339 -0.4032
  774MOL0     N 4406   8.773   6.605   1.695  0.4317  0.6341 -0.3300
  774MOL0     N 4407   8.867   6.681   1.634 -0.4776 -0.3047  0.0806
  774MOL0     C 4408  10.052   6.723   2.028 -0.5919  0.6961  0.0462
  774MOL0     C 4409  10.177   6.705   1.969 -0.4609 -0.3056 -0.6409
  774MOL0     C 4410  10.496   6.560   1.665  0.9563 -0.0120 -0.1856
  774MOL0     C 4411  10.595   6.664   1.678  0.2737  0.1514 -0.2373
  774MOL0     C 4412  10.730   6.633   1.655  0.0662 -0.1885 -1.2514
  774MOL0     C 4413  10.772   6.504   1.618  0.5161 -0.7795  0.4550
  774MOL0     O 4414  10.908   6.489   1.588  0.2971 -0.1567  0.6937
  774MOL0     C 4415  10.950   6.353   1.570  0.0068  0.0992  0.4241
  774MOL0     C 4416  11.016   6.304   1.701 -0.6452  0.2217  0.2166
  774MOL0     C 4417  11.144   6.372   1.743  0.0341 -0.5313 -0.0812
  774MOL0     C 4418  11.218   6.294   1.851 -0.1825  0.4616  0.3963
  774MOL0     C 4419  11.355   6.335   1.872 -0.1665  0.0837 -1.0671
  774MOL0     C 4420  11.469   6.376   1.875 -0.7937 -0.5944 -0.0387
  774MOL0     C 4421  10.666   6.405   1.620 -0.2696  0.7961  0.2952
  774MOL0     C 4422  10.536   6.428   1.648 -0.4649 -0.8276  0.3845
  774MOL0     H 4423  10.092   6.741   1.649 -4.0194  0.2513 -1.1313
  774MOL0     H 4424   9.871   6.794   1.753  0.2443 -0.0158 -1.4725
  774MOL0     H 4425   9.657   6.890   2.037  0.6567  0.1458  1.0485
  774MOL0     H 4426   9.741   6.907   1.882 -0.9666  1.7081  0.8816
  774MOL0     H 4427   9.664   6.666   1.827  2.3280  0.6114  1.2322
  774MOL0     H 4428   9.599   6.653   1.996 -1.3532  1.7005  0.4347
  774MOL0     H 4429   9.419   6.802   1.941 -1.0951  3.7828 -3.2731
  774MOL0     H 4430   9.515   6.853   1.805  1.3395 -2.5863 -2.7807
  774MOL0     H 4431   9.484   6.640   1.697 -0.5115 -0.4092  0.4881
  774MOL0     H 4432   9.387   6.590   1.839  1.9497 -1.2394 -0.4787
  774MOL0     H 4433   9.233   6.779   1.789 -0.2524 -0.9785 -0.6371
  774MOL0     H 4434   9.325   6.840   1.655 -1.1115  1.1304  0.7858
  774MOL0     H 4435   9.295   6.625   1.534  2.1727  0.3654  2.1244
  774MOL0     H 4436   9.171   6.584   1.654 -1.8894 -0.5514 -2.6427
  774MOL0     H 4437   9.075   6.818   1.579 -1.9394 -1.8265  0.3367
  774MOL0     H 4438   9.185   6.803   1.437 -0.1756 -0.0879 -0.1802
  774MOL0     H 4439   9.069   6.584   1.379  1.7759 -0.6432  2.6660
  774MOL0     H 4440   8.957   6.719   1.366  0.4344  1.5353  0.4792
  774MOL0     H 4441   8.933   6.388   1.518  1.0338 -0.9299  0.7237
  774MOL0     H 4442   8.653   6.311   1.642  0.1909 -0.6852  0.5084
  774MOL0     H 4443   8.787   6.277   1.735 -2.6428 -3.0882 -0.7562
  774MOL0     H 4444   8.582   6.492   1.842  1.1966  1.2601 -3.7932
  774MOL0     H 4445   8.722   6.435   1.920  0.4375 -0.5071  0.6158
  774MOL0     H 4446   8.522   6.316   1.997 -1.1740 -3.4504  1.3560
  774MOL0     H 4447   8.645   6.207   1.933 -1.6382 -1.4676 -0.3086
  774MOL0     H 4448   8.440   6.130   1.861  1.2777  0.9730  2.9236
  774MOL0     H 4449   8.501   6.204   1.712 -1.5277  0.0735 -1.1839
  774MOL0     H 4450   8.312   6.109   1.635  1.8304  1.0141  0.8834
  774MOL0     H 4451   8.009   5.964   1.527  0.9508 -1.2261 -0.7868
  774MOL0     H 4452   8.103   6.063   1.406  1.7682  0.1091 -0.2858
  774MOL0     H 4453   8.177   5.959   1.519 -0.7744 -0.8898  0.0170
  774MOL0     H 4454   7.628   6.039   1.577  1.2073  1.0780  0.1715
  774MOL0     H 4455   7.396   6.022   1.501 -1.2226  1.8352 -0.7156
  774MOL0     H 4456   7.237   5.949   1.343  1.2526 -0.3419 -0.7500
  774MOL0     H 4457   7.182   6.108   1.398  2.3626 -4.3263  3.0745
  774MOL0     H 4458   7.038   6.130   1.186  0.2185  0.3044 -1.9920
  774MOL0     H 4459   7.091   5.971   1.132  0.1708 -0.4612  0.3939
  774MOL0     H 4460   6.940   6.046   1.381  1.4333  0.9433 -0.4419
  774MOL0     H 4461   6.986   5.872   1.337  0.4217 -1.4937 -2.4450
  774MOL0     H 4462   6.786   6.060   1.240 -1.0542 -0.5425  1.5179
  774MOL0     H 4463   6.865   5.956   1.109  3.4652  0.8104  1.1679
  774MOL0     H 4464   6.753   5.811   1.358 -0.8096  0.2223 -0.1336
  774MOL0     H 4465   6.780   5.749   1.196 -1.6804 -1.5681 -0.0473
  774MOL0     H 4466   6.606   5.916   1.112 -0.4344  3.8937  2.7621
  774MOL0     H 4467   6.546   5.766   1.192  0.4909 -0.5177 -0.7799
  774MOL0     H 4468   6.556   6.048   1.305 -1.6130  0.3722  1.8210
  774MOL0     H 4469   6.513   5.915   1.402 -0.6473  0.0216  0.0853
  774MOL0     H 4470   6.315   6.024   1.331 -1.1254  0.9022 -0.7769
  774MOL0     H 4471   6.328   5.868   1.254  1.6585 -0.4801  2.2195
  774MOL0     H 4472   7.515   6.227   1.133 -0.4403 -2.2185  0.7274
  774MOL0     H 4473   7.735   6.237   1.210  3.1622 -3.3895 -0.4555
  774MOL0     H 4474   7.920   6.374   1.786  1.5896  1.4850  0.0889
  774MOL0     H 4475   8.141   6.435   1.861 -0.2586 -2.2863  2.4177
  774MOL0     H 4476  10.052   6.711   2.136  2.4219 -0.7092  0.0181
  774MOL0     H 4477  10.265   6.673   2.024  0.1384  0.3283 -1.2051
  774MOL0     H 4478  10.573   6.767   1.704 -0.7762 -0.6478  2.3725
  774MOL0     H 4479  10.811   6.703   1.668  1.9521 -2.7061  2.1361
  774MOL0     H 4480  10.871   6.283   1.541  0.0174  0.3055 -0.1050
  774MOL0     H 4481  11.019   6.342   1.486 -1.3079  1.2153 -0.8541
  774MOL0     H 4482  11.041   6.197   1.700  0.1656  0.3833  1.4102
  774MOL0     H 4483  10.932   6.321   1.769 -4.0398  0.9092 -3.6893
  774MOL0     H 4484  11.122   6.477   1.760  2.3384  0.5900 -3.1677
  774MOL0     H 4485  11.202   6.380   1.651  1.4586 -0.7733  0.7742
  774MOL0     H 4486  11.223   6.188   1.822  1.4177  0.1915  1.5066
  774MOL0     H 4487  11.163   6.302   1.946  0.1862 -2.0751  0.9101
  774MOL0     H 4488  11.574   6.398   1.883 -1.3087  1.9723  0.8990
  774MOL0     H 4489  10.689   6.299   1.612  0.5448  0.7546  2.4818
  774MOL0     H 4490  10.467   6.344   1.651 -0.2307 -0.9882  2.5356
  775MOL0     O 4491   1.994   7.296   8.097  1.1256  0.2698  0.4889
  775MOL0     C 4492   2.080   7.220   8.138 -0.6227 -0.0522 -0.0025
  775MOL0     O 4493   2.059   7.108   8.212 -1.1486  0.4604 -0.4747
  775MOL0     C 4494   1.945   7.040   8.199  0.5083 -0.6614  0.2552
  775MOL0     C 4495   1.814   7.085   8.224  0.1294 -0.0171  0.3847
  775MOL0     C 4496   1.714   6.983   8.218 -0.4826 -0.0053 -0.1567
  775MOL0     C 4497   1.738   6.852   8.181  0.8628 -0.1780 -0.2532
  775MOL0     O 4498   1.638   6.760   8.170 -0.1275 -0.8525  0.6352
  775MOL0     C 4499   1.503   6.787   8.210  0.1018 -0.1365  0.3657
  775MOL0     C 4500   1.421   6.664   8.201 -0.2034  0.5260 -0.0324
  775MOL0     C 4501   1.277   6.693   8.248  0.2605 -1.2845  0.1054
  775MOL0     C 4502   1.193   6.581   8.225  0.5500 -0.3913 -0.4567
  775MOL0     C 4503   1.051   6.606   8.273 -0.0546  0.7309 -0.5376
  775MOL0     C 4504   0.959   6.477   8.252 -0.6478  0.1164 -0.0984
  775MOL0     C 4505   0.806   6.504   8.266 -0.3605 -0.2535  0.0200
  775MOL0     C 4506   0.729   6.372   8.255  0.6803  0.3296 -0.5859
  775MOL0     N 4507   0.588   6.397   8.246  0.1570 -0.3006 -0.5436
  775MOL0     C 4508   0.515   6.464   8.148 -0.1819 -0.0677 -0.2039
  775MOL0     C 4509   0.390   6.449   8.186 -0.2523 -0.4963 -0.3448
  775MOL0     C 4510   0.271   6.519   8.134 -0.0281  0.3852  1.0056
  775MOL0     C 4511   0.233   6.463   7.992  0.6933 -1.0505  0.5175
  775MOL0     C 4512   0.103   6.530   7.931  0.5485  0.2263  0.1070
  775MOL0     C 4513  -0.020   6.501   8.022  0.1624  0.0982  0.1609
  775MOL0     O 4514  -0.132   6.568   7.966  0.2672  0.4856 -0.0002
  775MOL0     C 4515  -0.250   6.509   7.989 -0.3593  0.2979  0.1677
  775MOL0     C 4516  -0.353   6.541   7.903 -1.2062  0.3761  0.0812
  775MOL0     C 4517  -0.467   6.462   7.896 -1.3395  0.0910  0.1297
  775MOL0     C 4518  -0.565   6.474   7.779  0.4750 -0.0006 -0.0528
  775MOL0     C 4519  -0.491   6.365   8.002  0.6523 -0.2051  0.7601
  775MOL0     C 4520  -0.612   6.292   8.014  0.6600 -0.3951 -0.3021
  775MOL0     O 4521  -0.734   6.356   7.983 -0.2345 -0.5378  0.6603
  775MOL0     C 4522  -0.833   6.281   7.925  1.2334 -0.1792 -0.8930
  775MOL0     C 4523  -0.968   6.305   7.955 -0.0087  0.2096 -0.4287
  775MOL0     C 4524  -1.083   6.246   7.892 -0.7416 -0.6717  0.4065
  775MOL0     C 4525  -1.057   6.146   7.787 -0.4056  0.2645 -0.8253
  775MOL0     O 4526  -1.147   6.074   7.720  0.0331  0.1168  0.2466
  775MOL0     C 4527  -1.281   6.102   7.734  0.5586 -0.3039  0.5067
  775MOL0     C 4528  -1.353   6.014   7.630 -0.2128 -0.2504  0.4430
  775MOL0     C 4529  -1.501   6.058   7.615 -0.0498 -0.8132 -1.0163
  775MOL0     C 4530  -1.557   5.984   7.497  0.5833  0.7905  0.7314
  775MOL0     C 4531  -1.692   6.035   7.445  0.3978  0.4609 -0.4073
  775MOL0     C 4532  -1.807   5.970   7.528 -0.8442 -0.2874  0.6537
  775MOL0     C 4533  -1.940   5.994   7.451  0.7473  0.1938  0.2221
  775MOL0     C 4534  -2.062   5.923   7.518 -1.0725 -0.2910 -0.9197
  775MOL0    Cl 4535  -2.035   5.741   7.532 -0.4605  0.0308 -0.3865
  775MOL0     C 4536  -0.918   6.120   7.761  0.2744 -0.0569 -0.4769
  775MOL0     C 4537  -0.812   6.191   7.823 -0.0835  0.4200 -0.2222
  775MOL0     O 4538  -0.598   6.169   8.042  0.1200 -0.5093 -0.4390
  775MOL0     C 4539  -0.397   6.357   8.100 -0.1194 -0.4751  0.1097
  775MOL0     C 4540  -0.276   6.425   8.092  0.6793 -0.2141  0.7581
  775MOL0     N 4541   0.380   6.361   8.288 -0.4661  0.3199 -0.5462
  775MOL0     N 4542   0.504   6.333   8.331  0.0527 -0.1887 -0.1656
  775MOL0     C 4543   1.858   6.816   8.129 -0.0629 -0.7437 -0.0495
  775MOL0     C 4544   1.966   6.909   8.149 -0.1141 -0.0226 -0.5725
  775MOL0     C 4545   2.215   7.278   8.134 -0.1890 -0.3354 -0.0540
  775MOL0     C 4546   2.239   7.404   8.087 -0.4797 -0.1139  0.2291
  775MOL0     C 4547   2.365   7.462   8.120  0.3640  0.2092  0.7141
  775MOL0     C 4548   2.473   7.390   8.177  0.5381  0.1335  0.0367
  775MOL0     O 4549   2.590   7.454   8.172  0.2786 -0.3552 -0.2971
  775MOL0     C 4550   2.702   7.364   8.181 -1.1761  0.3151 -0.3192
  775MOL0     C 4551   2.838   7.432   8.185  0.0687  0.5057 -0.2924
  775MOL0     C 4552   2.876   7.494   8.317  0.3612 -1.5080  0.9500
  775MOL0     C 4553   3.012   7.571   8.313 -0.1723  1.2136 -0.0690
  775MOL0     C 4554   3.041   7.659   8.428 -0.1229  0.2199  0.6589
  775MOL0     C 4555   3.088   7.727   8.522 -0.2053 -0.1760 -0.0215
  775MOL0     C 4556   2.447   7.259   8.212  0.2554 -0.0155  0.3474
  775MOL0     C 4557   2.317   7.210   8.196 -0.7798  0.0159 -0.4367
  775MOL0     H 4558   1.792   7.182   8.268  3.3828  0.4634  1.2728
  775MOL0     H 4559   1.615   7.015   8.247 -0.4605  1.0767 -1.1878
  775MOL0     H 4560   1.512   6.831   8.310  3.7316  4.3228 -1.5411
  775MOL0     H 4561   1.452   6.854   8.139  2.3251  0.3478 -0.8720
  775MOL0     H 4562   1.429   6.630   8.098  1.9218  1.2142 -0.1480
  775MOL0     H 4563   1.461   6.588   8.269 -1.2275 -0.2025 -0.2292
  775MOL0     H 4564   1.274   6.721   8.354 -0.9238  1.8167 -0.6174
  775MOL0     H 4565   1.240   6.784   8.199 -0.8470 -0.9241  1.5563
  775MOL0     H 4566   1.179   6.561   8.118 -2.4217 -1.0089 -0.0389
  775MOL0     H 4567   1.233   6.495   8.278  4.3635  1.3386 -0.1873
  775MOL0     H 4568   1.044   6.631   8.380 -0.5063 -1.7050  0.0599
  775MOL0     H 4569   1.017   6.689   8.210 -0.7691  2.3600  1.8459
  775MOL0     H 4570   0.983   6.443   8.151 -2.0385  1.3319 -0.8898
  775MOL0     H 4571   0.996   6.412   8.331  2.3554  1.6750 -0.0681
  775MOL0     H 4572   0.800   6.538   8.369  1.5895 -2.1488  0.8336
  775MOL0     H 4573   0.777   6.584   8.197  2.6512  1.2540  0.2957
  775MOL0     H 4574   0.742   6.309   8.344  0.8698 -2.6087 -2.5353
  775MOL0     H 4575   0.768   6.321   8.167  0.8792  0.1100 -0.3715
  775MOL0     H 4576   0.552   6.537   8.076 -1.2027  0.1375 -0.5366
  775MOL0     H 4577   0.185   6.493   8.197 -0.4747 -0.1353  0.2037
  775MOL0     H 4578   0.287   6.627   8.127 -2.0072  0.7184  1.0064
  775MOL0     H 4579   0.214   6.355   7.997  1.5884 -1.1992  0.7660
  775MOL0     H 4580   0.310   6.492   7.920 -1.5776  1.5638 -1.0536
  775MOL0     H 4581   0.085   6.484   7.833 -0.8272 -1.3977  1.0688
  775MOL0     H 4582   0.111   6.638   7.921 -0.7410  0.3523  0.1620
  775MOL0     H 4583   0.002   6.547   8.119  0.8474  0.9161 -0.3638
  775MOL0     H 4584  -0.032   6.393   8.033 -0.7080  0.2606  0.9809
  775MOL0     H 4585  -0.353   6.621   7.830 -2.5933  0.5058  0.1897
  775MOL0     H 4586  -0.644   6.541   7.815 -0.8477 -1.6072  0.1252
  775MOL0     H 4587  -0.503   6.525   7.704 -2.6042  0.9841 -2.1517
  775MOL0     H 4588  -0.608   6.381   7.742  3.3183 -0.6595 -2.0225
  775MOL0     H 4589  -0.984   6.370   8.040  1.2916 -0.5793  0.4486
  775MOL0     H 4590  -1.188   6.259   7.918 -0.5323 -2.6390  2.4858
  775MOL0     H 4591  -1.333   6.076   7.827 -0.7389  0.9088  0.1430
  775MOL0     H 4592  -1.299   6.207   7.710  2.1198 -0.5338 -1.9261
  775MOL0     H 4593  -1.314   6.033   7.529 -2.8116  1.0368 -0.4111
  775MOL0     H 4594  -1.342   5.907   7.652 -2.2049 -0.5263  0.3004
  775MOL0     H 4595  -1.482   6.162   7.587  1.4730  0.0533  2.6393
  775MOL0     H 4596  -1.555   6.057   7.710  1.8100  0.5728  0.1256
  775MOL0     H 4597  -1.487   5.993   7.414  1.2967 -1.8510  0.9307
  775MOL0     H 4598  -1.555   5.877   7.520 -0.0489 -0.4793 -4.0010
  775MOL0     H 4599  -1.715   6.000   7.344  0.0993 -4.0285  1.0233
  775MOL0     H 4600  -1.694   6.144   7.438 -2.1792  0.4215 -1.4190
  775MOL0     H 4601  -1.788   5.862   7.532 -1.5246 -0.3709  2.1435
  775MOL0     H 4602  -1.813   6.013   7.628  2.5024  1.2693  0.3287
  775MOL0     H 4603  -1.932   5.983   7.343  1.2006 -0.5287  0.3253
  775MOL0     H 4604  -1.973   6.098   7.446 -2.7913 -0.6653  1.9392
  775MOL0     H 4605  -2.143   5.935   7.446 -0.1739  2.1772 -1.6265
  775MOL0     H 4606  -2.080   5.970   7.615 -0.1053 -1.5160 -0.1078
  775MOL0     H 4607  -0.907   6.035   7.694 -0.6391 -2.2953  2.0629
  775MOL0     H 4608  -0.712   6.184   7.782 -0.2675 -1.6047 -0.4619
  775MOL0     H 4609  -0.419   6.293   8.184  0.1266 -1.1012 -0.2928
  775MOL0     H 4610  -0.207   6.410   8.174  0.3588 -0.3776  0.9965
  775MOL0     H 4611   1.872   6.715   8.090 -0.3385 -2.1280  3.0924
  775MOL0     H 4612   2.067   6.882   8.122 -0.4445  2.7758 -5.9749
  775MOL0     H 4613   2.162   7.478   8.066  0.9321  1.5937  0.7621
  775MOL0     H 4614   2.375   7.570   8.111  2.0746  0.2157  2.1752
  775MOL0     H 4615   2.699   7.295   8.266 -1.5356  2.6884  1.7277
  775MOL0     H 4616   2.720   7.303   8.092  0.3122 -1.0059  0.8095
  775MOL0     H 4617   2.836   7.495   8.095  0.2534 -1.0267 -1.4053
  775MOL0     H 4618   2.906   7.349   8.166 -0.8046  0.0195 -1.4625
  775MOL0     H 4619   2.873   7.427   8.404  0.1861  1.2909  3.2327
  775MOL0     H 4620   2.807   7.578   8.326  2.4294  0.6497 -1.4822
  775MOL0     H 4621   3.007   7.639   8.227 -0.3408 -1.1864 -2.0774
  775MOL0     H 4622   3.089   7.495   8.293 -0.7122  0.3511  1.0074
  775MOL0     H 4623   3.128   7.797   8.593 -0.8511  1.6420 -1.3484
  775MOL0     H 4624   2.524   7.196   8.256  3.3256  2.7607 -0.6847
  775MOL0     H 4625   2.300   7.108   8.227 -4.2567  0.8576  0.8953
  776MOL0     O 4626  10.556   5.675   6.977  0.2097  0.5902  0.1838
  776MOL0     C 4627  10.602   5.629   6.873 -0.3054  0.9299 -0.4363
  776MOL0     O 4628  10.527   5.569   6.772 -0.5004  0.1866 -0.0951
  776MOL0     C 4629  10.401   5.540   6.788  0.1463 -0.1606 -0.5927
  776MOL0     C 4630  10.314   5.577   6.689 -0.6859 -0.1851 -0.3939
  776MOL0     C 4631  10.177   5.556   6.693 -0.5274 -0.3712 -0.3559
  776MOL0     C 4632  10.128   5.488   6.806 -1.0960 -0.8473 -0.3338
  776MOL0     O 4633   9.988   5.461   6.813 -0.1025 -0.1412 -0.0537
  776MOL0     C 4634   9.951   5.367   6.916 -0.4469  0.7920 -0.5730
  776MOL0     C 4635   9.802   5.328   6.922  0.1548  1.0301  0.5240
  776MOL0     C 4636   9.725   5.285   6.790 -0.0530 -0.2584 -0.4912
  776MOL0     C 4637   9.589   5.238   6.832  0.9510 -0.1290 -0.1376
  776MOL0     C 4638   9.500   5.223   6.704  0.5713  0.2326 -0.3179
  776MOL0     C 4639   9.347   5.248   6.740  0.8575  0.8008  0.4238
  776MOL0     C 4640   9.262   5.221   6.615 -0.1814 -0.0877  0.2823
  776MOL0     C 4641   9.112   5.223   6.649  0.0426  0.0106 -1.1465
  776MOL0     N 4642   9.046   5.354   6.652 -0.9149  0.1651  0.6814
  776MOL0     C 4643   8.994   5.423   6.755  0.0546  0.7324  0.6076
  776MOL0     C 4644   8.959   5.544   6.704 -0.7630 -0.0417 -0.1149
  776MOL0     C 4645   8.896   5.651   6.786  0.9732 -0.1959 -0.2560
  776MOL0     C 4646   8.745   5.617   6.821  1.3345  0.8214  0.9351
  776MOL0     C 4647   8.696   5.725   6.915  0.5438  0.1555 -0.8952
  776MOL0     C 4648   8.547   5.740   6.946  0.0078  0.9777  0.3562
  776MOL0     O 4649   8.488   5.609   6.966  0.9840  0.4818 -0.4552
  776MOL0     C 4650   8.356   5.619   6.929  0.5885  0.1205 -0.5286
  776MOL0     C 4651   8.322   5.624   6.800  0.1252 -0.0625 -0.8288
  776MOL0     C 4652   8.185   5.633   6.764  0.2251  0.3101 -0.6653
  776MOL0     C 4653   8.132   5.607   6.623  0.4585  0.2009  0.1509
  776MOL0     C 4654   8.082   5.637   6.868 -0.5851 -0.1466  0.1137
  776MOL0     C 4655   7.935   5.625   6.842  0.0001  0.5498 -0.6172
  776MOL0     O 4656   7.886   5.704   6.743  0.1145  0.1357  0.5409
  776MOL0     C 4657   7.753   5.687   6.706  0.1506  0.1724  1.6142
  776MOL0     C 4658   7.732   5.603   6.592  0.4121 -0.4504  0.3999
  776MOL0     C 4659   7.597   5.595   6.556 -0.6105 -0.5598 -0.6532
  776MOL0     C 4660   7.487   5.653   6.620 -0.5468 -0.0719 -0.1241
  776MOL0     O 4661   7.357   5.628   6.578 -0.3728 -0.6523  0.0591
  776MOL0     C 4662   7.253   5.675   6.659  0.0607  0.3741  0.3762
  776MOL0     C 4663   7.126   5.612   6.602  0.2760 -0.0026  0.1603
  776MOL0     C 4664   6.989   5.641   6.684  0.1118  0.5653 -0.8535
  776MOL0     C 4665   6.858   5.577   6.628 -0.9413 -0.0237  0.6354
  776MOL0     C 4666   6.831   5.616   6.478 -0.2427 -0.3236 -0.1902
  776MOL0     C 4667   6.692   5.579   6.427 -1.6078  0.2167 -1.0698
  776MOL0     C 4668   6.678   5.593   6.278  0.4080 -0.0094 -0.3073
  776MOL0     C 4669   6.544   5.524   6.234 -0.5315 -0.1661  0.0709
  776MOL0    Cl 4670   6.516   5.357   6.301 -0.0431 -0.0933 -0.1713
  776MOL0     C 4671   7.519   5.734   6.734 -0.2102  0.1628 -0.2116
  776MOL0     C 4672   7.648   5.746   6.781 -0.4128  0.9210  0.7795
  776MOL0     O 4673   7.868   5.559   6.922  0.3138 -0.6402 -0.1828
  776MOL0     C 4674   8.123   5.635   6.998  0.1545 -0.5351 -0.2260
  776MOL0     C 4675   8.257   5.635   7.023 -0.1188  0.1378 -0.1708
  776MOL0     N 4676   9.010   5.545   6.575  0.4444 -0.3941  0.5992
  776MOL0     N 4677   9.056   5.431   6.541  0.7550  0.5150  0.2282
  776MOL0     C 4678  10.222   5.444   6.911  0.0540  0.5224 -0.2781
  776MOL0     C 4679  10.356   5.472   6.898  0.1869 -0.2216 -0.0957
  776MOL0     C 4680  10.744   5.650   6.844 -0.0798 -1.0226 -0.0429
  776MOL0     C 4681  10.801   5.571   6.747 -0.2993  0.2462 -0.0235
  776MOL0     C 4682  10.941   5.592   6.719  0.6762 -0.2677  0.7889
  776MOL0     C 4683  11.020   5.681   6.789 -0.3406 -0.2308  0.6648
  776MOL0     O 4684  11.160   5.683   6.785  0.4147 -0.1300 -0.3313
  776MOL0     C 4685  11.223   5.587   6.706 -0.1532 -0.4516  0.5176
  776MOL0     C 4686  11.367   5.635   6.688  0.8406  0.4370 -0.2548
  776MOL0     C 4687  11.456   5.510   6.650  0.3495 -0.0881 -0.0909
  776MOL0     C 4688  11.604   5.547   6.625  0.1741  0.7387 -0.4357
  776MOL0     C 4689  11.679   5.589   6.741 -0.5104  0.1049  0.4384
  776MOL0     C 4690  11.752   5.638   6.829 -0.1052 -0.1279  0.2038
  776MOL0     C 4691  10.958   5.759   6.881 -0.5712 -0.3642 -0.5426
  776MOL0     C 4692  10.818   5.748   6.916  0.5493 -0.1064 -0.5359
  776MOL0     H 4693  10.361   5.627   6.606  0.2210  0.2083  0.3408
  776MOL0     H 4694  10.108   5.566   6.610 -2.1967 -1.1747  0.8708
  776MOL0     H 4695  10.018   5.282   6.928  4.5474  4.3271 -0.0794
  776MOL0     H 4696   9.962   5.421   7.011 -1.6601 -0.4582  0.3227
  776MOL0     H 4697   9.797   5.238   6.984 -0.5856 -0.0809 -1.0914
  776MOL0     H 4698   9.741   5.404   6.971 -0.1104  1.9177 -1.1169
  776MOL0     H 4699   9.718   5.357   6.708 -1.7129 -0.7136 -0.7893
  776MOL0     H 4700   9.785   5.200   6.758  1.9858  0.3485  1.3897
  776MOL0     H 4701   9.581   5.148   6.893  3.4119  0.1941  0.7383
  776MOL0     H 4702   9.544   5.321   6.887  0.8963 -1.1087  1.3584
  776MOL0     H 4703   9.519   5.294   6.624  0.8233 -0.6341 -1.0427
  776MOL0     H 4704   9.521   5.127   6.654  0.9747  1.3803 -2.4702
  776MOL0     H 4705   9.310   5.180   6.817 -1.0662  2.0418  0.6532
  776MOL0     H 4706   9.332   5.351   6.773  0.3748  0.7031  0.5166
  776MOL0     H 4707   9.287   5.295   6.539  0.8519 -0.5023  0.2022
  776MOL0     H 4708   9.280   5.123   6.571 -0.9091 -0.8507  1.6084
  776MOL0     H 4709   9.097   5.180   6.749  0.3638 -0.3619 -1.2602
  776MOL0     H 4710   9.055   5.166   6.575 -2.2213  1.5187 -0.6676
  776MOL0     H 4711   8.969   5.385   6.854  0.3113 -0.4534  0.2261
  776MOL0     H 4712   8.950   5.665   6.880  0.9699 -1.0197 -0.1257
  776MOL0     H 4713   8.897   5.745   6.730  2.1633 -0.1006 -0.1139
  776MOL0     H 4714   8.748   5.517   6.865  2.0008 -0.4085 -1.7304
  776MOL0     H 4715   8.683   5.616   6.731 -0.1933  0.5782  1.9541
  776MOL0     H 4716   8.736   5.823   6.887 -0.4335  0.9509  0.3994
  776MOL0     H 4717   8.740   5.708   7.013 -0.3381  0.2786 -0.4608
  776MOL0     H 4718   8.495   5.792   6.865 -1.8867 -0.8260  0.3327
  776MOL0     H 4719   8.533   5.799   7.037  1.1446  0.7694  0.6881
  776MOL0     H 4720   8.396   5.612   6.722  1.1694  0.4307  0.0586
  776MOL0     H 4721   8.102   5.701   6.576  1.4628  1.3067  1.5698
  776MOL0     H 4722   8.215   5.562   6.568 -0.4455 -1.7446  0.2965
  776MOL0     H 4723   8.060   5.526   6.615  0.7951 -0.1428  0.5664
  776MOL0     H 4724   7.800   5.544   6.530  0.5492 -0.4547  0.5542
  776MOL0     H 4725   7.587   5.533   6.467  1.0850  1.4569 -2.3419
  776MOL0     H 4726   7.271   5.653   6.765 -0.6346  0.5889  0.5431
  776MOL0     H 4727   7.253   5.784   6.650  2.9156  0.4562  0.5056
  776MOL0     H 4728   7.113   5.644   6.499  1.8791  2.0908  0.5421
  776MOL0     H 4729   7.142   5.504   6.596 -0.9274 -0.2651  1.3964
  776MOL0     H 4730   6.979   5.749   6.699 -1.8984  0.8368 -3.4323
  776MOL0     H 4731   7.006   5.605   6.786 -2.7432  0.6098 -0.2876
  776MOL0     H 4732   6.859   5.468   6.626  1.0403 -0.0799  1.7434
  776MOL0     H 4733   6.771   5.610   6.687  0.8746  1.7762  2.4674
  776MOL0     H 4734   6.906   5.566   6.416 -0.9156 -3.0208  1.0367
  776MOL0     H 4735   6.834   5.726   6.473 -0.8751 -0.2307  1.0197
  776MOL0     H 4736   6.676   5.473   6.450 -0.7477  0.1375 -0.8026
  776MOL0     H 4737   6.624   5.649   6.477 -1.4447  0.0961 -0.6728
  776MOL0     H 4738   6.763   5.541   6.232 -0.9672 -1.8677 -0.8691
  776MOL0     H 4739   6.685   5.700   6.256  2.0937  0.0020  0.1094
  776MOL0     H 4740   6.531   5.515   6.126 -3.6459  0.4255  0.3083
  776MOL0     H 4741   6.476   5.602   6.268  2.6903  2.3236  1.4062
  776MOL0     H 4742   7.443   5.778   6.798 -0.7353  0.1332 -0.8054
  776MOL0     H 4743   7.666   5.795   6.877  0.0029 -0.9433  1.7008
  776MOL0     H 4744   8.053   5.610   7.077  0.6295 -0.3429  0.2650
  776MOL0     H 4745   8.288   5.648   7.127 -3.3533 -0.7708  1.0255
  776MOL0     H 4746  10.187   5.391   6.999  1.0166 -1.3653 -0.9906
  776MOL0     H 4747  10.423   5.431   6.972 -1.1481 -3.6503 -0.6395
  776MOL0     H 4748  10.741   5.503   6.689  0.1453 -1.1091  1.0469
  776MOL0     H 4749  10.983   5.528   6.642 -3.1626 -0.3531 -1.4927
  776MOL0     H 4750  11.228   5.496   6.766  0.3362 -1.0310 -0.3767
  776MOL0     H 4751  11.185   5.567   6.605 -1.4579 -0.6189  1.0290
  776MOL0     H 4752  11.407   5.679   6.779  1.5681 -0.2092 -0.2555
  776MOL0     H 4753  11.363   5.715   6.612  1.0645 -1.4167 -2.3297
  776MOL0     H 4754  11.407   5.443   6.578 -2.1692 -0.1617  1.5564
  776MOL0     H 4755  11.469   5.448   6.738  1.1261 -0.3849 -0.4084
  776MOL0     H 4756  11.613   5.622   6.545  1.1589 -0.6353 -1.6707
  776MOL0     H 4757  11.645   5.449   6.601  1.7596  1.3231 -0.2384
  776MOL0     H 4758  11.816   5.672   6.908 -0.9377 -4.6091  3.1948
  776MOL0     H 4759  11.021   5.822   6.941  1.1928 -2.7444  0.2410
  776MOL0     H 4760  10.769   5.806   6.993  2.4882 -0.8666  1.3992
  777MOL0     O 4761   8.954   7.674   0.176  0.2848 -0.1258 -0.5490
  777MOL0     C 4762   8.906   7.611   0.270  0.0224 -0.8000 -1.0671
  777MOL0     O 4763   8.982   7.580   0.378  0.3789  0.7044 -0.3166
  777MOL0     C 4764   9.120   7.613   0.367  0.0390 -0.2856  0.3262
  777MOL0     C 4765   9.194   7.546   0.261 -0.7802  0.9227  0.2808
  777MOL0     C 4766   9.328   7.573   0.257  0.0814  0.3559  0.7918
  777MOL0     C 4767   9.402   7.644   0.356  0.1859  0.5147  0.1761
  777MOL0     O 4768   9.544   7.643   0.367  0.1491 -0.4512 -0.0500
  777MOL0     C 4769   9.623   7.551   0.287 -0.3105 -0.3821  0.9059
  777MOL0     C 4770   9.766   7.521   0.345 -0.2527 -0.0783 -0.4009
  777MOL0     C 4771   9.863   7.636   0.320 -0.3588 -0.7011  1.2623
  777MOL0     C 4772  10.003   7.603   0.355 -0.1391  0.6630 -0.2434
  777MOL0     C 4773  10.105   7.717   0.323 -0.1269 -0.1410 -0.5427
  777MOL0     C 4774  10.113   7.822   0.447  0.3190 -0.0433 -0.0888
  777MOL0     C 4775  10.227   7.922   0.455  0.7413 -0.7119  0.1968
  777MOL0     C 4776  10.206   8.043   0.356 -0.3047 -0.1225 -0.3468
  777MOL0     N 4777  10.221   7.998   0.219 -0.4660  0.5849  0.5462
  777MOL0     C 4778  10.339   7.950   0.166 -0.6681 -0.0900 -0.6792
  777MOL0     C 4779  10.313   7.936   0.035  0.5898  0.2590  0.1956
  777MOL0     C 4780  10.421   7.887  -0.055 -0.1078 -0.2183 -0.1352
  777MOL0     C 4781  10.428   7.735  -0.072 -0.1269  0.3201 -0.9933
  777MOL0     C 4782  10.485   7.662   0.056 -0.2288 -0.6251  0.3386
  777MOL0     C 4783  10.477   7.509   0.037  0.6046  0.1123  0.4093
  777MOL0     O 4784  10.535   7.444   0.147 -0.1652  0.3512 -0.1429
  777MOL0     C 4785  10.449   7.398   0.248  0.3143  0.4579  0.7801
  777MOL0     C 4786  10.516   7.312   0.337 -0.5228 -0.1806  0.1661
  777MOL0     C 4787  10.463   7.249   0.449 -0.3358 -0.7481  0.5928
  777MOL0     C 4788  10.549   7.162   0.538  1.0580 -0.0730  0.6554
  777MOL0     C 4789  10.319   7.259   0.463 -0.7280  0.2446  0.1383
  777MOL0     C 4790  10.249   7.183   0.569  0.9020 -0.3114  0.7075
  777MOL0     O 4791  10.118   7.213   0.571 -0.6990 -0.4131  0.1114
  777MOL0     C 4792  10.018   7.126   0.617  0.0871 -0.1731  0.9243
  777MOL0     C 4793  10.025   6.983   0.611 -0.1137  0.6675 -0.2379
  777MOL0     C 4794   9.923   6.902   0.657  0.8209 -0.3951 -0.5645
  777MOL0     C 4795   9.812   6.958   0.725  0.1566  0.3215  0.3522
  777MOL0     O 4796   9.718   6.865   0.762  0.0663  0.0828 -0.1757
  777MOL0     C 4797   9.621   6.907   0.857 -0.1853  0.3625  0.4130
  777MOL0     C 4798   9.516   6.796   0.877 -1.0666  0.0588  0.3388
  777MOL0     C 4799   9.595   6.698   0.972 -0.1204 -0.3889  0.3456
  777MOL0     C 4800   9.503   6.584   1.024  0.0193 -1.0767  0.1876
  777MOL0     C 4801   9.574   6.477   1.108  0.0343 -0.0928  0.3624
  777MOL0     C 4802   9.499   6.358   1.169  0.0513 -0.2216 -0.3326
  777MOL0     C 4803   9.374   6.403   1.246 -0.0376  0.2603 -0.6929
  777MOL0     C 4804   9.283   6.290   1.289  1.1072 -0.3145  0.6823
  777MOL0    Cl 4805   9.162   6.352   1.416  0.1624 -0.2317  0.1460
  777MOL0     C 4806   9.807   7.096   0.741 -0.3244  0.3260 -0.0361
  777MOL0     C 4807   9.903   7.178   0.674 -0.0532 -0.8566  0.1522
  777MOL0     O 4808  10.294   7.108   0.649 -0.8146  0.3352  0.3501
  777MOL0     C 4809  10.249   7.340   0.375  0.0543  0.0118 -0.0539
  777MOL0     C 4810  10.309   7.413   0.266 -0.5488 -0.3682 -0.5561
  777MOL0     N 4811  10.188   7.987   0.009  0.5194 -0.4948 -0.3349
  777MOL0     N 4812  10.128   8.016   0.116  0.4226 -0.5037 -1.9448
  777MOL0     C 4813   9.332   7.694   0.467  1.5508 -0.0252  0.0051
  777MOL0     C 4814   9.192   7.668   0.477  0.1578 -0.3033 -0.7947
  777MOL0     C 4815   8.761   7.574   0.272 -1.0322 -0.3223  0.5640
  777MOL0     C 4816   8.686   7.553   0.151  0.9129 -0.6348 -0.4685
  777MOL0     C 4817   8.550   7.512   0.160 -0.5983 -0.4258  0.3193
  777MOL0     C 4818   8.497   7.464   0.278 -0.7240 -0.0142 -0.3611
  777MOL0     O 4819   8.367   7.417   0.287 -0.3452  0.1145  0.2301
  777MOL0     C 4820   8.316   7.333   0.397 -0.6726  0.0874  0.6264
  777MOL0     C 4821   8.190   7.262   0.344  0.0933  0.1046  0.0956
  777MOL0     C 4822   8.062   7.342   0.325  0.6414 -0.6337 -0.6899
  777MOL0     C 4823   8.078   7.431   0.211  0.5069  0.1040  0.2054
  777MOL0     C 4824   7.961   7.503   0.175  0.1041 -1.1230 -0.3695
  777MOL0     C 4825   7.860   7.564   0.145  0.8554 -0.4039 -0.3551
  777MOL0     C 4826   8.584   7.475   0.393  0.4298  0.4265 -1.0580
  777MOL0     C 4827   8.716   7.525   0.390  0.3464 -0.7968  0.0338
  777MOL0     H 4828   9.151   7.486   0.182 -2.5534 -0.2688  2.0702
  777MOL0     H 4829   9.382   7.538   0.170 -2.5380  1.0763 -1.2359
  777MOL0     H 4830   9.574   7.453   0.282 -0.6607 -0.1639 -0.3321
  777MOL0     H 4831   9.630   7.594   0.187 -1.7155 -1.7936  0.1543
  777MOL0     H 4832   9.765   7.500   0.453  2.9493 -0.6410 -0.3674
  777MOL0     H 4833   9.819   7.438   0.297 -0.3505 -0.8766  0.8381
  777MOL0     H 4834   9.873   7.651   0.213  4.9172 -2.0533  1.3065
  777MOL0     H 4835   9.825   7.725   0.371 -0.1950 -1.7063  3.2363
  777MOL0     H 4836  10.009   7.562   0.457 -0.3110  1.3213  0.0374
  777MOL0     H 4837  10.028   7.519   0.290 -0.5644 -2.0291  2.7911
  777MOL0     H 4838  10.207   7.679   0.318  1.0447  1.6455  4.0620
  777MOL0     H 4839  10.090   7.774   0.231  0.1710  0.4140 -0.2554
  777MOL0     H 4840  10.021   7.882   0.453  0.9314  0.7742  2.3783
  777MOL0     H 4841  10.121   7.762   0.538  0.4946  1.6931  1.0944
  777MOL0     H 4842  10.231   7.957   0.559 -2.3347 -1.4085  0.6324
  777MOL0     H 4843  10.319   7.864   0.445  0.1709 -1.3135 -2.4511
  777MOL0     H 4844  10.279   8.117   0.389  0.5299 -1.9198  2.1556
  777MOL0     H 4845  10.103   8.079   0.364  0.1357  0.8950  1.1922
  777MOL0     H 4846  10.434   7.936   0.216  0.2049  0.5006 -2.0881
  777MOL0     H 4847  10.411   7.930  -0.155  1.4906  0.6477  0.0460
  777MOL0     H 4848  10.520   7.922  -0.024  0.9941 -2.2796 -1.1326
  777MOL0     H 4849  10.500   7.721  -0.153  1.8831  4.1359 -0.0659
  777MOL0     H 4850  10.330   7.686  -0.080  0.0064  0.3219 -2.9483
  777MOL0     H 4851  10.419   7.690   0.138  0.9676  2.5654  0.3514
  777MOL0     H 4852  10.587   7.691   0.083 -0.0879 -0.7151 -0.0773
  777MOL0     H 4853  10.532   7.489  -0.056 -0.1943  0.9774 -0.2692
  777MOL0     H 4854  10.375   7.472   0.023  0.6269 -0.1488  0.9314
  777MOL0     H 4855  10.621   7.299   0.313 -0.7363 -0.8441 -0.4542
  777MOL0     H 4856  10.531   7.054   0.543  1.8575 -0.2777 -0.4408
  777MOL0     H 4857  10.645   7.165   0.486 -0.9587  0.8072 -3.4162
  777MOL0     H 4858  10.557   7.206   0.638 -2.4225 -2.3294  2.1064
  777MOL0     H 4859  10.107   6.934   0.560 -0.2717  0.5208 -0.3489
  777MOL0     H 4860   9.933   6.795   0.648  2.6041 -0.2410 -0.7265
  777MOL0     H 4861   9.671   6.941   0.949  3.4972 -6.0741  1.4031
  777MOL0     H 4862   9.560   6.983   0.806  0.5927  1.3533  0.9071
  777MOL0     H 4863   9.425   6.836   0.922  0.3150  2.1241  1.4929
  777MOL0     H 4864   9.499   6.744   0.783 -1.3603 -0.2423  0.5572
  777MOL0     H 4865   9.619   6.750   1.065 -2.3938 -0.4447  1.0192
  777MOL0     H 4866   9.681   6.660   0.916  1.0086  2.0658  0.2836
  777MOL0     H 4867   9.411   6.625   1.066  1.4295  1.2381  1.2530
  777MOL0     H 4868   9.472   6.524   0.939 -2.0515  0.9597 -0.5977
  777MOL0     H 4869   9.634   6.527   1.186  0.4930  1.0755 -0.7032
  777MOL0     H 4870   9.652   6.432   1.046  0.9819  0.4351  1.1330
  777MOL0     H 4871   9.475   6.292   1.085  1.6003 -1.2685  0.0033
  777MOL0     H 4872   9.566   6.301   1.234 -0.5908 -2.7402 -1.7280
  777MOL0     H 4873   9.305   6.473   1.199 -1.2468 -0.1986  0.3465
  777MOL0     H 4874   9.409   6.453   1.337 -0.9182 -0.0688 -0.1643
  777MOL0     H 4875   9.340   6.199   1.310  2.4296 -0.9782 -4.4280
  777MOL0     H 4876   9.211   6.263   1.211  2.5019 -2.0340 -0.0803
  777MOL0     H 4877   9.734   7.153   0.799 -0.2287  0.9978 -0.5591
  777MOL0     H 4878   9.885   7.284   0.686 -1.3088 -0.9155 -1.0060
  777MOL0     H 4879  10.142   7.339   0.393  0.5766 -2.6897  4.3383
  777MOL0     H 4880  10.244   7.477   0.208 -0.7243  0.2982  0.3567
  777MOL0     H 4881   9.385   7.739   0.550 -0.6068 -0.8980  1.9579
  777MOL0     H 4882   9.132   7.700   0.562  2.0064  0.7010  0.1835
  777MOL0     H 4883   8.736   7.576   0.058  0.3725  1.3417 -0.3233
  777MOL0     H 4884   8.489   7.511   0.070  2.1811  2.0394 -1.7809
  777MOL0     H 4885   8.393   7.257   0.414 -1.4050 -0.9014 -0.3372
  777MOL0     H 4886   8.305   7.387   0.491  1.0473  2.7798 -0.5864
  777MOL0     H 4887   8.163   7.182   0.413 -2.4898  2.1356  1.6541
  777MOL0     H 4888   8.227   7.211   0.255  5.0369  2.1867  0.5785
  777MOL0     H 4889   8.043   7.398   0.417 -0.6993 -0.0075 -1.3265
  777MOL0     H 4890   7.987   7.265   0.310  0.2037 -0.1700 -0.9062
  777MOL0     H 4891   8.120   7.383   0.122  0.4036 -1.5585  1.0285
  777MOL0     H 4892   8.162   7.498   0.229  0.3754  0.2949  0.1202
  777MOL0     H 4893   7.772   7.616   0.115  0.1937 -0.9317  0.6285
  777MOL0     H 4894   8.551   7.415   0.477  2.7207 -3.2813 -2.5281
  777MOL0     H 4895   8.780   7.516   0.478 -0.4503  2.3578  1.0865
  778MOL0     O 4896   5.742   7.163   5.716 -0.2977  0.4845  0.1892
  778MOL0     C 4897   5.781   7.280   5.694 -0.6020  0.0432 -0.4927
  778MOL0     O 4898   5.705   7.377   5.644 -0.0173 -0.0571 -0.5710
  778MOL0     C 4899   5.571   7.368   5.624 -0.0434  0.1341  0.1004
  778MOL0     C 4900   5.506   7.263   5.564 -0.6676 -0.3949  0.1188
  778MOL0     C 4901   5.369   7.264   5.532 -0.3490 -0.5741  0.5878
  778MOL0     C 4902   5.290   7.379   5.573  1.1004  1.0627  0.6258
  778MOL0     O 4903   5.152   7.389   5.551  0.0826  0.2466  0.1225
  778MOL0     C 4904   5.097   7.301   5.450 -0.4774 -0.3075  0.1466
  778MOL0     C 4905   4.953   7.331   5.418  0.6735  0.5553 -0.4149
  778MOL0     C 4906   4.863   7.314   5.550  0.6250 -0.8124  0.6032
  778MOL0     C 4907   4.709   7.321   5.513  0.2328  0.3515  0.2400
  778MOL0     C 4908   4.610   7.298   5.631  0.0886 -0.6579 -0.5556
  778MOL0     C 4909   4.468   7.297   5.587 -0.4768 -1.0056 -0.1863
  778MOL0     C 4910   4.379   7.235   5.701 -0.3795 -0.2468  0.4043
  778MOL0     C 4911   4.361   7.316   5.828 -0.6883 -0.2779  0.1059
  778MOL0     N 4912   4.270   7.241   5.919  0.4553 -0.0496 -0.9278
  778MOL0     C 4913   4.295   7.172   6.033 -0.3476  0.1087 -0.6280
  778MOL0     C 4914   4.170   7.133   6.074  0.3934 -0.1737  0.4796
  778MOL0     C 4915   4.139   7.046   6.188  0.6927 -0.0346 -0.6231
  778MOL0     C 4916   4.184   6.902   6.166  0.7087 -0.2851  0.3877
  778MOL0     C 4917   4.131   6.825   6.030 -0.2321  0.1221  0.3898
  778MOL0     C 4918   4.132   6.665   6.029 -0.1182  0.7674 -0.2996
  778MOL0     O 4919   4.029   6.617   6.106  0.7856  0.1418  0.0762
  778MOL0     C 4920   3.897   6.605   6.063  0.5052  0.2802 -0.2660
  778MOL0     C 4921   3.863   6.598   5.928 -0.0568  0.3315  0.0496
  778MOL0     C 4922   3.732   6.591   5.889  0.0124  0.4913  0.0881
  778MOL0     C 4923   3.698   6.588   5.737 -0.4811  0.0229 -0.4133
  778MOL0     C 4924   3.635   6.585   5.995  0.2588  0.5851  0.4610
  778MOL0     C 4925   3.486   6.583   5.959 -0.0199 -0.2735  0.2830
  778MOL0     O 4926   3.436   6.611   5.829 -0.1016  0.1816 -0.8749
  778MOL0     C 4927   3.304   6.584   5.800 -0.4083  0.7010  0.1840
  778MOL0     C 4928   3.291   6.476   5.715  0.3840 -0.1391  0.5446
  778MOL0     C 4929   3.159   6.422   5.687 -1.0003  0.0564  0.2389
  778MOL0     C 4930   3.044   6.483   5.744 -0.3557 -1.0985 -0.9871
  778MOL0     O 4931   2.913   6.447   5.730  0.7912 -0.3057 -0.5842
  778MOL0     C 4932   2.888   6.383   5.603 -0.5807  0.3817  0.1641
  778MOL0     C 4933   2.738   6.378   5.583  0.5970 -0.5705  0.0534
  778MOL0     C 4934   2.711   6.256   5.492  0.0996  0.2851 -0.6376
  778MOL0     C 4935   2.567   6.246   5.446 -0.2733 -0.2971 -0.2207
  778MOL0     C 4936   2.552   6.132   5.355 -0.6034 -0.0071 -0.2461
  778MOL0     C 4937   2.436   6.142   5.265 -0.3136  0.0043 -0.6765
  778MOL0     C 4938   2.301   6.197   5.334 -0.1216  0.0704  0.6597
  778MOL0     C 4939   2.172   6.178   5.263 -0.0027 -0.6158  0.5429
  778MOL0    Cl 4940   2.123   6.006   5.257 -0.2135  0.4217 -0.0961
  778MOL0     C 4941   3.064   6.596   5.831  0.0619  0.0635 -0.5775
  778MOL0     C 4942   3.191   6.642   5.862 -0.2238 -0.4617 -0.1530
  778MOL0     O 4943   3.416   6.576   6.058 -0.3315  0.2520 -0.2525
  778MOL0     C 4944   3.671   6.585   6.131  0.2713  0.6196  0.5688
  778MOL0     C 4945   3.800   6.597   6.162  0.4096  0.1242 -0.5876
  778MOL0     N 4946   4.072   7.190   5.991 -0.7988 -0.3167  0.6848
  778MOL0     N 4947   4.135   7.261   5.912  0.6165 -0.0389 -0.1337
  778MOL0     C 4948   5.359   7.483   5.637  0.3957 -0.1602  1.0971
  778MOL0     C 4949   5.497   7.479   5.656  0.9728 -0.4369 -0.5350
  778MOL0     C 4950   5.922   7.313   5.733  0.5976 -0.3024 -0.2290
  778MOL0     C 4951   6.023   7.215   5.749 -0.3255 -0.1233 -0.8600
  778MOL0     C 4952   6.154   7.252   5.757 -0.4891 -0.6048 -0.2649
  778MOL0     C 4953   6.181   7.393   5.769 -0.4698  0.7399 -0.1836
  778MOL0     O 4954   6.311   7.433   5.784  0.1381 -0.2517  0.3394
  778MOL0     C 4955   6.388   7.375   5.889  0.0067  0.5403 -0.0793
  778MOL0     C 4956   6.524   7.417   5.887 -0.1784  0.1157  0.4269
  778MOL0     C 4957   6.624   7.330   5.810 -0.3194  1.1844 -0.1352
  778MOL0     C 4958   6.599   7.337   5.656 -0.6718 -0.5099 -0.2622
  778MOL0     C 4959   6.675   7.244   5.579  0.4951 -0.2835  1.0726
  778MOL0     C 4960   6.740   7.178   5.507  0.5287  1.1693 -0.1432
  778MOL0     C 4961   6.083   7.482   5.757  0.0239 -0.4470 -0.1728
  778MOL0     C 4962   5.949   7.446   5.737  0.4664 -0.7936 -0.1727
  778MOL0     H 4963   5.563   7.177   5.530  0.6152  0.3858  0.2520
  778MOL0     H 4964   5.319   7.178   5.489 -2.7382  1.8065 -1.8170
  778MOL0     H 4965   5.149   7.309   5.354 -0.4203 -0.6597  0.1466
  778MOL0     H 4966   5.105   7.200   5.491 -5.7127 -0.4589  1.5129
  778MOL0     H 4967   4.944   7.434   5.383 -3.3854  0.8246  0.9557
  778MOL0     H 4968   4.911   7.263   5.344 -2.9498  2.0419  0.0910
  778MOL0     H 4969   4.890   7.224   5.606 -0.5294 -1.8979 -0.5096
  778MOL0     H 4970   4.883   7.393   5.623 -0.1351 -2.1570  2.3184
  778MOL0     H 4971   4.701   7.421   5.469  2.0395  0.7671  0.7597
  778MOL0     H 4972   4.688   7.245   5.437 -5.0946  2.1701 -0.4738
  778MOL0     H 4973   4.627   7.199   5.674  2.3884  0.0006  0.2184
  778MOL0     H 4974   4.624   7.376   5.706  0.8249 -1.0019 -0.3261
  778MOL0     H 4975   4.429   7.398   5.573  0.0230 -0.6076  1.1225
  778MOL0     H 4976   4.449   7.240   5.495 -2.1702 -1.4023  0.3833
  778MOL0     H 4977   4.282   7.221   5.653  2.0144  0.7678 -5.4873
  778MOL0     H 4978   4.425   7.138   5.725  0.1360 -0.5964 -1.8222
  778MOL0     H 4979   4.317   7.412   5.799 -0.1367  0.0690  0.3804
  778MOL0     H 4980   4.458   7.336   5.876  0.3630  0.4345 -2.1724
  778MOL0     H 4981   4.381   7.162   6.098 -1.1695  1.1091  0.6745
  778MOL0     H 4982   4.196   7.076   6.276  2.3062 -0.6277 -1.4196
  778MOL0     H 4983   4.031   7.039   6.202  0.7324  0.4863 -0.0056
  778MOL0     H 4984   4.140   6.852   6.252 -0.2147 -2.0972 -1.0734
  778MOL0     H 4985   4.292   6.885   6.163  0.6724 -0.5083 -2.0124
  778MOL0     H 4986   4.196   6.855   5.948  0.0774 -0.2430  0.5002
  778MOL0     H 4987   4.035   6.866   5.997  0.3108  0.3168 -0.9946
  778MOL0     H 4988   4.224   6.629   6.076  0.2775  0.5741 -1.2031
  778MOL0     H 4989   4.137   6.633   5.924  1.9766 -1.3786  0.3723
  778MOL0     H 4990   3.946   6.599   5.858 -0.0967  2.2890 -0.0180
  778MOL0     H 4991   3.625   6.510   5.715 -0.4531 -0.7432  1.8996
  778MOL0     H 4992   3.668   6.691   5.713 -0.8869 -0.3452 -1.5431
  778MOL0     H 4993   3.788   6.554   5.685  1.0564 -0.4289  2.3634
  778MOL0     H 4994   3.380   6.432   5.672  0.0636  0.0402 -0.3056
  778MOL0     H 4995   3.156   6.333   5.625 -2.6496  0.6874 -0.6527
  778MOL0     H 4996   2.936   6.436   5.521  0.5273  0.1610  0.6465
  778MOL0     H 4997   2.930   6.282   5.605  0.6101  0.8604 -0.1008
  778MOL0     H 4998   2.676   6.370   5.673  0.3720  1.2303  0.1029
  778MOL0     H 4999   2.696   6.462   5.526 -1.1549 -0.5225  1.3273
  778MOL0     H 5000   2.737   6.172   5.557  2.1791  1.2325 -0.1962
  778MOL0     H 5001   2.773   6.247   5.403  1.3345 -0.1851  0.2433
  778MOL0     H 5002   2.498   6.230   5.530 -0.1134 -0.6693 -0.1579
  778MOL0     H 5003   2.544   6.333   5.384 -0.3766  0.0759  0.3308
  778MOL0     H 5004   2.528   6.055   5.429  0.0191 -0.0735 -0.1088
  778MOL0     H 5005   2.650   6.119   5.309  1.2134  4.7440  1.6837
  778MOL0     H 5006   2.470   6.207   5.184  2.1516 -2.1768 -1.5267
  778MOL0     H 5007   2.430   6.043   5.219 -1.3069  0.0725 -0.7144
  778MOL0     H 5008   2.307   6.306   5.342  1.4529  0.0099  0.6341
  778MOL0     H 5009   2.283   6.163   5.437  2.1724  3.4313  2.3546
  778MOL0     H 5010   2.187   6.208   5.159  2.7096  0.3147  1.1493
  778MOL0     H 5011   2.093   6.238   5.309  1.3281  2.1556 -0.6144
  778MOL0     H 5012   2.972   6.645   5.861 -1.6732 -1.3784 -3.0593
  778MOL0     H 5013   3.223   6.722   5.928  1.7369 -0.4258 -1.0821
  778MOL0     H 5014   3.598   6.591   6.211  2.0882 -0.9876  2.4859
  778MOL0     H 5015   3.822   6.598   6.268  0.5629  0.8978 -0.6184
  778MOL0     H 5016   5.313   7.580   5.651  0.5654  0.1431 -0.2532
  778MOL0     H 5017   5.547   7.565   5.700 -0.9098  2.0633 -2.9284
  778MOL0     H 5018   5.994   7.115   5.718  2.0144 -0.6713 -1.4571
  778MOL0     H 5019   6.233   7.179   5.751  1.7870  1.6495  0.4953
  778MOL0     H 5020   6.347   7.408   5.985 -0.1830 -3.4967  1.4468
  778MOL0     H 5021   6.382   7.265   5.893  1.1467  0.4425 -0.4025
  778MOL0     H 5022   6.556   7.424   5.992  0.7849  0.7934  0.1001
  778MOL0     H 5023   6.520   7.516   5.840 -0.4523 -0.2485 -0.3244
  778MOL0     H 5024   6.628   7.231   5.856 -2.6761  0.7526 -0.7498
  778MOL0     H 5025   6.722   7.371   5.838 -0.0897  0.4326  0.1940
  778MOL0     H 5026   6.614   7.435   5.609 -2.3293 -1.2865 -2.6553
  778MOL0     H 5027   6.493   7.309   5.644 -0.6552 -0.8847  0.4173
  778MOL0     H 5028   6.797   7.131   5.429  0.3589  2.9676 -1.4149
  778MOL0     H 5029   6.104   7.586   5.782  1.4550 -0.8505  0.4427
  778MOL0     H 5030   5.873   7.522   5.721  1.3386  0.6226  1.9354
  779MOL0     O 5031   4.899   6.196   9.471  0.1307  0.7893 -0.6879
  779MOL0     C 5032   4.970   6.285   9.420  0.0468  0.5211  1.0300
  779MOL0     O 5033   4.944   6.422   9.415 -0.8948  0.0043  0.5441
  779MOL0     C 5034   4.824   6.465   9.473 -1.0044 -0.3256 -0.7916
  779MOL0     C 5035   4.697   6.431   9.425 -0.8196 -0.3649  0.4041
  779MOL0     C 5036   4.583   6.464   9.494  0.1341  0.4221 -0.0291
  779MOL0     C 5037   4.588   6.524   9.626 -0.3898  0.9604  0.0492
  779MOL0     O 5038   4.471   6.563   9.680  0.8579 -0.1047 -0.1856
  779MOL0     C 5039   4.466   6.575   9.821  0.1942  0.7570 -0.1658
  779MOL0     C 5040   4.324   6.603   9.868 -0.5024 -0.6752 -1.4049
  779MOL0     C 5041   4.307   6.758   9.846  0.3248  0.8356 -0.2380
  779MOL0     C 5042   4.169   6.778   9.793  0.7604 -0.5465 -0.1583
  779MOL0     C 5043   4.143   6.936   9.791 -0.2073  0.5779 -0.0207
  779MOL0     C 5044   3.991   6.946   9.769  0.1134  0.2076 -0.1879
  779MOL0     C 5045   3.941   7.094   9.729  0.0605  0.9635  1.0418
  779MOL0     C 5046   4.007   7.152   9.608 -1.7442  0.3060 -0.1830
  779MOL0     N 5047   3.948   7.280   9.575  0.1165  0.7566  0.8340
  779MOL0     C 5048   3.847   7.293   9.477 -0.6079 -0.7465 -0.7488
  779MOL0     C 5049   3.795   7.420   9.495  0.4629  0.2057  0.3161
  779MOL0     C 5050   3.683   7.474   9.401 -0.7990  1.1751 -1.2700
  779MOL0     C 5051   3.548   7.420   9.457  0.4117  1.1842 -0.1806
  779MOL0     C 5052   3.513   7.293   9.386 -0.2440  0.3293 -0.5197
  779MOL0     C 5053   3.377   7.237   9.434  0.7996 -0.7939  0.4454
  779MOL0     O 5054   3.341   7.151   9.332  0.5282 -0.7514 -0.6629
  779MOL0     C 5055   3.237   7.068   9.342 -1.0050 -0.2771  0.0067
  779MOL0     C 5056   3.238   6.959   9.253  0.0505 -0.5329  0.0461
  779MOL0     C 5057   3.129   6.868   9.246 -0.4262 -0.0626  1.0532
  779MOL0     C 5058   3.126   6.766   9.127  0.1781 -0.2408  0.8314
  779MOL0     C 5059   3.014   6.884   9.330 -0.1322 -0.8464  0.1071
  779MOL0     C 5060   2.890   6.804   9.345 -0.1813  0.4535  1.2600
  779MOL0     O 5061   2.812   6.817   9.461 -0.0963 -0.1373 -0.1273
  779MOL0     C 5062   2.692   6.754   9.479 -0.1305 -0.6093  0.1427
  779MOL0     C 5063   2.597   6.725   9.380  0.3900 -0.0149 -0.7129
  779MOL0     C 5064   2.477   6.662   9.413 -0.0451 -0.0235  0.2538
  779MOL0     C 5065   2.452   6.630   9.548  0.3343  0.5169  0.8252
  779MOL0     O 5066   2.327   6.577   9.570  0.3266 -0.4772 -0.6833
  779MOL0     C 5067   2.329   6.467   9.661 -0.5295  0.6501 -0.1638
  779MOL0     C 5068   2.209   6.452   9.762  0.1447 -0.0959  0.2913
  779MOL0     C 5069   2.163   6.587   9.814  0.0460 -0.2106  0.5075
  779MOL0     C 5070   2.052   6.570   9.923 -0.6985  0.8702  0.5068
  779MOL0     C 5071   2.025   6.706   9.997  1.0908 -0.7190  0.3218
  779MOL0     C 5072   1.885   6.714  10.068 -0.3648 -0.3243  0.2344
  779MOL0     C 5073   1.853   6.843  10.143 -0.0809  0.6453 -0.3221
  779MOL0     C 5074   1.729   6.851  10.230  0.0497 -0.3629 -0.8806
  779MOL0    Cl 5075   1.720   7.008  10.319  0.2493  0.3737  0.5915
  779MOL0     C 5076   2.543   6.669   9.647  0.1334 -0.4553 -0.3077
  779MOL0     C 5077   2.661   6.736   9.611  0.0455  0.4132 -0.6593
  779MOL0     O 5078   2.867   6.723   9.259  0.1284  0.1357 -0.1334
  779MOL0     C 5079   3.039   6.982   9.436  0.4627  0.4419  0.6743
  779MOL0     C 5080   3.145   7.070   9.440  0.4663  0.1534 -0.4856
  779MOL0     N 5081   3.855   7.484   9.601 -0.2116 -0.6101 -0.4423
  779MOL0     N 5082   3.940   7.399   9.653 -0.4272  0.2873 -0.2808
  779MOL0     C 5083   4.717   6.544   9.674 -0.3429 -1.0531  0.3304
  779MOL0     C 5084   4.832   6.516   9.604  0.6299  0.0548 -0.0369
  779MOL0     C 5085   5.094   6.228   9.346  0.3210  0.4763 -0.0409
  779MOL0     C 5086   5.169   6.312   9.252  0.0168 -0.1192  0.2855
  779MOL0     C 5087   5.278   6.255   9.186 -0.0822 -0.4526 -0.3141
  779MOL0     C 5088   5.324   6.118   9.214  0.6326  0.3343  1.3004
  779MOL0     O 5089   5.429   6.059   9.149  0.2875  0.2050  0.2671
  779MOL0     C 5090   5.527   5.989   9.235 -0.0223 -0.2748  0.6102
  779MOL0     C 5091   5.634   5.933   9.145 -0.0949  0.3990  0.0878
  779MOL0     C 5092   5.736   6.043   9.101 -0.2795 -0.4744 -0.0492
  779MOL0     C 5093   5.814   6.105   9.224 -0.4140 -0.2562  0.1619
  779MOL0     C 5094   5.901   5.998   9.294  1.0605  0.2233 -0.3250
  779MOL0     C 5095   5.947   5.902   9.351 -0.0663 -0.5285  0.0955
  779MOL0     C 5096   5.245   6.036   9.293  0.0086 -0.1583  0.0156
  779MOL0     C 5097   5.129   6.093   9.356 -0.4298  1.4107 -1.4047
  779MOL0     H 5098   4.700   6.374   9.333  0.7623 -0.5594  0.5560
  779MOL0     H 5099   4.495   6.449   9.432  0.3315 -0.8959 -0.0210
  779MOL0     H 5100   4.495   6.477   9.860  1.1563  1.4009  0.8243
  779MOL0     H 5101   4.538   6.644   9.866 -0.2226  0.7540  0.5238
  779MOL0     H 5102   4.248   6.540   9.820 -1.3973  1.0376 -2.3151
  779MOL0     H 5103   4.317   6.575   9.973  1.5116  0.0426 -1.0404
  779MOL0     H 5104   4.324   6.802   9.945 -0.8233  1.2242 -0.2058
  779MOL0     H 5105   4.379   6.792   9.771  0.4681  0.0700 -0.4529
  779MOL0     H 5106   4.174   6.727   9.696  1.6480 -1.5891  0.4130
  779MOL0     H 5107   4.107   6.721   9.863 -2.4236  2.2334 -0.4750
  779MOL0     H 5108   4.166   6.991   9.882  1.5364  0.7583 -0.5339
  779MOL0     H 5109   4.202   6.979   9.709 -0.1063 -1.3548 -1.0243
  779MOL0     H 5110   3.958   6.863   9.704 -0.8680 -1.5738  2.4271
  779MOL0     H 5111   3.958   6.928   9.871  2.6377 -0.1747  0.6205
  779MOL0     H 5112   3.833   7.081   9.718  0.0398  2.1308 -0.4066
  779MOL0     H 5113   3.965   7.161   9.813  1.5884 -1.1663  2.4154
  779MOL0     H 5114   4.000   7.082   9.524  2.5233  1.2920 -1.6152
  779MOL0     H 5115   4.114   7.170   9.621 -1.9428  2.8886 -1.5717
  779MOL0     H 5116   3.821   7.218   9.403 -1.3509 -1.4130  0.1691
  779MOL0     H 5117   3.678   7.583   9.411  3.2679  1.3907  0.6746
  779MOL0     H 5118   3.699   7.451   9.295  3.1959  1.7726 -0.9497
  779MOL0     H 5119   3.468   7.494   9.447  0.7824  1.9405  1.8097
  779MOL0     H 5120   3.548   7.414   9.567  1.0483 -0.1090 -0.2322
  779MOL0     H 5121   3.587   7.216   9.408  2.4429  2.7691 -0.3521
  779MOL0     H 5122   3.511   7.313   9.279 -1.6978  3.7837  0.0109
  779MOL0     H 5123   3.310   7.324   9.435  1.2044 -0.4295 -1.1600
  779MOL0     H 5124   3.374   7.187   9.531 -2.3506 -3.2449 -0.7465
  779MOL0     H 5125   3.318   6.944   9.181  0.2878 -1.5361  0.4924
  779MOL0     H 5126   3.113   6.662   9.156 -1.0660 -0.9380 -1.8719
  779MOL0     H 5127   3.048   6.780   9.052 -1.6731 -1.7792  2.3854
  779MOL0     H 5128   3.218   6.775   9.068 -0.3448 -1.8701 -0.3262
  779MOL0     H 5129   2.629   6.743   9.277  3.1545 -1.3818 -0.1750
  779MOL0     H 5130   2.400   6.646   9.337  1.3326 -0.1369 -1.1694
  779MOL0     H 5131   2.322   6.388   9.586 -0.6058  1.6066 -1.1825
  779MOL0     H 5132   2.422   6.463   9.719  0.5705 -0.0336 -1.8851
  779MOL0     H 5133   2.127   6.423   9.696  0.8230  3.3338 -2.3619
  779MOL0     H 5134   2.223   6.381   9.845 -2.8100 -3.2355 -1.6262
  779MOL0     H 5135   2.141   6.652   9.728 -1.1792 -0.9997  0.2011
  779MOL0     H 5136   2.243   6.648   9.858 -0.1403  2.0587 -2.0404
  779MOL0     H 5137   1.957   6.539   9.878 -0.5604 -2.8039  2.3840
  779MOL0     H 5138   2.083   6.495   9.996 -1.7085 -0.0744  0.0034
  779MOL0     H 5139   2.034   6.781   9.918  1.4706 -1.2430 -0.1452
  779MOL0     H 5140   2.107   6.721  10.068  0.6971  1.3003  0.4059
  779MOL0     H 5141   1.804   6.705   9.995 -0.3475 -0.7784  0.2680
  779MOL0     H 5142   1.877   6.631  10.139  0.5023 -1.5474 -1.0592
  779MOL0     H 5143   1.851   6.933  10.081 -1.6295  1.4049  0.7738
  779MOL0     H 5144   1.940   6.856  10.207  2.0721 -0.2309 -2.8936
  779MOL0     H 5145   1.727   6.774  10.308 -1.7042  1.6696  1.2289
  779MOL0     H 5146   1.642   6.847  10.165 -1.1825  0.0465  0.6693
  779MOL0     H 5147   2.533   6.650   9.754  0.3451  1.8686  0.1927
  779MOL0     H 5148   2.726   6.753   9.696 -1.5450 -2.4698  1.3399
  779MOL0     H 5149   2.975   6.984   9.524  2.3358  0.2316  2.1022
  779MOL0     H 5150   3.135   7.154   9.508  1.3329 -0.5985  0.6309
  779MOL0     H 5151   4.720   6.591   9.771  0.8905 -0.7095  0.1443
  779MOL0     H 5152   4.922   6.535   9.662 -0.7723 -0.1374  2.3036
  779MOL0     H 5153   5.131   6.413   9.239 -1.2889 -0.2758  2.3650
  779MOL0     H 5154   5.338   6.307   9.112 -0.5625 -1.3654 -1.3685
  779MOL0     H 5155   5.560   6.051   9.319  1.2719 -0.7553  0.4814
  779MOL0     H 5156   5.476   5.901   9.275  1.8578 -0.8267  1.8902
  779MOL0     H 5157   5.593   5.875   9.062  0.2075  1.1178 -0.5825
  779MOL0     H 5158   5.688   5.860   9.204  0.0784  0.7394  0.3544
  779MOL0     H 5159   5.688   6.121   9.041 -0.2073 -0.3001  0.1166
  779MOL0     H 5160   5.812   5.995   9.038 -0.4247  1.2462 -1.6237
  779MOL0     H 5161   5.748   6.157   9.294  0.1521  0.1626  0.3859
  779MOL0     H 5162   5.874   6.185   9.179 -0.7858 -0.3583 -0.5323
  779MOL0     H 5163   5.977   5.812   9.401  2.2327 -0.0968 -0.3484
  779MOL0     H 5164   5.254   5.929   9.311 -5.1423 -0.4543  2.6799
  779MOL0     H 5165   5.062   6.033   9.417  2.9883 -0.7930  0.4976
  780MOL0     O 5166   4.115   6.252   2.440 -1.0889  0.2785  0.1164
  780MOL0     C 5167   4.226   6.261   2.493 -0.0556 -0.6700  0.7010
  780MOL0     O 5168   4.264   6.220   2.620 -0.2009  0.4596 -0.0788
  780MOL0     C 5169   4.172   6.183   2.711 -0.0159 -0.0810 -1.0027
  780MOL0     C 5170   4.216   6.199   2.850  0.6160  0.0193  1.0262
  780MOL0     C 5171   4.122   6.194   2.953 -0.3380  0.8789  0.1020
  780MOL0     C 5172   3.990   6.151   2.932 -0.5110  0.8770  0.1564
  780MOL0     O 5173   3.900   6.134   3.036  0.3214 -0.1835 -0.5664
  780MOL0     C 5174   3.940   6.130   3.175 -0.1899  0.1414  0.8178
  780MOL0     C 5175   3.836   6.083   3.284 -0.4309 -0.4526  0.4435
  780MOL0     C 5176   3.701   6.156   3.266  0.4768  0.1093  0.5382
  780MOL0     C 5177   3.592   6.081   3.327 -0.2408  0.7376 -0.6052
  780MOL0     C 5178   3.455   6.150   3.301  0.0067 -1.5197 -0.5362
  780MOL0     C 5179   3.333   6.062   3.339  0.4031  0.3081 -1.2595
  780MOL0     C 5180   3.276   6.089   3.478  0.0022  0.5322  0.0234
  780MOL0     C 5181   3.206   5.970   3.538  0.5996 -0.7747 -0.0166
  780MOL0     N 5182   3.144   6.001   3.667 -0.1295 -0.5738 -0.1128
  780MOL0     C 5183   3.013   6.005   3.704  0.0982 -0.4016  0.1472
  780MOL0     C 5184   3.016   6.041   3.834  0.3157 -0.3276  0.0571
  780MOL0     C 5185   2.900   6.040   3.927  0.1024  0.3286 -0.1112
  780MOL0     C 5186   2.853   6.177   3.972 -1.1555 -0.1861 -0.2531
  780MOL0     C 5187   2.767   6.243   3.865  0.2225  0.0394  0.0717
  780MOL0     C 5188   2.614   6.247   3.891 -1.5410  0.5735 -0.6482
  780MOL0     O 5189   2.572   6.142   3.976 -0.9263  0.0470 -0.1844
  780MOL0     C 5190   2.440   6.105   3.962 -0.8849  0.1667  0.0410
  780MOL0     C 5191   2.349   6.156   3.867 -0.0488 -0.2274 -0.0074
  780MOL0     C 5192   2.217   6.112   3.852  0.9784 -0.0674 -0.7591
  780MOL0     C 5193   2.121   6.180   3.759  0.5701 -0.3091  0.3290
  780MOL0     C 5194   2.173   6.006   3.931 -0.4665 -0.2051  0.0447
  780MOL0     C 5195   2.039   5.953   3.938  0.1230  0.5615 -0.3646
  780MOL0     O 5196   2.031   5.830   3.994 -0.2314  0.4643 -0.1440
  780MOL0     C 5197   1.914   5.764   3.951  0.5902 -0.1608 -0.0805
  780MOL0     C 5198   1.799   5.781   4.025 -0.9217  0.0669 -0.0541
  780MOL0     C 5199   1.687   5.700   3.994  0.2107  0.0635  0.3814
  780MOL0     C 5200   1.688   5.604   3.900  0.5871  0.8345  0.5331
  780MOL0     O 5201   1.572   5.528   3.885  0.4876  0.1472  0.4652
  780MOL0     C 5202   1.529   5.510   3.751 -0.0372  0.1388  0.6630
  780MOL0     C 5203   1.372   5.502   3.736  0.8236  0.4583  0.2903
  780MOL0     C 5204   1.287   5.625   3.771  0.6129 -0.4184  0.3443
  780MOL0     C 5205   1.138   5.602   3.768 -0.4547 -0.3869  0.0615
  780MOL0     C 5206   1.079   5.561   3.635 -0.2583  0.4589  0.3562
  780MOL0     C 5207   0.922   5.586   3.643 -0.7656 -0.5126 -0.2207
  780MOL0     C 5208   0.859   5.637   3.510 -0.5912 -0.0174  0.0445
  780MOL0     C 5209   0.797   5.521   3.424 -0.2445 -0.3346  0.3276
  780MOL0    Cl 5210   0.649   5.457   3.496  0.3442 -0.1181 -0.3311
  780MOL0     C 5211   1.805   5.593   3.821  0.0478 -0.3572 -0.2361
  780MOL0     C 5212   1.914   5.680   3.840  0.2460  0.7657 -0.0484
  780MOL0     O 5213   1.940   6.016   3.900  0.0973  0.0572 -0.4188
  780MOL0     C 5214   2.268   5.951   4.017 -0.1202  1.1618  0.5622
  780MOL0     C 5215   2.399   5.996   4.029  0.8474  0.3841 -0.3155
  780MOL0     N 5216   3.143   6.059   3.872 -0.0772 -0.2866 -0.0065
  780MOL0     N 5217   3.220   6.038   3.770  0.0901 -0.3206  0.0165
  780MOL0     C 5218   3.953   6.123   2.798  0.1129 -0.8724 -0.6858
  780MOL0     C 5219   4.042   6.130   2.690  0.0434 -0.3769  1.0900
  780MOL0     C 5220   4.320   6.345   2.421  0.0049  0.0239 -1.1143
  780MOL0     C 5221   4.315   6.366   2.284  0.4877 -0.3998 -0.1529
  780MOL0     C 5222   4.420   6.427   2.210  0.1010 -0.1089  0.6319
  780MOL0     C 5223   4.537   6.472   2.279 -0.2131  0.3749  1.4190
  780MOL0     O 5224   4.635   6.549   2.213  0.4331 -0.0076 -1.1767
  780MOL0     C 5225   4.759   6.578   2.287 -0.1299  0.6225 -0.3794
  780MOL0     C 5226   4.860   6.468   2.255  0.1002  0.1046 -1.0086
  780MOL0     C 5227   4.954   6.441   2.370 -0.2676 -0.1280 -0.0686
  780MOL0     C 5228   4.984   6.289   2.391  1.3483  0.4035 -0.2639
  780MOL0     C 5229   4.859   6.223   2.443  0.2009 -0.8483 -0.4879
  780MOL0     C 5230   4.764   6.165   2.489  1.0616  0.9299  1.0695
  780MOL0     C 5231   4.543   6.441   2.417 -0.1128  0.3774 -0.3810
  780MOL0     C 5232   4.428   6.391   2.486 -0.8268  0.3740  0.4821
  780MOL0     H 5233   4.321   6.217   2.868  0.8848 -0.0457 -0.3720
  780MOL0     H 5234   4.157   6.206   3.055  0.8611  1.7994 -0.3911
  780MOL0     H 5235   4.033   6.072   3.182  0.5086  0.9102 -1.2052
  780MOL0     H 5236   3.978   6.231   3.197  2.0431 -0.2813 -0.7263
  780MOL0     H 5237   3.824   5.978   3.259  1.5178 -1.2137  2.3922
  780MOL0     H 5238   3.872   6.081   3.388 -0.6281  0.3499  0.5347
  780MOL0     H 5239   3.703   6.248   3.326 -0.8909  0.0929  0.6309
  780MOL0     H 5240   3.675   6.182   3.163  2.5076  0.6972  0.1347
  780MOL0     H 5241   3.594   5.988   3.269  1.2959  1.0269 -1.0710
  780MOL0     H 5242   3.609   6.061   3.433  0.1715  1.9281 -0.4250
  780MOL0     H 5243   3.446   6.236   3.367 -2.2052 -2.1813  0.1105
  780MOL0     H 5244   3.441   6.179   3.197 -2.8270  2.9067  0.7966
  780MOL0     H 5245   3.249   6.075   3.269 -0.3106  1.8865 -0.1522
  780MOL0     H 5246   3.372   5.960   3.333  2.2271  0.9202 -0.3407
  780MOL0     H 5247   3.350   6.108   3.557 -1.0233 -1.0891  1.4316
  780MOL0     H 5248   3.215   6.179   3.465 -0.7558  0.0032 -0.1068
  780MOL0     H 5249   3.281   5.891   3.548  0.8315 -0.4538  0.7790
  780MOL0     H 5250   3.123   5.938   3.473  0.1104 -2.1186  1.2134
  780MOL0     H 5251   2.930   5.966   3.645  0.3393  0.1133 -0.5476
  780MOL0     H 5252   2.817   5.990   3.878  0.6545  0.0351 -0.7686
  780MOL0     H 5253   2.926   5.979   4.013  2.5059 -0.5269 -1.3464
  780MOL0     H 5254   2.928   6.245   4.013 -0.3697 -0.8638 -0.5311
  780MOL0     H 5255   2.792   6.161   4.062  1.5990  1.7429  2.1787
  780MOL0     H 5256   2.794   6.192   3.772 -1.0881 -0.3573 -0.1179
  780MOL0     H 5257   2.789   6.350   3.857 -1.1469  0.4397  1.1394
  780MOL0     H 5258   2.578   6.234   3.789 -2.0087  1.6935 -0.6471
  780MOL0     H 5259   2.585   6.345   3.931  1.4379  0.5883  1.8025
  780MOL0     H 5260   2.370   6.238   3.799 -1.2683 -3.5064 -4.8622
  780MOL0     H 5261   2.062   6.254   3.814 -1.6998 -0.6712 -1.4639
  780MOL0     H 5262   2.180   6.225   3.679 -0.3635 -0.1100 -0.2525
  780MOL0     H 5263   2.051   6.110   3.713 -1.8973  3.1773 -1.6841
  780MOL0     H 5264   1.797   5.856   4.103  2.2943  2.6187 -2.1418
  780MOL0     H 5265   1.602   5.707   4.061  0.6297 -1.3546  1.1001
  780MOL0     H 5266   1.570   5.589   3.687  0.0902 -0.5552 -0.1207
  780MOL0     H 5267   1.581   5.421   3.715 -0.7237  0.5579 -1.5175
  780MOL0     H 5268   1.347   5.473   3.634  3.2460  0.4821 -0.3588
  780MOL0     H 5269   1.321   5.422   3.792 -0.3844  2.5926  2.4352
  780MOL0     H 5270   1.301   5.706   3.700 -1.4751  0.4723  0.8759
  780MOL0     H 5271   1.315   5.666   3.869 -1.8285 -1.3283  1.5088
  780MOL0     H 5272   1.125   5.511   3.827  0.1527 -2.6085 -2.9624
  780MOL0     H 5273   1.086   5.691   3.803 -0.0513 -0.2731  0.3786
  780MOL0     H 5274   1.101   5.460   3.600  2.1587  1.2721 -0.6778
  780MOL0     H 5275   1.114   5.627   3.555 -2.6260  0.5561 -0.7063
  780MOL0     H 5276   0.871   5.496   3.679 -2.4376  0.4940  0.0144
  780MOL0     H 5277   0.895   5.653   3.725  0.9110  0.5987 -0.5304
  780MOL0     H 5278   0.930   5.691   3.446 -1.0578 -1.7925 -2.0692
  780MOL0     H 5279   0.784   5.712   3.539 -0.8646  0.5055 -1.8861
  780MOL0     H 5280   0.864   5.434   3.417 -0.2110 -0.2957  0.1620
  780MOL0     H 5281   0.777   5.558   3.323  0.7475 -1.6587 -0.3896
  780MOL0     H 5282   1.828   5.524   3.740  1.6634  1.2303 -1.1998
  780MOL0     H 5283   2.005   5.671   3.782 -1.2462 -0.7783 -2.2784
  780MOL0     H 5284   2.237   5.866   4.079 -0.2538  2.2515  2.0453
  780MOL0     H 5285   2.466   5.944   4.097  2.1745  1.6965 -0.5875
  780MOL0     H 5286   3.853   6.082   2.790 -0.6934 -0.1053  3.5029
  780MOL0     H 5287   3.997   6.109   2.593  0.0341 -0.3254  1.0832
  780MOL0     H 5288   4.234   6.336   2.218  1.0883 -2.2140 -0.1390
  780MOL0     H 5289   4.404   6.455   2.106 -0.0433 -0.5073  0.5441
  780MOL0     H 5290   4.801   6.672   2.252  2.2344  1.5015  4.0831
  780MOL0     H 5291   4.734   6.603   2.391 -1.1358 -2.1340  0.1453
  780MOL0     H 5292   4.918   6.494   2.166  0.1018 -1.5133 -1.5021
  780MOL0     H 5293   4.809   6.376   2.226  2.9359 -1.1293 -2.5283
  780MOL0     H 5294   4.929   6.496   2.461  0.3208 -1.3787  0.8737
  780MOL0     H 5295   5.044   6.496   2.342  1.0740 -1.8197  0.7911
  780MOL0     H 5296   5.064   6.280   2.466  1.8661 -0.9279 -0.9509
  780MOL0     H 5297   5.022   6.241   2.300  5.3775  0.9718  0.8952
  780MOL0     H 5298   4.678   6.119   2.532  0.7174  0.1500 -0.3745
  780MOL0     H 5299   4.625   6.465   2.484 -0.9304  0.6518  0.5243
  780MOL0     H 5300   4.430   6.391   2.594 -0.9972  3.4689  0.5909
  781MOL0     O 5301   2.500   7.963   9.762  0.0865 -0.2675  0.2315
  781MOL0     C 5302   2.530   8.043   9.681 -1.1333 -0.7124  0.0585
  781MOL0     O 5303   2.449   8.122   9.606  0.0575  0.2483  0.0965
  781MOL0     C 5304   2.311   8.109   9.620  0.1713 -0.2397  0.1919
  781MOL0     C 5305   2.227   8.125   9.510 -0.2809 -0.5655  0.0371
  781MOL0     C 5306   2.093   8.130   9.523  0.0595  0.5370  0.5033
  781MOL0     C 5307   2.027   8.098   9.641  0.1698  0.2115  0.1303
  781MOL0     O 5308   1.891   8.100   9.658  0.2164 -0.0189 -0.2873
  781MOL0     C 5309   1.848   7.959   9.635  0.9846 -0.7331 -0.5966
  781MOL0     C 5310   1.871   7.901   9.497  0.4509  0.4944  0.0035
  781MOL0     C 5311   1.747   7.826   9.436  0.4709 -0.3040 -0.7051
  781MOL0     C 5312   1.682   7.903   9.326  0.4705  0.1251  0.7999
  781MOL0     C 5313   1.571   7.839   9.259  0.0149 -0.4957  0.1876
  781MOL0     C 5314   1.471   7.769   9.343 -0.5334  0.3521  0.2461
  781MOL0     C 5315   1.333   7.746   9.277  0.5559  0.7817  0.6059
  781MOL0     C 5316   1.350   7.686   9.128 -0.2542 -0.3694 -0.7221
  781MOL0     N 5317   1.221   7.630   9.081 -0.4455 -0.1964 -0.5778
  781MOL0     C 5318   1.143   7.537   9.138  0.1043  1.1106 -0.6260
  781MOL0     C 5319   1.046   7.510   9.053  0.3191  0.0636 -1.1603
  781MOL0     C 5320   0.932   7.417   9.089 -0.4254 -0.6603 -0.2266
  781MOL0     C 5321   0.802   7.497   9.106  0.0618  0.3393 -0.5552
  781MOL0     C 5322   0.734   7.459   9.240  0.2356  0.9352  0.0452
  781MOL0     C 5323   0.610   7.535   9.270  0.1751 -0.0402  0.1521
  781MOL0     O 5324   0.519   7.451   9.341  0.8361  0.5631 -0.0186
  781MOL0     C 5325   0.386   7.504   9.366 -0.5098  0.1838  1.0797
  781MOL0     C 5326   0.354   7.632   9.322  0.7589 -0.5347  0.0699
  781MOL0     C 5327   0.221   7.677   9.338  0.1321 -0.2681  0.3942
  781MOL0     C 5328   0.185   7.820   9.314  0.3413 -0.3741  0.2112
  781MOL0     C 5329   0.121   7.597   9.378 -0.1063  0.3224 -0.3934
  781MOL0     C 5330  -0.025   7.626   9.395 -0.1078  0.3678 -0.0240
  781MOL0     O 5331  -0.095   7.514   9.420 -0.1457  0.5920  0.2232
  781MOL0     C 5332  -0.225   7.525   9.443  0.4186  0.0333 -0.6022
  781MOL0     C 5333  -0.302   7.558   9.339 -0.0818 -0.1141 -0.5094
  781MOL0     C 5334  -0.439   7.555   9.346  0.0770  0.2458  0.4936
  781MOL0     C 5335  -0.506   7.529   9.467 -0.1699  0.1053 -0.5984
  781MOL0     O 5336  -0.642   7.524   9.484  0.0531  0.3071 -0.2440
  781MOL0     C 5337  -0.727   7.584   9.381  0.4102  0.8501 -0.1145
  781MOL0     C 5338  -0.868   7.611   9.428 -0.4263 -0.2933 -0.3450
  781MOL0     C 5339  -0.942   7.712   9.342 -0.0925  0.3390  0.2969
  781MOL0     C 5340  -1.080   7.746   9.399 -0.0629  0.5410  0.0679
  781MOL0     C 5341  -1.169   7.621   9.373  0.0314  0.4013  1.2470
  781MOL0     C 5342  -1.318   7.654   9.419 -1.2326 -0.3226  0.0616
  781MOL0     C 5343  -1.408   7.670   9.305 -0.2149 -0.2723  1.2388
  781MOL0     C 5344  -1.552   7.687   9.358 -0.0817  0.1840 -0.5038
  781MOL0    Cl 5345  -1.656   7.718   9.222  0.1827  0.5289  0.5881
  781MOL0     C 5346  -0.431   7.511   9.581 -0.3510  0.0026  0.2806
  781MOL0     C 5347  -0.292   7.499   9.565 -0.4121  0.4729 -0.3813
  781MOL0     O 5348  -0.077   7.735   9.367  0.3097  0.6339  0.4351
  781MOL0     C 5349   0.165   7.459   9.417  0.7283  0.2730 -0.0403
  781MOL0     C 5350   0.286   7.418   9.409 -0.2513  0.2848 -0.0702
  781MOL0     N 5351   1.060   7.591   8.949  0.2703  0.0263 -0.3900
  781MOL0     N 5352   1.164   7.659   8.958  0.1877  0.9822  0.2617
  781MOL0     C 5353   2.107   8.085   9.750  0.6623  0.6932 -0.5978
  781MOL0     C 5354   2.243   8.104   9.748 -0.2239 -0.0300  0.2746
  781MOL0     C 5355   2.679   8.067   9.673  0.3336 -0.6733  0.7520
  781MOL0     C 5356   2.773   8.002   9.758 -1.0803 -0.4694 -0.7482
  781MOL0     C 5357   2.914   8.030   9.753 -0.4283 -0.2406 -0.6173
  781MOL0     C 5358   2.964   8.127   9.664  0.2457 -0.0124  0.1063
  781MOL0     O 5359   3.093   8.176   9.657 -0.1971  0.0348 -0.0111
  781MOL0     C 5360   3.195   8.117   9.747  0.2348  0.3356  0.0740
  781MOL0     C 5361   3.334   8.195   9.741  0.7714  0.6375  0.3973
  781MOL0     C 5362   3.321   8.338   9.814  0.2498 -0.4132  0.0295
  781MOL0     C 5363   3.316   8.322   9.968  0.3231  0.7029 -0.5063
  781MOL0     C 5364   3.440   8.268  10.028 -0.4424  0.2006  0.1477
  781MOL0     C 5365   3.555   8.240  10.067 -0.1785 -0.1769 -0.3206
  781MOL0     C 5366   2.866   8.183   9.576  0.2154 -0.4237 -1.3256
  781MOL0     C 5367   2.729   8.158   9.580  0.1335 -0.0403  0.6807
  781MOL0     H 5368   2.274   8.138   9.413  0.0299 -2.0976 -0.0562
  781MOL0     H 5369   2.041   8.163   9.434  0.1083  2.2366  1.0580
  781MOL0     H 5370   1.891   7.890   9.708 -0.4762  0.6953  1.7095
  781MOL0     H 5371   1.742   7.955   9.660  0.4084  3.8518 -1.4249
  781MOL0     H 5372   1.906   7.973   9.423 -0.5018 -0.0475 -0.9851
  781MOL0     H 5373   1.955   7.830   9.501 -1.0513 -1.3454  2.9978
  781MOL0     H 5374   1.774   7.730   9.390  0.0310  0.6885 -3.2095
  781MOL0     H 5375   1.682   7.804   9.521  2.0049  1.5146  1.0483
  781MOL0     H 5376   1.639   7.993   9.369  1.5141  0.1679  1.8126
  781MOL0     H 5377   1.758   7.919   9.249  0.2422 -2.6648 -0.1314
  781MOL0     H 5378   1.521   7.920   9.206  2.1079  0.7307 -0.0369
  781MOL0     H 5379   1.599   7.774   9.176 -0.9856  0.8348 -1.2353
  781MOL0     H 5380   1.502   7.665   9.356 -5.0208 -1.1939  0.4907
  781MOL0     H 5381   1.451   7.823   9.436 -2.3386 -1.7364  1.1782
  781MOL0     H 5382   1.271   7.675   9.333 -0.0092 -0.6916 -1.7155
  781MOL0     H 5383   1.292   7.847   9.270  1.1812  0.9057 -2.8975
  781MOL0     H 5384   1.422   7.604   9.134 -0.8681 -0.8184  1.1351
  781MOL0     H 5385   1.386   7.767   9.064 -2.6609  1.2915 -0.1056
  781MOL0     H 5386   1.164   7.471   9.221 -0.2508  1.3873 -0.3096
  781MOL0     H 5387   0.911   7.352   9.003 -2.8443  0.3172 -0.4392
  781MOL0     H 5388   0.953   7.346   9.170 -1.9288 -4.3827 -2.7893
  781MOL0     H 5389   0.746   7.472   9.016 -1.3158  0.7154  0.1688
  781MOL0     H 5390   0.825   7.604   9.098  1.8339 -0.0115 -0.6171
  781MOL0     H 5391   0.803   7.459   9.324 -1.4143 -0.1040  1.4549
  781MOL0     H 5392   0.696   7.357   9.225  1.8448  0.1669  0.9420
  781MOL0     H 5393   0.567   7.579   9.179 -0.1643 -0.4353  0.1201
  781MOL0     H 5394   0.646   7.614   9.337  4.0659 -1.7535  0.3274
  781MOL0     H 5395   0.430   7.702   9.290  1.3419 -0.7325  1.0081
  781MOL0     H 5396   0.131   7.867   9.396 -0.5397  0.4159 -0.7849
  781MOL0     H 5397   0.280   7.870   9.292 -1.1604  1.6516 -2.3745
  781MOL0     H 5398   0.123   7.841   9.226  0.7295  1.3297  0.2985
  781MOL0     H 5399  -0.259   7.568   9.240  4.0758 -1.5255  0.9602
  781MOL0     H 5400  -0.500   7.559   9.256  0.2824  0.6257  0.3695
  781MOL0     H 5401  -0.673   7.674   9.350  2.5465 -0.3684 -0.1916
  781MOL0     H 5402  -0.724   7.519   9.293 -2.0965  1.3295 -0.6278
  781MOL0     H 5403  -0.919   7.515   9.431 -1.9434  0.4545 -1.0924
  781MOL0     H 5404  -0.872   7.654   9.528 -5.8367  0.1593 -0.4706
  781MOL0     H 5405  -0.957   7.661   9.246  0.7108 -0.8089  0.7487
  781MOL0     H 5406  -0.884   7.801   9.317 -1.0955  0.8653 -0.2088
  781MOL0     H 5407  -1.069   7.767   9.506  1.6439  0.2435 -0.0130
  781MOL0     H 5408  -1.126   7.832   9.350 -0.7158 -0.2548 -0.7402
  781MOL0     H 5409  -1.136   7.547   9.446  1.2635 -0.6794 -0.3271
  781MOL0     H 5410  -1.160   7.582   9.271 -0.4460  2.3536  0.4150
  781MOL0     H 5411  -1.349   7.584   9.497  1.0034 -0.1229  1.2238
  781MOL0     H 5412  -1.314   7.750   9.471 -2.2362 -1.1373  1.7074
  781MOL0     H 5413  -1.402   7.574   9.254 -0.4336  0.1178  0.4627
  781MOL0     H 5414  -1.370   7.747   9.237  1.0810 -0.3987  1.7808
  781MOL0     H 5415  -1.551   7.766   9.434  4.2834 -1.6294  1.6654
  781MOL0     H 5416  -1.588   7.603   9.418  3.3400  0.1826  1.8571
  781MOL0     H 5417  -0.461   7.481   9.680  1.7770 -0.4765  0.8257
  781MOL0     H 5418  -0.228   7.464   9.646  1.0443  1.9874 -0.8058
  781MOL0     H 5419   0.099   7.387   9.464 -0.9430  1.3588 -0.6215
  781MOL0     H 5420   0.313   7.319   9.444 -3.4151  0.1107  2.3201
  781MOL0     H 5421   2.062   8.064   9.847 -0.9656 -0.9247 -1.6451
  781MOL0     H 5422   2.280   8.127   9.847 -0.8297 -1.8076  0.9571
  781MOL0     H 5423   2.732   7.933   9.831 -0.6175 -0.0255 -0.0631
  781MOL0     H 5424   2.978   7.985   9.827  1.3970  0.1927 -1.8708
  781MOL0     H 5425   3.170   8.114   9.853 -0.3326  0.6562 -0.0456
  781MOL0     H 5426   3.220   8.013   9.725  0.9297  1.0401 -2.8882
  781MOL0     H 5427   3.363   8.205   9.636  0.8636  0.1306  0.3707
  781MOL0     H 5428   3.415   8.139   9.789 -1.5081 -1.5446  1.9476
  781MOL0     H 5429   3.230   8.394   9.789 -2.0427 -3.4797  0.9223
  781MOL0     H 5430   3.399   8.407   9.780 -1.9463  1.8485 -0.7527
  781MOL0     H 5431   3.230   8.260   9.995  2.0634 -0.9245  1.6266
  781MOL0     H 5432   3.295   8.419  10.014  1.7836  0.5484  0.5136
  781MOL0     H 5433   3.654   8.210  10.097 -0.9763 -2.1181  0.5131
  781MOL0     H 5434   2.909   8.259   9.511  0.3003  0.3545 -0.3937
  781MOL0     H 5435   2.662   8.182   9.498 -0.8545 -2.2224  0.7742
  782MOL0     O 5436  10.332  10.886   6.710  0.5180  0.0533 -0.1558
  782MOL0     C 5437  10.340  10.782   6.647 -0.5323 -0.4173 -0.6773
  782MOL0     O 5438  10.229  10.712   6.610 -0.5227  0.5293 -1.4649
  782MOL0     C 5439  10.109  10.778   6.628 -0.1175  0.3400  0.6706
  782MOL0     C 5440  10.067  10.872   6.540 -0.4433  0.4272  0.6140
  782MOL0     C 5441   9.954  10.954   6.574 -0.3732 -0.2574 -0.1183
  782MOL0     C 5442   9.883  10.936   6.695  0.3118 -0.3576 -0.5979
  782MOL0     O 5443   9.786  11.019   6.747  0.1557  0.8002 -0.0439
  782MOL0     C 5444   9.737  11.115   6.648  0.9224 -0.6467 -0.1245
  782MOL0     C 5445   9.621  11.200   6.710  0.1046 -0.0462 -0.3256
  782MOL0     C 5446   9.549  11.295   6.609  0.0869  0.2613  1.0263
  782MOL0     C 5447   9.417  11.345   6.675 -0.6000 -0.6683  0.9621
  782MOL0     C 5448   9.355  11.455   6.601  1.0295 -0.0393  0.7093
  782MOL0     C 5449   9.218  11.501   6.662 -0.8140  1.2497  0.1952
  782MOL0     C 5450   9.173  11.622   6.571 -0.3876 -0.1425  0.4499
  782MOL0     C 5451   9.024  11.653   6.568  0.9094 -0.2821 -0.2391
  782MOL0     N 5452   8.950  11.554   6.489 -0.1325  0.3199  0.5431
  782MOL0     C 5453   9.007  11.468   6.403  0.4043  0.2628  0.0747
  782MOL0     C 5454   8.907  11.382   6.369  0.3417 -0.3583  0.4239
  782MOL0     C 5455   8.921  11.264   6.277 -0.3353  0.7149  0.9870
  782MOL0     C 5456   8.826  11.290   6.155 -0.0029 -1.1969  0.0502
  782MOL0     C 5457   8.876  11.181   6.051  0.3028 -0.2240  0.5008
  782MOL0     C 5458   8.775  11.148   5.950  0.9674  0.0903  0.7546
  782MOL0     O 5459   8.738  11.267   5.879 -0.1563  0.0570 -0.0417
  782MOL0     C 5460   8.607  11.274   5.835 -0.0703 -0.4983  0.2797
  782MOL0     C 5461   8.588  11.300   5.697  0.1134  0.0079  0.1741
  782MOL0     C 5462   8.451  11.301   5.649 -0.4755 -0.3916 -0.6559
  782MOL0     C 5463   8.431  11.317   5.498  0.1999 -0.1761  0.4311
  782MOL0     C 5464   8.341  11.283   5.738 -0.8351  0.1516 -0.2529
  782MOL0     C 5465   8.192  11.297   5.694 -0.0420 -0.9908 -0.6816
  782MOL0     O 5466   8.152  11.230   5.585  1.0915 -0.0296 -0.6924
  782MOL0     C 5467   8.026  11.257   5.539  0.0933  0.4833  0.3545
  782MOL0     C 5468   7.997  11.369   5.457  0.5375  0.5700 -1.2529
  782MOL0     C 5469   7.870  11.381   5.401 -0.1081 -0.4952 -0.5281
  782MOL0     C 5470   7.764  11.300   5.442 -0.3393 -0.2005 -0.4538
  782MOL0     O 5471   7.642  11.322   5.394  0.3845 -0.0305 -0.2869
  782MOL0     C 5472   7.539  11.317   5.500  0.0717  0.0238  0.7788
  782MOL0     C 5473   7.435  11.427   5.474  0.5501 -0.0041  0.8202
  782MOL0     C 5474   7.346  11.401   5.350 -0.0060  0.0089  0.0891
  782MOL0     C 5475   7.253  11.512   5.318  0.4460 -0.1174  1.0451
  782MOL0     C 5476   7.107  11.477   5.359  0.9437 -0.8746 -0.0929
  782MOL0     C 5477   7.001  11.582   5.316  0.1349  0.6740  0.3264
  782MOL0     C 5478   6.988  11.609   5.170 -0.1765  0.5256  0.2364
  782MOL0     C 5479   6.868  11.688   5.128  0.0133  0.2087  0.5022
  782MOL0    Cl 5480   6.712  11.593   5.169  0.0297  0.1881  0.3978
  782MOL0     C 5481   7.796  11.199   5.533  0.3274 -0.3222 -0.3776
  782MOL0     C 5482   7.922  11.171   5.569 -0.8603 -0.1494 -0.4265
  782MOL0     O 5483   8.117  11.360   5.768  0.6409 -0.1661  0.4681
  782MOL0     C 5484   8.370  11.263   5.873  0.4708  0.3036 -0.0240
  782MOL0     C 5485   8.496  11.257   5.925 -0.9019 -0.3468 -0.8933
  782MOL0     N 5486   8.796  11.427   6.438 -0.1531  0.1335 -0.6003
  782MOL0     N 5487   8.819  11.539   6.500  0.4301 -0.0652 -0.4223
  782MOL0     C 5488   9.930  10.829   6.782 -0.4049  0.0285  0.6001
  782MOL0     C 5489  10.033  10.752   6.742 -0.4785  0.2388  0.5199
  782MOL0     C 5490  10.470  10.740   6.592 -0.0373  0.3223 -0.5783
  782MOL0     C 5491  10.489  10.606   6.563  1.3848 -0.4764 -0.2997
  782MOL0     C 5492  10.612  10.557   6.521  1.0589  0.2056 -0.4530
  782MOL0     C 5493  10.723  10.643   6.502  0.6002  1.3139  1.0969
  782MOL0     O 5494  10.838  10.590   6.452 -0.0272 -0.2023 -0.3950
  782MOL0     C 5495  10.958  10.668   6.447  0.0812  0.3142  0.1536
  782MOL0     C 5496  11.076  10.586   6.381 -0.0814  0.6841 -0.0998
  782MOL0     C 5497  11.206  10.668   6.393  0.2308  0.6082 -0.3122
  782MOL0     C 5498  11.310  10.611   6.308 -1.4333 -0.6933 -1.6813
  782MOL0     C 5499  11.354  10.485   6.359  0.4726  0.2868 -0.2846
  782MOL0     C 5500  11.393  10.375   6.387 -0.2697 -0.4928 -0.0274
  782MOL0     C 5501  10.712  10.774   6.534  0.1068 -0.1265  0.1452
  782MOL0     C 5502  10.585  10.825   6.583  0.5531  0.5550  0.6825
  782MOL0     H 5503  10.125  10.885   6.449 -0.5729 -1.1409  0.2830
  782MOL0     H 5504   9.931  11.033   6.503 -0.9982 -1.8765 -1.8262
  782MOL0     H 5505   9.818  11.182   6.617  0.6220  1.6875  3.4764
  782MOL0     H 5506   9.699  11.065   6.559 -1.2278 -2.4361  1.6747
  782MOL0     H 5507   9.561  11.130   6.769  1.2465  0.2749  1.2836
  782MOL0     H 5508   9.670  11.265   6.783  2.3652  0.6472 -2.3147
  782MOL0     H 5509   9.619  11.376   6.589 -2.6149  2.2838 -1.1538
  782MOL0     H 5510   9.533  11.244   6.513  0.8698  0.0576  0.9993
  782MOL0     H 5511   9.347  11.261   6.680  0.5672 -2.0038 -2.3546
  782MOL0     H 5512   9.431  11.387   6.775 -1.4467 -1.3101  1.3711
  782MOL0     H 5513   9.422  11.541   6.595 -1.7093  2.2237  0.0778
  782MOL0     H 5514   9.334  11.425   6.498  1.9662  0.4843  0.3547
  782MOL0     H 5515   9.149  11.416   6.663  1.2405 -0.5675 -1.5976
  782MOL0     H 5516   9.229  11.527   6.767  1.2341 -1.3218  0.7229
  782MOL0     H 5517   9.216  11.710   6.622 -0.8215  0.2670  0.1148
  782MOL0     H 5518   9.207  11.616   6.467 -1.8563  1.1247 -0.1440
  782MOL0     H 5519   9.004  11.751   6.524 -0.0984 -0.4001 -0.0756
  782MOL0     H 5520   8.977  11.644   6.666  0.7774  2.6533  0.0449
  782MOL0     H 5521   9.109  11.462   6.365 -0.2860  1.1789 -2.0711
  782MOL0     H 5522   9.028  11.247   6.261 -0.5155 -1.1273  1.4105
  782MOL0     H 5523   8.899  11.168   6.326  1.7533  0.0127  0.6959
  782MOL0     H 5524   8.830  11.389   6.111 -0.7289  0.5874  3.5999
  782MOL0     H 5525   8.721  11.278   6.181 -0.0015 -1.0196  0.1370
  782MOL0     H 5526   8.919  11.091   6.097  1.2572  0.2061  0.4651
  782MOL0     H 5527   8.964  11.224   6.003  0.0419 -0.8637 -0.5677
  782MOL0     H 5528   8.690  11.100   6.000  1.6837  1.4475  3.4608
  782MOL0     H 5529   8.800  11.071   5.876 -2.3688 -0.9660  0.5649
  782MOL0     H 5530   8.663  11.311   5.619  1.1361  0.8674  1.2413
  782MOL0     H 5531   8.404  11.220   5.457  0.6224 -1.1797  2.3931
  782MOL0     H 5532   8.346  11.382   5.477 -1.3857 -2.2911 -0.0503
  782MOL0     H 5533   8.521  11.352   5.447  0.8079 -3.9572 -1.3958
  782MOL0     H 5534   8.068  11.444   5.425  0.7574  1.5527  1.2731
  782MOL0     H 5535   7.853  11.457   5.326  0.2224 -0.1553 -0.2665
  782MOL0     H 5536   7.501  11.214   5.494  1.2326 -0.3496 -2.4165
  782MOL0     H 5537   7.587  11.331   5.597  2.7774 -3.1801  0.0701
  782MOL0     H 5538   7.379  11.455   5.564  1.7791  5.3190  0.2895
  782MOL0     H 5539   7.486  11.521   5.451  1.7276 -1.0967 -1.4047
  782MOL0     H 5540   7.291  11.310   5.376 -1.2000 -0.5084 -3.6543
  782MOL0     H 5541   7.407  11.385   5.260 -0.3234  1.5257 -0.4316
  782MOL0     H 5542   7.284  11.605   5.367  1.5502  0.5865 -0.8869
  782MOL0     H 5543   7.252  11.536   5.211 -2.6470 -3.8600  0.0002
  782MOL0     H 5544   7.102  11.486   5.467  1.4209  1.4548 -0.2106
  782MOL0     H 5545   7.068  11.382   5.323  2.2356 -2.8055  3.1912
  782MOL0     H 5546   6.905  11.557   5.361 -1.3714  1.1301 -2.4095
  782MOL0     H 5547   7.041  11.674   5.359  1.0283  0.2985  0.3224
  782MOL0     H 5548   7.000  11.514   5.117  2.1253  0.0546  1.4589
  782MOL0     H 5549   7.084  11.657   5.148  0.3969 -1.0201 -0.8069
  782MOL0     H 5550   6.867  11.688   5.018 -0.6721 -2.6986  0.4498
  782MOL0     H 5551   6.889  11.790   5.161  2.6299  0.0871 -0.5440
  782MOL0     H 5552   7.714  11.132   5.558  0.4455 -0.7740 -1.1561
  782MOL0     H 5553   7.941  11.084   5.631  0.0356 -0.5120 -1.1789
  782MOL0     H 5554   8.287  11.253   5.942  0.1595 -0.4748 -0.5016
  782MOL0     H 5555   8.523  11.225   6.025  0.9147 -0.1213 -1.2687
  782MOL0     H 5556   9.893  10.812   6.883  2.5031  2.4687  2.2593
  782MOL0     H 5557  10.072  10.677   6.810 -1.3903 -0.9681 -0.2440
  782MOL0     H 5558  10.406  10.536   6.573  1.7384 -0.7245  1.2425
  782MOL0     H 5559  10.626  10.451   6.501  0.8020  0.1896 -0.5520
  782MOL0     H 5560  10.945  10.758   6.386  0.0740 -0.7783 -1.5186
  782MOL0     H 5561  10.988  10.698   6.548 -4.8267 -2.9753  3.0034
  782MOL0     H 5562  11.047  10.557   6.280 -1.0218  0.7847  0.1318
  782MOL0     H 5563  11.091  10.496   6.442  0.9015  2.2242  2.0423
  782MOL0     H 5564  11.241  10.664   6.497  0.5213 -2.0948 -0.4372
  782MOL0     H 5565  11.171  10.769   6.372 -2.5165  0.1623  1.5216
  782MOL0     H 5566  11.398  10.676   6.318 -2.0881 -0.1527  3.9856
  782MOL0     H 5567  11.282  10.603   6.202 -2.1993  0.2509 -1.5590
  782MOL0     H 5568  11.431  10.274   6.384  0.2065 -0.4219 -4.9954
  782MOL0     H 5569  10.788  10.851   6.533 -1.6472  1.9199  3.7380
  782MOL0     H 5570  10.565  10.931   6.591 -1.9644  0.1279  0.8972
  783MOL0     O 5571   6.693   1.847  10.080  0.3126 -0.0876 -0.8307
  783MOL0     C 5572   6.724   1.951  10.143 -0.2255 -0.9793  0.9396
  783MOL0     O 5573   6.639   2.032  10.209  0.0930 -0.3702  0.2701
  783MOL0     C 5574   6.509   2.019  10.175 -0.2685  0.0750 -1.2150
  783MOL0     C 5575   6.419   2.026  10.283 -0.1923 -0.0411 -0.4652
  783MOL0     C 5576   6.285   2.032  10.264  0.1603 -0.2134 -0.0786
  783MOL0     C 5577   6.232   2.021  10.131  0.2372 -0.9254 -0.5439
  783MOL0     O 5578   6.096   2.027  10.107 -0.0460  0.3548  0.1887
  783MOL0     C 5579   6.006   2.049  10.217 -0.2452  0.1363 -0.2802
  783MOL0     C 5580   5.865   2.028  10.164  0.4631 -0.1838  0.7691
  783MOL0     C 5581   5.770   2.123  10.242 -0.0343  0.0961 -0.6428
  783MOL0     C 5582   5.620   2.077  10.233 -0.3083 -0.9274  0.7758
  783MOL0     C 5583   5.544   2.174  10.320  1.4909 -0.4245  0.2197
  783MOL0     C 5584   5.400   2.151  10.288  0.1112 -0.3858 -0.4628
  783MOL0     C 5585   5.329   2.052  10.386  0.6577 -0.4284 -0.0515
  783MOL0     C 5586   5.312   1.906  10.342 -0.2535 -0.6098  0.4299
  783MOL0     N 5587   5.188   1.839  10.392  0.0305 -0.2758 -0.2447
  783MOL0     C 5588   5.060   1.858  10.340  0.4607 -0.5097 -0.4057
  783MOL0     C 5589   4.978   1.804  10.434  0.7592 -0.5836 -0.1869
  783MOL0     C 5590   4.825   1.786  10.410 -0.3958 -0.0963 -0.1182
  783MOL0     C 5591   4.751   1.923  10.413 -0.4822  0.2626  0.4132
  783MOL0     C 5592   4.607   1.935  10.351  1.1709 -0.0015 -0.5463
  783MOL0     C 5593   4.587   1.887  10.199  0.5336  0.3319 -0.5332
  783MOL0     O 5594   4.490   1.977  10.144  0.7118  0.9352  0.5060
  783MOL0     C 5595   4.438   1.921  10.037  0.8061 -0.2498 -0.2560
  783MOL0     C 5596   4.298   1.904  10.049  0.1384 -0.0139 -0.8759
  783MOL0     C 5597   4.225   1.849   9.945  0.4458  0.3039  0.3081
  783MOL0     C 5598   4.083   1.806   9.963  0.5716 -0.2955  0.1253
  783MOL0     C 5599   4.299   1.817   9.826 -0.6976 -0.6295  0.3981
  783MOL0     C 5600   4.240   1.776   9.698 -0.3500  0.7218  0.3543
  783MOL0     O 5601   4.320   1.706   9.617  0.4367  0.2217 -0.3820
  783MOL0     C 5602   4.284   1.685   9.492  0.6242  0.3586 -1.4864
  783MOL0     C 5603   4.219   1.570   9.468 -0.6225 -0.1877 -0.5315
  783MOL0     C 5604   4.192   1.541   9.328 -0.4665 -0.0292  0.2448
  783MOL0     C 5605   4.236   1.625   9.224 -0.5343 -0.4345  0.5327
  783MOL0     O 5606   4.196   1.591   9.098 -0.3017  0.0013  0.4393
  783MOL0     C 5607   4.259   1.649   8.981  0.1975  0.2657 -0.0013
  783MOL0     C 5608   4.219   1.590   8.844  0.0771 -0.7575 -0.3488
  783MOL0     C 5609   4.304   1.461   8.815  0.3907  0.3743 -0.2033
  783MOL0     C 5610   4.202   1.343   8.793 -0.2573 -0.0413 -0.6423
  783MOL0     C 5611   4.131   1.299   8.919 -0.4991  0.0978 -0.2181
  783MOL0     C 5612   4.022   1.195   8.898 -0.4297 -0.5852  0.2401
  783MOL0     C 5613   3.904   1.217   8.985  0.0418 -0.3971  0.4892
  783MOL0     C 5614   3.813   1.087   8.986 -0.2669  0.1663  0.3669
  783MOL0    Cl 5615   3.770   1.057   8.811  0.2414 -0.0242 -0.0205
  783MOL0     C 5616   4.317   1.738   9.257  0.6066  0.2849  0.7235
  783MOL0     C 5617   4.341   1.768   9.391 -0.3156 -0.6158 -0.3201
  783MOL0     O 5618   4.138   1.827   9.665  0.0200 -0.4001  0.3402
  783MOL0     C 5619   4.435   1.838   9.823 -0.1390 -0.1243  0.4280
  783MOL0     C 5620   4.508   1.893   9.928 -0.6138  0.1233 -0.9621
  783MOL0     N 5621   5.059   1.744  10.528 -0.4158 -0.5983 -0.0623
  783MOL0     N 5622   5.183   1.767  10.508  0.0483  0.3032 -0.8256
  783MOL0     C 5623   6.321   2.026  10.023 -0.0662  0.1624  0.5419
  783MOL0     C 5624   6.459   2.022  10.047  0.4418  0.3705 -0.3044
  783MOL0     C 5625   6.869   2.001  10.129  1.3061 -0.2267 -0.2588
  783MOL0     C 5626   6.973   1.947  10.048  0.5421 -0.4548  0.4961
  783MOL0     C 5627   7.101   2.012  10.034  0.4631  0.1206  0.5641
  783MOL0     C 5628   7.127   2.131  10.107  1.0129  0.0528  0.0038
  783MOL0     O 5629   7.251   2.189  10.130 -0.2459  0.7834  0.5816
  783MOL0     C 5630   7.374   2.111  10.098  0.2743 -0.5352 -0.2237
  783MOL0     C 5631   7.486   2.156  10.191  0.0802 -0.2394  0.2733
  783MOL0     C 5632   7.435   2.153  10.337  0.0087 -0.0593 -0.0190
  783MOL0     C 5633   7.535   2.115  10.443 -0.5225 -0.6275 -0.8812
  783MOL0     C 5634   7.652   2.206  10.459 -0.2186  0.0474 -0.1093
  783MOL0     C 5635   7.756   2.281  10.473  0.2698  0.1620  0.6286
  783MOL0     C 5636   7.020   2.192  10.158  0.2295 -0.5012  0.3332
  783MOL0     C 5637   6.899   2.131  10.176 -0.0682  0.8659  0.3681
  783MOL0     H 5638   6.462   2.030  10.383  1.7501 -0.9773 -1.1941
  783MOL0     H 5639   6.222   2.031  10.352 -3.5094  0.5315 -2.4792
  783MOL0     H 5640   6.035   1.976  10.293  1.8632  0.0418 -1.0989
  783MOL0     H 5641   6.014   2.149  10.262  2.2540 -1.4493  3.2982
  783MOL0     H 5642   5.867   2.035  10.055 -2.1602  1.2704  0.7461
  783MOL0     H 5643   5.832   1.927  10.189 -0.7844 -0.4073 -1.5596
  783MOL0     H 5644   5.795   2.098  10.345 -0.3633 -3.8361 -1.3691
  783MOL0     H 5645   5.803   2.225  10.220  1.3293 -0.1929 -0.0191
  783MOL0     H 5646   5.585   2.095  10.131  0.5437  0.0644  0.6382
  783MOL0     H 5647   5.593   1.975  10.262 -3.8964  0.1244  1.6313
  783MOL0     H 5648   5.563   2.162  10.427  2.2572 -0.1002  0.1303
  783MOL0     H 5649   5.567   2.277  10.290  0.6999 -0.4119 -0.3536
  783MOL0     H 5650   5.348   2.248  10.287  1.5860  0.5412 -4.2072
  783MOL0     H 5651   5.382   2.118  10.185 -2.8953 -2.3874  0.5771
  783MOL0     H 5652   5.368   2.052  10.489 -1.4742 -3.6677  0.9221
  783MOL0     H 5653   5.229   2.096  10.393  1.8169  3.2507 -3.1691
  783MOL0     H 5654   5.405   1.863  10.379  1.2530  3.2241  1.5717
  783MOL0     H 5655   5.314   1.892  10.234  2.4768  0.3525  0.2807
  783MOL0     H 5656   5.023   1.906  10.250 -1.4604 -1.4336 -0.1752
  783MOL0     H 5657   4.807   1.739  10.313 -2.2342  2.8107 -1.2951
  783MOL0     H 5658   4.790   1.721  10.491  1.2529 -0.7789  0.0845
  783MOL0     H 5659   4.819   1.996  10.368  0.6196  0.8866  2.9088
  783MOL0     H 5660   4.742   1.947  10.519 -0.4664  2.2629 -0.0077
  783MOL0     H 5661   4.569   2.036  10.366  0.8382 -0.4128  1.8740
  783MOL0     H 5662   4.536   1.879  10.413 -0.0675 -0.3665 -2.2118
  783MOL0     H 5663   4.563   1.781  10.197 -0.1484  0.4040  1.5073
  783MOL0     H 5664   4.678   1.915  10.145  1.1340 -0.8530 -0.1717
  783MOL0     H 5665   4.245   1.930  10.140  1.1653 -0.9989  0.0255
  783MOL0     H 5666   4.060   1.793  10.069 -0.0517  1.5428  0.2594
  783MOL0     H 5667   4.016   1.887   9.932 -0.9173 -1.0917  1.1414
  783MOL0     H 5668   4.048   1.729   9.894 -0.7400 -0.2695  0.7424
  783MOL0     H 5669   4.184   1.521   9.559 -1.1370  0.3792 -0.4185
  783MOL0     H 5670   4.135   1.452   9.303 -1.2635  0.9563 -1.6183
  783MOL0     H 5671   4.238   1.756   8.971 -1.9977 -0.3220 -3.3946
  783MOL0     H 5672   4.368   1.640   8.992  0.0557  1.3044  3.2578
  783MOL0     H 5673   4.110   1.578   8.845 -0.1235  0.8829 -0.0169
  783MOL0     H 5674   4.242   1.670   8.773 -1.6946 -0.8753 -1.1054
  783MOL0     H 5675   4.352   1.441   8.912 -0.3923  1.0483  0.3433
  783MOL0     H 5676   4.372   1.479   8.732 -1.7585  1.3199 -1.8394
  783MOL0     H 5677   4.129   1.364   8.714 -1.0530 -0.0622  0.0689
  783MOL0     H 5678   4.262   1.255   8.769 -0.8864 -1.1546  1.5541
  783MOL0     H 5679   4.079   1.386   8.962 -0.9253 -0.4787  0.4640
  783MOL0     H 5680   4.205   1.267   8.994  0.2060 -1.8211 -1.6625
  783MOL0     H 5681   3.990   1.208   8.794  1.5258  0.9563 -0.2280
  783MOL0     H 5682   4.066   1.095   8.905 -0.9576 -0.9862 -1.5180
  783MOL0     H 5683   3.850   1.297   8.933  2.9375  0.6680 -1.1766
  783MOL0     H 5684   3.928   1.262   9.081 -4.1355 -3.4465  3.2832
  783MOL0     H 5685   3.721   1.110   9.041  0.1430 -0.6264  1.4123
  783MOL0     H 5686   3.861   1.007   9.043 -0.5056 -2.7640 -3.1379
  783MOL0     H 5687   4.362   1.789   9.173  0.0298  0.2020  0.3547
  783MOL0     H 5688   4.398   1.858   9.410  0.1581 -0.8423 -0.6341
  783MOL0     H 5689   4.494   1.802   9.739 -1.3061 -0.5498 -0.2306
  783MOL0     H 5690   4.616   1.906   9.918 -0.3907 -2.0828 -1.8616
  783MOL0     H 5691   6.278   2.044   9.925  1.8759 -4.1900 -1.3589
  783MOL0     H 5692   6.531   2.044   9.969 -0.3448 -0.9031 -1.4290
  783MOL0     H 5693   6.956   1.852   9.999 -0.3387 -0.5359  0.9400
  783MOL0     H 5694   7.178   1.958   9.981 -0.6103 -0.3766 -0.5299
  783MOL0     H 5695   7.362   2.003  10.110  1.0900 -0.6678 -0.5381
  783MOL0     H 5696   7.401   2.130   9.994  0.0782  2.8806  0.2283
  783MOL0     H 5697   7.520   2.257  10.167  3.6745 -1.6718 -1.4968
  783MOL0     H 5698   7.581   2.101  10.184 -0.9466 -1.9419 -1.0318
  783MOL0     H 5699   7.364   2.071  10.352 -1.3716  1.5007  2.5287
  783MOL0     H 5700   7.387   2.247  10.363  1.7771  1.0413 -0.5684
  783MOL0     H 5701   7.585   2.021  10.418  4.5089  1.8700 -1.3910
  783MOL0     H 5702   7.488   2.095  10.540 -2.2173 -0.2248 -1.5922
  783MOL0     H 5703   7.830   2.358  10.479 -1.6035  2.1575 -0.6714
  783MOL0     H 5704   7.027   2.296  10.190  1.8559 -0.5328  0.1886
  783MOL0     H 5705   6.835   2.196  10.235  2.0090  2.6060  0.8589
  784MOL0     O 5706  10.663   8.309   0.398 -0.8599  0.0550 -0.0036
  784MOL0     C 5707  10.664   8.217   0.478 -0.6101 -0.4080 -0.6143
  784MOL0     O 5708  10.768   8.131   0.489 -0.6187  0.1317  0.6761
  784MOL0     C 5709  10.896   8.148   0.448  0.1223  0.5660  0.7215
  784MOL0     C 5710  10.950   8.262   0.395  0.4033  0.2800 -0.0740
  784MOL0     C 5711  11.088   8.263   0.364 -0.0708 -0.3608 -0.3624
  784MOL0     C 5712  11.171   8.152   0.391 -0.6315  0.8085  0.4322
  784MOL0     O 5713  11.305   8.134   0.362 -0.1495 -0.3427  0.2949
  784MOL0     C 5714  11.381   8.261   0.366  0.5178 -0.0599  0.6848
  784MOL0     C 5715  11.516   8.217   0.421  0.3013  0.0442  0.3590
  784MOL0     C 5716  11.501   8.124   0.542  0.2456 -0.1018  0.7215
  784MOL0     C 5717  11.635   8.084   0.600 -0.2212 -0.2640  0.0420
  784MOL0     C 5718  11.633   7.995   0.725 -0.0831 -0.2786 -0.3610
  784MOL0     C 5719  11.766   7.923   0.746  0.0121  0.5723  0.6549
  784MOL0     C 5720  11.867   8.011   0.817  0.2415 -0.6316  0.9042
  784MOL0     C 5721  12.000   7.948   0.819  0.1053  0.3272 -0.6732
  784MOL0     N 5722  12.011   7.825   0.905 -0.2554 -0.0202  0.2680
  784MOL0     C 5723  11.954   7.804   1.028 -0.2531  0.0628  0.1772
  784MOL0     C 5724  11.959   7.676   1.045 -0.3099 -0.0800  0.6901
  784MOL0     C 5725  11.894   7.596   1.157 -0.6638 -0.2216  0.0890
  784MOL0     C 5726  11.763   7.517   1.125 -0.6899 -0.4189 -0.8709
  784MOL0     C 5727  11.648   7.616   1.124 -0.4708  0.6961 -0.4197
  784MOL0     C 5728  11.527   7.533   1.094 -0.5316  0.3980 -0.1352
  784MOL0     O 5729  11.410   7.619   1.098 -0.4749  0.8703 -0.2641
  784MOL0     C 5730  11.289   7.565   1.126  0.4201  0.3920 -0.0787
  784MOL0     C 5731  11.256   7.431   1.170 -0.3349  0.0486  0.0319
  784MOL0     C 5732  11.120   7.380   1.166 -0.7077 -0.1753 -0.6564
  784MOL0     C 5733  11.089   7.239   1.218 -0.3357 -0.1510 -0.0413
  784MOL0     C 5734  11.018   7.465   1.113  0.4500  0.3796  0.0636
  784MOL0     C 5735  10.866   7.425   1.106 -0.2576 -0.1793  0.2936
  784MOL0     O 5736  10.842   7.293   1.129 -0.1029  0.0610 -0.4006
  784MOL0     C 5737  10.715   7.267   1.117  0.0870  0.0593 -0.2627
  784MOL0     C 5738  10.656   7.249   0.989  0.1174 -0.1847  0.7806
  784MOL0     C 5739  10.523   7.216   0.976  1.0133  0.3426 -0.9563
  784MOL0     C 5740  10.437   7.209   1.085  0.2127 -0.8310 -0.0008
  784MOL0     O 5741  10.302   7.178   1.088  0.0531 -0.3640 -0.3007
  784MOL0     C 5742  10.239   7.121   0.969 -0.1468  0.9726  0.2234
  784MOL0     C 5743  10.102   7.073   0.991  0.4971 -1.1161  0.3117
  784MOL0     C 5744  10.080   6.993   1.119 -0.1290  0.9176 -0.0832
  784MOL0     C 5745   9.971   6.892   1.119  0.0293 -0.2490  0.9040
  784MOL0     C 5746   9.978   6.805   1.256  0.7545  0.0678 -0.0784
  784MOL0     C 5747   9.843   6.746   1.287  1.4865 -0.7815 -0.3278
  784MOL0     C 5748   9.845   6.723   1.439  0.0467  0.0497  0.2126
  784MOL0     C 5749   9.709   6.681   1.497  0.5464  0.2622  0.9446
  784MOL0    Cl 5750   9.591   6.806   1.475  0.2907  0.2985  0.3501
  784MOL0     C 5751  10.498   7.224   1.211 -1.2263  0.3201 -0.5333
  784MOL0     C 5752  10.638   7.255   1.223 -0.9591 -0.2246  0.7346
  784MOL0     O 5753  10.787   7.509   1.055 -0.8537 -0.4347 -0.2715
  784MOL0     C 5754  11.048   7.589   1.067  0.2873 -0.1002  0.1663
  784MOL0     C 5755  11.177   7.641   1.072 -0.1363 -0.5222 -0.5458
  784MOL0     N 5756  12.046   7.626   0.946  0.0293 -0.0103  0.5037
  784MOL0     N 5757  12.073   7.716   0.863 -0.0508 -0.8299  0.5204
  784MOL0     C 5758  11.113   8.035   0.446 -0.0138 -0.1465  0.1817
  784MOL0     C 5759  10.976   8.036   0.471 -0.0538  0.8353  0.1285
  784MOL0     C 5760  10.556   8.187   0.571 -0.2416  0.4857 -1.3417
  784MOL0     C 5761  10.556   8.079   0.660 -0.7537  0.2799  0.3058
  784MOL0     C 5762  10.449   8.048   0.742 -0.0289  0.2836 -0.6980
  784MOL0     C 5763  10.333   8.129   0.726 -0.2137  1.0014  0.1252
  784MOL0     O 5764  10.213   8.100   0.787 -0.3897  0.0750  0.0769
  784MOL0     C 5765  10.222   8.035   0.915  0.1465  0.4703  0.4961
  784MOL0     C 5766  10.083   7.996   0.979  0.1763  0.6578 -0.0585
  784MOL0     C 5767  10.026   7.872   0.903  0.2035 -0.1114 -0.6031
  784MOL0     C 5768   9.912   7.917   0.807 -0.2158  0.2018  0.0974
  784MOL0     C 5769   9.852   7.797   0.752 -0.2846 -0.1805 -0.2282
  784MOL0     C 5770   9.812   7.691   0.703 -0.4775 -0.4051  0.0902
  784MOL0     C 5771  10.328   8.237   0.645  0.1485  0.5788 -0.4127
  784MOL0     C 5772  10.442   8.269   0.573 -0.1049 -0.4374 -0.1751
  784MOL0     H 5773  10.895   8.351   0.365 -2.2224 -1.1979  0.0401
  784MOL0     H 5774  11.131   8.346   0.308 -1.5355  0.1154 -0.8446
  784MOL0     H 5775  11.393   8.297   0.264 -0.3753 -1.3877  0.0806
  784MOL0     H 5776  11.339   8.336   0.434 -1.0549  0.1676 -0.4817
  784MOL0     H 5777  11.576   8.167   0.345  0.6179  0.6286  0.2176
  784MOL0     H 5778  11.580   8.303   0.441 -0.4208  0.6934 -0.0576
  784MOL0     H 5779  11.448   8.178   0.621  0.4778 -0.4942  1.1548
  784MOL0     H 5780  11.447   8.031   0.520  2.8692 -1.3732 -0.8062
  784MOL0     H 5781  11.684   8.021   0.525  2.9924 -1.1851  2.6907
  784MOL0     H 5782  11.705   8.166   0.620  0.6848 -1.1422  0.5845
  784MOL0     H 5783  11.607   8.054   0.813  1.2428 -0.2497  0.0308
  784MOL0     H 5784  11.568   7.910   0.704  1.0803 -0.7169 -2.5903
  784MOL0     H 5785  11.741   7.836   0.808 -3.2727  0.0284 -1.2153
  784MOL0     H 5786  11.804   7.893   0.648  0.2330  1.6817  0.3879
  784MOL0     H 5787  11.878   8.110   0.772  2.6601 -2.0120 -1.8808
  784MOL0     H 5788  11.836   8.031   0.920 -0.0777 -0.9798  0.8790
  784MOL0     H 5789  12.067   8.009   0.880  0.0648 -1.0344  0.8018
  784MOL0     H 5790  12.047   7.923   0.723 -2.5133 -2.4589 -1.3977
  784MOL0     H 5791  11.914   7.884   1.090  0.4850 -1.0232  2.1376
  784MOL0     H 5792  11.968   7.521   1.187  1.8711  1.6747 -1.0900
  784MOL0     H 5793  11.888   7.666   1.240 -2.3241  0.8976 -0.9144
  784MOL0     H 5794  11.755   7.442   1.204 -0.0429  0.9026  0.4938
  784MOL0     H 5795  11.774   7.479   1.023  2.6745 -2.1778 -0.0002
  784MOL0     H 5796  11.669   7.696   1.053  0.6175  0.7417 -0.0736
  784MOL0     H 5797  11.636   7.655   1.226  0.7543  0.2210 -0.0617
  784MOL0     H 5798  11.527   7.452   1.167  0.3358 -2.8155 -3.4360
  784MOL0     H 5799  11.530   7.487   0.995  0.1748  1.5311 -0.6742
  784MOL0     H 5800  11.340   7.376   1.210  1.2451  3.9379  2.6779
  784MOL0     H 5801  11.175   7.191   1.266 -2.3478 -1.6510  2.3180
  784MOL0     H 5802  11.020   7.242   1.303  1.4121  1.3872  1.4088
  784MOL0     H 5803  11.057   7.171   1.138  0.5206 -1.7510  0.9322
  784MOL0     H 5804  10.721   7.254   0.902 -0.5057 -1.5648  0.1990
  784MOL0     H 5805  10.476   7.204   0.880 -0.8569 -2.4436  0.1792
  784MOL0     H 5806  10.244   7.197   0.891  1.7952  3.2628  2.4142
  784MOL0     H 5807  10.301   7.037   0.936 -1.7110 -0.6834  1.2656
  784MOL0     H 5808  10.032   7.157   0.993 -1.6940 -2.8538  0.5204
  784MOL0     H 5809  10.074   7.034   0.893 -1.0148  1.8227 -0.5333
  784MOL0     H 5810  10.062   7.063   1.202  1.8721  2.0540 -0.5232
  784MOL0     H 5811  10.171   6.936   1.139 -1.1887 -1.0437 -0.6719
  784MOL0     H 5812   9.878   6.949   1.113  0.6704  0.7549  0.4010
  784MOL0     H 5813   9.981   6.836   1.026  5.0192  2.8837 -0.8295
  784MOL0     H 5814  10.005   6.877   1.333 -0.0770  0.8572 -0.5112
  784MOL0     H 5815  10.056   6.730   1.237 -0.7241 -1.2280 -1.3091
  784MOL0     H 5816   9.766   6.822   1.272  2.1667 -0.1487 -0.6468
  784MOL0     H 5817   9.814   6.649   1.245  0.6583  0.0080 -1.6453
  784MOL0     H 5818   9.877   6.813   1.491  0.0942  0.4673 -0.5196
  784MOL0     H 5819   9.915   6.642   1.456 -0.7346 -0.3554  1.7021
  784MOL0     H 5820   9.722   6.644   1.599 -1.0012 -2.3116  0.3018
  784MOL0     H 5821   9.670   6.590   1.451 -0.5689  0.5489  1.2964
  784MOL0     H 5822  10.437   7.227   1.300 -0.4955  0.0796 -0.0067
  784MOL0     H 5823  10.693   7.266   1.315 -0.2066 -2.6835  0.6357
  784MOL0     H 5824  10.980   7.668   1.034  0.8849  0.7612  0.9403
  784MOL0     H 5825  11.199   7.739   1.031  2.1427 -0.6386  0.2427
  784MOL0     H 5826  11.162   7.942   0.472 -0.1341 -0.3126 -0.1745
  784MOL0     H 5827  10.931   7.948   0.515  2.3415 -2.3213 -3.1640
  784MOL0     H 5828  10.630   8.000   0.660 -1.3479 -0.2935 -0.5348
  784MOL0     H 5829  10.442   7.952   0.793  0.1113  0.7381  0.1868
  784MOL0     H 5830  10.278   7.941   0.909 -1.0761 -0.2351 -0.2796
  784MOL0     H 5831  10.273   8.111   0.976  1.6534 -0.9450  1.0692
  784MOL0     H 5832  10.009   8.077   0.984  0.1493  0.5688  1.4275
  784MOL0     H 5833  10.102   7.982   1.086  0.1782  3.6174  0.4271
  784MOL0     H 5834   9.997   7.800   0.980  1.9520  0.3291  0.5292
  784MOL0     H 5835  10.106   7.817   0.854 -0.1245 -0.6519 -0.5448
  784MOL0     H 5836   9.944   7.984   0.728 -2.7782  2.1969  0.6417
  784MOL0     H 5837   9.834   7.972   0.860  1.7269 -0.2738  3.8365
  784MOL0     H 5838   9.792   7.597   0.656 -0.3314 -1.1546  1.4604
  784MOL0     H 5839  10.248   8.309   0.657  0.5775  0.8412  1.2711
  784MOL0     H 5840  10.445   8.362   0.518  1.0319  0.5695  1.5191
  785MOL0     O 5841   4.983  10.383   2.848  0.0268 -0.2896 -0.0747
  785MOL0     C 5842   5.056  10.372   2.748  0.2946  0.0241 -0.3589
  785MOL0     O 5843   5.017  10.372   2.625  0.5417  0.0369 -0.4759
  785MOL0     C 5844   4.895  10.429   2.590  0.0450 -1.0757 -0.1403
  785MOL0     C 5845   4.870  10.569   2.603  0.5756  0.3382  0.1912
  785MOL0     C 5846   4.739  10.615   2.560 -0.5250  0.3823  0.5862
  785MOL0     C 5847   4.642  10.530   2.508 -0.0317  0.6184 -0.1642
  785MOL0     O 5848   4.514  10.575   2.473 -0.4319  0.0505 -0.0613
  785MOL0     C 5849   4.480  10.717   2.441 -0.4167  0.4611  0.0708
  785MOL0     C 5850   4.551  10.761   2.308 -0.1717 -0.8382  0.3734
  785MOL0     C 5851   4.495  10.905   2.272  0.5216 -0.1031 -0.1725
  785MOL0     C 5852   4.526  10.951   2.127  0.1689  0.4239  0.0058
  785MOL0     C 5853   4.444  11.080   2.100  0.5202  0.4074  0.3638
  785MOL0     C 5854   4.468  11.117   1.954  0.2819 -0.1344 -0.2231
  785MOL0     C 5855   4.388  11.230   1.888  0.5473  0.4054 -0.3626
  785MOL0     C 5856   4.248  11.194   1.848  0.4058 -0.2340 -0.0642
  785MOL0     N 5857   4.239  11.121   1.723  0.5971  0.1779  0.3220
  785MOL0     C 5858   4.206  11.183   1.606  0.2249 -0.1000  0.9222
  785MOL0     C 5859   4.214  11.089   1.513  0.1985  0.2200 -0.0379
  785MOL0     C 5860   4.178  11.131   1.364  0.5468 -0.1374  0.8484
  785MOL0     C 5861   4.029  11.153   1.342  0.2846  0.0622  0.6010
  785MOL0     C 5862   4.012  11.162   1.186  0.2558 -0.0448  0.6292
  785MOL0     C 5863   3.871  11.201   1.141  0.2020 -0.1658 -0.0050
  785MOL0     O 5864   3.865  11.226   0.997 -0.2080 -0.4376 -0.3086
  785MOL0     C 5865   3.739  11.230   0.945 -0.1128 -0.4782 -0.4344
  785MOL0     C 5866   3.623  11.259   1.013  0.3480 -0.2228  0.1527
  785MOL0     C 5867   3.497  11.262   0.963  0.9213 -0.3044 -0.1277
  785MOL0     C 5868   3.384  11.295   1.066 -0.0576 -0.1674 -0.0569
  785MOL0     C 5869   3.489  11.228   0.824  0.0921  0.6956 -0.8296
  785MOL0     C 5870   3.355  11.226   0.754 -0.1562 -0.7133  0.3101
  785MOL0     O 5871   3.364  11.193   0.614  0.0027 -0.2898  0.5604
  785MOL0     C 5872   3.248  11.181   0.539 -0.6228  0.3635 -0.0891
  785MOL0     C 5873   3.140  11.274   0.552  0.0919  0.1239 -0.4279
  785MOL0     C 5874   3.032  11.261   0.467  0.0811 -0.2675 -0.6586
  785MOL0     C 5875   3.020  11.167   0.366 -0.7686 -0.7465 -0.1621
  785MOL0     O 5876   2.917  11.191   0.280  0.0410 -0.1187  0.2328
  785MOL0     C 5877   2.879  11.082   0.193 -0.1947 -0.5547  0.0323
  785MOL0     C 5878   2.764  11.130   0.103  0.2765  0.2889 -0.3511
  785MOL0     C 5879   2.706  11.016   0.016 -0.5752 -0.8947  0.0774
  785MOL0     C 5880   2.588  11.057  -0.067  0.1337  0.5437  0.0957
  785MOL0     C 5881   2.504  10.940  -0.119  0.7770  0.3030  0.0468
  785MOL0     C 5882   2.410  10.985  -0.230 -0.2198  0.2563 -0.0620
  785MOL0     C 5883   2.344  10.861  -0.300  0.6180 -0.2407 -0.6564
  785MOL0     C 5884   2.266  10.763  -0.210 -0.2150  0.5461  0.2086
  785MOL0    Cl 5885   2.139  10.858  -0.129  0.2547  0.1979  0.2068
  785MOL0     C 5886   3.119  11.071   0.358  0.4371  1.1138  0.1308
  785MOL0     C 5887   3.232  11.082   0.438  0.2292 -0.3373 -0.8195
  785MOL0     O 5888   3.252  11.253   0.815 -0.1784  0.1407  0.1842
  785MOL0     C 5889   3.604  11.212   0.750 -0.5638  0.4352  0.5521
  785MOL0     C 5890   3.730  11.218   0.806  0.2168 -0.8174 -0.2046
  785MOL0     N 5891   4.239  10.968   1.573 -0.3895 -0.4881  0.2181
  785MOL0     N 5892   4.246  10.985   1.698  0.4199 -0.2851  0.3628
  785MOL0     C 5893   4.676  10.397   2.502 -0.7808  0.3125  0.5098
  785MOL0     C 5894   4.800  10.350   2.546  0.1639  0.2542 -0.9188
  785MOL0     C 5895   5.207  10.360   2.772  0.4238 -0.3559 -0.5519
  785MOL0     C 5896   5.253  10.367   2.899  0.1469 -0.9599 -0.3760
  785MOL0     C 5897   5.390  10.353   2.926 -0.3229 -0.3621  0.2461
  785MOL0     C 5898   5.486  10.343   2.817 -0.0332 -0.5794  0.4017
  785MOL0     O 5899   5.618  10.325   2.847  0.0015  0.1801 -0.9296
  785MOL0     C 5900   5.720  10.376   2.764  0.1497 -0.2555  0.4925
  785MOL0     C 5901   5.852  10.400   2.837 -0.8088  0.1456  0.5112
  785MOL0     C 5902   5.886  10.273   2.918 -0.1704  0.7412  0.7482
  785MOL0     C 5903   6.037  10.267   2.951  0.5647  0.0370  1.1838
  785MOL0     C 5904   6.062  10.184   3.069  0.9780  0.3984  0.0976
  785MOL0     C 5905   6.100  10.117   3.165  0.4257 -0.5528  0.5337
  785MOL0     C 5906   5.435  10.324   2.685 -0.0639  0.5616 -0.0566
  785MOL0     C 5907   5.293  10.329   2.667  0.3615 -0.0974  0.4210
  785MOL0     H 5908   4.947  10.640   2.632  0.6359  0.5015 -0.3616
  785MOL0     H 5909   4.720  10.722   2.566  0.9164  0.6191  1.2998
  785MOL0     H 5910   4.371  10.714   2.431 -0.4008 -1.8570 -0.0436
  785MOL0     H 5911   4.502  10.781   2.526  0.2190  2.0418 -1.2428
  785MOL0     H 5912   4.660  10.765   2.316 -0.2311 -2.2069  2.8902
  785MOL0     H 5913   4.526  10.687   2.231  0.6587 -0.2679 -0.4585
  785MOL0     H 5914   4.386  10.904   2.283  0.2735 -1.5391 -2.1722
  785MOL0     H 5915   4.541  10.971   2.346  0.3583 -1.6912  1.4151
  785MOL0     H 5916   4.630  10.969   2.100  0.0159 -1.3317 -2.0850
  785MOL0     H 5917   4.496  10.870   2.060  1.7479 -2.7607  2.9128
  785MOL0     H 5918   4.337  11.070   2.119  0.5796  1.1416  1.1554
  785MOL0     H 5919   4.478  11.164   2.161  1.4544 -0.7518  1.4952
  785MOL0     H 5920   4.573  11.146   1.945  0.2851 -0.5996 -2.4539
  785MOL0     H 5921   4.465  11.028   1.890  2.0611 -1.2101  1.0974
  785MOL0     H 5922   4.381  11.325   1.943 -1.2873  0.6320 -0.9189
  785MOL0     H 5923   4.435  11.246   1.790 -1.4533 -1.2872 -1.6761
  785MOL0     H 5924   4.197  11.288   1.824 -2.0746 -0.9260  2.0793
  785MOL0     H 5925   4.193  11.153   1.932 -0.1085 -4.5218 -2.2425
  785MOL0     H 5926   4.188  11.290   1.600 -0.2784 -0.1431  1.5923
  785MOL0     H 5927   4.237  11.217   1.332 -2.0230  0.8761 -1.5305
  785MOL0     H 5928   4.216  11.050   1.301 -0.0263  1.3024 -1.4702
  785MOL0     H 5929   3.995  11.247   1.385  0.0492  1.4167 -2.2976
  785MOL0     H 5930   3.983  11.061   1.380  1.6303 -0.3994  1.1760
  785MOL0     H 5931   4.029  11.071   1.127 -1.1183  0.2459 -0.2776
  785MOL0     H 5932   4.085  11.227   1.138 -0.3914  0.1085 -0.1859
  785MOL0     H 5933   3.835  11.289   1.196  1.8680 -0.0207  0.9354
  785MOL0     H 5934   3.801  11.121   1.165 -2.3928  2.3561  1.4032
  785MOL0     H 5935   3.634  11.273   1.120  0.2616 -0.0165  0.1337
  785MOL0     H 5936   3.421  11.305   1.168 -0.2566 -0.9283  0.0984
  785MOL0     H 5937   3.325  11.379   1.027 -1.3125  0.3474  2.7212
  785MOL0     H 5938   3.321  11.205   1.068  0.3825 -0.6840 -3.4896
  785MOL0     H 5939   3.129  11.347   0.632  0.5747 -0.4957  0.2213
  785MOL0     H 5940   2.947  11.329   0.476 -0.3879 -0.8092 -0.9226
  785MOL0     H 5941   2.961  11.050   0.127  0.1201  0.1785  0.0632
  785MOL0     H 5942   2.839  11.000   0.254  0.2720 -1.4001 -0.7693
  785MOL0     H 5943   2.689  11.174   0.170  0.7399 -1.0246  1.1029
  785MOL0     H 5944   2.805  11.208   0.038  0.8268  0.3854  0.0979
  785MOL0     H 5945   2.690  10.925   0.075 -0.0444  0.1702  1.9306
  785MOL0     H 5946   2.783  11.001  -0.060 -0.6927  0.2093 -0.2697
  785MOL0     H 5947   2.518  11.115  -0.006 -0.4916  0.2805 -0.3690
  785MOL0     H 5948   2.622  11.113  -0.154  1.7534 -1.3489 -0.5838
  785MOL0     H 5949   2.451  10.890  -0.038  2.9404  0.0418  1.3933
  785MOL0     H 5950   2.569  10.858  -0.153 -0.5915 -1.4263  1.3627
  785MOL0     H 5951   2.341  11.066  -0.209 -0.8947 -0.3855  0.2252
  785MOL0     H 5952   2.468  11.030  -0.312 -0.2780 -0.6339 -0.6102
  785MOL0     H 5953   2.412  10.802  -0.362  1.7171  1.6291 -1.2784
  785MOL0     H 5954   2.268  10.901  -0.368  0.3683 -2.0218 -1.4828
  785MOL0     H 5955   2.333  10.714  -0.139  2.4296  2.2723 -0.9242
  785MOL0     H 5956   2.221  10.684  -0.271 -0.6118  2.1489 -1.6973
  785MOL0     H 5957   3.114  10.994   0.282  0.4174 -0.0337  1.2514
  785MOL0     H 5958   3.302  11.000   0.425  0.6953 -0.4270  1.6762
  785MOL0     H 5959   3.600  11.177   0.647  0.3882 -1.5656  1.1561
  785MOL0     H 5960   3.806  11.218   0.728  1.4843  0.2186  0.9685
  785MOL0     H 5961   4.615  10.314   2.466 -0.3732 -0.0467  0.6478
  785MOL0     H 5962   4.822  10.243   2.549  0.9548  0.3494  3.7397
  785MOL0     H 5963   5.185  10.368   2.984  0.3171 -0.8042 -0.2393
  785MOL0     H 5964   5.432  10.367   3.026 -4.5375  2.8251  1.8915
  785MOL0     H 5965   5.743  10.311   2.680 -1.1352  0.9059 -0.8223
  785MOL0     H 5966   5.676  10.469   2.725 -2.3913  0.3759  4.3140
  785MOL0     H 5967   5.846  10.486   2.904 -2.5729  0.8550 -0.4874
  785MOL0     H 5968   5.918  10.414   2.750 -1.3699 -2.6008 -0.4866
  785MOL0     H 5969   5.873  10.186   2.853  0.5056  0.7893  0.5414
  785MOL0     H 5970   5.823  10.263   3.007 -0.7667 -2.8368  0.1116
  785MOL0     H 5971   6.064  10.372   2.965  0.2469  0.0930  1.3787
  785MOL0     H 5972   6.087  10.236   2.859 -2.7876 -0.9718 -0.4715
  785MOL0     H 5973   6.139  10.057   3.244  0.8905  0.2005  0.8826
  785MOL0     H 5974   5.502  10.316   2.601  0.6209  2.0966  0.2967
  785MOL0     H 5975   5.269  10.328   2.562 -0.3495 -2.5698  0.5282
  786MOL0     O 5976   1.848   5.312   3.494  0.8258 -0.2085  0.0297
  786MOL0     C 5977   1.839   5.426   3.458  0.3286 -0.2456  0.9510
  786MOL0     O 5978   1.719   5.486   3.415 -0.5840  0.1664  0.2228
  786MOL0     C 5979   1.604   5.421   3.378  0.2796 -0.0118  0.1828
  786MOL0     C 5980   1.610   5.308   3.289  0.0785 -0.0600 -0.4121
  786MOL0     C 5981   1.491   5.258   3.237 -0.1231  0.8228  0.7891
  786MOL0     C 5982   1.360   5.308   3.270 -0.3004  0.3994 -0.6480
  786MOL0     O 5983   1.257   5.243   3.220  0.5706 -0.3245 -0.4255
  786MOL0     C 5984   1.126   5.286   3.266  0.5620  0.3802 -0.0231
  786MOL0     C 5985   1.041   5.159   3.273 -0.9713 -0.8397  0.0672
  786MOL0     C 5986   0.899   5.186   3.315 -0.2581 -0.4844  0.1637
  786MOL0     C 5987   0.808   5.070   3.285 -0.7080 -0.3742  0.4862
  786MOL0     C 5988   0.656   5.099   3.328 -0.4194 -0.0337  0.3723
  786MOL0     C 5989   0.571   4.975   3.296  0.5515 -0.0354 -0.1810
  786MOL0     C 5990   0.469   4.953   3.408  0.2687  0.3736 -0.1779
  786MOL0     C 5991   0.398   4.819   3.381 -0.0610  0.4960  0.0826
  786MOL0     N 5992   0.278   4.837   3.302  0.0321  0.7385 -0.3816
  786MOL0     C 5993   0.220   4.724   3.244  0.1695 -0.5924 -0.1852
  786MOL0     C 5994   0.089   4.760   3.223  0.2525  0.7510  1.0199
  786MOL0     C 5995  -0.009   4.686   3.138 -0.4424 -0.6926 -0.3696
  786MOL0     C 5996  -0.140   4.649   3.222 -0.3437 -0.2230  0.2029
  786MOL0     C 5997  -0.238   4.769   3.197 -0.0966  1.0156  0.3519
  786MOL0     C 5998  -0.382   4.764   3.230  0.8980  0.8482 -0.1070
  786MOL0     O 5999  -0.458   4.664   3.150  0.1899  0.3881 -0.1983
  786MOL0     C 6000  -0.593   4.639   3.176  0.0540 -0.1368  0.5739
  786MOL0     C 6001  -0.659   4.572   3.071 -0.0391  0.4755  0.9113
  786MOL0     C 6002  -0.795   4.548   3.078 -0.0479 -0.2979  0.1205
  786MOL0     C 6003  -0.857   4.466   2.963  0.7098  0.9913  0.4908
  786MOL0     C 6004  -0.870   4.596   3.186  0.0779 -0.5900 -0.3120
  786MOL0     C 6005  -1.021   4.574   3.197 -0.3268  0.7540  0.0952
  786MOL0     O 6006  -1.073   4.604   3.320 -0.1370 -0.2582 -0.3138
  786MOL0     C 6007  -1.204   4.565   3.335  0.2293 -1.4185 -0.5071
  786MOL0     C 6008  -1.245   4.435   3.361 -0.3459 -0.3044 -0.5330
  786MOL0     C 6009  -1.382   4.419   3.390  0.5101  0.4469 -0.3601
  786MOL0     C 6010  -1.477   4.519   3.418 -0.6219  0.5378 -0.6235
  786MOL0     O 6011  -1.601   4.513   3.457  0.4267  0.6674  0.0757
  786MOL0     C 6012  -1.648   4.391   3.511  0.1086  0.3636 -0.8080
  786MOL0     C 6013  -1.792   4.401   3.562 -1.5248  0.1976  0.3791
  786MOL0     C 6014  -1.896   4.400   3.455 -0.1858 -0.4501 -0.0917
  786MOL0     C 6015  -2.025   4.353   3.509 -0.9941  0.0645 -0.1436
  786MOL0     C 6016  -2.132   4.358   3.395  0.7464  1.1122 -0.2533
  786MOL0     C 6017  -2.277   4.331   3.446  0.7370 -0.4692 -0.7557
  786MOL0     C 6018  -2.336   4.464   3.497 -0.3427 -0.3198 -0.0467
  786MOL0     C 6019  -2.485   4.474   3.504 -0.1917  0.2576  0.0242
  786MOL0    Cl 6020  -2.561   4.338   3.594 -0.1601 -0.2876  0.1305
  786MOL0     C 6021  -1.430   4.643   3.403 -0.3698 -0.9909 -1.1154
  786MOL0     C 6022  -1.295   4.674   3.361 -0.1413  0.3943  0.2658
  786MOL0     O 6023  -1.090   4.541   3.097  0.7489 -0.0712  0.1666
  786MOL0     C 6024  -0.806   4.676   3.287  1.4244  0.1175  0.4656
  786MOL0     C 6025  -0.670   4.684   3.280  0.4541  0.5206 -0.4266
  786MOL0     N 6026   0.061   4.871   3.299  0.0309  1.1533 -0.0501
  786MOL0     N 6027   0.176   4.913   3.348  0.2281 -0.3731  0.5902
  786MOL0     C 6028   1.363   5.425   3.346 -0.6082 -0.2154 -0.3138
  786MOL0     C 6029   1.483   5.485   3.391 -0.4304  0.6675  0.0122
  786MOL0     C 6030   1.958   5.516   3.472  0.7224 -0.0999 -0.6395
  786MOL0     C 6031   1.936   5.656   3.446  0.6979  0.1137  0.8720
  786MOL0     C 6032   2.054   5.738   3.454  0.2016  0.3054  0.0527
  786MOL0     C 6033   2.176   5.694   3.502  0.2366  0.7252 -0.0564
  786MOL0     O 6034   2.275   5.773   3.524  0.0145 -0.4273  0.1130
  786MOL0     C 6035   2.342   5.802   3.647 -0.2975  0.0826 -0.2972
  786MOL0     C 6036   2.489   5.766   3.621  0.1811 -0.2370 -0.1605
  786MOL0     C 6037   2.584   5.796   3.745  0.5164  0.4718  0.0818
  786MOL0     C 6038   2.706   5.703   3.744  0.0511 -0.4620  0.1812
  786MOL0     C 6039   2.784   5.689   3.620  0.5565 -0.7857  0.2217
  786MOL0     C 6040   2.842   5.674   3.516 -0.1986 -0.2654  0.2730
  786MOL0     C 6041   2.203   5.557   3.517 -0.9289 -1.1390  0.4538
  786MOL0     C 6042   2.089   5.473   3.501 -0.6060 -0.7621 -0.7391
  786MOL0     H 6043   1.709   5.272   3.263  2.3157  2.7133  3.2041
  786MOL0     H 6044   1.487   5.169   3.176  0.3037  0.3296  1.4612
  786MOL0     H 6045   1.123   5.323   3.369 -1.3661 -0.7503  0.3771
  786MOL0     H 6046   1.081   5.361   3.201  1.4452  0.7094 -0.2658
  786MOL0     H 6047   1.055   5.108   3.177  3.8368  0.5978 -0.2856
  786MOL0     H 6048   1.088   5.099   3.351 -2.2421 -1.9890 -0.0267
  786MOL0     H 6049   0.891   5.227   3.416 -1.7498  1.3514 -0.6169
  786MOL0     H 6050   0.857   5.269   3.256  0.7816  0.8990  1.2967
  786MOL0     H 6051   0.813   5.046   3.179  2.2968 -1.0646  0.6922
  786MOL0     H 6052   0.838   4.989   3.352 -2.4332 -2.9057 -1.6308
  786MOL0     H 6053   0.666   5.117   3.435 -0.9491  1.0989  0.2392
  786MOL0     H 6054   0.613   5.186   3.277 -0.1283  1.6130  2.7758
  786MOL0     H 6055   0.515   5.000   3.205 -0.4828  0.1088  0.4863
  786MOL0     H 6056   0.623   4.879   3.289  0.0648 -0.3329  0.2796
  786MOL0     H 6057   0.514   4.953   3.508 -0.2532 -0.8729  0.0839
  786MOL0     H 6058   0.389   5.028   3.405  0.2679  0.4132  0.6759
  786MOL0     H 6059   0.382   4.765   3.474  1.5609 -2.4743 -1.2122
  786MOL0     H 6060   0.468   4.750   3.333  3.1370  2.6121  1.3613
  786MOL0     H 6061   0.272   4.644   3.193  0.7335  0.7971 -1.8887
  786MOL0     H 6062  -0.035   4.747   3.051 -2.4912 -0.8587  0.0622
  786MOL0     H 6063   0.045   4.602   3.095  1.6899  0.6856 -0.5240
  786MOL0     H 6064  -0.106   4.638   3.325  2.2968 -1.7970 -0.7360
  786MOL0     H 6065  -0.175   4.556   3.176 -0.9957  0.5410 -0.9135
  786MOL0     H 6066  -0.233   4.789   3.090  0.4947  2.4203  0.6157
  786MOL0     H 6067  -0.195   4.861   3.238  1.0377  1.3968 -1.5471
  786MOL0     H 6068  -0.433   4.857   3.203 -0.6575 -0.8218 -3.7106
  786MOL0     H 6069  -0.399   4.755   3.338  1.1073  2.2111  0.0488
  786MOL0     H 6070  -0.602   4.532   2.988 -0.0729  0.9496  0.6559
  786MOL0     H 6071  -0.920   4.531   2.902  0.4020  1.3563  1.1831
  786MOL0     H 6072  -0.775   4.433   2.898 -0.0144  0.8613 -0.3865
  786MOL0     H 6073  -0.909   4.378   3.003  1.4382  0.9273  1.3371
  786MOL0     H 6074  -1.180   4.349   3.351  2.0364  1.1991  1.0174
  786MOL0     H 6075  -1.417   4.317   3.402 -1.3244  1.0843  0.1332
  786MOL0     H 6076  -1.651   4.308   3.440  1.1907 -0.7237  0.3672
  786MOL0     H 6077  -1.580   4.366   3.593 -0.5157  1.3361  0.0335
  786MOL0     H 6078  -1.794   4.309   3.621  3.7413 -1.4014 -1.3434
  786MOL0     H 6079  -1.803   4.496   3.616 -1.6173  1.3163 -1.5126
  786MOL0     H 6080  -1.865   4.336   3.372  1.8248 -0.2924  0.4961
  786MOL0     H 6081  -1.923   4.501   3.424 -0.4268 -1.2917 -2.9743
  786MOL0     H 6082  -2.008   4.262   3.567 -0.8278  0.9014  1.1551
  786MOL0     H 6083  -2.048   4.431   3.582 -2.4108  0.2439 -0.7343
  786MOL0     H 6084  -2.097   4.287   3.319  1.8907  1.0030  0.3556
  786MOL0     H 6085  -2.130   4.454   3.342  1.9526  0.9424 -0.5492
  786MOL0     H 6086  -2.333   4.289   3.363 -1.4639 -0.8495  0.8159
  786MOL0     H 6087  -2.283   4.253   3.523  0.6584 -1.1641 -1.4565
  786MOL0     H 6088  -2.298   4.541   3.429  0.9562 -1.4083 -0.5992
  786MOL0     H 6089  -2.306   4.479   3.601  0.9147 -1.0687 -0.2841
  786MOL0     H 6090  -2.527   4.479   3.403  0.7882  0.9290 -0.3721
  786MOL0     H 6091  -2.515   4.568   3.550 -1.2918  1.0390 -2.1273
  786MOL0     H 6092  -1.490   4.731   3.421  0.8661 -0.1398 -1.0640
  786MOL0     H 6093  -1.271   4.778   3.340  3.0866 -0.5392 -1.4931
  786MOL0     H 6094  -0.861   4.717   3.371  0.3516 -2.7265  1.2753
  786MOL0     H 6095  -0.614   4.736   3.357 -0.1739  0.2359  0.2314
  786MOL0     H 6096   1.278   5.490   3.362 -1.2408 -1.5400  2.2261
  786MOL0     H 6097   1.479   5.582   3.440 -0.5191  0.2629  0.8102
  786MOL0     H 6098   1.839   5.692   3.411  1.2253  2.4194  1.5678
  786MOL0     H 6099   2.033   5.839   3.420 -1.4991 -1.1012 -3.7719
  786MOL0     H 6100   2.328   5.908   3.671 -0.8324 -0.2640  1.0096
  786MOL0     H 6101   2.301   5.733   3.722 -0.8380 -1.3494 -1.8405
  786MOL0     H 6102   2.523   5.830   3.538  2.7135  0.4341  1.2937
  786MOL0     H 6103   2.496   5.663   3.584  0.8012 -0.7350  1.2959
  786MOL0     H 6104   2.523   5.789   3.835 -1.8812  1.4205 -1.3663
  786MOL0     H 6105   2.620   5.898   3.733  0.7542  0.1528 -2.6394
  786MOL0     H 6106   2.679   5.600   3.770 -0.8858 -0.4069 -0.5279
  786MOL0     H 6107   2.773   5.746   3.819  0.5233  0.6267 -0.8349
  786MOL0     H 6108   2.889   5.667   3.420 -0.3426  2.1289 -0.0270
  786MOL0     H 6109   2.304   5.529   3.545 -0.8014 -0.6934  0.4374
  786MOL0     H 6110   2.094   5.370   3.535 -0.1212  0.2000  2.4349
  787MOL0     O 6111   8.455   7.201   9.629  0.5680 -0.0376 -0.2357
  787MOL0     C 6112   8.553   7.280   9.605  0.4084  0.4772 -1.2093
  787MOL0     O 6113   8.540   7.412   9.582  0.4204  0.5092  0.8122
  787MOL0     C 6114   8.415   7.471   9.562 -0.0147  0.2605 -0.1480
  787MOL0     C 6115   8.386   7.537   9.443  0.1238  0.5137 -0.8331
  787MOL0     C 6116   8.258   7.593   9.424  0.1126  0.1403  0.0533
  787MOL0     C 6117   8.161   7.584   9.525 -0.2466  0.5014  0.2346
  787MOL0     O 6118   8.036   7.641   9.513  0.3933 -0.4836  0.3089
  787MOL0     C 6119   7.918   7.565   9.552  0.9143  0.3339  0.5042
  787MOL0     C 6120   7.817   7.611   9.444  0.5451  0.6652  0.0539
  787MOL0     C 6121   7.678   7.551   9.466  0.6727 -0.2532 -0.7343
  787MOL0     C 6122   7.599   7.648   9.555 -1.4060  0.6751 -0.4800
  787MOL0     C 6123   7.452   7.614   9.559 -0.4535  0.1501  0.3387
  787MOL0     C 6124   7.369   7.647   9.437  0.5547  0.0405 -0.0951
  787MOL0     C 6125   7.320   7.795   9.452  0.4510  0.2318 -0.0259
  787MOL0     C 6126   7.245   7.847   9.332 -0.1545 -0.3894 -0.0338
  787MOL0     N 6127   7.220   7.993   9.342  0.5406 -0.3370 -0.1203
  787MOL0     C 6128   7.296   8.087   9.282 -0.2727 -0.5139  0.5799
  787MOL0     C 6129   7.214   8.200   9.284  0.4399 -0.7854 -1.0289
  787MOL0     C 6130   7.254   8.335   9.237 -0.0584 -0.1715 -0.0886
  787MOL0     C 6131   7.145   8.440   9.239  0.3302  0.0205 -0.2250
  787MOL0     C 6132   7.015   8.419   9.154  0.4600  0.1933  0.2916
  787MOL0     C 6133   6.934   8.545   9.146  0.0199  0.2886  1.1871
  787MOL0     O 6134   6.910   8.595   9.273 -0.3768 -0.6108 -0.8036
  787MOL0     C 6135   6.831   8.709   9.267 -0.4239 -0.1899  0.1557
  787MOL0     C 6136   6.690   8.699   9.288  0.2140  0.2743 -0.7807
  787MOL0     C 6137   6.611   8.812   9.306  0.1436 -0.9688  0.1900
  787MOL0     C 6138   6.457   8.798   9.337 -0.0715  0.8369 -0.0289
  787MOL0     C 6139   6.674   8.939   9.285 -0.5016  0.3069  0.6144
  787MOL0     C 6140   6.597   9.070   9.271 -0.3049  0.5014  0.1174
  787MOL0     O 6141   6.471   9.076   9.211 -0.8425 -0.1875 -0.3052
  787MOL0     C 6142   6.394   9.186   9.234  0.4424 -0.6965  0.8262
  787MOL0     C 6143   6.401   9.260   9.349  0.1086  0.0597 -0.3758
  787MOL0     C 6144   6.313   9.372   9.364 -0.5836  0.4094 -1.0066
  787MOL0     C 6145   6.217   9.403   9.270 -0.3603  0.8909 -0.6150
  787MOL0     O 6146   6.146   9.511   9.295 -0.1969  0.6035  0.5985
  787MOL0     C 6147   6.018   9.531   9.232 -0.1314 -0.1624 -0.7990
  787MOL0     C 6148   5.919   9.429   9.287  0.0411  0.5734  0.0640
  787MOL0     C 6149   5.780   9.454   9.229  0.4244  0.2897 -0.3976
  787MOL0     C 6150   5.668   9.360   9.286  0.1182  0.3513  0.0438
  787MOL0     C 6151   5.544   9.394   9.210  0.4933  0.0645  0.5979
  787MOL0     C 6152   5.421   9.299   9.250  0.1168  1.2503 -0.2492
  787MOL0     C 6153   5.279   9.353   9.209  0.1557 -0.0902 -0.3712
  787MOL0     C 6154   5.172   9.246   9.227 -0.3518 -0.1561 -0.9074
  787MOL0    Cl 6155   5.010   9.329   9.222  0.2119 -0.0561  0.1657
  787MOL0     C 6156   6.200   9.314   9.165 -0.8530  0.3592 -0.5947
  787MOL0     C 6157   6.294   9.206   9.142  1.0844 -0.0934  0.1823
  787MOL0     O 6158   6.661   9.162   9.310  0.8022 -0.3244 -0.3314
  787MOL0     C 6159   6.811   8.942   9.260  0.3248  0.2419 -0.1694
  787MOL0     C 6160   6.892   8.833   9.252 -0.2728  0.1596 -0.1654
  787MOL0     N 6161   7.087   8.169   9.344  0.7703 -0.4069 -0.1140
  787MOL0     N 6162   7.095   8.042   9.373 -0.7396  0.5654  0.1984
  787MOL0     C 6163   8.194   7.514   9.642  0.2776 -0.2279 -0.4711
  787MOL0     C 6164   8.315   7.454   9.661 -0.3699 -0.6539 -0.0928
  787MOL0     C 6165   8.687   7.215   9.594  0.6501  0.2712  0.3594
  787MOL0     C 6166   8.720   7.098   9.662  0.8587  0.5122 -0.8978
  787MOL0     C 6167   8.850   7.044   9.660 -0.2569  0.0352 -0.2909
  787MOL0     C 6168   8.951   7.104   9.580  0.0244  0.0514 -0.6394
  787MOL0     O 6169   9.063   7.035   9.575 -0.3307 -0.1021  0.4533
  787MOL0     C 6170   9.176   7.093   9.505  0.8939 -0.5390 -0.0945
  787MOL0     C 6171   9.299   7.005   9.506  0.5399  0.0841 -0.1172
  787MOL0     C 6172   9.266   6.864   9.450 -0.4094  1.1476  0.1003
  787MOL0     C 6173   9.361   6.759   9.496 -0.7514  0.9953  0.1812
  787MOL0     C 6174   9.308   6.633   9.455  0.0073  0.6721 -0.5408
  787MOL0     C 6175   9.247   6.529   9.426  0.5065  1.2119  0.0664
  787MOL0     C 6176   8.918   7.210   9.500 -0.0519 -0.4035  0.1317
  787MOL0     C 6177   8.788   7.279   9.512 -0.4985  1.1587  0.4558
  787MOL0     H 6178   8.458   7.542   9.363  2.2106  0.1773  0.9424
  787MOL0     H 6179   8.243   7.642   9.328  1.6769  2.2944  0.8110
  787MOL0     H 6180   7.933   7.457   9.546 -1.8764 -0.0517 -1.5414
  787MOL0     H 6181   7.880   7.600   9.649 -3.2569  0.7739 -1.0685
  787MOL0     H 6182   7.814   7.720   9.450 -0.9909  0.8174 -2.2328
  787MOL0     H 6183   7.843   7.585   9.341  0.2411 -0.7534  0.3150
  787MOL0     H 6184   7.612   7.539   9.379 -1.3829  2.0114  0.3619
  787MOL0     H 6185   7.680   7.458   9.523  1.0208  1.0887  1.5854
  787MOL0     H 6186   7.634   7.628   9.657  1.7950 -0.0065 -1.6036
  787MOL0     H 6187   7.610   7.752   9.523 -0.3148  0.1294 -2.0147
  787MOL0     H 6188   7.435   7.510   9.588  2.0081 -0.3250  0.2747
  787MOL0     H 6189   7.409   7.671   9.642  0.1416  2.9218 -1.1179
  787MOL0     H 6190   7.429   7.640   9.346 -0.1404  0.1325 -0.5673
  787MOL0     H 6191   7.285   7.577   9.430 -0.0142  0.3791  2.4936
  787MOL0     H 6192   7.258   7.806   9.542 -0.7378 -2.3291 -0.4438
  787MOL0     H 6193   7.409   7.857   9.468 -0.3978  1.5099 -0.0270
  787MOL0     H 6194   7.151   7.792   9.321  0.2873 -1.4799  1.3888
  787MOL0     H 6195   7.311   7.827   9.247 -0.9442  1.0596 -1.0305
  787MOL0     H 6196   7.401   8.076   9.257 -0.1616  2.0201 -0.3016
  787MOL0     H 6197   7.339   8.371   9.296  1.1360  0.2022 -1.9568
  787MOL0     H 6198   7.297   8.323   9.137  2.0182 -1.2054  0.8654
  787MOL0     H 6199   7.190   8.535   9.211 -2.8921  1.1632 -2.0627
  787MOL0     H 6200   7.108   8.455   9.341 -0.0498  0.5482 -0.4384
  787MOL0     H 6201   6.965   8.339   9.209  2.3975 -0.4056  1.2736
  787MOL0     H 6202   7.037   8.389   9.051 -3.8887  1.4786 -1.2207
  787MOL0     H 6203   6.837   8.520   9.102  0.1347 -0.0257  1.1040
  787MOL0     H 6204   6.978   8.612   9.072 -0.7585 -2.1136 -1.6665
  787MOL0     H 6205   6.642   8.601   9.292 -1.9135  1.2700 -0.0783
  787MOL0     H 6206   6.435   8.854   9.427  1.5970 -1.5845  2.0268
  787MOL0     H 6207   6.390   8.829   9.256  0.7710  0.4837 -0.8862
  787MOL0     H 6208   6.450   8.691   9.358  5.2861  0.4078  1.0472
  787MOL0     H 6209   6.474   9.240   9.427 -0.1069 -0.3262 -0.2707
  787MOL0     H 6210   6.324   9.426   9.458 -0.0148 -0.1512 -0.7419
  787MOL0     H 6211   5.986   9.626   9.276  0.8607 -0.9672  1.8990
  787MOL0     H 6212   6.028   9.534   9.123 -1.5268 -1.2318 -0.9902
  787MOL0     H 6213   5.952   9.336   9.241 -2.2664  1.5628 -4.1480
  787MOL0     H 6214   5.918   9.427   9.396 -4.2116 -0.2225  0.1781
  787MOL0     H 6215   5.783   9.430   9.123  0.6945  0.3591 -0.4077
  787MOL0     H 6216   5.758   9.560   9.239  1.4228  0.4780  0.0157
  787MOL0     H 6217   5.686   9.253   9.272  1.1394  0.6066 -0.7546
  787MOL0     H 6218   5.654   9.374   9.394  1.4781  0.6722  0.1928
  787MOL0     H 6219   5.551   9.373   9.103 -1.3181  1.1068  0.2500
  787MOL0     H 6220   5.511   9.498   9.213 -0.9357 -0.2823 -1.1470
  787MOL0     H 6221   5.426   9.203   9.199  2.7634  0.5799  1.1380
  787MOL0     H 6222   5.423   9.283   9.358 -0.7598  1.9837 -0.1119
  787MOL0     H 6223   5.282   9.391   9.106 -2.6345 -1.1839 -0.9383
  787MOL0     H 6224   5.267   9.430   9.286 -0.6489 -0.1181 -0.4683
  787MOL0     H 6225   5.189   9.198   9.324 -1.0703 -0.9274 -1.1479
  787MOL0     H 6226   5.180   9.163   9.155  1.7913  0.9426 -2.0255
  787MOL0     H 6227   6.129   9.339   9.087 -2.6226  2.3810  1.5664
  787MOL0     H 6228   6.294   9.146   9.051 -2.0255  0.8941 -0.6108
  787MOL0     H 6229   6.862   9.038   9.250  0.6858  0.3651  2.2644
  787MOL0     H 6230   6.999   8.841   9.236  0.2249 -1.2338  2.0690
  787MOL0     H 6231   8.113   7.509   9.715  0.2745  1.1485 -0.3643
  787MOL0     H 6232   8.343   7.422   9.761  0.2608  0.6445  0.1709
  787MOL0     H 6233   8.657   7.049   9.736  0.3355  3.2362  0.6287
  787MOL0     H 6234   8.867   6.951   9.713  2.7611 -0.1589 -1.4457
  787MOL0     H 6235   9.138   7.097   9.402 -0.2425 -1.6296  0.2627
  787MOL0     H 6236   9.198   7.193   9.544 -1.3680 -0.2830  0.6887
  787MOL0     H 6237   9.332   7.002   9.611  1.1456  0.6604 -0.2830
  787MOL0     H 6238   9.388   7.042   9.454  0.4866  0.1636 -0.1519
  787MOL0     H 6239   9.269   6.868   9.340  1.7807 -2.8601 -0.1644
  787MOL0     H 6240   9.165   6.834   9.481  0.1973 -0.4729  0.5875
  787MOL0     H 6241   9.368   6.763   9.605  1.9968 -1.7046  0.2255
  787MOL0     H 6242   9.460   6.790   9.460 -0.6798 -0.6490 -1.1433
  787MOL0     H 6243   9.203   6.434   9.402  0.3100  0.8995  1.5413
  787MOL0     H 6244   8.988   7.270   9.442 -1.5784 -0.5728 -1.9852
  787MOL0     H 6245   8.773   7.372   9.458 -0.4953  1.4211  0.8996
  788MOL0     O 6246   8.592   8.980   0.898  0.0209 -0.0373 -0.3865
  788MOL0     C 6247   8.573   9.102   0.900 -0.8479 -0.4167  0.9949
  788MOL0     O 6248   8.449   9.158   0.882  0.2101  0.4587  0.1857
  788MOL0     C 6249   8.336   9.075   0.872  0.0088  0.3283 -0.4296
  788MOL0     C 6250   8.238   9.132   0.802  0.0996  0.3760  0.6475
  788MOL0     C 6251   8.112   9.071   0.780 -0.0639 -0.1654  0.5120
  788MOL0     C 6252   8.083   8.941   0.826  0.8950  1.0664 -0.4692
  788MOL0     O 6253   7.971   8.868   0.796  0.3386 -0.2341 -0.0090
  788MOL0     C 6254   7.975   8.728   0.792 -0.0696  0.2802  0.3210
  788MOL0     C 6255   7.844   8.676   0.748  0.0345  0.1800  0.4996
  788MOL0     C 6256   7.824   8.686   0.595  0.2380  0.0454 -1.4238
  788MOL0     C 6257   7.702   8.614   0.540 -0.0249  0.5188 -0.3714
  788MOL0     C 6258   7.712   8.598   0.381 -0.3839 -0.5307 -1.2729
  788MOL0     C 6259   7.641   8.483   0.310 -0.4928 -0.6285  0.1411
  788MOL0     C 6260   7.497   8.467   0.354 -1.0071 -1.0942  0.8492
  788MOL0     C 6261   7.436   8.360   0.269 -0.3132  0.5186 -0.3544
  788MOL0     N 6262   7.384   8.402   0.139 -0.5546 -0.2797 -0.2850
  788MOL0     C 6263   7.252   8.417   0.103  0.0408 -1.0163 -0.9076
  788MOL0     C 6264   7.252   8.449  -0.029 -0.2493 -0.3301 -0.8777
  788MOL0     C 6265   7.135   8.491  -0.113  0.6561  0.6385  0.1905
  788MOL0     C 6266   7.142   8.634  -0.154 -0.4124 -0.6381 -0.2395
  788MOL0     C 6267   7.075   8.724  -0.051 -0.8006 -0.0605 -0.5742
  788MOL0     C 6268   6.927   8.734  -0.079 -0.9549  0.1869  0.0333
  788MOL0     O 6269   6.889   8.846   0.005 -0.3015  0.1750 -0.1301
  788MOL0     C 6270   6.762   8.893  -0.001  0.5084  0.8903  0.2423
  788MOL0     C 6271   6.676   8.872  -0.112 -0.2239  0.1425  0.4027
  788MOL0     C 6272   6.557   8.937  -0.134 -0.4045 -1.0576  0.2188
  788MOL0     C 6273   6.490   8.921  -0.265 -0.3820 -0.1424  0.2272
  788MOL0     C 6274   6.519   9.028  -0.040  0.5093 -0.3828  0.0936
  788MOL0     C 6275   6.393   9.094  -0.051 -0.3773 -0.1318 -0.0189
  788MOL0     O 6276   6.401   9.216   0.008 -0.2484  0.1723 -0.0838
  788MOL0     C 6277   6.302   9.321   0.016 -0.8074  0.9801  0.9746
  788MOL0     C 6278   6.343   9.436   0.075 -0.4794  0.0764 -0.2215
  788MOL0     C 6279   6.246   9.536   0.094  0.2358 -0.3444 -0.3871
  788MOL0     C 6280   6.122   9.526   0.049 -0.1032  0.5241 -0.8628
  788MOL0     O 6281   6.035   9.629   0.074  0.1403  0.0505 -0.0292
  788MOL0     C 6282   5.947   9.667  -0.041 -0.2112 -0.1772 -0.8377
  788MOL0     C 6283   5.888   9.809  -0.017 -0.7535  0.5993 -0.6925
  788MOL0     C 6284   5.779   9.840  -0.119  0.8873 -0.3902  0.5154
  788MOL0     C 6285   5.709   9.970  -0.074 -0.9266  0.3237 -0.8128
  788MOL0     C 6286   5.636  10.050  -0.189 -0.2630 -0.4464  0.8207
  788MOL0     C 6287   5.500  10.002  -0.241 -0.8140 -0.0629  0.2712
  788MOL0     C 6288   5.383  10.010  -0.133 -0.2170 -0.3143 -0.5008
  788MOL0     C 6289   5.329  10.147  -0.126 -0.8417  0.5121 -0.0210
  788MOL0    Cl 6290   5.270  10.212  -0.278 -0.2754 -0.4884 -0.0403
  788MOL0     C 6291   6.077   9.411  -0.005  0.2172 -0.1677  0.3831
  788MOL0     C 6292   6.161   9.300  -0.013 -0.6475 -1.0643  0.1248
  788MOL0     O 6293   6.291   9.030  -0.075  0.0636  0.4412  0.4915
  788MOL0     C 6294   6.594   9.049   0.075 -0.3741  0.4359 -0.4253
  788MOL0     C 6295   6.717   8.991   0.093 -0.4908 -0.1055 -0.0490
  788MOL0     N 6296   7.376   8.436  -0.074  0.2720 -0.1081 -0.4089
  788MOL0     N 6297   7.450   8.403   0.023 -0.0447  0.4441 -0.3910
  788MOL0     C 6298   8.188   8.883   0.904  0.3879 -1.1210 -0.5169
  788MOL0     C 6299   8.308   8.948   0.931  0.7114 -0.1905  0.1255
  788MOL0     C 6300   8.690   9.178   0.953  0.9048  0.6203  0.0691
  788MOL0     C 6301   8.668   9.306   1.015  0.3621  0.3897  0.7872
  788MOL0     C 6302   8.773   9.364   1.086 -0.6565 -0.3289 -0.2444
  788MOL0     C 6303   8.907   9.324   1.082  0.4925  0.7862  0.2742
  788MOL0     O 6304   9.011   9.397   1.142  0.0811  0.3186  0.2963
  788MOL0     C 6305   8.993   9.531   1.186 -0.0886  0.5934 -0.5041
  788MOL0     C 6306   9.114   9.583   1.254 -0.0382 -0.0279 -0.1628
  788MOL0     C 6307   9.249   9.555   1.176 -0.4487 -0.2007 -1.2613
  788MOL0     C 6308   9.365   9.652   1.210 -0.6512  0.7389  0.8000
  788MOL0     C 6309   9.432   9.596   1.325 -0.0657  0.0860  0.0400
  788MOL0     C 6310   9.485   9.556   1.425 -0.3398 -0.0997 -0.7438
  788MOL0     C 6311   8.929   9.203   1.014 -0.4180 -0.3187  0.8759
  788MOL0     C 6312   8.821   9.126   0.965 -0.3241 -0.8249 -0.2367
  788MOL0     H 6313   8.254   9.229   0.756  1.0442  0.3215  0.8489
  788MOL0     H 6314   8.030   9.123   0.732  1.0298  0.4150 -0.8113
  788MOL0     H 6315   8.040   8.707   0.706 -0.7583  0.6120 -0.2895
  788MOL0     H 6316   8.007   8.680   0.885 -0.7109  1.8949  1.4145
  788MOL0     H 6317   7.824   8.574   0.784  0.3620  0.2346  0.8403
  788MOL0     H 6318   7.772   8.742   0.798 -2.0113 -0.3055 -1.6386
  788MOL0     H 6319   7.838   8.790   0.563  3.4468 -0.1575 -0.9794
  788MOL0     H 6320   7.911   8.634   0.554  0.4617 -1.7029  1.0382
  788MOL0     H 6321   7.700   8.513   0.582 -1.8366  0.1597 -1.2145
  788MOL0     H 6322   7.605   8.659   0.565  1.2921  4.4853 -1.5747
  788MOL0     H 6323   7.672   8.692   0.342 -1.3244  0.0315  0.9282
  788MOL0     H 6324   7.817   8.583   0.352 -0.2507 -1.4699 -0.3555
  788MOL0     H 6325   7.639   8.498   0.202 -0.8907 -0.5324  0.1599
  788MOL0     H 6326   7.696   8.391   0.329 -2.1207 -1.4840  0.9332
  788MOL0     H 6327   7.483   8.438   0.458  0.7377 -0.8875  1.1717
  788MOL0     H 6328   7.441   8.561   0.345  0.7491 -0.0951 -0.2805
  788MOL0     H 6329   7.357   8.314   0.328 -2.0927  2.3538 -1.1979
  788MOL0     H 6330   7.511   8.281   0.259 -1.7419 -0.6451 -2.8203
  788MOL0     H 6331   7.157   8.416   0.154 -1.8324  3.7990 -3.5704
  788MOL0     H 6332   7.131   8.427  -0.201  1.0251  1.1307 -0.1881
  788MOL0     H 6333   7.039   8.477  -0.061  0.9445  0.5135  0.7028
  788MOL0     H 6334   7.102   8.655  -0.254  0.7271 -0.6738 -0.7118
  788MOL0     H 6335   7.247   8.661  -0.166  0.4176 -3.7213 -0.7798
  788MOL0     H 6336   7.121   8.824  -0.053 -1.6547  0.3337 -2.6338
  788MOL0     H 6337   7.093   8.680   0.048  0.9859  1.0054 -0.3678
  788MOL0     H 6338   6.868   8.644  -0.059  0.0444 -0.3080  0.8447
  788MOL0     H 6339   6.916   8.768  -0.182 -1.2959  3.4905  1.0350
  788MOL0     H 6340   6.699   8.805  -0.195 -1.1077  2.5473 -1.8965
  788MOL0     H 6341   6.474   9.023  -0.300  2.0618  0.1742 -0.1692
  788MOL0     H 6342   6.564   8.884  -0.337  0.3034  0.3460  0.6620
  788MOL0     H 6343   6.400   8.860  -0.267  0.3875 -1.3347 -2.6593
  788MOL0     H 6344   6.447   9.449   0.103 -0.1603 -0.5467 -1.0832
  788MOL0     H 6345   6.279   9.629   0.138 -1.6237  1.1722 -2.0243
  788MOL0     H 6346   6.011   9.674  -0.129  2.0736  2.1798  0.8380
  788MOL0     H 6347   5.866   9.595  -0.056 -1.3918  0.5150  1.6946
  788MOL0     H 6348   5.850   9.802   0.085  2.2354 -2.6735  0.3810
  788MOL0     H 6349   5.966   9.884  -0.029  0.9605 -0.7689  1.1629
  788MOL0     H 6350   5.702   9.765  -0.141  1.7066 -1.2154  0.4352
  788MOL0     H 6351   5.843   9.860  -0.205  0.8098  1.0086  0.7594
  788MOL0     H 6352   5.648   9.943   0.012  1.6038 -1.2901  0.6042
  788MOL0     H 6353   5.786  10.041  -0.046  0.9769 -1.7859 -0.4055
  788MOL0     H 6354   5.704  10.055  -0.275  0.6347 -2.0307  1.4065
  788MOL0     H 6355   5.619  10.153  -0.156 -2.4813  0.1332 -1.7332
  788MOL0     H 6356   5.480  10.065  -0.329 -2.6106  1.7977  1.8951
  788MOL0     H 6357   5.516   9.896  -0.261  0.0635 -0.0440  0.8618
  788MOL0     H 6358   5.412   9.980  -0.031 -2.7744  0.7770  0.6365
  788MOL0     H 6359   5.298   9.943  -0.148 -1.3014  0.3337  2.1911
  788MOL0     H 6360   5.414  10.209  -0.096  1.7363 -1.8064 -2.0405
  788MOL0     H 6361   5.247  10.158  -0.053 -0.8702 -0.3635  0.0867
  788MOL0     H 6362   5.976   9.398  -0.044  0.1210 -1.2543  0.9653
  788MOL0     H 6363   6.121   9.206  -0.050 -0.0404 -1.0416 -0.6178
  788MOL0     H 6364   6.555   9.115   0.152 -1.8008 -1.1616  0.2682
  788MOL0     H 6365   6.781   9.019   0.176  0.4043  2.0011 -1.3850
  788MOL0     H 6366   8.189   8.780   0.936 -0.0465 -1.0644 -0.3100
  788MOL0     H 6367   8.378   8.901   1.000 -0.1320 -1.5352  0.0968
  788MOL0     H 6368   8.568   9.347   1.011 -0.4540 -0.8976  4.3845
  788MOL0     H 6369   8.735   9.453   1.136 -1.8055  0.0861 -1.7870
  788MOL0     H 6370   8.974   9.594   1.099  0.0743 -1.6833 -2.2919
  788MOL0     H 6371   8.911   9.534   1.258  1.1966 -0.8460  1.1282
  788MOL0     H 6372   9.126   9.529   1.349  1.8382 -2.9454 -1.8979
  788MOL0     H 6373   9.119   9.691   1.270 -0.5995 -0.3349  2.6449
  788MOL0     H 6374   9.234   9.576   1.070  0.2814 -0.8215 -1.4980
  788MOL0     H 6375   9.279   9.450   1.186 -0.1262  0.1042  1.9680
  788MOL0     H 6376   9.337   9.753   1.240  2.0135  1.4148  1.3174
  788MOL0     H 6377   9.426   9.667   1.120 -0.9461  0.2466  0.5132
  788MOL0     H 6378   9.526   9.533   1.521 -0.5329 -0.2972 -0.7081
  788MOL0     H 6379   9.029   9.162   1.023 -0.9393 -1.3080  2.4595
  788MOL0     H 6380   8.843   9.022   0.944 -0.2318 -0.7733 -0.3926
  789MOL0     O 6381   2.251   5.784   7.739  0.1664 -0.1452  0.2276
  789MOL0     C 6382   2.256   5.686   7.825 -0.4458  0.9928  0.0284
  789MOL0     O 6383   2.192   5.563   7.812  0.4291  0.1330 -0.0660
  789MOL0     C 6384   2.109   5.547   7.711 -0.2728  0.4720 -0.3763
  789MOL0     C 6385   2.146   5.546   7.575  0.0974  0.3090  0.1093
  789MOL0     C 6386   2.048   5.540   7.484 -0.3775  0.0544  0.9066
  789MOL0     C 6387   1.912   5.510   7.506 -0.1613  0.3116 -0.3639
  789MOL0     O 6388   1.819   5.500   7.407 -0.7245 -0.2640  0.5797
  789MOL0     C 6389   1.848   5.514   7.265  0.0127 -0.1785 -0.8021
  789MOL0     C 6390   1.725   5.517   7.170  0.2612 -0.0125  0.0402
  789MOL0     C 6391   1.619   5.412   7.206 -0.4767 -0.2584 -0.3522
  789MOL0     C 6392   1.478   5.447   7.153 -0.8116  0.6900  0.2017
  789MOL0     C 6393   1.378   5.358   7.229  0.0270  0.5229  0.2457
  789MOL0     C 6394   1.386   5.222   7.172  0.8550  0.1999  0.3437
  789MOL0     C 6395   1.290   5.117   7.251  0.3249  0.1245  0.4864
  789MOL0     C 6396   1.308   4.970   7.207  0.4861  0.3567  0.9559
  789MOL0     N 6397   1.221   4.889   7.302  0.3020  0.0688 -0.0228
  789MOL0     C 6398   1.095   4.844   7.275 -0.1274  0.8937 -0.2387
  789MOL0     C 6399   1.075   4.759   7.383  0.0206 -0.1879  0.0355
  789MOL0     C 6400   0.939   4.699   7.411  0.4248  0.4505 -1.0825
  789MOL0     C 6401   0.826   4.816   7.413  0.0430  1.1408  0.7459
  789MOL0     C 6402   0.702   4.773   7.487 -0.1054 -0.0569  0.5664
  789MOL0     C 6403   0.610   4.890   7.519  0.3269  0.4709 -0.0801
  789MOL0     O 6404   0.601   4.970   7.399  0.5374 -0.1574 -0.1931
  789MOL0     C 6405   0.493   4.949   7.312 -0.1902 -1.0343  0.4296
  789MOL0     C 6406   0.470   5.044   7.215 -0.3364 -0.7112  0.2268
  789MOL0     C 6407   0.360   5.046   7.138 -0.7197  0.2425  0.4727
  789MOL0     C 6408   0.327   5.177   7.066 -0.0520 -0.1666 -0.2219
  789MOL0     C 6409   0.283   4.928   7.121 -0.3875  1.2585  0.6354
  789MOL0     C 6410   0.176   4.922   7.015 -0.5036  0.0938  1.1994
  789MOL0     O 6411   0.103   4.814   7.031 -0.4390 -0.4099 -0.6849
  789MOL0     C 6412  -0.003   4.804   6.952 -0.0178 -0.0266 -0.1129
  789MOL0     C 6413  -0.013   4.702   6.859 -0.1511  0.2301 -0.2492
  789MOL0     C 6414  -0.128   4.674   6.779  0.4408 -0.6557  0.8285
  789MOL0     C 6415  -0.239   4.751   6.803 -0.3402 -0.2075 -1.3321
  789MOL0     O 6416  -0.347   4.728   6.718  0.6296  0.3963 -0.0339
  789MOL0     C 6417  -0.466   4.815   6.715  0.7473  0.1609 -0.0654
  789MOL0     C 6418  -0.521   4.817   6.580 -0.4432 -0.4225  1.0284
  789MOL0     C 6419  -0.575   4.676   6.543  0.3067 -0.6346  0.4737
  789MOL0     C 6420  -0.581   4.663   6.389 -0.8886 -1.0255  0.6715
  789MOL0     C 6421  -0.613   4.519   6.345  0.1557 -0.4641 -0.1497
  789MOL0     C 6422  -0.495   4.435   6.315  0.2355  0.9954 -0.8576
  789MOL0     C 6423  -0.536   4.281   6.282  0.1912  0.3419 -0.2357
  789MOL0     C 6424  -0.407   4.202   6.254  0.2828  0.9553 -0.3136
  789MOL0    Cl 6425  -0.318   4.283   6.128 -0.1349  0.2657  0.4030
  789MOL0     C 6426  -0.236   4.855   6.906 -0.6474  0.6048  0.2341
  789MOL0     C 6427  -0.120   4.872   6.983 -0.0720 -0.3876  0.4503
  789MOL0     O 6428   0.180   4.995   6.913 -0.4454  0.4447  0.5494
  789MOL0     C 6429   0.317   4.820   7.198  0.2260 -0.3696 -0.0344
  789MOL0     C 6430   0.413   4.832   7.301 -0.1615  0.6765  0.1082
  789MOL0     N 6431   1.185   4.747   7.458 -0.4337  0.5463  0.3150
  789MOL0     N 6432   1.270   4.820   7.408  0.2690  0.0258 -0.1633
  789MOL0     C 6433   1.872   5.506   7.646 -0.3783  0.2364  0.2031
  789MOL0     C 6434   1.974   5.540   7.745 -0.4192  0.8603 -0.3155
  789MOL0     C 6435   2.333   5.708   7.950  0.6261  0.3976 -0.4246
  789MOL0     C 6436   2.401   5.826   7.970 -0.5675  1.2369 -0.7534
  789MOL0     C 6437   2.490   5.838   8.077 -0.8209 -0.1521  0.9393
  789MOL0     C 6438   2.512   5.739   8.174 -1.0443  0.4263 -0.0305
  789MOL0     O 6439   2.587   5.747   8.285  0.1551 -0.5149 -0.0539
  789MOL0     C 6440   2.598   5.879   8.346  0.1923 -1.1947 -0.0261
  789MOL0     C 6441   2.653   5.867   8.493 -0.4951 -0.1439 -0.0090
  789MOL0     C 6442   2.657   5.994   8.573  0.1021 -0.2841  0.0185
  789MOL0     C 6443   2.525   6.059   8.603 -0.0498  1.2601  0.2244
  789MOL0     C 6444   2.463   5.995   8.733  0.8510 -0.5124 -0.4789
  789MOL0     C 6445   2.406   5.950   8.833 -0.4342  0.5904  0.8577
  789MOL0     C 6446   2.451   5.617   8.149  0.5431 -0.2243  0.2236
  789MOL0     C 6447   2.354   5.606   8.041 -0.3081 -0.5589 -0.4773
  789MOL0     H 6448   2.246   5.562   7.537  0.8166  2.4327  2.5857
  789MOL0     H 6449   2.074   5.568   7.382 -4.0486  0.5418 -0.0394
  789MOL0     H 6450   1.909   5.604   7.252 -0.4870  0.2902  0.0084
  789MOL0     H 6451   1.904   5.424   7.237 -0.0353 -0.6242  0.4645
  789MOL0     H 6452   1.684   5.619   7.179  2.9937  0.9996  2.6839
  789MOL0     H 6453   1.765   5.511   7.069  1.3349  0.0133  0.4566
  789MOL0     H 6454   1.650   5.321   7.153 -0.3144  0.3762 -1.3706
  789MOL0     H 6455   1.610   5.397   7.314 -2.1643 -2.5219 -0.7210
  789MOL0     H 6456   1.463   5.555   7.169  0.2828  1.2509 -2.0867
  789MOL0     H 6457   1.484   5.434   7.044  1.5836 -1.0379  0.4655
  789MOL0     H 6458   1.400   5.359   7.336  0.9054  4.0812  0.1475
  789MOL0     H 6459   1.274   5.390   7.218  0.5076  2.0691 -0.0248
  789MOL0     H 6460   1.362   5.222   7.065  0.1492 -2.4034  0.4314
  789MOL0     H 6461   1.484   5.175   7.181  0.9954  0.6963  1.6421
  789MOL0     H 6462   1.313   5.123   7.358 -0.2133 -0.9332  0.6685
  789MOL0     H 6463   1.184   5.144   7.242  0.1978  0.3206  2.1667
  789MOL0     H 6464   1.411   4.938   7.221  0.3832 -0.7312 -0.4947
  789MOL0     H 6465   1.296   4.946   7.100  0.0772  0.7967  0.8984
  789MOL0     H 6466   1.028   4.886   7.201  0.2320  0.7887 -0.6296
  789MOL0     H 6467   0.905   4.616   7.348 -1.3766  0.2296  0.0964
  789MOL0     H 6468   0.949   4.658   7.512  2.0195  2.2394 -0.4718
  789MOL0     H 6469   0.810   4.826   7.305 -1.8091 -2.7654  0.4939
  789MOL0     H 6470   0.868   4.899   7.470  0.4951 -0.3228  2.6481
  789MOL0     H 6471   0.719   4.726   7.585 -1.4945 -1.7071  0.0774
  789MOL0     H 6472   0.660   4.693   7.425  1.9722 -0.4557 -0.4174
  789MOL0     H 6473   0.663   4.951   7.592  0.8051 -0.6602  0.5360
  789MOL0     H 6474   0.507   4.866   7.548  0.8654 -2.0868 -0.0924
  789MOL0     H 6475   0.526   5.137   7.214 -0.7575 -0.4353 -1.4608
  789MOL0     H 6476   0.371   5.267   7.111  0.5195  0.6758 -2.3588
  789MOL0     H 6477   0.371   5.178   6.966 -1.1062  1.2914 -0.7120
  789MOL0     H 6478   0.221   5.202   7.060  0.4382  2.4181  0.4469
  789MOL0     H 6479   0.075   4.646   6.828 -0.4089  1.0277 -2.6598
  789MOL0     H 6480  -0.130   4.613   6.690 -2.4006  1.2272 -0.5444
  789MOL0     H 6481  -0.545   4.778   6.781 -0.3410 -1.8690 -2.3537
  789MOL0     H 6482  -0.429   4.915   6.739  0.2465  0.3330 -0.0018
  789MOL0     H 6483  -0.602   4.890   6.571  0.6597  0.7212 -0.1637
  789MOL0     H 6484  -0.435   4.848   6.519 -2.2930 -1.1252 -2.1043
  789MOL0     H 6485  -0.675   4.664   6.585  0.5222 -1.1704  0.8426
  789MOL0     H 6486  -0.511   4.597   6.583  0.1193  0.7107  3.6859
  789MOL0     H 6487  -0.658   4.728   6.348 -0.2595 -0.9951 -0.5191
  789MOL0     H 6488  -0.490   4.685   6.333 -0.5432 -2.6644  0.5230
  789MOL0     H 6489  -0.677   4.521   6.256 -0.1677 -0.2929  0.0842
  789MOL0     H 6490  -0.672   4.470   6.423 -0.7035  2.1346  0.9444
  789MOL0     H 6491  -0.429   4.489   6.247 -1.8542  0.7601 -3.1840
  789MOL0     H 6492  -0.439   4.417   6.407  1.1152  1.1196 -1.3597
  789MOL0     H 6493  -0.610   4.267   6.203 -1.3746 -2.2169  1.5314
  789MOL0     H 6494  -0.585   4.244   6.373 -0.5687  1.4379 -0.1691
  789MOL0     H 6495  -0.420   4.095   6.234  0.7838  0.7450  0.4575
  789MOL0     H 6496  -0.358   4.202   6.352 -1.6629 -0.4380  0.7296
  789MOL0     H 6497  -0.302   4.940   6.917 -0.2128  0.9193  0.4478
  789MOL0     H 6498  -0.109   4.954   7.054  2.0227  0.6764 -1.0050
  789MOL0     H 6499   0.260   4.728   7.195 -0.1800 -0.1373  0.4793
  789MOL0     H 6500   0.417   4.738   7.356  1.4488 -0.0272 -1.1075
  789MOL0     H 6501   1.768   5.481   7.665 -1.2805  0.8496 -3.2208
  789MOL0     H 6502   1.954   5.550   7.852  0.5838  0.4899 -0.0848
  789MOL0     H 6503   2.385   5.911   7.905  0.1272  0.9431 -1.3226
  789MOL0     H 6504   2.545   5.930   8.091  1.3082 -1.3087  0.6102
  789MOL0     H 6505   2.660   5.947   8.287  2.2568 -0.1435  3.1065
  789MOL0     H 6506   2.494   5.913   8.342  0.1137 -1.4922 -0.7593
  789MOL0     H 6507   2.746   5.810   8.498  0.2920  1.2072  3.3733
  789MOL0     H 6508   2.586   5.806   8.554 -2.0282 -0.4659 -1.9255
  789MOL0     H 6509   2.731   6.061   8.528 -0.6698 -0.0756 -0.9859
  789MOL0     H 6510   2.684   5.974   8.677 -1.7265 -3.4321  0.0199
  789MOL0     H 6511   2.460   6.058   8.516  1.7773 -1.6109 -1.2751
  789MOL0     H 6512   2.545   6.165   8.624  0.4859  1.3792 -0.8064
  789MOL0     H 6513   2.352   5.909   8.917 -0.6083  1.9034  1.4153
  789MOL0     H 6514   2.474   5.533   8.214  1.6887  0.1844  0.3616
  789MOL0     H 6515   2.299   5.512   8.046 -1.3820  0.1052  1.4029
  790MOL0     O 6516   1.678   2.360   5.967  0.8562 -0.1575  0.6276
  790MOL0     C 6517   1.768   2.355   5.886  0.0863  0.0879 -0.2282
  790MOL0     O 6518   1.780   2.415   5.759  0.4600 -0.1310  0.1004
  790MOL0     C 6519   1.658   2.481   5.746  0.2996  0.2940 -0.0922
  790MOL0     C 6520   1.629   2.608   5.807  0.4680 -0.4552 -0.1736
  790MOL0     C 6521   1.502   2.665   5.802 -0.4930  0.2595 -0.8669
  790MOL0     C 6522   1.400   2.598   5.725 -0.6932 -0.3196  0.1254
  790MOL0     O 6523   1.278   2.665   5.720 -0.2499  0.7035 -0.1972
  790MOL0     C 6524   1.177   2.638   5.616 -0.4750  0.5830  0.4362
  790MOL0     C 6525   1.062   2.731   5.625 -0.9490  0.3333 -0.6072
  790MOL0     C 6526   0.971   2.722   5.511 -1.0516 -0.2659  0.1722
  790MOL0     C 6527   0.861   2.839   5.504  0.1609  0.3944 -0.8310
  790MOL0     C 6528   0.758   2.829   5.612 -0.6061  0.4699 -0.8598
  790MOL0     C 6529   0.650   2.724   5.591  0.3870 -0.3213 -0.8625
  790MOL0     C 6530   0.529   2.754   5.680 -0.4524 -0.3684 -0.1397
  790MOL0     C 6531   0.541   2.723   5.838 -0.7744 -0.1229 -0.1801
  790MOL0     N 6532   0.403   2.713   5.893 -0.1906  0.2662 -0.2473
  790MOL0     C 6533   0.309   2.816   5.885 -0.2785 -0.1876  0.4981
  790MOL0     C 6534   0.196   2.769   5.940  0.7694  0.3662  0.3422
  790MOL0     C 6535   0.064   2.832   5.974  0.3698  0.2183 -0.2343
  790MOL0     C 6536  -0.051   2.740   5.962 -0.0276  0.6759  0.1034
  790MOL0     C 6537  -0.191   2.791   5.991 -0.4555  0.2565 -0.0584
  790MOL0     C 6538  -0.207   2.929   5.933 -0.8084 -0.1646  0.6385
  790MOL0     O 6539  -0.341   2.976   5.962  0.3370  0.8370 -0.2585
  790MOL0     C 6540  -0.446   2.952   5.880 -0.3301 -0.1986 -0.3566
  790MOL0     C 6541  -0.571   3.010   5.912 -0.9085 -0.0064  0.3244
  790MOL0     C 6542  -0.681   3.000   5.827 -0.6822 -0.7099  0.7529
  790MOL0     C 6543  -0.816   3.050   5.885 -0.0990 -0.4002  0.5538
  790MOL0     C 6544  -0.668   2.920   5.712 -0.2048 -0.5179 -0.1895
  790MOL0     C 6545  -0.775   2.923   5.608  0.2585  0.2964  0.5094
  790MOL0     O 6546  -0.786   2.792   5.556 -0.5159  0.0818  0.8710
  790MOL0     C 6547  -0.870   2.756   5.452 -1.4418 -0.5072  0.3925
  790MOL0     C 6548  -0.836   2.778   5.319 -0.1916 -0.7479 -0.2196
  790MOL0     C 6549  -0.921   2.728   5.217 -1.3681 -0.6963 -0.2964
  790MOL0     C 6550  -1.029   2.646   5.250  0.3832  0.1424  0.6860
  790MOL0     O 6551  -1.098   2.588   5.148 -0.3525 -0.2527  0.0313
  790MOL0     C 6552  -1.230   2.642   5.148 -0.6425  0.3979  0.8905
  790MOL0     C 6553  -1.285   2.614   5.010 -0.5569  0.4876  0.2979
  790MOL0     C 6554  -1.420   2.677   4.984 -0.3359 -0.1287 -0.3053
  790MOL0     C 6555  -1.456   2.647   4.841  0.0390  0.1184 -0.4787
  790MOL0     C 6556  -1.595   2.714   4.818  0.6241 -0.7871  0.0187
  790MOL0     C 6557  -1.645   2.737   4.669  0.2225 -0.2552 -0.1433
  790MOL0     C 6558  -1.659   2.605   4.594 -0.2907 -0.8338 -0.0279
  790MOL0     C 6559  -1.536   2.588   4.508  0.4751 -0.2099 -0.3973
  790MOL0    Cl 6560  -1.534   2.425   4.437 -0.2525  0.5673 -0.1764
  790MOL0     C 6561  -1.060   2.625   5.386  0.0578  0.2673  0.6957
  790MOL0     C 6562  -0.973   2.672   5.487  0.7416  0.3311  0.6288
  790MOL0     O 6563  -0.846   3.017   5.582  0.4015 -0.1438  0.6995
  790MOL0     C 6564  -0.551   2.854   5.688 -0.5269  0.8704 -1.3124
  790MOL0     C 6565  -0.440   2.872   5.766  0.2401  0.0888 -0.4447
  790MOL0     N 6566   0.213   2.635   5.973  0.0170  0.5658 -0.4197
  790MOL0     N 6567   0.343   2.608   5.942 -0.3016  0.0099 -0.2501
  790MOL0     C 6568   1.423   2.477   5.665 -0.0061  0.0042 -0.5226
  790MOL0     C 6569   1.551   2.417   5.678 -0.4123  0.7100  0.1367
  790MOL0     C 6570   1.881   2.275   5.940 -0.1618 -0.1647  0.6824
  790MOL0     C 6571   1.875   2.179   6.038 -0.6427  0.1621 -0.7349
  790MOL0     C 6572   1.989   2.106   6.088  0.0559 -0.8898  0.5580
  790MOL0     C 6573   2.113   2.127   6.027  0.3208 -0.4850  0.2891
  790MOL0     O 6574   2.226   2.085   6.090  0.1565  0.3747 -0.1390
  790MOL0     C 6575   2.293   1.971   6.038  0.1747 -0.1051 -0.2056
  790MOL0     C 6576   2.442   1.944   6.079 -0.3264 -0.5150 -0.3922
  790MOL0     C 6577   2.524   2.069   6.068  0.0120  0.0154  0.7388
  790MOL0     C 6578   2.660   2.051   6.139  0.3322 -0.3155  0.1956
  790MOL0     C 6579   2.646   2.034   6.291  0.7511  0.2064  0.2563
  790MOL0     C 6580   2.631   1.995   6.407  0.6916  0.2792 -0.6011
  790MOL0     C 6581   2.123   2.216   5.923  0.0329  0.5067  0.3335
  790MOL0     C 6582   2.006   2.287   5.879 -0.0096 -0.4300 -0.1992
  790MOL0     H 6583   1.700   2.647   5.880  0.0021 -1.4287  0.8208
  790MOL0     H 6584   1.478   2.762   5.844 -2.6896  0.6814 -2.8644
  790MOL0     H 6585   1.223   2.663   5.519 -0.4014  0.0421  0.3299
  790MOL0     H 6586   1.138   2.536   5.611  0.6932 -0.0337  2.6770
  790MOL0     H 6587   1.008   2.703   5.716 -2.7129  1.0330 -1.3876
  790MOL0     H 6588   1.113   2.827   5.623  1.3118 -0.6129  2.7836
  790MOL0     H 6589   1.026   2.733   5.417  1.9089 -1.6550  1.6178
  790MOL0     H 6590   0.923   2.624   5.518 -0.4255 -0.4866  1.6923
  790MOL0     H 6591   0.910   2.937   5.506  0.3208  0.3113  0.1161
  790MOL0     H 6592   0.809   2.848   5.408 -0.4727 -1.0492 -0.6397
  790MOL0     H 6593   0.812   2.798   5.702  0.5089  1.6551 -1.0851
  790MOL0     H 6594   0.711   2.927   5.626 -0.0655  0.5555  0.5408
  790MOL0     H 6595   0.611   2.735   5.489 -0.2341  1.3450 -0.4718
  790MOL0     H 6596   0.697   2.626   5.605 -0.6342 -0.3863  3.5010
  790MOL0     H 6597   0.503   2.860   5.667  0.4479 -0.3656 -2.4668
  790MOL0     H 6598   0.450   2.697   5.630 -0.2860  0.6077 -1.5894
  790MOL0     H 6599   0.592   2.809   5.883 -1.2927 -1.3183  2.9731
  790MOL0     H 6600   0.598   2.630   5.855  2.5578  1.0503 -3.4973
  790MOL0     H 6601   0.326   2.916   5.846 -6.4490  1.3983  0.7955
  790MOL0     H 6602   0.076   2.890   6.066  0.5969  2.1015 -1.3824
  790MOL0     H 6603   0.051   2.906   5.894  0.8833 -0.6860 -1.1792
  790MOL0     H 6604  -0.045   2.648   6.020 -0.6047 -0.3404 -1.3961
  790MOL0     H 6605  -0.049   2.708   5.857  1.8712 -3.8535  1.2820
  790MOL0     H 6606  -0.192   2.795   6.101 -2.5516 -1.1540  0.0290
  790MOL0     H 6607  -0.269   2.724   5.954 -1.0501  1.5582 -1.2552
  790MOL0     H 6608  -0.185   2.939   5.827  0.3297 -2.3063  0.6244
  790MOL0     H 6609  -0.138   2.999   5.981  0.3631 -1.2159  0.5507
  790MOL0     H 6610  -0.583   3.067   6.004  0.2519  0.2133  0.3581
  790MOL0     H 6611  -0.793   3.083   5.987 -0.5545  0.4623  0.3832
  790MOL0     H 6612  -0.848   3.135   5.825 -0.2900 -0.5003  0.5150
  790MOL0     H 6613  -0.882   2.962   5.882  0.1240 -0.5567  0.1123
  790MOL0     H 6614  -0.750   2.838   5.288 -1.3115  1.7362  1.1708
  790MOL0     H 6615  -0.891   2.755   5.116  2.7185 -1.0835  0.6210
  790MOL0     H 6616  -1.291   2.608   5.233 -1.5047 -3.0700 -0.9145
  790MOL0     H 6617  -1.214   2.750   5.153  1.5918  0.0723  2.0485
  790MOL0     H 6618  -1.206   2.652   4.945 -0.2688  0.4175  0.6039
  790MOL0     H 6619  -1.300   2.506   4.999 -2.6163  0.7480  0.2541
  790MOL0     H 6620  -1.403   2.784   4.995  1.3962 -0.2905 -1.0530
  790MOL0     H 6621  -1.502   2.632   5.042 -0.1745 -1.5982 -1.1532
  790MOL0     H 6622  -1.378   2.680   4.772 -0.2616  0.1734 -0.7960
  790MOL0     H 6623  -1.464   2.539   4.823  3.4065 -0.4545  0.6886
  790MOL0     H 6624  -1.593   2.814   4.862 -1.3364 -0.9010  0.4140
  790MOL0     H 6625  -1.670   2.664   4.879  0.3239  0.0739  0.3733
  790MOL0     H 6626  -1.742   2.787   4.675 -1.3939 -3.1134 -0.7902
  790MOL0     H 6627  -1.572   2.801   4.618 -0.9138  1.1519 -0.0334
  790MOL0     H 6628  -1.752   2.602   4.537 -1.0530  0.3748  1.0936
  790MOL0     H 6629  -1.661   2.517   4.660 -1.4036 -0.7299  0.1085
  790MOL0     H 6630  -1.441   2.594   4.562  1.0323  0.6937 -1.4363
  790MOL0     H 6631  -1.525   2.657   4.424  1.7408  2.2215  1.6396
  790MOL0     H 6632  -1.143   2.557   5.405  1.5501 -1.9136 -0.2241
  790MOL0     H 6633  -0.977   2.652   5.593  0.1383  0.9909  0.7411
  790MOL0     H 6634  -0.553   2.794   5.598 -1.0078 -2.3358  0.6739
  790MOL0     H 6635  -0.347   2.823   5.736  1.2286  1.7906 -0.3184
  790MOL0     H 6636   1.344   2.429   5.609  0.4437 -0.6351 -0.6236
  790MOL0     H 6637   1.580   2.321   5.636 -2.0384 -1.5438  3.7174
  790MOL0     H 6638   1.776   2.156   6.074 -0.7509 -1.1789 -1.8124
  790MOL0     H 6639   1.975   2.023   6.156  1.1302 -1.3789  0.2069
  790MOL0     H 6640   2.230   1.884   6.058 -1.4478  0.7836 -1.2146
  790MOL0     H 6641   2.295   1.972   5.928 -3.0520  1.8522 -0.3936
  790MOL0     H 6642   2.481   1.873   6.006  0.9441 -2.2016  1.8048
  790MOL0     H 6643   2.439   1.901   6.179  3.4186 -1.7551 -0.6708
  790MOL0     H 6644   2.473   2.160   6.102  2.3627  1.5381  0.4193
  790MOL0     H 6645   2.544   2.069   5.960 -1.7917  0.8475  0.3544
  790MOL0     H 6646   2.732   2.130   6.118  0.0989 -0.1374  0.0731
  790MOL0     H 6647   2.694   1.956   6.097 -1.0994 -0.5610 -0.4780
  790MOL0     H 6648   2.628   1.981   6.513  1.9696  0.0150 -0.5883
  790MOL0     H 6649   2.217   2.250   5.880  1.0616 -1.1403  1.1957
  790MOL0     H 6650   2.016   2.350   5.792  0.6830 -0.4061 -0.1144
  791MOL0     O 6651   2.614   1.709  11.134  0.3438 -0.3281  0.2174
  791MOL0     C 6652   2.692   1.690  11.039 -0.3877 -0.6681 -0.1623
  791MOL0     O 6653   2.675   1.612  10.933 -0.0282 -0.4751  0.1887
  791MOL0     C 6654   2.572   1.525  10.914  0.1918  1.4800 -0.2678
  791MOL0     C 6655   2.494   1.526  10.798  0.2829 -0.0493 -1.3788
  791MOL0     C 6656   2.386   1.433  10.781  0.3153  0.0974  1.2623
  791MOL0     C 6657   2.344   1.346  10.884 -0.1713  0.0257  1.0384
  791MOL0     O 6658   2.235   1.269  10.877 -0.4448 -0.1969  0.1596
  791MOL0     C 6659   2.165   1.254  10.746 -1.0849 -0.7478  0.7624
  791MOL0     C 6660   2.052   1.150  10.760 -0.0232  0.9483 -0.3246
  791MOL0     C 6661   1.977   1.117  10.634  0.1264 -1.0805  0.8221
  791MOL0     C 6662   1.837   1.066  10.663  0.8516 -0.8432  0.1878
  791MOL0     C 6663   1.757   0.991  10.552 -0.3876 -0.6995 -0.8197
  791MOL0     C 6664   1.765   1.058  10.414  0.2822  0.1398  0.2141
  791MOL0     C 6665   1.663   0.992  10.325  0.0036  0.7219  0.4150
  791MOL0     C 6666   1.514   1.015  10.363  0.2849  0.1023 -0.1946
  791MOL0     N 6667   1.419   0.947  10.275 -0.2456  0.3005  0.2906
  791MOL0     C 6668   1.318   1.015  10.212  0.4835  0.7225 -0.3095
  791MOL0     C 6669   1.217   0.924  10.199 -0.4425 -0.1295  0.0781
  791MOL0     C 6670   1.088   0.947  10.123 -0.2527 -0.2197  0.0473
  791MOL0     C 6671   0.985   1.013  10.219 -0.0103 -0.4393  0.5809
  791MOL0     C 6672   0.843   1.016  10.151 -0.1662  0.3117 -0.8272
  791MOL0     C 6673   0.758   1.109  10.237  0.1352  0.0168  0.6168
  791MOL0     O 6674   0.699   1.031  10.347 -0.0466  0.2309 -0.0047
  791MOL0     C 6675   0.559   1.038  10.362  0.1112  0.3543 -0.9564
  791MOL0     C 6676   0.493   0.926  10.399  0.0129 -0.1082  0.0003
  791MOL0     C 6677   0.362   0.918  10.420  0.4776  0.6521 -0.5405
  791MOL0     C 6678   0.308   0.786  10.450  0.4523  0.5467  0.7627
  791MOL0     C 6679   0.285   1.038  10.409  0.8483  0.4839  0.1397
  791MOL0     C 6680   0.137   1.042  10.432 -0.1603 -0.6186  0.6760
  791MOL0     O 6681   0.084   1.173  10.438  0.5780  0.0554  0.3216
  791MOL0     C 6682  -0.049   1.194  10.414  0.0902 -0.9387 -0.1065
  791MOL0     C 6683  -0.123   1.118  10.319  0.1251 -0.4380 -1.1256
  791MOL0     C 6684  -0.262   1.128  10.326  0.1154  1.2246  0.0067
  791MOL0     C 6685  -0.329   1.211  10.407 -0.9921  0.3566 -0.0832
  791MOL0     O 6686  -0.462   1.231  10.402  0.2547  0.2029  0.3541
  791MOL0     C 6687  -0.546   1.129  10.349  0.1391  0.7307  0.2305
  791MOL0     C 6688  -0.688   1.158  10.401 -0.2821 -0.0911  0.0862
  791MOL0     C 6689  -0.799   1.065  10.338 -0.5649 -0.3283  0.2752
  791MOL0     C 6690  -0.901   1.033  10.453 -0.2919  0.3289 -0.3102
  791MOL0     C 6691  -1.017   0.953  10.403  0.0880 -0.2724  0.0816
  791MOL0     C 6692  -0.993   0.812  10.346 -0.5317  0.1571 -0.0544
  791MOL0     C 6693  -0.962   0.697  10.449 -0.1103  0.0403 -0.0861
  791MOL0     C 6694  -0.923   0.568  10.382  0.0258  0.2055  0.2480
  791MOL0    Cl 6695  -0.785   0.577  10.279 -0.1748  0.0600 -0.0920
  791MOL0     C 6696  -0.251   1.302  10.485  0.1637 -0.4131 -0.2352
  791MOL0     C 6697  -0.114   1.289  10.487  0.0371  0.3961 -0.4170
  791MOL0     O 6698   0.076   0.939  10.455 -0.0690 -0.4005 -0.0815
  791MOL0     C 6699   0.347   1.164  10.382  0.1521  0.3134 -0.4146
  791MOL0     C 6700   0.484   1.158  10.363 -0.1546 -0.0717 -0.0745
  791MOL0     N 6701   1.258   0.800  10.245  0.2206 -0.3128 -0.2324
  791MOL0     N 6702   1.371   0.820  10.300 -0.4629 -0.1618  0.7082
  791MOL0     C 6703   2.411   1.360  11.004  0.7146 -0.3434 -0.2955
  791MOL0     C 6704   2.525   1.449  11.020 -0.2117 -0.6034  0.0348
  791MOL0     C 6705   2.822   1.761  11.047 -0.0188 -0.1546 -0.8092
  791MOL0     C 6706   2.865   1.823  11.166 -1.1538 -0.2170  0.1012
  791MOL0     C 6707   2.988   1.888  11.171 -0.2905  0.6746 -0.6681
  791MOL0     C 6708   3.075   1.878  11.058  1.2476 -1.3640 -0.2209
  791MOL0     O 6709   3.207   1.923  11.052  0.8309  0.6036  0.4901
  791MOL0     C 6710   3.269   1.973  11.169 -0.2763 -0.0883  0.1433
  791MOL0     C 6711   3.343   1.862  11.243 -0.0675  0.7388 -0.1247
  791MOL0     C 6712   3.445   1.911  11.347 -0.2777 -0.1166  0.9960
  791MOL0     C 6713   3.440   1.823  11.473  0.6432 -0.0464  0.1784
  791MOL0     C 6714   3.559   1.823  11.550  0.2592  0.5567  1.1142
  791MOL0     C 6715   3.668   1.821  11.604 -0.2018  0.9853  0.2369
  791MOL0     C 6716   3.043   1.808  10.944  0.5246 -0.2697  0.8965
  791MOL0     C 6717   2.905   1.768  10.931  0.3764 -0.1204 -0.0415
  791MOL0     H 6718   2.519   1.583  10.709 -1.2625 -1.5329 -2.8545
  791MOL0     H 6719   2.330   1.439  10.688 -0.9729  2.0233  2.0898
  791MOL0     H 6720   2.114   1.344  10.709  2.7096  2.0906  1.7394
  791MOL0     H 6721   2.246   1.229  10.676  0.6796  4.3501  0.5346
  791MOL0     H 6722   2.103   1.066  10.807  0.6790  1.4527 -0.1641
  791MOL0     H 6723   1.979   1.191  10.831  1.7599  2.9863  0.4475
  791MOL0     H 6724   1.958   1.206  10.573  0.5826 -2.1010 -0.8901
  791MOL0     H 6725   2.031   1.051  10.565 -2.2664  0.7917 -3.2261
  791MOL0     H 6726   1.843   1.009  10.756  0.2826 -0.3544  0.5325
  791MOL0     H 6727   1.773   1.152  10.688  2.8015 -0.6506  5.9587
  791MOL0     H 6728   1.799   0.890  10.558  1.0158 -0.0721  2.6859
  791MOL0     H 6729   1.659   0.983  10.600 -0.5574 -0.3418 -1.1022
  791MOL0     H 6730   1.746   1.166  10.419 -0.1012  0.1271 -0.8296
  791MOL0     H 6731   1.866   1.046  10.374 -0.2658 -0.5894 -0.9824
  791MOL0     H 6732   1.673   1.007  10.217  0.5545 -1.0018  0.1920
  791MOL0     H 6733   1.672   0.885  10.348 -2.4219  0.8783  2.5622
  791MOL0     H 6734   1.501   1.124  10.365  1.9910  0.3352 -0.1730
  791MOL0     H 6735   1.499   0.977  10.465 -1.2670 -0.3454 -0.5575
  791MOL0     H 6736   1.315   1.122  10.194 -0.9606  0.8276  0.3864
  791MOL0     H 6737   1.103   0.996  10.026  0.6129 -1.8373 -0.6765
  791MOL0     H 6738   1.064   0.845  10.091 -1.1155 -0.6786  1.9942
  791MOL0     H 6739   1.023   1.108  10.259  0.1678 -0.0351 -0.4872
  791MOL0     H 6740   0.984   0.946  10.305  2.1383 -1.7641 -0.3714
  791MOL0     H 6741   0.809   0.912  10.153  1.4720 -0.2626 -1.4363
  791MOL0     H 6742   0.845   1.037  10.043  0.1563 -2.9314 -1.5427
  791MOL0     H 6743   0.681   1.145  10.168 -0.4321  0.0550  1.2560
  791MOL0     H 6744   0.819   1.188  10.282  2.6066 -2.9820  2.9957
  791MOL0     H 6745   0.550   0.834  10.388 -3.2341 -2.0740 -1.8533
  791MOL0     H 6746   0.240   0.783  10.535 -0.4264 -1.7321  0.0560
  791MOL0     H 6747   0.265   0.745  10.359  2.8638 -0.3932 -0.0296
  791MOL0     H 6748   0.386   0.710  10.464  0.3578 -0.1583 -1.9382
  791MOL0     H 6749  -0.082   1.044  10.251  1.7654 -1.0153  0.3996
  791MOL0     H 6750  -0.313   1.063  10.255  0.1342 -2.3620  2.9777
  791MOL0     H 6751  -0.533   1.132  10.241  0.4050  1.4209  0.2796
  791MOL0     H 6752  -0.505   1.034  10.384 -1.2208  0.0980  0.1626
  791MOL0     H 6753  -0.688   1.146  10.510 -0.0129 -0.0227  0.0943
  791MOL0     H 6754  -0.714   1.259  10.369 -2.8237 -0.4153  0.9190
  791MOL0     H 6755  -0.762   0.971  10.298 -0.9137  0.5016 -2.1285
  791MOL0     H 6756  -0.854   1.109  10.255  0.2995  1.2194  0.4741
  791MOL0     H 6757  -0.838   0.981  10.527 -0.3666  0.1861 -0.3471
  791MOL0     H 6758  -0.934   1.133  10.483 -1.3206  1.4714 -4.6397
  791MOL0     H 6759  -1.057   1.012  10.319  0.3248  0.4848  0.4864
  791MOL0     H 6760  -1.096   0.949  10.479  0.3418  1.8833  0.5361
  791MOL0     H 6761  -1.086   0.775  10.301  0.2605 -0.1980 -1.4339
  791MOL0     H 6762  -0.908   0.812  10.277  1.0236  0.3728  1.7853
  791MOL0     H 6763  -1.051   0.674  10.508  0.7598 -1.5940  0.6460
  791MOL0     H 6764  -0.886   0.739  10.516  1.3327 -0.2043 -1.5053
  791MOL0     H 6765  -1.003   0.530  10.317 -0.4695 -0.3021  1.1204
  791MOL0     H 6766  -0.910   0.487  10.455 -4.6766 -0.9427  0.1858
  791MOL0     H 6767  -0.301   1.361  10.561 -0.4491 -1.6873  0.3779
  791MOL0     H 6768  -0.051   1.340  10.559  1.4679 -3.1377  1.0048
  791MOL0     H 6769   0.295   1.259  10.384  1.2362  0.9283 -0.9519
  791MOL0     H 6770   0.537   1.250  10.340  0.3803 -0.2024  0.5871
  791MOL0     H 6771   2.397   1.284  11.080 -1.3872  0.0090 -0.2580
  791MOL0     H 6772   2.575   1.457  11.116 -0.7365  1.3124  0.1745
  791MOL0     H 6773   2.808   1.829  11.258  0.0573  1.9090  0.8056
  791MOL0     H 6774   3.032   1.922  11.264 -3.5293 -0.2156  1.3048
  791MOL0     H 6775   3.350   2.034  11.127  1.6309 -2.1408  0.6538
  791MOL0     H 6776   3.208   2.039  11.232 -1.1568 -0.9268  0.1873
  791MOL0     H 6777   3.398   1.799  11.172  4.3475  1.7851  2.0324
  791MOL0     H 6778   3.276   1.795  11.297  3.6436 -2.6030  0.8671
  791MOL0     H 6779   3.418   2.013  11.373  1.5268 -0.0835  3.0227
  791MOL0     H 6780   3.543   1.902  11.299 -2.2948 -1.0475 -3.3941
  791MOL0     H 6781   3.424   1.720  11.440 -0.6036 -0.1331  0.9917
  791MOL0     H 6782   3.351   1.847  11.532  0.5317  2.9768 -1.0839
  791MOL0     H 6783   3.761   1.803  11.653 -1.1169 -2.3479  0.9981
  791MOL0     H 6784   3.108   1.780  10.862 -1.5278 -2.0882 -0.2067
  791MOL0     H 6785   2.871   1.713  10.844  0.9480 -0.6569  0.0661
  792MOL0     O 6786   0.666  10.091   6.303 -0.3309 -0.2151 -0.4969
  792MOL0     C 6787   0.700   9.974   6.301 -0.2640 -0.0807 -0.9245
  792MOL0     O 6788   0.616   9.871   6.330  0.4352 -0.2017 -0.5565
  792MOL0     C 6789   0.483   9.892   6.357  0.1067 -0.4676  1.1753
  792MOL0     C 6790   0.426   9.799   6.444  0.2040 -0.6925  0.0768
  792MOL0     C 6791   0.285   9.794   6.466  0.2736 -0.5352  0.5672
  792MOL0     C 6792   0.199   9.875   6.396 -0.1452 -0.1854  0.3978
  792MOL0     O 6793   0.065   9.864   6.427 -0.7773  0.8813 -0.5680
  792MOL0     C 6794  -0.007   9.990   6.426  0.3135 -0.1282 -0.9432
  792MOL0     C 6795  -0.073   9.996   6.567 -0.2947  0.6268 -0.0485
  792MOL0     C 6796  -0.191   9.898   6.584 -0.6349  0.2632 -0.6408
  792MOL0     C 6797  -0.327   9.955   6.553  0.1333 -0.7094  0.2983
  792MOL0     C 6798  -0.432   9.850   6.580  1.1031 -0.3267  0.0822
  792MOL0     C 6799  -0.561   9.907   6.503 -0.1121  0.0785  0.5994
  792MOL0     C 6800  -0.683   9.822   6.520 -0.6610  0.5762  0.2941
  792MOL0     C 6801  -0.808   9.878   6.453 -0.4786  0.0779 -0.1139
  792MOL0     N 6802  -0.848   9.999   6.521  0.0506  0.2881  0.8587
  792MOL0     C 6803  -0.906  10.003   6.644  0.7019 -1.1660 -0.2443
  792MOL0     C 6804  -0.917  10.134   6.673  0.1265 -0.4051  0.5321
  792MOL0     C 6805  -0.973  10.186   6.799  0.6758  0.7646  0.3093
  792MOL0     C 6806  -0.946  10.339   6.825  0.0653  0.0003  0.4486
  792MOL0     C 6807  -0.968  10.379   6.966 -0.3752  0.2529 -0.1552
  792MOL0     C 6808  -1.111  10.414   7.004 -0.1227  0.4529  0.1412
  792MOL0     O 6809  -1.196  10.312   6.965  0.2986  0.2602  0.4170
  792MOL0     C 6810  -1.324  10.330   6.947 -0.2173 -0.0613  0.4656
  792MOL0     C 6811  -1.400  10.436   6.984  0.3430  0.7242  0.1084
  792MOL0     C 6812  -1.539  10.444   6.961 -0.4738 -0.5063 -0.3905
  792MOL0     C 6813  -1.612  10.565   7.025  0.1000  0.1885 -0.3342
  792MOL0     C 6814  -1.604  10.360   6.876  0.7027  0.0009 -0.7865
  792MOL0     C 6815  -1.750  10.348   6.854  0.2321  0.0822  0.4078
  792MOL0     O 6816  -1.821  10.362   6.973 -0.2344  0.2345  0.0056
  792MOL0     C 6817  -1.944  10.400   6.972  1.0304 -0.0554 -0.2879
  792MOL0     C 6818  -1.972  10.498   7.072 -0.1869  0.5016 -0.1893
  792MOL0     C 6819  -2.099  10.532   7.093  0.5742 -0.0324 -0.5824
  792MOL0     C 6820  -2.203  10.488   7.004 -0.5979  0.1547 -0.3013
  792MOL0     O 6821  -2.328  10.540   7.028 -1.2928 -0.5818  0.0724
  792MOL0     C 6822  -2.419  10.533   6.922 -1.1317  0.6772 -0.6262
  792MOL0     C 6823  -2.509  10.415   6.947 -0.5938  0.1634 -0.7993
  792MOL0     C 6824  -2.634  10.402   6.859 -0.4582 -0.5881  0.5659
  792MOL0     C 6825  -2.742  10.305   6.910  0.7202 -0.0803  0.6208
  792MOL0     C 6826  -2.858  10.275   6.815  0.4718  0.6492 -1.2511
  792MOL0     C 6827  -2.983  10.241   6.895 -0.9201 -0.3627  0.3222
  792MOL0     C 6828  -3.098  10.176   6.821 -0.1060  0.3899  0.5568
  792MOL0     C 6829  -3.216  10.124   6.913  0.1620  0.0008  0.0102
  792MOL0    Cl 6830  -3.351  10.037   6.832 -0.4646 -0.4218  0.5140
  792MOL0     C 6831  -2.179  10.385   6.910  0.0414  0.5398  1.2031
  792MOL0     C 6832  -2.048  10.352   6.882 -0.6863  0.0559 -0.5927
  792MOL0     O 6833  -1.793  10.325   6.742  0.2053  0.5223 -0.2219
  792MOL0     C 6834  -1.524  10.253   6.819 -0.0507 -0.0441  0.5238
  792MOL0     C 6835  -1.388  10.242   6.860 -0.3362  0.8675  0.2953
  792MOL0     N 6836  -0.880  10.207   6.564 -0.4387  0.4824 -0.3795
  792MOL0     N 6837  -0.827  10.123   6.469  0.9411 -0.4012 -0.5325
  792MOL0     C 6838   0.256   9.966   6.305  0.0555  0.4222  1.2284
  792MOL0     C 6839   0.396   9.979   6.289 -0.4806  0.0264 -0.3933
  792MOL0     C 6840   0.843   9.941   6.282 -0.3124 -0.4291 -1.0327
  792MOL0     C 6841   0.898   9.816   6.328 -0.3069 -0.7242 -0.4455
  792MOL0     C 6842   1.035   9.785   6.304  0.4548 -0.1857  0.1654
  792MOL0     C 6843   1.122   9.880   6.243  0.5086  0.0577  0.5259
  792MOL0     O 6844   1.253   9.858   6.226  0.7501  0.4059  0.5891
  792MOL0     C 6845   1.312   9.723   6.234  0.8199 -0.4316 -0.5640
  792MOL0     C 6846   1.456   9.741   6.222  0.2174 -0.6315  0.1935
  792MOL0     C 6847   1.516   9.861   6.302  0.3856 -0.2509  0.3025
  792MOL0     C 6848   1.661   9.831   6.314 -0.9287 -0.5392  0.1264
  792MOL0     C 6849   1.732   9.931   6.400 -0.0867 -0.1940 -0.0037
  792MOL0     C 6850   1.799  10.016   6.460  0.7799  1.0449  0.2471
  792MOL0     C 6851   1.065  10.002   6.209 -0.1867  1.0734  0.4165
  792MOL0     C 6852   0.933  10.032   6.223  0.0568  0.2297 -0.9426
  792MOL0     H 6853   0.485   9.727   6.499 -2.4908  0.0977  4.5562
  792MOL0     H 6854   0.240   9.719   6.531 -0.4762 -4.0120 -3.5197
  792MOL0     H 6855   0.048  10.084   6.412  0.1881  0.3005  1.0351
  792MOL0     H 6856  -0.089   9.987   6.354  0.2543 -3.1160 -0.8488
  792MOL0     H 6857  -0.005   9.979   6.651  1.9200  2.4056 -1.3623
  792MOL0     H 6858  -0.103  10.100   6.583  4.8965  2.3421  0.5963
  792MOL0     H 6859  -0.171   9.812   6.518 -2.3229  0.6858 -1.7525
  792MOL0     H 6860  -0.184   9.854   6.684  2.0281 -0.3796 -1.0335
  792MOL0     H 6861  -0.341  10.044   6.615 -0.5758  0.8021 -1.8947
  792MOL0     H 6862  -0.323   9.990   6.450 -0.4297 -0.0522  0.4918
  792MOL0     H 6863  -0.394   9.765   6.522  0.5011 -1.9225  1.9228
  792MOL0     H 6864  -0.437   9.833   6.688 -2.2947 -0.6527 -0.0307
  792MOL0     H 6865  -0.592  10.004   6.544 -1.4433 -0.0147 -0.1117
  792MOL0     H 6866  -0.536   9.929   6.399 -1.1222  0.2844  0.3826
  792MOL0     H 6867  -0.654   9.727   6.475  1.3508 -0.6581  3.8106
  792MOL0     H 6868  -0.710   9.803   6.624  1.8691  0.3890  0.9908
  792MOL0     H 6869  -0.891   9.809   6.475 -0.1961  0.1940  1.4203
  792MOL0     H 6870  -0.789   9.905   6.349  0.7513  1.3589  0.4150
  792MOL0     H 6871  -0.943   9.919   6.702  2.1806 -2.2889 -0.8757
  792MOL0     H 6872  -1.082  10.175   6.791  0.5635  1.4990  0.7346
  792MOL0     H 6873  -0.936  10.129   6.885 -1.2549 -0.3059  0.4857
  792MOL0     H 6874  -1.026  10.391   6.773 -0.6924 -1.1011  0.4797
  792MOL0     H 6875  -0.845  10.365   6.793 -0.2975 -0.2524 -0.9614
  792MOL0     H 6876  -0.900  10.459   6.995 -2.8920  2.0395  1.1989
  792MOL0     H 6877  -0.934  10.303   7.037 -0.1604  1.8309  1.4921
  792MOL0     H 6878  -1.140  10.510   6.959 -4.5108 -1.4414 -1.5658
  792MOL0     H 6879  -1.128  10.433   7.111 -1.4057 -0.7905  0.1866
  792MOL0     H 6880  -1.354  10.511   7.048 -1.6726  2.1314  0.0075
  792MOL0     H 6881  -1.698  10.594   6.964  0.0038  0.0548 -0.2643
  792MOL0     H 6882  -1.633  10.555   7.132 -2.3481  1.8621 -0.5759
  792MOL0     H 6883  -1.543  10.650   7.019  0.8111 -0.2355  1.1626
  792MOL0     H 6884  -1.891  10.525   7.139  1.0606  2.3795 -2.2985
  792MOL0     H 6885  -2.111  10.595   7.181 -0.9712  0.6835 -1.2872
  792MOL0     H 6886  -2.482  10.622   6.934  1.9837  2.7856  2.0076
  792MOL0     H 6887  -2.363  10.536   6.828  1.3523  1.2535  0.7789
  792MOL0     H 6888  -2.455  10.323   6.921  0.7926  0.2440  1.4647
  792MOL0     H 6889  -2.546  10.409   7.050  1.7884  0.2938  0.1380
  792MOL0     H 6890  -2.600  10.390   6.756  0.1290  2.2262  0.3589
  792MOL0     H 6891  -2.685  10.498   6.857 -2.9335 -1.8155 -0.3720
  792MOL0     H 6892  -2.695  10.208   6.927  0.3300  0.1246  3.4334
  792MOL0     H 6893  -2.784  10.343   7.003  0.7499 -0.0166  0.6076
  792MOL0     H 6894  -2.839  10.190   6.749  0.2083  2.1776 -3.4053
  792MOL0     H 6895  -2.890  10.359   6.753  1.4244  0.3117 -2.2214
  792MOL0     H 6896  -2.958  10.177   6.980  3.8077  0.9278  0.2203
  792MOL0     H 6897  -3.013  10.337   6.938 -1.0415 -0.7882  1.2157
  792MOL0     H 6898  -3.054  10.087   6.775  1.3840  0.7029  1.2953
  792MOL0     H 6899  -3.129  10.247   6.743  0.8262  0.6687  0.4191
  792MOL0     H 6900  -3.263  10.214   6.954 -2.3698  0.0803 -2.8243
  792MOL0     H 6901  -3.176  10.061   6.993 -3.8508 -0.2599  2.0720
  792MOL0     H 6902  -2.248  10.339   6.840  4.5892 -1.1597 -2.6680
  792MOL0     H 6903  -2.019  10.280   6.806 -0.2198 -3.9513  3.0784
  792MOL0     H 6904  -1.561  10.172   6.757 -0.4950  0.8597 -0.4202
  792MOL0     H 6905  -1.326  10.162   6.821 -0.1485  0.6016  1.1150
  792MOL0     H 6906   0.180  10.015   6.244  1.6143  0.1517 -1.0309
  792MOL0     H 6907   0.454  10.051   6.232  2.3642 -1.3805  0.5529
  792MOL0     H 6908   0.832   9.746   6.379 -0.0504  0.7514  2.0715
  792MOL0     H 6909   1.071   9.692   6.345  0.0068  1.5331  5.2072
  792MOL0     H 6910   1.305   9.687   6.337 -3.0416 -1.2237 -0.9578
  792MOL0     H 6911   1.275   9.650   6.162  1.2986  0.3537 -1.6265
  792MOL0     H 6912   1.488   9.774   6.122  0.5936 -0.6665  0.3004
  792MOL0     H 6913   1.504   9.646   6.247  1.3445 -0.2468 -0.4394
  792MOL0     H 6914   1.459   9.870   6.395  0.1500  0.4019  0.1009
  792MOL0     H 6915   1.494   9.950   6.242  3.1663  0.1363 -0.2779
  792MOL0     H 6916   1.712   9.829   6.217 -3.0190  0.5965 -1.0615
  792MOL0     H 6917   1.674   9.730   6.354 -2.3138  0.6313  3.9185
  792MOL0     H 6918   1.865  10.072   6.524  1.7675 -2.5843  2.6833
  792MOL0     H 6919   1.127  10.070   6.150  1.4734 -1.5786 -1.1001
  792MOL0     H 6920   0.894  10.123   6.179 -3.7314 -1.5182 -1.5727
  793MOL0     O 6921   9.556   4.016   2.761  0.2940  0.3978 -0.0321
  793MOL0     C 6922   9.491   3.916   2.797 -0.4606 -0.2663 -0.8002
  793MOL0     O 6923   9.363   3.885   2.755  0.3512 -0.7239  0.7180
  793MOL0     C 6924   9.298   3.978   2.672 -0.1570 -0.3973  0.1154
  793MOL0     C 6925   9.222   4.082   2.722  0.4226 -0.0906 -0.4247
  793MOL0     C 6926   9.137   4.161   2.638 -0.0112  0.9671  0.8728
  793MOL0     C 6927   9.140   4.143   2.497  0.7145  0.0975  0.3645
  793MOL0     O 6928   9.065   4.197   2.396  0.0412  0.3384 -0.4027
  793MOL0     C 6929   8.972   4.303   2.441 -0.0397  0.8603  0.3218
  793MOL0     C 6930   8.876   4.312   2.320 -0.1424  0.9092  0.0193
  793MOL0     C 6931   8.779   4.196   2.322 -0.3793 -0.6623 -0.5820
  793MOL0     C 6932   8.647   4.234   2.378 -0.2228  0.1878  0.3294
  793MOL0     C 6933   8.555   4.112   2.391 -0.4226 -0.2232 -1.2741
  793MOL0     C 6934   8.580   4.035   2.525  0.3264 -0.6489 -0.4769
  793MOL0     C 6935   8.554   3.886   2.499 -0.0396  0.0583  0.6128
  793MOL0     C 6936   8.551   3.812   2.628 -0.3969  0.3410  0.5016
  793MOL0     N 6937   8.683   3.798   2.699 -0.1605  1.0680  0.5055
  793MOL0     C 6938   8.806   3.770   2.641 -0.4327  0.1924 -0.4190
  793MOL0     C 6939   8.900   3.783   2.734  0.0394  0.3857  0.0918
  793MOL0     C 6940   9.049   3.773   2.698 -0.2684 -0.4371  0.2373
  793MOL0     C 6941   9.088   3.637   2.644  0.1238  0.3034 -0.0513
  793MOL0     C 6942   9.107   3.535   2.762 -0.4543  1.3736  0.6105
  793MOL0     C 6943   8.978   3.483   2.834 -0.1698 -0.8982 -0.0885
  793MOL0     O 6944   8.882   3.441   2.723 -0.2926  0.2864 -0.0534
  793MOL0     C 6945   8.754   3.420   2.748 -0.3859  1.2501 -0.3664
  793MOL0     C 6946   8.668   3.385   2.648  0.2959 -0.0782  0.1146
  793MOL0     C 6947   8.525   3.381   2.655  0.1827  0.4663  0.0965
  793MOL0     C 6948   8.451   3.379   2.527 -0.0040 -0.5035  0.5806
  793MOL0     C 6949   8.467   3.363   2.782  0.9262 -0.8452 -0.1685
  793MOL0     C 6950   8.324   3.310   2.814 -0.1682 -1.0383  0.4382
  793MOL0     O 6951   8.299   3.277   2.949 -0.1301 -0.1768  0.2403
  793MOL0     C 6952   8.175   3.253   3.009 -0.4287 -0.6234 -0.4975
  793MOL0     C 6953   8.082   3.162   2.977 -0.1852  0.3502  0.6907
  793MOL0     C 6954   7.971   3.142   3.058 -0.2508  0.4063  0.0376
  793MOL0     C 6955   7.956   3.212   3.180 -0.8112  0.3286 -0.0631
  793MOL0     O 6956   7.840   3.212   3.262 -0.6540 -0.3277  0.1140
  793MOL0     C 6957   7.776   3.086   3.264 -0.8059 -0.3362  0.4664
  793MOL0     C 6958   7.691   3.073   3.389 -0.5718 -0.3158  0.0075
  793MOL0     C 6959   7.600   2.958   3.400  0.1299  0.1368  0.7192
  793MOL0     C 6960   7.662   2.819   3.381  0.5748  0.3176  0.1748
  793MOL0     C 6961   7.573   2.710   3.430 -0.5170  0.0062 -0.8841
  793MOL0     C 6962   7.592   2.687   3.585  0.1934 -0.6565 -0.5388
  793MOL0     C 6963   7.465   2.747   3.662 -0.5494  1.4377  0.0046
  793MOL0     C 6964   7.441   2.682   3.802  0.5243 -0.1915  0.7251
  793MOL0    Cl 6965   7.309   2.755   3.897 -0.0237  0.2664 -0.5704
  793MOL0     C 6966   8.053   3.310   3.212  0.0840  1.1534 -0.2403
  793MOL0     C 6967   8.166   3.325   3.129 -0.2948 -0.0433  0.1563
  793MOL0     O 6968   8.240   3.300   2.720 -0.4873  0.9583  0.1685
  793MOL0     C 6969   8.554   3.383   2.889 -0.0640  0.0299  0.2682
  793MOL0     C 6970   8.691   3.413   2.872 -1.2155  0.4179 -0.2418
  793MOL0     N 6971   8.839   3.815   2.858  0.4992 -0.1287 -0.3749
  793MOL0     N 6972   8.707   3.816   2.827 -0.8417  1.0644 -0.2991
  793MOL0     C 6973   9.236   4.057   2.449  0.1878 -0.3404  0.3170
  793MOL0     C 6974   9.306   3.967   2.537  0.1532 -0.6047  1.0902
  793MOL0     C 6975   9.529   3.822   2.910  0.3162  0.1342  0.4591
  793MOL0     C 6976   9.450   3.721   2.965 -0.3435 -0.5159  0.2177
  793MOL0     C 6977   9.499   3.625   3.054 -0.2840  0.4846 -0.3864
  793MOL0     C 6978   9.639   3.626   3.084 -0.0082  0.0611  0.1780
  793MOL0     O 6979   9.670   3.523   3.172  0.0986 -0.4399  0.1120
  793MOL0     C 6980   9.807   3.478   3.171 -0.3437  0.1057 -0.5272
  793MOL0     C 6981   9.829   3.338   3.231  0.1771  0.1896  0.1568
  793MOL0     C 6982   9.961   3.314   3.301  0.7191 -0.1279 -0.3423
  793MOL0     C 6983  10.088   3.314   3.220 -0.5287  0.1661 -0.4209
  793MOL0     C 6984  10.191   3.247   3.299  1.2403  0.3427 -0.2207
  793MOL0     C 6985  10.264   3.179   3.361  0.2911 -0.2566  0.5159
  793MOL0     C 6986   9.725   3.722   3.036  0.2237 -0.1752 -0.2121
  793MOL0     C 6987   9.669   3.816   2.943  0.7800 -0.6236 -0.0578
  793MOL0     H 6988   9.229   4.096   2.829  1.7785 -3.6582  0.0625
  793MOL0     H 6989   9.071   4.228   2.691 -0.0846  1.8875 -0.3533
  793MOL0     H 6990   8.923   4.283   2.536 -0.8606  3.3990  0.5259
  793MOL0     H 6991   9.029   4.396   2.450  1.1979  0.4806 -2.6152
  793MOL0     H 6992   8.829   4.406   2.351  0.8783  1.5591 -0.3544
  793MOL0     H 6993   8.920   4.331   2.222 -2.0447 -1.5622 -1.4330
  793MOL0     H 6994   8.771   4.175   2.215 -0.8008  0.6253 -0.8207
  793MOL0     H 6995   8.816   4.112   2.382  0.1393  1.6530  2.5592
  793MOL0     H 6996   8.655   4.263   2.483  0.5019  1.9468 -0.1742
  793MOL0     H 6997   8.592   4.312   2.324 -2.5087 -1.0517  0.7207
  793MOL0     H 6998   8.450   4.143   2.391 -0.4721 -0.0054  2.1226
  793MOL0     H 6999   8.570   4.054   2.300 -1.3826 -1.9636 -0.3738
  793MOL0     H 7000   8.676   4.053   2.574 -1.8374  1.1877  3.5924
  793MOL0     H 7001   8.508   4.062   2.602 -3.3543 -1.1847 -3.4164
  793MOL0     H 7002   8.455   3.878   2.453 -1.3403  3.0589  2.5410
  793MOL0     H 7003   8.628   3.847   2.429  1.8349 -0.0379  2.5347
  793MOL0     H 7004   8.517   3.711   2.604  2.9803 -0.4519 -1.5432
  793MOL0     H 7005   8.483   3.854   2.703 -0.4313  2.4052 -0.6184
  793MOL0     H 7006   8.827   3.753   2.536 -3.2934  0.1848 -1.0582
  793MOL0     H 7007   9.072   3.844   2.618 -0.6721 -1.4138 -0.7782
  793MOL0     H 7008   9.105   3.798   2.788  1.7543  0.5585 -1.2334
  793MOL0     H 7009   9.180   3.654   2.588  0.5349  2.9164  1.2378
  793MOL0     H 7010   9.017   3.604   2.568  0.9432 -0.4702 -0.4997
  793MOL0     H 7011   9.180   3.571   2.835 -1.0147  2.2601  0.7608
  793MOL0     H 7012   9.156   3.448   2.718 -0.8024 -0.2324  3.2016
  793MOL0     H 7013   8.939   3.562   2.899  1.7328 -0.7148  0.9046
  793MOL0     H 7014   9.006   3.398   2.897 -0.4291 -1.9103 -1.3062
  793MOL0     H 7015   8.702   3.381   2.545  0.4737 -0.3048  0.1824
  793MOL0     H 7016   8.353   3.426   2.535  0.2880  0.3245 -0.4835
  793MOL0     H 7017   8.515   3.429   2.455  1.7136 -0.1626  2.2676
  793MOL0     H 7018   8.448   3.275   2.492 -1.0266 -0.1360 -0.4578
  793MOL0     H 7019   8.089   3.108   2.883  0.8324  0.7485  0.5181
  793MOL0     H 7020   7.900   3.062   3.037 -0.1928  0.1674  0.7280
  793MOL0     H 7021   7.710   3.087   3.176  0.9767  1.2637 -0.9299
  793MOL0     H 7022   7.846   3.004   3.247 -0.0665  0.6672 -1.7175
  793MOL0     H 7023   7.753   3.079   3.480  2.6800 -0.8451 -2.0158
  793MOL0     H 7024   7.616   3.153   3.393 -1.1561 -0.5098 -3.7087
  793MOL0     H 7025   7.529   2.970   3.317 -0.9131 -0.1104  1.5585
  793MOL0     H 7026   7.536   2.969   3.488 -0.3074 -1.0243  0.5749
  793MOL0     H 7027   7.675   2.823   3.272 -0.6279 -1.7849 -0.0979
  793MOL0     H 7028   7.755   2.819   3.439 -0.5417 -3.7442  2.3084
  793MOL0     H 7029   7.603   2.617   3.380 -1.2093 -0.1913 -0.9504
  793MOL0     H 7030   7.468   2.724   3.403 -1.4964  0.8457  2.7399
  793MOL0     H 7031   7.595   2.581   3.614 -0.4760 -0.3424  0.7771
  793MOL0     H 7032   7.684   2.732   3.623  0.6047 -1.9413  0.0771
  793MOL0     H 7033   7.378   2.725   3.599  0.3580 -0.7927 -0.5840
  793MOL0     H 7034   7.474   2.855   3.674  0.6244  1.2907  0.6123
  793MOL0     H 7035   7.535   2.709   3.850 -0.3659  2.8126  0.9563
  793MOL0     H 7036   7.417   2.575   3.793 -1.3123  0.3147 -1.2827
  793MOL0     H 7037   8.047   3.351   3.312 -1.1397  0.6431 -0.0908
  793MOL0     H 7038   8.251   3.385   3.160 -2.2648  1.1666  3.8242
  793MOL0     H 7039   8.517   3.365   2.990  0.8510  2.1391  1.0326
  793MOL0     H 7040   8.747   3.436   2.962  1.1863 -0.6588 -1.3847
  793MOL0     H 7041   9.227   4.029   2.345  0.2079  0.3467  0.1313
  793MOL0     H 7042   9.385   3.905   2.497  1.0638  0.6485  0.8632
  793MOL0     H 7043   9.346   3.714   2.935 -0.1102  1.6969 -1.3490
  793MOL0     H 7044   9.437   3.550   3.101  0.9334 -0.9938 -1.0325
  793MOL0     H 7045   9.845   3.474   3.069  1.0288  2.2895 -0.1795
  793MOL0     H 7046   9.873   3.548   3.224  0.1246  0.0466 -1.0242
  793MOL0     H 7047   9.830   3.260   3.154  1.3218 -0.0037  0.3515
  793MOL0     H 7048   9.744   3.321   3.297 -1.8028  1.5066 -1.9055
  793MOL0     H 7049   9.954   3.212   3.340 -0.8131  0.7521  1.9688
  793MOL0     H 7050   9.959   3.382   3.387 -1.1827 -1.0111  0.3767
  793MOL0     H 7051  10.112   3.417   3.193 -1.6999  0.2583 -1.1601
  793MOL0     H 7052  10.067   3.255   3.131 -2.2090 -0.9541  0.6508
  793MOL0     H 7053  10.327   3.115   3.420 -0.9899  0.4075  2.7164
  793MOL0     H 7054   9.827   3.708   3.070  0.1685 -1.5106 -0.5297
  793MOL0     H 7055   9.738   3.885   2.895  0.3928  0.1427  0.4543
  794MOL0     O 7056   8.513   9.949   5.507 -0.3743  0.1193  0.2693
  794MOL0     C 7057   8.580  10.048   5.477  0.0422  0.1718  0.7052
  794MOL0     O 7058   8.532  10.155   5.409 -0.7420 -0.3468  0.6184
  794MOL0     C 7059   8.389  10.164   5.402 -0.4411 -0.0615  0.7405
  794MOL0     C 7060   8.323  10.185   5.284  0.4476  0.0007  0.2440
  794MOL0     C 7061   8.180  10.189   5.276 -0.2661  0.1935 -0.3460
  794MOL0     C 7062   8.103  10.165   5.392 -0.0579 -0.9680 -0.6471
  794MOL0     O 7063   7.961  10.158   5.372 -0.3355  0.3516  0.6100
  794MOL0     C 7064   7.881  10.102   5.477 -0.7666 -0.2376 -0.4788
  794MOL0     C 7065   7.747  10.053   5.415  0.2250 -0.3269 -0.2772
  794MOL0     C 7066   7.649  10.154   5.356 -0.6081 -0.1389 -0.0200
  794MOL0     C 7067   7.584  10.240   5.471  0.2038 -0.4175 -0.2165
  794MOL0     C 7068   7.484  10.339   5.415 -0.1118  0.0373  0.3436
  794MOL0     C 7069   7.375  10.374   5.522  0.2261  0.6797  0.7372
  794MOL0     C 7070   7.253  10.467   5.468 -0.6405 -0.1626 -0.1884
  794MOL0     C 7071   7.298  10.599   5.397  0.6132  0.3750 -0.3418
  794MOL0     N 7072   7.185  10.690   5.381  0.2496 -0.1266  0.1947
  794MOL0     C 7073   7.119  10.699   5.259 -0.1868  1.0178  0.0393
  794MOL0     C 7074   6.988  10.733   5.293 -0.0426 -0.4487  0.1611
  794MOL0     C 7075   6.869  10.752   5.198 -2.0378 -0.8114  0.1945
  794MOL0     C 7076   6.739  10.803   5.268 -0.2483  0.5502  0.2854
  794MOL0     C 7077   6.647  10.860   5.160  0.2208 -0.1755 -0.6242
  794MOL0     C 7078   6.553  10.960   5.221 -0.0885  0.2029 -0.5778
  794MOL0     O 7079   6.447  10.985   5.137  0.6692 -0.0059  0.2580
  794MOL0     C 7080   6.321  10.933   5.162  0.2781 -0.6845  1.1208
  794MOL0     C 7081   6.279  10.879   5.285 -0.4064  0.9952  1.0330
  794MOL0     C 7082   6.149  10.810   5.294  0.4174  0.0874 -0.5924
  794MOL0     C 7083   6.107  10.764   5.429  0.2911  0.4789 -0.0358
  794MOL0     C 7084   6.070  10.808   5.182  0.3242 -0.4462 -0.2618
  794MOL0     C 7085   5.931  10.766   5.185  0.6805 -0.5312 -0.2493
  794MOL0     O 7086   5.860  10.790   5.078 -0.6679 -0.6165  0.2273
  794MOL0     C 7087   5.735  10.733   5.063  0.0840  0.4356  0.3254
  794MOL0     C 7088   5.639  10.718   5.165  0.4543  0.6384 -0.1953
  794MOL0     C 7089   5.514  10.667   5.129  0.0414  0.7150 -0.3221
  794MOL0     C 7090   5.485  10.626   4.995 -0.7959  0.4098  0.0701
  794MOL0     O 7091   5.379  10.554   4.948 -0.0790 -0.2006  0.1106
  794MOL0     C 7092   5.267  10.535   5.040 -0.2145 -0.3054  0.0551
  794MOL0     C 7093   5.141  10.534   4.947  0.5239  0.9326 -0.0485
  794MOL0     C 7094   5.020  10.576   5.029  0.5804 -0.5686 -0.4727
  794MOL0     C 7095   4.897  10.577   4.932 -0.1955 -0.0295 -1.4346
  794MOL0     C 7096   4.778  10.627   5.014 -0.2112  0.3805  1.2207
  794MOL0     C 7097   4.657  10.635   4.917 -0.4277 -0.3710  0.4210
  794MOL0     C 7098   4.523  10.661   4.988 -0.0953 -0.1611  0.0190
  794MOL0     C 7099   4.404  10.684   4.895  0.5963 -0.1712  0.1272
  794MOL0    Cl 7100   4.379  10.536   4.803  0.0080 -0.0549  0.0853
  794MOL0     C 7101   5.585  10.639   4.896  0.5461 -0.3668  0.1373
  794MOL0     C 7102   5.705  10.699   4.927  0.2432 -0.1411 -0.7977
  794MOL0     O 7103   5.892  10.697   5.279  0.1369 -0.6301  0.0577
  794MOL0     C 7104   6.114  10.868   5.059  0.5313  0.1172 -0.5961
  794MOL0     C 7105   6.237  10.930   5.052 -0.3638 -0.0762  0.2524
  794MOL0     N 7106   6.981  10.755   5.427 -0.1480  0.0878 -0.1352
  794MOL0     N 7107   7.093  10.728   5.473 -0.1723 -0.5978 -0.0727
  794MOL0     C 7108   8.172  10.145   5.511 -0.1256  0.2691  0.6778
  794MOL0     C 7109   8.312  10.149   5.521  0.3538 -0.0001  0.1794
  794MOL0     C 7110   8.724  10.033   5.478  0.3548  0.2343  0.8512
  794MOL0     C 7111   8.784   9.939   5.567  0.5930 -1.3971  0.2324
  794MOL0     C 7112   8.921   9.942   5.563 -0.6378  0.5686 -0.1427
  794MOL0     C 7113   8.998  10.011   5.469 -0.5140  0.7678 -0.6366
  794MOL0     O 7114   9.137   9.994   5.456 -0.0344 -0.0572 -0.1461
  794MOL0     C 7115   9.198  10.071   5.552  0.6876  0.2583 -0.2291
  794MOL0     C 7116   9.322  10.009   5.605 -0.0003 -0.1689  0.6432
  794MOL0     C 7117   9.420   9.972   5.502 -1.3757  0.2515 -0.2393
  794MOL0     C 7118   9.541   9.903   5.578  0.3438  0.3755 -0.8533
  794MOL0     C 7119   9.651   9.865   5.494 -0.3740 -0.0001 -0.3198
  794MOL0     C 7120   9.749   9.829   5.436  0.6249  0.4392 -0.3166
  794MOL0     C 7121   8.933  10.109   5.389  0.0210  0.1103 -0.4223
  794MOL0     C 7122   8.796  10.109   5.388  0.4771 -0.0560  0.0450
  794MOL0     H 7123   8.385  10.189   5.196 -0.8058 -0.6656 -0.6983
  794MOL0     H 7124   8.132  10.192   5.179 -0.1151 -1.3411 -0.5010
  794MOL0     H 7125   7.935  10.015   5.515  0.3478  0.4732 -0.3636
  794MOL0     H 7126   7.874  10.166   5.566  2.6254 -2.7601  1.8691
  794MOL0     H 7127   7.759   9.978   5.336 -0.9490 -0.7280 -0.0975
  794MOL0     H 7128   7.696   9.998   5.496  1.7305 -1.0245  0.2332
  794MOL0     H 7129   7.702  10.227   5.296 -0.2104  0.3518  0.9102
  794MOL0     H 7130   7.575  10.099   5.297  0.2128 -1.0803 -0.2047
  794MOL0     H 7131   7.543  10.166   5.540  0.2891  0.3831  0.7221
  794MOL0     H 7132   7.663  10.294   5.523 -0.1616  0.9629 -1.0427
  794MOL0     H 7133   7.533  10.428   5.375 -1.9049  1.1051  0.4531
  794MOL0     H 7134   7.432  10.287   5.334 -1.7033  1.1461  0.6229
  794MOL0     H 7135   7.337  10.278   5.558 -1.9794  1.6153  1.0826
  794MOL0     H 7136   7.429  10.423   5.603  2.1246 -2.3373  1.4735
  794MOL0     H 7137   7.191  10.408   5.400 -1.3743  1.0922 -0.6448
  794MOL0     H 7138   7.180  10.484   5.547 -0.4634  0.2997 -0.1199
  794MOL0     H 7139   7.329  10.565   5.298 -0.5649  2.2099 -1.3985
  794MOL0     H 7140   7.387  10.639   5.446  0.6502 -0.2744  0.1412
  794MOL0     H 7141   7.171  10.667   5.169 -1.4405 -0.7914 -0.1060
  794MOL0     H 7142   6.912  10.828   5.131 -0.3366 -1.4268  0.5448
  794MOL0     H 7143   6.854  10.661   5.140 -0.4008 -2.1017  1.6973
  794MOL0     H 7144   6.763  10.886   5.334 -2.3485  1.6210 -0.2132
  794MOL0     H 7145   6.685  10.738   5.338 -1.1220  0.8253 -0.1100
  794MOL0     H 7146   6.585  10.777   5.124  1.0141 -0.5298 -1.1829
  794MOL0     H 7147   6.691  10.916   5.077 -1.7048  1.5887 -0.5491
  794MOL0     H 7148   6.607  11.054   5.233 -0.3642  0.0444  2.5391
  794MOL0     H 7149   6.524  10.934   5.323  4.3330  1.0151  1.0985
  794MOL0     H 7150   6.337  10.881   5.376 -1.4991  0.8982  1.7548
  794MOL0     H 7151   6.009  10.795   5.468 -0.3296 -3.0886  1.6343
  794MOL0     H 7152   6.118  10.655   5.424  0.0396  0.2048  3.0345
  794MOL0     H 7153   6.177  10.805   5.504 -1.4307  3.5140  0.0666
  794MOL0     H 7154   5.654  10.752   5.267 -2.0855 -1.1041  0.9012
  794MOL0     H 7155   5.442  10.672   5.209 -0.3853  1.3339 -0.7379
  794MOL0     H 7156   5.291  10.444   5.097  1.9464  0.7685  0.9818
  794MOL0     H 7157   5.257  10.608   5.121 -0.8544  0.2896 -0.5543
  794MOL0     H 7158   5.155  10.616   4.876  1.2446  1.7427  1.0060
  794MOL0     H 7159   5.134  10.438   4.893  1.1837  0.9420 -0.1606
  794MOL0     H 7160   5.032  10.674   5.076  0.9129 -0.9120  0.1810
  794MOL0     H 7161   5.007  10.505   5.111  0.3350 -0.7390 -0.6616
  794MOL0     H 7162   4.910  10.648   4.849 -1.2965  3.7005  1.3138
  794MOL0     H 7163   4.887  10.477   4.888  0.8970 -0.2979 -1.0961
  794MOL0     H 7164   4.807  10.725   5.053  1.2027  0.0452  1.0765
  794MOL0     H 7165   4.755  10.565   5.101 -0.5100  0.0206  0.8902
  794MOL0     H 7166   4.671  10.718   4.847 -3.4649  0.1871  0.3228
  794MOL0     H 7167   4.648  10.540   4.863 -1.0553 -0.8238  1.2824
  794MOL0     H 7168   4.536  10.747   5.054 -1.9145  0.2580 -0.1242
  794MOL0     H 7169   4.506  10.567   5.042 -1.5150 -1.4548 -2.4659
  794MOL0     H 7170   4.425  10.768   4.827 -0.2887 -0.3697 -0.4075
  794MOL0     H 7171   4.312  10.706   4.949  0.6633  2.4514 -0.6680
  794MOL0     H 7172   5.570  10.608   4.794  2.6397 -2.1207  0.2863
  794MOL0     H 7173   5.785  10.712   4.856  1.6710 -0.0139  0.7588
  794MOL0     H 7174   6.058  10.858   4.967 -1.0220 -1.8472  0.4691
  794MOL0     H 7175   6.278  10.959   4.955  1.0091 -1.4385  0.3797
  794MOL0     H 7176   8.114  10.133   5.603 -1.8733 -1.1345 -0.5217
  794MOL0     H 7177   8.358  10.148   5.620 -0.9352  5.1839  1.1104
  794MOL0     H 7178   8.733   9.880   5.642  0.6757 -0.1002  1.3633
  794MOL0     H 7179   8.976   9.882   5.635 -1.3662  0.9545  0.7518
  794MOL0     H 7180   9.237  10.168   5.521 -1.3675  1.9041  1.9027
  794MOL0     H 7181   9.135  10.094   5.638  0.5780  0.2569 -0.3095
  794MOL0     H 7182   9.292   9.920   5.662 -2.0164  0.2764  0.3555
  794MOL0     H 7183   9.364  10.072   5.685  2.6980 -1.5834  0.4626
  794MOL0     H 7184   9.453  10.057   5.441  0.8751 -1.4764 -1.5912
  794MOL0     H 7185   9.372   9.897   5.439 -2.1274  0.3025  0.2585
  794MOL0     H 7186   9.511   9.806   5.619 -0.1337  1.5443  1.7017
  794MOL0     H 7187   9.569   9.963   5.665  1.1122  0.4117 -1.1089
  794MOL0     H 7188   9.838   9.813   5.378  0.2294 -1.0297 -0.5583
  794MOL0     H 7189   8.987  10.167   5.315  1.1200 -0.5253 -0.1461
  794MOL0     H 7190   8.734  10.164   5.318 -0.7492 -1.3817  0.0381
  795MOL0     O 7191   6.911   6.738   6.493  0.5196  0.0135  0.1658
  795MOL0     C 7192   6.979   6.639   6.527  0.9570  0.4956 -0.5104
  795MOL0     O 7193   6.927   6.520   6.562  0.2947 -0.1874 -0.3353
  795MOL0     C 7194   6.792   6.509   6.581  0.1966  0.3437 -0.0178
  795MOL0     C 7195   6.723   6.395   6.536 -0.2539  0.7925  0.1657
  795MOL0     C 7196   6.589   6.382   6.552 -0.2249  0.8970  0.1140
  795MOL0     C 7197   6.533   6.463   6.644  0.3200 -0.2759  0.5667
  795MOL0     O 7198   6.411   6.427   6.691 -0.4257  0.1013 -0.3625
  795MOL0     C 7199   6.296   6.506   6.659 -0.1700 -0.3508  0.8089
  795MOL0     C 7200   6.166   6.422   6.629  0.2988 -0.5548  0.0633
  795MOL0     C 7201   6.141   6.300   6.728  0.4730 -0.2175 -0.1150
  795MOL0     C 7202   6.117   6.347   6.875 -0.8961 -0.2706 -0.0709
  795MOL0     C 7203   6.105   6.226   6.963 -0.1456  0.1997 -0.0603
  795MOL0     C 7204   6.235   6.157   7.003 -0.3430 -0.5415 -0.2067
  795MOL0     C 7205   6.222   6.049   7.111 -0.0321 -0.0298 -0.3452
  795MOL0     C 7206   6.350   5.976   7.138 -0.0080  0.2060  0.6226
  795MOL0     N 7207   6.345   5.853   7.209  0.1779 -0.0551  0.0992
  795MOL0     C 7208   6.340   5.864   7.348 -0.5078 -0.4202  0.2430
  795MOL0     C 7209   6.263   5.758   7.395  0.3157 -0.0011  0.3408
  795MOL0     C 7210   6.219   5.710   7.524  0.4163 -1.0477  0.3727
  795MOL0     C 7211   6.076   5.756   7.568 -0.8667 -0.0144 -0.1276
  795MOL0     C 7212   6.093   5.876   7.658 -0.1138  0.1628  0.7870
  795MOL0     C 7213   5.961   5.951   7.663  0.2341  0.1888  0.4151
  795MOL0     O 7214   5.849   5.874   7.722 -0.6538  0.0864 -0.4027
  795MOL0     C 7215   5.733   5.933   7.748  0.2360 -0.4948 -0.0755
  795MOL0     C 7216   5.684   6.059   7.707  0.0346 -0.1447 -0.1993
  795MOL0     C 7217   5.550   6.100   7.727 -0.5017  0.5537  0.1798
  795MOL0     C 7218   5.529   6.244   7.698 -0.2575 -0.5683  1.6215
  795MOL0     C 7219   5.455   6.008   7.760  0.0627  0.2583 -0.0333
  795MOL0     C 7220   5.306   6.032   7.743  0.3798 -0.6996 -0.5049
  795MOL0     O 7221   5.214   5.948   7.802 -0.3104  0.3108 -0.7110
  795MOL0     C 7222   5.087   5.996   7.813 -0.4591 -0.2136  0.5508
  795MOL0     C 7223   5.022   6.023   7.939  0.1961 -0.1329 -0.0881
  795MOL0     C 7224   4.889   6.073   7.944  0.8577 -0.2015  0.4565
  795MOL0     C 7225   4.814   6.069   7.828 -0.5973 -0.1207  0.7399
  795MOL0     O 7226   4.683   6.111   7.827  0.1679 -0.2713 -0.2818
  795MOL0     C 7227   4.638   6.203   7.930 -0.7373  0.5544 -0.3743
  795MOL0     C 7228   4.528   6.306   7.880  0.5439  0.2279 -0.3696
  795MOL0     C 7229   4.392   6.237   7.862 -0.9859 -0.2953 -0.4243
  795MOL0     C 7230   4.277   6.335   7.854 -0.0970 -0.6095  1.1378
  795MOL0     C 7231   4.151   6.274   7.783 -0.3176  0.0012 -0.9734
  795MOL0     C 7232   4.037   6.223   7.876 -0.2945 -0.0260  0.9618
  795MOL0     C 7233   3.926   6.183   7.777  0.6295 -0.0929 -0.1559
  795MOL0     C 7234   3.808   6.095   7.833  0.6238 -0.1296  0.4691
  795MOL0    Cl 7235   3.876   5.939   7.889  0.1331  0.0191  0.1558
  795MOL0     C 7236   4.869   6.040   7.705  0.1131  0.0048 -0.4059
  795MOL0     C 7237   5.006   6.007   7.698 -1.2787  0.0658  0.4058
  795MOL0     O 7238   5.267   6.122   7.675  0.4472 -0.2686  0.2066
  795MOL0     C 7239   5.498   5.879   7.798 -0.0472 -1.0274 -0.5314
  795MOL0     C 7240   5.637   5.852   7.807 -0.3046  0.1767  0.0976
  795MOL0     N 7241   6.233   5.679   7.286 -0.3512  0.1494 -0.0842
  795MOL0     N 7242   6.276   5.742   7.174 -0.1779 -0.4756 -0.3932
  795MOL0     C 7243   6.595   6.575   6.699  0.2072 -0.2429  0.2162
  795MOL0     C 7244   6.726   6.605   6.663 -0.2902  0.5128  0.6821
  795MOL0     C 7245   7.130   6.649   6.546  0.3789  0.5362 -0.2180
  795MOL0     C 7246   7.198   6.777   6.533 -0.1947 -0.0861  0.9614
  795MOL0     C 7247   7.329   6.794   6.579  0.4138  0.1832  0.7664
  795MOL0     C 7248   7.411   6.691   6.622 -0.2042  0.5003 -0.3943
  795MOL0     O 7249   7.537   6.728   6.654  0.5391  0.0241 -0.0307
  795MOL0     C 7250   7.619   6.618   6.700 -0.2595 -0.6464 -0.7613
  795MOL0     C 7251   7.748   6.685   6.745 -1.1911 -0.0942  0.1175
  795MOL0     C 7252   7.863   6.585   6.753 -0.5902 -0.3619 -0.0048
  795MOL0     C 7253   7.982   6.644   6.838 -0.2345  0.6924 -0.0070
  795MOL0     C 7254   8.107   6.562   6.820  0.3279 -0.2425 -0.0199
  795MOL0     C 7255   8.202   6.497   6.793  0.7954  0.1800 -0.0088
  795MOL0     C 7256   7.345   6.564   6.620 -0.7836  0.1017 -0.0205
  795MOL0     C 7257   7.214   6.541   6.582  0.8078  0.3520 -1.1234
  795MOL0     H 7258   6.783   6.331   6.473  0.2544 -1.9732  3.2197
  795MOL0     H 7259   6.525   6.303   6.513 -1.7861  2.0224  0.3108
  795MOL0     H 7260   6.276   6.562   6.751 -0.2337  0.8770  0.0741
  795MOL0     H 7261   6.313   6.580   6.580  1.0924  0.9149  2.1981
  795MOL0     H 7262   6.073   6.480   6.629 -0.1485 -1.2302  1.8208
  795MOL0     H 7263   6.164   6.374   6.530 -3.1143 -0.2665 -0.1213
  795MOL0     H 7264   6.054   6.242   6.698  1.7786 -1.8609 -0.9086
  795MOL0     H 7265   6.228   6.237   6.704  1.7142  1.4279 -0.0986
  795MOL0     H 7266   6.187   6.424   6.909  1.0216 -0.5245 -3.0932
  795MOL0     H 7267   6.025   6.407   6.872  0.3348  1.6357 -1.4942
  795MOL0     H 7268   6.058   6.265   7.054 -0.2954  1.8226 -0.7993
  795MOL0     H 7269   6.038   6.158   6.911  1.3872  0.5596 -2.6645
  795MOL0     H 7270   6.287   6.125   6.913  1.3791 -1.7166  1.1485
  795MOL0     H 7271   6.294   6.242   7.039 -2.0611  1.5308 -1.9593
  795MOL0     H 7272   6.194   6.100   7.204  0.9385 -1.3831  0.7410
  795MOL0     H 7273   6.147   5.973   7.086  1.0073 -1.3589  0.4293
  795MOL0     H 7274   6.409   6.047   7.195  0.7808 -0.8789  1.1832
  795MOL0     H 7275   6.411   5.959   7.049  2.0904 -1.6746  2.3096
  795MOL0     H 7276   6.372   5.947   7.411  0.8294 -1.4717  1.0136
  795MOL0     H 7277   6.197   5.602   7.521 -1.1371 -0.7752  0.8162
  795MOL0     H 7278   6.290   5.735   7.603 -3.1361 -0.0751  3.5366
  795MOL0     H 7279   6.015   5.678   7.614 -0.7689 -1.5511 -2.4556
  795MOL0     H 7280   6.020   5.791   7.481 -0.9266  1.9364  0.6495
  795MOL0     H 7281   6.167   5.944   7.615  0.7937  0.1892  2.3358
  795MOL0     H 7282   6.134   5.846   7.755  3.2804 -2.6117 -1.2881
  795MOL0     H 7283   5.945   5.989   7.562  1.1912  0.1194  0.2203
  795MOL0     H 7284   5.978   6.032   7.735 -0.5932  0.6117  0.1471
  795MOL0     H 7285   5.763   6.125   7.672  0.6521 -0.8382 -0.1352
  795MOL0     H 7286   5.430   6.287   7.718 -1.8483 -2.2658 -1.6695
  795MOL0     H 7287   5.604   6.314   7.734 -0.3788  1.3383 -1.4368
  795MOL0     H 7288   5.525   6.258   7.590 -0.1660  1.8166  1.8794
  795MOL0     H 7289   5.084   6.021   8.029 -0.4799 -4.0429  0.4767
  795MOL0     H 7290   4.860   6.123   8.036  2.7354  0.8478  0.5217
  795MOL0     H 7291   4.612   6.137   8.013 -1.2797 -0.0612 -1.0190
  795MOL0     H 7292   4.723   6.268   7.954 -1.4279  1.7721 -1.1577
  795MOL0     H 7293   4.530   6.379   7.962  1.9491 -2.2176  1.9161
  795MOL0     H 7294   4.550   6.355   7.784 -0.5467  1.6148  0.0584
  795MOL0     H 7295   4.367   6.170   7.945  2.7647 -0.3327  0.8497
  795MOL0     H 7296   4.399   6.183   7.767 -0.4951  2.2527 -1.9307
  795MOL0     H 7297   4.266   6.390   7.948 -0.0369 -2.3709  2.2328
  795MOL0     H 7298   4.306   6.416   7.787 -1.0797  1.8300  3.4921
  795MOL0     H 7299   4.184   6.187   7.726 -3.8285 -1.3802 -1.1363
  795MOL0     H 7300   4.108   6.357   7.725  0.6724  0.0643 -1.6371
  795MOL0     H 7301   4.087   6.141   7.927 -2.9026 -1.4833  1.3308
  795MOL0     H 7302   4.010   6.298   7.951 -0.2690  0.2274  0.7211
  795MOL0     H 7303   3.966   6.138   7.685  2.0840 -0.3869  0.5925
  795MOL0     H 7304   3.876   6.278   7.756 -3.7382 -1.8964  0.9180
  795MOL0     H 7305   3.736   6.076   7.753  2.3976  0.9204 -1.4843
  795MOL0     H 7306   3.762   6.151   7.915 -0.1109  0.1853 -0.1344
  795MOL0     H 7307   4.810   6.050   7.614  1.0356  1.8089 -0.8507
  795MOL0     H 7308   5.057   5.999   7.603  1.3657  2.3499  1.4912
  795MOL0     H 7309   5.421   5.805   7.821 -1.9088  0.6083 -1.2175
  795MOL0     H 7310   5.675   5.755   7.835 -3.5182 -0.4511  2.8916
  795MOL0     H 7311   6.535   6.639   6.762  0.4417  0.9091 -0.7006
  795MOL0     H 7312   6.763   6.698   6.705 -0.8637  0.8320  0.4810
  795MOL0     H 7313   7.136   6.859   6.496  2.6865  0.6191 -3.0052
  795MOL0     H 7314   7.365   6.896   6.573  2.5991 -0.6170 -0.7575
  795MOL0     H 7315   7.579   6.577   6.793 -3.6019  3.8993  0.1214
  795MOL0     H 7316   7.645   6.545   6.624  0.6083 -0.5112 -0.6076
  795MOL0     H 7317   7.728   6.728   6.843 -1.2120 -1.1926  0.6067
  795MOL0     H 7318   7.762   6.762   6.669 -1.2186  0.1767  0.3848
  795MOL0     H 7319   7.906   6.567   6.654  1.0622 -4.6318  1.2621
  795MOL0     H 7320   7.838   6.487   6.796 -0.9533  1.2830  3.9550
  795MOL0     H 7321   7.959   6.672   6.941  0.8754  3.2303 -0.3778
  795MOL0     H 7322   8.005   6.737   6.786 -4.1625  2.6881  1.4857
  795MOL0     H 7323   8.269   6.423   6.755 -1.4256 -1.0806 -1.6724
  795MOL0     H 7324   7.408   6.479   6.644  0.9568  1.7338  1.4729
  795MOL0     H 7325   7.181   6.438   6.585  5.3495 -1.3100 -0.1064
  796MOL0     O 7326   7.387   3.885   7.975  0.1695  1.1109 -0.1380
  796MOL0     C 7327   7.419   3.952   7.877 -0.2751 -0.3487  0.6265
  796MOL0     O 7328   7.337   3.995   7.776  0.1075 -0.1004 -0.2130
  796MOL0     C 7329   7.195   3.992   7.792 -1.1733  0.0167 -0.1605
  796MOL0     C 7330   7.101   3.892   7.751 -0.4319  0.5536 -0.4407
  796MOL0     C 7331   6.971   3.915   7.764  0.0002  0.3245  0.8712
  796MOL0     C 7332   6.925   4.029   7.824  0.3431 -0.6896  0.2916
  796MOL0     O 7333   6.796   4.058   7.835 -0.0163 -0.1197  0.2380
  796MOL0     C 7334   6.705   3.944   7.865 -0.4191 -0.0685 -0.0653
  796MOL0     C 7335   6.564   3.997   7.877  0.0534  1.4543 -0.3565
  796MOL0     C 7336   6.463   3.882   7.858 -0.6190  0.8535  0.7390
  796MOL0     C 7337   6.316   3.933   7.888  0.7583  0.9286 -0.8870
  796MOL0     C 7338   6.203   3.823   7.862  1.2514 -0.0032 -0.7468
  796MOL0     C 7339   6.213   3.748   7.723 -0.4727  0.3028  0.0649
  796MOL0     C 7340   6.086   3.679   7.684  1.1578  0.9350  0.1548
  796MOL0     C 7341   5.984   3.784   7.636  0.2456 -0.4727 -0.3613
  796MOL0     N 7342   5.848   3.741   7.645  0.5839 -0.0656  0.2979
  796MOL0     C 7343   5.794   3.610   7.622 -0.1847  0.4075 -0.8718
  796MOL0     C 7344   5.663   3.628   7.633 -0.4635 -0.0419 -0.3108
  796MOL0     C 7345   5.555   3.527   7.621 -0.2120  0.7300  0.0416
  796MOL0     C 7346   5.484   3.499   7.751 -0.0438 -0.8591  0.4253
  796MOL0     C 7347   5.366   3.409   7.742  0.6247 -0.7123 -0.0797
  796MOL0     C 7348   5.282   3.416   7.872 -0.0162  0.2023  0.7397
  796MOL0     O 7349   5.155   3.330   7.849  0.0514 -0.2393  0.2492
  796MOL0     C 7350   5.058   3.315   7.946 -0.9310 -0.4038  0.3619
  796MOL0     C 7351   5.081   3.333   8.083  0.0880 -0.3778 -0.9547
  796MOL0     C 7352   4.974   3.322   8.178  0.3110 -0.3320 -0.4154
  796MOL0     C 7353   5.001   3.336   8.332  0.2324 -0.0527  0.6618
  796MOL0     C 7354   4.838   3.293   8.131 -0.7082  0.1269  0.2697
  796MOL0     C 7355   4.725   3.285   8.218  0.1409 -0.2976  0.3297
  796MOL0     O 7356   4.641   3.186   8.184  0.3731 -0.6859  0.0775
  796MOL0     C 7357   4.542   3.142   8.264 -0.2248 -0.3314 -0.9448
  796MOL0     C 7358   4.449   3.059   8.206  0.0275  0.8279  0.5128
  796MOL0     C 7359   4.343   3.013   8.284  0.2792 -0.4657 -0.4972
  796MOL0     C 7360   4.325   3.048   8.425 -0.0577  0.0222 -0.1466
  796MOL0     O 7361   4.235   2.992   8.515 -0.1476  0.5256  0.4669
  796MOL0     C 7362   4.112   2.940   8.454  0.1974  0.1460  0.1217
  796MOL0     C 7363   4.030   2.919   8.570  0.5972 -0.3990 -0.5088
  796MOL0     C 7364   3.885   2.924   8.529  0.5611 -0.4100 -0.1682
  796MOL0     C 7365   3.810   2.846   8.644  0.4294  0.4551 -0.2973
  796MOL0     C 7366   3.658   2.833   8.628  0.3412  0.1774 -0.5116
  796MOL0     C 7367   3.598   2.762   8.747  0.0918  0.1764 -0.0751
  796MOL0     C 7368   3.447   2.752   8.735 -0.4715 -0.4244 -0.8605
  796MOL0     C 7369   3.375   2.707   8.865  0.0391 -0.0279  0.3029
  796MOL0    Cl 7370   3.452   2.556   8.926 -0.3925 -0.1571  0.3137
  796MOL0     C 7371   4.423   3.136   8.477  1.2212 -0.5108 -0.8107
  796MOL0     C 7372   4.525   3.175   8.400 -0.4385  0.3026 -0.3052
  796MOL0     O 7373   4.718   3.360   8.308  0.2767 -0.3000 -0.1795
  796MOL0     C 7374   4.823   3.262   8.003  0.7724 -0.9350  0.6566
  796MOL0     C 7375   4.930   3.272   7.912 -0.1884  0.2969  0.2754
  796MOL0     N 7376   5.644   3.762   7.674  0.8697 -0.0023 -0.0111
  796MOL0     N 7377   5.751   3.828   7.684  0.3580 -0.2354  0.0931
  796MOL0     C 7378   7.019   4.135   7.862  0.9449 -0.3237  0.6327
  796MOL0     C 7379   7.152   4.113   7.848  0.0080  0.3396  0.8924
  796MOL0     C 7380   7.565   3.979   7.856 -0.8232  0.0220 -0.1349
  796MOL0     C 7381   7.665   3.955   7.950 -0.5337  0.5729 -0.7686
  796MOL0     C 7382   7.795   3.987   7.924  0.5485 -0.6752  0.4282
  796MOL0     C 7383   7.836   4.037   7.797 -0.8254  0.8720 -0.6298
  796MOL0     O 7384   7.964   4.069   7.759 -0.6430 -0.3037 -0.4341
  796MOL0     C 7385   8.079   4.014   7.827 -0.1855  0.5259 -0.0125
  796MOL0     C 7386   8.190   4.115   7.840  0.0505 -0.2231  0.7189
  796MOL0     C 7387   8.254   4.131   7.703 -0.5130 -0.4511  0.0383
  796MOL0     C 7388   8.399   4.177   7.699 -0.8810  0.2009 -0.1877
  796MOL0     C 7389   8.489   4.066   7.741 -0.9344 -1.2286  0.9187
  796MOL0     C 7390   8.578   3.987   7.753  0.6516 -0.6597  0.2402
  796MOL0     C 7391   7.738   4.063   7.702  0.8478  0.0457 -0.1382
  796MOL0     C 7392   7.607   4.033   7.733 -0.4523 -0.0768  0.4801
  796MOL0     H 7393   7.128   3.791   7.723 -4.6763 -0.5688 -1.1382
  796MOL0     H 7394   6.916   3.841   7.707  3.5243 -1.9591  0.0975
  796MOL0     H 7395   6.714   3.876   7.780  0.9514 -0.3797  0.3189
  796MOL0     H 7396   6.737   3.896   7.957 -0.4287 -1.1280 -0.6016
  796MOL0     H 7397   6.558   4.047   7.974  2.0294  1.0245  0.0338
  796MOL0     H 7398   6.542   4.080   7.808 -1.7582  0.0704 -1.5317
  796MOL0     H 7399   6.476   3.851   7.754 -1.1089 -0.1571  0.9587
  796MOL0     H 7400   6.478   3.801   7.930  0.0021  0.3380  0.0443
  796MOL0     H 7401   6.301   3.964   7.992  1.0349 -0.7526 -0.3240
  796MOL0     H 7402   6.290   4.024   7.832  0.2631  2.7032  2.0128
  796MOL0     H 7403   6.200   3.751   7.944  3.2290 -0.0191 -0.6281
  796MOL0     H 7404   6.107   3.876   7.861  1.6712  0.7729 -0.7148
  796MOL0     H 7405   6.246   3.817   7.645  0.6043  0.4265  0.6139
  796MOL0     H 7406   6.288   3.669   7.729 -1.9186 -1.1662 -0.2042
  796MOL0     H 7407   6.089   3.595   7.614  0.2980  1.0955 -0.0802
  796MOL0     H 7408   6.053   3.628   7.775 -0.7613 -0.9244 -1.4824
  796MOL0     H 7409   6.014   3.808   7.533 -1.2860 -0.0573 -0.7373
  796MOL0     H 7410   5.996   3.873   7.698  0.9429 -0.0914 -1.0251
  796MOL0     H 7411   5.851   3.524   7.590  0.7943  0.0581  1.5563
  796MOL0     H 7412   5.476   3.560   7.552 -0.7903  1.1614  0.8816
  796MOL0     H 7413   5.588   3.433   7.577 -0.9608  1.2465 -1.7243
  796MOL0     H 7414   5.465   3.604   7.776  1.4179 -0.6205  0.6142
  796MOL0     H 7415   5.553   3.465   7.829 -0.7366 -2.6592  0.2969
  796MOL0     H 7416   5.396   3.307   7.715 -1.5421 -1.3025 -0.4321
  796MOL0     H 7417   5.309   3.441   7.654  2.1434 -1.5810 -1.4412
  796MOL0     H 7418   5.253   3.521   7.880  1.2177  0.6253 -0.1222
  796MOL0     H 7419   5.328   3.392   7.968  0.4003 -2.2858 -0.0150
  796MOL0     H 7420   5.177   3.357   8.128  1.0892  1.3972 -3.7091
  796MOL0     H 7421   4.965   3.430   8.374 -0.2481  0.0533  0.0323
  796MOL0     H 7422   4.969   3.250   8.392  1.2328 -0.5228  0.5360
  796MOL0     H 7423   5.109   3.336   8.346  0.5264 -0.8377 -1.2912
  796MOL0     H 7424   4.468   3.020   8.107 -2.3455 -0.1764  0.3970
  796MOL0     H 7425   4.274   2.945   8.234 -2.2511  2.4254 -1.2048
  796MOL0     H 7426   4.059   3.019   8.401 -2.3701 -0.5525  1.4996
  796MOL0     H 7427   4.122   2.849   8.394 -2.2442 -0.3769  0.4218
  796MOL0     H 7428   4.050   2.826   8.625 -1.9485 -1.1106 -0.6680
  796MOL0     H 7429   4.051   3.002   8.639 -1.8360  0.0910 -0.2934
  796MOL0     H 7430   3.866   2.865   8.439  1.4442  1.4140 -1.6352
  796MOL0     H 7431   3.849   3.027   8.517  2.0064 -0.1952 -4.0285
  796MOL0     H 7432   3.851   2.745   8.652 -1.3349 -0.2036  1.3518
  796MOL0     H 7433   3.834   2.889   8.742 -2.0977  1.5764 -0.0896
  796MOL0     H 7434   3.625   2.776   8.541 -0.7335 -3.1430  1.8391
  796MOL0     H 7435   3.610   2.931   8.618 -0.0124 -0.1447 -2.2439
  796MOL0     H 7436   3.644   2.663   8.758  2.2075  1.0541 -0.6626
  796MOL0     H 7437   3.624   2.816   8.838 -0.9016  0.9233 -0.2248
  796MOL0     H 7438   3.430   2.683   8.652  2.7067  0.6901 -2.5935
  796MOL0     H 7439   3.410   2.850   8.704  0.8119  0.9027  1.5264
  796MOL0     H 7440   3.269   2.690   8.843 -0.7021 -0.9613  3.8764
  796MOL0     H 7441   3.373   2.770   8.954 -0.3132 -0.2929  0.4849
  796MOL0     H 7442   4.429   3.162   8.582 -1.3081 -0.1722 -0.7055
  796MOL0     H 7443   4.597   3.235   8.454 -0.1684  1.5718 -1.9892
  796MOL0     H 7444   4.722   3.244   7.968  0.1350  4.0832 -0.9754
  796MOL0     H 7445   4.907   3.239   7.811 -1.6479 -0.0527  0.6885
  796MOL0     H 7446   6.992   4.236   7.890 -1.0236 -1.4630  3.3152
  796MOL0     H 7447   7.230   4.185   7.870 -0.3588  1.5298 -1.3978
  796MOL0     H 7448   7.634   3.924   8.049 -1.9267  0.7500 -1.1317
  796MOL0     H 7449   7.871   3.982   8.002  1.9591 -1.3726 -0.9303
  796MOL0     H 7450   8.057   3.981   7.929  1.7952  2.1741  1.0084
  796MOL0     H 7451   8.112   3.920   7.781  1.7935  1.1426  0.0604
  796MOL0     H 7452   8.265   4.076   7.909  0.9507  0.6528  0.2576
  796MOL0     H 7453   8.157   4.214   7.870 -1.1833 -0.9211  1.7735
  796MOL0     H 7454   8.195   4.200   7.641 -1.7554 -1.1414  0.4253
  796MOL0     H 7455   8.260   4.036   7.649  2.1113 -0.7478  0.6881
  796MOL0     H 7456   8.421   4.264   7.762  0.6011  0.4724 -1.0306
  796MOL0     H 7457   8.416   4.194   7.593 -1.7824 -2.9518 -0.9489
  796MOL0     H 7458   8.660   3.920   7.742  0.4556 -0.7807 -0.5407
  796MOL0     H 7459   7.762   4.106   7.605 -1.6622 -0.0718 -0.9034
  796MOL0     H 7460   7.527   4.046   7.660 -0.5019 -1.5587  0.2546
  797MOL0     O 7461   1.456  10.690   9.513 -0.3010 -0.5583  0.8633
  797MOL0     C 7462   1.547  10.680   9.596 -0.1133  0.5376 -0.0652
  797MOL0     O 7463   1.560  10.578   9.689 -0.5975  0.6440  0.1860
  797MOL0     C 7464   1.480  10.469   9.690  0.0780 -0.5623  0.4961
  797MOL0     C 7465   1.526  10.342   9.672  0.0122  0.2408  0.1212
  797MOL0     C 7466   1.444  10.236   9.684 -0.3971 -0.5890  0.5343
  797MOL0     C 7467   1.305  10.239   9.725 -0.2229  0.0160  0.4940
  797MOL0     O 7468   1.238  10.124   9.746  0.9946 -0.2029 -0.1423
  797MOL0     C 7469   1.257  10.005   9.671  0.1593  0.2109  0.1020
  797MOL0     C 7470   1.168   9.895   9.727 -0.0562 -0.0627 -0.1847
  797MOL0     C 7471   1.014   9.917   9.712  0.3390  0.5898  0.7508
  797MOL0     C 7472   0.928   9.792   9.735  0.0365  0.4971  0.1006
  797MOL0     C 7473   0.779   9.824   9.703 -0.1163  0.6032 -0.3980
  797MOL0     C 7474   0.689   9.707   9.736  0.4866  0.6002 -0.1287
  797MOL0     C 7475   0.536   9.749   9.744 -0.7292 -0.0783 -0.4169
  797MOL0     C 7476   0.462   9.621   9.767  0.1512 -0.3060  0.3970
  797MOL0     N 7477   0.319   9.638   9.781 -0.7395 -0.8889  0.4633
  797MOL0     C 7478   0.243   9.621   9.673  0.5263 -0.5133 -0.6696
  797MOL0     C 7479   0.115   9.610   9.728  0.3610  0.1132 -0.1739
  797MOL0     C 7480  -0.018   9.590   9.657  0.7008  0.3537 -0.2745
  797MOL0     C 7481  -0.089   9.457   9.676  0.0944  0.7236 -1.2654
  797MOL0     C 7482  -0.231   9.468   9.614  0.2697  0.0460 -0.7632
  797MOL0     C 7483  -0.311   9.340   9.638  0.0860 -0.8514 -0.3267
  797MOL0     O 7484  -0.424   9.359   9.554  0.3429  1.0410  0.2192
  797MOL0     C 7485  -0.530   9.271   9.547 -0.1989 -0.7734  0.1876
  797MOL0     C 7486  -0.563   9.176   9.639  0.2155  0.0543  0.9065
  797MOL0     C 7487  -0.677   9.092   9.635 -0.2296  0.5554  0.6070
  797MOL0     C 7488  -0.697   9.005   9.760  0.7721  0.1367 -0.3451
  797MOL0     C 7489  -0.762   9.106   9.522 -0.1881 -0.6292 -0.2911
  797MOL0     C 7490  -0.886   9.028   9.492  0.4170  0.2025 -0.3675
  797MOL0     O 7491  -0.906   8.913   9.565  0.1051  0.1040 -0.2782
  797MOL0     C 7492  -1.015   8.842   9.532  0.7020  0.7366  0.9123
  797MOL0     C 7493  -1.005   8.740   9.435  0.6586 -0.6382 -1.2116
  797MOL0     C 7494  -1.120   8.678   9.399  0.4095  0.4399  0.2892
  797MOL0     C 7495  -1.248   8.730   9.436  0.4414  0.9429  0.1739
  797MOL0     O 7496  -1.373   8.676   9.394  0.0190 -0.3591 -0.4062
  797MOL0     C 7497  -1.370   8.555   9.327 -0.1982 -0.1419 -0.2838
  797MOL0     C 7498  -1.508   8.529   9.271 -0.2158 -0.1210  0.2103
  797MOL0     C 7499  -1.595   8.468   9.377 -0.0247 -0.7387 -0.4018
  797MOL0     C 7500  -1.742   8.487   9.336  0.4421 -0.0872  0.4244
  797MOL0     C 7501  -1.841   8.402   9.401  0.3684 -0.4292  0.0048
  797MOL0     C 7502  -1.980   8.439   9.346 -0.3334  1.0435  0.0443
  797MOL0     C 7503  -2.075   8.352   9.430  0.7177  0.7841 -0.0019
  797MOL0     C 7504  -2.223   8.395   9.412  1.2424 -0.1531 -1.0600
  797MOL0    Cl 7505  -2.274   8.373   9.249  0.0034 -0.0454 -0.0917
  797MOL0     C 7506  -1.254   8.835   9.524 -0.1572  0.0066 -0.5426
  797MOL0     C 7507  -1.138   8.888   9.577  1.0369  0.1744 -0.3265
  797MOL0     O 7508  -0.960   9.072   9.407  0.0272 -0.2900 -0.4329
  797MOL0     C 7509  -0.726   9.210   9.427  0.4490 -0.3522 -0.4011
  797MOL0     C 7510  -0.612   9.285   9.438  0.3209  0.5688  0.0968
  797MOL0     N 7511   0.122   9.615   9.865  0.0346  0.9549  0.3587
  797MOL0     N 7512   0.240   9.635   9.899 -0.7529  0.6688 -0.3764
  797MOL0     C 7513   1.263  10.371   9.754 -0.0699  0.0722 -0.0305
  797MOL0     C 7514   1.352  10.483   9.739  0.8182 -0.1859 -0.5309
  797MOL0     C 7515   1.659  10.772   9.596 -0.4583  0.2982 -0.1161
  797MOL0     C 7516   1.691  10.830   9.476 -0.3975 -0.2524 -0.2307
  797MOL0     C 7517   1.799  10.912   9.452 -0.0197 -0.3158 -0.1010
  797MOL0     C 7518   1.898  10.927   9.556  0.4761  0.2440  0.3882
  797MOL0     O 7519   2.024  10.994   9.542  0.5165 -0.1575  0.6181
  797MOL0     C 7520   2.111  10.923   9.453 -0.1249  0.2864  0.1825
  797MOL0     C 7521   2.182  10.804   9.528 -0.3366 -0.7881 -0.3961
  797MOL0     C 7522   2.291  10.730   9.450 -0.2285  0.3460 -0.7313
  797MOL0     C 7523   2.419  10.800   9.423  0.4708 -0.4221 -0.6304
  797MOL0     C 7524   2.526  10.797   9.531 -0.2056  0.6371 -0.4550
  797MOL0     C 7525   2.623  10.786   9.612  0.0824 -0.1513  1.2447
  797MOL0     C 7526   1.862  10.871   9.682 -0.4693 -0.1213  0.5288
  797MOL0     C 7527   1.742  10.801   9.706  0.0140 -0.2623  0.1351
  797MOL0     H 7528   1.627  10.319   9.638 -0.2626 -1.1970  0.2136
  797MOL0     H 7529   1.497  10.143   9.667 -0.4090 -0.3327 -1.0560
  797MOL0     H 7530   1.232  10.015   9.565  0.8396 -2.7663 -0.4413
  797MOL0     H 7531   1.362   9.975   9.676 -0.5744 -2.9014 -0.8156
  797MOL0     H 7532   1.218   9.804   9.692  1.4136  0.8486 -0.5121
  797MOL0     H 7533   1.194   9.906   9.832 -1.2054 -1.8883  0.3402
  797MOL0     H 7534   0.968   9.989   9.781 -3.3222 -0.7159 -0.0906
  797MOL0     H 7535   1.000   9.945   9.608 -1.5818 -0.6078  0.6470
  797MOL0     H 7536   0.968   9.713   9.670 -1.1407 -0.8844  0.9828
  797MOL0     H 7537   0.949   9.753   9.835  2.1674  2.9794  0.7255
  797MOL0     H 7538   0.758   9.906   9.773  3.0623  0.8757  0.4087
  797MOL0     H 7539   0.771   9.842   9.596 -3.3558  1.3244 -0.1221
  797MOL0     H 7540   0.705   9.626   9.664  0.8551  0.8581 -0.3409
  797MOL0     H 7541   0.722   9.660   9.830 -0.7157 -2.0388 -0.9165
  797MOL0     H 7542   0.515   9.822   9.822 -3.4034  1.6331 -2.5583
  797MOL0     H 7543   0.493   9.807   9.661 -1.3917  0.8605  0.5657
  797MOL0     H 7544   0.495   9.569   9.857 -3.4170 -1.9112  0.9596
  797MOL0     H 7545   0.498   9.547   9.695 -1.1729 -0.2185 -0.3818
  797MOL0     H 7546   0.273   9.614   9.570  0.5811 -0.1033 -0.6833
  797MOL0     H 7547  -0.084   9.671   9.689  0.4300 -0.9260  2.8007
  797MOL0     H 7548   0.000   9.604   9.550 -0.2665 -0.2211 -0.5252
  797MOL0     H 7549  -0.097   9.435   9.783  2.3392 -0.3843 -1.2602
  797MOL0     H 7550  -0.026   9.375   9.640  1.8349  1.6536 -0.4550
  797MOL0     H 7551  -0.214   9.474   9.506  0.1277  0.5769 -0.7621
  797MOL0     H 7552  -0.290   9.555   9.646 -0.5063 -0.5482 -0.5652
  797MOL0     H 7553  -0.340   9.322   9.742  0.2507  0.4231 -0.0414
  797MOL0     H 7554  -0.258   9.254   9.597  0.2542 -0.0626 -1.8200
  797MOL0     H 7555  -0.490   9.164   9.719 -1.0260 -2.6127  1.7488
  797MOL0     H 7556  -0.636   9.053   9.838  0.8021  1.0114 -0.8882
  797MOL0     H 7557  -0.802   8.990   9.787  0.4248 -1.1734 -2.2720
  797MOL0     H 7558  -0.647   8.910   9.742  1.6161  0.4193  0.4197
  797MOL0     H 7559  -0.913   8.727   9.378  0.4470  1.7347 -2.2236
  797MOL0     H 7560  -1.125   8.598   9.326  2.0721 -1.3486  1.9954
  797MOL0     H 7561  -1.306   8.542   9.239  0.8128 -1.7782  0.6287
  797MOL0     H 7562  -1.329   8.480   9.396 -0.8427 -0.7818 -0.5831
  797MOL0     H 7563  -1.544   8.623   9.227 -0.6484  0.2266  1.2627
  797MOL0     H 7564  -1.497   8.459   9.188  2.7261 -1.9749  1.9928
  797MOL0     H 7565  -1.564   8.520   9.468  1.1686  2.8750 -2.6554
  797MOL0     H 7566  -1.572   8.361   9.388  3.3374 -0.1418 -0.8167
  797MOL0     H 7567  -1.763   8.593   9.345  0.4936 -0.1952  1.9673
  797MOL0     H 7568  -1.752   8.455   9.231 -3.7046 -2.0571  1.2053
  797MOL0     H 7569  -1.832   8.422   9.508 -0.7151 -3.5883  0.7993
  797MOL0     H 7570  -1.817   8.297   9.384 -0.0311 -0.7581  1.3388
  797MOL0     H 7571  -2.000   8.546   9.351 -2.7195  0.7313 -1.4910
  797MOL0     H 7572  -1.997   8.411   9.241  0.3663 -0.3502  0.2754
  797MOL0     H 7573  -2.056   8.362   9.537  0.6140  2.2168 -0.1004
  797MOL0     H 7574  -2.063   8.248   9.396  1.6678  1.2065 -1.0158
  797MOL0     H 7575  -2.241   8.503   9.421 -3.7646 -0.8947  1.3573
  797MOL0     H 7576  -2.296   8.361   9.486  0.2130  0.5381 -1.7220
  797MOL0     H 7577  -1.345   8.877   9.565 -1.4084 -4.5846  2.1496
  797MOL0     H 7578  -1.122   8.978   9.634  0.9087  0.2118 -0.3492
  797MOL0     H 7579  -0.790   9.242   9.345 -0.0781  0.1792  0.2017
  797MOL0     H 7580  -0.580   9.350   9.357  0.7421  0.6200  0.2998
  797MOL0     H 7581   1.167  10.361   9.802 -0.0018  0.4547  0.1829
  797MOL0     H 7582   1.324  10.585   9.762 -1.9000 -0.3273 -2.6499
  797MOL0     H 7583   1.619  10.830   9.394 -0.8808 -2.5117  0.1340
  797MOL0     H 7584   1.812  10.947   9.350 -2.7835 -2.3125 -1.2471
  797MOL0     H 7585   2.054  10.879   9.371 -3.1029  0.7368  1.8747
  797MOL0     H 7586   2.181  11.003   9.427  0.7671 -0.3480  0.6032
  797MOL0     H 7587   2.098  10.745   9.566  0.9877 -0.1891  3.9092
  797MOL0     H 7588   2.226  10.841   9.621  1.4764 -0.9169 -1.1610
  797MOL0     H 7589   2.249  10.700   9.353  1.4894  0.4009 -1.5224
  797MOL0     H 7590   2.322  10.638   9.502  1.5947 -0.0931 -2.4708
  797MOL0     H 7591   2.389  10.903   9.400 -0.6787 -0.6016  0.0093
  797MOL0     H 7592   2.451  10.751   9.331 -0.7968  0.1955 -1.4210
  797MOL0     H 7593   2.715  10.785   9.666  1.4038  2.1695 -0.8107
  797MOL0     H 7594   1.942  10.873   9.755  0.0589 -1.5993  0.0092
  797MOL0     H 7595   1.722  10.760   9.805  2.3441  1.7246  1.5580
  798MOL0     O 7596   7.374   8.881   0.079  0.6530 -0.4450 -0.0799
  798MOL0     C 7597   7.478   8.943   0.103  0.5855 -0.2602 -0.1762
  798MOL0     O 7598   7.494   9.078   0.122 -0.1039  0.2902 -0.4968
  798MOL0     C 7599   7.380   9.154   0.121  0.6159  0.2316  0.2897
  798MOL0     C 7600   7.281   9.157   0.017  0.5517  0.3800  0.1519
  798MOL0     C 7601   7.162   9.232   0.035 -0.6128 -0.0798 -0.0484
  798MOL0     C 7602   7.142   9.309   0.146  1.1814  0.3175 -0.0204
  798MOL0     O 7603   7.014   9.366   0.162 -0.2373  0.3131 -1.2099
  798MOL0     C 7604   6.902   9.275   0.154  0.5767  1.2118  0.1354
  798MOL0     C 7605   6.792   9.345   0.233  0.0923 -0.0908  0.3673
  798MOL0     C 7606   6.756   9.272   0.361 -0.1345 -0.3704 -0.6604
  798MOL0     C 7607   6.630   9.329   0.413 -0.3553  0.1808 -0.0015
  798MOL0     C 7608   6.587   9.286   0.559 -0.7217 -0.0832  0.2031
  798MOL0     C 7609   6.699   9.315   0.666 -0.5705  0.0165 -0.6479
  798MOL0     C 7610   6.763   9.454   0.659  0.2085  0.2681 -0.3447
  798MOL0     C 7611   6.850   9.487   0.781 -0.2309  0.0849  0.4496
  798MOL0     N 7612   6.915   9.624   0.761  0.5485  0.5156 -0.1504
  798MOL0     C 7613   6.849   9.741   0.735  0.6378 -0.2328  0.4497
  798MOL0     C 7614   6.950   9.831   0.703 -0.0652 -0.8077 -0.4233
  798MOL0     C 7615   6.938   9.979   0.673 -0.1326  0.2413 -0.1871
  798MOL0     C 7616   6.884  10.048   0.801 -0.5087  1.1295  1.0471
  798MOL0     C 7617   6.818  10.180   0.764  0.2488  0.1074 -0.1130
  798MOL0     C 7618   6.663  10.157   0.747  1.1188 -0.1421 -0.1860
  798MOL0     O 7619   6.612  10.096   0.862  0.0551  0.2396  0.3562
  798MOL0     C 7620   6.479  10.085   0.877 -0.1613  0.1458 -0.2775
  798MOL0     C 7621   6.389  10.042   0.785  0.0870  1.0028  0.6402
  798MOL0     C 7622   6.250  10.051   0.802 -0.3546 -0.4208 -0.2792
  798MOL0     C 7623   6.157  10.018   0.686  0.0556 -0.2602 -0.0236
  798MOL0     C 7624   6.203  10.097   0.931 -0.5190  0.3010 -0.1666
  798MOL0     C 7625   6.058  10.118   0.959 -0.1378  0.4574 -0.5272
  798MOL0     O 7626   6.012  10.094   1.090  0.0802  0.1307  0.7513
  798MOL0     C 7627   5.889  10.061   1.137 -0.0691 -0.3919 -0.1884
  798MOL0     C 7628   5.786  10.037   1.052  0.4190 -0.0961 -0.6688
  798MOL0     C 7629   5.667   9.997   1.114 -0.3977 -0.4258  0.6748
  798MOL0     C 7630   5.655   9.984   1.251 -0.7950  0.9863 -0.1216
  798MOL0     O 7631   5.536   9.943   1.305  0.2485  0.7259  0.3160
  798MOL0     C 7632   5.477  10.019   1.413  0.4865 -0.7846  0.0164
  798MOL0     C 7633   5.330  10.011   1.396  0.2687  0.1099 -0.8406
  798MOL0     C 7634   5.277  10.074   1.271 -0.0964 -0.4864 -0.5082
  798MOL0     C 7635   5.125  10.052   1.265  0.1028 -0.4891  0.6491
  798MOL0     C 7636   5.063  10.114   1.129 -0.8928 -0.7098  0.1649
  798MOL0     C 7637   4.911  10.089   1.111 -0.1038  0.8036 -0.4191
  798MOL0     C 7638   4.823  10.174   1.189  0.0657 -0.1288  0.1039
  798MOL0     C 7639   4.675  10.154   1.155 -0.0594  0.1648 -0.0334
  798MOL0    Cl 7640   4.611  10.004   1.211 -0.2570  0.0473 -0.1065
  798MOL0     C 7641   5.760  10.027   1.332  0.2805  0.6958 -0.2863
  798MOL0     C 7642   5.884  10.061   1.273  0.1165  0.8352 -0.8144
  798MOL0     O 7643   5.986  10.154   0.870 -0.0927 -0.0421  0.7340
  798MOL0     C 7644   6.293  10.115   1.036  0.5435 -0.1580  0.4762
  798MOL0     C 7645   6.433  10.110   1.006 -0.6851 -0.5616 -0.1876
  798MOL0     N 7646   7.062   9.767   0.720 -0.5543  0.3157 -0.8764
  798MOL0     N 7647   7.047   9.648   0.739  0.2783  0.4627  0.3499
  798MOL0     C 7648   7.239   9.314   0.244  0.1074  0.9067 -0.4783
  798MOL0     C 7649   7.357   9.240   0.230 -0.1755 -0.4501  0.0881
  798MOL0     C 7650   7.600   8.869   0.088 -0.0421  0.5002 -0.2230
  798MOL0     C 7651   7.714   8.917   0.150 -0.2595  0.3101 -0.0524
  798MOL0     C 7652   7.829   8.839   0.150  0.5774 -0.2795 -0.0040
  798MOL0     C 7653   7.828   8.718   0.081  0.1314 -0.8682  0.5171
  798MOL0     O 7654   7.931   8.634   0.077  0.7348  0.1937 -0.0799
  798MOL0     C 7655   8.060   8.696   0.071 -0.5359 -0.4104 -0.5828
  798MOL0     C 7656   8.171   8.605   0.024  0.0032  0.3278 -0.4962
  798MOL0     C 7657   8.159   8.526  -0.106 -0.4441  0.1111  0.7347
  798MOL0     C 7658   8.200   8.602  -0.240 -0.6895 -0.0053  0.2151
  798MOL0     C 7659   8.197   8.522  -0.360  1.3815 -0.3573  0.7541
  798MOL0     C 7660   8.219   8.452  -0.458  0.3964  0.0843  0.1963
  798MOL0     C 7661   7.715   8.677   0.020  0.0840  0.4493 -0.3623
  798MOL0     C 7662   7.599   8.752   0.024 -0.5287 -0.4330  0.2668
  798MOL0     H 7663   7.293   9.121  -0.085  0.6997  2.4152 -0.6031
  798MOL0     H 7664   7.086   9.228  -0.042 -0.2212  2.2814 -0.6310
  798MOL0     H 7665   6.871   9.271   0.050  2.7945  0.4433 -0.5468
  798MOL0     H 7666   6.922   9.174   0.191  1.6439  1.7309  1.0444
  798MOL0     H 7667   6.809   9.451   0.254 -2.0912  0.0359  1.8878
  798MOL0     H 7668   6.705   9.354   0.167 -2.6855 -1.1263  3.5851
  798MOL0     H 7669   6.746   9.163   0.359 -1.9661 -0.2239 -1.0307
  798MOL0     H 7670   6.833   9.298   0.435 -0.4463  0.8520 -0.7444
  798MOL0     H 7671   6.643   9.438   0.409 -0.3195  0.1556 -1.1330
  798MOL0     H 7672   6.558   9.303   0.336  2.7379 -0.3898 -2.9713
  798MOL0     H 7673   6.491   9.332   0.580 -0.6807 -0.2040  0.6743
  798MOL0     H 7674   6.559   9.181   0.571 -3.2399  0.5883  0.6612
  798MOL0     H 7675   6.649   9.311   0.763  0.6436  3.2354  0.2523
  798MOL0     H 7676   6.784   9.247   0.657  0.5410  1.3203 -0.3500
  798MOL0     H 7677   6.810   9.475   0.562 -2.1384  2.9307 -1.0206
  798MOL0     H 7678   6.683   9.529   0.660 -1.1384 -1.1065 -0.2394
  798MOL0     H 7679   6.920   9.403   0.791 -0.7939 -0.5105 -0.4140
  798MOL0     H 7680   6.789   9.493   0.871 -0.5208 -3.5824  0.6346
  798MOL0     H 7681   6.742   9.761   0.728  0.9551  1.2243 -1.1651
  798MOL0     H 7682   7.033  10.023   0.641 -1.5442  3.2085 -0.5895
  798MOL0     H 7683   6.861   9.983   0.595 -1.8454 -0.6605  1.3804
  798MOL0     H 7684   6.966  10.065   0.871  2.0119 -0.5298 -1.3072
  798MOL0     H 7685   6.805   9.988   0.847 -0.5463  0.9091  0.7022
  798MOL0     H 7686   6.849  10.232   0.673 -3.7039  2.0128 -0.5579
  798MOL0     H 7687   6.844  10.245   0.848  1.2547  0.0856 -0.3952
  798MOL0     H 7688   6.641  10.089   0.664  0.1643  0.6853 -0.6253
  798MOL0     H 7689   6.613  10.249   0.717 -0.7366 -1.6553 -2.0153
  798MOL0     H 7690   6.434  10.018   0.689  0.7497  0.8439  0.9784
  798MOL0     H 7691   6.218   9.969   0.610 -0.1486  0.9825 -1.0135
  798MOL0     H 7692   6.075   9.948   0.709 -0.8126  0.7116 -0.0939
  798MOL0     H 7693   6.114  10.109   0.643 -0.8200 -0.3815  0.5561
  798MOL0     H 7694   5.795  10.037   0.943 -0.7191 -0.6322 -0.7763
  798MOL0     H 7695   5.579   9.962   1.061  0.5205 -0.2559 -1.0167
  798MOL0     H 7696   5.507   9.973   1.508  0.3454  3.8804  2.6325
  798MOL0     H 7697   5.519  10.120   1.407  1.3892 -1.2084 -1.2598
  798MOL0     H 7698   5.297   9.907   1.404 -1.1170  0.4252 -1.9996
  798MOL0     H 7699   5.292  10.059   1.487  0.6952  0.9776 -1.1047
  798MOL0     H 7700   5.328  10.023   1.189 -0.8190 -0.1409 -1.1794
  798MOL0     H 7701   5.307  10.179   1.276 -1.4708 -0.0955  0.2634
  798MOL0     H 7702   5.117   9.943   1.261  3.7221 -0.8943  1.2982
  798MOL0     H 7703   5.073  10.094   1.352  0.9903 -1.0787  1.4885
  798MOL0     H 7704   5.111  10.059   1.047 -0.0973  0.2621 -0.0325
  798MOL0     H 7705   5.097  10.216   1.110  0.9065 -1.3431 -0.2223
  798MOL0     H 7706   4.894  10.099   1.004  0.7766  0.0397 -0.6527
  798MOL0     H 7707   4.897   9.983   1.134  1.9693  1.2676  4.1488
  798MOL0     H 7708   4.843  10.282   1.183 -2.4005  0.3725 -0.3302
  798MOL0     H 7709   4.827  10.140   1.293  0.4323 -0.6785 -0.0891
  798MOL0     H 7710   4.645  10.170   1.051  1.2846  1.4485 -0.2591
  798MOL0     H 7711   4.623  10.229   1.216  0.4327 -0.8662  1.7361
  798MOL0     H 7712   5.750  10.031   1.440  3.5174  0.0475  0.1450
  798MOL0     H 7713   5.970  10.076   1.338 -1.8647 -1.0115  2.5509
  798MOL0     H 7714   6.259  10.141   1.136  1.9335 -0.8377  1.1450
  798MOL0     H 7715   6.501  10.134   1.088 -1.9698 -0.4418  0.8732
  798MOL0     H 7716   7.218   9.362   0.339 -0.0446 -1.0599  0.5446
  798MOL0     H 7717   7.439   9.243   0.301  0.2375  0.9816 -0.4223
  798MOL0     H 7718   7.716   9.017   0.192  1.0634  0.6852 -0.9439
  798MOL0     H 7719   7.912   8.885   0.203 -0.4060 -0.1770  1.4877
  798MOL0     H 7720   8.063   8.782   0.004 -0.7479 -0.3686 -0.5398
  798MOL0     H 7721   8.081   8.739   0.170  1.3036 -1.8659 -0.2780
  798MOL0     H 7722   8.181   8.529   0.103  0.8240  1.9901  1.0780
  798MOL0     H 7723   8.265   8.661   0.026  0.5139 -0.4846  2.0012
  798MOL0     H 7724   8.054   8.500  -0.121 -0.5152  1.4370 -1.4894
  798MOL0     H 7725   8.220   8.436  -0.094 -3.5623 -2.2990 -0.0203
  798MOL0     H 7726   8.307   8.624  -0.228 -0.3936 -0.3569 -1.5997
  798MOL0     H 7727   8.144   8.692  -0.266  0.0564  0.0946 -1.1074
  798MOL0     H 7728   8.260   8.383  -0.529 -1.8488 -1.8202  0.6373
  798MOL0     H 7729   7.715   8.586  -0.039 -1.2903  0.2755 -0.1342
  798MOL0     H 7730   7.517   8.734  -0.045  3.0223 -1.0943 -4.2919
  799MOL0     O 7731   2.807   4.438   4.328  0.3939  0.1087 -0.2831
  799MOL0     C 7732   2.830   4.499   4.222 -0.1426 -1.0511 -0.3105
  799MOL0     O 7733   2.744   4.517   4.123 -0.3017  0.5161 -0.1566
  799MOL0     C 7734   2.614   4.494   4.136  0.5629  0.2920  0.8374
  799MOL0     C 7735   2.548   4.531   4.254  0.0963 -0.7404  0.9005
  799MOL0     C 7736   2.413   4.518   4.278 -0.1575 -0.4728 -1.5735
  799MOL0     C 7737   2.325   4.462   4.183  0.4377 -0.3411 -0.7304
  799MOL0     O 7738   2.194   4.429   4.210  0.5695 -0.5394 -0.3835
  799MOL0     C 7739   2.121   4.327   4.128  0.4229 -0.2229  0.5784
  799MOL0     C 7740   1.973   4.335   4.167  0.2169  0.8381 -0.1556
  799MOL0     C 7741   1.890   4.215   4.109  0.2373 -0.4912 -0.3691
  799MOL0     C 7742   1.749   4.241   4.166  0.7116  0.8183 -0.4146
  799MOL0     C 7743   1.643   4.143   4.113 -0.5453 -0.4703 -0.4594
  799MOL0     C 7744   1.511   4.166   4.172 -0.5194 -0.5558  0.3576
  799MOL0     C 7745   1.401   4.073   4.119 -0.5194 -0.5331  0.5035
  799MOL0     C 7746   1.449   3.931   4.082  0.1964  0.1894 -0.0841
  799MOL0     N 7747   1.338   3.862   4.005 -0.0370 -0.4720  0.1802
  799MOL0     C 7748   1.308   3.731   3.993 -0.7460 -0.5250  0.6542
  799MOL0     C 7749   1.228   3.722   3.883  0.4057  0.6910 -0.4124
  799MOL0     C 7750   1.160   3.589   3.842  0.6308  0.1233 -0.5502
  799MOL0     C 7751   1.079   3.619   3.717  0.5959  0.7487  0.5632
  799MOL0     C 7752   1.001   3.501   3.666  0.0808  0.2486 -0.3832
  799MOL0     C 7753   0.924   3.521   3.532  0.4611 -0.3760 -0.5251
  799MOL0     O 7754   0.868   3.402   3.487  0.6055 -0.2766 -0.1956
  799MOL0     C 7755   0.733   3.378   3.497 -0.8877  0.3588  0.4287
  799MOL0     C 7756   0.647   3.453   3.574  0.4679  0.0371  1.1841
  799MOL0     C 7757   0.510   3.438   3.573  0.7127  0.1186 -0.2904
  799MOL0     C 7758   0.427   3.522   3.673 -0.7231 -0.3239 -0.3624
  799MOL0     C 7759   0.450   3.342   3.493 -1.5977 -0.1641 -0.1378
  799MOL0     C 7760   0.302   3.317   3.483  0.0031 -0.1780  0.9237
  799MOL0     O 7761   0.260   3.296   3.352 -0.5340  0.3128  0.3056
  799MOL0     C 7762   0.131   3.318   3.319 -0.2185  0.2166 -0.2832
  799MOL0     C 7763   0.084   3.452   3.328 -0.7030 -0.2648  0.1993
  799MOL0     C 7764  -0.052   3.461   3.310 -0.1510 -0.4511  1.0597
  799MOL0     C 7765  -0.140   3.360   3.272  0.2851  0.0781 -0.1520
  799MOL0     O 7766  -0.269   3.398   3.261  0.1667  0.1968 -0.1039
  799MOL0     C 7767  -0.370   3.299   3.284  0.0272 -0.4299  0.1825
  799MOL0     C 7768  -0.510   3.346   3.242 -0.1494 -0.2469  0.5622
  799MOL0     C 7769  -0.564   3.454   3.331 -0.1777  0.4862  0.3661
  799MOL0     C 7770  -0.700   3.498   3.275  0.1236 -0.0875 -0.1214
  799MOL0     C 7771  -0.760   3.605   3.372  0.5253  0.0277  0.4096
  799MOL0     C 7772  -0.910   3.589   3.371 -0.2822  0.3993  0.3360
  799MOL0     C 7773  -0.967   3.667   3.486  0.2396 -0.0672 -0.1528
  799MOL0     C 7774  -1.099   3.732   3.457 -0.5977  0.2736  0.6582
  799MOL0    Cl 7775  -1.207   3.585   3.453 -0.3371 -0.1395  0.0529
  799MOL0     C 7776  -0.081   3.226   3.262 -0.0368 -1.0155 -0.1333
  799MOL0     C 7777   0.053   3.206   3.287  0.2856  0.3984 -0.3772
  799MOL0     O 7778   0.224   3.336   3.576  0.4118  0.5595  0.0256
  799MOL0     C 7779   0.535   3.258   3.411  0.4271  0.1956  0.0770
  799MOL0     C 7780   0.674   3.284   3.411  0.6819  0.1991 -0.7558
  799MOL0     N 7781   1.208   3.851   3.830  0.5217  0.2417  0.0697
  799MOL0     N 7782   1.271   3.927   3.909 -0.9431 -0.5373 -0.4123
  799MOL0     C 7783   2.383   4.438   4.055 -0.2933 -0.0295  0.9741
  799MOL0     C 7784   2.522   4.458   4.035 -0.7717  0.9342 -0.1560
  799MOL0     C 7785   2.965   4.550   4.205  0.1981 -0.9781 -0.3058
  799MOL0     C 7786   3.013   4.593   4.078  0.4935  0.4777 -0.3606
  799MOL0     C 7787   3.140   4.647   4.067 -0.3617 -0.1697  0.2202
  799MOL0     C 7788   3.221   4.660   4.181  0.6966  0.0007  0.2009
  799MOL0     O 7789   3.349   4.705   4.159  0.7445  1.1004 -0.0668
  799MOL0     C 7790   3.431   4.749   4.262 -0.4444  0.1525  0.9574
  799MOL0     C 7791   3.550   4.815   4.179  0.0002 -0.0418  0.7082
  799MOL0     C 7792   3.661   4.881   4.269 -0.4845 -0.0042 -0.1350
  799MOL0     C 7793   3.770   4.789   4.316  0.9402 -0.6952  1.3395
  799MOL0     C 7794   3.750   4.765   4.454  0.1928  0.0132  0.0984
  799MOL0     C 7795   3.727   4.756   4.574  0.8407 -0.4649 -0.0192
  799MOL0     C 7796   3.177   4.604   4.303 -0.3750 -0.2733 -0.0816
  799MOL0     C 7797   3.046   4.558   4.315 -0.1561  0.8981  0.0112
  799MOL0     H 7798   2.610   4.591   4.320  0.6869  2.1582 -2.0407
  799MOL0     H 7799   2.378   4.547   4.376 -0.4581 -2.3834 -1.0761
  799MOL0     H 7800   2.125   4.345   4.020  1.1916 -1.9068  0.3005
  799MOL0     H 7801   2.167   4.229   4.138  3.0608  0.8735  0.0476
  799MOL0     H 7802   1.969   4.328   4.276  1.9696  0.6753 -0.0653
  799MOL0     H 7803   1.934   4.429   4.127 -2.7446  0.3074  1.2197
  799MOL0     H 7804   1.884   4.233   4.001  1.5695  0.9239 -0.2576
  799MOL0     H 7805   1.943   4.123   4.134  2.8721  1.2128  0.8049
  799MOL0     H 7806   1.750   4.225   4.274 -0.6009 -1.4274 -0.6719
  799MOL0     H 7807   1.716   4.344   4.152  0.6777  1.8030  4.9205
  799MOL0     H 7808   1.630   4.153   4.005  0.6517 -1.4973 -0.7170
  799MOL0     H 7809   1.674   4.042   4.140  2.1966  0.0431 -1.4181
  799MOL0     H 7810   1.517   4.159   4.281  0.5236  1.0291  0.4351
  799MOL0     H 7811   1.483   4.270   4.150  1.6022 -0.2482 -1.1488
  799MOL0     H 7812   1.330   4.068   4.202  0.0795 -0.6060  1.0285
  799MOL0     H 7813   1.365   4.128   4.032  1.3919  2.1489  1.2854
  799MOL0     H 7814   1.473   3.879   4.176 -0.5539  0.4658  0.2662
  799MOL0     H 7815   1.538   3.943   4.019 -1.2089  1.5950 -1.8834
  799MOL0     H 7816   1.344   3.648   4.054  0.7900  0.6665  1.4270
  799MOL0     H 7817   1.239   3.518   3.818 -0.0684 -0.4053 -1.3813
  799MOL0     H 7818   1.097   3.560   3.927  0.1899  2.4042 -0.0348
  799MOL0     H 7819   1.149   3.641   3.636 -1.8027  1.2174 -1.5504
  799MOL0     H 7820   1.007   3.699   3.738 -2.2910 -1.3183 -0.7362
  799MOL0     H 7821   0.923   3.477   3.739 -0.7132 -1.5675 -1.7241
  799MOL0     H 7822   1.065   3.412   3.667 -1.4640 -0.9244 -1.1856
  799MOL0     H 7823   1.005   3.549   3.464  1.9826 -1.7462  0.6510
  799MOL0     H 7824   0.850   3.601   3.542  1.5242  0.6382 -0.5851
  799MOL0     H 7825   0.682   3.512   3.658  0.4849  1.0676  0.4832
  799MOL0     H 7826   0.344   3.561   3.613 -1.1109 -2.4856 -1.3244
  799MOL0     H 7827   0.403   3.459   3.760 -0.2922  1.3945  1.0746
  799MOL0     H 7828   0.481   3.611   3.707  0.1691 -0.7912 -0.5552
  799MOL0     H 7829   0.154   3.534   3.345  1.4126 -1.0022 -3.6944
  799MOL0     H 7830  -0.103   3.556   3.318  0.7561  0.6303 -3.4971
  799MOL0     H 7831  -0.339   3.211   3.226  0.6644 -1.7807  2.4567
  799MOL0     H 7832  -0.369   3.275   3.390 -0.0848  2.5279  0.9234
  799MOL0     H 7833  -0.519   3.378   3.138 -1.9755 -0.0903  0.7247
  799MOL0     H 7834  -0.575   3.258   3.249 -1.4947  0.7884  1.9320
  799MOL0     H 7835  -0.494   3.539   3.329 -0.9280  1.1497  1.4624
  799MOL0     H 7836  -0.573   3.409   3.430 -0.8508 -2.2245 -0.8329
  799MOL0     H 7837  -0.700   3.528   3.170  0.4696 -0.3231 -0.1896
  799MOL0     H 7838  -0.769   3.413   3.278 -1.8116  1.4280  0.6184
  799MOL0     H 7839  -0.722   3.705   3.349 -0.8687  0.0736 -2.1471
  799MOL0     H 7840  -0.730   3.590   3.476 -0.1256 -1.2427  0.4312
  799MOL0     H 7841  -0.962   3.604   3.276  0.1427 -2.0666 -0.3641
  799MOL0     H 7842  -0.930   3.484   3.394  1.1956  0.0812  0.2381
  799MOL0     H 7843  -0.892   3.739   3.520  1.0108 -0.5065 -0.9041
  799MOL0     H 7844  -0.977   3.604   3.576 -2.0494  0.2001 -0.1512
  799MOL0     H 7845  -1.109   3.802   3.374  1.2018  3.1003  2.6745
  799MOL0     H 7846  -1.124   3.792   3.545  3.0504 -0.1678  2.1625
  799MOL0     H 7847  -0.131   3.130   3.257  0.5025 -1.2770 -0.7264
  799MOL0     H 7848   0.088   3.104   3.296 -1.3034 -0.1593 -0.1659
  799MOL0     H 7849   0.491   3.192   3.337  2.9543 -1.6903  0.1285
  799MOL0     H 7850   0.735   3.242   3.332 -1.0150 -3.2938 -0.4014
  799MOL0     H 7851   2.333   4.392   3.970 -0.1139  0.0838  0.8064
  799MOL0     H 7852   2.560   4.414   3.944 -0.4462  2.9079 -1.0330
  799MOL0     H 7853   2.949   4.592   3.990  1.0956 -0.3778 -0.8016
  799MOL0     H 7854   3.175   4.684   3.971 -3.8012  0.2654 -0.9697
  799MOL0     H 7855   3.384   4.825   4.325  0.7921  2.0725 -0.3266
  799MOL0     H 7856   3.468   4.666   4.322  0.3656  1.0446  1.7383
  799MOL0     H 7857   3.508   4.889   4.111  0.4167 -2.3154 -2.2581
  799MOL0     H 7858   3.604   4.741   4.119  0.7282 -1.3659  2.8912
  799MOL0     H 7859   3.610   4.937   4.347  0.1810  0.6751 -0.1686
  799MOL0     H 7860   3.710   4.952   4.202  1.4128  0.7339  1.9036
  799MOL0     H 7861   3.866   4.837   4.298 -0.3728  2.1637  1.4422
  799MOL0     H 7862   3.771   4.702   4.250 -0.6707 -0.0171  0.3501
  799MOL0     H 7863   3.703   4.758   4.678  0.1697 -0.0162 -0.1743
  799MOL0     H 7864   3.228   4.610   4.398  2.0520  1.0154 -1.3710
  799MOL0     H 7865   3.020   4.506   4.407  0.5997  0.7524  0.1525
  800MOL0     O 7866   0.287   3.705   5.387 -0.4763 -0.1484  0.0721
  800MOL0     C 7867   0.289   3.650   5.506  0.4597 -0.9007  0.1799
  800MOL0     O 7868   0.176   3.636   5.588 -0.2995 -0.0669 -0.6018
  800MOL0     C 7869   0.055   3.688   5.544 -0.3082 -0.0512  0.0211
  800MOL0     C 7870   0.037   3.824   5.544 -0.2756  0.2096  0.7643
  800MOL0     C 7871  -0.081   3.878   5.494 -0.6435 -0.7802 -0.9283
  800MOL0     C 7872  -0.180   3.792   5.437  0.5202 -0.3564 -0.2060
  800MOL0     O 7873  -0.282   3.839   5.366  0.4303  0.3739  0.2022
  800MOL0     C 7874  -0.333   3.969   5.391 -0.2778  0.6959 -0.4169
  800MOL0     C 7875  -0.373   3.984   5.539  0.4191 -0.0933  0.0577
  800MOL0     C 7876  -0.471   4.103   5.551 -0.5104  0.1334  0.0173
  800MOL0     C 7877  -0.459   4.163   5.690 -0.5597  0.8803 -0.0183
  800MOL0     C 7878  -0.555   4.284   5.714 -0.7798  0.1285 -0.0094
  800MOL0     C 7879  -0.516   4.352   5.851  0.0312  0.2350 -0.3626
  800MOL0     C 7880  -0.587   4.480   5.892 -0.1266 -0.4322  0.1537
  800MOL0     C 7881  -0.734   4.445   5.908  0.2505  0.4590 -0.4717
  800MOL0     N 7882  -0.806   4.572   5.943  0.0671  0.0535 -0.5625
  800MOL0     C 7883  -0.758   4.686   6.002  0.4751  1.3749  0.1815
  800MOL0     C 7884  -0.840   4.782   5.965  0.3320  0.2480 -0.0911
  800MOL0     C 7885  -0.844   4.922   6.004  0.6564  0.0972 -0.9367
  800MOL0     C 7886  -0.868   4.957   6.156 -0.0070  0.4552 -0.0008
  800MOL0     C 7887  -0.883   5.113   6.163 -0.2923  0.5054 -0.2272
  800MOL0     C 7888  -0.996   5.151   6.248  0.7475 -0.4377  0.0670
  800MOL0     O 7889  -1.006   5.295   6.244 -0.4479 -0.7245  0.0019
  800MOL0     C 7890  -1.123   5.349   6.293 -0.2393  0.6794  0.6224
  800MOL0     C 7891  -1.222   5.276   6.362  0.8160  0.3463  0.9238
  800MOL0     C 7892  -1.342   5.333   6.392  1.0958 -0.3786  0.0199
  800MOL0     C 7893  -1.436   5.233   6.452  0.3959  0.0760  0.1589
  800MOL0     C 7894  -1.361   5.472   6.366  0.6987 -0.0518 -0.3606
  800MOL0     C 7895  -1.483   5.544   6.407  0.2045  0.3235 -0.2791
  800MOL0     O 7896  -1.586   5.479   6.471 -0.4035 -0.0962 -0.2425
  800MOL0     C 7897  -1.673   5.556   6.540  0.2112 -0.4639 -0.1095
  800MOL0     C 7898  -1.809   5.538   6.516 -0.7052  0.7269  0.3754
  800MOL0     C 7899  -1.910   5.597   6.594 -1.0139 -0.0665  0.1149
  800MOL0     C 7900  -1.875   5.679   6.705 -0.4614 -0.1115  0.6406
  800MOL0     O 7901  -1.956   5.734   6.799  0.1279 -0.0963 -0.0350
  800MOL0     C 7902  -2.090   5.770   6.765  0.1175 -0.0799 -0.8169
  800MOL0     C 7903  -2.092   5.894   6.680  0.5606  0.1432  0.1355
  800MOL0     C 7904  -2.219   5.977   6.708 -0.0316  0.0563  0.5309
  800MOL0     C 7905  -2.227   6.107   6.645 -0.0363 -1.0940  0.8444
  800MOL0     C 7906  -2.362   6.192   6.659 -0.1708  0.4581 -0.1662
  800MOL0     C 7907  -2.475   6.121   6.579 -0.2747 -0.2710 -0.1097
  800MOL0     C 7908  -2.597   6.211   6.563 -0.3414  0.8193 -0.2888
  800MOL0     C 7909  -2.712   6.126   6.495  0.0125 -0.3233  0.3085
  800MOL0    Cl 7910  -2.777   6.008   6.608  0.4741  0.2618 -0.2080
  800MOL0     C 7911  -1.734   5.694   6.731 -0.6591 -1.1967 -0.3546
  800MOL0     C 7912  -1.638   5.635   6.648  0.3582 -0.0136 -0.6450
  800MOL0     O 7913  -1.480   5.667   6.400 -0.0960 -0.2488 -0.2491
  800MOL0     C 7914  -1.258   5.546   6.312  0.1319 -0.5802  0.8539
  800MOL0     C 7915  -1.145   5.483   6.262  0.2257 -0.3538 -0.8106
  800MOL0     N 7916  -0.936   4.723   5.881 -0.0715  0.1060 -0.3459
  800MOL0     N 7917  -0.911   4.608   5.863 -0.5065  0.4441  0.9026
  800MOL0     C 7918  -0.161   3.651   5.436 -0.3582  0.7818 -0.2299
  800MOL0     C 7919  -0.041   3.594   5.495  0.6785 -0.4682  0.7268
  800MOL0     C 7920   0.421   3.606   5.562 -0.2109  0.4993 -1.1213
  800MOL0     C 7921   0.548   3.646   5.510 -0.4024  0.3703  0.3204
  800MOL0     C 7922   0.669   3.599   5.558 -1.3284  0.1437 -0.3756
  800MOL0     C 7923   0.668   3.505   5.662  0.5381 -0.5049 -0.1930
  800MOL0     O 7924   0.776   3.451   5.725  0.1022 -0.1435  0.0559
  800MOL0     C 7925   0.904   3.519   5.702 -0.3783  0.6675 -0.1906
  800MOL0     C 7926   0.925   3.642   5.808  0.1033  0.1627 -0.1243
  800MOL0     C 7927   0.905   3.590   5.954 -0.4678  0.6391  0.7690
  800MOL0     C 7928   1.032   3.610   6.040  0.5519 -0.2062 -0.0416
  800MOL0     C 7929   1.148   3.554   5.976 -0.3487  0.6212 -0.1811
  800MOL0     C 7930   1.241   3.490   5.926 -0.5634 -0.0958  0.5186
  800MOL0     C 7931   0.550   3.464   5.720  0.3791  0.2868 -0.2208
  800MOL0     C 7932   0.427   3.505   5.663 -0.5188  0.1475  0.2298
  800MOL0     H 7933   0.117   3.892   5.572  0.1215  0.6637 -1.3226
  800MOL0     H 7934  -0.090   3.986   5.495 -1.7016 -0.7909 -3.1624
  800MOL0     H 7935  -0.253   4.041   5.370 -1.5844  3.0492  1.9588
  800MOL0     H 7936  -0.417   3.998   5.326 -0.1733  1.4010 -0.2448
  800MOL0     H 7937  -0.417   3.888   5.568  1.0985 -0.8061 -1.1919
  800MOL0     H 7938  -0.280   3.999   5.596  1.9359  0.2984 -2.3975
  800MOL0     H 7939  -0.456   4.182   5.477  2.0591 -1.0539 -0.8416
  800MOL0     H 7940  -0.571   4.061   5.538 -0.6092  0.8660 -1.9621
  800MOL0     H 7941  -0.481   4.089   5.768 -0.8368  0.2360 -0.6893
  800MOL0     H 7942  -0.356   4.190   5.711 -0.8797  0.9985  1.5198
  800MOL0     H 7943  -0.545   4.342   5.622  0.7426 -1.8238 -1.1515
  800MOL0     H 7944  -0.658   4.248   5.723 -0.9841  0.8599  0.7374
  800MOL0     H 7945  -0.540   4.287   5.935  0.8877 -0.5361 -0.7015
  800MOL0     H 7946  -0.408   4.369   5.849  0.2626 -0.8438  1.3070
  800MOL0     H 7947  -0.555   4.515   5.990  0.1299  3.3804 -1.1320
  800MOL0     H 7948  -0.560   4.556   5.818  0.2452 -1.4024 -0.7420
  800MOL0     H 7949  -0.750   4.368   5.984  2.5346  1.4845  1.1693
  800MOL0     H 7950  -0.781   4.403   5.818  0.2594 -0.3689 -0.0954
  800MOL0     H 7951  -0.678   4.710   6.072 -0.1520  2.3928  0.5615
  800MOL0     H 7952  -0.755   4.974   5.968  0.8752  1.6373  1.5327
  800MOL0     H 7953  -0.925   4.949   5.936 -0.6913 -1.4572 -0.0176
  800MOL0     H 7954  -0.787   4.919   6.218 -1.0339 -0.2073  0.9692
  800MOL0     H 7955  -0.954   4.908   6.203  1.8450 -1.5004  1.5396
  800MOL0     H 7956  -0.917   5.152   6.067 -1.2319 -0.1749 -0.1889
  800MOL0     H 7957  -0.793   5.168   6.192  1.4360 -0.2787 -3.5821
  800MOL0     H 7958  -0.986   5.118   6.352  1.3283  2.2122  0.9235
  800MOL0     H 7959  -1.090   5.110   6.211 -0.9219  1.2730  2.1037
  800MOL0     H 7960  -1.209   5.177   6.403  0.1370  1.2502  3.5382
  800MOL0     H 7961  -1.444   5.225   6.561  0.9177  1.0617  0.2831
  800MOL0     H 7962  -1.539   5.261   6.427  0.6252 -1.5662 -3.0822
  800MOL0     H 7963  -1.425   5.130   6.416 -1.1833 -0.4199  1.0088
  800MOL0     H 7964  -1.847   5.491   6.425 -2.8920  1.3561  0.9070
  800MOL0     H 7965  -2.015   5.574   6.580 -1.3668  1.2112  0.5163
  800MOL0     H 7966  -2.137   5.686   6.712 -0.0700 -1.5378  1.5178
  800MOL0     H 7967  -2.145   5.790   6.857 -1.8857  3.4424 -2.5851
  800MOL0     H 7968  -2.000   5.950   6.699  0.2652  1.3165 -1.6818
  800MOL0     H 7969  -2.101   5.857   6.577 -0.8920  0.8819 -0.0190
  800MOL0     H 7970  -2.226   5.991   6.817  0.8669  0.2028  0.5823
  800MOL0     H 7971  -2.297   5.913   6.666  2.6185 -3.0749 -0.0218
  800MOL0     H 7972  -2.156   6.172   6.697 -1.0157  1.2919 -0.6448
  800MOL0     H 7973  -2.207   6.107   6.537  0.0123  1.9229  0.7748
  800MOL0     H 7974  -2.352   6.295   6.625 -1.6005  1.3836  2.0003
  800MOL0     H 7975  -2.398   6.196   6.762 -2.3729 -2.3380 -0.6811
  800MOL0     H 7976  -2.444   6.109   6.475 -0.9434  0.8651 -0.4560
  800MOL0     H 7977  -2.501   6.027   6.629  0.1635 -0.8300 -0.9003
  800MOL0     H 7978  -2.579   6.304   6.508 -3.1988  2.6029  1.4953
  800MOL0     H 7979  -2.620   6.257   6.660 -0.4130  2.2101 -0.9441
  800MOL0     H 7980  -2.673   6.074   6.407 -1.7306 -1.4231  0.1211
  800MOL0     H 7981  -2.790   6.195   6.460  0.1944 -0.0510  0.4353
  800MOL0     H 7982  -1.695   5.761   6.808  0.9736 -0.7689 -1.5121
  800MOL0     H 7983  -1.534   5.653   6.672  0.3600 -1.5517  0.5986
  800MOL0     H 7984  -1.273   5.652   6.291 -4.5457 -1.0978  0.5647
  800MOL0     H 7985  -1.071   5.535   6.202  1.2445 -1.4101 -0.5000
  800MOL0     H 7986  -0.244   3.588   5.405 -1.9871  1.0881  3.0935
  800MOL0     H 7987  -0.038   3.485   5.495  0.2311 -0.4886  1.8118
  800MOL0     H 7988   0.548   3.712   5.424  2.4000  0.2647  0.1578
  800MOL0     H 7989   0.762   3.636   5.514  0.5789 -2.8632  0.7550
  800MOL0     H 7990   0.974   3.441   5.735 -0.4868  1.2576  1.5188
  800MOL0     H 7991   0.933   3.562   5.605 -1.9746  1.5273 -0.3140
  800MOL0     H 7992   0.858   3.727   5.798 -0.2049  0.2261  1.9653
  800MOL0     H 7993   1.024   3.684   5.792  0.6340  0.0158  2.3230
  800MOL0     H 7994   0.874   3.486   5.952  3.6547 -0.8316  2.4184
  800MOL0     H 7995   0.826   3.652   5.995  0.1990  1.6299  0.6049
  800MOL0     H 7996   1.018   3.552   6.132 -0.3840  0.1421  0.0391
  800MOL0     H 7997   1.044   3.715   6.068  1.4963 -0.1949 -0.4477
  800MOL0     H 7998   1.326   3.435   5.891  0.3246  1.3712  0.2767
  800MOL0     H 7999   0.537   3.397   5.805  0.8729 -3.1075 -2.6229
  800MOL0     H 8000   0.331   3.488   5.710 -1.6345  1.1219 -1.5727
  801MOL0     O 8001   9.478   7.844   2.583 -0.5317  0.1635  0.3182
  801MOL0     C 8002   9.386   7.797   2.519  0.6598  0.0480  0.3416
  801MOL0     O 8003   9.397   7.698   2.427  0.8009  0.9509 -0.0410
  801MOL0     C 8004   9.512   7.665   2.372 -0.4935 -0.4094  0.7931
  801MOL0     C 8005   9.544   7.534   2.349  0.5139  0.5080 -0.4105
  801MOL0     C 8006   9.665   7.508   2.271 -0.1109  0.4174 -0.6062
  801MOL0     C 8007   9.747   7.613   2.212  0.2039 -0.0014  0.0592
  801MOL0     O 8008   9.848   7.598   2.122  0.3697 -0.0441 -0.5156
  801MOL0     C 8009   9.922   7.474   2.136  0.7259 -0.0184 -0.0527
  801MOL0     C 8010  10.029   7.480   2.030  0.2005 -0.2775  0.1862
  801MOL0     C 8011  10.163   7.554   2.070  0.1723 -0.8166 -0.4623
  801MOL0     C 8012  10.228   7.519   2.203 -0.3588 -0.2963 -0.1519
  801MOL0     C 8013  10.342   7.609   2.240  0.4116  0.1811 -0.6098
  801MOL0     C 8014  10.296   7.757   2.277 -0.5837  0.3089  0.8424
  801MOL0     C 8015  10.411   7.832   2.335 -0.0566  0.3199 -0.5715
  801MOL0     C 8016  10.404   7.991   2.318  0.6190 -0.6783 -0.4177
  801MOL0     N 8017  10.506   8.039   2.407 -0.2454 -0.1074 -0.1067
  801MOL0     C 8018  10.640   8.006   2.405  0.1140  0.1100  0.8574
  801MOL0     C 8019  10.688   8.050   2.527 -0.7084 -0.9751  0.2820
  801MOL0     C 8020  10.826   8.035   2.582 -0.1855 -0.4856  0.2303
  801MOL0     C 8021  10.881   7.885   2.567  1.2782  0.3137  0.6151
  801MOL0     C 8022  11.013   7.840   2.624  0.0378 -0.4447  0.1642
  801MOL0     C 8023  11.127   7.938   2.579 -0.4029  0.1138  0.0942
  801MOL0     O 8024  11.252   7.883   2.620  0.1424  0.0610 -0.4215
  801MOL0     C 8025  11.292   7.869   2.755  0.3235 -0.3351  0.5823
  801MOL0     C 8026  11.222   7.931   2.857 -0.2716  0.6715  0.0879
  801MOL0     C 8027  11.252   7.910   2.997 -0.8366  0.0773 -0.8609
  801MOL0     C 8028  11.180   7.992   3.101  0.3148  0.0467 -0.9505
  801MOL0     C 8029  11.354   7.816   3.032  1.4274 -0.7175 -0.0015
  801MOL0     C 8030  11.385   7.778   3.173  0.4311  0.0680  0.1532
  801MOL0     O 8031  11.507   7.717   3.188 -0.4893  0.4323  0.1581
  801MOL0     C 8032  11.559   7.681   3.303 -0.3821  1.0336  0.3265
  801MOL0     C 8033  11.493   7.653   3.420 -0.0249  0.5921  0.0999
  801MOL0     C 8034  11.560   7.604   3.526 -0.0188 -0.2237 -0.8076
  801MOL0     C 8035  11.702   7.589   3.526  0.0007  0.0227 -0.0436
  801MOL0     O 8036  11.763   7.556   3.644  0.0379 -0.0730  0.0743
  801MOL0     C 8037  11.878   7.472   3.636  0.1955 -0.2950 -0.3815
  801MOL0     C 8038  12.014   7.540   3.646 -0.9844 -0.8919  0.0807
  801MOL0     C 8039  12.021   7.578   3.799  0.2693  0.8329 -0.1543
  801MOL0     C 8040  12.157   7.639   3.854 -0.6403  0.4358 -0.6193
  801MOL0     C 8041  12.135   7.672   4.000  0.6275 -0.6507 -0.6025
  801MOL0     C 8042  12.260   7.721   4.088 -0.6882 -0.2969  0.0397
  801MOL0     C 8043  12.400   7.659   4.057 -0.8998 -0.7938  0.6252
  801MOL0     C 8044  12.506   7.670   4.171 -0.7134  0.5640  0.0794
  801MOL0    Cl 8045  12.533   7.836   4.218 -0.4602  0.1150  0.3703
  801MOL0     C 8046  11.775   7.619   3.408 -0.4803 -0.9573  0.3072
  801MOL0     C 8047  11.702   7.674   3.297 -0.6274  0.2823 -0.0828
  801MOL0     O 8048  11.327   7.824   3.269  0.4805  0.0669 -0.7812
  801MOL0     C 8049  11.432   7.772   2.923  0.1777 -0.9728  0.1144
  801MOL0     C 8050  11.404   7.803   2.789  0.6627 -0.1477 -1.0625
  801MOL0     N 8051  10.580   8.100   2.590  0.1220 -0.5181 -0.5662
  801MOL0     N 8052  10.473   8.103   2.520 -0.6955 -0.4370  0.5782
  801MOL0     C 8053   9.712   7.746   2.254  0.3319 -0.4120 -0.2304
  801MOL0     C 8054   9.598   7.769   2.333 -0.0097 -0.2303 -0.1096
  801MOL0     C 8055   9.247   7.843   2.552 -0.0371  0.2631  0.2315
  801MOL0     C 8056   9.127   7.812   2.484 -1.5153 -0.8644  0.3680
  801MOL0     C 8057   8.999   7.859   2.506  0.7049 -0.3929 -0.7562
  801MOL0     C 8058   8.978   7.925   2.632 -0.0507 -0.9707  0.3219
  801MOL0     O 8059   8.853   7.941   2.684 -0.5630 -0.2629 -0.1345
  801MOL0     C 8060   8.835   8.037   2.789  0.5917 -0.0154  0.2217
  801MOL0     C 8061   8.837   7.961   2.917 -0.3436  0.0462  0.0034
  801MOL0     C 8062   8.773   8.034   3.033  0.2140 -0.3673 -0.1950
  801MOL0     C 8063   8.818   8.186   3.062 -0.7470  0.2200 -0.2671
  801MOL0     C 8064   8.740   8.256   3.159  0.0756 -0.2013  0.4139
  801MOL0     C 8065   8.676   8.333   3.234 -0.3015 -0.5389 -0.2512
  801MOL0     C 8066   9.096   7.964   2.698 -0.4157  0.3908 -0.5197
  801MOL0     C 8067   9.221   7.925   2.660 -0.1355 -0.1049  0.5101
  801MOL0     H 8068   9.475   7.458   2.386  1.2805 -0.1364 -0.2856
  801MOL0     H 8069   9.677   7.401   2.257  0.9316  0.7720 -3.0719
  801MOL0     H 8070   9.955   7.454   2.238 -1.4016 -1.2770  0.4478
  801MOL0     H 8071   9.856   7.391   2.108  0.6707  0.3255 -0.9990
  801MOL0     H 8072  10.068   7.381   2.006 -0.8214 -0.8585  0.8582
  801MOL0     H 8073   9.971   7.523   1.947 -1.8010  0.8055  2.0259
  801MOL0     H 8074  10.235   7.522   1.994  0.7278 -0.0049 -0.2911
  801MOL0     H 8075  10.146   7.661   2.058 -0.0726 -0.6159  1.3646
  801MOL0     H 8076  10.157   7.531   2.285  1.0972 -0.9572  1.2622
  801MOL0     H 8077  10.254   7.413   2.192 -1.2168 -0.6645  1.1247
  801MOL0     H 8078  10.395   7.569   2.327 -0.8706 -1.5545 -0.5828
  801MOL0     H 8079  10.422   7.621   2.167  1.9469  2.3490  1.2920
  801MOL0     H 8080  10.261   7.808   2.187  0.2401  2.8379  1.8866
  801MOL0     H 8081  10.213   7.756   2.348 -0.5789 -0.1769  0.8483
  801MOL0     H 8082  10.411   7.815   2.442 -0.5256  1.0770 -0.4396
  801MOL0     H 8083  10.507   7.798   2.295  1.7804  2.1068  2.0606
  801MOL0     H 8084  10.308   8.036   2.343  2.1319  1.9265  1.2168
  801MOL0     H 8085  10.435   8.027   2.219  2.5106  0.8227  0.6547
  801MOL0     H 8086  10.690   7.941   2.334 -0.7444 -2.3713  2.3879
  801MOL0     H 8087  10.897   8.103   2.533 -1.6409  0.6786 -0.3384
  801MOL0     H 8088  10.817   8.072   2.685  0.8403 -1.5012  0.7062
  801MOL0     H 8089  10.875   7.849   2.464 -0.8442  1.2935  0.3413
  801MOL0     H 8090  10.809   7.828   2.626 -1.1482  1.5192 -1.0337
  801MOL0     H 8091  11.031   7.739   2.585 -4.1356 -1.1988 -0.1889
  801MOL0     H 8092  10.995   7.826   2.731 -4.0174 -0.5236 -0.3762
  801MOL0     H 8093  11.112   8.031   2.635  0.0823 -0.6220  1.4968
  801MOL0     H 8094  11.146   7.959   2.473  1.8757 -3.9200 -0.4805
  801MOL0     H 8095  11.164   8.017   2.825  0.2330  0.5295 -1.2491
  801MOL0     H 8096  11.108   8.058   3.051  0.1661  0.9053  0.3506
  801MOL0     H 8097  11.115   7.930   3.164 -1.2629  1.5066 -1.0591
  801MOL0     H 8098  11.247   8.041   3.173  2.6597 -2.3180 -1.4037
  801MOL0     H 8099  11.386   7.652   3.438  0.1797 -0.7726  1.4848
  801MOL0     H 8100  11.506   7.577   3.616 -0.7728  2.0159 -0.5195
  801MOL0     H 8101  11.869   7.392   3.710 -0.3495  0.5570  0.4917
  801MOL0     H 8102  11.882   7.420   3.540  1.5926 -1.9334  0.5007
  801MOL0     H 8103  12.096   7.473   3.620 -0.2214  0.6334 -1.6253
  801MOL0     H 8104  12.012   7.623   3.575  0.5106 -2.9875 -2.6168
  801MOL0     H 8105  11.999   7.491   3.860  1.0175 -0.0939 -1.1607
  801MOL0     H 8106  11.946   7.653   3.824  1.2093  2.3041 -1.5234
  801MOL0     H 8107  12.228   7.557   3.841  0.0106  0.6145  1.5694
  801MOL0     H 8108  12.195   7.729   3.805  1.5382  1.3596  2.5005
  801MOL0     H 8109  12.097   7.584   4.053 -2.0980  2.0366  2.4245
  801MOL0     H 8110  12.049   7.740   4.003 -0.1016 -1.5499 -0.6389
  801MOL0     H 8111  12.274   7.829   4.084  1.1532 -0.5500 -1.6050
  801MOL0     H 8112  12.241   7.680   4.187  0.3850 -0.8714  0.0244
  801MOL0     H 8113  12.436   7.705   3.965 -2.1705  2.6419  1.6945
  801MOL0     H 8114  12.370   7.555   4.042 -3.7884 -0.2774  2.0512
  801MOL0     H 8115  12.604   7.621   4.166 -0.8525  0.2623  0.2450
  801MOL0     H 8116  12.466   7.626   4.263 -1.9413  2.7726  0.6629
  801MOL0     H 8117  11.882   7.598   3.402 -0.2393 -0.0472  1.2383
  801MOL0     H 8118  11.750   7.707   3.205  1.4810 -0.0787  0.8318
  801MOL0     H 8119  11.520   7.722   2.962  0.1928 -0.7610  0.3578
  801MOL0     H 8120  11.472   7.767   2.713  3.1042  0.1337  0.8783
  801MOL0     H 8121   9.763   7.834   2.219 -1.3311  0.7340  0.1047
  801MOL0     H 8122   9.565   7.869   2.359 -2.9562 -1.4602  1.2638
  801MOL0     H 8123   9.136   7.751   2.395 -0.7052  1.6471 -1.3690
  801MOL0     H 8124   8.907   7.831   2.457 -0.6423 -0.7294  1.7742
  801MOL0     H 8125   8.902   8.123   2.788  1.2132 -0.4278 -2.3272
  801MOL0     H 8126   8.736   8.082   2.776 -1.1125 -2.0914  4.2009
  801MOL0     H 8127   8.938   7.925   2.943 -0.0518 -0.4241 -1.6123
  801MOL0     H 8128   8.768   7.879   2.895 -0.3474  0.4355 -1.5668
  801MOL0     H 8129   8.805   7.974   3.119  3.4996  0.2223 -0.8812
  801MOL0     H 8130   8.665   8.018   3.026  0.3469 -1.2453 -0.3586
  801MOL0     H 8131   8.818   8.250   2.973  1.6344 -0.5550 -0.9002
  801MOL0     H 8132   8.921   8.184   3.099 -1.6088 -2.0450  2.3306
  801MOL0     H 8133   8.625   8.405   3.294  0.5036 -1.3735  1.5091
  801MOL0     H 8134   9.097   8.018   2.793  2.2139  0.5852 -0.5704
  801MOL0     H 8135   9.303   7.959   2.722 -0.7297  0.3260  1.0733
  802MOL0     O 8136   2.498   8.612   0.557 -0.4713  0.2787  0.5284
  802MOL0     C 8137   2.489   8.535   0.654 -0.3776 -0.2297  0.3384
  802MOL0     O 8138   2.412   8.551   0.773  0.4180 -0.4604  0.2477
  802MOL0     C 8139   2.326   8.656   0.806  1.1353  0.1078  0.2839
  802MOL0     C 8140   2.238   8.639   0.920 -0.3814 -1.5772 -0.2652
  802MOL0     C 8141   2.152   8.746   0.955 -0.4011  0.7777 -0.8423
  802MOL0     C 8142   2.174   8.871   0.903  0.8319 -0.4470 -0.3891
  802MOL0     O 8143   2.083   8.968   0.945  0.2075 -0.1665 -0.3224
  802MOL0     C 8144   2.083   9.103   0.899 -0.4295 -0.5214 -0.0628
  802MOL0     C 8145   1.973   9.182   0.968  0.0557 -0.9427  0.0853
  802MOL0     C 8146   1.833   9.123   0.940 -0.1653  0.1360 -0.1932
  802MOL0     C 8147   1.729   9.206   1.008 -0.0257  0.0004  0.0718
  802MOL0     C 8148   1.584   9.198   0.942 -0.1298 -0.0173  0.1493
  802MOL0     C 8149   1.540   9.049   0.916 -0.4846 -0.2987 -0.8714
  802MOL0     C 8150   1.416   9.070   0.821 -0.2094  0.1921 -0.2975
  802MOL0     C 8151   1.303   8.977   0.830 -0.0210 -0.2764  0.4041
  802MOL0     N 8152   1.224   9.030   0.943  1.1322  0.3717 -0.0526
  802MOL0     C 8153   1.225   8.981   1.068  0.0127  0.6915 -0.8622
  802MOL0     C 8154   1.133   9.051   1.130 -0.1466 -0.0174 -0.2265
  802MOL0     C 8155   1.084   9.031   1.270  0.6212 -0.2226  0.2821
  802MOL0     C 8156   1.091   9.138   1.386  0.7112  0.0243 -0.0150
  802MOL0     C 8157   1.037   9.269   1.340 -0.0294  0.0899  0.7715
  802MOL0     C 8158   0.882   9.272   1.309  0.2474 -0.2149 -0.4057
  802MOL0     O 8159   0.792   9.208   1.401 -0.0712 -0.2540 -0.1897
  802MOL0     C 8160   0.658   9.204   1.353  0.2424  0.2939 -0.2634
  802MOL0     C 8161   0.568   9.185   1.455 -0.2520  0.1754  1.2479
  802MOL0     C 8162   0.438   9.215   1.451  0.2849  0.4033 -0.0305
  802MOL0     C 8163   0.362   9.188   1.575 -0.0287  0.7958 -0.1157
  802MOL0     C 8164   0.384   9.242   1.327  0.1224  0.0213 -0.1290
  802MOL0     C 8165   0.241   9.265   1.296 -0.1818  0.0427 -0.6382
  802MOL0     O 8166   0.201   9.244   1.168  0.9274 -0.0143  0.1561
  802MOL0     C 8167   0.069   9.274   1.128 -1.0721 -0.9573  0.4522
  802MOL0     C 8168  -0.050   9.269   1.200  0.0898  0.6946  0.2726
  802MOL0     C 8169  -0.174   9.304   1.134 -0.5206  0.6323  0.1332
  802MOL0     C 8170  -0.179   9.348   0.997 -0.9514 -0.0667 -0.4831
  802MOL0     O 8171  -0.296   9.388   0.954  0.3983 -0.1748  0.1239
  802MOL0     C 8172  -0.302   9.443   0.821 -0.0291 -0.1214 -0.1765
  802MOL0     C 8173  -0.431   9.515   0.795 -0.3548 -0.8800  0.2170
  802MOL0     C 8174  -0.569   9.455   0.821  0.1027 -0.4418  0.3120
  802MOL0     C 8175  -0.679   9.560   0.835 -1.0596  0.0620 -0.1389
  802MOL0     C 8176  -0.825   9.507   0.836 -0.0095 -0.0031  0.1207
  802MOL0     C 8177  -0.927   9.628   0.856 -0.1723 -0.4169  0.0487
  802MOL0     C 8178  -0.932   9.685   1.004  0.1842  0.4460  0.8254
  802MOL0     C 8179  -0.995   9.824   0.998  0.2431 -0.1666 -0.0320
  802MOL0    Cl 8180  -1.151   9.821   0.915 -0.1092  0.1813  0.4268
  802MOL0     C 8181  -0.053   9.351   0.932  0.2338  0.2126 -0.1518
  802MOL0     C 8182   0.067   9.315   0.996 -0.2365  0.9308 -0.1217
  802MOL0     O 8183   0.178   9.325   1.384 -0.0386 -0.3984 -0.1969
  802MOL0     C 8184   0.475   9.250   1.216 -0.2273  0.4435 -0.8879
  802MOL0     C 8185   0.609   9.241   1.230 -0.4308 -0.7290  0.8523
  802MOL0     N 8186   1.078   9.140   1.034 -0.0510 -0.0125  0.1616
  802MOL0     N 8187   1.132   9.119   0.921  0.2570 -0.5176 -0.4264
  802MOL0     C 8188   2.271   8.892   0.809  0.2999  0.5226  0.2677
  802MOL0     C 8189   2.340   8.787   0.752 -0.2615 -0.4223 -0.6045
  802MOL0     C 8190   2.560   8.409   0.647 -0.3966  0.0851  0.4606
  802MOL0     C 8191   2.541   8.312   0.748 -1.2547 -0.3413 -0.6765
  802MOL0     C 8192   2.617   8.196   0.750 -0.0579  0.0056  0.5532
  802MOL0     C 8193   2.704   8.166   0.648  0.1325  0.5901 -0.1334
  802MOL0     O 8194   2.788   8.058   0.657 -0.0125  0.4087 -0.4553
  802MOL0     C 8195   2.928   8.078   0.623  0.4591 -0.4591 -0.1968
  802MOL0     C 8196   3.007   7.955   0.680  0.0397 -0.3681 -0.1735
  802MOL0     C 8197   3.160   7.977   0.687 -0.1768  0.0161 -0.4552
  802MOL0     C 8198   3.230   7.844   0.721 -0.0830  0.1586 -0.2175
  802MOL0     C 8199   3.202   7.797   0.862  1.1641  0.8882  0.4861
  802MOL0     C 8200   3.186   7.759   0.977 -0.9399  0.5389  0.8202
  802MOL0     C 8201   2.712   8.255   0.530  0.5080  0.1645 -0.8387
  802MOL0     C 8202   2.644   8.373   0.540 -0.3630 -0.5485 -0.3311
  802MOL0     H 8203   2.240   8.547   0.977  0.0300 -1.7032 -0.4734
  802MOL0     H 8204   2.080   8.732   1.035  0.2038 -0.3693 -0.4816
  802MOL0     H 8205   2.177   9.151   0.931 -2.2576  1.6844  2.4703
  802MOL0     H 8206   2.073   9.099   0.790 -1.2703 -0.3289 -0.0003
  802MOL0     H 8207   1.981   9.195   1.077  0.8698  0.3891 -0.1080
  802MOL0     H 8208   1.977   9.285   0.931 -0.1738 -0.3426  1.6197
  802MOL0     H 8209   1.809   9.111   0.834  1.2133 -0.6651 -0.4346
  802MOL0     H 8210   1.832   9.022   0.982  2.6250 -0.8946 -2.2496
  802MOL0     H 8211   1.732   9.177   1.114 -0.2646  0.5188  0.2233
  802MOL0     H 8212   1.757   9.310   0.988  1.5250 -0.5647 -0.8086
  802MOL0     H 8213   1.514   9.253   1.005 -1.6214 -3.1196  1.3822
  802MOL0     H 8214   1.572   9.247   0.844  1.5320 -1.8156 -1.0426
  802MOL0     H 8215   1.611   8.989   0.858 -0.0912  1.7118 -2.5949
  802MOL0     H 8216   1.538   8.997   1.012  3.3280  2.2975  0.8516
  802MOL0     H 8217   1.371   9.170   0.827 -2.6958 -0.9103  0.4529
  802MOL0     H 8218   1.458   9.065   0.720  2.7189  1.7724  0.6907
  802MOL0     H 8219   1.343   8.875   0.836  0.6190 -0.1410 -1.1747
  802MOL0     H 8220   1.243   8.984   0.738  0.4483 -0.5691  0.0684
  802MOL0     H 8221   1.281   8.896   1.105 -1.0288 -0.6583 -2.2476
  802MOL0     H 8222   0.979   9.003   1.258  0.6905  0.0167 -1.0285
  802MOL0     H 8223   1.141   8.945   1.307  1.8894  0.3378 -0.3027
  802MOL0     H 8224   1.193   9.126   1.425  0.2849 -0.3155  1.0232
  802MOL0     H 8225   1.017   9.115   1.463 -1.2724  4.9014 -0.1578
  802MOL0     H 8226   1.091   9.314   1.256 -3.2153  0.2439 -1.3686
  802MOL0     H 8227   1.045   9.341   1.422  1.8110  2.4430 -1.3021
  802MOL0     H 8228   0.889   9.243   1.203  2.9766 -0.3386 -0.2619
  802MOL0     H 8229   0.854   9.378   1.314  0.4342 -0.2127  0.7584
  802MOL0     H 8230   0.606   9.155   1.552 -0.7777  0.5174  1.5668
  802MOL0     H 8231   0.348   9.082   1.596 -0.9043  1.3900  2.7102
  802MOL0     H 8232   0.417   9.223   1.662 -0.7676 -1.4385  1.3204
  802MOL0     H 8233   0.263   9.235   1.578  0.3060  1.5880 -1.0044
  802MOL0     H 8234  -0.051   9.233   1.302 -0.1329 -1.3790 -0.4298
  802MOL0     H 8235  -0.260   9.291   1.198 -1.8887 -2.1828 -2.0258
  802MOL0     H 8236  -0.219   9.509   0.797  0.4489 -1.1439 -1.3820
  802MOL0     H 8237  -0.289   9.362   0.749 -0.5218 -1.1584  0.8535
  802MOL0     H 8238  -0.432   9.613   0.844 -3.1638 -1.3157  1.2520
  802MOL0     H 8239  -0.422   9.524   0.686  1.7245  0.1213  0.4167
  802MOL0     H 8240  -0.562   9.391   0.910  0.1653 -2.7444 -1.2581
  802MOL0     H 8241  -0.602   9.399   0.733  0.8667  4.0919 -3.2305
  802MOL0     H 8242  -0.662   9.608   0.932  0.7462  2.6431 -1.6097
  802MOL0     H 8243  -0.673   9.635   0.756  3.4818  2.8625  2.3618
  802MOL0     H 8244  -0.852   9.437   0.916 -1.5710 -1.3594 -1.5003
  802MOL0     H 8245  -0.845   9.452   0.744  0.9223  0.4959 -0.4019
  802MOL0     H 8246  -0.900   9.707   0.785  1.3325 -2.3627 -1.6926
  802MOL0     H 8247  -1.024   9.593   0.820  0.4148  1.0223 -3.2947
  802MOL0     H 8248  -0.833   9.698   1.048  0.7629 -0.5726 -0.1482
  802MOL0     H 8249  -0.993   9.620   1.068 -0.5767  2.6140  2.4178
  802MOL0     H 8250  -0.927   9.884   0.936 -0.4787 -0.5626 -1.2387
  802MOL0     H 8251  -1.006   9.864   1.099  0.3615 -2.0281  0.7472
  802MOL0     H 8252  -0.040   9.376   0.827  1.3337 -0.3230 -0.1590
  802MOL0     H 8253   0.156   9.303   0.935  1.7094  0.8188  2.5657
  802MOL0     H 8254   0.428   9.273   1.121 -0.2146  4.2386 -0.1215
  802MOL0     H 8255   0.679   9.265   1.151 -1.4432 -0.1149  0.1210
  802MOL0     H 8256   2.277   8.992   0.767 -0.2607  0.7311  0.6588
  802MOL0     H 8257   2.411   8.808   0.672  0.0233 -3.4496 -1.2858
  802MOL0     H 8258   2.475   8.331   0.831  0.5606  1.6111  0.4132
  802MOL0     H 8259   2.599   8.122   0.828  0.1296 -0.5246  0.1006
  802MOL0     H 8260   2.949   8.095   0.517 -0.1202  0.9841 -0.1128
  802MOL0     H 8261   2.950   8.168   0.682  2.2288  1.2827 -3.2497
  802MOL0     H 8262   2.985   7.878   0.606  1.1723  1.1604 -2.1846
  802MOL0     H 8263   2.965   7.940   0.780 -0.5162  0.8233 -0.2055
  802MOL0     H 8264   3.191   8.055   0.757  0.1326  1.6822 -2.3610
  802MOL0     H 8265   3.186   8.018   0.589  3.3185 -1.2119 -0.1715
  802MOL0     H 8266   3.337   7.869   0.720 -0.2578  1.1401  1.5288
  802MOL0     H 8267   3.211   7.765   0.648  0.2243  0.2710 -0.4223
  802MOL0     H 8268   3.166   7.721   1.075  1.1182 -0.5082  0.8924
  802MOL0     H 8269   2.775   8.237   0.443  0.6615 -3.2686 -0.1794
  802MOL0     H 8270   2.645   8.437   0.452 -4.9186 -1.6818 -1.4597
  803MOL0     O 8271   1.118   1.209   1.808  0.4673 -0.2095 -0.7839
  803MOL0     C 8272   1.129   1.294   1.901 -0.4546 -0.2121 -0.1423
  803MOL0     O 8273   1.025   1.362   1.963  0.7498  0.2687 -0.5341
  803MOL0     C 8274   0.890   1.340   1.931  0.2620  0.4938  0.3839
  803MOL0     C 8275   0.831   1.222   1.870  0.4842 -0.1135 -0.4298
  803MOL0     C 8276   0.697   1.222   1.839 -0.9875  0.0770  1.1119
  803MOL0     C 8277   0.612   1.333   1.856 -0.0656  0.1199 -0.0371
  803MOL0     O 8278   0.484   1.299   1.833  0.9635  0.8264  0.0920
  803MOL0     C 8279   0.389   1.397   1.829  0.4285 -0.2118  0.1004
  803MOL0     C 8280   0.258   1.336   1.781 -0.7515  0.4729 -0.1198
  803MOL0     C 8281   0.269   1.279   1.639  0.8496 -0.4769 -0.4608
  803MOL0     C 8282   0.113   1.278   1.600 -0.9548  0.0647  1.1875
  803MOL0     C 8283   0.085   1.171   1.489 -0.2184  0.0542 -0.5703
  803MOL0     C 8284  -0.049   1.186   1.427  0.5551 -0.4573  0.2383
  803MOL0     C 8285  -0.062   1.083   1.315 -0.4491 -0.8450  0.3260
  803MOL0     C 8286  -0.112   0.948   1.357 -0.0561  0.7762  0.3152
  803MOL0     N 8287  -0.142   0.867   1.236  0.1507  0.3682 -0.0539
  803MOL0     C 8288  -0.241   0.778   1.238  0.0532  0.3247  0.2122
  803MOL0     C 8289  -0.257   0.726   1.115 -1.1227 -1.2938  0.7332
  803MOL0     C 8290  -0.353   0.612   1.079 -0.5811  0.1912 -0.6227
  803MOL0     C 8291  -0.503   0.649   1.088  0.4747 -0.8668 -0.1484
  803MOL0     C 8292  -0.540   0.745   0.966 -0.1987  0.0200 -0.0881
  803MOL0     C 8293  -0.674   0.731   0.902 -0.1095  0.5057  0.3171
  803MOL0     O 8294  -0.776   0.711   1.005  0.2569  0.2864  0.8772
  803MOL0     C 8295  -0.909   0.724   0.972  0.7864 -0.3497 -0.4956
  803MOL0     C 8296  -0.998   0.740   1.079 -1.0585 -0.2942 -0.3365
  803MOL0     C 8297  -1.134   0.770   1.063  0.3773 -0.2440  0.7986
  803MOL0     C 8298  -1.211   0.787   1.189 -0.4722 -0.2810 -1.0390
  803MOL0     C 8299  -1.187   0.786   0.925  0.7907  0.4253 -1.0392
  803MOL0     C 8300  -1.323   0.829   0.894 -0.1082  0.0020 -0.2850
  803MOL0     O 8301  -1.346   0.898   0.777 -0.5755  1.1358  0.2901
  803MOL0     C 8302  -1.470   0.922   0.730  0.6118  0.1272 -1.0711
  803MOL0     C 8303  -1.481   1.023   0.631 -0.6534  0.3591 -0.0444
  803MOL0     C 8304  -1.599   1.079   0.584 -0.3912  0.1009 -0.3347
  803MOL0     C 8305  -1.719   1.024   0.628  0.3815  0.1387  0.0192
  803MOL0     O 8306  -1.851   1.063   0.594 -0.7358 -0.3260 -0.4824
  803MOL0     C 8307  -1.860   1.197   0.535 -0.3880  0.0448  0.4455
  803MOL0     C 8308  -2.005   1.239   0.544 -0.1279  0.4512 -1.1750
  803MOL0     C 8309  -2.030   1.368   0.624 -0.6778 -0.1059 -0.1530
  803MOL0     C 8310  -2.170   1.419   0.590  0.6245 -0.5057  0.3809
  803MOL0     C 8311  -2.209   1.546   0.652 -0.4682  0.3696 -0.4502
  803MOL0     C 8312  -2.355   1.594   0.630  0.3889 -0.1280  0.3436
  803MOL0     C 8313  -2.391   1.722   0.703  0.7063 -0.1653  0.3141
  803MOL0     C 8314  -2.541   1.768   0.695 -0.9421 -0.4526  0.0391
  803MOL0    Cl 8315  -2.579   1.796   0.521 -0.3036  0.2097 -0.4290
  803MOL0     C 8316  -1.718   0.908   0.709 -0.0666  0.0519 -0.1937
  803MOL0     C 8317  -1.597   0.864   0.769 -0.3798 -0.4145  0.1804
  803MOL0     O 8318  -1.406   0.809   0.988 -0.1084  0.1410  1.4586
  803MOL0     C 8319  -1.094   0.760   0.826  0.7416  0.2374  0.4372
  803MOL0     C 8320  -0.956   0.732   0.845  0.4172  0.1727 -0.4387
  803MOL0     N 8321  -0.161   0.793   1.036 -0.0421  0.9844 -0.3861
  803MOL0     N 8322  -0.087   0.867   1.108  0.1341 -0.8782  0.6095
  803MOL0     C 8323   0.669   1.447   1.915 -1.0570 -0.1142 -0.0989
  803MOL0     C 8324   0.808   1.448   1.954  0.1761  0.3662 -0.4578
  803MOL0     C 8325   1.268   1.286   1.965  0.0236 -0.2513  0.2458
  803MOL0     C 8326   1.310   1.379   2.068  0.5567  0.7444  0.4629
  803MOL0     C 8327   1.426   1.370   2.142 -0.3887  0.0103 -0.7549
  803MOL0     C 8328   1.518   1.281   2.105  0.6934 -0.4376  0.9336
  803MOL0     O 8329   1.646   1.274   2.151 -0.0148 -0.1087 -0.0278
  803MOL0     C 8330   1.704   1.406   2.174 -0.1868 -0.1289 -0.6068
  803MOL0     C 8331   1.857   1.387   2.195  0.4889  0.1861 -0.4683
  803MOL0     C 8332   1.904   1.260   2.261 -0.8666  0.3349 -0.9548
  803MOL0     C 8333   2.060   1.280   2.278  0.8794 -0.5165 -1.0298
  803MOL0     C 8334   2.120   1.246   2.151  0.4669  1.5025  0.4527
  803MOL0     C 8335   2.184   1.209   2.049 -0.1085  0.7479 -0.5978
  803MOL0     C 8336   1.487   1.173   2.016  0.6003  0.1630 -0.7145
  803MOL0     C 8337   1.362   1.181   1.946  0.3966 -0.0436  0.5718
  803MOL0     H 8338   0.899   1.139   1.855  1.6270  0.7806 -0.3078
  803MOL0     H 8339   0.663   1.126   1.801 -2.1279  1.0797 -0.5551
  803MOL0     H 8340   0.363   1.419   1.933 -1.4746 -0.9316 -0.1731
  803MOL0     H 8341   0.419   1.483   1.769 -0.2077 -0.1018 -0.0705
  803MOL0     H 8342   0.234   1.256   1.852  0.8534 -0.3206 -0.4145
  803MOL0     H 8343   0.186   1.418   1.784 -0.3277  0.8391  0.4236
  803MOL0     H 8344   0.325   1.342   1.569 -1.3439  2.4971  0.2688
  803MOL0     H 8345   0.297   1.174   1.642  1.0711 -0.3989  0.4394
  803MOL0     H 8346   0.051   1.265   1.689  0.4803  0.0857  2.2127
  803MOL0     H 8347   0.092   1.378   1.561 -0.6623  0.7442  2.6905
  803MOL0     H 8348   0.167   1.175   1.417  0.4181 -1.3103  0.0328
  803MOL0     H 8349   0.090   1.067   1.524 -1.9589 -0.3411 -1.3796
  803MOL0     H 8350  -0.131   1.188   1.500  0.6320 -0.4373  0.3228
  803MOL0     H 8351  -0.056   1.286   1.386 -1.1122 -1.2884 -1.6974
  803MOL0     H 8352  -0.131   1.120   1.238  0.8185 -0.2443 -0.5549
  803MOL0     H 8353   0.037   1.080   1.269 -1.5912 -2.9528 -2.2930
  803MOL0     H 8354  -0.206   0.967   1.408 -0.1180  2.0309 -0.2337
  803MOL0     H 8355  -0.039   0.890   1.415 -0.7763 -1.3711 -0.8143
  803MOL0     H 8356  -0.297   0.735   1.321 -1.4317 -1.4694 -1.6030
  803MOL0     H 8357  -0.330   0.574   0.979 -0.0553 -0.6252 -0.2009
  803MOL0     H 8358  -0.324   0.528   1.144  4.4710  1.0258 -1.3511
  803MOL0     H 8359  -0.521   0.701   1.183  0.7123  0.6573 -0.9192
  803MOL0     H 8360  -0.561   0.556   1.094 -1.9911  0.5026 -1.5009
  803MOL0     H 8361  -0.472   0.718   0.884  0.3709 -4.7000  1.6587
  803MOL0     H 8362  -0.523   0.851   0.986 -0.0311  0.1034 -0.6390
  803MOL0     H 8363  -0.664   0.641   0.840 -0.1334 -0.0655  1.1366
  803MOL0     H 8364  -0.698   0.820   0.842  3.7605  1.1307 -0.5226
  803MOL0     H 8365  -0.954   0.722   1.177 -2.5512 -1.3506  0.1810
  803MOL0     H 8366  -1.275   0.699   1.203 -1.7224  0.7525 -0.0450
  803MOL0     H 8367  -1.153   0.782   1.281 -2.4061  2.2070  0.4052
  803MOL0     H 8368  -1.262   0.883   1.192  1.4741  0.7676  1.0313
  803MOL0     H 8369  -1.392   1.075   0.598  1.0225 -2.0149  0.5293
  803MOL0     H 8370  -1.591   1.160   0.512  3.7640 -0.8263 -1.1988
  803MOL0     H 8371  -1.794   1.274   0.578  0.7955 -1.6027  1.6912
  803MOL0     H 8372  -1.826   1.207   0.432  2.3996  1.7803  1.4085
  803MOL0     H 8373  -2.036   1.258   0.441  0.4354  1.2186 -1.2094
  803MOL0     H 8374  -2.064   1.156   0.584 -1.2997  0.5275 -2.6414
  803MOL0     H 8375  -1.957   1.447   0.600 -0.9645  0.1080 -0.3239
  803MOL0     H 8376  -2.030   1.337   0.729 -2.6475  0.4841  0.0587
  803MOL0     H 8377  -2.180   1.434   0.483 -4.0619 -1.3717  0.4951
  803MOL0     H 8378  -2.238   1.336   0.613  0.9809 -1.4342 -1.7059
  803MOL0     H 8379  -2.136   1.618   0.614  0.0934 -0.5530 -1.1481
  803MOL0     H 8380  -2.202   1.540   0.761 -2.9758 -0.4847 -0.2733
  803MOL0     H 8381  -2.377   1.614   0.525 -1.0994  0.9975  0.8335
  803MOL0     H 8382  -2.425   1.518   0.667 -1.3325  0.4793 -1.4770
  803MOL0     H 8383  -2.334   1.806   0.663 -1.6958  1.3559 -0.1046
  803MOL0     H 8384  -2.356   1.702   0.804 -0.6731 -0.9796  0.6570
  803MOL0     H 8385  -2.558   1.861   0.751 -1.4972 -0.2205 -0.4994
  803MOL0     H 8386  -2.605   1.688   0.732 -0.4901 -1.5189 -1.4061
  803MOL0     H 8387  -1.816   0.873   0.739  0.4183 -0.2534  1.1030
  803MOL0     H 8388  -1.598   0.802   0.858 -1.9555  1.8448  1.8585
  803MOL0     H 8389  -1.136   0.746   0.728 -1.3844 -0.3272  1.3862
  803MOL0     H 8390  -0.886   0.723   0.763  0.9215 -0.2194  0.0293
  803MOL0     H 8391   0.608   1.529   1.950 -0.4698 -0.2183  1.2105
  803MOL0     H 8392   0.851   1.530   2.011 -0.7553  2.1851 -2.2139
  803MOL0     H 8393   1.248   1.461   2.103  1.6088  1.9597 -0.4545
  803MOL0     H 8394   1.452   1.428   2.230  0.5097 -1.1616 -0.2194
  803MOL0     H 8395   1.688   1.472   2.088  3.5753  2.6934  0.5921
  803MOL0     H 8396   1.666   1.450   2.266  3.7780  1.1218  0.6317
  803MOL0     H 8397   1.880   1.478   2.251 -0.8165 -0.1059  0.5811
  803MOL0     H 8398   1.899   1.395   2.095  0.1957  0.8619 -0.5364
  803MOL0     H 8399   1.881   1.168   2.207 -1.0140  0.8867 -1.8471
  803MOL0     H 8400   1.858   1.263   2.361  2.6896  2.1599  0.8336
  803MOL0     H 8401   2.084   1.221   2.366  1.8011 -0.6276 -1.3496
  803MOL0     H 8402   2.071   1.385   2.310  2.6551 -0.8571 -0.4072
  803MOL0     H 8403   2.237   1.156   1.973  2.1633 -0.9442  1.9458
  803MOL0     H 8404   1.569   1.112   1.981  0.2203 -1.0814  0.5027
  803MOL0     H 8405   1.352   1.109   1.865  2.0220 -0.5116  0.7548
  804MOL0     O 8406   0.509   1.997   4.583 -0.0496  0.0095  0.0835
  804MOL0     C 8407   0.601   2.060   4.529  0.3171 -0.1476  0.1076
  804MOL0     O 8408   0.583   2.126   4.406 -0.3653 -0.0316 -0.7014
  804MOL0     C 8409   0.473   2.096   4.325  0.3425  0.2285  0.2289
  804MOL0     C 8410   0.337   2.080   4.367 -0.4609 -0.0940 -0.1516
  804MOL0     C 8411   0.233   2.070   4.281 -0.1962 -0.3519  0.4656
  804MOL0     C 8412   0.256   2.072   4.147 -0.9978  0.5932 -0.7509
  804MOL0     O 8413   0.157   2.066   4.048 -0.3261  0.8644 -0.3347
  804MOL0     C 8414   0.019   2.039   4.080  0.2621 -0.2299  1.2648
  804MOL0     C 8415  -0.066   2.162   4.097  0.7159 -0.6294  0.1161
  804MOL0     C 8416  -0.140   2.209   3.965 -0.3356 -0.1251 -0.0356
  804MOL0     C 8417  -0.219   2.333   4.004 -0.5131  0.7403 -0.5071
  804MOL0     C 8418  -0.312   2.384   3.905 -0.4014  0.2806  0.2099
  804MOL0     C 8419  -0.436   2.301   3.885 -0.3483  0.1187  0.0342
  804MOL0     C 8420  -0.546   2.321   3.991  0.2658  0.0347  0.1580
  804MOL0     C 8421  -0.680   2.269   3.953  0.7317  1.0146 -0.1862
  804MOL0     N 8422  -0.782   2.290   4.053  0.0296  0.9033 -0.5078
  804MOL0     C 8423  -0.905   2.244   4.035  0.1972  0.4992  0.1788
  804MOL0     C 8424  -0.975   2.294   4.139 -0.3588  0.1104 -0.4408
  804MOL0     C 8425  -1.121   2.272   4.190  0.3031  0.2159 -0.7201
  804MOL0     C 8426  -1.206   2.370   4.116  0.2878 -1.1349 -0.5347
  804MOL0     C 8427  -1.348   2.330   4.135  0.6465  0.7090 -0.7714
  804MOL0     C 8428  -1.451   2.434   4.075  0.0691  0.5580  0.3537
  804MOL0     O 8429  -1.577   2.368   4.065 -0.1832  0.1644 -0.6667
  804MOL0     C 8430  -1.693   2.447   4.044 -0.0673  0.6516 -0.2159
  804MOL0     C 8431  -1.791   2.389   3.960  0.9395  0.1063 -0.5393
  804MOL0     C 8432  -1.915   2.463   3.940 -0.0435  0.4171 -0.2458
  804MOL0     C 8433  -2.030   2.390   3.872 -0.3931  1.6335  0.4619
  804MOL0     C 8434  -1.939   2.582   4.017 -0.0631  0.0994 -0.5781
  804MOL0     C 8435  -2.069   2.660   4.022  0.4357 -0.1030  0.1410
  804MOL0     O 8436  -2.183   2.622   3.958 -0.1739 -0.0540  0.1666
  804MOL0     C 8437  -2.282   2.718   3.953 -0.3166  1.1548 -0.7323
  804MOL0     C 8438  -2.313   2.764   3.826  0.1673  0.2054  0.0935
  804MOL0     C 8439  -2.394   2.872   3.803  0.8406 -0.6697  0.1402
  804MOL0     C 8440  -2.468   2.922   3.913 -0.7607  0.7257 -0.2909
  804MOL0     O 8441  -2.548   3.024   3.911  0.2168 -0.6765  0.8843
  804MOL0     C 8442  -2.527   3.124   3.804 -0.0883  0.1531  0.2207
  804MOL0     C 8443  -2.598   3.254   3.828  0.4564  0.2810 -0.2104
  804MOL0     C 8444  -2.516   3.361   3.753 -0.1843 -0.2444  0.0746
  804MOL0     C 8445  -2.497   3.336   3.595  0.1398 -0.0602  0.2193
  804MOL0     C 8446  -2.418   3.439   3.524 -0.5002  0.2747 -0.1563
  804MOL0     C 8447  -2.456   3.444   3.378 -0.8806 -0.4643 -0.2443
  804MOL0     C 8448  -2.388   3.572   3.319 -0.4680 -0.4100  0.7469
  804MOL0     C 8449  -2.431   3.622   3.183 -0.0880 -0.2785 -0.4830
  804MOL0    Cl 8450  -2.590   3.688   3.199  0.0168 -0.0252  0.3248
  804MOL0     C 8451  -2.440   2.872   4.039 -0.1695 -0.3348 -0.6637
  804MOL0     C 8452  -2.349   2.769   4.060  0.5627  1.1184  0.2892
  804MOL0     O 8453  -2.059   2.763   4.078  0.4043  0.3783 -0.4327
  804MOL0     C 8454  -1.833   2.634   4.093 -0.2308  0.5623 -0.5844
  804MOL0     C 8455  -1.713   2.570   4.109 -0.4361  0.3408  0.1883
  804MOL0     N 8456  -0.889   2.385   4.201 -0.2959 -0.7985 -0.0454
  804MOL0     N 8457  -0.775   2.381   4.143 -0.2313  0.1744  0.2730
  804MOL0     C 8458   0.388   2.096   4.095 -0.1053  0.6500  0.7437
  804MOL0     C 8459   0.495   2.113   4.182  0.1630  0.4045 -0.5147
  804MOL0     C 8460   0.737   2.053   4.583  0.8411  0.4811  0.0481
  804MOL0     C 8461   0.767   1.974   4.697  0.5961  0.7635  0.7232
  804MOL0     C 8462   0.882   1.988   4.770  0.5351  0.8426 -0.1364
  804MOL0     C 8463   0.981   2.073   4.725 -0.4648  0.0579 -0.3132
  804MOL0     O 8464   1.106   2.079   4.791  0.0103  0.6064  0.1016
  804MOL0     C 8465   1.196   2.191   4.777  0.0168 -0.0589  0.2427
  804MOL0     C 8466   1.252   2.219   4.915 -0.1002 -0.4468 -0.3203
  804MOL0     C 8467   1.145   2.279   5.006  0.1568  0.6324  0.1882
  804MOL0     C 8468   1.131   2.425   4.996  0.9113 -0.8396 -0.5043
  804MOL0     C 8469   1.024   2.466   5.097 -0.7854 -0.0433  0.1212
  804MOL0     C 8470   0.945   2.486   5.182 -0.7418 -0.4040 -0.7332
  804MOL0     C 8471   0.949   2.152   4.613 -0.3142  0.4587 -0.1414
  804MOL0     C 8472   0.831   2.144   4.540 -0.3493 -0.1251  0.4354
  804MOL0     H 8473   0.311   2.091   4.472  0.6869 -1.6071  0.3401
  804MOL0     H 8474   0.130   2.078   4.316 -0.2867 -1.0774  0.3821
  804MOL0     H 8475  -0.021   1.972   4.004 -0.0968  0.0366  1.2161
  804MOL0     H 8476   0.012   1.986   4.176  0.4865 -0.3658  1.2075
  804MOL0     H 8477  -0.141   2.138   4.172 -1.5123  2.1558 -1.0118
  804MOL0     H 8478  -0.014   2.245   4.147 -0.6463 -1.1403  2.5409
  804MOL0     H 8479  -0.074   2.247   3.886 -0.1243  4.9910  2.2111
  804MOL0     H 8480  -0.209   2.131   3.932 -1.6952  0.8304  0.4961
  804MOL0     H 8481  -0.269   2.316   4.100  1.5322 -0.8832  0.3542
  804MOL0     H 8482  -0.141   2.409   4.011  0.8070 -0.0171 -4.4642
  804MOL0     H 8483  -0.343   2.484   3.936 -2.8873 -0.5440  0.6557
  804MOL0     H 8484  -0.260   2.396   3.809  1.5292  1.9007  1.3848
  804MOL0     H 8485  -0.475   2.331   3.787  0.2998 -0.2557 -0.3406
  804MOL0     H 8486  -0.413   2.196   3.868  1.2032  0.8073 -2.7188
  804MOL0     H 8487  -0.513   2.284   4.089  0.2737  1.5719  0.7547
  804MOL0     H 8488  -0.557   2.429   4.005 -2.0325 -0.3603  1.9248
  804MOL0     H 8489  -0.671   2.160   3.951 -0.4597  0.8202  1.8432
  804MOL0     H 8490  -0.718   2.306   3.857  1.2144 -0.2809 -0.9027
  804MOL0     H 8491  -0.940   2.188   3.949 -1.2671  0.7883  0.5684
  804MOL0     H 8492  -1.154   2.168   4.186 -0.6377  0.4226  0.7892
  804MOL0     H 8493  -1.137   2.287   4.297  1.3031  0.4808 -0.5941
  804MOL0     H 8494  -1.174   2.376   4.011 -0.9647 -0.8677 -0.9222
  804MOL0     H 8495  -1.189   2.468   4.161  1.7211 -1.0011 -1.2928
  804MOL0     H 8496  -1.375   2.338   4.240 -2.6328 -0.6609 -1.4047
  804MOL0     H 8497  -1.373   2.234   4.090 -0.3510 -0.9853  3.0244
  804MOL0     H 8498  -1.409   2.462   3.978 -2.1200 -0.1797 -0.8762
  804MOL0     H 8499  -1.450   2.520   4.143 -3.4586  0.9511  0.0602
  804MOL0     H 8500  -1.777   2.289   3.921 -0.3142 -0.2306 -0.1575
  804MOL0     H 8501  -2.052   2.421   3.770 -1.4684 -1.3473 -0.3045
  804MOL0     H 8502  -2.006   2.283   3.868 -1.0115  1.4999  0.2742
  804MOL0     H 8503  -2.119   2.392   3.935 -1.3911  2.3694 -0.9385
  804MOL0     H 8504  -2.264   2.724   3.738 -3.2109 -2.1078 -0.9291
  804MOL0     H 8505  -2.402   2.893   3.697 -1.2681 -3.6459 -0.4018
  804MOL0     H 8506  -2.421   3.141   3.788 -0.2768  0.1172 -1.1663
  804MOL0     H 8507  -2.567   3.076   3.714  1.7827  0.1259 -0.6347
  804MOL0     H 8508  -2.703   3.252   3.796  0.0522 -0.1053  1.0732
  804MOL0     H 8509  -2.598   3.277   3.935 -0.4406  3.0545 -0.7314
  804MOL0     H 8510  -2.423   3.358   3.809 -0.2549  1.4802  0.3399
  804MOL0     H 8511  -2.565   3.458   3.763 -0.3569 -0.1640 -1.3330
  804MOL0     H 8512  -2.440   3.246   3.573  1.8641  0.9936  0.1994
  804MOL0     H 8513  -2.593   3.331   3.542  0.7882 -2.2139 -0.8382
  804MOL0     H 8514  -2.310   3.425   3.538 -0.8366 -0.8735  1.5496
  804MOL0     H 8515  -2.426   3.538   3.571  1.6843  0.7594 -0.6792
  804MOL0     H 8516  -2.423   3.351   3.332  1.3673  1.2287 -2.2534
  804MOL0     H 8517  -2.565   3.453   3.369 -0.6538  3.2221 -1.0449
  804MOL0     H 8518  -2.284   3.542   3.309  0.3184  1.2550  2.9157
  804MOL0     H 8519  -2.406   3.656   3.387  3.4057 -0.1318  1.6307
  804MOL0     H 8520  -2.434   3.537   3.115 -3.4798  0.2075 -1.1707
  804MOL0     H 8521  -2.361   3.698   3.148 -0.7122 -0.6670 -2.7214
  804MOL0     H 8522  -2.490   2.906   4.129  1.6884 -0.2873  0.4009
  804MOL0     H 8523  -2.326   2.734   4.160  3.7754 -1.0876 -1.0593
  804MOL0     H 8524  -1.844   2.715   4.164  2.5480 -0.0484  0.6730
  804MOL0     H 8525  -1.643   2.605   4.185 -2.4838  0.7977  1.9439
  804MOL0     H 8526   0.392   2.105   3.987 -1.0449 -1.7992  0.4364
  804MOL0     H 8527   0.591   2.133   4.136  0.5721  1.0631  0.5997
  804MOL0     H 8528   0.686   1.914   4.738  0.8175 -1.4896 -1.8563
  804MOL0     H 8529   0.900   1.927   4.858  1.5517  3.2241  1.4337
  804MOL0     H 8530   1.278   2.151   4.715  0.6023 -0.1512  1.0604
  804MOL0     H 8531   1.151   2.280   4.733 -4.4471 -1.2005  1.9752
  804MOL0     H 8532   1.335   2.289   4.908 -2.2061  2.1690 -0.8259
  804MOL0     H 8533   1.279   2.126   4.965 -3.2513 -0.1437  2.3024
  804MOL0     H 8534   1.180   2.259   5.108 -0.2822 -3.5341 -0.2977
  804MOL0     H 8535   1.049   2.226   5.000  0.3494  0.4257 -1.3149
  804MOL0     H 8536   1.105   2.465   4.897 -1.2470  0.0911  0.3583
  804MOL0     H 8537   1.227   2.469   5.024  1.1373  0.2463 -2.7510
  804MOL0     H 8538   0.863   2.518   5.243 -2.4775 -0.7768 -2.7494
  804MOL0     H 8539   1.022   2.220   4.570 -2.0186  1.5128 -1.4537
  804MOL0     H 8540   0.807   2.220   4.467  1.1890  1.3091  1.3407
  805MOL0     O 8541   8.705   9.394   2.165  0.0167  0.0201 -0.0083
  805MOL0     C 8542   8.738   9.461   2.265  0.0532 -0.5625  0.3308
  805MOL0     O 8543   8.683   9.580   2.303  0.3474  0.1215 -0.8581
  805MOL0     C 8544   8.559   9.618   2.256 -0.4750 -0.0130  1.1251
  805MOL0     C 8545   8.454   9.528   2.272  0.7974  0.0208 -1.0449
  805MOL0     C 8546   8.326   9.560   2.232  0.3850 -0.7513 -0.3298
  805MOL0     C 8547   8.297   9.689   2.166  0.0680  0.2306 -0.0041
  805MOL0     O 8548   8.174   9.723   2.111 -0.5126  0.2205 -0.1319
  805MOL0     C 8549   8.078   9.621   2.093  0.1202  0.4351 -0.4396
  805MOL0     C 8550   7.970   9.669   2.009  0.2027 -0.6119 -0.3900
  805MOL0     C 8551   7.848   9.581   2.034 -0.7184  0.0768  0.7642
  805MOL0     C 8552   7.747   9.624   1.923  0.6129 -0.1157 -0.1724
  805MOL0     C 8553   7.613   9.552   1.952  0.5299  0.5742  0.2785
  805MOL0     C 8554   7.517   9.550   1.828  0.4377 -0.4584  0.3251
  805MOL0     C 8555   7.389   9.478   1.845 -0.9695 -0.9188  0.0749
  805MOL0     C 8556   7.299   9.567   1.935  0.3287  0.3097  1.0694
  805MOL0     N 8557   7.162   9.530   1.929 -0.3706  0.4277  0.4971
  805MOL0     C 8558   7.107   9.416   1.982 -0.4826 -0.7449  0.5329
  805MOL0     C 8559   6.980   9.432   1.947 -0.8840 -0.4462 -0.6061
  805MOL0     C 8560   6.877   9.327   1.972 -0.9553 -0.3607  0.1755
  805MOL0     C 8561   6.855   9.255   1.846 -1.1365 -0.6105 -0.2983
  805MOL0     C 8562   6.750   9.158   1.880 -0.4023  0.0538  0.2522
  805MOL0     C 8563   6.702   9.070   1.758 -0.1155  0.5087  0.4126
  805MOL0     O 8564   6.604   8.976   1.799  0.3090  0.9537 -0.0842
  805MOL0     C 8565   6.488   9.028   1.824 -0.7696  0.0346 -0.0715
  805MOL0     C 8566   6.446   9.050   1.957 -0.0148 -0.0270 -0.5024
  805MOL0     C 8567   6.329   9.121   1.994 -0.1715 -0.3699  1.0971
  805MOL0     C 8568   6.299   9.152   2.139 -0.3535 -0.6361  0.9516
  805MOL0     C 8569   6.242   9.162   1.884 -0.9205  0.2459  0.0765
  805MOL0     C 8570   6.110   9.220   1.900  0.0445 -0.5705 -0.8069
  805MOL0     O 8571   6.009   9.174   1.815 -0.3008  1.2245 -0.8011
  805MOL0     C 8572   5.894   9.238   1.816  1.4323 -0.1383 -0.4408
  805MOL0     C 8573   5.882   9.368   1.767  0.1662  0.0615  0.1520
  805MOL0     C 8574   5.766   9.445   1.792  0.4118  0.1206 -0.2912
  805MOL0     C 8575   5.655   9.383   1.854  1.0873  1.0182  0.6594
  805MOL0     O 8576   5.534   9.444   1.873  0.2432  0.6520  0.0940
  805MOL0     C 8577   5.483   9.508   1.747 -0.3368 -0.2654  1.0891
  805MOL0     C 8578   5.323   9.503   1.736 -0.4768 -0.0780  0.2344
  805MOL0     C 8579   5.293   9.563   1.592  0.6767  0.4292 -0.6122
  805MOL0     C 8580   5.134   9.559   1.563  0.1146 -0.3480  0.0328
  805MOL0     C 8581   5.088   9.411   1.541  0.1177 -0.2320 -0.2056
  805MOL0     C 8582   4.941   9.395   1.532 -0.4720 -0.8548  0.0499
  805MOL0     C 8583   4.874   9.479   1.418  0.5238 -0.1661  0.8148
  805MOL0     C 8584   4.732   9.408   1.384  0.3261  0.2723 -0.5254
  805MOL0    Cl 8585   4.690   9.411   1.217  0.1803  0.0885 -0.2183
  805MOL0     C 8586   5.671   9.251   1.914  0.8276  0.2608 -0.0674
  805MOL0     C 8587   5.786   9.174   1.880  0.3417 -1.3344 -0.2346
  805MOL0     O 8588   6.098   9.315   1.991 -0.1363 -0.0757 -0.1328
  805MOL0     C 8589   6.273   9.126   1.750  0.2079 -0.7367 -0.4730
  805MOL0     C 8590   6.396   9.060   1.729  0.4649  0.3791  0.4099
  805MOL0     N 8591   6.962   9.549   1.875 -0.0526 -0.2077  0.1379
  805MOL0     N 8592   7.073   9.603   1.859  0.3846 -0.0061  0.0968
  805MOL0     C 8593   8.404   9.778   2.157  0.5202  0.6653 -0.1132
  805MOL0     C 8594   8.525   9.744   2.213 -0.6378 -1.0160 -0.2342
  805MOL0     C 8595   8.861   9.426   2.336 -0.3534  0.2384 -0.4063
  805MOL0     C 8596   8.978   9.387   2.267  0.3162 -0.3523  0.4220
  805MOL0     C 8597   9.092   9.345   2.333 -0.1297  0.7886 -1.0745
  805MOL0     C 8598   9.088   9.352   2.477  0.0270  0.1163 -0.1348
  805MOL0     O 8599   9.209   9.343   2.549  0.8058 -0.9362  0.3408
  805MOL0     C 8600   9.328   9.395   2.494 -0.1594  0.6953  0.6659
  805MOL0     C 8601   9.406   9.264   2.440  0.1155 -0.8297  0.1307
  805MOL0     C 8602   9.531   9.307   2.360  1.0594 -0.6348  0.9071
  805MOL0     C 8603   9.633   9.196   2.345  0.1555  0.5700  0.4648
  805MOL0     C 8604   9.576   9.111   2.238  0.0870  1.0567 -1.1016
  805MOL0     C 8605   9.535   9.027   2.157  0.0843 -0.5795  0.5666
  805MOL0     C 8606   8.979   9.388   2.546  0.6494  0.0183 -0.0266
  805MOL0     C 8607   8.868   9.426   2.477 -0.0030 -0.5137  0.4639
  805MOL0     H 8608   8.472   9.434   2.323 -0.5846  0.8564  1.1293
  805MOL0     H 8609   8.248   9.489   2.256  0.6324 -1.3112 -1.1491
  805MOL0     H 8610   8.109   9.532   2.037  0.2473  1.7098 -2.4627
  805MOL0     H 8611   8.037   9.591   2.190  0.4457  2.2400  0.3037
  805MOL0     H 8612   7.943   9.768   2.046 -1.3473 -1.4427  0.8039
  805MOL0     H 8613   7.993   9.670   1.902  1.9398 -0.0665 -0.0556
  805MOL0     H 8614   7.862   9.472   2.030  0.0806  0.0886  2.3805
  805MOL0     H 8615   7.810   9.615   2.131  0.3375 -0.2266  1.3014
  805MOL0     H 8616   7.732   9.732   1.932 -0.3875 -0.4120  2.5993
  805MOL0     H 8617   7.789   9.598   1.826  0.8648  0.4927 -0.2266
  805MOL0     H 8618   7.622   9.448   1.984 -2.7659 -1.5995 -4.4674
  805MOL0     H 8619   7.570   9.612   2.032  0.8986 -0.5834  1.3705
  805MOL0     H 8620   7.493   9.647   1.783 -2.4318 -1.9604 -1.7369
  805MOL0     H 8621   7.567   9.503   1.743 -1.3813  1.4458 -1.9845
  805MOL0     H 8622   7.351   9.457   1.745  1.7646 -0.6092 -1.1266
  805MOL0     H 8623   7.413   9.389   1.904 -0.5376  0.9789  2.9447
  805MOL0     H 8624   7.320   9.672   1.916 -1.7235  0.3480 -1.4579
  805MOL0     H 8625   7.336   9.550   2.037 -0.0974 -0.0309  1.1711
  805MOL0     H 8626   7.158   9.341   2.041 -2.1981 -1.1591  1.5493
  805MOL0     H 8627   6.916   9.264   2.053  0.9366  1.7573  1.0381
  805MOL0     H 8628   6.781   9.369   2.004 -0.0064 -0.0773  2.9748
  805MOL0     H 8629   6.942   9.192   1.824 -0.1241  0.3177  0.8887
  805MOL0     H 8630   6.826   9.319   1.763 -1.9627  1.3277  1.3844
  805MOL0     H 8631   6.661   9.218   1.903  1.1734  3.0657 -1.0950
  805MOL0     H 8632   6.777   9.087   1.959 -1.6202 -0.9671 -0.2078
  805MOL0     H 8633   6.792   9.029   1.712 -1.0417 -0.0869 -0.9510
  805MOL0     H 8634   6.661   9.147   1.691  1.2906 -0.0816 -1.2184
  805MOL0     H 8635   6.518   9.019   2.033 -2.5263 -2.4492  1.0798
  805MOL0     H 8636   6.194   9.144   2.166 -0.5635 -0.7486  0.1432
  805MOL0     H 8637   6.353   9.089   2.210  1.8451 -0.6498 -0.6185
  805MOL0     H 8638   6.322   9.257   2.158 -1.9481 -0.6625  3.5539
  805MOL0     H 8639   5.961   9.427   1.722 -1.6321  0.8040 -2.2521
  805MOL0     H 8640   5.768   9.549   1.764  2.0486  0.1916 -0.0173
  805MOL0     H 8641   5.520   9.610   1.738 -1.4029  0.0095 -0.6170
  805MOL0     H 8642   5.521   9.447   1.665 -2.2907 -2.4648  1.7040
  805MOL0     H 8643   5.284   9.402   1.753 -2.7742  0.1900 -2.7831
  805MOL0     H 8644   5.289   9.572   1.814  1.1585  0.0391  0.8850
  805MOL0     H 8645   5.355   9.507   1.522 -0.6283 -4.2244  1.5562
  805MOL0     H 8646   5.319   9.669   1.586  0.8490  0.4452  0.2842
  805MOL0     H 8647   5.091   9.607   1.652  1.6431  2.6328 -0.7101
  805MOL0     H 8648   5.101   9.613   1.475 -1.8146 -0.7193  0.4855
  805MOL0     H 8649   5.123   9.346   1.622  1.9345  0.4983 -0.3684
  805MOL0     H 8650   5.125   9.368   1.448 -1.9160 -1.0398 -0.7053
  805MOL0     H 8651   4.922   9.289   1.514 -1.9149 -0.6300  0.1726
  805MOL0     H 8652   4.895   9.419   1.628  1.2801  1.2275  0.4565
  805MOL0     H 8653   4.932   9.492   1.327 -0.2123 -0.2067  0.3323
  805MOL0     H 8654   4.849   9.584   1.439 -1.4877  0.6199 -4.1853
  805MOL0     H 8655   4.659   9.458   1.448  0.2015 -0.8397  0.2329
  805MOL0     H 8656   4.725   9.303   1.415  4.5596 -0.4903 -1.5604
  805MOL0     H 8657   5.591   9.206   1.973  1.2639 -1.1376 -0.5035
  805MOL0     H 8658   5.802   9.076   1.924 -0.3848 -0.4669  2.1245
  805MOL0     H 8659   6.202   9.156   1.673  0.7611  0.3247 -0.5831
  805MOL0     H 8660   6.423   9.023   1.631  0.0236  0.0283  0.4189
  805MOL0     H 8661   8.384   9.872   2.107  0.3917  0.3682 -0.6222
  805MOL0     H 8662   8.608   9.814   2.217 -0.7472 -0.9184  2.6445
  805MOL0     H 8663   8.977   9.386   2.159 -2.1165 -2.0300  0.3821
  805MOL0     H 8664   9.188   9.320   2.288  1.8304 -0.2754  3.1274
  805MOL0     H 8665   9.307   9.470   2.417  0.7212  2.2786  1.8830
  805MOL0     H 8666   9.396   9.450   2.560  2.0070 -1.5765  0.4758
  805MOL0     H 8667   9.340   9.210   2.372 -1.9908 -1.0415  2.2208
  805MOL0     H 8668   9.438   9.196   2.519  0.6642  1.0755  1.6149
  805MOL0     H 8669   9.579   9.391   2.409  0.6463 -1.1550  2.2484
  805MOL0     H 8670   9.496   9.352   2.266 -2.2793  2.2455  3.2676
  805MOL0     H 8671   9.649   9.146   2.441 -1.6262 -2.4729 -0.6902
  805MOL0     H 8672   9.730   9.231   2.308 -0.6320  1.1371 -1.1624
  805MOL0     H 8673   9.509   8.954   2.084  0.1115 -0.1907  0.1617
  805MOL0     H 8674   8.980   9.393   2.654 -0.4668 -0.5131  0.0166
  805MOL0     H 8675   8.776   9.463   2.522 -1.3641 -1.7687 -1.1413
  806MOL0     O 8676  11.205   5.275   6.657  0.5019 -0.8335  0.4403
  806MOL0     C 8677  11.219   5.200   6.563 -0.0902  0.0153 -0.3263
  806MOL0     O 8678  11.112   5.144   6.495 -0.3955 -0.5014 -0.1830
  806MOL0     C 8679  10.980   5.161   6.523  0.1659  0.7973 -0.8769
  806MOL0     C 8680  10.905   5.107   6.424 -0.3999 -0.5034  0.5992
  806MOL0     C 8681  10.767   5.110   6.435  0.8640  0.1676  0.9249
  806MOL0     C 8682  10.702   5.155   6.549 -0.2612  0.3951  0.5514
  806MOL0     O 8683  10.557   5.158   6.540 -0.3411 -0.2054  0.1635
  806MOL0     C 8684  10.472   5.216   6.638  0.7508 -0.6156 -0.6771
  806MOL0     C 8685  10.324   5.173   6.625  0.3184  0.3883 -0.5526
  806MOL0     C 8686  10.306   5.026   6.653 -0.2992  0.4144 -0.0011
  806MOL0     C 8687  10.221   4.999   6.782  0.2808  0.4934 -0.0463
  806MOL0     C 8688  10.067   5.014   6.774  0.4136 -0.2074  0.0042
  806MOL0     C 8689   9.993   4.895   6.704  0.2225 -0.0919 -0.4628
  806MOL0     C 8690   9.839   4.914   6.709  0.1907 -0.7954  0.2166
  806MOL0     C 8691   9.762   4.784   6.669 -0.4010 -0.3717  0.2644
  806MOL0     N 8692   9.613   4.815   6.688 -0.4197 -0.0373 -0.4630
  806MOL0     C 8693   9.527   4.774   6.592 -0.0686 -0.2229  0.2804
  806MOL0     C 8694   9.402   4.782   6.643  0.1982  0.7612  0.4877
  806MOL0     C 8695   9.283   4.728   6.569 -0.6625  0.2824 -0.3733
  806MOL0     C 8696   9.169   4.823   6.569 -0.2437  0.0335  0.0497
  806MOL0     C 8697   9.055   4.727   6.524 -0.2312  0.4729 -0.0950
  806MOL0     C 8698   8.931   4.803   6.482 -0.2309  0.1571  0.2433
  806MOL0     O 8699   8.896   4.896   6.580  0.5887  0.1137 -0.9689
  806MOL0     C 8700   8.778   4.956   6.570  0.1404  0.2944 -0.5884
  806MOL0     C 8701   8.752   5.055   6.671  0.8016  0.9716 -0.6818
  806MOL0     C 8702   8.637   5.140   6.671 -0.1992 -0.1807  0.4697
  806MOL0     C 8703   8.621   5.237   6.788 -0.1590 -1.0719 -0.4563
  806MOL0     C 8704   8.541   5.128   6.571  0.6009  0.5981  0.2146
  806MOL0     C 8705   8.406   5.207   6.560  0.2106 -0.1769  0.0991
  806MOL0     O 8706   8.338   5.183   6.445 -0.3261  0.3949  0.1436
  806MOL0     C 8707   8.242   5.275   6.413  0.0691 -0.5146 -0.1369
  806MOL0     C 8708   8.115   5.253   6.463  0.3238  0.3728 -0.8063
  806MOL0     C 8709   8.012   5.331   6.419 -0.6746  0.2232  0.4485
  806MOL0     C 8710   8.037   5.420   6.312 -0.1157 -0.4016 -0.7711
  806MOL0     O 8711   7.926   5.460   6.249  0.3309 -0.0845  0.8786
  806MOL0     C 8712   7.932   5.525   6.124  0.1178 -0.0900 -0.2180
  806MOL0     C 8713   7.791   5.523   6.062  0.0356  1.2723  0.8402
  806MOL0     C 8714   7.712   5.650   6.095  0.2505  0.4898  0.5252
  806MOL0     C 8715   7.605   5.687   5.988 -0.1349  0.6068 -0.9604
  806MOL0     C 8716   7.495   5.782   6.021  0.8612 -0.5558 -0.5958
  806MOL0     C 8717   7.394   5.729   6.125 -1.2715 -0.3109  0.4187
  806MOL0     C 8718   7.278   5.831   6.135 -0.1843 -0.3379  0.1747
  806MOL0     C 8719   7.187   5.791   6.258  0.6685  0.0346  0.4656
  806MOL0    Cl 8720   7.018   5.842   6.229  0.0145  0.1685 -0.4109
  806MOL0     C 8721   8.169   5.447   6.268 -0.5619  0.7181  0.3539
  806MOL0     C 8722   8.273   5.377   6.324 -0.1595  0.6383  0.9495
  806MOL0     O 8723   8.379   5.280   6.646 -0.0010 -0.4916  0.5514
  806MOL0     C 8724   8.565   5.029   6.469  0.2014 -0.7915  0.4522
  806MOL0     C 8725   8.686   4.950   6.464  0.1993 -0.7540 -0.0212
  806MOL0     N 8726   9.415   4.861   6.764  0.1585  0.8516 -0.0406
  806MOL0     N 8727   9.540   4.869   6.792  0.5026 -0.4449 -0.3001
  806MOL0     C 8728  10.775   5.182   6.655 -0.6920  0.4385 -0.2980
  806MOL0     C 8729  10.913   5.201   6.648 -1.1986  0.2789  0.7843
  806MOL0     C 8730  11.353   5.159   6.515  0.5425  0.7361  0.1492
  806MOL0     C 8731  11.363   5.097   6.386 -0.4026  0.5006  0.2321
  806MOL0     C 8732  11.495   5.084   6.334  0.8229 -0.1817  0.3020
  806MOL0     C 8733  11.611   5.090   6.406 -1.1523  0.2122 -0.2322
  806MOL0     O 8734  11.720   5.056   6.330 -0.3181 -0.4242 -0.1289
  806MOL0     C 8735  11.844   5.038   6.401  0.0336  0.5783 -0.2431
  806MOL0     C 8736  11.944   5.146   6.390 -0.6418  0.5709 -0.2917
  806MOL0     C 8737  12.081   5.127   6.458 -0.4402  0.1441 -0.4163
  806MOL0     C 8738  12.084   5.089   6.603 -0.4543  0.5332 -0.5502
  806MOL0     C 8739  11.992   5.174   6.687 -0.6136  0.0496  0.7387
  806MOL0     C 8740  11.916   5.244   6.751 -0.3889  0.4384  0.6763
  806MOL0     C 8741  11.599   5.142   6.538 -0.6040 -0.1310  0.4009
  806MOL0     C 8742  11.477   5.175   6.590 -0.3511  0.5239 -0.6449
  806MOL0     H 8743  10.954   5.074   6.333 -0.9268  1.6729 -0.5304
  806MOL0     H 8744  10.700   5.072   6.359  1.6303 -1.0860  0.8404
  806MOL0     H 8745  10.508   5.193   6.738 -1.4488  0.5167  0.4497
  806MOL0     H 8746  10.465   5.325   6.635  0.8470 -0.4884  1.7658
  806MOL0     H 8747  10.260   5.239   6.686 -0.1737 -0.0526 -0.5807
  806MOL0     H 8748  10.295   5.206   6.525  1.8570  2.9989 -0.2383
  806MOL0     H 8749  10.270   4.978   6.561  1.7271  1.7653 -1.6148
  806MOL0     H 8750  10.406   4.981   6.666 -1.1126 -1.5983 -0.3344
  806MOL0     H 8751  10.237   4.894   6.808  2.3381 -0.0412 -2.8783
  806MOL0     H 8752  10.262   5.061   6.862 -1.0861 -0.4853  1.4678
  806MOL0     H 8753  10.041   5.018   6.880  2.9038 -2.1529  0.8012
  806MOL0     H 8754  10.041   5.105   6.720 -0.1006 -0.6595 -0.5266
  806MOL0     H 8755  10.034   4.862   6.608  1.5678 -2.4126  0.8217
  806MOL0     H 8756  10.016   4.800   6.754  0.8476  0.3125  0.0291
  806MOL0     H 8757   9.819   4.938   6.814 -0.9300  2.0683 -0.5437
  806MOL0     H 8758   9.810   5.000   6.646 -2.0710 -1.7109 -0.1123
  806MOL0     H 8759   9.792   4.697   6.728  0.3701 -1.6198 -1.8611
  806MOL0     H 8760   9.788   4.754   6.567 -0.2953 -3.0523  1.0221
  806MOL0     H 8761   9.560   4.729   6.499  1.0143 -2.0399  1.4930
  806MOL0     H 8762   9.304   4.706   6.464 -0.1827 -3.9512  0.4043
  806MOL0     H 8763   9.252   4.632   6.612  1.9031 -0.9383 -1.0553
  806MOL0     H 8764   9.173   4.898   6.489 -3.0725 -1.7625 -1.9680
  806MOL0     H 8765   9.150   4.872   6.665  1.5531  1.4982 -0.2799
  806MOL0     H 8766   9.030   4.660   6.607  3.3891  1.0717  1.7028
  806MOL0     H 8767   9.091   4.660   6.445 -2.4261 -2.9833  1.5861
  806MOL0     H 8768   8.854   4.730   6.458 -1.2289 -0.2510  4.0474
  806MOL0     H 8769   8.943   4.855   6.386 -0.3215  1.2085  0.7871
  806MOL0     H 8770   8.816   5.067   6.757 -1.7576 -1.3056  1.7511
  806MOL0     H 8771   8.561   5.191   6.867 -1.4459 -1.8733 -1.8537
  806MOL0     H 8772   8.723   5.261   6.820  0.4896 -0.8723 -2.5277
  806MOL0     H 8773   8.578   5.332   6.753  1.5329 -0.1683 -0.2218
  806MOL0     H 8774   8.107   5.157   6.512  3.3523 -0.6960 -2.1363
  806MOL0     H 8775   7.916   5.299   6.459  0.9196 -3.4945  1.8544
  806MOL0     H 8776   7.959   5.630   6.138 -3.5469  0.9941 -0.2652
  806MOL0     H 8777   8.006   5.487   6.053  1.3904  0.8297  0.5719
  806MOL0     H 8778   7.803   5.508   5.955  1.3008 -2.2405  1.3380
  806MOL0     H 8779   7.733   5.437   6.096 -0.6503  1.9349  1.3720
  806MOL0     H 8780   7.771   5.741   6.105 -1.8161  1.7119  2.7006
  806MOL0     H 8781   7.665   5.639   6.193 -0.9562 -2.9454 -0.2921
  806MOL0     H 8782   7.654   5.731   5.900 -1.1354  1.9713 -0.8567
  806MOL0     H 8783   7.562   5.589   5.962 -2.0722  1.2274 -0.2388
  806MOL0     H 8784   7.441   5.804   5.928  2.1774 -0.5843 -1.3933
  806MOL0     H 8785   7.536   5.879   6.051  1.3778  0.3237 -3.8326
  806MOL0     H 8786   7.346   5.635   6.096 -1.4135 -0.3693  0.8429
  806MOL0     H 8787   7.447   5.717   6.220  0.9228 -0.3553 -0.7497
  806MOL0     H 8788   7.224   5.814   6.042 -0.1269  0.7003 -0.0653
  806MOL0     H 8789   7.315   5.933   6.147 -0.6605 -0.3071  1.7415
  806MOL0     H 8790   7.217   5.852   6.343  1.0041 -0.2921  0.5832
  806MOL0     H 8791   7.173   5.685   6.282 -2.0407 -0.2956 -1.9271
  806MOL0     H 8792   8.194   5.523   6.194 -4.2563 -0.2317 -2.0962
  806MOL0     H 8793   8.375   5.379   6.287 -0.3490 -1.4153  0.1787
  806MOL0     H 8794   8.504   5.018   6.380  2.2341  1.0542 -1.3179
  806MOL0     H 8795   8.690   4.884   6.378 -1.6790  1.5536 -2.0546
  806MOL0     H 8796  10.730   5.217   6.747  3.3741  1.3275  1.5796
  806MOL0     H 8797  10.962   5.243   6.735 -0.8786  2.4587 -0.3650
  806MOL0     H 8798  11.269   5.081   6.332 -0.4491 -3.2593  1.1680
  806MOL0     H 8799  11.507   5.049   6.232 -1.2329  1.3332 -0.5239
  806MOL0     H 8800  11.833   5.005   6.505 -1.3689  0.4955 -0.4025
  806MOL0     H 8801  11.887   4.952   6.349 -0.8593  0.4157 -0.7321
  806MOL0     H 8802  11.903   5.234   6.440  2.6951  0.3765  3.2802
  806MOL0     H 8803  11.951   5.160   6.282 -2.4367 -0.3112 -0.5596
  806MOL0     H 8804  12.120   5.228   6.445 -1.4370  0.5596 -0.2297
  806MOL0     H 8805  12.146   5.061   6.400  1.1836  0.3245  1.1114
  806MOL0     H 8806  12.188   5.105   6.632  0.0615 -0.9919 -1.4352
  806MOL0     H 8807  12.053   4.985   6.619 -3.3279  1.6943  3.0633
  806MOL0     H 8808  11.859   5.311   6.812 -0.9752  0.4491  0.1251
  806MOL0     H 8809  11.689   5.154   6.597 -0.4574 -0.5776  0.2742
  806MOL0     H 8810  11.461   5.206   6.692 -0.3605 -2.2387  0.2709
  807MOL0     O 8811   8.833   8.218   8.562 -0.0240 -0.3093 -0.4888
  807MOL0     C 8812   8.851   8.230   8.685  0.1076  0.1809 -0.4407
  807MOL0     O 8813   8.760   8.284   8.774  0.2056  0.0341  0.1184
  807MOL0     C 8814   8.635   8.322   8.733 -0.0792 -0.7448 -0.0406
  807MOL0     C 8815   8.591   8.439   8.795 -0.0173  0.2169 -0.6228
  807MOL0     C 8816   8.463   8.479   8.789  1.2613  0.2909 -0.3115
  807MOL0     C 8817   8.370   8.394   8.720  0.0765  0.8808 -1.0518
  807MOL0     O 8818   8.239   8.411   8.721  0.4571 -0.8332 -0.1934
  807MOL0     C 8819   8.188   8.523   8.800  1.0829  0.2017  0.0883
  807MOL0     C 8820   8.048   8.560   8.760 -0.3481  0.0814  0.4447
  807MOL0     C 8821   7.959   8.442   8.764 -0.9016  0.0952  1.1638
  807MOL0     C 8822   7.831   8.489   8.704  0.1901  0.8485 -0.0006
  807MOL0     C 8823   7.736   8.371   8.680 -0.1980 -0.0541  0.0867
  807MOL0     C 8824   7.603   8.435   8.647  0.9707  0.4457 -0.1149
  807MOL0     C 8825   7.516   8.341   8.566 -0.2745  0.3417  0.2695
  807MOL0     C 8826   7.371   8.380   8.574 -0.0285 -0.4961 -0.2479
  807MOL0     N 8827   7.294   8.335   8.460  0.0677  0.3174  0.3556
  807MOL0     C 8828   7.332   8.366   8.331 -0.8103  0.3498  0.1712
  807MOL0     C 8829   7.233   8.310   8.264  0.4987  0.2795  0.4648
  807MOL0     C 8830   7.228   8.312   8.114 -0.4431 -0.4310 -0.6675
  807MOL0     C 8831   7.159   8.445   8.069  0.1626  0.5043 -0.0583
  807MOL0     C 8832   7.015   8.456   8.124  0.2536  0.0726  0.0728
  807MOL0     C 8833   6.947   8.581   8.067  0.1689 -0.1687  0.1752
  807MOL0     O 8834   6.904   8.559   7.928 -0.1759  0.3203 -0.3712
  807MOL0     C 8835   6.816   8.660   7.875 -0.0508 -0.0407  0.9504
  807MOL0     C 8836   6.731   8.635   7.768 -0.0527  0.3074 -0.9308
  807MOL0     C 8837   6.624   8.724   7.732 -0.3014 -0.0722  0.3964
  807MOL0     C 8838   6.520   8.674   7.631 -0.8941 -0.3230  0.1567
  807MOL0     C 8839   6.632   8.856   7.787  0.5968 -0.1698  0.3662
  807MOL0     C 8840   6.536   8.970   7.741 -0.6210  0.0249  0.3263
  807MOL0     O 8841   6.438   8.947   7.653  0.3558 -0.0008 -0.8057
  807MOL0     C 8842   6.368   9.049   7.592 -0.2267 -0.4367  0.3407
  807MOL0     C 8843   6.426   9.182   7.566  0.4026  0.2047  1.2155
  807MOL0     C 8844   6.358   9.278   7.511  0.8456 -0.7300  0.9211
  807MOL0     C 8845   6.220   9.280   7.501 -0.3351  0.0373  0.5208
  807MOL0     O 8846   6.152   9.393   7.469  0.0201 -0.1281  0.1099
  807MOL0     C 8847   6.012   9.400   7.494 -0.0355 -0.2909  0.0314
  807MOL0     C 8848   5.972   9.544   7.484  0.1763 -0.4950  0.0709
  807MOL0     C 8849   5.820   9.572   7.508 -0.3190  0.2771 -0.1683
  807MOL0     C 8850   5.792   9.724   7.485 -0.2983  0.6702  0.4220
  807MOL0     C 8851   5.643   9.745   7.505 -0.8212  0.3875 -0.2053
  807MOL0     C 8852   5.614   9.896   7.542  0.5973 -0.1500 -0.1723
  807MOL0     C 8853   5.462   9.919   7.558 -0.4229 -0.5737  0.3318
  807MOL0     C 8854   5.419  10.067   7.562  0.4109  0.4250 -0.0624
  807MOL0    Cl 8855   5.502  10.171   7.439  0.4626 -0.2425  0.0774
  807MOL0     C 8856   6.156   9.160   7.529 -0.1333  1.0450  0.8742
  807MOL0     C 8857   6.228   9.043   7.555 -0.6501 -0.1261 -0.9190
  807MOL0     O 8858   6.549   9.077   7.801  0.7401 -0.6554 -0.0412
  807MOL0     C 8859   6.728   8.885   7.885 -0.0585  0.2897 -0.3147
  807MOL0     C 8860   6.806   8.783   7.933 -0.2761  0.0251  1.0166
  807MOL0     N 8861   7.145   8.251   8.343 -0.8397 -1.1303 -0.6814
  807MOL0     N 8862   7.179   8.257   8.463 -0.4359 -0.3143 -0.0987
  807MOL0     C 8863   8.412   8.279   8.659 -0.1457 -0.0114  0.4292
  807MOL0     C 8864   8.547   8.246   8.656 -0.0501 -0.0739 -0.6643
  807MOL0     C 8865   8.993   8.201   8.733 -0.1367 -0.0046  0.5348
  807MOL0     C 8866   9.031   8.247   8.861 -0.2891  0.7657 -0.0131
  807MOL0     C 8867   9.168   8.237   8.884 -0.4085  0.0936  0.4451
  807MOL0     C 8868   9.270   8.169   8.811  0.1710 -0.1998  0.4456
  807MOL0     O 8869   9.398   8.153   8.837  0.2517  0.7311  0.0010
  807MOL0     C 8870   9.433   8.191   8.965 -0.1289 -0.1251 -0.3754
  807MOL0     C 8871   9.543   8.096   8.999 -0.9909 -0.0459  0.2072
  807MOL0     C 8872   9.624   8.127   9.127 -0.9051 -0.9195  0.1876
  807MOL0     C 8873   9.732   8.024   9.134  0.6614  0.1805 -1.1397
  807MOL0     C 8874   9.849   8.080   9.055 -0.4951 -0.7032 -0.6290
  807MOL0     C 8875   9.942   8.122   8.991 -0.8305  0.0941 -0.4306
  807MOL0     C 8876   9.213   8.103   8.696 -0.3343  0.5536 -1.2310
  807MOL0     C 8877   9.085   8.127   8.647 -0.3085  0.7434  0.2278
  807MOL0     H 8878   8.665   8.494   8.853 -0.1791  1.4821 -1.5804
  807MOL0     H 8879   8.437   8.572   8.838  2.9371  2.3536 -3.0553
  807MOL0     H 8880   8.176   8.500   8.906 -0.3066  0.3940 -0.0102
  807MOL0     H 8881   8.248   8.612   8.779 -0.9277  1.5295 -0.3319
  807MOL0     H 8882   8.004   8.648   8.809 -1.4137 -1.6037  2.6691
  807MOL0     H 8883   8.066   8.588   8.656 -0.1868  0.1598  0.4930
  807MOL0     H 8884   8.004   8.366   8.698  0.4898  1.6714  0.2202
  807MOL0     H 8885   7.961   8.404   8.866  0.3359  0.8239  1.4254
  807MOL0     H 8886   7.787   8.557   8.777  0.3837  1.1781 -0.1894
  807MOL0     H 8887   7.858   8.549   8.616  1.8592 -2.0042 -1.6091
  807MOL0     H 8888   7.777   8.309   8.599 -1.9524 -0.3292 -0.6377
  807MOL0     H 8889   7.718   8.306   8.765 -2.8445  0.3405 -0.1033
  807MOL0     H 8890   7.549   8.472   8.735 -1.0927 -1.3429 -0.5320
  807MOL0     H 8891   7.627   8.518   8.581  1.7388  0.2889 -0.0490
  807MOL0     H 8892   7.550   8.353   8.462  0.0792  2.6753  0.5815
  807MOL0     H 8893   7.530   8.238   8.599  1.4242  0.4328 -0.0504
  807MOL0     H 8894   7.367   8.488   8.585  3.0874 -0.1833 -1.1867
  807MOL0     H 8895   7.325   8.341   8.665 -1.8067  2.9056  0.4574
  807MOL0     H 8896   7.421   8.419   8.298 -0.2067  0.3683  1.7492
  807MOL0     H 8897   7.331   8.300   8.077 -0.7568 -0.6670 -1.4752
  807MOL0     H 8898   7.167   8.227   8.082  1.3532 -3.3909  2.9771
  807MOL0     H 8899   7.153   8.457   7.961 -2.1626  0.6078  0.0154
  807MOL0     H 8900   7.231   8.525   8.087  0.5615  0.2670 -0.5901
  807MOL0     H 8901   7.013   8.455   8.233  0.0358 -0.9673  0.0717
  807MOL0     H 8902   6.963   8.364   8.097 -0.2795  0.6895 -1.0472
  807MOL0     H 8903   7.021   8.659   8.089  2.4715 -2.8687  3.0376
  807MOL0     H 8904   6.856   8.596   8.127  1.4646  0.4872  2.0970
  807MOL0     H 8905   6.737   8.537   7.722 -0.4231 -0.2912  0.2523
  807MOL0     H 8906   6.526   8.748   7.551 -0.4332  0.0493  0.5345
  807MOL0     H 8907   6.552   8.580   7.586  0.9678  0.5760 -0.4946
  807MOL0     H 8908   6.417   8.672   7.669 -0.9001 -0.4348  0.1359
  807MOL0     H 8909   6.531   9.204   7.554  0.0569  0.6444 -1.5499
  807MOL0     H 8910   6.411   9.372   7.500 -1.9376  0.8637 -0.0492
  807MOL0     H 8911   5.952   9.342   7.423 -1.0730 -0.0783  0.7261
  807MOL0     H 8912   5.982   9.360   7.591  2.1210 -0.5981  0.6215
  807MOL0     H 8913   6.035   9.594   7.558  0.0560 -1.0232  0.5353
  807MOL0     H 8914   5.989   9.583   7.383  1.4189 -2.5595 -0.5786
  807MOL0     H 8915   5.795   9.546   7.611 -0.2208  0.1146 -0.1848
  807MOL0     H 8916   5.755   9.514   7.442  0.7792 -2.2924  0.8534
  807MOL0     H 8917   5.848   9.782   7.559  2.5261 -0.5322 -0.6295
  807MOL0     H 8918   5.825   9.765   7.389  0.9429 -1.1349  0.0374
  807MOL0     H 8919   5.601   9.684   7.585 -1.9435  1.0892 -0.2435
  807MOL0     H 8920   5.572   9.715   7.428 -0.2723  2.4277 -1.5988
  807MOL0     H 8921   5.656   9.923   7.640 -1.6837 -1.9989  1.4350
  807MOL0     H 8922   5.647   9.963   7.462  0.6091  0.8034  0.6113
  807MOL0     H 8923   5.421   9.874   7.649 -1.6627 -1.3549 -0.5914
  807MOL0     H 8924   5.413   9.886   7.467 -1.5083 -2.2583  1.4824
  807MOL0     H 8925   5.434  10.104   7.664 -1.7786  0.7917  0.1674
  807MOL0     H 8926   5.312  10.079   7.548  0.0437  0.0161  2.0815
  807MOL0     H 8927   6.050   9.153   7.508  0.3542  1.5192 -2.1694
  807MOL0     H 8928   6.188   8.944   7.574 -2.7762  0.7963 -0.3300
  807MOL0     H 8929   6.730   8.978   7.941  0.5267 -0.6383  1.2403
  807MOL0     H 8930   6.871   8.808   8.016  1.3675 -0.0345 -0.1859
  807MOL0     H 8931   8.339   8.216   8.611 -1.0712  0.3022  1.3726
  807MOL0     H 8932   8.564   8.153   8.602 -2.6544  0.5219 -2.6726
  807MOL0     H 8933   8.965   8.291   8.936  0.5870  0.2998  1.0594
  807MOL0     H 8934   9.195   8.290   8.975  0.4028  0.0386  0.2426
  807MOL0     H 8935   9.470   8.294   8.966  1.1199 -0.5379 -0.9968
  807MOL0     H 8936   9.357   8.182   9.043  2.0099 -0.0524  1.8505
  807MOL0     H 8937   9.607   8.087   8.911 -1.1825  0.0371  0.0582
  807MOL0     H 8938   9.494   7.998   9.011  1.2498 -1.3583 -0.7226
  807MOL0     H 8939   9.552   8.139   9.208  0.6343 -0.8564  1.5852
  807MOL0     H 8940   9.661   8.230   9.115 -1.6110 -0.1022  3.8648
  807MOL0     H 8941   9.708   7.923   9.101  2.4037 -1.1661  1.3687
  807MOL0     H 8942   9.762   8.024   9.239  1.4710  4.2284 -1.1780
  807MOL0     H 8943  10.034   8.161   8.954 -1.1676  1.0590 -0.2886
  807MOL0     H 8944   9.282   8.043   8.638  0.7598 -0.1745  0.7134
  807MOL0     H 8945   9.066   8.087   8.548  2.1423 -0.7748  0.3082
  808MOL0     O 8946   2.041   0.696   1.028  0.1702 -0.2062  0.1083
  808MOL0     C 8947   2.065   0.585   0.976 -0.0927  0.0162 -0.2614
  808MOL0     O 8948   1.972   0.513   0.912 -0.1688 -0.5641 -0.0811
  808MOL0     C 8949   1.838   0.556   0.927 -0.3678  0.6165  0.3468
  808MOL0     C 8950   1.769   0.597   0.810 -0.0268  0.1222  0.1947
  808MOL0     C 8951   1.636   0.639   0.828 -0.6516  0.3359 -0.0867
  808MOL0     C 8952   1.575   0.628   0.954 -0.0164  0.0478  0.5407
  808MOL0     O 8953   1.444   0.662   0.979  0.2635 -0.5834  0.3258
  808MOL0     C 8954   1.373   0.737   0.879  1.0881  0.1997 -0.2817
  808MOL0     C 8955   1.225   0.732   0.895  0.0749 -0.3802  0.3462
  808MOL0     C 8956   1.182   0.752   1.037  0.7802  0.1960 -0.5228
  808MOL0     C 8957   1.028   0.713   1.034 -0.0832  0.2437 -0.4349
  808MOL0     C 8958   0.948   0.739   1.160  1.0323 -0.5043 -0.3578
  808MOL0     C 8959   0.797   0.737   1.132 -0.8894  0.0873 -0.6128
  808MOL0     C 8960   0.744   0.590   1.125 -0.1342  0.8912 -0.3772
  808MOL0     C 8961   0.585   0.591   1.103  0.2256 -1.0848  0.1824
  808MOL0     N 8962   0.535   0.485   1.015  0.7136 -0.0201 -0.2055
  808MOL0     C 8963   0.526   0.480   0.877  0.2657  0.2905  0.0595
  808MOL0     C 8964   0.470   0.364   0.843 -0.6037  1.0922 -0.4480
  808MOL0     C 8965   0.438   0.313   0.705 -1.0770 -0.1701 -0.1937
  808MOL0     C 8966   0.291   0.281   0.699  0.6966  0.3689  0.0644
  808MOL0     C 8967   0.249   0.236   0.557  0.9752 -0.9294 -0.5477
  808MOL0     C 8968   0.094   0.224   0.536 -1.1937 -0.5928  0.2298
  808MOL0     O 8969   0.095   0.231   0.391  0.6467  0.1822 -0.2002
  808MOL0     C 8970  -0.023   0.225   0.330  0.7824  0.1458  0.8462
  808MOL0     C 8971  -0.023   0.244   0.196 -0.1299 -0.7746  0.3950
  808MOL0     C 8972  -0.129   0.235   0.113 -0.0735  0.1845 -0.5354
  808MOL0     C 8973  -0.117   0.259  -0.036 -0.0995  0.5266  0.1623
  808MOL0     C 8974  -0.252   0.202   0.175  0.0519  0.5048 -0.2190
  808MOL0     C 8975  -0.380   0.184   0.098 -0.4060  0.2410  0.4735
  808MOL0     O 8976  -0.458   0.081   0.141  0.7317  0.1810  0.0774
  808MOL0     C 8977  -0.592   0.087   0.101  0.1841 -0.4144 -0.8448
  808MOL0     C 8978  -0.628   0.032  -0.022 -0.4824 -0.4869 -0.1155
  808MOL0     C 8979  -0.766   0.023  -0.060 -0.8158  0.1322 -0.1426
  808MOL0     C 8980  -0.859   0.079   0.026 -0.9458  0.8147 -0.4141
  808MOL0     O 8981  -0.986   0.101   0.001 -0.2737  0.1985  0.8735
  808MOL0     C 8982  -1.043   0.012  -0.091 -0.3985 -0.0772  0.1657
  808MOL0     C 8983  -1.188   0.043  -0.084 -0.3478 -0.0412  0.9332
  808MOL0     C 8984  -1.263  -0.074  -0.148  0.0146 -0.0962  0.1994
  808MOL0     C 8985  -1.416  -0.029  -0.162 -1.1409  0.3400  0.4683
  808MOL0     C 8986  -1.497  -0.156  -0.209  0.0108 -0.0347 -0.1826
  808MOL0     C 8987  -1.654  -0.131  -0.205  0.0934 -0.0631 -1.0294
  808MOL0     C 8988  -1.726  -0.130  -0.072 -1.1110  0.2467 -1.0829
  808MOL0     C 8989  -1.769  -0.271  -0.036 -0.8060  0.5111  0.5019
  808MOL0    Cl 8990  -1.868  -0.268   0.120  0.0750  0.1138  0.2457
  808MOL0     C 8991  -0.815   0.131   0.151 -0.5473  0.4681 -1.3497
  808MOL0     C 8992  -0.683   0.129   0.192 -0.1173  0.1238 -0.1998
  808MOL0     O 8993  -0.407   0.254  -0.004  0.1175  0.4076 -0.4118
  808MOL0     C 8994  -0.263   0.180   0.313  0.1251 -0.2941  0.4024
  808MOL0     C 8995  -0.145   0.197   0.395 -0.2803  0.1398  0.6206
  808MOL0     N 8996   0.441   0.294   0.963 -0.4618  0.0269 -0.1700
  808MOL0     N 8997   0.484   0.366   1.070 -0.6665  0.1973  0.5929
  808MOL0     C 8998   1.641   0.572   1.060 -0.0631 -0.2830 -0.3555
  808MOL0     C 8999   1.779   0.549   1.052 -0.7687  0.4664  0.3762
  808MOL0     C 9000   2.198   0.522   0.976 -0.4422 -0.0923 -1.0471
  808MOL0     C 9001   2.226   0.400   0.906  0.5332  0.7033 -0.5792
  808MOL0     C 9002   2.356   0.358   0.902 -0.3156 -0.1739  0.6392
  808MOL0     C 9003   2.463   0.417   0.968 -0.0784  0.0956 -0.9528
  808MOL0     O 9004   2.582   0.350   0.967  0.1327 -0.2368  0.1190
  808MOL0     C 9005   2.689   0.417   1.043 -0.8602 -0.3676  0.0996
  808MOL0     C 9006   2.813   0.329   1.043 -0.2721 -0.8954 -0.5506
  808MOL0     C 9007   2.847   0.290   0.896 -0.6224 -0.1824  0.0576
  808MOL0     C 9008   2.993   0.247   0.873  0.0359 -0.3572  0.3907
  808MOL0     C 9009   3.089   0.353   0.906 -0.1538 -0.7649 -0.8882
  808MOL0     C 9010   3.169   0.446   0.910  0.3521  0.1649  0.6189
  808MOL0     C 9011   2.441   0.536   1.034  1.2559 -1.1122 -0.3845
  808MOL0     C 9012   2.305   0.585   1.048 -0.5447 -0.5102  0.9044
  808MOL0     H 9013   1.817   0.595   0.713  2.6339 -0.0106  1.4144
  808MOL0     H 9014   1.580   0.669   0.740  2.9212  1.7584 -2.0584
  808MOL0     H 9015   1.405   0.841   0.867  1.8849 -0.3844 -4.3508
  808MOL0     H 9016   1.398   0.692   0.783  0.9650  0.9898 -0.6911
  808MOL0     H 9017   1.180   0.803   0.824  0.1518 -2.1867 -1.6237
  808MOL0     H 9018   1.191   0.634   0.861 -1.3827  0.2363 -0.0694
  808MOL0     H 9019   1.230   0.680   1.104  4.0263  1.7240 -1.0066
  808MOL0     H 9020   1.193   0.859   1.056  1.8329  0.9764 -4.4833
  808MOL0     H 9021   0.979   0.767   0.952 -3.2420  2.4008  2.6057
  808MOL0     H 9022   1.020   0.606   1.014  2.0577 -0.6687  2.8337
  808MOL0     H 9023   0.978   0.665   1.236 -2.5504 -1.9945 -0.2120
  808MOL0     H 9024   0.967   0.837   1.205 -4.4614  1.4820 -1.5646
  808MOL0     H 9025   0.743   0.782   1.216  1.7881 -0.6377  1.6543
  808MOL0     H 9026   0.767   0.799   1.048  1.3761  3.8784  1.1156
  808MOL0     H 9027   0.794   0.530   1.048  0.2838 -1.3386  1.5058
  808MOL0     H 9028   0.769   0.536   1.217 -0.6195 -1.5074 -1.5623
  808MOL0     H 9029   0.549   0.685   1.062 -0.8661 -0.4960  2.3386
  808MOL0     H 9030   0.537   0.590   1.201 -0.8623  0.0870 -0.3092
  808MOL0     H 9031   0.567   0.543   0.798 -2.3493  0.5561 -1.1937
  808MOL0     H 9032   0.466   0.383   0.627  2.0719 -1.9359 -0.8191
  808MOL0     H 9033   0.504   0.232   0.672  0.2807  1.8029 -2.6481
  808MOL0     H 9034   0.234   0.362   0.746 -1.0320 -1.0063  0.4902
  808MOL0     H 9035   0.276   0.191   0.760 -0.9833  1.0560  0.7215
  808MOL0     H 9036   0.300   0.140   0.544  1.3535 -1.3351  2.9262
  808MOL0     H 9037   0.280   0.313   0.486  0.0125  0.0091  0.0104
  808MOL0     H 9038   0.033   0.301   0.583 -2.0658 -1.0925 -0.0524
  808MOL0     H 9039   0.059   0.126   0.570  1.1241 -1.8269 -0.7032
  808MOL0     H 9040   0.074   0.272   0.155 -0.7817  0.6797 -0.1920
  808MOL0     H 9041  -0.142   0.360  -0.069 -0.9519  0.1135 -0.4815
  808MOL0     H 9042  -0.014   0.239  -0.067 -0.3040  2.0198 -1.6593
  808MOL0     H 9043  -0.164   0.176  -0.090 -0.6510  0.8526  0.1481
  808MOL0     H 9044  -0.551   0.000  -0.091 -0.4009 -3.4293  1.1854
  808MOL0     H 9045  -0.797  -0.009  -0.159 -0.5420 -1.1370  0.1668
  808MOL0     H 9046  -1.002   0.025  -0.191  0.3826 -1.8560  0.2123
  808MOL0     H 9047  -1.021  -0.093  -0.065 -0.4537 -0.0353  0.3889
  808MOL0     H 9048  -1.225   0.040   0.018 -2.9886 -0.2775  0.0347
  808MOL0     H 9049  -1.218   0.132  -0.140  1.9558  0.5901  0.5800
  808MOL0     H 9050  -1.257  -0.173  -0.102  0.0717 -0.5516 -0.7588
  808MOL0     H 9051  -1.218  -0.105  -0.243  1.5843  1.9660  0.1971
  808MOL0     H 9052  -1.449   0.006  -0.063 -1.3355  0.2347  0.4415
  808MOL0     H 9053  -1.420   0.050  -0.238 -0.4199 -0.4513 -0.4135
  808MOL0     H 9054  -1.485  -0.246  -0.149  0.6153  0.8080  0.9965
  808MOL0     H 9055  -1.473  -0.175  -0.314 -1.4078 -1.1097 -0.3495
  808MOL0     H 9056  -1.671  -0.033  -0.251 -3.5926 -1.2787 -2.6023
  808MOL0     H 9057  -1.705  -0.206  -0.266 -0.9398  0.0998 -0.3973
  808MOL0     H 9058  -1.813  -0.065  -0.077 -4.3156 -3.4806  1.0252
  808MOL0     H 9059  -1.651  -0.097   0.002  1.2225 -0.2409 -3.0869
  808MOL0     H 9060  -1.685  -0.340  -0.045 -1.5840 -0.2478 -1.5092
  808MOL0     H 9061  -1.840  -0.285  -0.118 -0.2906  0.8901 -0.0082
  808MOL0     H 9062  -0.885   0.183   0.215  2.4458  1.4195  1.4616
  808MOL0     H 9063  -0.649   0.166   0.288 -0.1666 -0.3953  0.0212
  808MOL0     H 9064  -0.356   0.153   0.363 -1.5264  0.2098 -2.2179
  808MOL0     H 9065  -0.153   0.195   0.503  3.1166  2.1013  1.0446
  808MOL0     H 9066   1.603   0.553   1.159  1.2093  0.4483  0.2990
  808MOL0     H 9067   1.834   0.514   1.138  0.7247 -2.6940 -1.6858
  808MOL0     H 9068   2.146   0.361   0.843 -3.9433  4.3464  2.1443
  808MOL0     H 9069   2.383   0.275   0.838  0.9060  0.7654 -0.1017
  808MOL0     H 9070   2.737   0.503   0.996 -0.2795  0.0664  1.4219
  808MOL0     H 9071   2.666   0.437   1.148  1.0803  0.2319  0.4615
  808MOL0     H 9072   2.794   0.240   1.104 -0.0831 -0.2403  0.4916
  808MOL0     H 9073   2.886   0.395   1.089 -0.6325  0.2142 -1.5198
  808MOL0     H 9074   2.832   0.378   0.833 -1.5125 -0.1119  0.3551
  808MOL0     H 9075   2.777   0.207   0.886  0.3059 -1.4980  3.2134
  808MOL0     H 9076   3.015   0.220   0.769  3.9104  3.6654 -0.1103
  808MOL0     H 9077   3.012   0.157   0.932  2.4232 -0.1574  0.0335
  808MOL0     H 9078   3.235   0.528   0.893 -2.0516  2.1431  0.2109
  808MOL0     H 9079   2.519   0.589   1.088  1.2025 -3.6184  2.4401
  808MOL0     H 9080   2.290   0.680   1.097 -0.8041  0.0072 -0.1484
  809MOL0     O 9081  10.654   1.886   6.570  0.3401  0.0086  0.6990
  809MOL0     C 9082  10.678   1.909   6.689  0.4725  0.4890 -0.1691
  809MOL0     O 9083  10.584   1.958   6.777 -0.0287 -0.1395 -0.2968
  809MOL0     C 9084  10.464   2.000   6.719 -0.6154  0.0296  0.0031
  809MOL0     C 9085  10.436   2.137   6.728 -0.0291  0.9036 -0.8501
  809MOL0     C 9086  10.329   2.186   6.662  0.5849  0.9661 -0.3528
  809MOL0     C 9087  10.231   2.100   6.603 -0.1330 -0.0930 -0.4028
  809MOL0     O 9088  10.124   2.143   6.522  0.2296 -0.4974 -0.4057
  809MOL0     C 9089  10.128   2.278   6.462 -0.1944  1.0269 -1.0070
  809MOL0     C 9090  10.019   2.277   6.352  0.0695 -0.1100  0.4909
  809MOL0     C 9091   9.876   2.312   6.406 -0.1319 -0.2320 -0.0369
  809MOL0     C 9092   9.787   2.348   6.296 -0.2920  1.2472  0.3635
  809MOL0     C 9093   9.645   2.385   6.341 -0.7619  0.2655 -0.4475
  809MOL0     C 9094   9.544   2.397   6.228 -0.1655  0.1881 -0.0588
  809MOL0     C 9095   9.403   2.412   6.290  0.2948  0.3990 -0.1855
  809MOL0     C 9096   9.290   2.338   6.204 -0.1622  0.3657 -0.3378
  809MOL0     N 9097   9.160   2.364   6.273 -1.1146 -0.6188 -0.8490
  809MOL0     C 9098   9.108   2.296   6.384  0.1094 -0.3028  0.5961
  809MOL0     C 9099   8.988   2.348   6.409  0.0117  0.9487 -0.9073
  809MOL0     C 9100   8.893   2.293   6.517 -0.4801  0.2346  0.8391
  809MOL0     C 9101   8.782   2.209   6.450 -0.3566  0.1273 -0.4247
  809MOL0     C 9102   8.674   2.305   6.390 -0.9034 -0.1906 -0.9468
  809MOL0     C 9103   8.549   2.230   6.357  0.2198  0.3815  0.0108
  809MOL0     O 9104   8.583   2.150   6.242  0.4696  0.6133 -0.1185
  809MOL0     C 9105   8.491   2.162   6.143 -0.0587  0.9465  0.5612
  809MOL0     C 9106   8.402   2.059   6.117 -0.2774  0.3566 -0.2541
  809MOL0     C 9107   8.309   2.061   6.015  0.1758  0.3083 -0.1630
  809MOL0     C 9108   8.231   1.932   5.995 -0.3111 -0.1251  0.0308
  809MOL0     C 9109   8.303   2.162   5.926 -0.5233 -0.0197  1.3821
  809MOL0     C 9110   8.203   2.195   5.809  0.4703  1.3215 -1.1927
  809MOL0     O 9111   8.236   2.285   5.715  0.0767 -0.1738  0.2996
  809MOL0     C 9112   8.173   2.283   5.589 -1.5407  0.3133 -0.5313
  809MOL0     C 9113   8.180   2.164   5.507  0.2117 -0.4035  0.0126
  809MOL0     C 9114   8.129   2.163   5.375 -0.6368 -0.8314 -0.4833
  809MOL0     C 9115   8.064   2.277   5.335 -0.9012  0.1503  0.6999
  809MOL0     O 9116   8.007   2.283   5.216  0.7204 -0.6600 -0.2166
  809MOL0     C 9117   7.933   2.171   5.169 -0.3571 -0.6366  0.9732
  809MOL0     C 9118   7.814   2.151   5.258 -0.5877 -0.8721  0.5100
  809MOL0     C 9119   7.734   2.277   5.290  0.3862  0.0239 -0.9914
  809MOL0     C 9120   7.588   2.235   5.341 -0.8045  0.3914  0.0509
  809MOL0     C 9121   7.510   2.356   5.376  0.0795  0.9966 -0.4502
  809MOL0     C 9122   7.368   2.321   5.409  0.5855  0.2260  0.4881
  809MOL0     C 9123   7.350   2.210   5.515 -0.6653 -0.1092  0.2101
  809MOL0     C 9124   7.318   2.076   5.447  0.2770 -0.4924  0.3453
  809MOL0    Cl 9125   7.147   2.095   5.378 -0.1571 -0.3358 -0.4096
  809MOL0     C 9126   8.062   2.395   5.409  0.0041 -0.4505 -0.0324
  809MOL0     C 9127   8.113   2.401   5.540 -0.7446  1.3886  0.4378
  809MOL0     O 9128   8.090   2.147   5.833  0.6438  0.2112  0.3690
  809MOL0     C 9129   8.400   2.265   5.938  0.4277 -0.5667 -0.2890
  809MOL0     C 9130   8.487   2.270   6.050 -0.1726 -0.0905  0.5443
  809MOL0     N 9131   8.962   2.443   6.310 -0.2792 -0.0125  1.0254
  809MOL0     N 9132   9.069   2.456   6.233  0.7594  0.5443 -0.2903
  809MOL0     C 9133  10.244   1.959   6.615  0.2618  0.2123  0.5659
  809MOL0     C 9134  10.363   1.909   6.671 -0.1879 -0.4593 -0.0365
  809MOL0     C 9135  10.819   1.910   6.729  0.8353 -0.1951  0.0219
  809MOL0     C 9136  10.836   1.947   6.864 -0.5039 -0.1265 -0.5904
  809MOL0     C 9137  10.969   1.961   6.913 -0.8004  0.7054 -0.1580
  809MOL0     C 9138  11.083   1.928   6.843  0.2984 -0.0688 -0.1868
  809MOL0     O 9139  11.196   1.934   6.914 -0.4026 -0.0684  0.4910
  809MOL0     C 9140  11.314   1.941   6.841 -0.0623  0.3108 -0.1383
  809MOL0     C 9141  11.435   1.983   6.932 -0.5545  0.1377  0.4998
  809MOL0     C 9142  11.580   1.953   6.877  1.2685  0.1218  0.1882
  809MOL0     C 9143  11.685   1.970   6.985 -0.1507  0.0646 -0.1449
  809MOL0     C 9144  11.692   2.091   7.058 -0.4321 -0.3757  0.8537
  809MOL0     C 9145  11.721   2.195   7.110 -0.3238  0.0345  0.0027
  809MOL0     C 9146  11.061   1.899   6.706  0.6142  0.0441  0.1592
  809MOL0     C 9147  10.931   1.888   6.651  0.7284  0.9179 -0.7907
  809MOL0     H 9148  10.497   2.209   6.782 -2.3296  1.7537  0.7942
  809MOL0     H 9149  10.311   2.293   6.666 -1.7992  0.6710 -1.4032
  809MOL0     H 9150  10.112   2.364   6.528 -3.7594 -0.9556  0.9813
  809MOL0     H 9151  10.222   2.294   6.407  1.6874 -1.9175  1.0982
  809MOL0     H 9152  10.047   2.356   6.281 -0.6632  2.4626  2.8893
  809MOL0     H 9153  10.016   2.176   6.311  0.4218 -0.9451  2.4113
  809MOL0     H 9154   9.830   2.224   6.453 -2.1865  0.2537 -1.0084
  809MOL0     H 9155   9.879   2.392   6.481 -2.5723  2.6261 -2.7066
  809MOL0     H 9156   9.819   2.440   6.247  0.5470  0.6727 -0.1930
  809MOL0     H 9157   9.793   2.259   6.233  0.8299 -0.0113  2.1526
  809MOL0     H 9158   9.616   2.304   6.408 -0.8800  0.7596  0.1130
  809MOL0     H 9159   9.647   2.478   6.400 -3.3858  0.4507 -0.5447
  809MOL0     H 9160   9.559   2.485   6.165  0.5692 -0.1898 -0.4306
  809MOL0     H 9161   9.561   2.311   6.163 -0.3077  0.0074  0.1425
  809MOL0     H 9162   9.398   2.362   6.387 -3.2486 -1.0022 -0.9269
  809MOL0     H 9163   9.378   2.517   6.310  1.4174  1.1135 -2.2439
  809MOL0     H 9164   9.297   2.230   6.220  1.0134  0.6720  1.5274
  809MOL0     H 9165   9.290   2.374   6.101  1.8519  1.6551  0.0503
  809MOL0     H 9166   9.150   2.213   6.438  0.1993  1.6672  3.8438
  809MOL0     H 9167   8.943   2.218   6.580  1.5588  0.0820 -0.8394
  809MOL0     H 9168   8.854   2.363   6.590  0.6316  0.1190  1.5718
  809MOL0     H 9169   8.744   2.148   6.533  0.8419  1.0749  0.8765
  809MOL0     H 9170   8.823   2.142   6.374 -1.0656  1.2329 -1.8342
  809MOL0     H 9171   8.718   2.357   6.305  0.3509 -0.9247 -0.7671
  809MOL0     H 9172   8.648   2.380   6.466  1.5334 -2.7026  2.7044
  809MOL0     H 9173   8.468   2.300   6.338 -1.1042 -0.4712  2.1830
  809MOL0     H 9174   8.514   2.177   6.446  0.2079  1.4320  0.6428
  809MOL0     H 9175   8.397   1.973   6.183  1.3109 -0.2451 -0.8762
  809MOL0     H 9176   8.235   1.911   5.888  3.1815  0.3826 -0.0778
  809MOL0     H 9177   8.278   1.851   6.051  1.6792  1.7933  1.3381
  809MOL0     H 9178   8.130   1.950   6.033 -0.8498 -1.9440 -0.4425
  809MOL0     H 9179   8.220   2.071   5.546 -1.6769 -1.8042 -1.2066
  809MOL0     H 9180   8.141   2.071   5.318 -1.0949 -0.6001 -0.9598
  809MOL0     H 9181   7.911   2.198   5.066  0.4945 -0.3838  0.8549
  809MOL0     H 9182   7.996   2.082   5.174 -1.1041 -1.1648  1.3929
  809MOL0     H 9183   7.749   2.078   5.207  0.8370 -2.0484  0.3164
  809MOL0     H 9184   7.860   2.114   5.350  2.0959 -1.2732 -0.8949
  809MOL0     H 9185   7.715   2.331   5.197 -1.5318  1.9415  0.3924
  809MOL0     H 9186   7.788   2.339   5.363 -2.5061  1.7816 -0.1663
  809MOL0     H 9187   7.546   2.177   5.259 -0.5758  1.7007 -1.0315
  809MOL0     H 9188   7.603   2.178   5.434  0.4659 -0.7683 -0.8277
  809MOL0     H 9189   7.498   2.408   5.281 -2.3723 -0.7469 -1.2029
  809MOL0     H 9190   7.546   2.416   5.460  2.0496  0.4711 -0.8872
  809MOL0     H 9191   7.316   2.411   5.444 -3.6561 -2.4096  1.7272
  809MOL0     H 9192   7.317   2.291   5.318 -3.0595  1.4572  1.9278
  809MOL0     H 9193   7.279   2.234   5.595  3.3405  1.4975  3.6453
  809MOL0     H 9194   7.430   2.208   5.589 -3.2010 -0.3667  3.1794
  809MOL0     H 9195   7.319   1.994   5.520 -1.6027  0.4724  1.5421
  809MOL0     H 9196   7.399   2.061   5.375 -0.6325 -2.3724 -0.3439
  809MOL0     H 9197   8.012   2.473   5.353  0.7120 -0.7722 -1.1460
  809MOL0     H 9198   8.133   2.494   5.593  1.3518  1.2763 -0.1070
  809MOL0     H 9199   8.421   2.345   5.867 -2.3300  0.1610 -0.4091
  809MOL0     H 9200   8.560   2.351   6.047  0.7763 -0.8829 -2.9311
  809MOL0     H 9201  10.164   1.894   6.582  1.2341 -0.2461 -1.0240
  809MOL0     H 9202  10.387   1.803   6.676 -0.3208 -0.5603 -1.2264
  809MOL0     H 9203  10.761   1.965   6.941  2.3714  0.4992  2.3077
  809MOL0     H 9204  10.984   1.976   7.019 -1.0423 -2.3780  0.4113
  809MOL0     H 9205  11.336   1.835   6.823  2.4833  0.0520  3.3218
  809MOL0     H 9206  11.312   2.004   6.752  0.9441 -0.7401 -0.9296
  809MOL0     H 9207  11.423   1.936   7.030 -3.0545 -1.3328 -0.4319
  809MOL0     H 9208  11.418   2.090   6.949 -1.1853  0.0749  0.2708
  809MOL0     H 9209  11.601   2.019   6.793  0.1540 -0.2428 -0.3996
  809MOL0     H 9210  11.587   1.856   6.828 -0.0800  0.5295 -0.8569
  809MOL0     H 9211  11.785   1.942   6.949  0.7275  0.7719  1.6071
  809MOL0     H 9212  11.660   1.900   7.066  1.8047  3.0709  3.4220
  809MOL0     H 9213  11.750   2.274   7.177  1.1447 -0.9942  0.6459
  809MOL0     H 9214  11.138   1.880   6.632  1.6455 -0.2539  1.2761
  809MOL0     H 9215  10.916   1.841   6.554  2.1715  0.9505 -1.0540
  810MOL0     O 9216  10.540   1.829   7.597 -0.0450  0.1876  0.0415
  810MOL0     C 9217  10.638   1.889   7.638 -0.3730 -0.0118  0.6792
  810MOL0     O 9218  10.649   2.022   7.667 -0.0663  0.1206  0.0142
  810MOL0     C 9219  10.538   2.105   7.670 -0.1995  0.2704  0.2217
  810MOL0     C 9220  10.425   2.091   7.588 -0.1724  0.9583 -0.0182
  810MOL0     C 9221  10.320   2.181   7.598 -0.0330  0.3584 -0.1407
  810MOL0     C 9222  10.327   2.279   7.695  0.3080  0.5057  0.1800
  810MOL0     O 9223  10.227   2.367   7.711 -0.2061 -0.4510 -0.7297
  810MOL0     C 9224  10.230   2.471   7.614  0.4448 -0.2872 -0.7241
  810MOL0     C 9225  10.141   2.581   7.672  0.1574 -0.2142 -0.2431
  810MOL0     C 9226  10.185   2.720   7.623  0.3435  0.3998  0.4801
  810MOL0     C 9227  10.125   2.827   7.713  0.3829  0.0855  0.5722
  810MOL0     C 9228  10.171   2.965   7.659  0.1844 -0.4537 -0.5195
  810MOL0     C 9229  10.320   2.989   7.687  0.1235 -0.1482  0.3230
  810MOL0     C 9230  10.374   3.110   7.622  0.2193  0.1013  0.1744
  810MOL0     C 9231  10.453   3.091   7.491 -0.0897  0.1822 -0.0831
  810MOL0     N 9232  10.371   3.052   7.379 -0.0205  0.1037  0.0377
  810MOL0     C 9233  10.267   3.123   7.335  0.0966  0.2869 -0.8933
  810MOL0     C 9234  10.202   3.052   7.243 -0.4848 -0.1628  0.3799
  810MOL0     C 9235  10.065   3.076   7.191  0.8134  0.4324 -0.2745
  810MOL0     C 9236   9.973   2.971   7.255  0.2197 -0.7594  0.0248
  810MOL0     C 9237   9.927   2.866   7.167  0.0173 -0.4895 -0.2351
  810MOL0     C 9238   9.818   2.787   7.232 -0.7719  0.6659 -0.7346
  810MOL0     O 9239   9.734   2.736   7.129  0.5829 -0.5160  0.0581
  810MOL0     C 9240   9.603   2.705   7.162  0.3804  0.2908  0.0818
  810MOL0     C 9241   9.507   2.723   7.060  0.3978 -0.3103 -0.6195
  810MOL0     C 9242   9.371   2.722   7.089 -0.7004 -0.0770 -0.0441
  810MOL0     C 9243   9.274   2.775   6.982 -0.0484 -0.2066  0.8262
  810MOL0     C 9244   9.331   2.681   7.219 -0.8067  0.5673 -0.5252
  810MOL0     C 9245   9.192   2.688   7.264 -0.0659  0.8797 -0.1261
  810MOL0     O 9246   9.102   2.656   7.165 -0.3224  0.3763 -0.4846
  810MOL0     C 9247   8.976   2.691   7.176  0.4755 -0.2452 -0.7720
  810MOL0     C 9248   8.892   2.617   7.095  0.5532 -0.8491  0.0775
  810MOL0     C 9249   8.758   2.652   7.074  0.3547 -0.5855  0.9995
  810MOL0     C 9250   8.713   2.768   7.138 -0.5061  0.1727  0.0854
  810MOL0     O 9251   8.580   2.789   7.127  0.3742 -0.0559  0.6352
  810MOL0     C 9252   8.519   2.920   7.142  0.5178 -0.0977 -0.2892
  810MOL0     C 9253   8.365   2.897   7.146 -0.3143 -0.4419 -0.2225
  810MOL0     C 9254   8.276   3.025   7.183  0.0898  0.8248 -0.5227
  810MOL0     C 9255   8.293   3.149   7.086 -0.3310 -0.2281  0.4363
  810MOL0     C 9256   8.231   3.132   6.947 -0.2833  0.4034 -0.5377
  810MOL0     C 9257   8.091   3.093   6.931  0.1328  0.2661  0.7092
  810MOL0     C 9258   8.036   3.140   6.803 -0.6535 -0.5016  0.2892
  810MOL0     C 9259   7.891   3.113   6.799  1.1964  0.8042  0.6798
  810MOL0    Cl 9260   7.875   2.928   6.785 -0.1420  0.1227 -0.3119
  810MOL0     C 9261   8.797   2.859   7.209  0.1389  0.2365 -0.2409
  810MOL0     C 9262   8.930   2.811   7.231 -0.1252 -0.6129 -0.6059
  810MOL0     O 9263   9.157   2.714   7.381 -0.9629  0.2629  0.2557
  810MOL0     C 9264   9.430   2.648   7.318  0.0193 -0.3001  0.1725
  810MOL0     C 9265   9.560   2.664   7.293 -0.1335  0.7536  0.6510
  810MOL0     N 9266  10.282   2.944   7.223 -0.1132  0.2960 -0.8883
  810MOL0     N 9267  10.381   2.932   7.312  1.1019  0.7603 -0.1275
  810MOL0     C 9268  10.442   2.286   7.778 -0.5048  0.0141  0.1202
  810MOL0     C 9269  10.547   2.196   7.764 -0.5721  1.1343 -0.3270
  810MOL0     C 9270  10.765   1.819   7.634 -0.4644 -0.8380  0.6829
  810MOL0     C 9271  10.789   1.697   7.566 -0.5682  0.0488  0.2365
  810MOL0     C 9272  10.907   1.620   7.587  0.0950  0.8074  0.3816
  810MOL0     C 9273  11.009   1.673   7.669  0.7124  0.2105  0.3774
  810MOL0     O 9274  11.131   1.605   7.674 -0.4274 -0.0029 -0.6302
  810MOL0     C 9275  11.231   1.626   7.775  0.6350  0.3386  0.3857
  810MOL0     C 9276  11.355   1.542   7.764 -0.0165  0.5500  0.1339
  810MOL0     C 9277  11.324   1.388   7.776 -0.6567  0.0225  0.4041
  810MOL0     C 9278  11.309   1.336   7.923  0.5361 -0.2474 -0.0277
  810MOL0     C 9279  11.437   1.357   7.998  0.4464  0.0565 -0.1411
  810MOL0     C 9280  11.536   1.368   8.070 -0.1072  0.0723  0.8363
  810MOL0     C 9281  10.992   1.801   7.719 -0.1462  0.8908 -0.5786
  810MOL0     C 9282  10.875   1.871   7.701 -0.4523 -0.4130 -0.2421
  810MOL0     H 9283  10.433   2.024   7.503  0.1034  2.5756 -1.3279
  810MOL0     H 9284  10.243   2.172   7.523 -2.4537 -2.6068  2.4333
  810MOL0     H 9285  10.336   2.496   7.606 -0.3984  4.7239  0.3115
  810MOL0     H 9286  10.183   2.434   7.523 -0.6254 -0.9114  0.0553
  810MOL0     H 9287  10.035   2.554   7.677  0.4983 -1.5086  0.7489
  810MOL0     H 9288  10.159   2.587   7.780 -0.7926  1.2594 -0.1416
  810MOL0     H 9289  10.295   2.724   7.628  0.4729  0.7779 -1.7549
  810MOL0     H 9290  10.164   2.740   7.518  2.1126  0.8464  0.1693
  810MOL0     H 9291  10.020   2.810   7.736  0.9493 -2.9055  1.3087
  810MOL0     H 9292  10.177   2.827   7.809  1.2343 -0.1995  0.1256
  810MOL0     H 9293  10.155   2.966   7.551 -0.1863  1.2318 -0.4785
  810MOL0     H 9294  10.105   3.043   7.699  0.4186 -0.2984 -0.4310
  810MOL0     H 9295  10.321   3.010   7.794 -2.7086  2.0051  0.0520
  810MOL0     H 9296  10.394   2.910   7.670  0.4004 -0.2500  1.8553
  810MOL0     H 9297  10.295   3.185   7.608  0.1175  0.1807  1.1402
  810MOL0     H 9298  10.452   3.151   7.685  0.2630  0.6344 -0.2148
  810MOL0     H 9299  10.530   3.016   7.508 -0.3650 -0.0660  0.0619
  810MOL0     H 9300  10.493   3.186   7.455  0.8052 -0.7218 -1.5648
  810MOL0     H 9301  10.235   3.223   7.360  1.1386  0.3893  0.1429
  810MOL0     H 9302  10.042   3.176   7.229  1.1714  0.5394 -0.3304
  810MOL0     H 9303  10.050   3.092   7.084  0.4040  2.6407  0.0609
  810MOL0     H 9304   9.887   3.021   7.301 -1.8596 -2.6410 -1.5752
  810MOL0     H 9305  10.026   2.915   7.333 -3.2167 -0.9755  2.4357
  810MOL0     H 9306  10.010   2.806   7.129  0.4463  1.0722 -1.8651
  810MOL0     H 9307   9.884   2.917   7.081  0.7810  0.8941  0.1726
  810MOL0     H 9308   9.760   2.862   7.287 -0.2336  0.3808  0.2413
  810MOL0     H 9309   9.857   2.707   7.295 -3.8086 -0.6356 -0.3181
  810MOL0     H 9310   9.548   2.749   6.963 -0.0449 -2.8770 -1.5445
  810MOL0     H 9311   9.329   2.822   6.899  1.3725 -2.3469  0.4951
  810MOL0     H 9312   9.217   2.688   6.947 -1.5557  0.4021  1.6679
  810MOL0     H 9313   9.197   2.843   7.020 -0.4240 -0.4134  0.4480
  810MOL0     H 9314   8.930   2.525   7.051 -0.4182 -1.3092  0.1544
  810MOL0     H 9315   8.689   2.595   7.013  0.0353  0.8107  0.0343
  810MOL0     H 9316   8.549   2.976   7.231 -1.4248  1.1194 -0.3445
  810MOL0     H 9317   8.540   2.971   7.048 -2.6412  0.9898 -0.5271
  810MOL0     H 9318   8.333   2.858   7.049  0.5002  0.4600 -0.8690
  810MOL0     H 9319   8.343   2.829   7.229  0.5946 -0.6309 -0.1308
  810MOL0     H 9320   8.301   3.064   7.282  1.3799 -2.0493  0.3827
  810MOL0     H 9321   8.175   2.985   7.193  1.0362 -1.1499  2.2694
  810MOL0     H 9322   8.247   3.233   7.140  0.4111 -0.0462  0.8018
  810MOL0     H 9323   8.399   3.173   7.083 -0.2846 -0.4219  0.5425
  810MOL0     H 9324   8.299   3.069   6.890  0.6982  1.7999 -0.9742
  810MOL0     H 9325   8.247   3.231   6.902  1.0359  0.7322  0.5940
  810MOL0     H 9326   8.069   2.988   6.951 -0.4467  0.2934  0.2380
  810MOL0     H 9327   8.028   3.149   7.001 -0.2620  0.8535 -0.0983
  810MOL0     H 9328   8.083   3.087   6.719 -0.9115  0.0673 -0.2219
  810MOL0     H 9329   8.044   3.248   6.787  0.0594 -0.4350  1.0269
  810MOL0     H 9330   7.846   3.171   6.718  2.4815  1.7423  0.6162
  810MOL0     H 9331   7.838   3.147   6.889  1.9372  2.4395  0.5295
  810MOL0     H 9332   8.762   2.952   7.254  0.1353 -0.5907  1.5561
  810MOL0     H 9333   8.996   2.874   7.289  1.4482 -1.3291 -1.5432
  810MOL0     H 9334   9.394   2.608   7.412 -0.6600  1.6885  0.8120
  810MOL0     H 9335   9.637   2.633   7.362 -0.7439 -0.6607  0.7354
  810MOL0     H 9336  10.429   2.358   7.859  0.5556 -1.7593  1.9489
  810MOL0     H 9337  10.634   2.221   7.824 -0.6482  1.1832 -0.2366
  810MOL0     H 9338  10.702   1.663   7.510 -1.1143  0.5022  0.7906
  810MOL0     H 9339  10.923   1.524   7.539 -1.6015  0.8540 -0.3570
  810MOL0     H 9340  11.268   1.729   7.782  0.7770  0.2129  1.8828
  810MOL0     H 9341  11.191   1.624   7.877 -0.0591  2.7702  0.2256
  810MOL0     H 9342  11.417   1.572   7.849 -1.8799  0.1789  1.6921
  810MOL0     H 9343  11.409   1.557   7.670 -0.1648 -1.5792 -0.3485
  810MOL0     H 9344  11.400   1.337   7.717  0.0719 -0.6562  1.8799
  810MOL0     H 9345  11.230   1.358   7.728  0.8763 -2.7098 -1.1573
  810MOL0     H 9346  11.280   1.230   7.933 -0.2622  0.1224  2.2565
  810MOL0     H 9347  11.222   1.385   7.968  0.7938 -0.0930  0.3114
  810MOL0     H 9348  11.614   1.375   8.142  0.9681 -0.6055 -0.2308
  810MOL0     H 9349  11.065   1.856   7.778  0.5755  2.1108 -2.5249
  810MOL0     H 9350  10.851   1.965   7.750 -2.2371 -0.1239 -1.5410
  811MOL0     O 9351   0.377   4.088   0.530  0.5930  0.3727  0.2977
  811MOL0     C 9352   0.310   3.987   0.565  0.1465 -0.9727 -0.5310
  811MOL0     O 9353   0.188   3.953   0.523 -0.0652  0.4550  0.0129
  811MOL0     C 9354   0.114   4.037   0.446 -0.1043  0.2164 -0.2799
  811MOL0     C 9355   0.093   4.169   0.478  0.0161  0.2308  0.0068
  811MOL0     C 9356   0.007   4.252   0.410 -0.3260 -0.1330  0.5995
  811MOL0     C 9357  -0.060   4.202   0.293  0.5013 -0.8673  0.2527
  811MOL0     O 9358  -0.138   4.291   0.229 -0.0220  0.0545  0.7349
  811MOL0     C 9359  -0.144   4.278   0.085  0.3324  0.3071  0.4357
  811MOL0     C 9360  -0.284   4.247   0.029 -0.1969  0.1320 -0.3772
  811MOL0     C 9361  -0.387   4.353   0.074 -1.0720  0.2330  0.0680
  811MOL0     C 9362  -0.530   4.322   0.020  0.3068  0.1834 -0.5971
  811MOL0     C 9363  -0.633   4.419   0.088  0.1275 -0.3269  0.4503
  811MOL0     C 9364  -0.767   4.415   0.025  0.0672  0.5507 -0.2538
  811MOL0     C 9365  -0.771   4.479  -0.110 -0.4367  0.4028  1.0056
  811MOL0     C 9366  -0.905   4.498  -0.174 -0.3467  0.4775 -0.7062
  811MOL0     N 9367  -0.975   4.616  -0.128  0.0274 -0.2314 -0.9428
  811MOL0     C 9368  -1.057   4.691  -0.203 -0.0016 -0.4169 -0.9425
  811MOL0     C 9369  -1.101   4.787  -0.120  0.3771 -0.0596 -1.0213
  811MOL0     C 9370  -1.211   4.887  -0.144  0.1340  0.4405  0.2895
  811MOL0     C 9371  -1.289   4.941  -0.022  0.5102  0.0571 -0.3679
  811MOL0     C 9372  -1.229   5.059   0.048  0.3653 -0.2702 -0.2290
  811MOL0     C 9373  -1.277   5.090   0.186 -0.0517  0.2018  0.2188
  811MOL0     O 9374  -1.420   5.066   0.197 -0.0427  0.9320 -0.8831
  811MOL0     C 9375  -1.503   5.142   0.127  0.2706  0.0841  1.4395
  811MOL0     C 9376  -1.481   5.268   0.063 -0.9660  0.5907  0.1721
  811MOL0     C 9377  -1.574   5.335  -0.019 -0.2037  0.5047 -0.6843
  811MOL0     C 9378  -1.539   5.475  -0.057 -0.5850 -0.9917 -1.2324
  811MOL0     C 9379  -1.704   5.273  -0.037  0.9473  0.1496 -0.2852
  811MOL0     C 9380  -1.818   5.329  -0.123 -0.8766  0.3898 -0.1726
  811MOL0     O 9381  -1.937   5.267  -0.127 -0.5595  0.0699 -0.0897
  811MOL0     C 9382  -2.045   5.322  -0.202  0.7330 -0.3608 -0.2372
  811MOL0     C 9383  -2.080   5.268  -0.324 -0.1212  0.0273  0.2317
  811MOL0     C 9384  -2.196   5.312  -0.392 -0.0310  0.6343  0.1442
  811MOL0     C 9385  -2.292   5.391  -0.326 -0.3951  1.1196 -0.3897
  811MOL0     O 9386  -2.420   5.418  -0.361  0.2717 -0.5191  0.6075
  811MOL0     C 9387  -2.477   5.378  -0.485  0.2885  0.6007 -0.4153
  811MOL0     C 9388  -2.613   5.441  -0.525  0.6124  0.0650  0.4350
  811MOL0     C 9389  -2.676   5.385  -0.652  0.3127  0.2370  0.0372
  811MOL0     C 9390  -2.689   5.232  -0.657  0.3448  0.3700  1.1102
  811MOL0     C 9391  -2.819   5.187  -0.733  1.0962 -0.1595 -1.0129
  811MOL0     C 9392  -2.799   5.226  -0.887  0.3057  1.1705 -0.7002
  811MOL0     C 9393  -2.920   5.188  -0.968  0.1759  1.0122  0.4587
  811MOL0     C 9394  -2.895   5.188  -1.115  1.0248 -0.1311  0.5578
  811MOL0    Cl 9395  -3.019   5.102  -1.215  0.3314 -0.1240  0.6192
  811MOL0     C 9396  -2.262   5.440  -0.201  0.2135  1.8133  0.8290
  811MOL0     C 9397  -2.134   5.405  -0.141  1.6687 -0.3788  0.9500
  811MOL0     O 9398  -1.787   5.417  -0.201 -0.0855  0.2718 -0.6386
  811MOL0     C 9399  -1.726   5.151   0.035  0.4078  0.3753 -0.5933
  811MOL0     C 9400  -1.635   5.080   0.108 -0.5228  0.5682 -0.1680
  811MOL0     N 9401  -1.036   4.773   0.004 -0.2147  0.5434 -0.8852
  811MOL0     N 9402  -0.957   4.668  -0.004 -0.5929 -0.0903  0.4970
  811MOL0     C 9403  -0.049   4.062   0.271 -0.0964  0.1559  0.7118
  811MOL0     C 9404   0.028   3.984   0.351  0.3006 -0.7346 -0.2476
  811MOL0     C 9405   0.392   3.888   0.654 -0.4619  0.3700  0.1131
  811MOL0     C 9406   0.318   3.784   0.718  0.8297  0.1619  0.0606
  811MOL0     C 9407   0.381   3.703   0.819 -0.4487  0.4797 -0.6817
  811MOL0     C 9408   0.524   3.715   0.840  0.3588 -0.0653  0.7564
  811MOL0     O 9409   0.599   3.631   0.925  0.2362  0.5239 -0.7487
  811MOL0     C 9410   0.531   3.545   1.025 -0.7135 -1.0960 -0.0454
  811MOL0     C 9411   0.640   3.487   1.112  0.0764  0.6257  0.0303
  811MOL0     C 9412   0.563   3.409   1.228  0.1713 -0.9270  0.3097
  811MOL0     C 9413   0.656   3.338   1.330  0.1764 -0.3335  0.3536
  811MOL0     C 9414   0.712   3.215   1.275  0.0990  0.7127 -0.5574
  811MOL0     C 9415   0.748   3.112   1.220  0.2920 -0.4112  0.4604
  811MOL0     C 9416   0.594   3.800   0.756 -0.0338  0.3516  0.1148
  811MOL0     C 9417   0.528   3.890   0.670 -0.0271  0.1778  0.0693
  811MOL0     H 9418   0.156   4.193   0.563 -1.1702  0.0999  0.9401
  811MOL0     H 9419   0.002   4.356   0.440  0.6397 -0.2044  1.0308
  811MOL0     H 9420  -0.102   4.368   0.039  2.9319 -0.8686  0.2910
  811MOL0     H 9421  -0.072   4.200   0.059 -0.8141 -0.8900  0.7507
  811MOL0     H 9422  -0.272   4.245  -0.080  1.4882 -1.2919 -0.1934
  811MOL0     H 9423  -0.309   4.148   0.068 -0.2508  0.4216  0.3410
  811MOL0     H 9424  -0.380   4.351   0.183 -1.1099  3.1709  0.2061
  811MOL0     H 9425  -0.354   4.453   0.042  0.2325  0.5160  2.1210
  811MOL0     H 9426  -0.541   4.322  -0.089 -2.4423 -1.2381 -0.4236
  811MOL0     H 9427  -0.561   4.225   0.061 -0.6865  0.9130  0.4541
  811MOL0     H 9428  -0.645   4.396   0.194 -2.9272 -2.3035 -0.2006
  811MOL0     H 9429  -0.596   4.521   0.072 -2.9530  0.4282 -3.4396
  811MOL0     H 9430  -0.790   4.308   0.027  1.4923  0.1954 -1.1681
  811MOL0     H 9431  -0.839   4.470   0.086 -0.9972  0.6030 -1.5212
  811MOL0     H 9432  -0.726   4.578  -0.104  0.3867  0.3058 -1.8610
  811MOL0     H 9433  -0.710   4.420  -0.180  2.7931 -0.4828  4.2392
  811MOL0     H 9434  -0.968   4.412  -0.152 -1.7392  1.3811 -1.0158
  811MOL0     H 9435  -0.897   4.507  -0.283  1.4741  0.1556 -0.6334
  811MOL0     H 9436  -1.090   4.683  -0.306 -0.0110  0.6424 -1.0365
  811MOL0     H 9437  -1.169   4.976  -0.192 -4.4600  1.9144 -1.5222
  811MOL0     H 9438  -1.273   4.840  -0.220 -1.2003  0.5496  1.2701
  811MOL0     H 9439  -1.309   4.856   0.043 -1.4573 -0.2070 -1.2482
  811MOL0     H 9440  -1.385   4.986  -0.053 -0.2089 -0.9398  0.3767
  811MOL0     H 9441  -1.238   5.152  -0.009 -1.1501  0.4377  1.0653
  811MOL0     H 9442  -1.121   5.041   0.050  0.2031 -1.2489  1.0434
  811MOL0     H 9443  -1.258   5.195   0.211 -1.0984  0.1467  1.3691
  811MOL0     H 9444  -1.235   5.025   0.263  0.7231  2.4892  1.8375
  811MOL0     H 9445  -1.382   5.312   0.069 -0.1112 -0.4303 -3.4394
  811MOL0     H 9446  -1.610   5.550  -0.019  2.8983  3.1725 -2.0921
  811MOL0     H 9447  -1.436   5.508  -0.040 -1.7908  2.4410  0.3589
  811MOL0     H 9448  -1.551   5.477  -0.166  1.4966 -1.4258 -1.5028
  811MOL0     H 9449  -2.000   5.204  -0.363  1.2514 -0.5174  3.5822
  811MOL0     H 9450  -2.215   5.258  -0.484  0.3289 -0.9742  0.9619
  811MOL0     H 9451  -2.407   5.407  -0.564 -0.1972 -2.3769 -2.0725
  811MOL0     H 9452  -2.489   5.269  -0.485 -0.2867  0.6154 -2.7270
  811MOL0     H 9453  -2.692   5.432  -0.450 -1.9542 -0.5669 -2.1508
  811MOL0     H 9454  -2.599   5.548  -0.542  2.1361 -0.3947 -1.6404
  811MOL0     H 9455  -2.620   5.419  -0.739 -1.4315  1.5673 -0.6395
  811MOL0     H 9456  -2.778   5.426  -0.655  0.9181  1.7900  0.1663
  811MOL0     H 9457  -2.596   5.185  -0.690 -0.6334 -0.9757  0.1648
  811MOL0     H 9458  -2.712   5.198  -0.556  0.7567 -0.4876  0.9230
  811MOL0     H 9459  -2.909   5.233  -0.690  0.9747 -0.4253 -0.9813
  811MOL0     H 9460  -2.835   5.079  -0.725  2.9234 -0.3440  0.7858
  811MOL0     H 9461  -2.793   5.335  -0.895  0.4174  1.1141 -1.4581
  811MOL0     H 9462  -2.705   5.182  -0.923 -0.0647 -1.1973  1.0428
  811MOL0     H 9463  -3.009   5.251  -0.954 -0.6764 -0.5281  2.4367
  811MOL0     H 9464  -2.948   5.086  -0.942  1.6870  0.7736  1.2834
  811MOL0     H 9465  -2.793   5.151  -1.130  1.0820 -0.1239  0.9279
  811MOL0     H 9466  -2.905   5.291  -1.148  1.2492  0.1351  1.2960
  811MOL0     H 9467  -2.339   5.489  -0.142 -0.7427 -1.1949  2.2553
  811MOL0     H 9468  -2.132   5.426  -0.034 -1.3162 -0.2369  1.0483
  811MOL0     H 9469  -1.819   5.097   0.026  1.2119 -0.9310 -1.4603
  811MOL0     H 9470  -1.666   4.986   0.152 -0.2091  0.4823 -0.1271
  811MOL0     H 9471  -0.108   4.002   0.203  1.1671 -2.4431  1.7858
  811MOL0     H 9472   0.030   3.876   0.337  1.9111 -1.0693  1.9473
  811MOL0     H 9473   0.211   3.773   0.701  0.7794 -1.4758  1.1934
  811MOL0     H 9474   0.333   3.620   0.870 -1.1087  1.6702  0.6993
  811MOL0     H 9475   0.465   3.612   1.080  1.5461  2.4103 -1.2323
  811MOL0     H 9476   0.481   3.461   0.975 -3.3524 -0.1431  0.8478
  811MOL0     H 9477   0.698   3.569   1.154 -0.7899  1.9815 -1.3122
  811MOL0     H 9478   0.706   3.420   1.057 -0.8511  0.2655 -0.6710
  811MOL0     H 9479   0.490   3.345   1.179 -1.2399  1.2056 -0.5123
  811MOL0     H 9480   0.514   3.487   1.287 -1.4287 -0.7059 -1.2446
  811MOL0     H 9481   0.602   3.311   1.422  0.6345 -1.3257  0.3474
  811MOL0     H 9482   0.730   3.414   1.358 -2.2991  2.2206  0.3827
  811MOL0     H 9483   0.786   3.018   1.187  0.0026  0.5655 -3.0029
  811MOL0     H 9484   0.702   3.792   0.763  0.0753  1.0273 -0.6229
  811MOL0     H 9485   0.586   3.972   0.629  0.8467  1.2512  3.2006
  812MOL0     O 9486  10.137   1.244   0.796  0.6623 -0.1799 -0.4226
  812MOL0     C 9487  10.112   1.240   0.917  0.7845 -0.1956  0.2769
  812MOL0     O 9488  10.003   1.300   0.973 -0.1177  0.0343  0.2611
  812MOL0     C 9489   9.911   1.370   0.911 -0.2291 -0.4192  0.1358
  812MOL0     C 9490   9.938   1.494   0.855 -1.0905 -0.0025 -0.2484
  812MOL0     C 9491   9.846   1.562   0.777 -0.2062 -0.4823 -0.3614
  812MOL0     C 9492   9.720   1.505   0.751 -0.7287  1.2083  0.0021
  812MOL0     O 9493   9.616   1.557   0.675  0.6692  0.0478 -1.0079
  812MOL0     C 9494   9.630   1.693   0.628 -0.4846 -0.0703 -0.3438
  812MOL0     C 9495   9.488   1.757   0.608 -0.5980  0.4148 -0.2633
  812MOL0     C 9496   9.498   1.880   0.508 -0.1247 -0.1376 -0.9095
  812MOL0     C 9497   9.378   1.955   0.477  1.1030 -0.6930 -0.3237
  812MOL0     C 9498   9.261   1.862   0.429  0.2050  0.1366  0.1705
  812MOL0     C 9499   9.157   1.940   0.348  1.0144  0.7783  0.5423
  812MOL0     C 9500   9.040   1.844   0.313  0.2215 -0.1280  0.1630
  812MOL0     C 9501   8.964   1.896   0.192 -0.3104 -0.9233  0.0020
  812MOL0     N 9502   8.912   2.034   0.208  0.4770 -0.2785  0.2102
  812MOL0     C 9503   8.789   2.079   0.247  1.4052  0.3290  0.7748
  812MOL0     C 9504   8.790   2.214   0.253 -0.2298  0.0438 -0.0182
  812MOL0     C 9505   8.691   2.309   0.314  0.0918  0.4060  0.6376
  812MOL0     C 9506   8.654   2.285   0.461 -0.2211 -0.7034  1.3012
  812MOL0     C 9507   8.557   2.390   0.508 -0.2794 -0.3763  0.3338
  812MOL0     C 9508   8.447   2.442   0.416  0.2489  0.0379 -0.0578
  812MOL0     O 9509   8.384   2.332   0.340 -0.6257 -0.1805  0.7216
  812MOL0     C 9510   8.285   2.376   0.251 -1.0040  0.4987 -0.7344
  812MOL0     C 9511   8.170   2.301   0.232 -0.1420  0.4314 -0.6722
  812MOL0     C 9512   8.063   2.336   0.132  0.8791  0.5486  0.2488
  812MOL0     C 9513   7.941   2.252   0.133  0.5812 -0.6481  0.3599
  812MOL0     C 9514   8.077   2.443   0.050 -0.4910 -0.8423 -0.1308
  812MOL0     C 9515   7.977   2.487  -0.041 -0.3315  0.2708  0.4099
  812MOL0     O 9516   7.852   2.490   0.004  0.4164  0.2886  0.1803
  812MOL0     C 9517   7.744   2.492  -0.075  0.3045  0.2086 -0.6629
  812MOL0     C 9518   7.724   2.405  -0.187  0.0811 -1.0812 -0.4318
  812MOL0     C 9519   7.603   2.404  -0.262 -0.7150  0.6951 -0.6455
  812MOL0     C 9520   7.499   2.494  -0.227  0.4021 -0.3590  0.2659
  812MOL0     O 9521   7.382   2.509  -0.297 -1.0109 -0.5670  0.5178
  812MOL0     C 9522   7.340   2.420  -0.406  0.4409  0.0048 -0.0396
  812MOL0     C 9523   7.389   2.452  -0.549  0.0337 -0.8327 -0.4058
  812MOL0     C 9524   7.349   2.330  -0.639 -0.6482 -0.0395 -0.1489
  812MOL0     C 9525   7.211   2.345  -0.679 -0.1866  0.6139 -0.0509
  812MOL0     C 9526   7.144   2.212  -0.709 -0.0961  1.0354  0.0962
  812MOL0     C 9527   7.010   2.225  -0.784 -1.0130 -0.2067  0.0971
  812MOL0     C 9528   6.903   2.279  -0.698  0.2472  0.0339  0.3369
  812MOL0     C 9529   6.757   2.275  -0.760  0.0541  0.0259  0.5982
  812MOL0    Cl 9530   6.707   2.110  -0.785  0.1397  0.3205  0.1223
  812MOL0     C 9531   7.510   2.579  -0.106  0.0649  0.2583  0.1083
  812MOL0     C 9532   7.629   2.574  -0.034 -0.2159  0.4654 -0.1943
  812MOL0     O 9533   8.015   2.509  -0.156  0.1092  0.5411 -0.5156
  812MOL0     C 9534   8.197   2.504   0.065  0.5973 -0.0030 -0.0723
  812MOL0     C 9535   8.298   2.480   0.167  0.4844 -0.9844 -0.2200
  812MOL0     N 9536   8.918   2.258   0.223 -0.3773  0.1950 -0.1192
  812MOL0     N 9537   8.988   2.152   0.205  0.2828  0.8501 -0.1506
  812MOL0     C 9538   9.694   1.384   0.811 -0.6468  0.4468 -0.4327
  812MOL0     C 9539   9.784   1.313   0.894  0.2767  0.4845  0.3624
  812MOL0     C 9540  10.207   1.169   1.010  0.3797 -0.0310  0.1088
  812MOL0     C 9541  10.162   1.152   1.143 -0.1990  0.3125 -0.9298
  812MOL0     C 9542  10.250   1.099   1.240  0.0549  0.7560  0.0729
  812MOL0     C 9543  10.375   1.066   1.203  0.2016 -0.5742  0.0600
  812MOL0     O 9544  10.457   1.037   1.306  0.2420 -0.1198 -0.2172
  812MOL0     C 9545  10.600   1.010   1.281  1.0214 -0.1226 -0.3121
  812MOL0     C 9546  10.674   1.033   1.405  0.7157 -0.2246 -0.1893
  812MOL0     C 9547  10.820   0.992   1.385 -0.7473 -0.3747 -0.6171
  812MOL0     C 9548  10.896   1.084   1.292 -0.2508  0.4786 -0.1893
  812MOL0     C 9549  10.911   1.218   1.356  1.3476  0.1227  0.0605
  812MOL0     C 9550  10.913   1.323   1.418 -0.0954  0.1229  0.0596
  812MOL0     C 9551  10.419   1.070   1.067 -0.1331 -0.2548 -0.6565
  812MOL0     C 9552  10.331   1.122   0.971  0.5794 -0.6407  0.9056
  812MOL0     H 9553  10.043   1.519   0.869 -0.6652 -2.4178  1.6181
  812MOL0     H 9554   9.868   1.662   0.741  0.0300  0.5473  2.3743
  812MOL0     H 9555   9.685   1.760   0.694  1.6790 -0.1162 -1.9935
  812MOL0     H 9556   9.687   1.686   0.535  0.3552 -1.1126  0.2308
  812MOL0     H 9557   9.416   1.687   0.566 -1.2231  1.1588 -0.4538
  812MOL0     H 9558   9.448   1.783   0.707  0.4368  1.3161 -0.0641
  812MOL0     H 9559   9.568   1.956   0.544 -0.7203  1.6599 -3.2607
  812MOL0     H 9560   9.541   1.850   0.411 -0.4920 -1.6442 -0.6312
  812MOL0     H 9561   9.341   2.003   0.568  2.3631  1.3495 -0.8352
  812MOL0     H 9562   9.409   2.025   0.400 -1.4569 -1.2403 -2.0091
  812MOL0     H 9563   9.305   1.780   0.370  1.6200  1.4767 -0.7264
  812MOL0     H 9564   9.206   1.818   0.513  1.0951 -1.0385  0.1660
  812MOL0     H 9565   9.124   2.015   0.421 -0.1512 -0.8765  1.8025
  812MOL0     H 9566   9.204   1.987   0.261 -0.3035 -2.2975 -2.0308
  812MOL0     H 9567   9.082   1.747   0.285  1.4468  0.7144 -1.0644
  812MOL0     H 9568   8.975   1.831   0.400 -0.3273 -2.5008 -0.5292
  812MOL0     H 9569   8.879   1.830   0.172 -1.3652  0.3937  0.0329
  812MOL0     H 9570   9.033   1.894   0.108 -0.5995 -0.2508 -0.2547
  812MOL0     H 9571   8.712   2.010   0.281  1.3030  0.5270  0.9450
  812MOL0     H 9572   8.731   2.410   0.308 -0.3858  0.5358 -0.6932
  812MOL0     H 9573   8.603   2.299   0.250 -0.5209 -0.4398  1.5979
  812MOL0     H 9574   8.745   2.277   0.521 -0.0266 -4.0049  0.7299
  812MOL0     H 9575   8.610   2.186   0.473 -2.8795  0.3026  0.6706
  812MOL0     H 9576   8.614   2.480   0.532  0.0441 -0.1805 -1.0620
  812MOL0     H 9577   8.512   2.356   0.602  0.7277  0.7454  1.2423
  812MOL0     H 9578   8.500   2.514   0.353 -0.1613  0.0484 -0.3944
  812MOL0     H 9579   8.375   2.501   0.472 -1.8799 -0.0033 -2.5858
  812MOL0     H 9580   8.165   2.207   0.286 -1.2263  0.7683 -0.1672
  812MOL0     H 9581   7.876   2.312   0.199 -2.9896 -2.4651 -1.2625
  812MOL0     H 9582   7.889   2.246   0.037 -0.7174 -0.5391  1.0336
  812MOL0     H 9583   7.955   2.146   0.156  0.3453 -1.8909 -4.2702
  812MOL0     H 9584   7.803   2.339  -0.223  1.6231  0.6233 -0.2781
  812MOL0     H 9585   7.580   2.340  -0.346  0.6650 -0.9118  0.1352
  812MOL0     H 9586   7.358   2.316  -0.377 -2.2691 -1.1432 -1.9967
  812MOL0     H 9587   7.232   2.437  -0.418 -0.0751 -2.0064  1.1052
  812MOL0     H 9588   7.346   2.544  -0.589 -0.6205 -1.4181 -1.0663
  812MOL0     H 9589   7.498   2.447  -0.548  0.0273 -3.6571  2.0517
  812MOL0     H 9590   7.356   2.233  -0.587  1.7932  0.1840  0.0311
  812MOL0     H 9591   7.419   2.324  -0.722 -1.3219  3.5506 -1.1241
  812MOL0     H 9592   7.147   2.388  -0.601  2.4528  0.3713  2.4512
  812MOL0     H 9593   7.205   2.411  -0.765 -1.2015  1.9847  1.0232
  812MOL0     H 9594   7.120   2.172  -0.610 -3.2259  1.6962 -0.3161
  812MOL0     H 9595   7.213   2.153  -0.771 -1.2898  0.2088 -0.4714
  812MOL0     H 9596   7.027   2.279  -0.877 -1.7474 -1.3331 -0.7232
  812MOL0     H 9597   6.978   2.126  -0.818  0.8353 -0.5059 -0.9027
  812MOL0     H 9598   6.915   2.384  -0.667 -1.2541  0.4351 -0.3306
  812MOL0     H 9599   6.890   2.211  -0.613 -0.0919  1.2793  1.3202
  812MOL0     H 9600   6.759   2.317  -0.861  2.6767 -2.5498 -0.5925
  812MOL0     H 9601   6.687   2.316  -0.687 -0.8200 -1.7925  0.8338
  812MOL0     H 9602   7.426   2.643  -0.082 -1.9918 -1.3493 -2.3516
  812MOL0     H 9603   7.643   2.627   0.060  1.4954  0.8900 -0.6578
  812MOL0     H 9604   8.211   2.592   0.002 -1.2254 -0.9889 -2.0016
  812MOL0     H 9605   8.377   2.554   0.178  0.4333 -1.1960  2.0217
  812MOL0     H 9606   9.597   1.338   0.797  0.5569 -1.8530 -1.8265
  812MOL0     H 9607   9.758   1.222   0.946 -0.4348  1.1982  1.3074
  812MOL0     H 9608  10.059   1.160   1.177 -1.0252 -4.4416 -1.6880
  812MOL0     H 9609  10.220   1.076   1.341  3.7651  2.2986  1.7137
  812MOL0     H 9610  10.610   0.910   1.238  0.5293  0.5356 -2.0255
  812MOL0     H 9611  10.643   1.082   1.211 -0.5595  1.0428 -0.1235
  812MOL0     H 9612  10.642   0.982   1.495  1.9325  0.7156  0.8231
  812MOL0     H 9613  10.671   1.139   1.431  1.4754 -0.6244  1.7048
  812MOL0     H 9614  10.826   0.885   1.366 -2.1771 -0.5719 -0.0684
  812MOL0     H 9615  10.873   1.000   1.480  0.9856 -0.9607 -1.4874
  812MOL0     H 9616  10.852   1.090   1.192 -2.1468  0.9540  0.6429
  812MOL0     H 9617  10.995   1.040   1.278  0.3081  0.9470  1.9142
  812MOL0     H 9618  10.915   1.406   1.486  1.0306 -0.6633  1.0254
  812MOL0     H 9619  10.524   1.050   1.052 -0.3665 -1.8252 -0.4132
  812MOL0     H 9620  10.366   1.147   0.871  0.5404  1.8677  1.4531
  813MOL0     O 9621   3.032   4.105   5.644  1.0479  0.1189  0.1647
  813MOL0     C 9622   3.066   4.212   5.689  2.0338 -0.0766  0.3127
  813MOL0     O 9623   2.985   4.317   5.709 -0.2068  0.6301 -0.2206
  813MOL0     C 9624   2.860   4.314   5.648  0.3372  0.4918  0.1392
  813MOL0     C 9625   2.851   4.320   5.509  0.6976 -0.1594 -0.2243
  813MOL0     C 9626   2.725   4.310   5.447  0.1931  0.1505 -0.0342
  813MOL0     C 9627   2.613   4.280   5.535  0.1816 -0.4814  0.6789
  813MOL0     O 9628   2.484   4.281   5.498 -0.0702 -0.2802  0.4933
  813MOL0     C 9629   2.442   4.197   5.391  0.2449 -0.2821  0.5057
  813MOL0     C 9630   2.292   4.220   5.375  0.3931 -1.1515 -0.8890
  813MOL0     C 9631   2.221   4.153   5.260 -0.0509  0.2633  0.3329
  813MOL0     C 9632   2.066   4.140   5.269 -0.2911 -0.2479 -0.7005
  813MOL0     C 9633   2.016   4.022   5.362 -0.8547  0.5971 -0.0063
  813MOL0     C 9634   1.874   4.046   5.411 -0.5324  0.9563  0.5483
  813MOL0     C 9635   1.773   4.083   5.295  0.5225 -0.3619 -0.1689
  813MOL0     C 9636   1.748   3.968   5.190  0.4603  0.6978  0.3079
  813MOL0     N 9637   1.660   4.031   5.087  0.4830 -0.2294 -0.1754
  813MOL0     C 9638   1.524   4.066   5.097 -0.0453 -0.0221 -0.5425
  813MOL0     C 9639   1.493   4.139   4.994  0.3870  0.1502 -0.3353
  813MOL0     C 9640   1.353   4.195   4.969  0.2415 -0.6802  0.6536
  813MOL0     C 9641   1.271   4.112   4.858  0.1340  0.0399  0.9728
  813MOL0     C 9642   1.268   3.964   4.893 -0.3079  0.0600 -0.9208
  813MOL0     C 9643   1.159   3.907   4.796 -0.9349 -0.0004 -1.1573
  813MOL0     O 9644   1.148   3.768   4.820  0.6175  0.3578 -0.0173
  813MOL0     C 9645   1.027   3.703   4.787  0.0435  0.3963  0.0287
  813MOL0     C 9646   0.944   3.736   4.677 -0.3576 -0.4010 -0.2058
  813MOL0     C 9647   0.826   3.674   4.642 -0.6005  0.5106 -0.3135
  813MOL0     C 9648   0.751   3.719   4.508 -0.5981 -0.2046 -0.1033
  813MOL0     C 9649   0.796   3.552   4.712 -0.6990 -0.1577 -0.3329
  813MOL0     C 9650   0.687   3.451   4.673  0.8333 -0.7630 -0.3914
  813MOL0     O 9651   0.583   3.500   4.597  0.5806 -0.2522  0.3508
  813MOL0     C 9652   0.490   3.406   4.553  0.4688 -0.6900 -0.3912
  813MOL0     C 9653   0.492   3.374   4.413  0.0334 -0.6262 -0.1879
  813MOL0     C 9654   0.396   3.291   4.356 -0.0484 -0.7611  0.9205
  813MOL0     C 9655   0.299   3.231   4.434 -0.6423  0.1457 -0.3135
  813MOL0     O 9656   0.204   3.146   4.378  0.1257 -0.1025 -0.3415
  813MOL0     C 9657   0.081   3.118   4.451 -0.2273 -0.6180  0.0889
  813MOL0     C 9658  -0.019   3.055   4.355  0.6809 -0.0532  0.4199
  813MOL0     C 9659   0.021   2.926   4.286  0.4897 -0.1365 -0.1232
  813MOL0     C 9660   0.052   2.814   4.384 -0.7358  0.3852 -0.5278
  813MOL0     C 9661   0.063   2.674   4.331 -0.3324  0.7075  0.3557
  813MOL0     C 9662   0.196   2.654   4.253 -0.2467 -0.1882  0.6511
  813MOL0     C 9663   0.226   2.509   4.216  0.3193 -0.4229 -0.0745
  813MOL0     C 9664   0.342   2.487   4.128 -0.0235 -0.2038 -0.6319
  813MOL0    Cl 9665   0.488   2.535   4.229 -0.1242  0.7248  0.5235
  813MOL0     C 9666   0.302   3.257   4.571  0.2455  0.1392  0.2244
  813MOL0     C 9667   0.397   3.332   4.633 -0.5361 -0.8766 -0.6572
  813MOL0     O 9668   0.701   3.333   4.702  0.0830  0.1078 -0.5778
  813MOL0     C 9669   0.888   3.515   4.813  0.4306 -0.1884 -0.1720
  813MOL0     C 9670   0.995   3.589   4.860  0.0648  0.5301 -0.0766
  813MOL0     N 9671   1.606   4.156   4.907  0.5111 -0.1284  0.4482
  813MOL0     N 9672   1.699   4.080   4.962  0.4892 -0.2996 -0.1976
  813MOL0     C 9673   2.627   4.274   5.672  0.4400 -0.7582  0.7733
  813MOL0     C 9674   2.748   4.294   5.735 -0.5697  0.6096  0.8025
  813MOL0     C 9675   3.212   4.223   5.700  0.9009  0.1177  0.0479
  813MOL0     C 9676   3.264   4.336   5.766  0.2386 -0.9047  0.5181
  813MOL0     C 9677   3.395   4.339   5.788 -0.3879  0.1493  0.1012
  813MOL0     C 9678   3.480   4.249   5.733  0.7412  0.2209 -1.3824
  813MOL0     O 9679   3.617   4.269   5.749  0.6988  0.8493  0.6066
  813MOL0     C 9680   3.674   4.372   5.829  0.6868 -1.0241 -0.4123
  813MOL0     C 9681   3.823   4.357   5.828  0.0540 -0.5494 -0.1136
  813MOL0     C 9682   3.868   4.388   5.691  1.3495  0.3916 -0.2103
  813MOL0     C 9683   4.014   4.405   5.681  0.4603  0.1933 -0.2163
  813MOL0     C 9684   4.093   4.285   5.653  0.4478 -0.0708  0.7088
  813MOL0     C 9685   4.176   4.196   5.627  0.0024  0.1626  0.2328
  813MOL0     C 9686   3.424   4.142   5.655 -0.6366  0.4950 -0.4292
  813MOL0     C 9687   3.292   4.119   5.653  0.6282 -0.0212 -0.3112
  813MOL0     H 9688   2.938   4.331   5.445  0.2583  2.8379 -0.4121
  813MOL0     H 9689   2.711   4.327   5.341  2.0549  0.7509 -0.2053
  813MOL0     H 9690   2.492   4.217   5.296  0.5509 -3.6946 -0.1772
  813MOL0     H 9691   2.453   4.089   5.407  1.5317 -0.6240 -2.1448
  813MOL0     H 9692   2.246   4.177   5.464 -0.0721  2.2237  0.6634
  813MOL0     H 9693   2.285   4.329   5.375  1.0966 -1.0697  0.8047
  813MOL0     H 9694   2.231   4.207   5.165  0.8562 -1.2876 -0.4880
  813MOL0     H 9695   2.271   4.057   5.248 -0.2258  0.0588  1.1912
  813MOL0     H 9696   2.023   4.234   5.303 -1.3970 -1.7220  2.3108
  813MOL0     H 9697   2.021   4.128   5.169 -0.5127 -1.6608 -0.4547
  813MOL0     H 9698   2.026   3.927   5.309  1.0859  0.6628  0.1538
  813MOL0     H 9699   2.084   4.001   5.446 -1.5074 -2.2478 -0.1043
  813MOL0     H 9700   1.847   3.961   5.474  2.2537  1.8959  3.1984
  813MOL0     H 9701   1.874   4.125   5.487 -0.0776  0.8115  0.6961
  813MOL0     H 9702   1.677   4.107   5.342 -0.1162  1.3226 -2.1714
  813MOL0     H 9703   1.810   4.169   5.238  1.1543 -2.4568 -3.1592
  813MOL0     H 9704   1.706   3.883   5.244  2.0080 -1.3903 -1.5379
  813MOL0     H 9705   1.838   3.920   5.151 -1.1343 -1.0808 -1.4314
  813MOL0     H 9706   1.460   4.040   5.181  1.1266  1.3868  0.8769
  813MOL0     H 9707   1.299   4.176   5.062 -1.5721 -0.5229 -0.3270
  813MOL0     H 9708   1.355   4.304   4.955  0.4124 -0.8452 -0.7645
  813MOL0     H 9709   1.321   4.122   4.761  1.7142 -0.9970  1.6480
  813MOL0     H 9710   1.169   4.148   4.838 -0.6839 -2.1767  0.8620
  813MOL0     H 9711   1.241   3.952   4.999 -0.5698  0.4514 -0.9389
  813MOL0     H 9712   1.364   3.913   4.884 -1.7553 -2.5468 -2.8171
  813MOL0     H 9713   1.196   3.916   4.693  0.9301 -0.7489 -0.5898
  813MOL0     H 9714   1.069   3.961   4.828  0.9875  2.2026  0.9087
  813MOL0     H 9715   0.974   3.823   4.620  0.0341 -0.7053 -0.4655
  813MOL0     H 9716   0.812   3.801   4.469  0.1358 -0.3847  0.6403
  813MOL0     H 9717   0.749   3.634   4.439 -0.3327  1.5256 -2.3816
  813MOL0     H 9718   0.653   3.766   4.520  0.0574  0.6377  2.9417
  813MOL0     H 9719   0.562   3.417   4.342 -0.8472  0.4168 -0.4317
  813MOL0     H 9720   0.386   3.274   4.250 -1.3211  1.3876  0.6371
  813MOL0     H 9721   0.089   3.050   4.537 -2.1565 -2.3687 -1.0039
  813MOL0     H 9722   0.042   3.213   4.490 -0.5371  0.3022 -2.2957
  813MOL0     H 9723  -0.112   3.033   4.410 -0.6647 -3.0100 -2.6852
  813MOL0     H 9724  -0.047   3.124   4.275  0.2087 -0.5180  0.1762
  813MOL0     H 9725   0.107   2.948   4.223  1.0822 -0.7908  0.4350
  813MOL0     H 9726  -0.072   2.899   4.236 -0.2482 -0.2527  1.2493
  813MOL0     H 9727   0.150   2.834   4.429  0.0446 -3.4427 -0.1771
  813MOL0     H 9728  -0.028   2.807   4.458 -0.0395 -0.5304  0.1665
  813MOL0     H 9729  -0.015   2.635   4.265  2.0349 -1.9024 -1.1138
  813MOL0     H 9730   0.070   2.608   4.417  1.3915  1.7652  1.0863
  813MOL0     H 9731   0.182   2.704   4.157  1.6469  0.7034  0.7899
  813MOL0     H 9732   0.281   2.696   4.307 -1.3900  1.0017  1.5709
  813MOL0     H 9733   0.139   2.467   4.164 -0.8657 -0.4856  1.8650
  813MOL0     H 9734   0.247   2.447   4.303  0.5250 -0.1790  0.0486
  813MOL0     H 9735   0.341   2.548   4.037 -2.7954  1.2948  0.2715
  813MOL0     H 9736   0.331   2.386   4.089 -2.1458 -0.5988  0.8460
  813MOL0     H 9737   0.220   3.214   4.628  0.8654  1.5851  2.3366
  813MOL0     H 9738   0.383   3.361   4.737  1.7243  0.7129 -0.6937
  813MOL0     H 9739   0.857   3.423   4.862  2.3680  0.0379  1.6016
  813MOL0     H 9740   1.035   3.559   4.956 -3.1485 -1.5744  0.7373
  813MOL0     H 9741   2.545   4.261   5.742  0.5250  0.2069  1.0594
  813MOL0     H 9742   2.747   4.280   5.843 -0.4082  3.0989  1.1811
  813MOL0     H 9743   3.198   4.408   5.814  1.7632  0.3340  0.8079
  813MOL0     H 9744   3.434   4.419   5.850 -1.0114 -1.3732  2.5757
  813MOL0     H 9745   3.651   4.473   5.792  1.9619 -0.4832  0.1941
  813MOL0     H 9746   3.635   4.365   5.931 -1.5337 -0.4368 -1.1613
  813MOL0     H 9747   3.848   4.253   5.851  0.0402 -1.1054 -2.4185
  813MOL0     H 9748   3.858   4.420   5.911 -3.4253  1.0434  0.3227
  813MOL0     H 9749   3.819   4.478   5.653 -1.6759 -1.8849 -2.1499
  813MOL0     H 9750   3.840   4.300   5.632  0.3024 -0.5443  1.5934
  813MOL0     H 9751   4.059   4.431   5.778 -0.6177  0.9991  0.0747
  813MOL0     H 9752   4.040   4.484   5.611 -0.8522  0.0707 -0.8613
  813MOL0     H 9753   4.245   4.117   5.605  0.2900 -0.3715  2.6717
  813MOL0     H 9754   3.487   4.075   5.598  2.0695  1.0537  1.7039
  813MOL0     H 9755   3.254   4.039   5.590  0.2119  0.2464 -0.4072
  814MOL0     O 9756   9.133   1.494   2.914 -0.3472 -0.4163 -0.4485
  814MOL0     C 9757   9.155   1.440   3.026  0.3362  0.0969  1.0926
  814MOL0     O 9758   9.063   1.383   3.109 -0.2229 -0.1935  0.9827
  814MOL0     C 9759   8.939   1.351   3.061 -0.6876  0.7020 -0.6667
  814MOL0     C 9760   8.836   1.390   3.142  0.2718  0.3271 -0.2835
  814MOL0     C 9761   8.708   1.388   3.095  0.5803  0.0006 -0.9686
  814MOL0     C 9762   8.681   1.323   2.970  0.4428 -0.6202  0.8966
  814MOL0     O 9763   8.551   1.300   2.920 -0.1719  0.2293 -0.1646
  814MOL0     C 9764   8.490   1.394   2.836 -0.2949  0.1017  0.8483
  814MOL0     C 9765   8.375   1.455   2.919  0.3210 -0.3675  0.2408
  814MOL0     C 9766   8.281   1.532   2.825  0.1905  1.1711 -0.0830
  814MOL0     C 9767   8.222   1.651   2.915 -0.5231  0.6531  0.0548
  814MOL0     C 9768   8.122   1.739   2.846 -0.4479 -0.1032 -0.1505
  814MOL0     C 9769   8.049   1.827   2.950  0.0631  0.0681  0.1327
  814MOL0     C 9770   7.932   1.891   2.885 -0.0711  0.8625  0.0234
  814MOL0     C 9771   7.855   1.976   2.990 -0.3678  0.2937  0.6386
  814MOL0     N 9772   7.758   1.890   3.061 -0.0478  0.0991 -0.4751
  814MOL0     C 9773   7.779   1.837   3.188  0.2659  0.6971 -0.0645
  814MOL0     C 9774   7.670   1.755   3.208 -0.7203  0.0545  0.0483
  814MOL0     C 9775   7.655   1.658   3.317  0.3194 -0.0316  0.5783
  814MOL0     C 9776   7.556   1.708   3.421 -1.0276 -0.5423 -0.0289
  814MOL0     C 9777   7.419   1.755   3.359 -0.3965 -0.3908  0.3035
  814MOL0     C 9778   7.315   1.772   3.475  0.2072 -0.4287 -0.0266
  814MOL0     O 9779   7.195   1.819   3.424 -0.1882  0.2293 -0.7755
  814MOL0     C 9780   7.097   1.855   3.513 -0.6262 -0.0939 -0.1934
  814MOL0     C 9781   6.974   1.889   3.457 -0.3576  0.8423  0.2930
  814MOL0     C 9782   6.872   1.943   3.526  1.0527 -0.2573  0.3030
  814MOL0     C 9783   6.739   1.952   3.454 -0.0566  0.1313  0.2818
  814MOL0     C 9784   6.884   1.967   3.665  0.3640 -0.5666  0.0595
  814MOL0     C 9785   6.783   2.023   3.755  0.2946  0.0941  0.0650
  814MOL0     O 9786   6.808   1.999   3.894  0.7883  0.1515  0.1550
  814MOL0     C 9787   6.715   2.043   3.984 -0.1934  0.8652  0.4137
  814MOL0     C 9788   6.588   1.986   3.981 -0.1224 -0.2392 -0.1421
  814MOL0     C 9789   6.494   2.023   4.076  0.0205  0.4124 -0.6175
  814MOL0     C 9790   6.525   2.114   4.176  0.1869  0.0909  0.5130
  814MOL0     O 9791   6.439   2.152   4.279  0.5984  0.0043  0.1555
  814MOL0     C 9792   6.314   2.089   4.314 -0.0589  0.0414 -1.0249
  814MOL0     C 9793   6.337   1.972   4.401 -0.0629 -0.1200 -0.7089
  814MOL0     C 9794   6.394   2.012   4.534 -0.2610  0.1033 -0.2300
  814MOL0     C 9795   6.280   2.065   4.630  0.0884  0.7463  0.4657
  814MOL0     C 9796   6.315   2.058   4.784  0.2702 -0.0838  0.4454
  814MOL0     C 9797   6.189   2.099   4.857  0.0102 -0.5090 -0.5373
  814MOL0     C 9798   6.083   1.993   4.851  0.4016 -0.4042 -0.3172
  814MOL0     C 9799   6.032   1.959   4.994  0.2205  0.1300  0.4083
  814MOL0    Cl 9800   5.899   1.841   4.977 -0.2847 -0.1963 -0.2230
  814MOL0     C 9801   6.652   2.168   4.175  0.1141 -0.7307  0.1970
  814MOL0     C 9802   6.749   2.134   4.079 -0.2282 -0.0209  0.6520
  814MOL0     O 9803   6.702   2.103   3.711 -0.2747  0.1485 -0.2883
  814MOL0     C 9804   7.011   1.925   3.720  0.0185 -0.8518  0.1786
  814MOL0     C 9805   7.120   1.888   3.651  0.2994  0.5776  0.4861
  814MOL0     N 9806   7.593   1.771   3.094  0.8101  0.0115  0.2286
  814MOL0     N 9807   7.649   1.844   3.003 -0.5733  0.1269  0.7570
  814MOL0     C 9808   8.793   1.273   2.905 -0.3678 -0.2229  0.5981
  814MOL0     C 9809   8.918   1.286   2.950  0.2264 -0.1917  0.7700
  814MOL0     C 9810   9.296   1.426   3.061  0.0685  0.4580 -0.1147
  814MOL0     C 9811   9.335   1.387   3.189 -0.6749  0.0353  0.2205
  814MOL0     C 9812   9.461   1.350   3.220  0.6885 -0.4498 -1.0438
  814MOL0     C 9813   9.568   1.370   3.129 -0.1147 -0.1461  0.0030
  814MOL0     O 9814   9.700   1.357   3.148  0.0857 -0.5690 -0.1405
  814MOL0     C 9815   9.736   1.353   3.281  0.9264  0.3726 -0.4964
  814MOL0     C 9816   9.881   1.332   3.299  0.0531 -0.9841  0.1848
  814MOL0     C 9817   9.960   1.448   3.236  0.2915 -0.3896 -0.6408
  814MOL0     C 9818  10.102   1.419   3.198 -0.1306 -0.0484  0.0145
  814MOL0     C 9819  10.191   1.423   3.324  0.2500  0.2606  0.4641
  814MOL0     C 9820  10.267   1.420   3.421 -0.3798  0.1097  0.3530
  814MOL0     C 9821   9.533   1.388   2.991  0.0675 -0.0562 -0.0165
  814MOL0     C 9822   9.401   1.425   2.965 -0.3805  0.0358  0.5527
  814MOL0     H 9823   8.847   1.438   3.239 -0.6187  0.0577 -0.0385
  814MOL0     H 9824   8.625   1.424   3.155  1.6353  0.7590  0.0726
  814MOL0     H 9825   8.561   1.470   2.802  0.4930 -1.0508 -0.2167
  814MOL0     H 9826   8.443   1.345   2.750 -0.9349 -2.1266  2.3947
  814MOL0     H 9827   8.323   1.370   2.964  2.2366 -3.2069 -2.3642
  814MOL0     H 9828   8.422   1.523   2.990  0.1948  0.8479 -0.8146
  814MOL0     H 9829   8.319   1.576   2.733  2.0824 -3.1307 -1.5829
  814MOL0     H 9830   8.192   1.472   2.802 -0.6138  1.2117  2.5462
  814MOL0     H 9831   8.168   1.603   2.997 -0.1864  1.3978  0.7206
  814MOL0     H 9832   8.310   1.703   2.955  1.1966 -2.3990  0.5713
  814MOL0     H 9833   8.179   1.816   2.793  3.0602 -0.1328  3.1679
  814MOL0     H 9834   8.050   1.682   2.786  0.3698 -1.2845 -0.0211
  814MOL0     H 9835   8.018   1.766   3.035  1.0798 -0.8009 -0.0936
  814MOL0     H 9836   8.109   1.914   2.980 -0.0481  0.5002 -0.8542
  814MOL0     H 9837   7.964   1.952   2.800  3.5285  0.4213  0.8972
  814MOL0     H 9838   7.859   1.818   2.849 -0.3745  0.2300  1.8015
  814MOL0     H 9839   7.807   2.055   2.930  0.0585 -0.4706 -0.7611
  814MOL0     H 9840   7.927   2.017   3.062  0.0819  0.6217  0.0179
  814MOL0     H 9841   7.861   1.856   3.256 -0.0031  1.0483  0.1661
  814MOL0     H 9842   7.632   1.561   3.272  1.8404 -0.1230 -0.0498
  814MOL0     H 9843   7.748   1.637   3.370  1.7730  0.4841 -1.5902
  814MOL0     H 9844   7.605   1.786   3.480 -3.5620  0.0809  1.4068
  814MOL0     H 9845   7.537   1.625   3.489 -0.6732  0.8214  1.8117
  814MOL0     H 9846   7.386   1.683   3.283  0.0633  2.0116 -2.2954
  814MOL0     H 9847   7.424   1.852   3.309  0.7070  0.0392  1.2181
  814MOL0     H 9848   7.362   1.855   3.530 -1.7923 -0.3680  1.7148
  814MOL0     H 9849   7.297   1.676   3.524  5.2846 -1.6647  0.0039
  814MOL0     H 9850   6.978   1.878   3.349  0.1346  1.8803  0.1839
  814MOL0     H 9851   6.740   1.888   3.365 -0.1188 -0.5094  0.7350
  814MOL0     H 9852   6.664   1.908   3.521  0.7819 -1.4065  0.2482
  814MOL0     H 9853   6.716   2.054   3.421  1.9010 -0.4767 -3.4369
  814MOL0     H 9854   6.575   1.903   3.911  0.5716  0.8441 -1.6204
  814MOL0     H 9855   6.394   1.981   4.070 -0.2458  0.7104  1.2020
  814MOL0     H 9856   6.252   2.159   4.371 -1.7149 -1.6609 -0.6592
  814MOL0     H 9857   6.259   2.062   4.223 -0.7669 -2.1682 -0.0145
  814MOL0     H 9858   6.248   1.915   4.426 -0.1934  1.2497  2.4532
  814MOL0     H 9859   6.396   1.903   4.339 -1.0285 -3.1274  1.4938
  814MOL0     H 9860   6.473   2.086   4.520  0.7742 -0.6642  1.2723
  814MOL0     H 9861   6.435   1.921   4.579  0.7829  0.2787 -0.8091
  814MOL0     H 9862   6.265   2.171   4.608  0.5917  0.9378  1.0403
  814MOL0     H 9863   6.193   2.001   4.614  2.0040 -2.2765  1.1962
  814MOL0     H 9864   6.392   2.121   4.828 -0.4232  0.6851  0.5951
  814MOL0     H 9865   6.353   1.961   4.816  1.9368  0.0306 -1.0171
  814MOL0     H 9866   6.214   2.114   4.962 -0.6990  0.1486 -0.4557
  814MOL0     H 9867   6.151   2.194   4.818  0.0570 -0.2470  0.0575
  814MOL0     H 9868   6.113   1.903   4.796  2.2606  0.2806 -0.5055
  814MOL0     H 9869   6.004   2.030   4.785 -1.6825  0.0215  2.2351
  814MOL0     H 9870   5.995   2.051   5.040 -2.4390 -0.4965 -0.2677
  814MOL0     H 9871   6.113   1.918   5.054 -0.4795 -3.3425 -0.7785
  814MOL0     H 9872   6.680   2.242   4.249  1.4653 -0.9669 -0.0485
  814MOL0     H 9873   6.853   2.162   4.068 -0.1214 -1.2369 -2.1815
  814MOL0     H 9874   7.032   1.917   3.826 -3.6873  0.4413  1.1776
  814MOL0     H 9875   7.213   1.876   3.705 -0.5475 -0.6275  1.7523
  814MOL0     H 9876   8.774   1.215   2.815  1.0043 -1.3684  1.0048
  814MOL0     H 9877   9.003   1.247   2.895  1.3993  0.8690  1.7667
  814MOL0     H 9878   9.263   1.382   3.270 -3.3146 -1.0956 -2.0389
  814MOL0     H 9879   9.487   1.334   3.324  0.7476  2.5768 -0.5046
  814MOL0     H 9880   9.710   1.448   3.328  1.6325  0.6703 -0.6896
  814MOL0     H 9881   9.690   1.269   3.334 -0.8823  1.0727 -0.9013
  814MOL0     H 9882   9.904   1.239   3.246  1.4063 -0.8746  0.5531
  814MOL0     H 9883   9.900   1.320   3.406  2.4872 -0.1585 -0.1163
  814MOL0     H 9884   9.969   1.536   3.301 -0.2935 -0.3929 -0.5531
  814MOL0     H 9885   9.908   1.475   3.143  0.2911 -0.7956 -0.7580
  814MOL0     H 9886  10.144   1.500   3.138 -0.2678  0.5044  0.6639
  814MOL0     H 9887  10.116   1.325   3.143  0.5881  0.9375 -1.5529
  814MOL0     H 9888  10.317   1.409   3.515  2.2300 -0.8352 -1.0510
  814MOL0     H 9889   9.610   1.389   2.915  0.1855 -1.6389  0.0607
  814MOL0     H 9890   9.376   1.443   2.861  2.3336  1.7943  0.0970
  815MOL0     O 9891   8.266   2.484   4.557  0.0070 -0.1905 -0.1291
  815MOL0     C 9892   8.284   2.385   4.483 -0.1767 -0.1616 -0.1237
  815MOL0     O 9893   8.206   2.336   4.380 -0.1432  0.2465 -0.4270
  815MOL0     C 9894   8.076   2.376   4.349  0.7133 -0.4307 -0.2987
  815MOL0     C 9895   8.007   2.284   4.265  0.1626 -0.2107 -0.2888
  815MOL0     C 9896   7.878   2.317   4.214 -0.1258 -1.1930 -0.2847
  815MOL0     C 9897   7.818   2.438   4.250  0.2385 -0.3987 -0.1746
  815MOL0     O 9898   7.706   2.465   4.181 -0.2243 -0.5513  0.0798
  815MOL0     C 9899   7.591   2.518   4.238 -0.3178  0.5085 -0.4938
  815MOL0     C 9900   7.484   2.541   4.127  0.3405 -0.0517 -0.1676
  815MOL0     C 9901   7.349   2.588   4.185  0.1293  0.9095 -1.3057
  815MOL0     C 9902   7.356   2.724   4.243  0.3128 -0.8198  0.1271
  815MOL0     C 9903   7.214   2.786   4.253 -0.2837 -0.0028  0.4727
  815MOL0     C 9904   7.131   2.710   4.360 -0.5814 -0.1941 -0.1522
  815MOL0     C 9905   7.006   2.773   4.404  1.4861 -0.0795  0.0343
  815MOL0     C 9906   6.930   2.696   4.514 -0.3246 -0.1148  0.0864
  815MOL0     N 9907   6.814   2.767   4.568  0.4254  0.4115  0.5439
  815MOL0     C 9908   6.716   2.715   4.646 -0.3566 -0.1170 -0.1236
  815MOL0     C 9909   6.616   2.793   4.633  0.1849  0.3802 -0.6999
  815MOL0     C 9910   6.483   2.774   4.696 -0.0646  0.8701  0.0785
  815MOL0     C 9911   6.416   2.907   4.737  0.2323 -0.2589 -0.0639
  815MOL0     C 9912   6.283   2.893   4.813 -0.7955  0.3074  0.2163
  815MOL0     C 9913   6.204   3.023   4.794 -0.4145  0.6303  0.6833
  815MOL0     O 9914   6.119   3.045   4.902 -0.4889 -1.2085 -0.3647
  815MOL0     C 9915   5.986   3.074   4.883 -0.2634  0.2758 -1.3697
  815MOL0     C 9916   5.935   3.119   4.768 -0.6102 -0.3672  0.5982
  815MOL0     C 9917   5.801   3.140   4.750 -0.2391  0.0993 -0.2216
  815MOL0     C 9918   5.746   3.177   4.610  0.0501  0.1125  0.1354
  815MOL0     C 9919   5.713   3.128   4.862  0.0778  0.4099 -0.7333
  815MOL0     C 9920   5.567   3.159   4.860  0.3647 -0.2342  0.3142
  815MOL0     O 9921   5.493   3.133   4.975  0.5338  0.0705 -0.2648
  815MOL0     C 9922   5.366   3.182   4.982 -0.3051 -0.3806  0.9175
  815MOL0     C 9923   5.256   3.106   4.942  0.9846  0.7746  0.2093
  815MOL0     C 9924   5.128   3.155   4.953  0.1722 -0.0720  0.2027
  815MOL0     C 9925   5.104   3.290   5.001  0.1583 -0.2992  0.4815
  815MOL0     O 9926   4.981   3.338   5.027 -0.9024 -0.1837 -0.3454
  815MOL0     C 9927   4.864   3.273   4.986 -0.5258  0.1408  0.4736
  815MOL0     C 9928   4.768   3.386   5.015 -0.7599 -0.7005 -0.2050
  815MOL0     C 9929   4.622   3.336   5.010 -0.5706 -0.0164  0.4457
  815MOL0     C 9930   4.528   3.453   5.037 -0.4954  0.4532  0.9318
  815MOL0     C 9931   4.389   3.404   5.059  0.4135 -0.7635  0.2746
  815MOL0     C 9932   4.301   3.383   4.935  0.2771  0.1539  0.0248
  815MOL0     C 9933   4.177   3.301   4.962 -0.3590  0.3254 -0.7306
  815MOL0     C 9934   4.079   3.360   5.065 -0.6999  0.3176  0.3779
  815MOL0    Cl 9935   4.016   3.528   5.017 -0.4058  0.0550  0.2017
  815MOL0     C 9936   5.216   3.370   5.033  0.9083  0.9252 -0.3330
  815MOL0     C 9937   5.344   3.320   5.017  0.2336  0.0794 -0.6264
  815MOL0     O 9938   5.517   3.211   4.760  0.2549  0.3357 -0.3065
  815MOL0     C 9939   5.766   3.063   4.979 -0.0668  0.7693 -0.5858
  815MOL0     C 9940   5.909   3.042   4.989  0.4625  1.2234 -0.0993
  815MOL0     N 9941   6.642   2.893   4.547 -0.1408  0.1388 -0.7260
  815MOL0     N 9942   6.760   2.879   4.505  0.0199 -0.4370 -0.5690
  815MOL0     C 9943   7.879   2.527   4.331 -0.3365 -0.0118  0.0495
  815MOL0     C 9944   8.011   2.504   4.376 -0.4467 -0.8381  0.4746
  815MOL0     C 9945   8.422   2.332   4.505 -0.2708  0.6341  0.2820
  815MOL0     C 9946   8.509   2.396   4.596  1.1648  0.0237 -0.4267
  815MOL0     C 9947   8.628   2.332   4.629 -0.1469  0.1750  0.0872
  815MOL0     C 9948   8.661   2.211   4.571 -0.0095  0.3410  0.4589
  815MOL0     O 9949   8.778   2.143   4.600  0.6623 -0.5636  0.5587
  815MOL0     C 9950   8.910   2.214   4.589 -0.1839 -0.1963 -0.5060
  815MOL0     C 9951   9.005   2.134   4.675  0.1701  0.0255 -0.4428
  815MOL0     C 9952   9.014   1.980   4.640  0.3074  0.7698  0.5060
  815MOL0     C 9953   9.156   1.935   4.634  0.1694  0.6727 -0.2050
  815MOL0     C 9954   9.225   1.958   4.762 -1.1082 -0.4103  0.2939
  815MOL0     C 9955   9.286   1.986   4.863 -0.3163  0.2489 -0.1822
  815MOL0     C 9956   8.574   2.150   4.481 -0.1375 -0.1978  0.3759
  815MOL0     C 9957   8.452   2.208   4.451 -0.8943  0.2315 -0.6084
  815MOL0     H 9958   8.061   2.192   4.242  0.6815  0.1106 -0.3821
  815MOL0     H 9959   7.832   2.251   4.141 -0.7140 -0.0636 -0.9626
  815MOL0     H 9960   7.545   2.444   4.305  0.4179  0.6687  0.2100
  815MOL0     H 9961   7.603   2.614   4.289 -1.7751 -0.6842  2.3526
  815MOL0     H 9962   7.528   2.611   4.055  2.1940 -0.5572  0.4351
  815MOL0     H 9963   7.473   2.451   4.065  1.2114 -0.3899  0.1632
  815MOL0     H 9964   7.270   2.580   4.109 -0.3771  1.2871 -0.8315
  815MOL0     H 9965   7.339   2.518   4.269  0.6345  1.6818 -0.5840
  815MOL0     H 9966   7.410   2.715   4.338  1.3580  2.7672  0.0392
  815MOL0     H 9967   7.417   2.782   4.173 -4.2574  2.3157 -1.7269
  815MOL0     H 9968   7.226   2.892   4.275 -0.8653 -0.6292  4.6300
  815MOL0     H 9969   7.162   2.781   4.157 -1.5743  3.7860  0.7967
  815MOL0     H 9970   7.101   2.613   4.318 -2.2114 -0.1275  0.7432
  815MOL0     H 9971   7.186   2.692   4.453 -0.3908 -0.6511 -0.3537
  815MOL0     H 9972   7.039   2.864   4.455  0.0897  0.9885 -0.8903
  815MOL0     H 9973   6.937   2.799   4.323  2.9056  1.8090 -0.6354
  815MOL0     H 9974   7.004   2.682   4.593  0.6611  2.3706 -0.2734
  815MOL0     H 9975   6.899   2.603   4.467  0.1129  0.3650 -1.2182
  815MOL0     H 9976   6.723   2.631   4.715  3.5775 -0.4985 -0.7473
  815MOL0     H 9977   6.420   2.712   4.631 -2.1649  0.7424  2.0759
  815MOL0     H 9978   6.505   2.715   4.786 -0.8934 -0.1309 -0.3586
  815MOL0     H 9979   6.387   2.957   4.645  0.0408 -0.8541 -0.3359
  815MOL0     H 9980   6.491   2.977   4.773  1.0579 -0.0858 -2.0105
  815MOL0     H 9981   6.291   2.866   4.918 -2.0366  1.3297  0.5990
  815MOL0     H 9982   6.227   2.811   4.768  0.1567 -1.0401  1.4288
  815MOL0     H 9983   6.152   3.015   4.698  0.4287  3.4966 -0.1213
  815MOL0     H 9984   6.263   3.114   4.776 -1.5049  1.4163  0.9787
  815MOL0     H 9985   5.990   3.128   4.674 -0.5085 -1.0981  0.5777
  815MOL0     H 9986   5.721   3.283   4.615  0.3883  0.2232 -0.4087
  815MOL0     H 9987   5.812   3.156   4.526 -1.8793 -1.6680 -1.0202
  815MOL0     H 9988   5.659   3.114   4.590  0.7623 -0.3402 -1.7134
  815MOL0     H 9989   5.274   3.012   4.891 -0.4859  0.5231  0.0816
  815MOL0     H 9990   5.049   3.087   4.921  0.2347 -0.5198  0.9685
  815MOL0     H 9991   4.859   3.259   4.877 -4.2988  0.7952  0.4393
  815MOL0     H 9992   4.846   3.180   5.042 -0.0261  0.0830  0.5392
  815MOL0     H 9993   4.799   3.443   5.103  0.2162 -0.4613 -0.6958
  815MOL0     H 9994   4.786   3.455   4.931 -0.5353 -0.5633 -0.0429
  815MOL0     H 9995   4.595   3.258   5.081 -0.0184  0.8069  1.6095
  815MOL0     H 9996   4.605   3.307   4.906 -2.5987  2.2013  0.0628
  815MOL0     H 9997   4.560   3.516   5.120  1.3991  0.0114  0.5773
  815MOL0     H 9998   4.537   3.529   4.958  0.4853  2.0008  2.4760
  815MOL0     H 9999   4.345   3.482   5.122  2.2480  0.0028  0.6511
  815MOL0     H10000   4.389   3.309   5.113 -0.2938  0.0222  1.7123
  815MOL0     H10001   4.284   3.473   4.875 -0.3365  1.6999  2.3657
  815MOL0     H10002   4.371   3.318   4.882 -0.5067 -1.8635  1.3466
  815MOL0     H10003   4.209   3.200   4.988 -2.4052 -0.1889 -0.0167
  815MOL0     H10004   4.122   3.295   4.868 -1.7799  3.5477 -0.2592
  815MOL0     H10005   4.130   3.373   5.161  0.8102  3.9636 -0.7116
  815MOL0     H10006   3.996   3.290   5.072  0.3083 -0.7163  3.6336
  815MOL0     H10007   5.205   3.470   5.073  1.1496  0.7746  0.1063
  815MOL0     H10008   5.423   3.386   5.051 -0.2523  0.0379  0.6266
  815MOL0     H10009   5.711   3.030   5.067  2.0599  1.8833  1.2989
  815MOL0     H10010   5.950   3.004   5.082  1.7836  1.6913 -0.4751
  815MOL0     H10011   7.843   2.630   4.331  1.0846  0.5708 -2.7413
  815MOL0     H10012   8.074   2.583   4.416 -0.0585  0.1349 -1.9278
  815MOL0     H10013   8.477   2.486   4.646  1.7518 -0.0483  0.0966
  815MOL0     H10014   8.695   2.394   4.689 -0.6548  2.1780 -1.3372
  815MOL0     H10015   8.942   2.211   4.485 -3.4483 -1.6000 -1.6062
  815MOL0     H10016   8.901   2.319   4.620  0.3609  0.4546 -2.4136
  815MOL0     H10017   8.985   2.133   4.783 -2.0500  1.4192 -0.7639
  815MOL0     H10018   9.101   2.184   4.668 -0.9092  2.1750 -0.7543
  815MOL0     H10019   8.972   1.973   4.540 -0.7129  0.0286  0.9719
  815MOL0     H10020   8.949   1.917   4.702 -0.7594  1.6529  0.3126
  815MOL0     H10021   9.207   1.994   4.557  0.5304 -1.5525 -1.7541
  815MOL0     H10022   9.173   1.828   4.617 -0.5836  0.6967 -1.2229
  815MOL0     H10023   9.336   2.021   4.951 -0.5585  0.6959 -0.2184
  815MOL0     H10024   8.606   2.057   4.436  1.1785  0.1804  0.4979
  815MOL0     H10025   8.381   2.159   4.385 -1.2751  0.1689 -0.1543
  816MOL0     O10026   3.564   6.946   4.797 -0.5131 -0.9369  0.1766
  816MOL0     C10027   3.514   6.983   4.902 -0.4853 -0.1156 -0.2290
  816MOL0     O10028   3.380   6.996   4.925  0.6591  0.7004  1.0085
  816MOL0     C10029   3.305   6.940   4.824 -0.9022 -0.1995  0.4540
  816MOL0     C10030   3.221   6.828   4.841  0.3200 -0.1849  0.1081
  816MOL0     C10031   3.147   6.775   4.738 -0.5354 -0.7109  0.5613
  816MOL0     C10032   3.143   6.833   4.610 -0.4302  0.5324  0.4021
  816MOL0     O10033   3.087   6.785   4.495  0.0017 -0.2358 -0.0362
  816MOL0     C10034   2.990   6.683   4.501  0.8151  0.2117  0.1398
  816MOL0     C10035   2.950   6.642   4.359 -0.2179 -0.4865  0.0747
  816MOL0     C10036   2.843   6.542   4.372 -0.8573 -0.7135  0.4059
  816MOL0     C10037   2.771   6.503   4.238  0.5067 -0.4851 -0.2107
  816MOL0     C10038   2.639   6.427   4.275  0.8933  0.4327  0.0171
  816MOL0     C10039   2.666   6.283   4.316  0.4170  0.0796 -0.2352
  816MOL0     C10040   2.531   6.201   4.316 -0.3788 -0.3957 -0.1568
  816MOL0     C10041   2.549   6.064   4.389 -0.5822  0.1772 -0.1050
  816MOL0     N10042   2.431   5.988   4.421 -0.5263 -0.2370 -0.2703
  816MOL0     C10043   2.303   6.039   4.424 -0.7876 -1.0494  0.7312
  816MOL0     C10044   2.234   5.935   4.386  0.7980 -0.1112  0.1597
  816MOL0     C10045   2.082   5.936   4.386  0.0029 -0.7553  0.0677
  816MOL0     C10046   2.021   6.053   4.307  0.3981 -0.0937  0.1792
  816MOL0     C10047   1.873   6.072   4.325  0.3914 -0.3878  1.0351
  816MOL0     C10048   1.814   6.162   4.221 -0.5429 -0.0613  0.6155
  816MOL0     O10049   1.673   6.157   4.252  0.0757 -0.3387 -0.2393
  816MOL0     C10050   1.575   6.085   4.174 -0.1277 -0.2940  0.6964
  816MOL0     C10051   1.595   6.036   4.046  0.4053  0.9389 -0.0590
  816MOL0     C10052   1.489   5.992   3.966  0.2373 -0.5515 -0.3412
  816MOL0     C10053   1.529   5.960   3.824  1.1992  0.2843  0.1910
  816MOL0     C10054   1.350   5.987   4.017  0.1829 -0.2524  0.2271
  816MOL0     C10055   1.218   5.973   3.941 -0.2327  0.2504  0.3659
  816MOL0     O10056   1.107   5.947   4.022 -0.6713  0.4061  0.5214
  816MOL0     C10057   0.983   5.927   3.974 -0.1513 -0.6362 -0.3900
  816MOL0     C10058   0.895   5.917   4.082  0.5038 -0.9877  0.3339
  816MOL0     C10059   0.757   5.908   4.065  0.2638 -0.0455 -0.2791
  816MOL0     C10060   0.702   5.894   3.938 -0.3785  0.1756  0.5370
  816MOL0     O10061   0.574   5.880   3.904 -0.7025  0.0415 -0.2188
  816MOL0     C10062   0.486   5.897   4.011 -0.8832  1.0001 -0.0965
  816MOL0     C10063   0.343   5.893   3.968 -0.2616 -0.3677  0.3876
  816MOL0     C10064   0.244   5.910   4.088  0.1434  0.8655  0.8651
  816MOL0     C10065   0.102   5.857   4.041  0.9333  0.0591 -0.0418
  816MOL0     C10066  -0.015   5.944   4.088  0.2099  0.8426  0.6037
  816MOL0     C10067  -0.142   5.899   4.016 -1.1155 -0.9509  0.2372
  816MOL0     C10068  -0.254   5.973   4.089  0.6399 -0.3755 -0.2484
  816MOL0     C10069  -0.378   5.991   4.000  0.1379  0.4234 -1.1008
  816MOL0    Cl10070  -0.492   6.085   4.085  0.3547  0.0762  0.7809
  816MOL0     C10071   0.788   5.899   3.826 -0.4452  0.0111  0.0382
  816MOL0     C10072   0.928   5.912   3.842  0.1720  0.1698  0.0607
  816MOL0     O10073   1.216   5.999   3.820  0.6647 -0.0269 -0.0512
  816MOL0     C10074   1.336   6.030   4.149 -0.2453 -0.3764  0.4769
  816MOL0     C10075   1.445   6.084   4.219  0.3027  0.7598 -0.4202
  816MOL0     N10076   2.309   5.823   4.367  0.2872 -0.5470  0.2586
  816MOL0     N10077   2.431   5.857   4.393  0.1325  0.4525 -0.1920
  816MOL0     C10078   3.226   6.948   4.597  0.6942 -0.4055 -0.1367
  816MOL0     C10079   3.299   7.006   4.701 -1.0694 -0.0553  0.1254
  816MOL0     C10080   3.610   7.005   5.010 -0.3739  0.0933 -0.2075
  816MOL0     C10081   3.742   6.969   4.994  0.8395 -0.6556  0.2051
  816MOL0     C10082   3.833   6.982   5.105  0.4838 -0.0504  0.3611
  816MOL0     C10083   3.783   7.039   5.218 -0.4899  0.0315 -0.1004
  816MOL0     O10084   3.875   7.060   5.319  0.7691 -0.4099 -0.0857
  816MOL0     C10085   3.825   7.135   5.435 -0.2303  0.3032  0.0842
  816MOL0     C10086   3.938   7.131   5.546 -0.5495  0.1278  0.1412
  816MOL0     C10087   4.001   6.988   5.573 -0.2506 -0.4820  0.0562
  816MOL0     C10088   3.905   6.876   5.614  0.1502 -0.0710 -0.2147
  816MOL0     C10089   3.836   6.917   5.741 -0.5760 -0.5770  0.1596
  816MOL0     C10090   3.781   6.951   5.845  0.4391 -0.1231 -0.2398
  816MOL0     C10091   3.653   7.077   5.233 -0.1436  0.0443 -0.8122
  816MOL0     C10092   3.567   7.064   5.129 -0.3794  0.7754  0.1292
  816MOL0     H10093   3.220   6.785   4.941  1.6510  0.8974  0.6175
  816MOL0     H10094   3.080   6.696   4.770 -1.7090  0.9482  2.4742
  816MOL0     H10095   3.027   6.595   4.554 -0.6623 -0.1145  0.6942
  816MOL0     H10096   2.903   6.723   4.555 -0.0043 -1.2622 -0.0371
  816MOL0     H10097   2.907   6.730   4.309 -1.3516  0.3728  2.4149
  816MOL0     H10098   3.036   6.612   4.298  0.2022 -1.2409  1.0130
  816MOL0     H10099   2.882   6.452   4.420  0.5629 -0.5910 -0.4862
  816MOL0     H10100   2.765   6.599   4.423 -0.8595  2.7579 -3.0568
  816MOL0     H10101   2.759   6.589   4.172  0.2868 -0.1951  0.2054
  816MOL0     H10102   2.837   6.428   4.192  0.2493 -0.3326 -0.8378
  816MOL0     H10103   2.581   6.472   4.356  0.0593 -1.4043  0.5115
  816MOL0     H10104   2.571   6.424   4.189  0.3333 -2.4357  0.4427
  816MOL0     H10105   2.727   6.229   4.243  0.2678 -2.1151  1.1858
  816MOL0     H10106   2.713   6.279   4.415 -0.6360  2.6087  0.4590
  816MOL0     H10107   2.455   6.263   4.362  0.5345 -0.2817  1.2679
  816MOL0     H10108   2.502   6.192   4.211 -1.3040  3.6389 -0.4023
  816MOL0     H10109   2.611   6.065   4.479  0.7268  1.4586 -0.9779
  816MOL0     H10110   2.614   6.010   4.320 -0.7598 -2.2483  1.4921
  816MOL0     H10111   2.275   6.142   4.446 -0.7886 -0.7148 -0.7526
  816MOL0     H10112   2.052   5.847   4.329  0.6869  0.2675 -1.9991
  816MOL0     H10113   2.035   5.932   4.485  0.2392 -1.7871  0.1532
  816MOL0     H10114   2.041   6.036   4.201 -0.6440  1.5841 -0.3360
  816MOL0     H10115   2.058   6.151   4.340 -0.1740 -0.1501  0.9935
  816MOL0     H10116   1.846   6.103   4.427 -0.5546 -0.0558  0.6983
  816MOL0     H10117   1.811   5.983   4.311 -3.1141  2.0587 -0.2990
  816MOL0     H10118   1.838   6.127   4.120 -0.6651 -3.3634  1.6090
  816MOL0     H10119   1.850   6.264   4.237 -0.6992  0.2130 -0.6799
  816MOL0     H10120   1.691   6.023   3.997 -0.0905 -2.2554 -0.4091
  816MOL0     H10121   1.546   6.051   3.765  0.4919 -0.5138 -1.2851
  816MOL0     H10122   1.609   5.886   3.816  0.8826 -0.1154  0.7065
  816MOL0     H10123   1.442   5.907   3.786  0.3376  2.2346 -0.6851
  816MOL0     H10124   0.926   5.933   4.184 -0.4892  0.3638  0.4549
  816MOL0     H10125   0.691   5.907   4.151  1.9259  0.1212  1.0432
  816MOL0     H10126   0.499   5.829   4.095 -0.6691  1.0427 -0.0936
  816MOL0     H10127   0.506   5.997   4.053 -1.5784  2.3065 -2.6466
  816MOL0     H10128   0.323   5.969   3.892  1.5071  2.1866  2.2956
  816MOL0     H10129   0.311   5.809   3.905 -1.8528  1.7552 -1.8507
  816MOL0     H10130   0.236   6.018   4.104  0.0338  1.1067 -0.6886
  816MOL0     H10131   0.282   5.858   4.177 -1.0841 -1.0103  0.3512
  816MOL0     H10132   0.098   5.844   3.933  3.1771  1.2925 -0.3266
  816MOL0     H10133   0.091   5.758   4.086 -0.2209 -0.6914 -1.8524
  816MOL0     H10134   0.010   6.048   4.066  0.9739  0.9037  1.6529
  816MOL0     H10135  -0.035   5.931   4.195  1.0690 -1.1536  0.5558
  816MOL0     H10136  -0.136   5.919   3.908 -2.7413  1.4137  0.5199
  816MOL0     H10137  -0.169   5.793   4.027 -1.8163 -0.8105 -0.0220
  816MOL0     H10138  -0.226   6.073   4.123 -2.4663  0.7633 -0.6926
  816MOL0     H10139  -0.279   5.914   4.178  0.7786  0.0750  0.0905
  816MOL0     H10140  -0.424   5.892   3.993 -1.8585  1.2865 -0.7133
  816MOL0     H10141  -0.363   6.043   3.905  0.3669  1.3991 -0.5446
  816MOL0     H10142   0.748   5.908   3.726 -5.4622  0.9805  1.8421
  816MOL0     H10143   0.992   5.929   3.755 -0.9051  0.3186 -0.7250
  816MOL0     H10144   1.243   6.010   4.201 -0.8363  3.1580  0.9645
  816MOL0     H10145   1.435   6.109   4.324  5.4828  0.7602  0.3351
  816MOL0     H10146   3.238   6.993   4.499  1.0218  1.0393  0.5338
  816MOL0     H10147   3.370   7.085   4.677 -1.1501  0.9138  2.7888
  816MOL0     H10148   3.788   6.933   4.902  2.3724  2.6589 -0.4753
  816MOL0     H10149   3.935   6.948   5.097 -0.6747 -3.8076 -0.7228
  816MOL0     H10150   3.800   7.237   5.405 -0.2416 -0.4693 -2.8056
  816MOL0     H10151   3.735   7.083   5.470 -0.6598  0.5669 -0.6245
  816MOL0     H10152   3.900   7.169   5.641  0.2889 -1.8867  1.3384
  816MOL0     H10153   4.023   7.196   5.524  0.9150 -1.7540  0.0326
  816MOL0     H10154   4.076   6.993   5.651 -1.0610  0.6929  0.8035
  816MOL0     H10155   4.050   6.960   5.479 -1.4576  1.5648 -1.2868
  816MOL0     H10156   3.958   6.783   5.635  3.2346  1.3344 -1.1639
  816MOL0     H10157   3.837   6.855   5.531 -1.3743 -1.5797  1.3554
  816MOL0     H10158   3.725   6.980   5.931  0.9771 -0.7099  0.3177
  816MOL0     H10159   3.599   7.114   5.320 -3.6092 -3.8001 -1.0192
  816MOL0     H10160   3.463   7.082   5.153 -1.2191 -1.2806 -1.5971
  817MOL0     O10161   2.851   7.095   9.929 -0.3695  0.6162  0.2394
  817MOL0     C10162   2.950   7.069   9.999  0.3675  0.2885 -0.3117
  817MOL0     O10163   2.965   7.096  10.131 -0.3598 -0.2469  0.4562
  817MOL0     C10164   2.867   7.160  10.209 -0.8968  0.6110  0.8750
  817MOL0     C10165   2.795   7.269  10.157  1.1661 -0.1834 -0.1462
  817MOL0     C10166   2.698   7.333  10.240  0.0230  0.0088  0.1960
  817MOL0     C10167   2.673   7.292  10.372 -0.4711 -0.3266  0.2690
  817MOL0     O10168   2.578   7.343  10.454  0.1330 -0.1394 -0.6991
  817MOL0     C10169   2.475   7.420  10.392 -0.6057  0.0627  0.2783
  817MOL0     C10170   2.345   7.431  10.478  0.3236  0.5767 -0.0317
  817MOL0     C10171   2.240   7.518  10.418  0.3328 -0.5010 -1.2373
  817MOL0     C10172   2.169   7.449  10.300  0.4451  0.7002 -0.6328
  817MOL0     C10173   2.044   7.508  10.250 -0.0132 -0.2095  1.0054
  817MOL0     C10174   1.975   7.427  10.138 -0.2138  0.6722 -0.2632
  817MOL0     C10175   1.850   7.496  10.093  0.0601 -0.2464  1.1414
  817MOL0     C10176   1.858   7.565   9.955  0.4887 -0.1848  0.5291
  817MOL0     N10177   1.726   7.594   9.909 -0.1625  0.3025  0.6622
  817MOL0     C10178   1.626   7.504   9.885  0.4848 -0.1759  0.2755
  817MOL0     C10179   1.522   7.580   9.845 -0.3415 -0.2205  0.0872
  817MOL0     C10180   1.381   7.553   9.815 -0.4744  0.2893  1.1015
  817MOL0     C10181   1.288   7.637   9.896 -0.9184  0.0827 -0.6360
  817MOL0     C10182   1.142   7.619   9.855 -0.6644 -0.4758 -0.5300
  817MOL0     C10183   1.105   7.663   9.715  0.6613 -1.1378  0.8199
  817MOL0     O10184   0.960   7.640   9.690 -0.2207 -0.4707 -0.1873
  817MOL0     C10185   0.895   7.721   9.598 -0.9123  0.4235 -0.0985
  817MOL0     C10186   0.965   7.762   9.477 -0.2218 -0.4368  0.0468
  817MOL0     C10187   0.903   7.842   9.381 -0.0683 -0.5179 -0.2151
  817MOL0     C10188   0.982   7.900   9.266  0.9430 -0.1775 -0.2886
  817MOL0     C10189   0.768   7.863   9.388 -0.0607  0.0723 -0.0193
  817MOL0     C10190   0.687   7.929   9.280  0.1385 -0.2429 -0.1493
  817MOL0     O10191   0.726   7.940   9.154  0.5183 -0.4782 -0.3917
  817MOL0     C10192   0.638   7.995   9.061 -0.1253 -0.1198  0.6549
  817MOL0     C10193   0.668   8.122   9.018 -0.0793  0.0634 -1.3412
  817MOL0     C10194   0.584   8.186   8.925 -0.1653  0.5050 -0.1080
  817MOL0     C10195   0.472   8.120   8.873 -0.4770  0.6119  0.6772
  817MOL0     O10196   0.393   8.185   8.773 -1.1368  0.2998  0.5446
  817MOL0     C10197   0.303   8.108   8.687 -0.2881  0.0568 -0.3755
  817MOL0     C10198   0.270   8.185   8.563 -0.3468 -0.9753  0.0974
  817MOL0     C10199   0.153   8.130   8.478  0.6762  0.6117 -0.8476
  817MOL0     C10200   0.082   8.246   8.409 -0.5467 -0.3152  0.1120
  817MOL0     C10201  -0.064   8.232   8.376  0.0407  0.5689  0.0149
  817MOL0     C10202  -0.106   8.092   8.322 -0.2548 -0.4021  0.6884
  817MOL0     C10203  -0.257   8.090   8.296 -0.5313 -0.4719  0.0162
  817MOL0     C10204  -0.305   7.961   8.221 -0.2907  0.0407  0.4686
  817MOL0    Cl10205  -0.212   7.948   8.063 -0.4071  0.0658 -0.2573
  817MOL0     C10206   0.441   7.989   8.919 -0.4758  0.7224  0.9256
  817MOL0     C10207   0.522   7.930   9.019  0.3893 -0.2448 -0.6597
  817MOL0     O10208   0.581   7.983   9.322 -0.0641 -0.5803  0.4813
  817MOL0     C10209   0.697   7.811   9.503 -0.4172 -0.8756 -0.4003
  817MOL0     C10210   0.760   7.739   9.605 -0.4367  0.1645 -0.3194
  817MOL0     N10211   1.572   7.706   9.812 -0.5662  0.1952 -0.2364
  817MOL0     N10212   1.690   7.717   9.868  0.0108 -0.7628  1.0501
  817MOL0     C10213   2.767   7.202  10.417  0.5139 -0.2624  0.5988
  817MOL0     C10214   2.856   7.133  10.339  0.6620  0.3830 -0.5535
  817MOL0     C10215   3.062   7.016   9.925  0.6686 -0.2168 -0.0605
  817MOL0     C10216   3.036   6.942   9.805  0.3692  0.4526 -0.2430
  817MOL0     C10217   3.133   6.878   9.734  0.3965  0.3394  1.0965
  817MOL0     C10218   3.269   6.886   9.786  0.2494  0.0089  0.2472
  817MOL0     O10219   3.377   6.809   9.739  0.3360 -0.0883  0.4428
  817MOL0     C10220   3.364   6.761   9.602  0.8979 -0.6582 -0.3465
  817MOL0     C10221   3.461   6.849   9.520 -0.0972 -0.3639 -0.3831
  817MOL0     C10222   3.507   6.796   9.381 -0.9189  0.2080 -0.4728
  817MOL0     C10223   3.582   6.897   9.315 -0.4862  0.4683 -0.2887
  817MOL0     C10224   3.716   6.908   9.364  0.8845 -0.6631 -0.7071
  817MOL0     C10225   3.832   6.913   9.381  0.0796 -0.0109  0.6485
  817MOL0     C10226   3.295   6.969   9.900 -0.0994 -0.1236  0.7448
  817MOL0     C10227   3.195   7.036   9.965  0.6262  0.0754 -0.2965
  817MOL0     H10228   2.797   7.308  10.056 -3.1601  1.5780  0.2561
  817MOL0     H10229   2.643   7.409  10.185  0.7186 -0.2208 -0.8403
  817MOL0     H10230   2.515   7.518  10.368 -4.1134  1.3926 -0.8650
  817MOL0     H10231   2.449   7.382  10.293 -0.4357 -0.2609  0.3564
  817MOL0     H10232   2.305   7.332  10.500  0.9273 -0.4767 -3.1687
  817MOL0     H10233   2.381   7.479  10.570 -2.7814  2.0637  0.5432
  817MOL0     H10234   2.176   7.546  10.503  5.2058  2.0184  2.0548
  817MOL0     H10235   2.286   7.612  10.388 -1.6448  1.2612  0.8798
  817MOL0     H10236   2.241   7.448  10.217 -1.0097  0.8306 -1.9362
  817MOL0     H10237   2.136   7.349  10.329 -0.1439  1.6569  2.3683
  817MOL0     H10238   1.964   7.525  10.323 -0.5374  0.8420  0.2285
  817MOL0     H10239   2.071   7.606  10.209  1.3696 -0.7944  0.4768
  817MOL0     H10240   2.053   7.409  10.064  0.4779  1.9254  0.1437
  817MOL0     H10241   1.942   7.333  10.183  0.1164 -0.1891 -1.7475
  817MOL0     H10242   1.778   7.414  10.082  1.8010 -1.7440  0.3680
  817MOL0     H10243   1.809   7.564  10.168  2.2618 -0.8406  2.9958
  817MOL0     H10244   1.923   7.520   9.880  1.3172 -0.0644  1.1564
  817MOL0     H10245   1.916   7.656   9.971  2.1951 -1.2262  0.5380
  817MOL0     H10246   1.614   7.401   9.918  0.4270 -0.5575 -0.8837
  817MOL0     H10247   1.360   7.566   9.708 -2.9815 -2.2426  1.1589
  817MOL0     H10248   1.357   7.451   9.847 -3.7753  1.4118  2.7212
  817MOL0     H10249   1.311   7.744   9.887 -0.8791  0.1329  0.0000
  817MOL0     H10250   1.298   7.601   9.999  0.8122 -1.6686 -1.3573
  817MOL0     H10251   1.095   7.685   9.928 -0.3772 -1.3150  0.4449
  817MOL0     H10252   1.107   7.515   9.858 -1.9185 -0.0704 -0.6042
  817MOL0     H10253   1.156   7.601   9.641 -1.4548 -2.3004  0.2255
  817MOL0     H10254   1.131   7.768   9.698 -1.6767 -0.9297 -2.5887
  817MOL0     H10255   1.071   7.742   9.478 -0.5522 -2.4644 -0.9861
  817MOL0     H10256   1.087   7.913   9.293  0.8921  0.6793 -0.4712
  817MOL0     H10257   0.965   7.841   9.176  1.6795 -1.6602  0.4971
  817MOL0     H10258   0.946   8.002   9.253 -0.4022 -0.7119 -1.0392
  817MOL0     H10259   0.758   8.163   9.063 -0.7058  0.0839 -0.0353
  817MOL0     H10260   0.599   8.290   8.897  1.1600 -0.1074 -1.8244
  817MOL0     H10261   0.352   8.012   8.665 -0.7139 -0.9095  2.4717
  817MOL0     H10262   0.213   8.096   8.746  0.6786  2.8634  1.8656
  817MOL0     H10263   0.244   8.280   8.609 -1.8872 -0.4920 -1.6660
  817MOL0     H10264   0.362   8.204   8.507 -1.1627 -0.7720 -1.2328
  817MOL0     H10265   0.086   8.076   8.546  0.6374 -0.8025 -1.9596
  817MOL0     H10266   0.187   8.057   8.404  0.1691 -0.5572  0.0460
  817MOL0     H10267   0.082   8.334   8.474 -1.2779 -0.4135  0.2466
  817MOL0     H10268   0.139   8.261   8.316  2.4992 -2.4862  1.4499
  817MOL0     H10269  -0.099   8.319   8.319 -0.6695 -0.2453 -0.8308
  817MOL0     H10270  -0.111   8.232   8.475  1.6574  0.2089  0.8041
  817MOL0     H10271  -0.052   8.081   8.227  1.0454 -3.1151  1.6499
  817MOL0     H10272  -0.073   8.006   8.381  1.2248 -1.0342 -0.9640
  817MOL0     H10273  -0.283   8.174   8.232  1.1486 -2.9540 -4.3626
  817MOL0     H10274  -0.299   8.096   8.397 -0.2987 -2.0923  0.2442
  817MOL0     H10275  -0.412   7.980   8.215 -0.5490 -1.4841 -0.1760
  817MOL0     H10276  -0.294   7.868   8.278  2.6793 -0.2228 -0.3549
  817MOL0     H10277   0.347   7.941   8.892  0.5205 -0.3963 -0.7022
  817MOL0     H10278   0.494   7.831   9.055  2.2804 -0.9772 -1.1256
  817MOL0     H10279   0.592   7.837   9.506  0.1473  2.1048 -2.2353
  817MOL0     H10280   0.697   7.698   9.684 -0.6152 -0.4505 -0.7752
  817MOL0     H10281   2.755   7.192  10.524 -0.4735  1.5686  0.7104
  817MOL0     H10282   2.925   7.052  10.361 -1.1219 -0.9051  0.6210
  817MOL0     H10283   2.932   6.927   9.776  1.0126 -0.7423 -2.1455
  817MOL0     H10284   3.081   6.822   9.657 -1.7408  3.4201  0.0726
  817MOL0     H10285   3.392   6.656   9.603  0.5317 -0.7554 -0.1320
  817MOL0     H10286   3.262   6.764   9.563 -0.6415 -3.6518  2.9136
  817MOL0     H10287   3.550   6.873   9.579  1.1184 -1.5667 -1.6321
  817MOL0     H10288   3.410   6.945   9.510  0.4559  0.3760  2.8080
  817MOL0     H10289   3.415   6.780   9.324 -0.6989  0.5254 -0.9188
  817MOL0     H10290   3.563   6.704   9.400 -3.4115 -1.2656  0.2526
  817MOL0     H10291   3.538   6.997   9.320  1.4076  1.2644  1.6014
  817MOL0     H10292   3.586   6.865   9.210  0.1949 -0.7655  0.1045
  817MOL0     H10293   3.936   6.934   9.398  0.3572 -1.6880  1.2201
  817MOL0     H10294   3.393   6.965   9.946 -0.5574  0.1889  1.7931
  817MOL0     H10295   3.213   7.082  10.061 -2.7309  0.0457  0.4805
  818MOL0     O10296   8.723   1.196   2.524  0.3305 -0.1233  0.4789
  818MOL0     C10297   8.734   1.141   2.414 -0.1678  0.7733  0.1689
  818MOL0     O10298   8.634   1.107   2.325 -0.1896  0.5826 -0.9614
  818MOL0     C10299   8.500   1.140   2.344  1.0496  0.5589 -0.6490
  818MOL0     C10300   8.419   1.151   2.231 -0.3388 -0.3538  0.1817
  818MOL0     C10301   8.288   1.185   2.238  0.3184  0.4522 -0.3308
  818MOL0     C10302   8.221   1.194   2.360 -0.2969 -0.2082 -0.9302
  818MOL0     O10303   8.102   1.247   2.373  0.0251  0.0820  0.2201
  818MOL0     C10304   8.000   1.166   2.308  0.1182  0.5096  0.0050
  818MOL0     C10305   7.888   1.261   2.247 -0.1285 -0.3782  0.2685
  818MOL0     C10306   7.760   1.289   2.323  0.6433  0.5407 -0.0548
  818MOL0     C10307   7.796   1.356   2.461 -0.2362 -0.4342 -1.1109
  818MOL0     C10308   7.667   1.393   2.543  1.2860 -0.0655  0.2340
  818MOL0     C10309   7.558   1.277   2.551 -0.5537 -0.1324  0.5386
  818MOL0     C10310   7.444   1.313   2.654 -1.3092  0.1595 -0.0011
  818MOL0     C10311   7.364   1.193   2.682 -0.1249 -0.2177 -0.2611
  818MOL0     N10312   7.235   1.168   2.612  0.4474  0.2132  0.2282
  818MOL0     C10313   7.131   1.107   2.679  0.4505 -0.0162  0.3813
  818MOL0     C10314   7.045   1.068   2.583  0.3736 -0.1052  0.6682
  818MOL0     C10315   6.909   0.995   2.591  0.1852 -0.9207  0.5897
  818MOL0     C10316   6.918   0.867   2.675  0.0883 -0.0855  0.2176
  818MOL0     C10317   6.779   0.802   2.699  0.2073  0.0989 -0.3969
  818MOL0     C10318   6.790   0.658   2.750 -0.0431  1.1365  0.7109
  818MOL0     O10319   6.667   0.582   2.764  0.0377 -0.3282 -1.2575
  818MOL0     C10320   6.599   0.534   2.662  0.0246  0.9152 -0.2373
  818MOL0     C10321   6.485   0.460   2.691  0.5278 -1.0659  0.2363
  818MOL0     C10322   6.413   0.392   2.585 -0.0737 -0.3824 -0.0551
  818MOL0     C10323   6.295   0.310   2.633 -0.1305 -0.1095  0.5291
  818MOL0     C10324   6.466   0.395   2.455  1.1180  0.7628 -0.4299
  818MOL0     C10325   6.401   0.326   2.347 -0.7121  0.1658  0.3831
  818MOL0     O10326   6.481   0.258   2.267 -0.3455  0.4622  0.1787
  818MOL0     C10327   6.430   0.163   2.179  0.8220 -0.0119 -0.0621
  818MOL0     C10328   6.309   0.096   2.198  0.9739 -0.3917  0.2747
  818MOL0     C10329   6.274  -0.004   2.104  0.2946 -0.3800  0.0872
  818MOL0     C10330   6.365  -0.052   2.011  0.7802 -0.3603  0.7326
  818MOL0     O10331   6.322  -0.164   1.935 -0.6651  0.7411  0.1689
  818MOL0     C10332   6.393  -0.174   1.812 -1.2306 -0.0876  0.4687
  818MOL0     C10333   6.333  -0.282   1.727 -1.1872 -0.1274 -0.2154
  818MOL0     C10334   6.437  -0.390   1.692 -0.7989  0.1432  0.4388
  818MOL0     C10335   6.415  -0.437   1.542  0.9572 -0.6143  0.2134
  818MOL0     C10336   6.540  -0.512   1.490  1.0533 -0.1120  0.8567
  818MOL0     C10337   6.549  -0.646   1.573 -0.0252 -0.2427 -1.1966
  818MOL0     C10338   6.626  -0.747   1.488 -0.9373  0.9454 -0.3076
  818MOL0     C10339   6.778  -0.716   1.452 -0.0701  0.1170 -0.1806
  818MOL0    Cl10340   6.875  -0.858   1.406 -0.2991 -0.5719  0.1663
  818MOL0     C10341   6.485   0.015   2.000 -1.0358 -0.3024  0.2749
  818MOL0     C10342   6.508   0.125   2.080  0.3249  0.3760  0.2386
  818MOL0     O10343   6.284   0.354   2.331  0.5655  0.1810 -0.5253
  818MOL0     C10344   6.574   0.476   2.432 -0.1295  0.3053 -0.0442
  818MOL0     C10345   6.645   0.541   2.529  0.0474  0.6161 -0.2714
  818MOL0     N10346   7.107   1.080   2.462  0.7256 -0.4187  0.3751
  818MOL0     N10347   7.228   1.137   2.478 -0.2209 -0.9040 -0.5210
  818MOL0     C10348   8.300   1.173   2.479  0.5784 -0.6514 -0.1077
  818MOL0     C10349   8.428   1.142   2.475  0.7461 -0.1090  1.3501
  818MOL0     C10350   8.868   1.081   2.395 -0.4823  0.0358 -0.2580
  818MOL0     C10351   8.980   1.143   2.450  0.2288  0.4382  0.0805
  818MOL0     C10352   9.105   1.088   2.440  0.5477  0.2191  0.8914
  818MOL0     C10353   9.121   0.967   2.376 -0.3766 -1.1344 -0.7151
  818MOL0     O10354   9.244   0.908   2.360 -0.2868  0.2357  0.0438
  818MOL0     C10355   9.364   0.985   2.350  0.3285  0.0907 -0.2345
  818MOL0     C10356   9.359   1.086   2.235 -0.0199  0.1882  0.6901
  818MOL0     C10357   9.361   1.021   2.099 -0.1703  0.1066  0.8536
  818MOL0     C10358   9.473   0.922   2.067  0.0235  0.0006 -0.3199
  818MOL0     C10359   9.604   0.988   2.054 -0.7786  0.2869 -0.2902
  818MOL0     C10360   9.714   1.040   2.021  1.0121  0.2691 -0.0315
  818MOL0     C10361   9.015   0.895   2.330  0.5227 -0.2363 -0.0176
  818MOL0     C10362   8.884   0.946   2.343 -0.2936  0.0803  0.8626
  818MOL0     H10363   8.470   1.151   2.135  1.5386  0.5973  1.1236
  818MOL0     H10364   8.224   1.196   2.151 -0.1206  1.7479  0.1251
  818MOL0     H10365   8.032   1.096   2.231  0.3146  0.0692  0.4793
  818MOL0     H10366   7.958   1.106   2.389  1.3691 -1.9099 -1.0145
  818MOL0     H10367   7.937   1.357   2.226 -2.1287  0.9909  1.5510
  818MOL0     H10368   7.863   1.213   2.152  0.9049  0.6462 -0.5480
  818MOL0     H10369   7.700   1.355   2.260  0.2195  0.9377  0.7580
  818MOL0     H10370   7.705   1.196   2.341 -1.0000  1.8439  2.0200
  818MOL0     H10371   7.864   1.288   2.513 -1.4005  0.1576  1.3107
  818MOL0     H10372   7.843   1.454   2.451 -1.0446  0.1161  0.2575
  818MOL0     H10373   7.693   1.434   2.641  4.6538  2.0564 -1.3658
  818MOL0     H10374   7.616   1.476   2.492 -0.2994  0.9087  3.1723
  818MOL0     H10375   7.511   1.261   2.454  1.8854  1.8909 -1.1467
  818MOL0     H10376   7.611   1.191   2.593 -0.4610  0.5652  1.8881
  818MOL0     H10377   7.482   1.350   2.750  1.0530  1.7776 -1.4582
  818MOL0     H10378   7.383   1.389   2.603  0.0129 -0.6903 -3.0961
  818MOL0     H10379   7.352   1.203   2.790  1.0686 -0.3422 -0.1070
  818MOL0     H10380   7.419   1.099   2.682 -0.1951 -0.2612  0.7814
  818MOL0     H10381   7.116   1.094   2.786  1.0673  0.1721  0.4937
  818MOL0     H10382   6.836   1.068   2.625 -0.1969 -0.6148 -0.8146
  818MOL0     H10383   6.878   0.970   2.489  3.4871  2.8555 -1.6092
  818MOL0     H10384   6.981   0.886   2.762 -0.1123  1.5240  0.0415
  818MOL0     H10385   6.969   0.789   2.617 -0.5728  1.3474 -2.4868
  818MOL0     H10386   6.711   0.802   2.613 -1.1223 -0.7074  0.6308
  818MOL0     H10387   6.718   0.872   2.757 -1.2066 -0.9638 -0.5461
  818MOL0     H10388   6.841   0.649   2.847 -0.9110  0.3573  1.1181
  818MOL0     H10389   6.849   0.598   2.680 -0.8384  3.2737 -1.9333
  818MOL0     H10390   6.439   0.466   2.789  1.8805 -0.8041  0.8801
  818MOL0     H10391   6.288   0.304   2.742  0.3722  0.8377  0.6251
  818MOL0     H10392   6.201   0.350   2.594 -0.0820 -0.7345 -0.2529
  818MOL0     H10393   6.293   0.207   2.594  1.0634  0.0796 -0.0942
  818MOL0     H10394   6.238   0.112   2.278  0.4391  2.3036 -0.6619
  818MOL0     H10395   6.176  -0.048   2.114 -0.4567  1.3392  0.6227
  818MOL0     H10396   6.389  -0.077   1.761  1.5706  2.1444  4.0476
  818MOL0     H10397   6.498  -0.194   1.834 -0.6404  0.9435 -1.2044
  818MOL0     H10398   6.254  -0.338   1.777 -1.0268 -0.5974 -0.4814
  818MOL0     H10399   6.287  -0.233   1.641 -1.6941  2.6904  1.5523
  818MOL0     H10400   6.407  -0.473   1.755 -1.2013  1.2216  1.7153
  818MOL0     H10401   6.540  -0.352   1.699 -1.3594  1.6918  0.7727
  818MOL0     H10402   6.326  -0.500   1.531 -2.3780  3.8670 -2.0089
  818MOL0     H10403   6.402  -0.349   1.478 -0.6591 -3.1708 -3.2469
  818MOL0     H10404   6.625  -0.443   1.497  0.4171  0.5178  3.3193
  818MOL0     H10405   6.525  -0.534   1.384  1.4323 -0.2744  0.8324
  818MOL0     H10406   6.621  -0.626   1.653  1.0450 -0.4054 -2.0935
  818MOL0     H10407   6.455  -0.690   1.606  0.6163  0.2950  1.6398
  818MOL0     H10408   6.578  -0.763   1.391  2.6483  3.3547 -2.7731
  818MOL0     H10409   6.613  -0.842   1.541 -0.7646  1.9677  1.6228
  818MOL0     H10410   6.826  -0.655   1.529 -0.2969  0.2555 -0.1482
  818MOL0     H10411   6.778  -0.646   1.368  0.5736  1.8190  1.1770
  818MOL0     H10412   6.559  -0.021   1.929  1.5092 -0.6088  2.8727
  818MOL0     H10413   6.605   0.173   2.067  2.4354 -2.5913  3.2759
  818MOL0     H10414   6.603   0.495   2.329 -1.6303 -0.1630 -0.5882
  818MOL0     H10415   6.734   0.599   2.505  1.3192 -1.1582 -0.0904
  818MOL0     H10416   8.251   1.183   2.575 -0.4692  0.7739 -0.7608
  818MOL0     H10417   8.484   1.122   2.566  2.2833  0.5007  0.5695
  818MOL0     H10418   8.958   1.244   2.483 -0.6320  0.9572 -1.9616
  818MOL0     H10419   9.194   1.139   2.479  3.1931 -3.0634 -0.3549
  818MOL0     H10420   9.372   1.041   2.444 -0.4576  3.5310 -2.0167
  818MOL0     H10421   9.454   0.923   2.340  2.7824  2.7185  3.0572
  818MOL0     H10422   9.451   1.144   2.246  1.5095 -2.3882  2.7791
  818MOL0     H10423   9.269   1.148   2.224 -0.4616 -0.6065 -0.2909
  818MOL0     H10424   9.369   1.106   2.030  0.4634  1.1215  2.1408
  818MOL0     H10425   9.265   0.973   2.079 -0.1123  1.0516 -2.2608
  818MOL0     H10426   9.437   0.877   1.974 -0.8723 -0.4913  0.2494
  818MOL0     H10427   9.468   0.837   2.136  0.9226  0.4490  0.3122
  818MOL0     H10428   9.812   1.063   1.985  0.3765  2.4308 -0.5321
  818MOL0     H10429   9.036   0.801   2.279  0.1955 -1.3452  1.7804
  818MOL0     H10430   8.800   0.886   2.310  1.4485 -0.4898 -3.1438
  819MOL0     O10431   1.477   5.595   1.369 -0.5754  0.2393  0.1606
  819MOL0     C10432   1.462   5.662   1.470 -0.3184  0.3940  0.0313
  819MOL0     O10433   1.341   5.671   1.536  0.0451  0.1642 -0.1266
  819MOL0     C10434   1.231   5.607   1.494 -0.2077 -0.8967 -0.6862
  819MOL0     C10435   1.135   5.699   1.459 -0.6482 -0.7319  0.0887
  819MOL0     C10436   1.013   5.655   1.394  0.3133  0.6735 -0.0049
  819MOL0     C10437   1.005   5.520   1.358  0.7995  0.2095  0.0954
  819MOL0     O10438   0.888   5.488   1.311  0.5558 -0.2438 -0.8305
  819MOL0     C10439   0.880   5.373   1.232 -0.1919 -0.4504  0.2663
  819MOL0     C10440   0.748   5.309   1.254  0.6207  0.3405 -0.5505
  819MOL0     C10441   0.626   5.397   1.203 -1.0999  0.1442  0.5034
  819MOL0     C10442   0.504   5.313   1.192 -0.7808  0.3541 -0.2054
  819MOL0     C10443   0.402   5.374   1.102  0.0662 -0.1276 -0.3055
  819MOL0     C10444   0.330   5.487   1.169 -0.3991  0.4773 -0.3940
  819MOL0     C10445   0.229   5.539   1.069  0.2625 -0.1919 -0.1852
  819MOL0     C10446   0.149   5.653   1.147  0.3725 -0.3633  1.1576
  819MOL0     N10447   0.002   5.624   1.131  0.3081 -0.5427  0.1687
  819MOL0     C10448  -0.060   5.590   1.012  0.1086 -0.2431  0.3684
  819MOL0     C10449  -0.181   5.553   1.050  0.9512  0.0476 -0.1840
  819MOL0     C10450  -0.294   5.493   0.973  0.2997 -0.7116 -0.7236
  819MOL0     C10451  -0.267   5.358   0.908 -0.8342  0.4079 -0.7818
  819MOL0     C10452  -0.382   5.287   0.840  0.4446  0.2812  0.4099
  819MOL0     C10453  -0.513   5.310   0.917  0.0166 -0.2214 -0.1449
  819MOL0     O10454  -0.567   5.432   0.874 -1.3073 -1.4823  0.2721
  819MOL0     C10455  -0.698   5.459   0.880  0.1068 -0.6131  0.9842
  819MOL0     C10456  -0.793   5.365   0.921 -0.6669  0.0883 -0.5005
  819MOL0     C10457  -0.930   5.398   0.924  0.2150 -0.2909  0.0154
  819MOL0     C10458  -1.032   5.285   0.958 -0.4473 -0.1317 -0.4103
  819MOL0     C10459  -0.973   5.535   0.889 -0.2017  0.3127  0.9613
  819MOL0     C10460  -1.114   5.569   0.871  1.3670 -0.5779 -0.2769
  819MOL0     O10461  -1.136   5.683   0.807 -0.6126 -0.0799  0.0476
  819MOL0     C10462  -1.256   5.700   0.753  0.3722 -0.2176  0.1710
  819MOL0     C10463  -1.373   5.725   0.821 -0.4216 -0.2868 -0.3609
  819MOL0     C10464  -1.485   5.773   0.747 -0.4563  0.0821  0.6789
  819MOL0     C10465  -1.493   5.796   0.609  0.1829 -0.1201 -0.2294
  819MOL0     O10466  -1.594   5.852   0.542 -1.0454 -0.2422 -0.5663
  819MOL0     C10467  -1.716   5.883   0.611 -0.2753 -0.6186 -0.2802
  819MOL0     C10468  -1.807   5.959   0.500 -0.0920 -0.3049 -0.7606
  819MOL0     C10469  -1.938   6.010   0.562  0.2874  0.9319 -0.4411
  819MOL0     C10470  -2.027   5.907   0.639  0.0150 -0.2229  0.0054
  819MOL0     C10471  -2.171   5.964   0.655 -0.2180 -0.4495 -0.3289
  819MOL0     C10472  -2.253   5.860   0.726 -0.0878 -0.8246  0.0859
  819MOL0     C10473  -2.291   5.740   0.638  0.0108  0.0669 -0.0150
  819MOL0     C10474  -2.399   5.658   0.711  0.7794 -0.1843 -0.3242
  819MOL0    Cl10475  -2.470   5.521   0.603  0.0132 -0.5307  0.3742
  819MOL0     C10476  -1.376   5.761   0.543 -0.4895  0.7151 -0.2968
  819MOL0     C10477  -1.261   5.720   0.615 -0.1157  0.0783  0.0269
  819MOL0     O10478  -1.208   5.498   0.921 -0.2905 -0.2549 -0.3496
  819MOL0     C10479  -0.876   5.625   0.843  0.2064  0.5960 -0.9684
  819MOL0     C10480  -0.740   5.586   0.838 -0.0682 -0.6724  0.2371
  819MOL0     N10481  -0.185   5.563   1.185 -0.5091 -0.2510  0.0498
  819MOL0     N10482  -0.070   5.595   1.241 -0.9221  0.3142 -1.0110
  819MOL0     C10483   1.100   5.428   1.398 -0.2503 -0.7238  0.0469
  819MOL0     C10484   1.221   5.473   1.465  0.5827 -0.8500  0.8106
  819MOL0     C10485   1.583   5.723   1.530 -0.4413 -0.8890  0.5448
  819MOL0     C10486   1.583   5.849   1.592  0.2251 -0.1751 -0.0962
  819MOL0     C10487   1.696   5.902   1.648 -0.8979 -0.0804 -0.1155
  819MOL0     C10488   1.820   5.835   1.628  0.7096 -0.1743  0.2272
  819MOL0     O10489   1.922   5.905   1.678 -0.0940  0.2184  0.2534
  819MOL0     C10490   2.049   5.861   1.640 -0.2680 -0.6643  0.2540
  819MOL0     C10491   2.152   5.962   1.683  0.0304 -0.1602  0.3097
  819MOL0     C10492   2.297   5.906   1.695  0.0189 -0.1816 -0.4385
  819MOL0     C10493   2.415   6.002   1.659 -0.0278  0.4726 -0.2641
  819MOL0     C10494   2.396   6.133   1.715  0.5899 -0.1816  0.7771
  819MOL0     C10495   2.368   6.244   1.760  0.9006 -0.1799  0.2863
  819MOL0     C10496   1.823   5.720   1.547  0.3776 -0.4697 -0.2535
  819MOL0     C10497   1.706   5.662   1.498  0.0974 -0.7295  0.7952
  819MOL0     H10498   1.147   5.803   1.490  3.5183 -1.3387  1.0478
  819MOL0     H10499   0.935   5.727   1.372  1.5711  1.6869 -1.2652
  819MOL0     H10500   0.887   5.401   1.126 -0.5063 -0.4532  0.2447
  819MOL0     H10501   0.964   5.302   1.236  0.6466  0.3976 -1.3786
  819MOL0     H10502   0.742   5.216   1.198  0.0530 -0.1267  0.2699
  819MOL0     H10503   0.740   5.275   1.358  1.8289 -1.4396 -0.9991
  819MOL0     H10504   0.613   5.481   1.272  0.6595 -0.0191  1.0843
  819MOL0     H10505   0.656   5.429   1.103  0.6923 -5.2241 -1.0119
  819MOL0     H10506   0.528   5.218   1.143 -1.5604  1.0695 -2.0634
  819MOL0     H10507   0.457   5.280   1.285 -1.2102 -1.3327 -0.9744
  819MOL0     H10508   0.450   5.400   1.007 -2.7963  1.7183 -1.3641
  819MOL0     H10509   0.323   5.302   1.078  0.7207 -1.1683  0.5994
  819MOL0     H10510   0.284   5.460   1.265 -1.4438  3.5501  0.0893
  819MOL0     H10511   0.398   5.571   1.186  1.4559 -0.4715 -2.5759
  819MOL0     H10512   0.266   5.598   0.985 -1.3589  0.4027 -0.5371
  819MOL0     H10513   0.173   5.451   1.037 -0.0531  0.2730 -0.9500
  819MOL0     H10514   0.171   5.751   1.105 -1.0335 -0.7584 -0.6630
  819MOL0     H10515   0.174   5.651   1.254 -0.0586  0.1134  1.2718
  819MOL0     H10516  -0.021   5.572   0.913  0.5907  0.8801  0.3378
  819MOL0     H10517  -0.382   5.499   1.037  0.9927  0.7866  0.1374
  819MOL0     H10518  -0.326   5.572   0.905  1.2443  0.0374 -0.3302
  819MOL0     H10519  -0.231   5.296   0.990  0.4566  0.3624 -1.3600
  819MOL0     H10520  -0.179   5.368   0.844 -0.4298  0.8056 -0.1767
  819MOL0     H10521  -0.360   5.181   0.855  0.6388  0.3952  0.9303
  819MOL0     H10522  -0.397   5.316   0.735  0.4870  1.7676  0.8017
  819MOL0     H10523  -0.502   5.316   1.025  0.2389  2.5580 -0.2552
  819MOL0     H10524  -0.576   5.223   0.895  0.0765 -0.8727  2.0428
  819MOL0     H10525  -0.765   5.262   0.941 -1.0444  0.0210 -0.3165
  819MOL0     H10526  -1.082   5.303   1.053  0.6493 -1.9441  0.5835
  819MOL0     H10527  -1.104   5.264   0.878 -2.8545  1.3849  1.2460
  819MOL0     H10528  -0.978   5.196   0.993 -0.4395  1.1128  3.1196
  819MOL0     H10529  -1.375   5.714   0.929  1.2198  0.7953 -0.1892
  819MOL0     H10530  -1.570   5.786   0.814  0.8890 -1.8213  2.9229
  819MOL0     H10531  -1.762   5.794   0.654 -0.6912  1.3814  3.9286
  819MOL0     H10532  -1.704   5.952   0.695 -1.1260 -1.8914  0.9386
  819MOL0     H10533  -1.745   6.039   0.457  2.1996 -0.8906  1.1884
  819MOL0     H10534  -1.833   5.886   0.424 -1.6692  0.7631 -1.2861
  819MOL0     H10535  -1.987   6.058   0.477 -0.4205  0.1745 -0.4703
  819MOL0     H10536  -1.911   6.092   0.629  0.5767  0.7915 -0.3841
  819MOL0     H10537  -2.019   5.810   0.590  1.3284  0.2216 -0.6990
  819MOL0     H10538  -1.989   5.903   0.742 -1.1963 -0.2696  0.4671
  819MOL0     H10539  -2.219   5.976   0.558  1.7978 -1.8434 -1.5738
  819MOL0     H10540  -2.164   6.060   0.708  2.3416 -0.5366 -0.4048
  819MOL0     H10541  -2.189   5.828   0.809 -1.7528  0.7403  2.0894
  819MOL0     H10542  -2.343   5.916   0.753 -0.5773 -1.0597 -1.0230
  819MOL0     H10543  -2.205   5.679   0.609 -0.5727 -2.3945  2.8900
  819MOL0     H10544  -2.336   5.783   0.548  0.9083  0.6796 -0.1900
  819MOL0     H10545  -2.481   5.724   0.739  2.6899  1.5869  1.4927
  819MOL0     H10546  -2.349   5.621   0.801 -0.1910  2.5893  1.4835
  819MOL0     H10547  -1.382   5.780   0.436  1.3143 -0.1678 -0.5975
  819MOL0     H10548  -1.170   5.694   0.562 -1.4825 -2.0557 -1.4351
  819MOL0     H10549  -0.906   5.725   0.812  0.7570  1.4198  0.9946
  819MOL0     H10550  -0.667   5.651   0.790  0.6147 -0.5380  1.4365
  819MOL0     H10551   1.105   5.321   1.378 -0.9004 -0.7940  0.2196
  819MOL0     H10552   1.294   5.399   1.495 -0.1862 -2.0428 -0.1507
  819MOL0     H10553   1.482   5.888   1.597 -0.6919 -2.3588 -0.6032
  819MOL0     H10554   1.690   5.994   1.704  2.7193  1.0576 -1.3002
  819MOL0     H10555   2.064   5.764   1.688  1.9393 -0.0674  0.8864
  819MOL0     H10556   2.051   5.855   1.531  0.5886 -1.1100  0.2873
  819MOL0     H10557   2.125   6.006   1.779  0.8431  0.6288  0.1865
  819MOL0     H10558   2.151   6.033   1.600 -1.0244 -2.1272 -1.4736
  819MOL0     H10559   2.310   5.814   1.638 -1.9727 -2.0533  1.8915
  819MOL0     H10560   2.315   5.872   1.797 -0.6643 -1.9162 -0.8714
  819MOL0     H10561   2.416   6.010   1.550  0.2152 -0.4254 -0.3338
  819MOL0     H10562   2.509   5.968   1.704 -0.6759 -0.3026  0.5289
  819MOL0     H10563   2.355   6.348   1.782 -1.7589 -0.6362  1.2825
  819MOL0     H10564   1.921   5.680   1.523  0.3599 -0.4929 -0.2894
  819MOL0     H10565   1.717   5.579   1.430  1.1777 -0.3488  0.4834
  820MOL0     O10566   0.191   9.719   7.956  0.1315  0.3104 -0.0110
  820MOL0     C10567   0.271   9.778   8.027  0.0488 -0.0302  0.2592
  820MOL0     O10568   0.234   9.861   8.129  0.3220 -0.1293 -0.0285
  820MOL0     C10569   0.101   9.899   8.141 -0.3040  0.3770  0.8239
  820MOL0     C10570   0.006   9.814   8.198 -0.8383  0.8592  0.3713
  820MOL0     C10571  -0.125   9.851   8.217  0.1762 -0.3442  0.1677
  820MOL0     C10572  -0.167   9.972   8.173 -0.0315 -0.1956 -0.1657
  820MOL0     O10573  -0.309   9.983   8.199 -0.1584 -0.6669  0.3340
  820MOL0     C10574  -0.368  10.103   8.147 -0.5471  0.1910  0.0814
  820MOL0     C10575  -0.515  10.119   8.167  0.7872 -0.7240 -0.1040
  820MOL0     C10576  -0.553  10.142   8.319  0.1266  0.1826  0.4218
  820MOL0     C10577  -0.665  10.245   8.339 -0.1185 -0.6604  0.0098
  820MOL0     C10578  -0.794  10.184   8.266  0.3434  0.0338 -1.0203
  820MOL0     C10579  -0.912  10.289   8.281  0.5607 -0.6829  0.3121
  820MOL0     C10580  -0.938  10.337   8.430 -0.1787 -0.0077  0.0478
  820MOL0     C10581  -1.063  10.416   8.455  0.4038 -0.0652  0.7114
  820MOL0     N10582  -1.186  10.335   8.428  0.1468  0.0352  0.0723
  820MOL0     C10583  -1.295  10.374   8.360 -0.6501  0.2209 -0.1432
  820MOL0     C10584  -1.392  10.284   8.380  0.3599  0.5909 -0.2474
  820MOL0     C10585  -1.524  10.278   8.315 -0.6947 -0.8944  0.5770
  820MOL0     C10586  -1.641  10.311   8.403  0.1510 -0.3457 -0.9169
  820MOL0     C10587  -1.750  10.341   8.297 -0.2219  0.7845  0.2133
  820MOL0     C10588  -1.877  10.389   8.360  1.2285 -0.2847  0.7141
  820MOL0     O10589  -1.984  10.287   8.350  0.3185  0.3561  0.2107
  820MOL0     C10590  -2.115  10.324   8.373 -0.1050  0.6052  0.1071
  820MOL0     C10591  -2.152  10.443   8.431 -0.6982 -0.9524 -0.5166
  820MOL0     C10592  -2.288  10.476   8.455 -0.0329  0.0734  0.2022
  820MOL0     C10593  -2.311  10.606   8.523  0.2434  0.6649  1.0102
  820MOL0     C10594  -2.387  10.381   8.416  0.4409 -0.0375 -0.3547
  820MOL0     C10595  -2.535  10.407   8.435 -1.0968 -0.5960 -0.6335
  820MOL0     O10596  -2.568  10.535   8.449  1.0364 -0.1553 -0.0589
  820MOL0     C10597  -2.703  10.556   8.466  0.3526 -0.6684  0.7069
  820MOL0     C10598  -2.758  10.632   8.355  0.7117 -0.5237  0.8749
  820MOL0     C10599  -2.897  10.675   8.383 -0.4584  0.8052  0.2246
  820MOL0     C10600  -2.954  10.654   8.507  0.7650 -0.4553  0.6183
  820MOL0     O10601  -3.069  10.712   8.550 -1.0462 -0.2332  0.2852
  820MOL0     C10602  -3.151  10.796   8.463  0.0991 -0.7002 -0.2672
  820MOL0     C10603  -3.255  10.855   8.560 -0.7527 -0.5998  0.2569
  820MOL0     C10604  -3.380  10.890   8.484  0.2539  0.0377  0.2899
  820MOL0     C10605  -3.483  10.957   8.582  0.1922 -0.1377  0.0747
  820MOL0     C10606  -3.611  10.984   8.498 -0.2285  0.0664 -0.0902
  820MOL0     C10607  -3.694  10.858   8.477 -0.1208 -0.2127 -0.2515
  820MOL0     C10608  -3.740  10.781   8.600  0.4363 -0.7227 -0.6768
  820MOL0     C10609  -3.829  10.667   8.573 -0.7345  0.2558 -0.4587
  820MOL0    Cl10610  -3.786  10.590   8.411  0.2106 -0.5666  0.5270
  820MOL0     C10611  -2.889  10.592   8.603  0.1708  0.0628  1.1000
  820MOL0     C10612  -2.768  10.538   8.585  0.1356  0.4093 -0.0049
  820MOL0     O10613  -2.600  10.307   8.460  0.2496 -0.0827  0.1680
  820MOL0     C10614  -2.342  10.271   8.352  0.0170  0.7454  0.5045
  820MOL0     C10615  -2.206  10.240   8.320 -0.1859 -0.5035 -0.5186
  820MOL0     N10616  -1.330  10.176   8.440 -0.2248  1.2132  0.5356
  820MOL0     N10617  -1.210  10.215   8.484  0.2597 -0.4649 -0.5182
  820MOL0     C10618  -0.076  10.056   8.111  0.0291 -0.8966  0.1261
  820MOL0     C10619   0.060  10.022   8.091 -0.2671 -0.4986  0.1701
  820MOL0     C10620   0.414   9.747   8.017 -0.3187 -0.4068  0.4943
  820MOL0     C10621   0.452   9.630   7.952  0.2986 -0.2717 -0.3472
  820MOL0     C10622   0.593   9.604   7.953  0.0934  0.4649 -0.2159
  820MOL0     C10623   0.690   9.686   8.016 -0.3032 -0.3243  0.1590
  820MOL0     O10624   0.821   9.646   8.021 -0.7254  0.2911 -0.4408
  820MOL0     C10625   0.914   9.747   8.059  0.2121  0.0727  0.4573
  820MOL0     C10626   1.057   9.702   8.046  0.2954  0.4007 -0.1464
  820MOL0     C10627   1.163   9.803   8.057  0.1962  0.8820  0.0802
  820MOL0     C10628   1.301   9.728   8.051  0.3367  1.1529  0.6601
  820MOL0     C10629   1.411   9.825   8.068 -0.8571 -0.2495 -0.5309
  820MOL0     C10630   1.505   9.897   8.073  0.5390  1.2925  0.2199
  820MOL0     C10631   0.648   9.805   8.075  0.3810  0.4720 -0.6633
  820MOL0     C10632   0.510   9.836   8.070  0.8478 -0.3721 -0.0505
  820MOL0     H10633   0.048   9.715   8.215  0.9641  1.3752 -0.8058
  820MOL0     H10634  -0.187   9.802   8.292 -0.3431  0.0282 -0.0101
  820MOL0     H10635  -0.313  10.184   8.197 -0.8801  0.7969 -0.5170
  820MOL0     H10636  -0.351  10.108   8.039  1.6560  0.7961  0.3949
  820MOL0     H10637  -0.551  10.197   8.099 -0.6361 -0.9110  0.3952
  820MOL0     H10638  -0.557  10.028   8.123  0.1804 -0.2213 -0.5793
  820MOL0     H10639  -0.578  10.045   8.363 -1.6914  0.0791 -0.7182
  820MOL0     H10640  -0.460  10.178   8.364  1.7845 -0.3210 -2.3828
  820MOL0     H10641  -0.688  10.261   8.445  1.7545 -1.0588  0.5136
  820MOL0     H10642  -0.641  10.348   8.310 -0.5699 -0.7019 -0.5223
  820MOL0     H10643  -0.776  10.152   8.163 -0.9396  2.0264 -1.9046
  820MOL0     H10644  -0.835  10.097   8.319  1.0002 -1.0506 -2.2246
  820MOL0     H10645  -0.886  10.372   8.215  3.9514 -2.5249 -0.8887
  820MOL0     H10646  -1.007  10.246   8.247 -0.5702  1.1969  0.9500
  820MOL0     H10647  -0.947  10.248   8.493  0.3384 -0.9644 -1.1629
  820MOL0     H10648  -0.855  10.400   8.461 -0.1876  0.4460 -0.8207
  820MOL0     H10649  -1.071  10.496   8.380 -2.5156 -2.7677 -2.2322
  820MOL0     H10650  -1.069  10.452   8.558  4.2851 -0.6835  1.2874
  820MOL0     H10651  -1.309  10.466   8.304 -1.8372  0.2259  0.1429
  820MOL0     H10652  -1.518  10.348   8.231  1.3410  0.9433  2.1716
  820MOL0     H10653  -1.537  10.176   8.278 -0.2107 -0.9769  0.6250
  820MOL0     H10654  -1.611  10.394   8.468  0.2944 -1.3312  0.3102
  820MOL0     H10655  -1.666  10.229   8.470 -0.2343  2.6692  2.9541
  820MOL0     H10656  -1.781  10.248   8.249  0.7739 -1.4521  3.5276
  820MOL0     H10657  -1.714  10.425   8.236 -0.3515  2.4206  2.2785
  820MOL0     H10658  -1.915  10.480   8.313  0.2581 -0.3046  1.4251
  820MOL0     H10659  -1.866  10.426   8.463 -0.3765  1.8664  0.1799
  820MOL0     H10660  -2.084  10.518   8.470 -1.0473 -1.4639  1.1469
  820MOL0     H10661  -2.217  10.659   8.540 -0.1001  2.1443 -1.3108
  820MOL0     H10662  -2.377  10.669   8.462  1.0152 -0.3223 -0.9422
  820MOL0     H10663  -2.356  10.589   8.622  0.9189  0.8994  1.3571
  820MOL0     H10664  -2.695  10.645   8.267 -1.0511 -1.5292 -0.6096
  820MOL0     H10665  -2.952  10.724   8.303 -3.5441 -0.7377  1.2368
  820MOL0     H10666  -3.090  10.878   8.423 -1.2533  0.3260 -0.2848
  820MOL0     H10667  -3.186  10.728   8.386  1.2034 -0.1853 -1.2542
  820MOL0     H10668  -3.274  10.775   8.632  0.3167 -0.3402  0.8632
  820MOL0     H10669  -3.215  10.940   8.617  0.5300 -0.4380 -0.8347
  820MOL0     H10670  -3.418  10.792   8.451  1.9351 -1.5559  2.7376
  820MOL0     H10671  -3.357  10.966   8.409  0.3963  1.7262  1.9752
  820MOL0     H10672  -3.502  10.891   8.668  2.2894  0.7388  1.2999
  820MOL0     H10673  -3.446  11.050   8.626 -0.6909 -0.7236  2.2289
  820MOL0     H10674  -3.586  11.014   8.396 -1.2682  0.6624 -0.1874
  820MOL0     H10675  -3.665  11.067   8.545  0.5308  0.8059 -0.4936
  820MOL0     H10676  -3.784  10.896   8.428  0.5288  1.7149 -0.0484
  820MOL0     H10677  -3.640  10.782   8.420 -0.9148 -2.3528  1.6680
  820MOL0     H10678  -3.783  10.847   8.676 -2.7124 -2.2907 -0.9402
  820MOL0     H10679  -3.643  10.745   8.635  1.6806  1.6681 -1.4411
  820MOL0     H10680  -3.933  10.701   8.570 -0.0704  2.5456  0.3952
  820MOL0     H10681  -3.816  10.583   8.642 -2.8919  0.4217  0.2321
  820MOL0     H10682  -2.933  10.600   8.702 -0.8489 -0.0235  0.6639
  820MOL0     H10683  -2.725  10.492   8.673  1.9330 -2.1668 -2.0771
  820MOL0     H10684  -2.416  10.195   8.328  0.9855 -0.4033  1.0244
  820MOL0     H10685  -2.177  10.146   8.274  2.2338 -0.2370  0.3063
  820MOL0     H10686  -0.111  10.150   8.068 -0.5184 -0.4819  1.4143
  820MOL0     H10687   0.133  10.092   8.050 -0.7196  0.6060  1.1741
  820MOL0     H10688   0.377   9.562   7.913 -0.7059  0.4567  0.2715
  820MOL0     H10689   0.637   9.510   7.920  2.8894  2.6081 -3.1404
  820MOL0     H10690   0.899   9.839   8.003  1.7312 -1.7319 -3.2186
  820MOL0     H10691   0.899   9.766   8.166 -2.1418 -1.6401  0.5227
  820MOL0     H10692   1.084   9.650   7.953  0.5359  0.0738  0.1032
  820MOL0     H10693   1.069   9.634   8.130 -1.2940  1.1902  0.7494
  820MOL0     H10694   1.139   9.864   8.145 -3.1525  1.5048 -1.1118
  820MOL0     H10695   1.157   9.864   7.966  0.0202  3.0751  1.5019
  820MOL0     H10696   1.313   9.678   7.954 -1.5621  0.4553  0.7458
  820MOL0     H10697   1.302   9.651   8.128 -2.0269  0.8850  0.4824
  820MOL0     H10698   1.581   9.972   8.068  2.2412 -0.4562 -1.0943
  820MOL0     H10699   0.711   9.879   8.123  1.3790 -0.9949  0.3879
  820MOL0     H10700   0.472   9.932   8.103  0.7063  0.4706 -2.4517
  821MOL0     O10701   7.061   8.558   9.561 -1.2078 -0.3134 -0.2630
  821MOL0     C10702   7.090   8.572   9.681 -0.7686  0.5409  0.1089
  821MOL0     O10703   7.035   8.655   9.778  0.1798 -0.2123  0.8094
  821MOL0     C10704   6.930   8.737   9.747  0.3284  0.6166  0.0419
  821MOL0     C10705   6.834   8.742   9.641 -0.5606 -0.5381  0.3895
  821MOL0     C10706   6.734   8.837   9.633 -0.2457 -0.8580  0.0099
  821MOL0     C10707   6.714   8.926   9.741 -0.1416 -0.0537  0.3652
  821MOL0     O10708   6.607   9.011   9.739 -0.2901  0.1534 -0.0088
  821MOL0     C10709   6.638   9.152   9.718 -0.4224  0.3472 -0.4640
  821MOL0     C10710   6.557   9.243   9.812  0.7691 -0.4462  0.6681
  821MOL0     C10711   6.408   9.194   9.825 -0.3246 -0.1673 -0.9676
  821MOL0     C10712   6.323   9.211   9.693 -0.7685 -0.6189 -0.8822
  821MOL0     C10713   6.262   9.080   9.633  0.2759 -0.2885  0.1048
  821MOL0     C10714   6.156   9.090   9.519 -0.5745 -0.3488 -0.2516
  821MOL0     C10715   6.107   8.953   9.471  0.6656 -0.0506 -0.5784
  821MOL0     C10716   6.019   8.978   9.349 -0.0081 -0.1773 -0.2998
  821MOL0     N10717   5.883   8.981   9.390  0.4255 -0.8822  0.1425
  821MOL0     C10718   5.795   8.879   9.370  0.8122 -0.3017  0.1061
  821MOL0     C10719   5.676   8.931   9.383 -0.1035  0.7205  0.2741
  821MOL0     C10720   5.550   8.858   9.340 -0.3902 -0.0759 -0.3893
  821MOL0     C10721   5.545   8.711   9.384  0.2152 -0.2028 -0.2972
  821MOL0     C10722   5.448   8.626   9.308  0.6671  0.5555 -0.8690
  821MOL0     C10723   5.300   8.677   9.325  0.5537 -0.1607  0.2018
  821MOL0     O10724   5.212   8.623   9.216 -0.3332 -0.8923  0.1354
  821MOL0     C10725   5.107   8.544   9.237 -1.1198 -0.0327  1.0720
  821MOL0     C10726   5.091   8.459   9.344 -0.3099 -0.2587 -0.6002
  821MOL0     C10727   4.963   8.405   9.367  0.7173 -0.9714  0.5330
  821MOL0     C10728   4.950   8.322   9.491  0.8475 -0.5155  0.3428
  821MOL0     C10729   4.855   8.429   9.284 -0.0434 -0.1585 -0.0968
  821MOL0     C10730   4.720   8.381   9.312 -0.4346 -0.3270  0.9029
  821MOL0     O10731   4.616   8.460   9.278 -0.4182  0.3165 -0.1840
  821MOL0     C10732   4.491   8.413   9.296  0.5804  0.6447 -0.2131
  821MOL0     C10733   4.401   8.461   9.392  1.1932 -0.3327 -0.5420
  821MOL0     C10734   4.274   8.402   9.413  0.1693 -0.7380  0.0916
  821MOL0     C10735   4.227   8.298   9.328 -1.1362  0.2340  0.7256
  821MOL0     O10736   4.105   8.246   9.325  0.4341  0.6228 -0.1064
  821MOL0     C10737   4.000   8.311   9.404 -0.5844 -0.3479  1.3914
  821MOL0     C10738   3.872   8.248   9.352  0.0716 -0.0739  0.2075
  821MOL0     C10739   3.755   8.344   9.373  0.0307  0.5040 -0.4954
  821MOL0     C10740   3.623   8.294   9.320  0.2205  0.5028 -0.3243
  821MOL0     C10741   3.511   8.399   9.322  0.2852 -0.2330  0.1006
  821MOL0     C10742   3.374   8.352   9.263 -0.5668  0.2584  0.7521
  821MOL0     C10743   3.309   8.254   9.356 -0.1431 -0.4643 -0.6613
  821MOL0     C10744   3.222   8.145   9.291  0.2963  0.5361 -1.0623
  821MOL0    Cl10745   3.356   8.033   9.249  0.0701  0.2211  0.2090
  821MOL0     C10746   4.312   8.263   9.222  0.4407  0.3891 -0.8789
  821MOL0     C10747   4.440   8.313   9.212 -0.8172  1.0279  0.1206
  821MOL0     O10748   4.710   8.266   9.362  0.2626 -1.1946  0.0310
  821MOL0     C10749   4.880   8.501   9.168 -0.4381  0.3735 -0.7778
  821MOL0     C10750   5.000   8.563   9.149 -0.2465 -1.2915  0.0907
  821MOL0     N10751   5.698   9.062   9.428  0.1415  0.6027 -0.2148
  821MOL0     N10752   5.820   9.094   9.433  0.8242 -0.2734 -0.5258
  821MOL0     C10753   6.798   8.921   9.846 -0.5808  1.0322  0.6994
  821MOL0     C10754   6.900   8.826   9.850 -0.4363 -1.0322 -0.2174
  821MOL0     C10755   7.198   8.480   9.733 -0.3154 -0.1870  1.0044
  821MOL0     C10756   7.260   8.512   9.859 -0.3910 -0.0539  0.2331
  821MOL0     C10757   7.350   8.424   9.912 -0.6789 -0.6119  0.5952
  821MOL0     C10758   7.397   8.320   9.837 -0.3760 -0.1314 -0.1427
  821MOL0     O10759   7.507   8.241   9.873 -0.1001 -0.5179 -0.1070
  821MOL0     C10760   7.593   8.287   9.983 -0.0702  0.3243  0.2158
  821MOL0     C10761   7.705   8.182  10.014  0.2070  0.7477 -0.3576
  821MOL0     C10762   7.785   8.210  10.147 -0.0978 -0.6066  1.0013
  821MOL0     C10763   7.899   8.104  10.158  0.9111 -0.7957  0.9968
  821MOL0     C10764   7.971   8.113  10.279  0.3797 -0.8432 -0.6349
  821MOL0     C10765   8.026   8.094  10.384  0.5814  0.0230 -0.8155
  821MOL0     C10766   7.333   8.283   9.716 -0.2199  0.5037 -0.7901
  821MOL0     C10767   7.231   8.358   9.672 -0.0119 -0.5687  0.1662
  821MOL0     H10768   6.845   8.671   9.560  0.8729  1.6989 -1.5024
  821MOL0     H10769   6.679   8.854   9.541  0.7238  2.8872 -0.0462
  821MOL0     H10770   6.741   9.180   9.740  0.4445 -2.5305 -0.3803
  821MOL0     H10771   6.612   9.183   9.616 -1.2756 -3.3435 -1.5215
  821MOL0     H10772   6.604   9.247   9.911  0.1992 -0.4647  0.9415
  821MOL0     H10773   6.550   9.341   9.765 -1.7179 -1.6628 -1.7453
  821MOL0     H10774   6.415   9.096   9.872 -2.7427  1.4014  3.1862
  821MOL0     H10775   6.354   9.249   9.902  1.7126  0.1470  0.3053
  821MOL0     H10776   6.235   9.272   9.714  0.9010  0.8878  2.5170
  821MOL0     H10777   6.384   9.262   9.618 -0.2317  0.1407  0.0513
  821MOL0     H10778   6.347   9.013   9.620  0.5042 -0.0508  0.3670
  821MOL0     H10779   6.207   9.024   9.710  1.0245  1.2090  1.8024
  821MOL0     H10780   6.074   9.156   9.551 -1.2934 -0.2916 -2.0766
  821MOL0     H10781   6.199   9.140   9.432 -3.7497  2.4392 -0.4339
  821MOL0     H10782   6.201   8.906   9.438  0.3481 -1.6793  0.7622
  821MOL0     H10783   6.051   8.898   9.547 -0.2291 -0.5447 -1.5632
  821MOL0     H10784   6.030   8.904   9.269  0.8413  0.4850 -0.8143
  821MOL0     H10785   6.036   9.073   9.299 -2.5017  0.4485 -0.0836
  821MOL0     H10786   5.812   8.781   9.325 -1.7648 -0.1618 -1.3645
  821MOL0     H10787   5.468   8.915   9.385 -0.6263  0.3546 -1.3437
  821MOL0     H10788   5.536   8.866   9.232 -1.9715  0.5106 -0.1665
  821MOL0     H10789   5.527   8.703   9.491  3.3542 -0.3510  0.3032
  821MOL0     H10790   5.639   8.657   9.369  0.9061  1.2819 -1.7171
  821MOL0     H10791   5.455   8.521   9.338  2.6293  0.2878 -2.1036
  821MOL0     H10792   5.467   8.633   9.201 -0.6452 -1.8390 -1.3281
  821MOL0     H10793   5.309   8.786   9.322  0.1441 -0.1063  0.9680
  821MOL0     H10794   5.258   8.663   9.424  0.9483 -0.4818  0.3282
  821MOL0     H10795   5.180   8.440   9.404 -0.6823  0.3711  0.1867
  821MOL0     H10796   4.870   8.378   9.539 -0.1241  0.2344 -1.9730
  821MOL0     H10797   4.905   8.223   9.485 -0.7788  0.2081 -0.0099
  821MOL0     H10798   5.049   8.318   9.538  0.0920 -0.1167  2.0308
  821MOL0     H10799   4.449   8.530   9.461  1.6211  0.7973 -1.9176
  821MOL0     H10800   4.223   8.444   9.499  2.3545  0.7586  0.7567
  821MOL0     H10801   4.017   8.280   9.508 -1.8527 -2.2376  1.0782
  821MOL0     H10802   3.990   8.417   9.382 -0.7540 -0.5607  0.4099
  821MOL0     H10803   3.867   8.229   9.245 -0.4069  0.2440  0.1681
  821MOL0     H10804   3.865   8.151   9.404 -0.7428 -0.2890 -0.2724
  821MOL0     H10805   3.790   8.435   9.323 -0.5115 -1.4130 -4.7391
  821MOL0     H10806   3.737   8.343   9.481 -1.4489  0.4701 -0.7227
  821MOL0     H10807   3.630   8.270   9.214 -1.4667  0.3315 -0.4245
  821MOL0     H10808   3.594   8.204   9.374 -1.0935  0.1990 -1.4866
  821MOL0     H10809   3.549   8.483   9.263  0.0105  0.6256  1.1080
  821MOL0     H10810   3.492   8.426   9.427 -2.6815 -0.6765 -0.2359
  821MOL0     H10811   3.299   8.431   9.247 -0.7623 -0.0450  0.1022
  821MOL0     H10812   3.395   8.311   9.164  1.8627 -0.2815  1.4397
  821MOL0     H10813   3.235   8.312   9.411  1.5385  1.3286 -0.1936
  821MOL0     H10814   3.380   8.200   9.420  1.1067 -0.2783 -1.8555
  821MOL0     H10815   3.174   8.176   9.198 -1.1258  3.9446  0.6251
  821MOL0     H10816   3.147   8.094   9.352  3.4967 -2.3754  0.7695
  821MOL0     H10817   4.276   8.188   9.152 -2.1697  1.8089 -1.1862
  821MOL0     H10818   4.510   8.278   9.136 -2.4415 -2.5604  0.0725
  821MOL0     H10819   4.800   8.521   9.098  0.5914  1.3868 -1.6966
  821MOL0     H10820   5.018   8.623   9.060  1.0123  0.4684  1.4431
  821MOL0     H10821   6.770   8.971   9.938 -0.4839  2.5902 -0.1008
  821MOL0     H10822   6.947   8.814   9.947  1.9236  1.6288 -0.8922
  821MOL0     H10823   7.262   8.611   9.902  2.8969 -0.4267  1.1708
  821MOL0     H10824   7.404   8.459   9.999 -1.0644 -0.3497  0.7324
  821MOL0     H10825   7.643   8.382   9.962  1.6810  0.4835  4.1663
  821MOL0     H10826   7.540   8.307  10.076  0.3455 -1.9675  0.9925
  821MOL0     H10827   7.765   8.189   9.923  2.1473  2.6079  0.9773
  821MOL0     H10828   7.661   8.082  10.018  1.9535 -0.0353  0.1692
  821MOL0     H10829   7.722   8.212  10.237  1.5432  1.7646  2.1928
  821MOL0     H10830   7.832   8.308  10.142 -3.1818  0.9528 -1.9037
  821MOL0     H10831   7.969   8.097  10.074  0.8899  0.2966  0.8755
  821MOL0     H10832   7.855   8.004  10.152  2.2113 -1.3667  0.5973
  821MOL0     H10833   8.081   8.081  10.475  2.4002  0.4156 -1.8143
  821MOL0     H10834   7.350   8.184   9.674 -1.4700  0.0161 -0.1946
  821MOL0     H10835   7.174   8.329   9.584 -0.4717  1.6717 -0.3424
  822MOL0     O10836   4.068   4.819   8.482  0.2440  0.3726 -0.3485
  822MOL0     C10837   4.156   4.844   8.391  0.2177  0.2319 -0.7093
  822MOL0     O10838   4.140   4.924   8.283 -0.1609  0.3320 -0.3486
  822MOL0     C10839   4.014   4.979   8.269  0.2593  1.1814 -0.0124
  822MOL0     C10840   3.959   5.081   8.353 -0.1376 -0.0924  0.4841
  822MOL0     C10841   3.831   5.131   8.340  0.4264  0.0375  1.1856
  822MOL0     C10842   3.749   5.096   8.236  0.3470 -0.4721 -0.0344
  822MOL0     O10843   3.623   5.153   8.218 -0.3297 -0.2510  0.0888
  822MOL0     C10844   3.571   5.153   8.089  0.3327  0.0180  0.4302
  822MOL0     C10845   3.433   5.214   8.100 -0.5099 -1.3641 -0.6604
  822MOL0     C10846   3.326   5.109   8.152  0.6894 -0.0538  0.3141
  822MOL0     C10847   3.196   5.187   8.175  0.6751  0.4853 -0.1310
  822MOL0     C10848   3.073   5.098   8.170 -0.3985  0.1325 -0.0263
  822MOL0     C10849   3.081   4.983   8.273 -0.5448 -0.1277  0.5338
  822MOL0     C10850   2.956   4.901   8.309 -0.7891  0.3355 -0.1804
  822MOL0     C10851   2.839   5.002   8.351  0.4657  0.6318 -0.0232
  822MOL0     N10852   2.736   4.933   8.419  0.1048  0.5249  0.2780
  822MOL0     C10853   2.661   4.828   8.370  0.1441 -0.0676  0.0061
  822MOL0     C10854   2.590   4.791   8.477  0.6944  0.1007  0.1420
  822MOL0     C10855   2.490   4.671   8.468  0.6077  0.2006  0.5562
  822MOL0     C10856   2.342   4.704   8.492 -0.7781 -0.4807 -0.3502
  822MOL0     C10857   2.252   4.580   8.479 -0.5582 -0.8809  0.5216
  822MOL0     C10858   2.101   4.627   8.470  0.0274  0.1933  0.2354
  822MOL0     O10859   2.026   4.528   8.538 -0.7200  0.6887 -0.7072
  822MOL0     C10860   1.892   4.549   8.572 -0.7692  0.2036  0.0289
  822MOL0     C10861   1.806   4.435   8.573  0.8166  0.6020 -0.6858
  822MOL0     C10862   1.669   4.450   8.592 -0.9291  0.8731  0.0405
  822MOL0     C10863   1.579   4.328   8.600  0.0670  1.3573 -0.5288
  822MOL0     C10864   1.617   4.581   8.618 -0.3690  0.5388  0.4128
  822MOL0     C10865   1.471   4.611   8.618  1.0540 -0.6255 -0.0726
  822MOL0     O10866   1.400   4.540   8.522 -0.2265 -0.7632 -0.4063
  822MOL0     C10867   1.260   4.561   8.502  0.1617 -0.1363  0.1513
  822MOL0     C10868   1.211   4.634   8.390 -0.5396  0.1910  0.1670
  822MOL0     C10869   1.071   4.645   8.368  0.2341  0.1607  0.4441
  822MOL0     C10870   0.979   4.591   8.459  0.9112 -0.3763 -0.3040
  822MOL0     O10871   0.849   4.615   8.429  0.2885  0.0678  0.2767
  822MOL0     C10872   0.778   4.706   8.511 -0.1469 -0.3982 -1.0688
  822MOL0     C10873   0.760   4.840   8.435  0.3996 -0.1090  0.2109
  822MOL0     C10874   0.893   4.919   8.419  0.0100  0.3097 -0.0899
  822MOL0     C10875   0.867   5.073   8.404  0.4660 -0.0006  0.1702
  822MOL0     C10876   0.987   5.167   8.375  0.6921  0.5756  0.3130
  822MOL0     C10877   1.050   5.132   8.239  0.5076  0.1746 -0.2187
  822MOL0     C10878   1.182   5.051   8.262  0.0888 -0.1364  0.0467
  822MOL0     C10879   1.241   5.024   8.125  0.1202  0.3822 -0.3551
  822MOL0    Cl10880   1.381   4.929   8.140 -0.0150  0.1915 -0.0199
  822MOL0     C10881   1.030   4.513   8.561 -0.8073 -0.2161 -0.1024
  822MOL0     C10882   1.167   4.502   8.590 -0.1136 -0.1219  0.3202
  822MOL0     O10883   1.420   4.699   8.682 -0.9202  0.0531 -0.9336
  822MOL0     C10884   1.713   4.684   8.640  0.1382 -0.3845 -0.2602
  822MOL0     C10885   1.848   4.674   8.597  0.0736  0.4612 -0.5668
  822MOL0     N10886   2.616   4.864   8.590 -0.3237  0.0059 -0.0421
  822MOL0     N10887   2.713   4.949   8.549  0.1965 -0.0676 -0.9013
  822MOL0     C10888   3.797   4.987   8.154 -0.0150 -0.9980 -0.0211
  822MOL0     C10889   3.924   4.926   8.172 -0.4921 -0.5301 -0.6138
  822MOL0     C10890   4.285   4.788   8.418  0.4818 -0.5288 -0.1229
  822MOL0     C10891   4.305   4.701   8.524  0.0965  0.0041 -0.1483
  822MOL0     C10892   4.427   4.636   8.533 -1.0049  0.3792  0.4489
  822MOL0     C10893   4.536   4.655   8.443  0.3225  0.6966 -0.1408
  822MOL0     O10894   4.658   4.590   8.436  0.6881  0.2237 -0.2195
  822MOL0     C10895   4.668   4.456   8.492  0.1102 -0.0930  0.4020
  822MOL0     C10896   4.791   4.387   8.426 -0.0272 -0.7083 -0.3398
  822MOL0     C10897   4.917   4.456   8.469 -0.1422 -0.3330 -0.7003
  822MOL0     C10898   4.976   4.415   8.607 -0.0843  0.2872  0.1289
  822MOL0     C10899   5.124   4.435   8.601  0.4410 -0.2048  0.2880
  822MOL0     C10900   5.243   4.431   8.596  0.1057  0.6571 -0.0153
  822MOL0     C10901   4.513   4.756   8.351  0.7255 -0.6020  0.7863
  822MOL0     C10902   4.385   4.822   8.331 -0.1923 -0.3034  0.5396
  822MOL0     H10903   4.035   5.106   8.427 -0.7418  1.9605  0.4528
  822MOL0     H10904   3.789   5.190   8.421 -3.8229  0.8822 -1.3534
  822MOL0     H10905   3.629   5.216   8.021 -0.3135  0.8768  0.6492
  822MOL0     H10906   3.563   5.047   8.065 -1.5941 -0.6012  3.2803
  822MOL0     H10907   3.428   5.288   8.181  0.5447 -2.7990  0.7905
  822MOL0     H10908   3.390   5.262   8.011 -1.3633 -0.0016  0.4380
  822MOL0     H10909   3.311   5.034   8.074  1.3411  2.9470 -2.9529
  822MOL0     H10910   3.359   5.062   8.244  1.9882  2.4169  1.2015
  822MOL0     H10911   3.207   5.243   8.268 -0.8923  0.1558  0.2885
  822MOL0     H10912   3.180   5.262   8.098 -3.2905  1.4370  1.3725
  822MOL0     H10913   2.984   5.161   8.179  0.1601  0.9895 -0.4215
  822MOL0     H10914   3.048   5.052   8.074 -0.6530  1.1985 -0.4878
  822MOL0     H10915   3.151   4.908   8.236 -0.6578  0.3717 -0.7236
  822MOL0     H10916   3.126   5.032   8.361 -0.8936  0.6676  0.2814
  822MOL0     H10917   2.932   4.832   8.228  4.1520 -1.5131 -0.3896
  822MOL0     H10918   2.980   4.841   8.398  0.9778  1.5783  0.2408
  822MOL0     H10919   2.806   5.065   8.268  1.7071  1.7231  0.2826
  822MOL0     H10920   2.887   5.078   8.412  0.8244  0.7925 -0.4950
  822MOL0     H10921   2.659   4.794   8.266  1.1823  1.9538 -0.7403
  822MOL0     H10922   2.510   4.613   8.377  1.6631 -1.6918  1.9127
  822MOL0     H10923   2.514   4.596   8.545  0.0645 -2.4547 -1.6960
  822MOL0     H10924   2.307   4.765   8.407  0.8752 -1.3990 -1.7534
  822MOL0     H10925   2.328   4.763   8.583  2.5768 -0.0243 -0.0226
  822MOL0     H10926   2.273   4.526   8.572  1.8321  2.8901  2.4373
  822MOL0     H10927   2.279   4.515   8.395  2.5879  2.3094 -1.2123
  822MOL0     H10928   2.073   4.649   8.367 -0.5096 -0.9237  0.1245
  822MOL0     H10929   2.089   4.725   8.516  0.2148  0.1239  0.4345
  822MOL0     H10930   1.839   4.332   8.563 -2.6633 -0.6834 -0.4965
  822MOL0     H10931   1.634   4.238   8.629 -1.1362  0.0530 -2.0809
  822MOL0     H10932   1.500   4.338   8.674 -0.9492 -1.0299 -1.2075
  822MOL0     H10933   1.534   4.301   8.504 -0.2233 -4.3368  0.8750
  822MOL0     H10934   1.284   4.669   8.317  1.6666 -4.0842  0.0120
  822MOL0     H10935   1.047   4.692   8.273  3.0179 -0.4747 -0.6494
  822MOL0     H10936   0.680   4.664   8.533  1.0890 -1.0715  4.8346
  822MOL0     H10937   0.823   4.713   8.610 -0.3160 -3.1724 -0.7166
  822MOL0     H10938   0.722   4.817   8.336  0.7935 -0.0634  0.0460
  822MOL0     H10939   0.682   4.897   8.486 -1.3204 -0.2699 -2.1141
  822MOL0     H10940   0.948   4.881   8.332 -1.4698 -0.2490 -0.8059
  822MOL0     H10941   0.953   4.909   8.511  0.5751 -0.2807 -0.5107
  822MOL0     H10942   0.799   5.082   8.319 -0.8656  0.5934  1.2579
  822MOL0     H10943   0.811   5.118   8.487 -1.7897 -1.1662 -0.6378
  822MOL0     H10944   1.053   5.144   8.459 -0.7717 -1.2261  1.0649
  822MOL0     H10945   0.951   5.270   8.378  2.3888  1.2150  0.0246
  822MOL0     H10946   0.977   5.066   8.192 -1.2045  0.4102  1.9423
  822MOL0     H10947   1.067   5.225   8.183  3.1128 -0.4256 -0.5579
  822MOL0     H10948   1.153   4.959   8.314 -1.5434  1.9028  3.0459
  822MOL0     H10949   1.251   5.109   8.324  0.1714  1.1617 -1.2078
  822MOL0     H10950   1.284   5.119   8.094  1.0767  0.6875  1.7136
  822MOL0     H10951   1.170   4.993   8.048 -0.0759 -0.9541  0.3121
  822MOL0     H10952   0.957   4.472   8.631 -1.6694  3.6202  1.5351
  822MOL0     H10953   1.198   4.436   8.670  0.1289  0.0038  0.3266
  822MOL0     H10954   1.684   4.785   8.664  1.1103  0.0520 -0.8327
  822MOL0     H10955   1.907   4.764   8.607 -0.3254  0.4621  2.9789
  822MOL0     H10956   3.747   4.957   8.063 -0.8054 -0.6469  0.2927
  822MOL0     H10957   3.950   4.854   8.095  0.8847 -0.4158 -0.2864
  822MOL0     H10958   4.232   4.675   8.601  1.9101 -0.7723  1.3925
  822MOL0     H10959   4.442   4.560   8.610 -0.4501 -1.7048 -1.5965
  822MOL0     H10960   4.665   4.452   8.601 -1.1232  0.5662  0.4115
  822MOL0     H10961   4.581   4.396   8.465  0.2732 -0.1738  0.0456
  822MOL0     H10962   4.783   4.398   8.317  1.3480 -1.3682 -0.5266
  822MOL0     H10963   4.795   4.280   8.450 -3.1953 -0.8323  0.1361
  822MOL0     H10964   4.907   4.562   8.444  0.8450  0.0869  0.5759
  822MOL0     H10965   4.995   4.430   8.396 -0.7509  1.4386 -2.0463
  822MOL0     H10966   4.968   4.311   8.641 -3.5115  0.8151  1.2763
  822MOL0     H10967   4.935   4.476   8.687  1.6544  1.4154  0.2130
  822MOL0     H10968   5.350   4.427   8.607 -0.0826  0.0838  2.0209
  822MOL0     H10969   4.596   4.764   8.282  1.2402 -2.9902  1.0349
  822MOL0     H10970   4.364   4.883   8.244  1.1312 -1.0245 -0.3240
  823MOL0     O10971   1.753  10.674   6.062  0.3046 -0.2426  0.4496
  823MOL0     C10972   1.795  10.759   6.139 -0.6047  0.1262 -0.1964
  823MOL0     O10973   1.721  10.848   6.219 -0.9380 -0.8952  0.3337
  823MOL0     C10974   1.584  10.845   6.200 -0.1842 -0.6768 -0.0038
  823MOL0     C10975   1.500  10.772   6.283 -0.7956 -0.1048 -0.2580
  823MOL0     C10976   1.365  10.782   6.263 -0.0723 -0.0806  0.1053
  823MOL0     C10977   1.307  10.869   6.166 -0.4598  0.9637  0.1615
  823MOL0     O10978   1.175  10.849   6.142 -0.5612 -0.1636 -0.5292
  823MOL0     C10979   1.094  10.965   6.153 -0.1577 -0.2358  0.2780
  823MOL0     C10980   0.955  10.938   6.106  0.4574 -0.0908 -0.0976
  823MOL0     C10981   0.890  10.828   6.191  0.2098 -0.7627  0.3764
  823MOL0     C10982   0.744  10.808   6.182 -1.1509  0.6148 -0.1122
  823MOL0     C10983   0.705  10.716   6.290 -1.0298  0.0585 -0.0794
  823MOL0     C10984   0.554  10.677   6.272 -0.0803  0.0213 -0.1062
  823MOL0     C10985   0.533  10.564   6.369  0.0891 -0.2598  0.5211
  823MOL0     C10986   0.381  10.544   6.399  0.1242  0.1227 -0.5550
  823MOL0     N10987   0.359  10.435   6.501  0.4713 -1.6361  0.2268
  823MOL0     C10988   0.428  10.321   6.511  0.6604 -0.2942  0.8507
  823MOL0     C10989   0.394  10.256   6.620 -0.3627  0.2670 -0.6072
  823MOL0     C10990   0.429  10.112   6.653 -1.0878  0.4369  1.1218
  823MOL0     C10991   0.576  10.078   6.640 -0.0922  0.3076 -0.4725
  823MOL0     C10992   0.640  10.112   6.784  0.1535  0.7506 -0.2901
  823MOL0     C10993   0.794  10.089   6.786  0.1974  0.1300  0.3367
  823MOL0     O10994   0.830   9.952   6.793 -0.0026  0.4699 -1.0769
  823MOL0     C10995   0.955   9.912   6.755 -0.4581 -0.5854 -0.5309
  823MOL0     C10996   0.968   9.778   6.742 -1.0959  0.3935 -0.4347
  823MOL0     C10997   1.097   9.716   6.737 -0.8900 -0.4046  0.1380
  823MOL0     C10998   1.107   9.568   6.746 -0.2440  0.7206 -0.3690
  823MOL0     C10999   1.215   9.799   6.728 -0.4884 -0.1450  0.2113
  823MOL0     C11000   1.355   9.755   6.710 -0.3936 -0.4776  0.7309
  823MOL0     O11001   1.448   9.785   6.813 -0.4808 -0.4743  0.2824
  823MOL0     C11002   1.576   9.732   6.814 -0.4773  0.0101  0.7044
  823MOL0     C11003   1.623   9.679   6.935 -0.8085  0.0639  0.2505
  823MOL0     C11004   1.753   9.625   6.941  0.1148 -0.4988  0.9006
  823MOL0     C11005   1.834   9.620   6.820  0.2309  1.0769  0.1032
  823MOL0     O11006   1.963   9.577   6.832  0.0664 -0.3825  0.4163
  823MOL0     C11007   1.997   9.460   6.906  0.6675  1.1645  0.2339
  823MOL0     C11008   2.128   9.407   6.854 -0.4875  1.2362  0.0323
  823MOL0     C11009   2.230   9.370   6.967 -0.3091 -0.0396  0.4017
  823MOL0     C11010   2.326   9.250   6.933 -0.4548  0.4291  0.0039
  823MOL0     C11011   2.409   9.292   6.801 -0.0637  0.3967 -0.6534
  823MOL0     C11012   2.548   9.224   6.795  0.2902  0.0028 -0.3086
  823MOL0     C11013   2.623   9.247   6.664 -0.8433 -0.4274 -0.5160
  823MOL0     C11014   2.765   9.173   6.682  0.3669 -0.0732 -0.3121
  823MOL0    Cl11015   2.869   9.214   6.537  0.0710 -0.0993  0.2785
  823MOL0     C11016   1.784   9.660   6.697  0.1382 -0.1536 -0.2525
  823MOL0     C11017   1.659   9.720   6.695 -0.0978 -0.5422 -0.2480
  823MOL0     O11018   1.380   9.670   6.621 -0.1768  0.2328 -0.1070
  823MOL0     C11019   1.200   9.936   6.724  0.8431  0.4073  0.1100
  823MOL0     C11020   1.071   9.994   6.740 -0.6054 -0.7161  0.4721
  823MOL0     N11021   0.322  10.337   6.697  0.0536  0.6216  0.5798
  823MOL0     N11022   0.296  10.441   6.624  0.0315  0.3996  0.2159
  823MOL0     C11023   1.393  10.941   6.091 -0.8922  0.1311  0.0602
  823MOL0     C11024   1.531  10.926   6.098 -0.0943  0.5630  0.0546
  823MOL0     C11025   1.939  10.756   6.151  0.0929  0.1342  0.3992
  823MOL0     C11026   1.999  10.796   6.275  0.1237 -0.1215  0.2155
  823MOL0     C11027   2.137  10.770   6.297  0.3807 -1.4420  0.0590
  823MOL0     C11028   2.216  10.720   6.189 -0.2617 -0.2165 -0.4631
  823MOL0     O11029   2.358  10.704   6.198 -0.2173  0.2232 -0.4344
  823MOL0     C11030   2.420  10.724   6.329 -0.2716 -0.9380 -0.1905
  823MOL0     C11031   2.475  10.867   6.348 -0.3500  0.7457 -0.1585
  823MOL0     C11032   2.544  10.871   6.487  0.3816  0.0083  0.1121
  823MOL0     C11033   2.457  10.862   6.610 -0.1434 -0.7022 -0.2662
  823MOL0     C11034   2.390  10.993   6.605 -0.8439 -0.6861 -0.2796
  823MOL0     C11035   2.332  11.103   6.595  0.4469 -1.2688  0.0024
  823MOL0     C11036   2.154  10.676   6.073 -1.0272 -0.4015 -0.0563
  823MOL0     C11037   2.017  10.700   6.050 -0.4829 -0.0281  0.3863
  823MOL0     H11038   1.542  10.712   6.363  1.0748  1.0973 -0.2659
  823MOL0     H11039   1.294  10.715   6.308 -0.6871  0.3201 -0.2525
  823MOL0     H11040   1.092  10.989   6.260  0.8098  0.6546  0.1146
  823MOL0     H11041   1.125  11.052   6.094  0.0973 -0.8865 -0.5597
  823MOL0     H11042   0.898  11.029   6.123 -0.4852 -0.8053  0.6424
  823MOL0     H11043   0.944  10.925   5.997  0.6584  0.8694 -0.2357
  823MOL0     H11044   0.929  10.727   6.173 -2.5413 -2.0837  1.3570
  823MOL0     H11045   0.912  10.849   6.297 -2.3184  0.0068  0.7977
  823MOL0     H11046   0.702  10.908   6.193  0.3870  1.0328  2.7205
  823MOL0     H11047   0.717  10.767   6.084  1.5585 -3.4730  0.6084
  823MOL0     H11048   0.765  10.626   6.273  1.0728  1.2528  0.6337
  823MOL0     H11049   0.730  10.760   6.386 -0.3465  0.3390 -0.3816
  823MOL0     H11050   0.495  10.760   6.312  0.3767  0.5673 -0.5348
  823MOL0     H11051   0.514  10.668   6.171  0.7068  2.9279 -0.7715
  823MOL0     H11052   0.557  10.472   6.315  0.9426  0.3179 -0.0984
  823MOL0     H11053   0.581  10.575   6.466  2.4686  0.6389 -0.6959
  823MOL0     H11054   0.331  10.503   6.311 -0.3830  0.2302 -0.3237
  823MOL0     H11055   0.317  10.630   6.421 -0.2054 -0.4850  1.0390
  823MOL0     H11056   0.487  10.266   6.438 -0.3569  1.5064 -1.4742
  823MOL0     H11057   0.378  10.092   6.748 -3.8906  1.9979  0.0551
  823MOL0     H11058   0.381  10.037   6.589  1.7133 -0.4404 -0.0974
  823MOL0     H11059   0.623  10.126   6.554  3.5449 -3.8346 -1.1596
  823MOL0     H11060   0.584   9.974   6.607 -0.4604  1.1905 -3.6603
  823MOL0     H11061   0.588  10.050   6.858  2.3440 -1.4203 -0.4387
  823MOL0     H11062   0.620  10.216   6.809  1.9954  0.6284  2.0457
  823MOL0     H11063   0.833  10.152   6.866  1.9553 -0.0602 -0.3291
  823MOL0     H11064   0.821  10.120   6.684 -0.2418 -0.5081  0.0223
  823MOL0     H11065   0.885   9.709   6.752  0.2523 -1.3394 -0.7506
  823MOL0     H11066   1.040   9.535   6.825  1.0504  0.1717  0.5429
  823MOL0     H11067   1.074   9.529   6.650  0.6349 -4.7255  1.2114
  823MOL0     H11068   1.202   9.519   6.768 -2.2112 -3.0029  0.5988
  823MOL0     H11069   1.576   9.693   7.032  3.1608  3.6599  2.0028
  823MOL0     H11070   1.783   9.598   7.041 -1.4334  2.7506  2.3977
  823MOL0     H11071   2.014   9.488   7.011 -0.9872  0.0150  0.8504
  823MOL0     H11072   1.923   9.380   6.904  2.1078 -0.2156 -0.4844
  823MOL0     H11073   2.115   9.326   6.782  2.3533 -1.1974  2.0363
  823MOL0     H11074   2.179   9.487   6.798 -0.4004  1.5343  0.5288
  823MOL0     H11075   2.164   9.336   7.047 -2.0202  0.3909 -0.7812
  823MOL0     H11076   2.277   9.460   7.006  0.2779 -0.1895  0.0517
  823MOL0     H11077   2.404   9.230   7.007  0.1732  0.5703 -0.6124
  823MOL0     H11078   2.279   9.152   6.921  1.7017 -0.5612 -0.9061
  823MOL0     H11079   2.408   9.401   6.796 -1.0391  0.4324  0.0477
  823MOL0     H11080   2.351   9.259   6.714 -0.4143 -0.0115 -0.2745
  823MOL0     H11081   2.614   9.266   6.871  1.3956  1.3498 -1.9214
  823MOL0     H11082   2.528   9.117   6.804 -2.5526  0.2848 -2.1868
  823MOL0     H11083   2.639   9.352   6.634  0.4032 -0.2206  0.7599
  823MOL0     H11084   2.564   9.194   6.589  0.4305 -0.2819 -1.6521
  823MOL0     H11085   2.752   9.065   6.676 -0.6020  0.1137 -2.8183
  823MOL0     H11086   2.810   9.192   6.780 -0.6576 -0.1595  0.1935
  823MOL0     H11087   1.851   9.651   6.613  1.6244  2.9714  0.4543
  823MOL0     H11088   1.626   9.768   6.604  1.3724 -0.2038 -0.6282
  823MOL0     H11089   1.281  10.007   6.715  1.8729 -0.5871  1.1868
  823MOL0     H11090   1.062  10.102   6.737  0.9983 -0.5339 -3.0366
  823MOL0     H11091   1.363  11.008   6.011 -1.4334  1.3290  1.2158
  823MOL0     H11092   1.594  10.986   6.033  1.8077 -0.6947  0.6255
  823MOL0     H11093   1.942  10.834   6.359 -2.3371  1.1849 -1.9140
  823MOL0     H11094   2.190  10.798   6.387 -1.7350 -3.4107  2.0509
  823MOL0     H11095   2.365  10.686   6.415 -0.8796 -1.4966 -0.8136
  823MOL0     H11096   2.515  10.669   6.332  0.8714  0.9330 -0.0664
  823MOL0     H11097   2.400  10.946   6.340  1.6558  2.5864 -2.4576
  823MOL0     H11098   2.550  10.888   6.271 -0.8133 -1.6526 -1.3745
  823MOL0     H11099   2.603  10.962   6.499 -0.6964  0.6283  0.9966
  823MOL0     H11100   2.613  10.788   6.500 -0.8511 -0.7039  2.7885
  823MOL0     H11101   2.509  10.844   6.704 -0.1804  0.6262  0.0304
  823MOL0     H11102   2.378  10.790   6.588 -0.5162 -0.0243 -1.2429
  823MOL0     H11103   2.272  11.192   6.597  0.3459 -1.3270 -0.3573
  823MOL0     H11104   2.211  10.633   5.992 -0.7707 -0.4073  0.1266
  823MOL0     H11105   1.984  10.669   5.952 -1.5890 -2.0438  1.3433
  824MOL0     O11106   3.080   4.339   6.107  0.1512  0.0352 -0.7717
  824MOL0     C11107   3.128   4.445   6.096 -0.4931 -0.9428 -0.6664
  824MOL0     O11108   3.065   4.559   6.040 -0.7257  0.0247  0.6282
  824MOL0     C11109   2.930   4.570   6.059  0.4265  0.5564 -0.3143
  824MOL0     C11110   2.854   4.615   5.952 -0.3289 -0.1059  0.8651
  824MOL0     C11111   2.719   4.602   5.943 -1.1185  0.3327 -0.1417
  824MOL0     C11112   2.644   4.548   6.045 -0.3107 -0.0685  0.3166
  824MOL0     O11113   2.504   4.534   6.033 -0.1974  0.8047 -0.7953
  824MOL0     C11114   2.447   4.549   5.893 -0.1658  0.4165 -0.0413
  824MOL0     C11115   2.331   4.459   5.902 -0.3350  0.3093 -0.1765
  824MOL0     C11116   2.275   4.423   5.767 -0.3102 -0.2764  0.4450
  824MOL0     C11117   2.148   4.511   5.739  0.0286 -0.2359 -0.3977
  824MOL0     C11118   2.114   4.501   5.589  0.3855 -0.6218 -0.2250
  824MOL0     C11119   1.966   4.534   5.550  0.2928 -0.4382  1.2528
  824MOL0     C11120   1.871   4.427   5.605  0.9245 -0.2423  0.4388
  824MOL0     C11121   1.733   4.420   5.533  1.0267  0.6742 -0.0477
  824MOL0     N11122   1.647   4.540   5.563 -0.0736  0.0121  0.6547
  824MOL0     C11123   1.545   4.557   5.652  0.3919  0.0195 -0.7159
  824MOL0     C11124   1.510   4.694   5.642 -0.2423  0.4798  0.5769
  824MOL0     C11125   1.408   4.758   5.726  0.1463  0.9352  0.7876
  824MOL0     C11126   1.274   4.738   5.650  0.2371 -0.1660  0.2381
  824MOL0     C11127   1.164   4.789   5.732  0.0747 -0.2804  0.0333
  824MOL0     C11128   1.027   4.748   5.673  0.1953 -0.3352  0.3078
  824MOL0     O11129   0.921   4.792   5.752  0.8052  0.8719  0.3719
  824MOL0     C11130   0.797   4.771   5.703 -0.0097 -0.2105  0.8411
  824MOL0     C11131   0.748   4.643   5.689 -0.2029  0.2538 -0.4307
  824MOL0     C11132   0.613   4.623   5.658 -0.2840 -0.3390  0.0059
  824MOL0     C11133   0.566   4.474   5.658 -0.8314 -0.2271 -0.2345
  824MOL0     C11134   0.529   4.738   5.632  0.0881  0.4701 -0.4983
  824MOL0     C11135   0.388   4.726   5.600 -0.3010  0.2527  0.8984
  824MOL0     O11136   0.310   4.830   5.641  0.2886 -0.8335 -0.4179
  824MOL0     C11137   0.172   4.834   5.658  0.0886  0.1327 -0.5884
  824MOL0     C11138   0.095   4.715   5.664 -0.0647 -0.4778 -0.3450
  824MOL0     C11139  -0.046   4.720   5.671 -0.4993  0.0106  0.4657
  824MOL0     C11140  -0.108   4.849   5.674  0.7397  0.7976 -0.2205
  824MOL0     O11141  -0.244   4.876   5.650  0.5732  0.5879  0.0524
  824MOL0     C11142  -0.338   4.770   5.608 -0.9933 -0.6355  0.3946
  824MOL0     C11143  -0.478   4.809   5.646  0.8362 -0.2946  0.1863
  824MOL0     C11144  -0.539   4.900   5.537 -0.6549 -0.7204  0.0393
  824MOL0     C11145  -0.674   4.951   5.577 -1.4906  0.1767 -0.1794
  824MOL0     C11146  -0.730   5.065   5.496 -0.5689  0.3740 -0.4312
  824MOL0     C11147  -0.868   5.118   5.551 -0.0559  0.1614  0.6711
  824MOL0     C11148  -0.979   5.011   5.581 -0.6283 -0.4298  0.8465
  824MOL0     C11149  -1.111   5.071   5.646 -0.7337 -0.0175 -0.1550
  824MOL0    Cl11150  -1.252   4.960   5.635 -0.6378 -0.6202 -0.0779
  824MOL0     C11151  -0.033   4.957   5.682 -0.8853 -0.5169 -0.1893
  824MOL0     C11152   0.105   4.954   5.677  0.1351 -0.6616 -0.3893
  824MOL0     O11153   0.342   4.625   5.546  0.0807 -0.3844  0.3354
  824MOL0     C11154   0.587   4.861   5.639  0.5228 -0.4763  0.1806
  824MOL0     C11155   0.716   4.880   5.681 -0.3212  0.8488  1.0458
  824MOL0     N11156   1.589   4.743   5.539  0.0069  0.7654 -0.2476
  824MOL0     N11157   1.657   4.651   5.486 -0.1573 -0.4894 -0.1741
  824MOL0     C11158   2.715   4.512   6.160 -0.3165  0.1591 -0.4047
  824MOL0     C11159   2.856   4.517   6.167  0.0325 -0.3214 -0.9678
  824MOL0     C11160   3.282   4.458   6.128  0.8395  0.2063  0.3824
  824MOL0     C11161   3.365   4.562   6.088 -0.6394 -1.2494  0.7210
  824MOL0     C11162   3.502   4.564   6.117 -0.1254 -0.5974  0.1388
  824MOL0     C11163   3.564   4.463   6.188  0.4927  0.4744 -0.6066
  824MOL0     O11164   3.702   4.480   6.214 -0.1965  0.5443 -0.6113
  824MOL0     C11165   3.771   4.382   6.293 -0.0969  0.5137  0.5195
  824MOL0     C11166   3.922   4.420   6.302 -0.1845 -0.3700 -0.2972
  824MOL0     C11167   4.007   4.416   6.169  0.5063  0.5326 -0.3925
  824MOL0     C11168   4.152   4.445   6.209 -0.0121  0.3869  0.1796
  824MOL0     C11169   4.244   4.390   6.108  0.5927 -0.1778 -0.3074
  824MOL0     C11170   4.321   4.357   6.022  0.2299 -0.1710  0.1752
  824MOL0     C11171   3.484   4.357   6.218 -0.2507  0.1602 -1.4301
  824MOL0     C11172   3.351   4.351   6.193 -0.7412 -0.6254 -0.0666
  824MOL0     H11173   2.909   4.650   5.866  2.2854 -1.2206  1.9691
  824MOL0     H11174   2.668   4.629   5.851 -1.5316  0.1692  0.0336
  824MOL0     H11175   2.429   4.649   5.853  0.8179 -0.4003 -2.7994
  824MOL0     H11176   2.517   4.503   5.823 -1.1468 -1.8986  0.3961
  824MOL0     H11177   2.378   4.371   5.947  0.3275  0.2319 -0.9791
  824MOL0     H11178   2.255   4.498   5.971  1.5631  1.5046  1.3287
  824MOL0     H11179   2.344   4.436   5.683  0.3287 -2.3583  0.5941
  824MOL0     H11180   2.241   4.319   5.773 -2.8350  0.5623  2.5816
  824MOL0     H11181   2.067   4.472   5.801  1.1178 -0.1679  1.1258
  824MOL0     H11182   2.165   4.616   5.763 -3.0929  0.9692 -2.7066
  824MOL0     H11183   2.174   4.574   5.535  2.5093 -1.4682  0.8864
  824MOL0     H11184   2.133   4.402   5.548  1.8124 -1.8310  3.0323
  824MOL0     H11185   1.925   4.630   5.583 -2.5200 -1.2625  0.4568
  824MOL0     H11186   1.950   4.529   5.441 -1.4911  1.2158  1.3843
  824MOL0     H11187   1.914   4.327   5.598  1.1562 -0.1765  0.9176
  824MOL0     H11188   1.846   4.453   5.708  0.2719  0.0451  0.2157
  824MOL0     H11189   1.683   4.326   5.560  0.9628  0.8509  0.4647
  824MOL0     H11190   1.751   4.419   5.425 -0.3122  1.5241 -0.3044
  824MOL0     H11191   1.522   4.489   5.733  0.4831  0.7954 -0.0231
  824MOL0     H11192   1.406   4.706   5.822  2.5825  0.2416  0.5532
  824MOL0     H11193   1.437   4.862   5.743  0.9623  0.7094  0.8322
  824MOL0     H11194   1.270   4.632   5.623 -0.4189 -0.2259  0.5576
  824MOL0     H11195   1.279   4.788   5.552 -2.1292 -2.4886 -1.1984
  824MOL0     H11196   1.174   4.897   5.715  2.8400 -0.5825 -0.7984
  824MOL0     H11197   1.181   4.745   5.831 -0.7747 -2.0190 -0.5674
  824MOL0     H11198   1.017   4.641   5.655 -0.3131 -0.4573  1.2078
  824MOL0     H11199   1.017   4.805   5.580 -2.3442  1.2656  1.4473
  824MOL0     H11200   0.802   4.557   5.727 -1.2852 -0.2237  0.0756
  824MOL0     H11201   0.646   4.407   5.689 -2.1529 -1.6933  0.1226
  824MOL0     H11202   0.482   4.469   5.728  0.5552  2.0852  1.7877
  824MOL0     H11203   0.543   4.443   5.556  1.5875 -0.0469 -0.9066
  824MOL0     H11204   0.131   4.613   5.657 -1.1057 -0.9791  1.1276
  824MOL0     H11205  -0.101   4.627   5.656  0.5619 -0.2584 -2.4536
  824MOL0     H11206  -0.327   4.756   5.500 -2.9369  0.1676  0.0668
  824MOL0     H11207  -0.322   4.671   5.652 -4.3997 -1.1013  0.8133
  824MOL0     H11208  -0.544   4.725   5.668 -0.1968  0.2383 -0.7528
  824MOL0     H11209  -0.464   4.857   5.743  0.9432 -0.5346  0.2913
  824MOL0     H11210  -0.537   4.851   5.439  1.1596 -1.2328  0.2913
  824MOL0     H11211  -0.468   4.984   5.535 -0.7590 -0.5315  2.3023
  824MOL0     H11212  -0.737   4.861   5.572  0.5323 -1.3636  0.4577
  824MOL0     H11213  -0.673   4.980   5.683 -3.6843 -0.6650  0.1306
  824MOL0     H11214  -0.741   5.032   5.392 -1.9325  0.0346 -0.2023
  824MOL0     H11215  -0.646   5.135   5.501  0.7459 -1.2175  2.1972
  824MOL0     H11216  -0.831   5.171   5.640  2.2107  0.5541 -0.4203
  824MOL0     H11217  -0.906   5.193   5.481  0.8275  0.2749  0.2968
  824MOL0     H11218  -0.940   4.932   5.645  2.4897  1.1287  1.0548
  824MOL0     H11219  -1.010   4.965   5.487 -0.7306  3.9211 -1.5241
  824MOL0     H11220  -1.139   5.163   5.594 -1.7315  0.2212  0.7878
  824MOL0     H11221  -1.091   5.098   5.750  0.5749  1.2090 -0.6776
  824MOL0     H11222  -0.087   5.051   5.678  0.7067  0.4147 -3.4347
  824MOL0     H11223   0.161   5.047   5.682  0.0303 -0.6290  0.2593
  824MOL0     H11224   0.537   4.947   5.596  0.1608 -0.9822 -0.4196
  824MOL0     H11225   0.771   4.974   5.679  1.5157 -0.1887 -0.6708
  824MOL0     H11226   2.656   4.484   6.247 -1.3740  0.7327 -0.9158
  824MOL0     H11227   2.907   4.487   6.258  1.1860 -0.0130 -1.4995
  824MOL0     H11228   3.317   4.644   6.035 -0.0400 -0.8088  0.8480
  824MOL0     H11229   3.564   4.645   6.080  0.6930 -1.0762  0.4131
  824MOL0     H11230   3.723   4.384   6.392 -2.1732 -1.2231 -0.3536
  824MOL0     H11231   3.752   4.279   6.260 -5.1062  0.4848  2.6174
  824MOL0     H11232   3.983   4.356   6.367 -1.3073 -1.1541  0.0051
  824MOL0     H11233   3.931   4.516   6.353 -1.5487 -1.4989  2.2625
  824MOL0     H11234   3.973   4.501   6.111 -0.4546  0.7792  0.4942
  824MOL0     H11235   4.008   4.320   6.117  3.9843 -1.4720  2.8579
  824MOL0     H11236   4.171   4.394   6.304 -3.9010  0.3860  1.1387
  824MOL0     H11237   4.167   4.552   6.226 -0.5892  0.7358 -1.3553
  824MOL0     H11238   4.396   4.348   5.946  0.6197 -3.7760  0.7940
  824MOL0     H11239   3.526   4.267   6.262  0.1296 -0.1109 -2.3242
  824MOL0     H11240   3.293   4.262   6.215 -3.9736  1.1721 -0.7521
  825MOL0     O11241  10.464   1.377   4.102  0.1501 -0.1101 -0.0335
  825MOL0     C11242  10.430   1.275   4.161 -0.1405  0.5819  0.0514
  825MOL0     O11243  10.303   1.228   4.190 -0.4107 -1.3239  0.0334
  825MOL0     C11244  10.184   1.294   4.170 -0.3063 -0.0283  1.0256
  825MOL0     C11245  10.081   1.252   4.253 -0.4714  0.0317  0.7884
  825MOL0     C11246   9.960   1.311   4.246 -0.4775 -0.5855  0.0321
  825MOL0     C11247   9.925   1.415   4.156  0.1605  0.0659  0.1966
  825MOL0     O11248   9.794   1.444   4.163  0.0484 -0.0972 -0.4200
  825MOL0     C11249   9.734   1.537   4.072 -0.1732  0.5471 -0.6904
  825MOL0     C11250   9.582   1.506   4.065 -0.4070  0.6400 -0.1934
  825MOL0     C11251   9.511   1.597   3.966 -0.3089 -0.1999 -0.6551
  825MOL0     C11252   9.373   1.527   3.942 -0.0816 -1.0333  0.5340
  825MOL0     C11253   9.276   1.635   3.894 -0.5508  0.1754 -0.2243
  825MOL0     C11254   9.144   1.569   3.870  0.2473 -0.4710 -0.1305
  825MOL0     C11255   9.047   1.683   3.844 -0.1267 -0.8928 -0.3332
  825MOL0     C11256   8.897   1.626   3.837 -0.8137 -0.2668  0.4356
  825MOL0     N11257   8.888   1.548   3.707  0.1087  0.1115  0.1204
  825MOL0     C11258   8.922   1.413   3.700 -0.2706 -0.8377  0.3070
  825MOL0     C11259   8.899   1.378   3.572 -0.6647 -0.1199  0.0059
  825MOL0     C11260   8.901   1.237   3.523 -0.9054 -0.3937 -0.5497
  825MOL0     C11261   8.997   1.206   3.408  0.5749 -0.4203 -1.1533
  825MOL0     C11262   8.941   1.078   3.339  0.1717 -0.1235 -0.0182
  825MOL0     C11263   9.029   1.022   3.233 -0.2176  0.0824  0.2995
  825MOL0     O11264   8.988   0.887   3.188 -0.4988  0.5092  0.3125
  825MOL0     C11265   8.878   0.871   3.100 -0.4856 -0.5555 -0.2269
  825MOL0     C11266   8.898   0.895   2.961  0.8971  0.1209 -0.0028
  825MOL0     C11267   8.800   0.875   2.865 -0.7626  0.8802  0.0403
  825MOL0     C11268   8.826   0.924   2.719 -0.2842 -0.5328 -0.6498
  825MOL0     C11269   8.684   0.814   2.905  0.2462 -0.0012  0.3625
  825MOL0     C11270   8.565   0.786   2.812  0.4264  1.5879  0.7820
  825MOL0     O11271   8.455   0.740   2.877 -1.3090  0.0117 -0.3882
  825MOL0     C11272   8.336   0.735   2.811 -0.2553  0.7503 -0.5171
  825MOL0     C11273   8.246   0.836   2.808  0.2316 -0.3917  0.3141
  825MOL0     C11274   8.113   0.821   2.756 -0.4666  0.6111 -0.0500
  825MOL0     C11275   8.070   0.691   2.727  1.0862  0.2956 -0.7523
  825MOL0     O11276   7.945   0.660   2.685  0.6244  0.0227  0.9548
  825MOL0     C11277   7.851   0.768   2.672 -0.0512  0.0755  0.0065
  825MOL0     C11278   7.721   0.737   2.608 -0.1923 -0.0380 -0.3114
  825MOL0     C11279   7.632   0.864   2.597  0.1219 -0.0312  0.8978
  825MOL0     C11280   7.489   0.843   2.557  0.0807 -0.6438 -0.2232
  825MOL0     C11281   7.407   0.787   2.674 -0.1652  0.0712  0.0041
  825MOL0     C11282   7.262   0.763   2.640  0.0593 -0.7593 -0.7196
  825MOL0     C11283   7.235   0.640   2.544 -0.5987 -0.5501  0.2076
  825MOL0     C11284   7.160   0.678   2.412  0.7535  0.1104 -0.5173
  825MOL0    Cl11285   7.164   0.535   2.315  0.5786  0.5687 -0.0664
  825MOL0     C11286   8.160   0.587   2.724 -0.2867 -0.0346  0.5128
  825MOL0     C11287   8.291   0.609   2.765 -0.0960 -0.1407  0.5993
  825MOL0     O11288   8.566   0.804   2.688 -0.8446  0.1584  0.5212
  825MOL0     C11289   8.666   0.778   3.043  0.7803  0.0347  0.4569
  825MOL0     C11290   8.763   0.809   3.141 -0.4355  0.5245  0.2162
  825MOL0     N11291   8.854   1.486   3.507  0.6753  0.0769  0.1318
  825MOL0     N11292   8.853   1.593   3.587 -0.3079  0.7497 -0.1356
  825MOL0     C11293  10.032   1.456   4.075 -0.6148 -0.8241 -0.2428
  825MOL0     C11294  10.161   1.402   4.090  0.3689 -0.1085  0.2960
  825MOL0     C11295  10.541   1.181   4.193 -0.4855  0.6738 -1.5505
  825MOL0     C11296  10.522   1.061   4.260  0.1943  0.5414 -0.2882
  825MOL0     C11297  10.626   0.965   4.271 -0.4874 -0.1834 -0.6945
  825MOL0     C11298  10.750   0.988   4.214  0.1018  0.8424  0.1352
  825MOL0     O11299  10.857   0.904   4.215  0.8014  0.0451  0.7118
  825MOL0     C11300  10.830   0.778   4.279 -0.3351  0.2385  0.6732
  825MOL0     C11301  10.959   0.694   4.275  0.3274  0.2532  0.1679
  825MOL0     C11302  11.079   0.766   4.349 -0.2509  0.7464 -0.3979
  825MOL0     C11303  11.213   0.692   4.328 -0.2833 -0.6131  0.4339
  825MOL0     C11304  11.326   0.751   4.410  0.1662 -0.6932 -0.2849
  825MOL0     C11305  11.425   0.785   4.471 -0.1707 -0.1396 -0.7523
  825MOL0     C11306  10.772   1.114   4.154 -0.3156 -0.8899 -0.3056
  825MOL0     C11307  10.671   1.209   4.157 -0.4199 -0.8432  0.1672
  825MOL0     H11308  10.095   1.165   4.317 -0.9664 -1.1628 -0.6780
  825MOL0     H11309   9.884   1.256   4.300  0.2631 -1.4618  0.2007
  825MOL0     H11310   9.752   1.639   4.108  1.4733 -0.7383  2.5095
  825MOL0     H11311   9.783   1.517   3.976  2.9602 -0.7341  1.0172
  825MOL0     H11312   9.561   1.404   4.032  1.3178 -0.3475  1.5464
  825MOL0     H11313   9.537   1.520   4.164  0.0311 -0.8812  0.2504
  825MOL0     H11314   9.494   1.693   4.016  1.3627 -0.3905  0.3800
  825MOL0     H11315   9.562   1.611   3.870 -0.2461 -1.0711 -0.7606
  825MOL0     H11316   9.385   1.453   3.862 -3.3222 -1.1175 -0.0088
  825MOL0     H11317   9.329   1.497   4.037  0.6195 -2.1649  0.5189
  825MOL0     H11318   9.269   1.711   3.972  1.9725  1.0756 -0.7656
  825MOL0     H11319   9.322   1.677   3.803  2.4399 -0.9498  0.6511
  825MOL0     H11320   9.146   1.495   3.790 -0.5352 -1.3678  0.6615
  825MOL0     H11321   9.113   1.522   3.964 -1.4313 -0.4869 -0.6612
  825MOL0     H11322   9.051   1.750   3.931 -0.1779 -3.4177  1.7453
  825MOL0     H11323   9.080   1.736   3.755  0.1023 -0.5462 -0.0449
  825MOL0     H11324   8.821   1.705   3.832 -0.5432  0.0980  1.6518
  825MOL0     H11325   8.883   1.562   3.924  1.7216 -0.8499  0.4736
  825MOL0     H11326   8.954   1.346   3.778  0.0940  0.1283  1.0030
  825MOL0     H11327   8.927   1.165   3.601  2.2784  2.3194  1.1671
  825MOL0     H11328   8.799   1.224   3.486 -1.0632  2.7536 -1.5374
  825MOL0     H11329   9.093   1.186   3.457  2.1480  1.4461 -3.2090
  825MOL0     H11330   9.004   1.284   3.331  3.4021 -2.4818 -3.2245
  825MOL0     H11331   8.846   1.111   3.297  0.3166  0.5510  0.1787
  825MOL0     H11332   8.920   1.000   3.414 -1.0269  1.7963  1.7555
  825MOL0     H11333   9.135   1.020   3.261 -0.2597  2.7401  0.9305
  825MOL0     H11334   9.029   1.092   3.149 -0.4580  1.1239  1.1455
  825MOL0     H11335   8.996   0.935   2.938  2.1102 -1.0739  2.5989
  825MOL0     H11336   8.929   0.960   2.726 -1.2498  2.0605  2.7607
  825MOL0     H11337   8.804   0.849   2.643 -0.1404 -2.3509  1.0015
  825MOL0     H11338   8.769   1.015   2.701  2.1304  2.4713  4.5500
  825MOL0     H11339   8.268   0.939   2.834  0.1201  0.5197 -2.7790
  825MOL0     H11340   8.053   0.912   2.761 -2.8844 -0.8676 -0.7055
  825MOL0     H11341   7.841   0.812   2.771 -1.2358 -0.1510 -0.0013
  825MOL0     H11342   7.899   0.849   2.616  1.4505  0.1389  1.3114
  825MOL0     H11343   7.739   0.697   2.507 -0.7059  1.4414 -1.0216
  825MOL0     H11344   7.678   0.659   2.672 -2.5384 -3.1706 -5.0739
  825MOL0     H11345   7.668   0.935   2.523 -0.1012 -1.9886 -1.1951
  825MOL0     H11346   7.633   0.911   2.696 -0.0931  0.7511  0.5308
  825MOL0     H11347   7.446   0.941   2.534  0.6777 -0.4772 -0.6564
  825MOL0     H11348   7.481   0.778   2.469 -0.6150  0.7372 -1.2236
  825MOL0     H11349   7.418   0.842   2.768 -1.1165  1.0636 -0.4365
  825MOL0     H11350   7.446   0.686   2.692  2.6099  0.9215 -0.7692
  825MOL0     H11351   7.202   0.748   2.730  2.4924  0.2235  1.1816
  825MOL0     H11352   7.233   0.857   2.593 -0.1505 -0.4214  0.0768
  825MOL0     H11353   7.170   0.568   2.595  2.1228 -2.1797  1.6372
  825MOL0     H11354   7.327   0.585   2.521  0.3736  0.6565  1.0673
  825MOL0     H11355   7.218   0.754   2.360  2.5475 -0.0351  1.1337
  825MOL0     H11356   7.059   0.711   2.434  0.8000  0.9356 -1.5116
  825MOL0     H11357   8.135   0.489   2.684  0.7538  0.2867 -1.0449
  825MOL0     H11358   8.365   0.530   2.779  0.1670  0.3414  2.0652
  825MOL0     H11359   8.571   0.730   3.061  1.1179 -2.5408 -3.3204
  825MOL0     H11360   8.743   0.770   3.241  3.4115  4.2010  2.7847
  825MOL0     H11361  10.026   1.543   4.011 -2.2775 -1.1926 -0.6237
  825MOL0     H11362  10.243   1.441   4.031  1.8738 -1.4328  1.4373
  825MOL0     H11363  10.424   1.048   4.304  0.3009 -1.4693 -0.5805
  825MOL0     H11364  10.603   0.873   4.325 -1.0122  0.2670 -0.1312
  825MOL0     H11365  10.799   0.794   4.383  1.7837 -0.3004  1.4398
  825MOL0     H11366  10.757   0.719   4.223 -0.4271  0.1786  0.8573
  825MOL0     H11367  10.980   0.664   4.172 -0.2542  1.0262 -0.1882
  825MOL0     H11368  10.935   0.600   4.324 -1.5973 -0.1078 -1.3633
  825MOL0     H11369  11.067   0.771   4.457  1.1291  0.1244 -0.1915
  825MOL0     H11370  11.094   0.867   4.310 -1.4798  1.0008 -0.2312
  825MOL0     H11371  11.248   0.697   4.224 -1.0408 -0.3519  0.1816
  825MOL0     H11372  11.198   0.588   4.358 -0.1421 -0.1332  2.2502
  825MOL0     H11373  11.496   0.827   4.540 -2.4399  3.1060 -0.1321
  825MOL0     H11374  10.867   1.136   4.108 -2.0555  1.7575 -3.0072
  825MOL0     H11375  10.700   1.312   4.145 -1.2559 -0.5958  0.1921
  826MOL0     O11376   0.445  10.812   9.245  0.1052 -0.5483 -0.0624
  826MOL0     C11377   0.497  10.730   9.172 -0.7856  0.1678  0.4236
  826MOL0     O11378   0.426  10.622   9.114 -0.3942  0.0542 -0.3315
  826MOL0     C11379   0.288  10.616   9.095 -0.4402  0.4417 -0.0492
  826MOL0     C11380   0.182  10.688   9.160 -0.7272 -0.3490 -0.8749
  826MOL0     C11381   0.044  10.668   9.120  0.1866  0.4794 -0.7679
  826MOL0     C11382   0.015  10.571   9.020  0.1375 -0.7788  0.3044
  826MOL0     O11383  -0.116  10.562   8.987  0.6707 -0.6891 -0.2903
  826MOL0     C11384  -0.160  10.455   8.893  1.2541  0.0965  0.8373
  826MOL0     C11385  -0.313  10.472   8.868  0.4700 -0.0664 -0.0664
  826MOL0     C11386  -0.393  10.433   8.991  0.6581 -0.7221 -0.2930
  826MOL0     C11387  -0.527  10.371   8.944  0.9544  0.1248 -0.0261
  826MOL0     C11388  -0.613  10.329   9.063 -0.6351  0.3721 -0.1209
  826MOL0     C11389  -0.759  10.328   9.019 -1.0997 -0.6056 -0.2103
  826MOL0     C11390  -0.842  10.333   9.155  0.2881  0.2686  0.6073
  826MOL0     C11391  -0.994  10.367   9.127  0.3822  0.6714  0.6267
  826MOL0     N11392  -1.017  10.496   9.064 -0.2103  0.6543  0.2468
  826MOL0     C11393  -0.974  10.610   9.123 -0.2998 -0.6638  0.0599
  826MOL0     C11394  -1.005  10.716   9.034 -0.0237 -0.3635  0.3165
  826MOL0     C11395  -0.977  10.863   9.036 -0.6290  0.1303 -0.1493
  826MOL0     C11396  -1.088  10.953   9.095 -0.4295 -0.1965  0.7910
  826MOL0     C11397  -1.098  10.930   9.243  0.1884 -0.0214  0.7099
  826MOL0     C11398  -1.181  11.021   9.317 -0.3025  0.4251 -0.5342
  826MOL0     O11399  -1.318  10.987   9.302  0.0800 -0.0118  0.6858
  826MOL0     C11400  -1.414  11.085   9.333 -0.1451  0.1336 -0.3834
  826MOL0     C11401  -1.376  11.205   9.394  0.6146  0.1779 -0.6073
  826MOL0     C11402  -1.483  11.299   9.432 -0.5121  0.0750  0.6253
  826MOL0     C11403  -1.435  11.437   9.474 -0.2835  1.5451 -0.8426
  826MOL0     C11404  -1.617  11.267   9.416 -0.4285  0.7655 -0.0221
  826MOL0     C11405  -1.730  11.361   9.448  0.4647  0.8918  0.1328
  826MOL0     O11406  -1.837  11.357   9.360  0.3581  0.3065  0.1371
  826MOL0     C11407  -1.963  11.356   9.423 -0.0303 -0.2876  0.2725
  826MOL0     C11408  -2.031  11.236   9.429  0.2611 -0.0803 -0.6447
  826MOL0     C11409  -2.155  11.227   9.494 -0.4155  0.1514 -0.6065
  826MOL0     C11410  -2.216  11.337   9.548  0.2495 -0.0391  0.7375
  826MOL0     O11411  -2.345  11.318   9.600 -0.0864 -0.1080  0.0544
  826MOL0     C11412  -2.432  11.425   9.628  0.4524  0.3042  0.1170
  826MOL0     C11413  -2.575  11.368   9.665  0.3702 -0.7041  0.4957
  826MOL0     C11414  -2.646  11.486   9.741  0.1748 -0.2132 -0.8237
  826MOL0     C11415  -2.707  11.593   9.648  0.4568  0.1579  0.2058
  826MOL0     C11416  -2.752  11.729   9.708 -0.4997 -0.2961 -0.0593
  826MOL0     C11417  -2.853  11.701   9.819  0.3921  0.6851  0.0200
  826MOL0     C11418  -2.917  11.823   9.880  0.2604  0.5766 -0.4080
  826MOL0     C11419  -3.000  11.914   9.785 -0.0950  0.9671 -0.7637
  826MOL0    Cl11420  -3.099  11.803   9.673  0.1964  0.2261 -0.0425
  826MOL0     C11421  -2.142  11.458   9.550  0.2115 -0.9476  0.2074
  826MOL0     C11422  -2.014  11.465   9.490  0.3259  0.2400  0.0774
  826MOL0     O11423  -1.712  11.436   9.550 -0.0782  0.6577  0.8580
  826MOL0     C11424  -1.644  11.148   9.351 -0.2113  0.7793  0.6622
  826MOL0     C11425  -1.545  11.057   9.316  0.1128  0.8747 -0.2591
  826MOL0     N11426  -1.081  10.655   8.936  0.4376  0.6611  0.3389
  826MOL0     N11427  -1.080  10.521   8.945  0.2105 -0.1602  0.0999
  826MOL0     C11428   0.123  10.499   8.959  0.7270 -0.4272  0.3327
  826MOL0     C11429   0.249  10.525   8.998 -0.3423 -0.5304 -0.2696
  826MOL0     C11430   0.645  10.734   9.155  0.3692 -0.4104 -0.0127
  826MOL0     C11431   0.707  10.630   9.089  0.2034  0.1055  0.1434
  826MOL0     C11432   0.846  10.625   9.073 -0.3832  0.3548 -0.2125
  826MOL0     C11433   0.929  10.726   9.125  0.2762  0.1454 -0.3874
  826MOL0     O11434   1.058  10.708   9.099 -0.2343 -0.0372  0.4819
  826MOL0     C11435   1.155  10.809   9.129 -0.2284  0.0173 -0.3754
  826MOL0     C11436   1.267  10.797   9.022 -0.2616 -0.6408 -0.7167
  826MOL0     C11437   1.376  10.696   9.048 -0.9229  0.1816 -0.1409
  826MOL0     C11438   1.498  10.762   9.120 -0.4226  0.0052 -0.0943
  826MOL0     C11439   1.572  10.860   9.035 -0.1212 -0.6708 -0.3887
  826MOL0     C11440   1.639  10.945   8.982 -0.1916 -0.3471  0.0374
  826MOL0     C11441   0.870  10.828   9.191  0.0215 -0.2632 -0.4409
  826MOL0     C11442   0.731  10.836   9.204  0.3112 -0.7695  0.1150
  826MOL0     H11443   0.210  10.759   9.237 -1.9787 -1.1019  0.3251
  826MOL0     H11444  -0.044  10.709   9.167 -0.4427  0.9252 -2.2619
  826MOL0     H11445  -0.104  10.449   8.799  1.6360  0.0670  1.0690
  826MOL0     H11446  -0.133  10.361   8.942 -0.5597 -1.8628 -1.6023
  826MOL0     H11447  -0.342  10.574   8.839 -3.8084 -1.6516 -2.2593
  826MOL0     H11448  -0.345  10.413   8.781  0.1095 -1.0396  0.7015
  826MOL0     H11449  -0.347  10.353   9.051  2.4499  0.8268  0.5061
  826MOL0     H11450  -0.420  10.513   9.060  0.2123 -2.6453  1.8731
  826MOL0     H11451  -0.569  10.448   8.878 -1.1850 -0.9954 -0.0447
  826MOL0     H11452  -0.510  10.289   8.874 -1.0395 -1.9533  1.7808
  826MOL0     H11453  -0.577  10.241   9.116  0.4486  1.5445  1.1498
  826MOL0     H11454  -0.597  10.403   9.142  0.6999 -2.4046  2.3962
  826MOL0     H11455  -0.786  10.417   8.961 -0.0035 -1.0038 -1.3578
  826MOL0     H11456  -0.792  10.250   8.951  0.9773  1.7353 -4.2462
  826MOL0     H11457  -0.838  10.237   9.207 -3.2894 -0.3582  0.0248
  826MOL0     H11458  -0.805  10.402   9.231  0.9644 -0.9077  1.3825
  826MOL0     H11459  -1.039  10.365   9.226  1.2695 -1.5077  1.0357
  826MOL0     H11460  -1.042  10.288   9.069 -3.4921  2.2655  1.3339
  826MOL0     H11461  -0.904  10.639   9.200  1.8025  1.4669 -2.4507
  826MOL0     H11462  -0.887  10.878   9.097 -0.2645  2.4381 -1.1601
  826MOL0     H11463  -0.951  10.897   8.935 -1.1629 -0.4650 -0.4902
  826MOL0     H11464  -1.182  10.934   9.043  0.8793 -0.2627 -1.7429
  826MOL0     H11465  -1.064  11.058   9.078 -0.4073 -0.5642 -1.8839
  826MOL0     H11466  -0.999  10.925   9.289 -0.7136 -0.0413  2.7324
  826MOL0     H11467  -1.126  10.825   9.257  0.5587 -0.4884 -1.5806
  826MOL0     H11468  -1.167  11.123   9.281 -4.5004  1.3973 -0.0068
  826MOL0     H11469  -1.159  11.018   9.424  1.3368 -0.5055 -0.8727
  826MOL0     H11470  -1.275  11.234   9.423  0.1863  2.0047 -0.8292
  826MOL0     H11471  -1.458  11.453   9.580 -0.1857  1.5789 -0.8264
  826MOL0     H11472  -1.327  11.444   9.459 -0.2297 -0.9304 -2.1610
  826MOL0     H11473  -1.487  11.513   9.414  1.4429  3.2142 -0.3257
  826MOL0     H11474  -1.978  11.152   9.386 -1.2497 -1.3568 -0.0817
  826MOL0     H11475  -2.211  11.135   9.500  1.1352 -0.7427  1.1806
  826MOL0     H11476  -2.376  11.482   9.703  4.9159 -3.3534 -0.0286
  826MOL0     H11477  -2.436  11.488   9.539  0.2167  2.0795  1.3178
  826MOL0     H11478  -2.633  11.344   9.575 -0.3384 -0.9864  1.0187
  826MOL0     H11479  -2.562  11.281   9.730  1.2497 -2.9798 -2.4882
  826MOL0     H11480  -2.578  11.540   9.808 -0.7026  0.4352 -0.4207
  826MOL0     H11481  -2.728  11.446   9.801  0.9886  0.5651  0.9144
  826MOL0     H11482  -2.640  11.607   9.562 -0.2410 -1.5254 -0.6666
  826MOL0     H11483  -2.800  11.540   9.625  2.1365 -1.8152 -2.6010
  826MOL0     H11484  -2.786  11.797   9.630 -0.9114  0.2652  0.5896
  826MOL0     H11485  -2.664  11.780   9.749  0.8666 -1.7643 -1.0752
  826MOL0     H11486  -2.924  11.631   9.776  1.4953 -1.4545  1.4879
  826MOL0     H11487  -2.803  11.646   9.900 -3.3394  0.7531  2.6516
  826MOL0     H11488  -2.841  11.870   9.942 -0.3890 -0.8054  1.5393
  826MOL0     H11489  -2.995  11.798   9.953  0.0574  2.8040  0.2024
  826MOL0     H11490  -2.937  11.993   9.743  2.1543  0.0989  0.7620
  826MOL0     H11491  -3.077  11.963   9.846 -0.1555 -2.1514  1.9609
  826MOL0     H11492  -2.178  11.546   9.603 -1.6490 -0.7017 -1.3308
  826MOL0     H11493  -1.957  11.557   9.501  1.3985 -0.1016 -2.0540
  826MOL0     H11494  -1.746  11.115   9.333 -0.2697  1.3032 -0.0076
  826MOL0     H11495  -1.565  10.961   9.268  0.2480  1.3341 -1.2705
  826MOL0     H11496   0.121  10.424   8.880  4.7085 -1.1804  0.7444
  826MOL0     H11497   0.324  10.472   8.940 -1.5325 -0.8296 -1.5741
  826MOL0     H11498   0.660  10.548   9.036  2.0058 -0.0767 -1.2921
  826MOL0     H11499   0.898  10.554   9.009 -0.1322  0.3950 -0.0525
  826MOL0     H11500   1.122  10.912   9.120 -0.3095 -0.0364 -0.6802
  826MOL0     H11501   1.201  10.789   9.227 -3.0315 -1.7406  0.6980
  826MOL0     H11502   1.310  10.895   8.999 -0.8528  0.0169  0.8604
  826MOL0     H11503   1.225  10.764   8.927  0.9862  2.3034 -2.4134
  826MOL0     H11504   1.405  10.645   8.956  0.3505 -3.0268  1.8482
  826MOL0     H11505   1.342  10.619   9.118 -1.8072 -1.4159 -2.2077
  826MOL0     H11506   1.577  10.689   9.143 -1.3981 -0.6655  1.2597
  826MOL0     H11507   1.473  10.800   9.219 -2.8120 -1.0276 -0.2283
  826MOL0     H11508   1.697  11.017   8.928 -1.9774  0.9213 -0.2506
  826MOL0     H11509   0.937  10.901   9.237  0.1043 -0.8976  0.4716
  826MOL0     H11510   0.683  10.926   9.239  0.4249  0.1164 -1.8598
  827MOL0     O11511   1.742   2.690   9.750 -0.3655  0.8929  0.3168
  827MOL0     C11512   1.774   2.765   9.837 -0.7093 -0.1984 -0.5453
  827MOL0     O11513   1.690   2.813   9.941 -0.3886  0.1784 -0.2940
  827MOL0     C11514   1.554   2.801   9.939 -0.0887 -0.3964 -0.7020
  827MOL0     C11515   1.487   2.912   9.982 -0.1101 -0.3044  0.4395
  827MOL0     C11516   1.346   2.907   9.991  0.5888 -0.1990  0.1371
  827MOL0     C11517   1.273   2.791   9.961 -0.2684  0.7255  0.6346
  827MOL0     O11518   1.143   2.784   9.975 -0.2200 -0.3647 -0.0924
  827MOL0     C11519   1.071   2.684   9.906  0.5389  0.1418 -1.0274
  827MOL0     C11520   0.921   2.712   9.924  1.0287 -0.3381 -0.4150
  827MOL0     C11521   0.847   2.601   9.852  1.1964  0.0816 -0.3323
  827MOL0     C11522   0.697   2.633   9.845 -0.1934  0.6695 -0.4996
  827MOL0     C11523   0.619   2.529   9.753  0.2580 -0.5796 -0.2288
  827MOL0     C11524   0.473   2.549   9.773  0.7009 -0.0080  0.1653
  827MOL0     C11525   0.387   2.453   9.686 -1.2072  0.7699 -0.0487
  827MOL0     C11526   0.241   2.489   9.714  0.3775 -0.6416  0.1169
  827MOL0     N11527   0.155   2.408   9.627  0.6804  0.0621  1.2524
  827MOL0     C11528   0.082   2.450   9.519 -0.6862 -0.5420 -0.1026
  827MOL0     C11529   0.014   2.341   9.486 -0.3477 -0.1431  0.5033
  827MOL0     C11530  -0.094   2.342   9.381  0.2657  0.2473 -0.2457
  827MOL0     C11531  -0.207   2.433   9.419  0.7696  0.6314 -0.4851
  827MOL0     C11532  -0.307   2.458   9.308 -0.6655  0.3594 -0.1758
  827MOL0     C11533  -0.439   2.375   9.318 -0.1386 -0.0922 -0.2666
  827MOL0     O11534  -0.537   2.435   9.237 -0.0809  0.2615  0.2902
  827MOL0     C11535  -0.665   2.397   9.249  0.0435 -0.4809  0.7958
  827MOL0     C11536  -0.757   2.459   9.167 -0.1172  0.3656  1.0073
  827MOL0     C11537  -0.892   2.442   9.170 -0.1234  0.2745  0.6947
  827MOL0     C11538  -0.968   2.533   9.074 -0.0264  0.3768  0.8738
  827MOL0     C11539  -0.942   2.350   9.262  1.0152  1.0019 -1.7560
  827MOL0     C11540  -1.089   2.316   9.280 -1.2210 -0.6447  0.4835
  827MOL0     O11541  -1.173   2.429   9.297  0.7095  0.3751  0.3254
  827MOL0     C11542  -1.302   2.409   9.325  0.0165 -0.2639 -0.4163
  827MOL0     C11543  -1.367   2.453   9.446  0.3482 -0.0574  0.3143
  827MOL0     C11544  -1.503   2.471   9.456  0.0600  0.4827  0.3185
  827MOL0     C11545  -1.593   2.428   9.356  0.1136 -0.0811  0.7944
  827MOL0     O11546  -1.726   2.448   9.385  0.3954  0.3871  0.6669
  827MOL0     C11547  -1.819   2.423   9.281 -0.3062  0.4833 -0.8958
  827MOL0     C11548  -1.960   2.475   9.329  0.1309 -0.4069 -0.5830
  827MOL0     C11549  -2.061   2.457   9.224 -0.0693 -0.1268 -0.6866
  827MOL0     C11550  -2.204   2.497   9.279 -0.0515  0.2111 -0.3114
  827MOL0     C11551  -2.319   2.470   9.168 -0.7481  0.0628 -0.5499
  827MOL0     C11552  -2.457   2.528   9.214  0.3848 -0.9241  0.5903
  827MOL0     C11553  -2.473   2.677   9.203 -0.3922 -0.9139 -0.2739
  827MOL0     C11554  -2.611   2.738   9.230  0.6005  0.2838 -0.1396
  827MOL0    Cl11555  -2.722   2.718   9.096 -0.1339 -0.2746 -0.0519
  827MOL0     C11556  -1.538   2.369   9.252 -0.6665 -0.5066  0.2043
  827MOL0     C11557  -1.398   2.371   9.225 -0.9774  0.1848 -0.1200
  827MOL0     O11558  -1.120   2.204   9.310 -1.2391  0.9405 -0.4774
  827MOL0     C11559  -0.856   2.293   9.357  0.7646 -0.1864  0.9788
  827MOL0     C11560  -0.720   2.308   9.342  0.1005 -0.6814  0.5721
  827MOL0     N11561   0.047   2.239   9.561 -0.1545  0.5368  0.6131
  827MOL0     N11562   0.126   2.283   9.656  0.2060  0.2405 -0.3650
  827MOL0     C11563   1.349   2.677   9.941  0.3821 -0.3334  0.4330
  827MOL0     C11564   1.487   2.679   9.918 -0.0428 -0.4705  0.4308
  827MOL0     C11565   1.916   2.809   9.830  0.4918  0.5697 -0.1049
  827MOL0     C11566   2.001   2.812   9.715  0.8106  0.2104 -0.5074
  827MOL0     C11567   2.133   2.860   9.726 -0.1879 -0.6980 -0.2171
  827MOL0     C11568   2.187   2.900   9.847 -0.0859 -0.8124  0.5122
  827MOL0     O11569   2.316   2.943   9.870  0.0108 -0.4988  0.3226
  827MOL0     C11570   2.335   3.085   9.867  0.1843  0.0355  0.0347
  827MOL0     C11571   2.467   3.127   9.937  0.4391 -0.2172 -0.1718
  827MOL0     C11572   2.597   3.075   9.868 -0.8417 -0.3032 -0.4074
  827MOL0     C11573   2.720   3.125   9.947 -0.0503 -1.2926 -0.1810
  827MOL0     C11574   2.837   3.066   9.888  0.3778 -0.6798  0.0372
  827MOL0     C11575   2.928   3.012   9.833 -0.0191 -0.0121 -0.4947
  827MOL0     C11576   2.108   2.890   9.960 -0.3500 -0.1786  0.6976
  827MOL0     C11577   1.980   2.835   9.952 -0.2201  0.2266 -0.4153
  827MOL0     H11578   1.544   2.999  10.010  0.4987 -0.4761 -0.2489
  827MOL0     H11579   1.294   2.997  10.023  1.4482  0.0752  0.8027
  827MOL0     H11580   1.100   2.682   9.800  1.3912  0.6663 -0.8134
  827MOL0     H11581   1.077   2.587   9.956 -2.2642  1.3702  2.0650
  827MOL0     H11582   0.893   2.709  10.029  1.1930 -3.6895 -0.3509
  827MOL0     H11583   0.892   2.810   9.885  0.7147  0.0472  0.7451
  827MOL0     H11584   0.877   2.573   9.751 -0.0616 -1.5115 -0.3111
  827MOL0     H11585   0.854   2.503   9.899 -2.5709 -1.5520 -2.6774
  827MOL0     H11586   0.659   2.621   9.947  0.6421 -0.5928 -0.3043
  827MOL0     H11587   0.672   2.734   9.811 -2.0088  0.7894  1.0643
  827MOL0     H11588   0.664   2.554   9.656  2.7396 -1.0772  0.7171
  827MOL0     H11589   0.659   2.430   9.776  0.5440 -0.2905  0.5800
  827MOL0     H11590   0.440   2.539   9.877 -0.9244  1.9274 -0.0953
  827MOL0     H11591   0.453   2.653   9.746  1.8958 -0.0746 -1.0879
  827MOL0     H11592   0.399   2.478   9.580 -1.6609  1.9079  0.1492
  827MOL0     H11593   0.407   2.346   9.696  0.9302  1.0637 -0.7718
  827MOL0     H11594   0.219   2.594   9.693 -3.0265 -0.6818  2.4976
  827MOL0     H11595   0.220   2.469   9.820 -0.8454 -2.6890 -0.4639
  827MOL0     H11596   0.090   2.547   9.471 -1.3044 -0.8801 -0.9214
  827MOL0     H11597  -0.048   2.363   9.284  0.8757  2.9618  0.5691
  827MOL0     H11598  -0.140   2.242   9.379 -0.3175  0.4888  0.5649
  827MOL0     H11599  -0.165   2.528   9.454 -0.9431  0.8230  1.2794
  827MOL0     H11600  -0.262   2.401   9.509  0.8708 -1.2084 -1.0316
  827MOL0     H11601  -0.257   2.428   9.215  0.0788  2.8548 -0.6582
  827MOL0     H11602  -0.337   2.562   9.294 -4.0421 -0.5856 -0.7209
  827MOL0     H11603  -0.481   2.369   9.419 -0.4587  0.6723 -0.3508
  827MOL0     H11604  -0.415   2.270   9.297 -0.5627  0.0759 -1.7427
  827MOL0     H11605  -0.705   2.525   9.097 -0.0095 -0.8507 -0.0870
  827MOL0     H11606  -0.902   2.558   8.990 -0.8402 -0.7511 -0.1351
  827MOL0     H11607  -1.051   2.483   9.024  0.7762  1.7586 -2.0687
  827MOL0     H11608  -1.002   2.620   9.131 -0.5607  1.6865 -1.3125
  827MOL0     H11609  -1.299   2.479   9.527 -1.1296  0.0106  1.5865
  827MOL0     H11610  -1.551   2.518   9.541  0.4010  2.0015 -0.3033
  827MOL0     H11611  -1.788   2.471   9.187 -0.3829  0.4972 -0.9143
  827MOL0     H11612  -1.829   2.315   9.264 -0.9688  0.4475 -0.3060
  827MOL0     H11613  -1.987   2.431   9.425  0.4876  1.3819  0.3687
  827MOL0     H11614  -1.943   2.577   9.363 -0.6529 -1.1585  2.3614
  827MOL0     H11615  -2.062   2.354   9.188 -1.7763 -1.4657  2.7895
  827MOL0     H11616  -2.039   2.524   9.140 -1.5125  0.9721 -0.2276
  827MOL0     H11617  -2.230   2.439   9.367  0.4990 -1.6758 -1.3317
  827MOL0     H11618  -2.203   2.604   9.303 -0.6394  0.3403 -0.8352
  827MOL0     H11619  -2.333   2.362   9.159  1.8115 -0.6301  1.9588
  827MOL0     H11620  -2.296   2.500   9.066 -1.6142 -2.2796 -1.5014
  827MOL0     H11621  -2.534   2.478   9.155  2.0358 -3.1762  0.2191
  827MOL0     H11622  -2.465   2.508   9.322  0.8173  1.3397  1.0970
  827MOL0     H11623  -2.436   2.716   9.108  1.0570  3.2522  1.7523
  827MOL0     H11624  -2.412   2.719   9.283 -2.6241 -0.7684  1.4763
  827MOL0     H11625  -2.605   2.842   9.265 -1.4104  1.7902 -3.7003
  827MOL0     H11626  -2.662   2.684   9.309  0.4058  3.3051  1.9834
  827MOL0     H11627  -1.603   2.343   9.169 -1.7695  0.6066  0.7002
  827MOL0     H11628  -1.351   2.337   9.133 -0.5276 -1.4163  0.6478
  827MOL0     H11629  -0.908   2.238   9.434 -0.2923 -1.2483 -0.4243
  827MOL0     H11630  -0.657   2.249   9.408 -0.8709 -1.6563  0.6783
  827MOL0     H11631   1.288   2.589   9.955 -1.1985  0.5636 -0.5745
  827MOL0     H11632   1.543   2.591   9.889 -0.3566 -0.1929 -1.1234
  827MOL0     H11633   1.974   2.763   9.622  1.4412 -0.5065 -0.3195
  827MOL0     H11634   2.201   2.892   9.647  0.4382  3.5378  1.7274
  827MOL0     H11635   2.332   3.117   9.762  1.3764 -0.3500 -0.1332
  827MOL0     H11636   2.247   3.126   9.917  0.5227 -1.5927  2.0740
  827MOL0     H11637   2.464   3.115  10.046 -1.8062  0.4411 -0.1075
  827MOL0     H11638   2.478   3.235   9.925  0.6786  0.0440  1.9570
  827MOL0     H11639   2.616   3.103   9.764  0.2062 -0.8859 -0.3856
  827MOL0     H11640   2.595   2.966   9.873  1.4310 -0.3822  0.2097
  827MOL0     H11641   2.712   3.085  10.048  1.9868  1.0289  1.0214
  827MOL0     H11642   2.706   3.234   9.953 -3.6507 -1.7313  3.3241
  827MOL0     H11643   3.009   2.962   9.784  0.4090 -0.7733  0.9250
  827MOL0     H11644   2.156   2.923  10.052 -0.1884  0.4789  0.3904
  827MOL0     H11645   1.934   2.819  10.049 -2.0275  2.0217 -0.9021
  828MOL0     O11646   5.890   1.222   8.794 -0.2841  0.6372  0.4016
  828MOL0     C11647   5.949   1.253   8.692  0.3861 -0.1008 -0.4924
  828MOL0     O11648   5.884   1.295   8.583 -0.0008  0.1919  0.3907
  828MOL0     C11649   5.744   1.329   8.568 -0.6207  0.0152 -0.0899
  828MOL0     C11650   5.707   1.365   8.438 -1.2115  0.2295 -0.1903
  828MOL0     C11651   5.576   1.400   8.412  1.1581 -0.0857 -0.1506
  828MOL0     C11652   5.475   1.395   8.516  0.5378 -0.8125 -0.5834
  828MOL0     O11653   5.340   1.410   8.493  0.4139 -0.1526  0.2656
  828MOL0     C11654   5.285   1.334   8.388 -0.0114  0.0923  0.8053
  828MOL0     C11655   5.208   1.420   8.300 -0.2233  0.3349  0.4287
  828MOL0     C11656   5.064   1.451   8.349  0.1049 -0.3610 -0.1095
  828MOL0     C11657   4.961   1.356   8.288 -0.1297 -0.3002  0.3870
  828MOL0     C11658   4.817   1.381   8.336  0.5351  0.0562  0.3137
  828MOL0     C11659   4.721   1.297   8.254  0.8019  0.1703  0.6327
  828MOL0     C11660   4.569   1.297   8.306  0.2518 -0.3117  0.3688
  828MOL0     C11661   4.519   1.443   8.301 -0.1458 -0.5635 -0.6600
  828MOL0     N11662   4.376   1.446   8.336 -0.2947 -0.5018  0.5829
  828MOL0     C11663   4.275   1.401   8.254 -0.1985  0.1699 -0.7426
  828MOL0     C11664   4.163   1.415   8.329  0.4594  0.4173 -0.4823
  828MOL0     C11665   4.028   1.383   8.281 -0.6612  0.2456  0.3350
  828MOL0     C11666   3.962   1.498   8.228 -0.0289 -0.0830  0.7028
  828MOL0     C11667   3.814   1.509   8.255  0.2289  0.2425 -0.2373
  828MOL0     C11668   3.790   1.540   8.406 -1.0568 -0.7538 -0.1349
  828MOL0     O11669   3.671   1.627   8.399  0.4381  1.1830 -0.6871
  828MOL0     C11670   3.550   1.556   8.406 -0.7054 -0.3939 -0.2230
  828MOL0     C11671   3.532   1.414   8.424  0.5513  0.0186  1.4396
  828MOL0     C11672   3.403   1.360   8.407 -0.4717  0.2545 -1.0137
  828MOL0     C11673   3.392   1.211   8.411  0.0868  0.2314 -0.4905
  828MOL0     C11674   3.287   1.445   8.391 -0.3105 -0.2399 -0.0777
  828MOL0     C11675   3.150   1.399   8.365  0.4090 -0.0451  0.3451
  828MOL0     O11676   3.077   1.484   8.283  0.2013 -0.6751  0.5831
  828MOL0     C11677   2.950   1.452   8.228  0.6283 -0.1629 -0.0613
  828MOL0     C11678   2.877   1.337   8.237 -0.0682  0.9200  0.0827
  828MOL0     C11679   2.745   1.323   8.174 -0.2505 -0.0776 -0.0188
  828MOL0     C11680   2.690   1.428   8.103  0.3620 -0.0003  0.3976
  828MOL0     O11681   2.557   1.409   8.053 -0.4154  0.7380 -1.2889
  828MOL0     C11682   2.499   1.531   8.009  0.1757  0.1625  0.4267
  828MOL0     C11683   2.343   1.502   7.979 -1.2409 -0.4393 -0.7471
  828MOL0     C11684   2.268   1.617   7.925  0.6756  1.0650  0.4535
  828MOL0     C11685   2.140   1.574   7.846  0.4118 -0.0113 -0.6827
  828MOL0     C11686   2.014   1.662   7.863  0.0465 -1.1131 -0.2139
  828MOL0     C11687   1.900   1.604   7.787  0.2393  0.0015  0.1851
  828MOL0     C11688   1.783   1.693   7.770 -0.8032 -0.0727 -0.6686
  828MOL0     C11689   1.716   1.712   7.899  0.2909  0.2140 -0.7216
  828MOL0    Cl11690   1.552   1.799   7.884 -0.4344 -0.4015  0.2153
  828MOL0     C11691   2.768   1.544   8.086  0.5802  0.3886  0.0993
  828MOL0     C11692   2.893   1.552   8.146 -0.4564 -0.6642 -0.2431
  828MOL0     O11693   3.106   1.291   8.418 -0.3137 -0.0603 -0.2727
  828MOL0     C11694   3.313   1.584   8.384  0.2412  0.7085 -0.0229
  828MOL0     C11695   3.439   1.632   8.387  0.0520  0.0783  0.1865
  828MOL0     N11696   4.195   1.484   8.448 -0.4431 -0.1198 -0.3381
  828MOL0     N11697   4.327   1.507   8.445 -0.0748 -0.5511 -0.0013
  828MOL0     C11698   5.516   1.380   8.648  0.2783  0.0413 -0.2442
  828MOL0     C11699   5.651   1.334   8.672 -0.1025 -0.1845  0.4053
  828MOL0     C11700   6.096   1.235   8.683 -0.5671 -0.2954  0.3199
  828MOL0     C11701   6.165   1.251   8.561  0.1692 -0.3737 -0.6601
  828MOL0     C11702   6.304   1.235   8.562  0.7418  0.2216 -0.1372
  828MOL0     C11703   6.376   1.202   8.675 -0.5373 -0.0019  0.1674
  828MOL0     O11704   6.511   1.180   8.654 -0.6717  1.0534  0.1828
  828MOL0     C11705   6.557   1.065   8.722 -0.3227 -0.6505  0.4987
  828MOL0     C11706   6.708   1.065   8.715  0.6525  0.6838 -0.1589
  828MOL0     C11707   6.761   0.992   8.595 -0.2254 -0.1896 -0.6414
  828MOL0     C11708   6.909   1.016   8.573  0.9879 -0.2487  0.6199
  828MOL0     C11709   6.971   0.928   8.482  0.4020 -1.0209 -0.0059
  828MOL0     C11710   7.027   0.834   8.424 -0.3249 -0.2223  0.1864
  828MOL0     C11711   6.309   1.179   8.798 -0.2364 -0.4515  0.5041
  828MOL0     C11712   6.175   1.194   8.800  0.6273  0.5435  0.9704
  828MOL0     H11713   5.767   1.333   8.354 -1.6628 -1.1138 -0.0271
  828MOL0     H11714   5.552   1.429   8.311  2.4062  0.5386 -0.2940
  828MOL0     H11715   5.362   1.287   8.326 -1.4127 -0.8061 -0.3233
  828MOL0     H11716   5.220   1.258   8.430  1.1633 -1.5832 -0.2775
  828MOL0     H11717   5.265   1.513   8.287  0.4626 -0.0715  0.4777
  828MOL0     H11718   5.201   1.361   8.209  3.3212 -0.2430  0.3636
  828MOL0     H11719   5.057   1.467   8.457 -0.6809 -0.4662 -0.1343
  828MOL0     H11720   5.044   1.552   8.313  1.5591 -0.4562 -1.2696
  828MOL0     H11721   4.962   1.347   8.179  0.8803  1.1183  0.2442
  828MOL0     H11722   4.990   1.259   8.328  1.2579  0.7941  2.1729
  828MOL0     H11723   4.808   1.342   8.438  0.2955 -1.5919 -0.2971
  828MOL0     H11724   4.792   1.487   8.329 -0.9334 -0.1925  1.2009
  828MOL0     H11725   4.727   1.346   8.157  0.9662 -1.3710 -0.1684
  828MOL0     H11726   4.758   1.194   8.254 -0.4716 -0.3037  1.4824
  828MOL0     H11727   4.515   1.240   8.230  0.5959  1.7118 -1.4866
  828MOL0     H11728   4.564   1.245   8.402  0.9129  0.0976  0.6347
  828MOL0     H11729   4.526   1.496   8.206 -1.2896  0.9820  0.0679
  828MOL0     H11730   4.583   1.495   8.374 -0.0880  0.2891 -1.3103
  828MOL0     H11731   4.276   1.373   8.149 -1.8655 -1.5742 -0.3450
  828MOL0     H11732   4.038   1.301   8.210  1.4204  0.8020 -0.1108
  828MOL0     H11733   3.973   1.354   8.371 -1.5602 -0.0397 -0.3046
  828MOL0     H11734   3.982   1.490   8.121 -0.8397 -1.5690  0.6363
  828MOL0     H11735   3.999   1.590   8.275  1.8658 -1.0598  1.2307
  828MOL0     H11736   3.759   1.424   8.215 -1.2324  1.0837 -0.0868
  828MOL0     H11737   3.777   1.592   8.194 -0.5951  0.3498  0.3965
  828MOL0     H11738   3.862   1.607   8.454  1.2530 -3.1684 -0.0246
  828MOL0     H11739   3.782   1.451   8.469  0.8822  0.2486  1.6525
  828MOL0     H11740   3.615   1.347   8.442  1.1450  0.8649  1.9389
  828MOL0     H11741   3.488   1.176   8.451  0.0805 -0.3806 -1.0026
  828MOL0     H11742   3.314   1.175   8.478  1.1635  1.7503  1.6926
  828MOL0     H11743   3.383   1.164   8.313  3.5948 -0.7008 -0.5076
  828MOL0     H11744   2.917   1.251   8.290 -0.6150 -1.1163 -2.5995
  828MOL0     H11745   2.693   1.228   8.172  2.3535 -1.5882 -1.3136
  828MOL0     H11746   2.499   1.603   8.092 -1.4158 -0.2269  0.7960
  828MOL0     H11747   2.542   1.560   7.913  0.1545 -0.0801  0.3427
  828MOL0     H11748   2.333   1.415   7.913 -1.0632 -1.9828  1.1652
  828MOL0     H11749   2.288   1.475   8.070  0.4611 -0.1876  0.4136
  828MOL0     H11750   2.323   1.685   7.859  0.6768  0.9895  0.3752
  828MOL0     H11751   2.222   1.673   8.007  0.3416 -0.3986  1.3012
  828MOL0     H11752   2.166   1.572   7.740 -1.7762 -0.5114 -1.2594
  828MOL0     H11753   2.097   1.475   7.862 -3.9863  1.7117 -0.3287
  828MOL0     H11754   2.026   1.766   7.832  0.6566 -1.6557 -1.8546
  828MOL0     H11755   1.992   1.663   7.971  2.7717 -2.4444  0.4379
  828MOL0     H11756   1.937   1.570   7.690 -0.5460 -3.5662  0.9690
  828MOL0     H11757   1.862   1.513   7.834  0.7568 -0.4018 -0.1602
  828MOL0     H11758   1.709   1.640   7.709 -1.1612 -0.1192 -0.1999
  828MOL0     H11759   1.827   1.783   7.727 -0.7833 -0.2529 -1.0247
  828MOL0     H11760   1.777   1.766   7.972  1.3466  0.0861 -1.4979
  828MOL0     H11761   1.683   1.616   7.941  2.3378 -0.1846  0.1015
  828MOL0     H11762   2.737   1.630   8.027  2.6927 -0.3310 -2.2062
  828MOL0     H11763   2.948   1.642   8.120  0.4779 -0.1182  3.1097
  828MOL0     H11764   3.233   1.656   8.368  0.8647  1.2077 -1.0598
  828MOL0     H11765   3.464   1.734   8.361  2.5019 -0.4842  0.0649
  828MOL0     H11766   5.447   1.386   8.731  0.7748  1.5547  0.0825
  828MOL0     H11767   5.677   1.303   8.772 -0.3762 -3.0354 -0.3380
  828MOL0     H11768   6.107   1.280   8.474 -2.2586 -1.8409  0.3266
  828MOL0     H11769   6.355   1.257   8.469 -2.4664  1.1544 -1.8107
  828MOL0     H11770   6.531   1.057   8.828  1.0963  0.5672  0.9845
  828MOL0     H11771   6.511   0.978   8.675  0.9037 -2.4303  2.4106
  828MOL0     H11772   6.747   1.025   8.808 -0.7376  3.0767  1.5664
  828MOL0     H11773   6.739   1.168   8.695 -1.5339  1.2271 -1.0828
  828MOL0     H11774   6.705   1.032   8.511  1.0707 -0.8589 -1.8615
  828MOL0     H11775   6.737   0.885   8.594 -1.2281 -0.0201  1.1438
  828MOL0     H11776   6.955   1.012   8.672 -0.4314  0.7815  1.3732
  828MOL0     H11777   6.922   1.120   8.544  0.1636  0.0349  1.2316
  828MOL0     H11778   7.071   0.761   8.360  1.4342  1.5701 -0.7669
  828MOL0     H11779   6.361   1.173   8.893  0.3481  1.8307  0.3843
  828MOL0     H11780   6.131   1.186   8.899 -1.8284 -0.7980 -0.1468
  829MOL0     O11781   7.594   0.629   8.880  0.0946 -0.4991  0.0748
  829MOL0     C11782   7.695   0.642   8.952  0.3840  0.2238  0.1928
  829MOL0     O11783   7.732   0.759   9.010  0.2889 -0.5012  0.5977
  829MOL0     C11784   7.637   0.851   9.027  1.0485  0.7627 -0.4963
  829MOL0     C11785   7.648   0.973   8.957 -0.4322  0.4388  0.2566
  829MOL0     C11786   7.563   1.080   8.985 -1.6068 -0.6107 -0.7546
  829MOL0     C11787   7.458   1.071   9.076  0.1582 -0.5165  0.1223
  829MOL0     O11788   7.372   1.175   9.101  0.0294 -0.0844  0.2099
  829MOL0     C11789   7.289   1.169   9.217  0.3229 -1.2696 -0.6814
  829MOL0     C11790   7.241   1.312   9.254 -0.7097 -0.1655  0.3804
  829MOL0     C11791   7.145   1.325   9.368  0.1415  0.0154 -0.4282
  829MOL0     C11792   7.089   1.470   9.379  0.0929  0.3587 -0.3006
  829MOL0     C11793   7.186   1.560   9.456 -0.4269  0.6862  0.3928
  829MOL0     C11794   7.175   1.706   9.418 -0.3613 -0.1201 -0.4661
  829MOL0     C11795   7.061   1.781   9.490  0.1281  0.2640  0.4422
  829MOL0     C11796   7.048   1.931   9.447  0.2397  0.3300  0.1855
  829MOL0     N11797   6.942   2.003   9.515 -0.0411 -0.3843  0.2333
  829MOL0     C11798   6.928   2.016   9.650  0.1653  1.1683 -0.6837
  829MOL0     C11799   6.829   2.103   9.676  0.2109  0.0862  0.3230
  829MOL0     C11800   6.804   2.181   9.801 -0.2753 -0.0351 -0.8112
  829MOL0     C11801   6.738   2.317   9.777 -0.3649 -0.4810 -0.2802
  829MOL0     C11802   6.722   2.397   9.908 -0.1522  0.6449 -0.2710
  829MOL0     C11803   6.604   2.364  10.009 -0.9299 -0.4647  1.2829
  829MOL0     O11804   6.615   2.462  10.111 -0.2424  1.0850 -0.3332
  829MOL0     C11805   6.495   2.489  10.177 -1.2282 -0.4343 -0.2593
  829MOL0     C11806   6.422   2.598  10.131 -0.0720 -0.8619 -0.4364
  829MOL0     C11807   6.293   2.634  10.173  0.0155 -0.7330  0.2930
  829MOL0     C11808   6.217   2.730  10.084 -0.2400 -0.5603 -0.3450
  829MOL0     C11809   6.244   2.550  10.275  1.0194 -0.4737  0.6620
  829MOL0     C11810   6.104   2.574  10.328  0.1070  0.6680  0.7390
  829MOL0     O11811   6.010   2.620  10.244  0.3145 -0.2426  0.4195
  829MOL0     C11812   5.879   2.603  10.281  0.4104 -1.0432  0.0696
  829MOL0     C11813   5.825   2.529  10.383  0.2934 -0.7575 -0.4234
  829MOL0     C11814   5.691   2.550  10.418 -0.2017  0.4087  0.0550
  829MOL0     C11815   5.600   2.627  10.333 -0.8122  1.2562  0.6607
  829MOL0     O11816   5.470   2.650  10.359  0.4939  0.6011 -0.7536
  829MOL0     C11817   5.398   2.530  10.390  1.0743  0.1589 -0.0036
  829MOL0     C11818   5.305   2.573  10.509  0.3797 -0.3085  0.1472
  829MOL0     C11819   5.221   2.456  10.570  0.1106  0.1965 -0.0316
  829MOL0     C11820   5.099   2.423  10.493 -0.0728 -1.0333  0.2900
  829MOL0     C11821   5.022   2.303  10.544 -0.2828  0.4288  0.1423
  829MOL0     C11822   4.877   2.288  10.496 -0.6648 -0.2936 -0.3102
  829MOL0     C11823   4.786   2.393  10.547  0.4997 -0.4959  0.6725
  829MOL0     C11824   4.641   2.342  10.526  0.0229 -0.4701  0.4255
  829MOL0    Cl11825   4.527   2.448  10.607 -0.1342  0.1534 -0.0045
  829MOL0     C11826   5.657   2.683  10.224 -0.4070 -0.5055  1.1125
  829MOL0     C11827   5.793   2.677  10.198 -0.2864 -0.2261 -0.6983
  829MOL0     O11828   6.100   2.561  10.446 -0.0717  0.4266 -0.3472
  829MOL0     C11829   6.313   2.448  10.324  0.5360 -0.0065 -0.1916
  829MOL0     C11830   6.447   2.408  10.280  0.5116 -1.5363 -0.1722
  829MOL0     N11831   6.771   2.127   9.556  0.0748 -0.4685 -0.5147
  829MOL0     N11832   6.835   2.064   9.466 -1.2699 -0.2723 -0.2635
  829MOL0     C11833   7.449   0.946   9.139  0.3562 -0.1670  0.0975
  829MOL0     C11834   7.540   0.837   9.125  0.8940  0.3120 -0.7225
  829MOL0     C11835   7.799   0.532   8.944 -0.2161 -0.8890  0.3197
  829MOL0     C11836   7.776   0.418   8.863 -0.6112 -0.7272  0.3785
  829MOL0     C11837   7.876   0.319   8.841  0.1278  0.0921 -0.0044
  829MOL0     C11838   8.005   0.339   8.890 -0.4693 -0.5902  0.3965
  829MOL0     O11839   8.094   0.246   8.845  0.3616  0.4290  0.6227
  829MOL0     C11840   8.238   0.259   8.858  0.7006 -0.0836 -0.6668
  829MOL0     C11841   8.303   0.124   8.823  0.9080  0.3762 -0.4086
  829MOL0     C11842   8.452   0.128   8.864  0.2771 -0.0120 -0.5680
  829MOL0     C11843   8.506  -0.016   8.874 -0.8160 -0.4655  0.0429
  829MOL0     C11844   8.655  -0.021   8.839  0.1113 -0.1540  0.4679
  829MOL0     C11845   8.768  -0.019   8.803 -0.0286  0.1453 -0.5155
  829MOL0     C11846   8.021   0.454   8.973 -1.1335  0.6908 -0.1858
  829MOL0     C11847   7.921   0.548   9.004 -0.1532  0.6248  0.7269
  829MOL0     H11848   7.731   0.977   8.888  1.4864 -1.4078  2.3284
  829MOL0     H11849   7.582   1.182   8.951  1.8631 -0.9225 -0.1729
  829MOL0     H11850   7.200   1.109   9.194  1.4033 -3.7609  1.2425
  829MOL0     H11851   7.339   1.125   9.303  0.6765 -5.1751 -2.6755
  829MOL0     H11852   7.325   1.382   9.256 -1.1970  0.4476 -0.2666
  829MOL0     H11853   7.196   1.352   9.163  1.3970 -0.1834 -0.7213
  829MOL0     H11854   7.065   1.255   9.346 -1.6779  1.6866  0.5494
  829MOL0     H11855   7.195   1.287   9.458 -0.4548 -0.4449 -0.2881
  829MOL0     H11856   7.061   1.505   9.279 -2.8890 -2.2755 -0.5541
  829MOL0     H11857   6.997   1.458   9.437 -0.0081 -4.2557 -1.0602
  829MOL0     H11858   7.186   1.538   9.563  3.6767 -1.7835  0.0827
  829MOL0     H11859   7.286   1.520   9.437 -0.3450  1.2212 -0.3257
  829MOL0     H11860   7.267   1.748   9.460  0.3561 -2.4425  0.4668
  829MOL0     H11861   7.178   1.716   9.309 -2.2009 -1.7305 -0.7160
  829MOL0     H11862   6.965   1.733   9.470  1.6035 -1.8302 -2.2982
  829MOL0     H11863   7.086   1.790   9.596  3.0671 -1.3385  0.0070
  829MOL0     H11864   7.044   1.936   9.338  1.8554  0.7850  0.1209
  829MOL0     H11865   7.140   1.986   9.467 -0.2439  1.8221 -1.3874
  829MOL0     H11866   6.987   1.967   9.728 -1.8074 -1.6847 -0.8244
  829MOL0     H11867   6.731   2.123   9.858 -0.7194  0.2827 -1.0521
  829MOL0     H11868   6.901   2.185   9.852 -0.6954  0.0702 -0.0011
  829MOL0     H11869   6.644   2.302   9.722 -1.3416 -0.0162  1.2219
  829MOL0     H11870   6.793   2.378   9.704 -1.8273  0.5334 -0.5723
  829MOL0     H11871   6.711   2.502   9.879  1.2992  1.0464  0.5218
  829MOL0     H11872   6.817   2.385   9.961 -0.2853 -2.0639 -0.4935
  829MOL0     H11873   6.591   2.259  10.038  0.3552 -0.6074  1.3911
  829MOL0     H11874   6.513   2.388   9.954 -1.9597  0.2786  3.2029
  829MOL0     H11875   6.452   2.646  10.039 -1.2620  1.0558  0.1261
  829MOL0     H11876   6.284   2.775  10.010  3.5983  0.4206  3.2919
  829MOL0     H11877   6.138   2.678  10.030  0.7523 -3.6003  0.9016
  829MOL0     H11878   6.184   2.812  10.148  2.5578  2.5887 -2.6172
  829MOL0     H11879   5.883   2.458  10.440 -2.7402 -2.0783  1.2306
  829MOL0     H11880   5.654   2.506  10.510  2.6875  0.0737  1.1530
  829MOL0     H11881   5.343   2.510  10.297  2.8515  1.0839 -1.3216
  829MOL0     H11882   5.450   2.438  10.416 -1.7680 -1.6343 -0.2121
  829MOL0     H11883   5.374   2.612  10.585 -0.4672  0.8962  0.3262
  829MOL0     H11884   5.233   2.651  10.485  0.5935 -0.0876  0.2248
  829MOL0     H11885   5.191   2.479  10.672 -0.1170  2.5914 -0.5846
  829MOL0     H11886   5.279   2.363  10.574  3.2210  2.0095  2.7760
  829MOL0     H11887   5.031   2.509  10.495 -0.9354 -1.7123  1.3148
  829MOL0     H11888   5.121   2.402  10.388  1.5525 -2.0787  0.8033
  829MOL0     H11889   5.013   2.307  10.653  0.9415  1.3225  0.2358
  829MOL0     H11890   5.075   2.211  10.515  0.1766 -0.1460  2.5693
  829MOL0     H11891   4.885   2.293  10.387 -1.6476  0.4296 -0.3604
  829MOL0     H11892   4.835   2.190  10.523 -0.7454 -0.2832 -0.3968
  829MOL0     H11893   4.787   2.484  10.486 -2.1201 -0.0007  1.2459
  829MOL0     H11894   4.799   2.425  10.650 -2.2908 -0.8902  1.2143
  829MOL0     H11895   4.626   2.245  10.575  0.0667  1.3325  4.3448
  829MOL0     H11896   4.625   2.341  10.418  2.8629  2.7068 -0.2042
  829MOL0     H11897   5.593   2.727  10.148 -0.2833 -0.5821  0.9633
  829MOL0     H11898   5.842   2.715  10.109  2.2002  2.9551  1.7500
  829MOL0     H11899   6.264   2.394  10.405 -1.6193 -0.1551 -1.5215
  829MOL0     H11900   6.511   2.326  10.311  1.3734 -1.0132 -0.5477
  829MOL0     H11901   7.372   0.944   9.216  1.7571 -2.0097  1.5360
  829MOL0     H11902   7.527   0.751   9.190 -1.4003  0.2274 -1.2080
  829MOL0     H11903   7.680   0.412   8.812 -1.1450  0.7660  1.1602
  829MOL0     H11904   7.846   0.243   8.769 -0.4941 -0.6605  1.0290
  829MOL0     H11905   8.276   0.336   8.790  5.1503 -1.7874 -0.3940
  829MOL0     H11906   8.260   0.290   8.960 -1.8216 -2.4584  0.7394
  829MOL0     H11907   8.290   0.107   8.715  1.7025  0.7230 -0.5709
  829MOL0     H11908   8.252   0.047   8.880  1.3158 -0.1898 -0.7919
  829MOL0     H11909   8.458   0.179   8.960 -0.0916 -0.6297 -0.2108
  829MOL0     H11910   8.504   0.197   8.798  0.9633  0.0171 -0.0083
  829MOL0     H11911   8.454  -0.080   8.803 -1.2503 -0.1680  0.0921
  829MOL0     H11912   8.490  -0.057   8.974  0.6528 -0.8408  0.1449
  829MOL0     H11913   8.870  -0.008   8.773  0.1996  1.1648  0.5449
  829MOL0     H11914   8.123   0.466   9.010 -0.5829 -1.3474 -0.8687
  829MOL0     H11915   7.943   0.641   9.056 -1.2676  0.1556  2.0904
  830MOL0     O11916   1.041   1.247   7.977  0.0576  0.3464 -0.0606
  830MOL0     C11917   0.926   1.262   7.931 -0.9780 -0.3002  0.0608
  830MOL0     O11918   0.880   1.192   7.825 -0.5433 -0.4359  0.0386
  830MOL0     C11919   0.962   1.136   7.731  0.2468 -0.2234  0.1443
  830MOL0     C11920   1.060   1.214   7.669 -0.0707 -0.2653  0.2351
  830MOL0     C11921   1.136   1.156   7.561  0.3357 -0.3588 -0.3595
  830MOL0     C11922   1.108   1.029   7.511 -0.0982  0.3411 -0.4635
  830MOL0     O11923   1.193   0.972   7.417  0.4399 -0.1441 -0.5626
  830MOL0     C11924   1.329   0.953   7.456 -0.4704 -0.3091 -0.2708
  830MOL0     C11925   1.336   0.830   7.548 -0.7085 -0.6719  0.5654
  830MOL0     C11926   1.478   0.823   7.624  0.5862 -0.2239  0.6859
  830MOL0     C11927   1.595   0.780   7.532  0.0186 -0.7622 -0.3098
  830MOL0     C11928   1.739   0.813   7.593 -0.7345  0.5418 -0.8997
  830MOL0     C11929   1.760   0.727   7.717  0.0940  0.3601  0.4295
  830MOL0     C11930   1.903   0.734   7.765 -0.4033 -0.0419 -0.6319
  830MOL0     C11931   1.929   0.654   7.898 -0.7712  0.6152  0.1848
  830MOL0     N11932   1.876   0.727   8.010  0.0798 -0.0388 -0.0955
  830MOL0     C11933   1.936   0.847   8.057 -0.0561  0.0365  0.2601
  830MOL0     C11934   1.882   0.873   8.170 -1.0486 -0.3013  0.0905
  830MOL0     C11935   1.903   0.998   8.253 -0.1023 -0.6407  0.1094
  830MOL0     C11936   1.863   1.134   8.182 -0.3995 -0.6772 -1.0892
  830MOL0     C11937   1.726   1.141   8.114  0.0682  0.5423  0.7691
  830MOL0     C11938   1.611   1.094   8.200 -0.5306 -0.1634  0.2002
  830MOL0     O11939   1.481   1.112   8.137  0.3728  0.0432 -0.6708
  830MOL0     C11940   1.414   1.012   8.070 -0.7068  0.0851 -0.4504
  830MOL0     C11941   1.468   0.886   8.059 -0.3700 -1.1408 -0.9661
  830MOL0     C11942   1.408   0.790   7.981  0.9163 -0.6110 -0.0618
  830MOL0     C11943   1.465   0.648   8.000  0.4877 -0.3032 -0.0007
  830MOL0     C11944   1.283   0.823   7.919  0.0704  0.2115 -0.2877
  830MOL0     C11945   1.198   0.717   7.852  0.6302 -0.2157 -0.1542
  830MOL0     O11946   1.059   0.749   7.854 -0.0564  0.2790  0.6525
  830MOL0     C11947   0.968   0.661   7.794 -0.1356  0.3222  0.5356
  830MOL0     C11948   0.849   0.637   7.864  0.3746  0.5875 -0.1929
  830MOL0     C11949   0.749   0.556   7.811 -0.7201 -0.2087 -0.3784
  830MOL0     C11950   0.764   0.507   7.677 -0.9065  0.4784  0.5248
  830MOL0     O11951   0.672   0.428   7.604 -0.1334  0.1464  0.0341
  830MOL0     C11952   0.547   0.406   7.651 -0.2697  0.2327 -0.1821
  830MOL0     C11953   0.551   0.292   7.752  0.4066  0.0623  0.6146
  830MOL0     C11954   0.432   0.290   7.840 -0.1908  0.1852  0.3616
  830MOL0     C11955   0.294   0.313   7.768 -0.3766  0.7433  0.6525
  830MOL0     C11956   0.177   0.281   7.856 -0.6973 -0.2486  0.4291
  830MOL0     C11957   0.053   0.283   7.773 -0.0034 -0.0109 -0.6381
  830MOL0     C11958  -0.060   0.213   7.841  0.6939 -0.3254  0.6721
  830MOL0     C11959  -0.204   0.261   7.796 -0.0550 -0.9330 -0.1621
  830MOL0    Cl11960  -0.342   0.171   7.876  0.0066  0.4067  0.1092
  830MOL0     C11961   0.876   0.539   7.610 -0.8264  0.2308 -0.0079
  830MOL0     C11962   0.983   0.615   7.663  0.0448 -0.1427 -1.0151
  830MOL0     O11963   1.249   0.617   7.806 -0.0521 -0.2997  0.2491
  830MOL0     C11964   1.235   0.959   7.924 -0.7255  1.1254 -0.3541
  830MOL0     C11965   1.293   1.048   8.017 -0.8641  0.3149  0.9152
  830MOL0     N11966   1.795   0.770   8.205 -0.7344  0.5396  0.2262
  830MOL0     N11967   1.796   0.689   8.109  0.8326 -0.1689 -0.1097
  830MOL0     C11968   1.003   0.958   7.572  0.2296  0.3710  0.5593
  830MOL0     C11969   0.932   1.013   7.683 -0.5786  1.1154  0.0239
  830MOL0     C11970   0.838   1.358   7.992  1.5828 -0.1926 -0.6457
  830MOL0     C11971   0.713   1.388   7.930 -0.7435 -0.7345 -0.2621
  830MOL0     C11972   0.623   1.475   7.987 -0.2115  0.0147 -0.4344
  830MOL0     C11973   0.645   1.530   8.120  0.2757  0.9750  0.3088
  830MOL0     O11974   0.551   1.605   8.176  0.3535  0.2617  0.9990
  830MOL0     C11975   0.584   1.681   8.293 -0.3807 -0.2330 -0.1912
  830MOL0     C11976   0.466   1.774   8.339 -0.2925 -0.4619 -0.1404
  830MOL0     C11977   0.490   1.850   8.468 -0.1246  1.2056 -0.7416
  830MOL0     C11978   0.508   1.761   8.589 -0.4435 -0.4970 -0.4638
  830MOL0     C11979   0.388   1.687   8.616 -0.7745  0.2091 -0.9085
  830MOL0     C11980   0.290   1.633   8.668 -0.4139 -0.5902  0.1730
  830MOL0     C11981   0.768   1.501   8.186  0.1840  0.0132 -0.2354
  830MOL0     C11982   0.857   1.420   8.119  0.1060 -0.1537  0.4957
  830MOL0     H11983   1.073   1.315   7.706  1.5980 -0.2678 -0.2494
  830MOL0     H11984   1.213   1.215   7.514 -1.2920  5.0836  2.9133
  830MOL0     H11985   1.397   0.951   7.370 -1.7710  2.1235 -1.4515
  830MOL0     H11986   1.371   1.033   7.519  0.1926 -0.3190 -0.6817
  830MOL0     H11987   1.258   0.827   7.624 -6.5177  0.3314 -4.5680
  830MOL0     H11988   1.315   0.739   7.490  1.3583 -2.1064  1.9218
  830MOL0     H11989   1.484   0.929   7.653 -6.1851  0.6796  0.4654
  830MOL0     H11990   1.476   0.754   7.708  1.6381 -2.3552 -0.9552
  830MOL0     H11991   1.591   0.673   7.511  1.1180 -1.2030  1.4243
  830MOL0     H11992   1.581   0.834   7.439  0.9498 -1.7214 -1.0361
  830MOL0     H11993   1.812   0.798   7.513  0.0683 -1.0296  0.0745
  830MOL0     H11994   1.749   0.920   7.612  0.1558  1.4223 -5.2272
  830MOL0     H11995   1.696   0.767   7.797 -1.3209  1.5497 -1.2161
  830MOL0     H11996   1.735   0.622   7.698  1.3972 -0.2261  1.7027
  830MOL0     H11997   1.958   0.692   7.681 -3.5078  0.3787 -3.0402
  830MOL0     H11998   1.930   0.840   7.776 -0.6583 -0.1205  1.0995
  830MOL0     H11999   2.037   0.639   7.909 -0.9033 -0.3744  0.2358
  830MOL0     H12000   1.880   0.556   7.902 -0.2162  0.3716  2.2073
  830MOL0     H12001   1.996   0.918   8.002 -1.0013 -0.0037 -0.8697
  830MOL0     H12002   1.844   0.989   8.345  1.5846  0.9267  1.4334
  830MOL0     H12003   2.010   1.000   8.276 -0.1254 -1.7240  0.3863
  830MOL0     H12004   1.945   1.163   8.115  1.2081 -1.6494  0.3493
  830MOL0     H12005   1.858   1.216   8.254  2.1018 -0.9340 -0.5104
  830MOL0     H12006   1.729   1.079   8.024  3.0532 -0.0894  1.2056
  830MOL0     H12007   1.706   1.244   8.081 -1.4815 -0.3403 -1.2417
  830MOL0     H12008   1.620   1.150   8.294  3.5419  2.8956 -1.7081
  830MOL0     H12009   1.630   0.992   8.235 -3.1261 -1.3914 -1.6658
  830MOL0     H12010   1.562   0.854   8.104 -0.5667  0.2132  0.4600
  830MOL0     H12011   1.388   0.570   8.003  1.3548 -1.2051 -0.4022
  830MOL0     H12012   1.523   0.630   7.909 -1.0684  3.9710 -2.1071
  830MOL0     H12013   1.520   0.638   8.094  1.6611 -1.9068 -0.7965
  830MOL0     H12014   0.845   0.687   7.961  0.7628  0.2022  0.0261
  830MOL0     H12015   0.663   0.544   7.876 -0.3010  3.5911  1.1357
  830MOL0     H12016   0.500   0.495   7.693  0.0306 -0.6816  2.2364
  830MOL0     H12017   0.489   0.375   7.563 -0.5546  0.3112 -0.0226
  830MOL0     H12018   0.558   0.199   7.696 -0.3735  0.6568 -0.5064
  830MOL0     H12019   0.634   0.313   7.821 -1.0221 -0.8536  2.7112
  830MOL0     H12020   0.453   0.364   7.917  0.6731 -0.2659  0.5665
  830MOL0     H12021   0.431   0.193   7.890 -1.0862 -0.6194 -1.1157
  830MOL0     H12022   0.283   0.413   7.726  0.5193  0.5169 -0.1564
  830MOL0     H12023   0.282   0.247   7.682 -2.1279  2.2109 -0.2855
  830MOL0     H12024   0.179   0.349   7.941  1.8096  0.6347 -0.2458
  830MOL0     H12025   0.193   0.180   7.897 -2.4457 -0.7034  0.0610
  830MOL0     H12026   0.028   0.387   7.751 -2.3975  0.6000  3.7337
  830MOL0     H12027   0.070   0.234   7.676  0.7908 -2.3583  0.6136
  830MOL0     H12028  -0.057   0.225   7.949 -2.4902  0.7811  0.7465
  830MOL0     H12029  -0.068   0.105   7.828  1.0910 -0.9562  4.5876
  830MOL0     H12030  -0.211   0.236   7.690  0.1748  3.6497 -1.4615
  830MOL0     H12031  -0.209   0.367   7.820 -0.2060 -1.3857  2.0372
  830MOL0     H12032   0.889   0.500   7.509  1.9486 -0.4024  0.5295
  830MOL0     H12033   1.071   0.648   7.609  2.3141 -0.4401  2.2069
  830MOL0     H12034   1.134   0.972   7.885 -1.0908 -1.7386 -0.6125
  830MOL0     H12035   1.255   1.144   8.049  1.8503  0.8751  2.7408
  830MOL0     H12036   0.970   0.868   7.522 -0.9311  0.4015  1.2486
  830MOL0     H12037   0.852   0.952   7.723 -0.8306  0.0964 -1.8955
  830MOL0     H12038   0.682   1.342   7.837 -2.8713  1.1022 -0.5594
  830MOL0     H12039   0.533   1.504   7.933 -0.0598  3.1799  0.8001
  830MOL0     H12040   0.601   1.615   8.378  3.5036  2.1096  1.1255
  830MOL0     H12041   0.671   1.747   8.280  0.3975 -1.1619  0.1651
  830MOL0     H12042   0.377   1.712   8.343 -1.0734  0.6949  1.1852
  830MOL0     H12043   0.466   1.851   8.260 -1.6698 -0.2114  0.0903
  830MOL0     H12044   0.409   1.923   8.483 -2.4909 -1.2605 -0.7758
  830MOL0     H12045   0.589   1.896   8.461  1.2865 -1.5712 -0.1642
  830MOL0     H12046   0.554   1.822   8.667  0.8988 -1.2719 -0.6182
  830MOL0     H12047   0.589   1.688   8.579 -0.7804 -0.8817 -0.4377
  830MOL0     H12048   0.198   1.592   8.703  0.6146 -1.3278  2.1962
  830MOL0     H12049   0.808   1.536   8.280  1.7270 -1.1894 -0.4066
  830MOL0     H12050   0.953   1.398   8.164  0.3262  1.1760  0.7049
  831MOL0     O12051  10.267   7.415   9.996  0.8247  0.1700  0.0506
  831MOL0     C12052  10.328   7.495   9.934  0.2326  0.5253  0.3306
  831MOL0     O12053  10.281   7.586   9.843  0.1850  0.1417  0.1196
  831MOL0     C12054  10.145   7.578   9.822 -0.4127 -0.1634  0.3849
  831MOL0     C12055  10.085   7.493   9.733  0.8374 -0.2743 -0.0768
  831MOL0     C12056   9.944   7.473   9.736  0.6238 -0.6469  0.5863
  831MOL0     C12057   9.865   7.531   9.829 -0.0986  0.0452  0.8759
  831MOL0     O12058   9.722   7.523   9.818  0.6189  0.1131 -1.0199
  831MOL0     C12059   9.655   7.648   9.833 -0.5443 -0.5937 -0.4512
  831MOL0     C12060   9.508   7.648   9.785 -0.1008 -0.0150  0.4462
  831MOL0     C12061   9.475   7.588   9.650 -0.0056 -0.1817 -0.4043
  831MOL0     C12062   9.321   7.622   9.612 -0.3322  0.2843  0.5474
  831MOL0     C12063   9.293   7.611   9.453 -0.4510  0.2474  0.9833
  831MOL0     C12064   9.299   7.472   9.403 -0.7363  0.8115 -0.7319
  831MOL0     C12065   9.320   7.454   9.249  0.7488  0.1330 -0.2178
  831MOL0     C12066   9.191   7.477   9.170 -0.2499 -0.2081  0.3566
  831MOL0     N12067   9.092   7.366   9.165  0.0859  0.2974  0.0947
  831MOL0     C12068   8.953   7.379   9.136  0.3091  0.3611  0.1286
  831MOL0     C12069   8.907   7.248   9.142 -0.0390  0.8082  0.0996
  831MOL0     C12070   8.773   7.193   9.103  0.7088  0.1382  0.4788
  831MOL0     C12071   8.664   7.233   9.195  1.1229 -0.7027  0.8299
  831MOL0     C12072   8.523   7.216   9.132 -0.0784  0.1050 -0.8710
  831MOL0     C12073   8.418   7.251   9.238 -0.8187  0.3335  0.2479
  831MOL0     O12074   8.297   7.228   9.170  0.0835 -0.0911  0.3946
  831MOL0     C12075   8.182   7.228   9.247 -0.2151 -0.0553  0.6786
  831MOL0     C12076   8.159   7.191   9.377 -1.1817  0.2698  0.2912
  831MOL0     C12077   8.026   7.190   9.426  0.6188  0.1540  0.0364
  831MOL0     C12078   8.018   7.187   9.574 -0.2970 -0.4745 -0.8094
  831MOL0     C12079   7.910   7.218   9.347 -0.3169  0.5958  0.5771
  831MOL0     C12080   7.761   7.208   9.389 -0.7008 -0.0253  0.8742
  831MOL0     O12081   7.669   7.269   9.305  0.0512 -0.7205  0.3294
  831MOL0     C12082   7.528   7.273   9.304  0.1436 -0.0826  0.7249
  831MOL0     C12083   7.444   7.185   9.388  0.1247 -0.2476 -0.1440
  831MOL0     C12084   7.307   7.209   9.384 -0.3570  0.1177  0.1002
  831MOL0     C12085   7.247   7.310   9.305  0.3923 -0.4887  0.1676
  831MOL0     O12086   7.117   7.346   9.312  0.3538  0.1704 -0.9060
  831MOL0     C12087   7.028   7.263   9.385  0.2085 -0.0277 -0.3204
  831MOL0     C12088   7.024   7.295   9.542 -0.4132  0.6950 -0.2768
  831MOL0     C12089   6.933   7.412   9.575 -0.4993 -1.1098  0.0558
  831MOL0     C12090   6.939   7.446   9.721  0.2389 -0.3388  0.6476
  831MOL0     C12091   6.812   7.516   9.775 -1.4694 -0.1112 -0.1933
  831MOL0     C12092   6.761   7.643   9.692 -0.0030 -0.4407 -0.5535
  831MOL0     C12093   6.646   7.707   9.768  0.2023 -0.1178 -0.0866
  831MOL0     C12094   6.562   7.820   9.695  0.2330 -0.4625  0.0293
  831MOL0    Cl12095   6.453   7.855   9.827  0.1458 -0.3517 -0.2545
  831MOL0     C12096   7.337   7.391   9.228 -0.0490  0.8012 -0.1330
  831MOL0     C12097   7.469   7.370   9.226 -0.4548 -0.9388 -0.0890
  831MOL0     O12098   7.733   7.149   9.491 -0.3150 -0.1015 -0.4170
  831MOL0     C12099   7.938   7.256   9.215 -0.1089  0.9369  0.1138
  831MOL0     C12100   8.072   7.257   9.162  0.4106  0.8114 -1.0592
  831MOL0     N12101   9.013   7.166   9.173 -0.2967  0.4298  0.3043
  831MOL0     N12102   9.116   7.244   9.188 -0.4173  0.6534  0.1630
  831MOL0     C12103   9.926   7.599   9.936 -0.6843 -0.6240 -0.5673
  831MOL0     C12104  10.064   7.631   9.928  0.2009 -0.1690 -0.1081
  831MOL0     C12105  10.478   7.506   9.950 -0.0071  0.2737  0.3497
  831MOL0     C12106  10.548   7.462  10.067  0.2181  0.1651  0.8206
  831MOL0     C12107  10.681   7.480  10.079  0.8145  0.3091  0.1161
  831MOL0     C12108  10.754   7.550   9.990 -0.2941 -0.4675  0.3943
  831MOL0     O12109  10.889   7.563  10.011  0.2174  0.2597 -0.4532
  831MOL0     C12110  10.966   7.671   9.957  0.4938 -0.1853  0.3550
  831MOL0     C12111  11.103   7.682  10.021  0.0228 -0.7004 -0.4349
  831MOL0     C12112  11.093   7.736  10.175  0.0259 -0.1407  0.2440
  831MOL0     C12113  11.229   7.758  10.229  0.1494  0.0071  0.4978
  831MOL0     C12114  11.326   7.655  10.196  0.1122  0.5016 -0.1711
  831MOL0     C12115  11.401   7.563  10.157 -0.3723 -0.1391  0.1566
  831MOL0     C12116  10.688   7.593   9.870  0.1204  0.0790 -0.3147
  831MOL0     C12117  10.553   7.573   9.853  0.2007 -0.1893 -0.3516
  831MOL0     H12118  10.145   7.437   9.661  0.0647 -2.0578  0.6138
  831MOL0     H12119   9.895   7.404   9.668 -0.6397  1.4147 -0.7018
  831MOL0     H12120   9.667   7.682   9.936  1.0705 -0.9498 -0.5049
  831MOL0     H12121   9.698   7.720   9.762  0.5281 -0.3049  0.4560
  831MOL0     H12122   9.456   7.587   9.859 -1.7358  0.5310 -0.2155
  831MOL0     H12123   9.477   7.752   9.794  2.8747  0.9281  1.2156
  831MOL0     H12124   9.540   7.619   9.568 -0.7766  2.7224 -0.0592
  831MOL0     H12125   9.485   7.480   9.664  4.0630  0.2631  1.7556
  831MOL0     H12126   9.256   7.554   9.667  0.1603 -0.1071  0.6573
  831MOL0     H12127   9.310   7.725   9.648  1.4937  2.1051 -3.4200
  831MOL0     H12128   9.196   7.651   9.423 -0.7938 -2.4819 -2.1045
  831MOL0     H12129   9.365   7.671   9.397 -0.0783 -0.3800  0.7843
  831MOL0     H12130   9.379   7.413   9.448 -1.3338 -0.6342 -1.4883
  831MOL0     H12131   9.204   7.422   9.425  0.3210 -0.7858  0.4385
  831MOL0     H12132   9.398   7.524   9.222  1.2228  0.1331  1.0831
  831MOL0     H12133   9.359   7.353   9.232  0.2137 -0.5072  1.9806
  831MOL0     H12134   9.214   7.521   9.073  4.3367  1.8162  2.0835
  831MOL0     H12135   9.135   7.565   9.205  1.2509  1.6219 -1.6268
  831MOL0     H12136   8.892   7.462   9.101 -1.6933 -0.9178  0.4170
  831MOL0     H12137   8.741   7.216   9.001 -0.6284  0.7121  1.0097
  831MOL0     H12138   8.777   7.084   9.093 -0.8349  0.0123  1.0301
  831MOL0     H12139   8.684   7.337   9.220 -0.4669 -0.7032  2.2676
  831MOL0     H12140   8.674   7.187   9.294  0.7030 -0.7501  0.8532
  831MOL0     H12141   8.503   7.118   9.089 -0.2230 -0.2230 -0.0668
  831MOL0     H12142   8.522   7.291   9.052  0.8983 -0.0793 -1.0681
  831MOL0     H12143   8.421   7.358   9.261 -2.0688 -0.0641  2.6256
  831MOL0     H12144   8.430   7.188   9.327 -1.6626 -0.4739 -0.2005
  831MOL0     H12145   8.249   7.162   9.431 -0.5301  0.8791 -0.4408
  831MOL0     H12146   8.093   7.254   9.619 -0.2666 -2.5741  2.6208
  831MOL0     H12147   7.931   7.221   9.630  2.1684  0.4800  2.8182
  831MOL0     H12148   8.032   7.087   9.616  3.3501  1.2449  2.8849
  831MOL0     H12149   7.489   7.121   9.463 -0.6713 -0.1425  0.4335
  831MOL0     H12150   7.253   7.145   9.454 -1.6871  0.5240 -0.5342
  831MOL0     H12151   6.927   7.283   9.350 -0.6287 -0.5967  1.6268
  831MOL0     H12152   7.055   7.158   9.374 -0.3958 -0.3367  1.0075
  831MOL0     H12153   6.988   7.203   9.590  0.4186  0.1574 -0.6385
  831MOL0     H12154   7.122   7.315   9.588 -0.9924  2.7006  0.1650
  831MOL0     H12155   6.830   7.393   9.543  0.1993 -4.8405 -0.4570
  831MOL0     H12156   6.959   7.497   9.512 -0.5983 -1.5825 -0.6361
  831MOL0     H12157   6.958   7.356   9.780 -1.0684  0.1789  1.9294
  831MOL0     H12158   7.019   7.518   9.739 -0.0764 -0.0777  1.0379
  831MOL0     H12159   6.839   7.541   9.878  2.8250 -0.2679 -1.0996
  831MOL0     H12160   6.733   7.441   9.788 -1.7769  0.3969  0.9528
  831MOL0     H12161   6.842   7.716   9.683  0.0459 -0.3596  0.4319
  831MOL0     H12162   6.724   7.611   9.594 -0.8224  1.6775 -0.9909
  831MOL0     H12163   6.690   7.738   9.863 -0.0245 -1.9206  0.6462
  831MOL0     H12164   6.570   7.630   9.784 -0.1596  0.3695  0.5885
  831MOL0     H12165   6.513   7.776   9.608  0.5726 -1.4877  0.3428
  831MOL0     H12166   6.622   7.905   9.661 -0.1179 -1.4110 -3.3372
  831MOL0     H12167   7.301   7.460   9.153  1.6282  0.4653 -1.2953
  831MOL0     H12168   7.531   7.433   9.163  0.0108 -1.3218 -0.0243
  831MOL0     H12169   7.853   7.280   9.152 -1.1015  1.7006  1.6576
  831MOL0     H12170   8.079   7.264   9.054  0.6084 -0.3355 -1.1415
  831MOL0     H12171   9.881   7.624  10.032 -0.4941  2.7689 -1.2465
  831MOL0     H12172  10.120   7.677  10.009  1.8204 -2.1906  0.0045
  831MOL0     H12173  10.500   7.423  10.156 -2.6149 -0.6763 -0.9502
  831MOL0     H12174  10.720   7.443  10.173 -0.2846  1.0737  0.9002
  831MOL0     H12175  10.978   7.674   9.849 -0.4390  1.1430  0.2702
  831MOL0     H12176  10.921   7.769   9.976 -1.4072 -1.0071  0.3237
  831MOL0     H12177  11.165   7.744   9.956 -0.8611 -0.9898 -1.5905
  831MOL0     H12178  11.151   7.583  10.022  3.3457  0.7705 -1.1120
  831MOL0     H12179  11.044   7.664  10.242  0.0408 -0.7860 -0.4311
  831MOL0     H12180  11.038   7.830  10.182 -1.7489 -0.9417 -1.9699
  831MOL0     H12181  11.218   7.769  10.337  1.0358 -1.5834  0.7879
  831MOL0     H12182  11.261   7.854  10.188  1.1183 -1.1444 -1.6596
  831MOL0     H12183  11.466   7.491  10.112 -2.4121 -2.3755  0.5848
  831MOL0     H12184  10.754   7.631   9.793 -0.4318  1.6330 -0.0520
  831MOL0     H12185  10.503   7.610   9.764 -3.3702 -0.2154  1.4386
  832MOL0     O12186   1.786   8.276   5.270 -0.2623  0.3050 -0.2460
  832MOL0     C12187   1.877   8.250   5.353  0.7741  0.6949  0.0513
  832MOL0     O12188   1.865   8.165   5.464  0.3994  0.5303 -1.1480
  832MOL0     C12189   1.744   8.102   5.487  0.0025 -0.1820  0.8405
  832MOL0     C12190   1.718   7.986   5.424  0.3980  0.7863  0.1578
  832MOL0     C12191   1.600   7.910   5.433  0.3752 -0.3946 -0.3302
  832MOL0     C12192   1.489   7.957   5.502  0.7196 -1.0399  0.2253
  832MOL0     O12193   1.373   7.890   5.498 -0.8115  0.3498  0.4277
  832MOL0     C12194   1.246   7.934   5.547  0.2253 -0.8386 -0.2895
  832MOL0     C12195   1.142   7.830   5.523 -0.3781  1.1778  0.3951
  832MOL0     C12196   0.994   7.868   5.498  0.3442  0.1475 -1.0712
  832MOL0     C12197   0.935   7.936   5.615 -0.4792 -0.1014 -1.3373
  832MOL0     C12198   0.790   7.963   5.616  0.5868  0.3203  0.3740
  832MOL0     C12199   0.739   8.042   5.490  1.0793  0.4077 -0.3383
  832MOL0     C12200   0.583   8.046   5.493  1.1845 -0.8133 -0.2039
  832MOL0     C12201   0.521   7.913   5.448  0.1046 -0.0177 -0.3597
  832MOL0     N12202   0.391   7.884   5.508 -0.4474 -0.4878  0.1501
  832MOL0     C12203   0.285   7.966   5.514 -0.7128 -1.1200 -0.9577
  832MOL0     C12204   0.182   7.901   5.570 -0.6505  0.7066 -0.2643
  832MOL0     C12205   0.036   7.948   5.583 -0.4956 -0.9805  1.1335
  832MOL0     C12206  -0.064   7.861   5.652  0.4888 -0.3797  0.0308
  832MOL0     C12207  -0.182   7.948   5.706  0.4334  0.3025  1.0192
  832MOL0     C12208  -0.266   8.042   5.611 -0.4572  0.3854 -0.0393
  832MOL0     O12209  -0.371   8.119   5.683 -0.0850  0.2174  0.5282
  832MOL0     C12210  -0.495   8.071   5.709  0.3066 -0.7134  0.0226
  832MOL0     C12211  -0.572   8.129   5.803 -0.0443 -0.4788  0.5140
  832MOL0     C12212  -0.704   8.093   5.834  0.4525  1.1712 -0.1104
  832MOL0     C12213  -0.785   8.183   5.920  0.0391 -0.3767  0.0264
  832MOL0     C12214  -0.760   7.980   5.766 -0.2498 -0.4542  1.1377
  832MOL0     C12215  -0.888   7.924   5.800  0.6253  0.8914  1.0673
  832MOL0     O12216  -0.973   7.893   5.694  0.0604  0.0685 -0.1847
  832MOL0     C12217  -1.086   7.821   5.724  0.5608  0.1025  0.1674
  832MOL0     C12218  -1.212   7.882   5.765 -0.7106 -0.5245 -0.9209
  832MOL0     C12219  -1.320   7.805   5.785  0.2673  0.5305 -0.2773
  832MOL0     C12220  -1.311   7.664   5.801  0.0974  0.6761 -0.3562
  832MOL0     O12221  -1.408   7.574   5.847 -0.1712  0.0764  0.3178
  832MOL0     C12222  -1.423   7.582   5.994 -0.0263  0.7978  0.0401
  832MOL0     C12223  -1.523   7.476   6.030  1.1077 -0.7254  0.2396
  832MOL0     C12224  -1.571   7.507   6.176 -0.0740  0.5760  0.2372
  832MOL0     C12225  -1.632   7.379   6.238  0.8179  0.0134 -0.0131
  832MOL0     C12226  -1.758   7.318   6.175  0.3301  0.0738 -0.9657
  832MOL0     C12227  -1.880   7.408   6.189  0.3728  0.0083  0.5328
  832MOL0     C12228  -2.007   7.326   6.151 -0.6257  0.1713 -0.0950
  832MOL0     C12229  -2.141   7.398   6.149 -0.4151  0.9733  0.2000
  832MOL0    Cl12230  -2.184   7.472   6.309 -0.0594  0.2878 -0.1242
  832MOL0     C12231  -1.192   7.605   5.772  0.1312 -0.7396  0.9960
  832MOL0     C12232  -1.084   7.678   5.723 -0.0982 -1.1514 -1.3836
  832MOL0     O12233  -0.912   7.902   5.922  0.6130 -0.1573 -0.0176
  832MOL0     C12234  -0.677   7.910   5.670  0.2780 -0.1635  0.1498
  832MOL0     C12235  -0.543   7.954   5.649  0.0249  0.0558 -0.1167
  832MOL0     N12236   0.240   7.777   5.598  1.0770 -0.0995 -0.4885
  832MOL0     N12237   0.359   7.765   5.569  0.2421  0.1842  0.5566
  832MOL0     C12238   1.516   8.081   5.580 -0.3371  0.4005 -1.3214
  832MOL0     C12239   1.643   8.153   5.566  0.4087  0.7685 -0.5251
  832MOL0     C12240   2.006   8.322   5.339 -0.0754  0.7289 -1.0679
  832MOL0     C12241   2.095   8.309   5.449  0.3340 -0.5042  1.2895
  832MOL0     C12242   2.215   8.372   5.460  0.2506  0.7634 -0.2493
  832MOL0     C12243   2.267   8.441   5.347 -0.4916  0.2424 -0.5452
  832MOL0     O12244   2.379   8.516   5.350 -0.1567  0.0763 -0.2361
  832MOL0     C12245   2.447   8.552   5.479  0.1577 -0.2367 -0.6528
  832MOL0     C12246   2.538   8.677   5.489 -0.3776 -0.3216  0.5927
  832MOL0     C12247   2.649   8.682   5.386 -0.0212  0.0279  0.6127
  832MOL0     C12248   2.710   8.819   5.358 -0.9628  0.1075 -0.0729
  832MOL0     C12249   2.802   8.869   5.464  0.9391 -0.1462  0.1370
  832MOL0     C12250   2.898   8.923   5.515 -0.4070  0.1133  0.1912
  832MOL0     C12251   2.183   8.456   5.242  0.9074 -0.8452 -0.3648
  832MOL0     C12252   2.054   8.401   5.228  0.0180  1.2087 -0.5251
  832MOL0     H12253   1.798   7.950   5.360  0.7008  0.3444  0.7812
  832MOL0     H12254   1.592   7.815   5.382 -0.1788 -0.1113 -0.7792
  832MOL0     H12255   1.246   7.944   5.656  0.6134 -0.1523 -0.3496
  832MOL0     H12256   1.226   8.026   5.491  3.5943 -0.3517 -0.8838
  832MOL0     H12257   1.161   7.788   5.423 -2.0134 -2.8615  1.5527
  832MOL0     H12258   1.151   7.752   5.599 -1.1044 -1.2785 -1.8712
  832MOL0     H12259   1.004   7.939   5.415  1.5979 -1.7560 -2.6365
  832MOL0     H12260   0.937   7.778   5.471  0.1379 -0.3745  0.9155
  832MOL0     H12261   0.948   7.866   5.698 -1.8405  1.8394  0.6363
  832MOL0     H12262   0.990   8.028   5.639 -0.1913 -0.7361  0.6707
  832MOL0     H12263   0.731   7.871   5.610 -0.3695  0.9975 -1.3696
  832MOL0     H12264   0.754   8.011   5.708 -0.8686 -0.1492  0.0836
  832MOL0     H12265   0.778   8.144   5.499  2.1632 -0.0895  0.7704
  832MOL0     H12266   0.768   8.000   5.393 -3.1106 -0.6838 -1.3580
  832MOL0     H12267   0.551   8.076   5.594 -0.3457  0.6780 -1.0768
  832MOL0     H12268   0.542   8.117   5.420 -1.4597 -2.0822 -0.0569
  832MOL0     H12269   0.582   7.826   5.474 -0.0239 -0.2419 -0.8126
  832MOL0     H12270   0.507   7.918   5.340 -0.4013  0.6417 -0.2689
  832MOL0     H12271   0.270   8.065   5.472  2.8394  0.4502  1.0967
  832MOL0     H12272   0.041   8.048   5.628 -0.3707  0.4027 -1.6510
  832MOL0     H12273  -0.003   7.988   5.488  1.1273  4.6997  2.4540
  832MOL0     H12274  -0.009   7.822   5.738 -1.0884  1.9049  2.2141
  832MOL0     H12275  -0.089   7.775   5.589 -0.9982  0.8106 -1.0598
  832MOL0     H12276  -0.139   8.013   5.783  0.6928 -1.1909  2.1680
  832MOL0     H12277  -0.251   7.875   5.748 -3.7463  1.1974 -3.3929
  832MOL0     H12278  -0.310   7.977   5.536 -1.1176  1.1688 -0.3380
  832MOL0     H12279  -0.204   8.113   5.555 -1.6561  0.1459 -1.7299
  832MOL0     H12280  -0.528   8.210   5.859  0.8362 -1.0442  0.6619
  832MOL0     H12281  -0.788   8.139   6.020  2.3029 -2.1303 -0.5981
  832MOL0     H12282  -0.735   8.279   5.931 -1.2675  0.5204 -1.3994
  832MOL0     H12283  -0.886   8.213   5.889  1.0031  3.2105 -0.0139
  832MOL0     H12284  -1.218   7.990   5.770 -0.0873 -0.4949 -0.6375
  832MOL0     H12285  -1.412   7.856   5.810  0.1234 -0.7902  2.1977
  832MOL0     H12286  -1.332   7.567   6.053  0.2076 -0.0917 -0.5242
  832MOL0     H12287  -1.464   7.680   6.020 -0.5721  0.6404 -0.2009
  832MOL0     H12288  -1.608   7.470   5.962  0.0176 -2.4961  1.6744
  832MOL0     H12289  -1.469   7.380   6.031  1.7847 -0.3547 -0.2127
  832MOL0     H12290  -1.646   7.587   6.178 -1.9038 -0.8401 -3.0835
  832MOL0     H12291  -1.484   7.536   6.235 -0.1399 -1.6208  1.5353
  832MOL0     H12292  -1.553   7.303   6.237  1.2293  0.4133 -1.4714
  832MOL0     H12293  -1.644   7.395   6.345 -0.2581 -1.5124  0.1231
  832MOL0     H12294  -1.772   7.223   6.227 -0.3623  1.8475  2.4492
  832MOL0     H12295  -1.746   7.307   6.067 -1.1077 -2.7393 -0.9092
  832MOL0     H12296  -1.872   7.463   6.283 -3.6493 -0.1360  1.1426
  832MOL0     H12297  -1.861   7.487   6.116  0.3272 -0.9315 -0.5202
  832MOL0     H12298  -2.005   7.251   6.230  5.3675 -1.6450 -1.4935
  832MOL0     H12299  -2.003   7.267   6.059  0.3287 -0.0088  0.0542
  832MOL0     H12300  -2.212   7.319   6.122  0.4815 -0.1253  0.9637
  832MOL0     H12301  -2.147   7.469   6.067 -1.1119  0.8193  0.1166
  832MOL0     H12302  -1.195   7.496   5.776  0.0384 -0.7037  2.1723
  832MOL0     H12303  -0.993   7.626   5.694  2.7071  1.6279  1.5397
  832MOL0     H12304  -0.719   7.826   5.615 -1.6545  1.3478 -0.8047
  832MOL0     H12305  -0.488   7.894   5.577  0.0379  2.1422 -1.9707
  832MOL0     H12306   1.445   8.122   5.651 -0.3095  0.0300 -1.0779
  832MOL0     H12307   1.672   8.240   5.624 -0.4542  1.6413 -1.3572
  832MOL0     H12308   2.062   8.250   5.534  0.6898 -0.7801  1.2391
  832MOL0     H12309   2.275   8.344   5.546 -1.1896 -3.7444 -0.4041
  832MOL0     H12310   2.372   8.558   5.559 -0.6683  0.3913 -1.4535
  832MOL0     H12311   2.498   8.461   5.511 -0.2473  0.5049  2.5005
  832MOL0     H12312   2.578   8.690   5.590 -2.6226 -0.5914  1.5734
  832MOL0     H12313   2.471   8.763   5.476  0.3222  0.4475  1.8085
  832MOL0     H12314   2.616   8.660   5.284  1.6411 -1.3867  0.3388
  832MOL0     H12315   2.735   8.620   5.410  1.7205  2.7441  1.9458
  832MOL0     H12316   2.636   8.898   5.338 -2.1486 -0.6102  1.3122
  832MOL0     H12317   2.772   8.806   5.269  0.2126 -0.9165  0.8646
  832MOL0     H12318   2.986   8.964   5.560 -0.5065 -0.6643  1.1180
  832MOL0     H12319   2.212   8.521   5.159  1.7752  2.1002  2.0514
  832MOL0     H12320   2.000   8.393   5.135 -0.3017 -4.7566 -0.2363
  833MOL0     O12321   6.083   6.362   1.234 -0.6916 -0.3866  0.1390
  833MOL0     C12322   6.128   6.442   1.313 -0.1198  0.0955 -0.7495
  833MOL0     O12323   6.056   6.523   1.393  0.5692 -0.2400 -0.1028
  833MOL0     C12324   5.922   6.558   1.383  0.2230 -0.1515 -1.0120
  833MOL0     C12325   5.886   6.679   1.434 -0.7551  0.7174 -0.2328
  833MOL0     C12326   5.758   6.730   1.437  0.8516 -0.1549 -0.2843
  833MOL0     C12327   5.657   6.647   1.392  0.0689  0.6315 -0.5321
  833MOL0     O12328   5.527   6.691   1.384  0.3328  0.3524  0.0214
  833MOL0     C12329   5.442   6.652   1.490  0.3431  0.8283  0.7445
  833MOL0     C12330   5.316   6.740   1.497  0.5824 -0.1181  0.6682
  833MOL0     C12331   5.215   6.710   1.380 -0.1037  0.1623 -0.6687
  833MOL0     C12332   5.082   6.767   1.406  0.0548 -0.9904  0.2739
  833MOL0     C12333   4.997   6.773   1.280  0.3227 -0.1357 -0.8728
  833MOL0     C12334   4.972   6.638   1.219 -0.4291 -0.3145 -0.4565
  833MOL0     C12335   4.869   6.648   1.112  0.5860  0.3125  0.5991
  833MOL0     C12336   4.880   6.528   1.015  0.6984 -0.2049 -0.8850
  833MOL0     N12337   4.761   6.525   0.926 -0.0916 -0.5859 -0.1850
  833MOL0     C12338   4.657   6.618   0.913  0.5857  0.1550  0.0184
  833MOL0     C12339   4.572   6.562   0.816  0.4042  0.4090 -0.5083
  833MOL0     C12340   4.466   6.621   0.743  0.5976  0.0910  0.4206
  833MOL0     C12341   4.328   6.567   0.777  0.1334 -1.4838 -0.6013
  833MOL0     C12342   4.301   6.427   0.740 -0.5871 -0.0023  0.5451
  833MOL0     C12343   4.152   6.383   0.755 -0.1247 -0.2909  0.7056
  833MOL0     O12344   4.130   6.345   0.894  0.0060 -0.9012 -0.1719
  833MOL0     C12345   4.003   6.322   0.937 -1.0186 -0.5083 -0.6179
  833MOL0     C12346   3.886   6.301   0.864  0.3970  0.8766  0.2568
  833MOL0     C12347   3.765   6.280   0.928 -0.3778 -0.1178 -0.2419
  833MOL0     C12348   3.640   6.253   0.846 -0.6185 -0.2638 -0.7375
  833MOL0     C12349   3.761   6.278   1.068  0.1841 -0.4019  0.2606
  833MOL0     C12350   3.643   6.245   1.151 -0.0566  0.4714  0.9403
  833MOL0     O12351   3.612   6.332   1.244 -1.0243 -0.0949 -0.3328
  833MOL0     C12352   3.511   6.310   1.330 -0.3750  0.1767  0.7876
  833MOL0     C12353   3.381   6.312   1.280  0.0045  0.4830 -0.3394
  833MOL0     C12354   3.266   6.301   1.365 -0.2059  0.0222  0.2799
  833MOL0     C12355   3.281   6.278   1.505  0.6985 -1.0799  0.3116
  833MOL0     O12356   3.168   6.248   1.573 -0.3804  0.3405  0.3738
  833MOL0     C12357   3.191   6.206   1.707 -0.3278  0.0267 -0.8720
  833MOL0     C12358   3.067   6.128   1.763  0.4450 -0.9654  1.2581
  833MOL0     C12359   3.069   6.110   1.909  1.0286 -0.5154  0.1889
  833MOL0     C12360   2.939   6.047   1.953 -0.5004 -0.3342  0.7827
  833MOL0     C12361   2.828   6.152   1.972 -1.2307  0.0570  0.9376
  833MOL0     C12362   2.713   6.082   2.052  0.0398  0.5223  0.1374
  833MOL0     C12363   2.574   6.138   2.019 -0.7030  0.2116  0.3093
  833MOL0     C12364   2.479   6.031   2.064  0.7143 -0.2989 -0.2374
  833MOL0    Cl12365   2.306   6.088   2.051 -0.5721 -0.3538  0.3854
  833MOL0     C12366   3.414   6.278   1.551  0.3078  0.2737 -0.3413
  833MOL0     C12367   3.526   6.289   1.463  0.1741  0.0050 -0.2367
  833MOL0     O12368   3.585   6.141   1.134  0.1186 -0.3315 -0.4759
  833MOL0     C12369   3.874   6.306   1.141 -0.0772  0.0342  0.1451
  833MOL0     C12370   3.994   6.333   1.078 -0.8129 -0.6128  0.2035
  833MOL0     N12371   4.620   6.440   0.780 -0.8520 -0.2557  0.8454
  833MOL0     N12372   4.729   6.421   0.853  0.1926  0.3576  0.5932
  833MOL0     C12373   5.682   6.517   1.352 -0.1607  0.5838 -0.2685
  833MOL0     C12374   5.817   6.477   1.341 -0.2748  0.3626  0.0662
  833MOL0     C12375   6.270   6.449   1.335 -0.2544  0.6392  0.2901
  833MOL0     C12376   6.351   6.369   1.253  1.5886 -0.4523 -1.0172
  833MOL0     C12377   6.492   6.375   1.264 -0.4295  0.4161  0.1511
  833MOL0     C12378   6.555   6.447   1.368  0.7160 -0.3377  0.0353
  833MOL0     O12379   6.688   6.413   1.394 -0.1769  0.6327 -0.8536
  833MOL0     C12380   6.784   6.495   1.469  0.0639 -0.4616 -0.3665
  833MOL0     C12381   6.807   6.638   1.403 -0.3118 -0.0125  0.7052
  833MOL0     C12382   6.860   6.613   1.263  0.4321 -0.2558 -0.8796
  833MOL0     C12383   6.906   6.735   1.182 -0.1790  0.0743  0.0628
  833MOL0     C12384   7.041   6.787   1.229  0.0549 -0.1937  0.4481
  833MOL0     C12385   7.144   6.837   1.270 -0.0652 -0.4234  0.1008
  833MOL0     C12386   6.478   6.521   1.456 -0.5239 -0.4834 -0.5934
  833MOL0     C12387   6.334   6.528   1.438 -0.7382  0.3866 -0.2579
  833MOL0     H12388   5.962   6.745   1.474  0.5576 -1.5255  1.1919
  833MOL0     H12389   5.741   6.827   1.482 -1.5993 -0.2852 -0.8370
  833MOL0     H12390   5.409   6.548   1.480  0.6224  0.9737 -4.2104
  833MOL0     H12391   5.500   6.655   1.582  1.1583 -1.6214  0.3779
  833MOL0     H12392   5.264   6.715   1.590 -1.7253  1.0881 -0.2301
  833MOL0     H12393   5.352   6.843   1.505 -0.7631  0.2846  2.1365
  833MOL0     H12394   5.261   6.750   1.289 -0.5830  0.7898 -0.6381
  833MOL0     H12395   5.210   6.602   1.365 -0.1183 -0.5740  3.3835
  833MOL0     H12396   5.029   6.703   1.478  1.3476 -3.9371 -1.2158
  833MOL0     H12397   5.092   6.868   1.446 -0.2829 -0.9103  0.1582
  833MOL0     H12398   4.902   6.821   1.305  0.8250  1.6851 -2.2769
  833MOL0     H12399   5.045   6.833   1.203 -0.6184 -1.3714 -2.4859
  833MOL0     H12400   5.065   6.598   1.178  0.2099  0.2332  0.4128
  833MOL0     H12401   4.924   6.574   1.294 -1.0229 -0.1200 -0.6650
  833MOL0     H12402   4.767   6.657   1.149 -0.2430  1.5432 -1.7688
  833MOL0     H12403   4.895   6.740   1.059  2.2926  0.1939  1.1693
  833MOL0     H12404   4.891   6.431   1.065 -0.1140  0.3880  0.4758
  833MOL0     H12405   4.969   6.535   0.951  1.8859 -0.4110  0.6806
  833MOL0     H12406   4.632   6.716   0.953 -0.4800 -0.3795  0.7160
  833MOL0     H12407   4.459   6.730   0.743  1.2424  0.4233 -5.1988
  833MOL0     H12408   4.487   6.590   0.640 -0.4514 -2.3021  0.8742
  833MOL0     H12409   4.257   6.641   0.738  0.6872 -0.2563  0.6052
  833MOL0     H12410   4.318   6.571   0.886 -0.3762 -1.7130 -0.6354
  833MOL0     H12411   4.359   6.357   0.800  0.6130 -1.7755 -2.4753
  833MOL0     H12412   4.319   6.414   0.633 -2.1028 -2.4366  0.5164
  833MOL0     H12413   4.139   6.292   0.697 -2.4693  1.3418 -1.5406
  833MOL0     H12414   4.094   6.463   0.709  0.2854  0.7981  2.0028
  833MOL0     H12415   3.899   6.302   0.756  2.4691  0.2341  0.4577
  833MOL0     H12416   3.665   6.285   0.745  1.4079 -0.6502 -0.4181
  833MOL0     H12417   3.616   6.147   0.845  0.7403 -0.6082 -0.2070
  833MOL0     H12418   3.562   6.312   0.896  1.5493  1.6250  0.6556
  833MOL0     H12419   3.369   6.318   1.172 -0.8427 -3.4026 -0.6188
  833MOL0     H12420   3.166   6.297   1.324 -0.8530 -0.6584  1.8480
  833MOL0     H12421   3.267   6.128   1.718  1.2637  1.7852  1.6971
  833MOL0     H12422   3.227   6.280   1.779  0.7926 -2.0257  0.7608
  833MOL0     H12423   2.978   6.188   1.742  1.4450  0.8417  1.9627
  833MOL0     H12424   3.053   6.031   1.714 -2.5163 -1.2184  2.3613
  833MOL0     H12425   3.072   6.208   1.959  1.2819 -0.3415 -0.1633
  833MOL0     H12426   3.152   6.044   1.935  2.8738  1.1854 -1.0061
  833MOL0     H12427   2.905   5.979   1.875 -2.7313  0.2702  1.1443
  833MOL0     H12428   2.969   5.994   2.043  0.5767 -1.5703 -0.2783
  833MOL0     H12429   2.798   6.203   1.880 -0.0399  1.2470  1.1837
  833MOL0     H12430   2.871   6.232   2.034  2.4827 -0.6783 -0.4181
  833MOL0     H12431   2.718   5.977   2.023  3.5210  0.0438  1.9298
  833MOL0     H12432   2.730   6.085   2.160 -0.8206  0.4279  0.2843
  833MOL0     H12433   2.559   6.144   1.911 -1.0258 -0.9146  0.2770
  833MOL0     H12434   2.566   6.235   2.069  0.0659  0.8800 -0.8146
  833MOL0     H12435   2.494   5.996   2.167 -1.5225  0.2443  0.3398
  833MOL0     H12436   2.479   5.942   2.001 -1.0829  0.2517 -1.0908
  833MOL0     H12437   3.436   6.253   1.654 -2.3864  0.0624  0.2471
  833MOL0     H12438   3.629   6.284   1.495  0.1731  3.5146  0.7622
  833MOL0     H12439   3.874   6.309   1.249 -0.6188 -1.6137  0.2228
  833MOL0     H12440   4.072   6.349   1.151 -0.0620  0.3552 -0.7818
  833MOL0     H12441   5.593   6.460   1.330  0.1542  0.3869 -1.0498
  833MOL0     H12442   5.840   6.371   1.328 -0.2683  0.1533  1.5941
  833MOL0     H12443   6.309   6.301   1.180  2.2920 -1.3136 -0.6310
  833MOL0     H12444   6.544   6.297   1.210  2.4933  1.3825  1.3753
  833MOL0     H12445   6.745   6.490   1.571  2.5083 -0.0344  0.6652
  833MOL0     H12446   6.875   6.437   1.483  0.1671  0.3673  3.3517
  833MOL0     H12447   6.878   6.700   1.459  0.3855  0.7014 -0.9247
  833MOL0     H12448   6.721   6.705   1.398  0.6849  1.1909 -1.8980
  833MOL0     H12449   6.785   6.569   1.198  0.9430 -0.5292 -1.2888
  833MOL0     H12450   6.939   6.538   1.266  0.0971 -0.5825  0.5212
  833MOL0     H12451   6.829   6.813   1.181 -2.1927 -1.6757  2.9145
  833MOL0     H12452   6.923   6.691   1.083  0.9246  0.2435  0.1605
  833MOL0     H12453   7.231   6.895   1.294  0.5231 -2.2449  2.8086
  833MOL0     H12454   6.529   6.560   1.543  0.2355 -0.1239 -1.1871
  833MOL0     H12455   6.276   6.579   1.515  1.0567  1.9508  0.1340
  834MOL0     O12456   4.433   1.997   5.436  0.5881  0.4252 -0.0514
  834MOL0     C12457   4.396   1.993   5.551  1.1683 -0.5102 -0.1048
  834MOL0     O12458   4.470   1.965   5.667 -0.1653 -0.2293  0.0663
  834MOL0     C12459   4.610   1.967   5.645 -0.0438  0.3987 -0.7017
  834MOL0     C12460   4.690   2.059   5.715  0.4570 -0.4000  0.2087
  834MOL0     C12461   4.834   2.060   5.714 -0.3431 -0.6532  0.2307
  834MOL0     C12462   4.898   1.992   5.616  0.5023 -0.2636  0.0422
  834MOL0     O12463   5.030   2.011   5.597  0.2380  0.3554 -0.3062
  834MOL0     C12464   5.115   1.896   5.586  0.1368 -0.1948 -0.3985
  834MOL0     C12465   5.251   1.911   5.660  1.0921 -0.4560 -0.0317
  834MOL0     C12466   5.368   1.965   5.568 -0.5593  0.2530  0.2668
  834MOL0     C12467   5.454   1.873   5.492 -0.9786 -0.9047  0.7272
  834MOL0     C12468   5.381   1.778   5.403 -0.2467  0.2945  0.6393
  834MOL0     C12469   5.467   1.702   5.293  0.0025  0.1603  0.1376
  834MOL0     C12470   5.525   1.796   5.182 -0.3960  0.5908 -0.4240
  834MOL0     C12471   5.537   1.725   5.048  0.0662  0.7417 -0.1561
  834MOL0     N12472   5.413   1.722   4.981  0.6279 -0.0284 -0.5671
  834MOL0     C12473   5.335   1.830   4.946  0.3486  0.2386 -0.6954
  834MOL0     C12474   5.213   1.787   4.914 -1.0281 -0.3826  0.0076
  834MOL0     C12475   5.103   1.875   4.867  0.4741 -0.5209  0.0475
  834MOL0     C12476   4.983   1.800   4.799  0.5622  0.6536 -0.6634
  834MOL0     C12477   4.890   1.892   4.722 -0.1483 -0.0838 -0.5854
  834MOL0     C12478   4.745   1.842   4.737  0.0726  0.2816 -0.3249
  834MOL0     O12479   4.693   1.901   4.853 -0.5138 -0.3056  0.5369
  834MOL0     C12480   4.552   1.897   4.867 -0.5844 -0.9513 -0.0508
  834MOL0     C12481   4.478   1.782   4.856 -0.3636  0.1432  0.1638
  834MOL0     C12482   4.338   1.774   4.873  0.5653  0.1491 -0.1664
  834MOL0     C12483   4.273   1.641   4.877 -0.3314  0.2090  0.0131
  834MOL0     C12484   4.271   1.894   4.899 -0.1145 -0.1763  0.8770
  834MOL0     C12485   4.131   1.894   4.934  0.0161 -0.5106  0.7718
  834MOL0     O12486   4.100   1.968   5.046  0.0472 -0.0544 -0.4067
  834MOL0     C12487   3.975   1.969   5.097  0.1775  0.4995  0.3019
  834MOL0     C12488   3.913   1.843   5.133 -0.5779  0.7532  0.7124
  834MOL0     C12489   3.785   1.844   5.192  0.0348 -0.2141 -0.1164
  834MOL0     C12490   3.730   1.971   5.217 -0.2093 -0.1975  0.0066
  834MOL0     O12491   3.610   1.977   5.283 -0.0368  0.0433  0.2794
  834MOL0     C12492   3.505   1.896   5.237  0.3376 -0.0207  0.2812
  834MOL0     C12493   3.382   1.905   5.330 -0.5478 -0.7764  0.3324
  834MOL0     C12494   3.270   1.811   5.291 -0.7473  0.8623 -0.4041
  834MOL0     C12495   3.135   1.888   5.304  0.4621 -0.8153 -0.2131
  834MOL0     C12496   3.018   1.790   5.313  0.3504 -0.2431  0.7158
  834MOL0     C12497   2.894   1.871   5.346 -0.5920 -0.4936  0.6335
  834MOL0     C12498   2.770   1.799   5.312  0.1312  0.1538 -0.3308
  834MOL0     C12499   2.653   1.886   5.346  0.3435  0.3898  0.1624
  834MOL0    Cl12500   2.629   2.026   5.239  0.1950 -0.2489 -0.7370
  834MOL0     C12501   3.792   2.090   5.176  1.0179  0.0606 -0.3692
  834MOL0     C12502   3.919   2.089   5.125 -0.4024 -0.1902  0.1232
  834MOL0     O12503   4.054   1.828   4.863 -0.2812 -0.0970  0.5170
  834MOL0     C12504   4.347   2.017   4.900  0.4303  1.0330 -0.2274
  834MOL0     C12505   4.487   2.015   4.888 -0.0488 -1.1247 -0.4273
  834MOL0     N12506   5.218   1.646   4.936  0.0731  0.9826  0.7806
  834MOL0     N12507   5.341   1.604   4.976  0.0257  0.4414  0.0938
  834MOL0     C12508   4.825   1.908   5.539  0.1645 -0.0776 -0.2003
  834MOL0     C12509   4.688   1.890   5.553 -0.3946  0.3548 -0.0539
  834MOL0     C12510   4.240   1.997   5.580  0.2191 -0.8260 -0.2705
  834MOL0     C12511   4.189   2.019   5.712 -0.6231 -0.5764 -0.7930
  834MOL0     C12512   4.058   2.012   5.735 -0.2876 -0.4393 -0.3750
  834MOL0     C12513   3.969   2.005   5.628  0.3626 -0.7472  0.2185
  834MOL0     O12514   3.834   2.028   5.655 -0.8835 -0.1458 -0.0407
  834MOL0     C12515   3.775   2.142   5.592  0.3225 -0.0559 -0.7849
  834MOL0     C12516   3.693   2.218   5.702 -0.1175  0.1924  1.1119
  834MOL0     C12517   3.578   2.132   5.738  0.2250  0.4901  0.5547
  834MOL0     C12518   3.510   2.164   5.872  0.6526 -0.9669 -0.3530
  834MOL0     C12519   3.415   2.275   5.849  0.3682 -0.0503 -0.0291
  834MOL0     C12520   3.323   2.352   5.822  0.2907  0.0461 -0.4294
  834MOL0     C12521   4.012   1.969   5.499 -0.2041  0.4285 -0.0395
  834MOL0     C12522   4.148   1.959   5.477 -0.0709  0.4900 -0.3613
  834MOL0     H12523   4.642   2.130   5.782 -1.9519 -1.6585 -0.0801
  834MOL0     H12524   4.899   2.127   5.769  0.2891  2.4849 -3.8760
  834MOL0     H12525   5.062   1.807   5.620 -0.8999  1.2301  1.9323
  834MOL0     H12526   5.133   1.871   5.481  1.1437 -0.2620 -0.2281
  834MOL0     H12527   5.227   1.966   5.752 -1.2887  0.4431 -1.0864
  834MOL0     H12528   5.274   1.809   5.692 -1.7501 -0.7170  1.5454
  834MOL0     H12529   5.315   2.035   5.503 -0.6573 -0.0029  0.0731
  834MOL0     H12530   5.434   2.026   5.631 -0.2870  2.5617 -2.0983
  834MOL0     H12531   5.527   1.937   5.441  0.1117 -1.1116  1.9727
  834MOL0     H12532   5.505   1.810   5.565  0.9934 -1.8256 -1.3339
  834MOL0     H12533   5.328   1.703   5.462  0.7909  0.2453  1.5241
  834MOL0     H12534   5.311   1.840   5.346 -0.1715 -0.4454 -0.2710
  834MOL0     H12535   5.552   1.655   5.344  0.4269  0.2616 -0.4650
  834MOL0     H12536   5.404   1.622   5.254 -1.0005  0.3045  1.4251
  834MOL0     H12537   5.465   1.888   5.175  0.7649  1.2478 -2.7456
  834MOL0     H12538   5.626   1.829   5.208  1.4225 -3.7270 -1.0711
  834MOL0     H12539   5.570   1.621   5.056 -0.7662  0.4159 -0.8255
  834MOL0     H12540   5.619   1.776   4.995  1.4565 -1.8148 -0.6016
  834MOL0     H12541   5.374   1.929   4.964 -1.7535  1.0781 -0.4655
  834MOL0     H12542   5.066   1.940   4.948 -2.9427  0.6951 -2.2467
  834MOL0     H12543   5.160   1.939   4.799  1.3147 -0.8094  0.4752
  834MOL0     H12544   4.937   1.744   4.881  0.2314  1.2880 -0.4054
  834MOL0     H12545   5.023   1.730   4.726  1.6305  1.5499 -0.9767
  834MOL0     H12546   4.900   1.884   4.614 -0.7797 -1.3922 -0.5572
  834MOL0     H12547   4.896   1.993   4.765 -0.7700 -1.2021  2.4039
  834MOL0     H12548   4.740   1.734   4.750  3.0512 -0.2700 -2.6274
  834MOL0     H12549   4.690   1.863   4.644  1.5899  1.6609 -0.9660
  834MOL0     H12550   4.531   1.689   4.842 -0.8686 -0.0723 -0.3745
  834MOL0     H12551   4.342   1.559   4.854  0.1111  0.5534  0.0957
  834MOL0     H12552   4.205   1.624   4.961  0.5513 -2.5765  0.2672
  834MOL0     H12553   4.206   1.652   4.791 -1.2691 -0.8003  0.5943
  834MOL0     H12554   3.966   1.750   5.114 -2.8836 -0.5142 -0.0085
  834MOL0     H12555   3.740   1.751   5.228  0.5011  0.1628  1.5258
  834MOL0     H12556   3.479   1.917   5.134  1.2744 -1.1537 -0.2173
  834MOL0     H12557   3.534   1.791   5.248  2.6409  0.5344 -0.0133
  834MOL0     H12558   3.416   1.901   5.434 -1.2345  0.0611  0.6071
  834MOL0     H12559   3.340   2.006   5.318 -1.2673 -1.0564  0.4254
  834MOL0     H12560   3.267   1.718   5.347 -1.1067  1.5248  0.7081
  834MOL0     H12561   3.295   1.777   5.190  0.3254 -0.2720  0.2191
  834MOL0     H12562   3.140   1.955   5.391 -1.1329  1.7566 -1.9726
  834MOL0     H12563   3.123   1.961   5.224 -2.1295 -1.9053 -0.9124
  834MOL0     H12564   3.048   1.708   5.379  4.5911  1.1268  0.7406
  834MOL0     H12565   2.997   1.749   5.214 -0.9586  1.3108  0.3037
  834MOL0     H12566   2.899   1.893   5.453 -0.0372  0.9430  0.3370
  834MOL0     H12567   2.906   1.961   5.285  3.7171 -0.5561  1.0859
  834MOL0     H12568   2.766   1.712   5.377  0.9588  0.1717 -0.2461
  834MOL0     H12569   2.765   1.764   5.208  0.0833 -1.4399  0.1871
  834MOL0     H12570   2.674   1.924   5.447 -3.4054  1.7802  0.5830
  834MOL0     H12571   2.562   1.825   5.346  0.0443  0.8317  0.1691
  834MOL0     H12572   3.750   2.186   5.202  0.9090  0.9535 -3.4373
  834MOL0     H12573   3.976   2.180   5.110  1.5932 -1.0621  1.9110
  834MOL0     H12574   4.311   2.117   4.920  3.4439  2.5245 -1.5998
  834MOL0     H12575   4.541   2.110   4.885 -1.7471 -0.0443  1.3654
  834MOL0     H12576   4.887   1.859   5.464  2.4026 -0.3358  1.6974
  834MOL0     H12577   4.637   1.813   5.495 -1.0037 -0.9036  2.0490
  834MOL0     H12578   4.256   2.023   5.798 -1.0436 -1.4309 -0.4134
  834MOL0     H12579   4.006   2.013   5.830  1.4848  0.2151  0.6468
  834MOL0     H12580   3.851   2.201   5.539 -1.8232  0.8070 -3.1455
  834MOL0     H12581   3.703   2.112   5.516  1.0161  0.2681 -1.5918
  834MOL0     H12582   3.661   2.313   5.660  2.8544 -0.1302 -2.4038
  834MOL0     H12583   3.757   2.230   5.790  4.4913 -0.4895 -1.8316
  834MOL0     H12584   3.600   2.025   5.737 -0.4280  0.3085  2.4624
  834MOL0     H12585   3.508   2.136   5.654 -2.3724 -2.0248  2.3932
  834MOL0     H12586   3.586   2.183   5.948 -0.4469 -1.9222  1.0436
  834MOL0     H12587   3.447   2.078   5.896  1.7289 -1.6045  0.2551
  834MOL0     H12588   3.244   2.415   5.784 -0.9708 -2.8017 -2.9121
  834MOL0     H12589   3.941   1.945   5.421  3.1392 -0.3956 -3.0796
  834MOL0     H12590   4.186   1.937   5.378 -1.3836 -1.9117 -0.3996
  835MOL0     O12591   3.461   2.203   8.748 -0.0424 -0.0790  0.3710
  835MOL0     C12592   3.542   2.129   8.704  0.1873 -0.2605  0.3577
  835MOL0     O12593   3.531   1.992   8.682  0.3140 -0.6996  0.0093
  835MOL0     C12594   3.426   1.917   8.714 -0.5029  0.6290 -0.8958
  835MOL0     C12595   3.299   1.950   8.751 -0.2068  0.3362 -0.6206
  835MOL0     C12596   3.206   1.857   8.791  0.1747  0.2512  0.8643
  835MOL0     C12597   3.224   1.719   8.780 -1.0799  0.1037 -0.5262
  835MOL0     O12598   3.121   1.634   8.822  0.1673 -0.0070 -0.3418
  835MOL0     C12599   3.089   1.520   8.740 -0.2606 -0.7082  0.2778
  835MOL0     C12600   2.965   1.533   8.646  0.6362  0.4177 -0.6468
  835MOL0     C12601   2.834   1.517   8.729  0.2480  0.5210  0.5802
  835MOL0     C12602   2.704   1.551   8.650  0.2747 -0.0375  0.1640
  835MOL0     C12603   2.575   1.529   8.742 -0.2677  1.2035  0.3332
  835MOL0     C12604   2.449   1.569   8.653 -0.3149 -1.0383 -0.7260
  835MOL0     C12605   2.326   1.584   8.753 -0.0976 -0.0773 -0.0902
  835MOL0     C12606   2.234   1.692   8.699 -0.2695  0.0872  0.1678
  835MOL0     N12607   2.116   1.693   8.779  1.2320 -0.4894 -0.1202
  835MOL0     C12608   2.091   1.777   8.887 -0.0158 -0.0205 -0.7995
  835MOL0     C12609   1.964   1.742   8.938 -1.2430  0.2291 -0.4313
  835MOL0     C12610   1.904   1.808   9.050  0.1099 -0.9419 -0.7648
  835MOL0     C12611   1.888   1.962   9.031 -0.2951  0.6728  0.3987
  835MOL0     C12612   1.808   2.023   9.147  0.1613 -1.3637 -0.2605
  835MOL0     C12613   1.810   2.180   9.147 -0.1109  0.4982 -0.3565
  835MOL0     O12614   1.703   2.229   9.233 -0.2010 -0.0737  0.0181
  835MOL0     C12615   1.594   2.288   9.170 -0.3434  0.2364  0.7825
  835MOL0     C12616   1.603   2.358   9.054 -0.8825 -0.1846 -0.0281
  835MOL0     C12617   1.492   2.399   8.987  0.1925  1.5238  0.0767
  835MOL0     C12618   1.498   2.445   8.841 -0.5382  0.0098  0.6841
  835MOL0     C12619   1.363   2.375   9.051 -0.3323 -0.0862  0.3084
  835MOL0     C12620   1.232   2.428   9.000 -0.3634 -0.4928 -0.1623
  835MOL0     O12621   1.116   2.375   9.053 -0.1892 -0.7800 -0.1991
  835MOL0     C12622   0.996   2.412   8.993 -0.2043 -0.1390 -0.5665
  835MOL0     C12623   0.885   2.417   9.082  0.6408  0.0032 -0.8354
  835MOL0     C12624   0.758   2.473   9.052  0.8735  0.6749 -0.3494
  835MOL0     C12625   0.739   2.530   8.927 -0.3770 -0.0458 -0.3665
  835MOL0     O12626   0.628   2.589   8.877 -0.1746  0.0873  0.0484
  835MOL0     C12627   0.503   2.599   8.953  0.1706  0.2695  0.5622
  835MOL0     C12628   0.397   2.680   8.875 -0.2840  0.4908  0.1805
  835MOL0     C12629   0.329   2.590   8.771 -0.5588  1.6886  0.1761
  835MOL0     C12630   0.236   2.669   8.671  0.1388 -0.5790  0.1301
  835MOL0     C12631   0.199   2.583   8.548  0.0917  0.2501 -0.5208
  835MOL0     C12632   0.076   2.631   8.468 -0.0271  0.7225  0.3922
  835MOL0     C12633   0.022   2.526   8.350  0.4281 -0.6028 -0.6039
  835MOL0     C12634   0.125   2.472   8.264  0.5603 -0.5430  0.2887
  835MOL0    Cl12635   0.051   2.379   8.146 -0.0041  0.0138  0.3579
  835MOL0     C12636   0.855   2.536   8.841 -0.9851  0.2515  0.7739
  835MOL0     C12637   0.977   2.471   8.869  0.4768 -1.3097 -0.0552
  835MOL0     O12638   1.233   2.531   8.930 -0.0395 -1.0658 -0.5042
  835MOL0     C12639   1.356   2.299   9.164 -0.1671  0.2761 -0.4175
  835MOL0     C12640   1.471   2.255   9.226 -0.4790  0.1930  0.0815
  835MOL0     N12641   1.912   1.647   8.847  0.2092 -0.3118 -0.8223
  835MOL0     N12642   1.998   1.630   8.749 -0.5360 -0.4861  0.2657
  835MOL0     C12643   3.360   1.680   8.762  0.2975  0.1682  0.5901
  835MOL0     C12644   3.453   1.778   8.722 -0.8868 -0.0588 -0.3288
  835MOL0     C12645   3.655   2.189   8.627 -0.4494  0.5163  0.5832
  835MOL0     C12646   3.710   2.313   8.670  0.4251  0.0301  0.7414
  835MOL0     C12647   3.802   2.385   8.589  0.8523 -0.0935  0.5419
  835MOL0     C12648   3.849   2.329   8.469  0.4868  0.1160 -0.8156
  835MOL0     O12649   3.949   2.378   8.388 -0.2804 -0.1825  0.2297
  835MOL0     C12650   4.016   2.502   8.423  0.1648 -1.0872  0.2576
  835MOL0     C12651   4.129   2.530   8.322 -0.6212  0.2995  0.2158
  835MOL0     C12652   4.241   2.420   8.312  0.5510 -0.1150 -0.4471
  835MOL0     C12653   4.335   2.453   8.200 -0.3480  0.1456  0.2732
  835MOL0     C12654   4.424   2.564   8.234  0.1016  0.4745 -0.0990
  835MOL0     C12655   4.487   2.667   8.244 -0.5073 -0.1664 -0.3912
  835MOL0     C12656   3.799   2.209   8.428  0.1277  0.0916 -0.2505
  835MOL0     C12657   3.711   2.138   8.507 -0.1544  0.1712  0.2759
  835MOL0     H12658   3.265   2.052   8.749 -0.7740  0.1395 -1.7846
  835MOL0     H12659   3.105   1.880   8.822 -0.6173 -1.4543 -0.3337
  835MOL0     H12660   3.179   1.488   8.687  0.8150  1.8150  0.3933
  835MOL0     H12661   3.066   1.436   8.805 -2.9307  0.1291  0.5306
  835MOL0     H12662   2.967   1.626   8.588 -0.7364  0.8958  0.0340
  835MOL0     H12663   2.967   1.447   8.578 -1.6147 -2.1524  2.2613
  835MOL0     H12664   2.835   1.409   8.747 -0.2503  0.2400 -0.9223
  835MOL0     H12665   2.833   1.580   8.818 -0.8172 -1.3333  1.9505
  835MOL0     H12666   2.708   1.652   8.608 -0.8408  0.1725  0.5379
  835MOL0     H12667   2.695   1.487   8.562  0.2674  1.4909 -0.9837
  835MOL0     H12668   2.576   1.426   8.778 -1.5229  1.0903  0.0696
  835MOL0     H12669   2.575   1.597   8.829  0.0081  3.5110 -1.3604
  835MOL0     H12670   2.470   1.668   8.611  1.9760 -0.6641  1.0646
  835MOL0     H12671   2.429   1.506   8.566 -0.5890 -0.0106 -1.4338
  835MOL0     H12672   2.266   1.493   8.749 -2.1827  1.1849  0.9047
  835MOL0     H12673   2.364   1.615   8.851  0.3254  0.1650 -0.3265
  835MOL0     H12674   2.223   1.682   8.591 -0.8972 -1.2372  0.3427
  835MOL0     H12675   2.278   1.791   8.717  2.1749 -0.8276 -0.3833
  835MOL0     H12676   2.158   1.855   8.921  0.9001 -1.3668  0.5797
  835MOL0     H12677   1.803   1.767   9.062 -0.6701  0.9714 -0.2841
  835MOL0     H12678   1.966   1.788   9.138  0.5829  0.5188 -0.7401
  835MOL0     H12679   1.825   1.978   8.943 -1.6822  0.9115  1.3949
  835MOL0     H12680   1.985   2.012   9.034  0.7462 -1.2570  2.1081
  835MOL0     H12681   1.842   1.987   9.245 -0.3691  0.6335  0.7030
  835MOL0     H12682   1.704   1.994   9.134 -0.4551  1.1521 -1.5413
  835MOL0     H12683   1.807   2.209   9.042  2.2226 -1.0137 -0.9142
  835MOL0     H12684   1.908   2.206   9.187  0.3737 -1.4403 -0.1562
  835MOL0     H12685   1.701   2.387   9.018 -1.5659  0.7354 -1.2750
  835MOL0     H12686   1.596   2.422   8.800 -0.8940 -0.7113  0.1986
  835MOL0     H12687   1.428   2.393   8.774  1.4568  0.3562 -1.7752
  835MOL0     H12688   1.475   2.551   8.847 -0.0333  0.0371  3.0667
  835MOL0     H12689   0.901   2.361   9.174  0.6220 -0.6106 -1.2044
  835MOL0     H12690   0.667   2.464   9.111  2.1845  2.1369  2.0662
  835MOL0     H12691   0.463   2.502   8.982  0.0842 -0.1953 -0.9921
  835MOL0     H12692   0.534   2.655   9.042  1.2097 -0.0755  0.4353
  835MOL0     H12693   0.320   2.716   8.944 -0.3011 -1.0994  1.0255
  835MOL0     H12694   0.440   2.769   8.827 -0.1375  0.5870  0.4889
  835MOL0     H12695   0.275   2.510   8.824  1.8783  0.6034  1.2154
  835MOL0     H12696   0.409   2.534   8.721 -0.1812  3.9941 -1.9593
  835MOL0     H12697   0.146   2.707   8.720  0.6964  1.6390 -0.4542
  835MOL0     H12698   0.278   2.767   8.648 -2.6188  1.4176  2.7881
  835MOL0     H12699   0.188   2.479   8.582  4.9763  0.4706  2.7860
  835MOL0     H12700   0.281   2.577   8.476  0.7968  0.5733  0.2376
  835MOL0     H12701  -0.016   2.660   8.520 -3.4131 -0.1001 -4.3955
  835MOL0     H12702   0.095   2.728   8.420 -0.9484  0.2329 -1.0594
  835MOL0     H12703  -0.058   2.577   8.296 -1.3765 -0.9938  1.5491
  835MOL0     H12704  -0.030   2.442   8.397 -1.2335 -0.0970 -1.4507
  835MOL0     H12705   0.203   2.410   8.309  2.4623  0.1434 -1.8792
  835MOL0     H12706   0.177   2.553   8.211 -2.8067  0.5997 -1.5839
  835MOL0     H12707   0.839   2.570   8.740 -0.8462  0.4883  0.8319
  835MOL0     H12708   1.057   2.469   8.796  3.8347  1.4372  3.1812
  835MOL0     H12709   1.266   2.277   9.220  0.5061 -0.2870  0.4621
  835MOL0     H12710   1.458   2.190   9.312 -0.8227  0.1548  0.0028
  835MOL0     H12711   3.362   1.574   8.781 -1.8202  0.2601  1.6433
  835MOL0     H12712   3.550   1.748   8.684  0.9099  5.5750 -1.1198
  835MOL0     H12713   3.672   2.353   8.764 -0.1749 -1.3997  1.1379
  835MOL0     H12714   3.840   2.481   8.623  1.4796  0.6600 -2.0603
  835MOL0     H12715   3.944   2.584   8.427  2.8017  1.6847 -2.9675
  835MOL0     H12716   4.064   2.491   8.521 -0.3518 -1.0033  0.5247
  835MOL0     H12717   4.180   2.624   8.345 -0.4395 -0.0247  1.1554
  835MOL0     H12718   4.085   2.514   8.223 -0.1847 -3.2214  0.4570
  835MOL0     H12719   4.189   2.326   8.288  1.0390 -0.5833  0.2782
  835MOL0     H12720   4.300   2.409   8.403 -0.0591 -1.9994 -0.2369
  835MOL0     H12721   4.279   2.474   8.108  1.9465  1.0135 -1.0140
  835MOL0     H12722   4.397   2.365   8.180 -2.0959 -0.9243 -0.6622
  835MOL0     H12723   4.542   2.756   8.266  0.2687 -1.2997  2.6727
  835MOL0     H12724   3.831   2.151   8.343 -1.7795 -0.7265 -0.4542
  835MOL0     H12725   3.670   2.045   8.470 -1.2915  0.6351  0.3377
  836MOL0     O12726   9.827  10.107   1.662  0.7353 -0.3584  1.0126
  836MOL0     C12727   9.901  10.139   1.567  0.1664 -0.7889  0.2439
  836MOL0     O12728   9.868  10.134   1.429  0.3822  0.3954  0.0877
  836MOL0     C12729   9.737  10.110   1.399 -0.3434  0.6264  0.8742
  836MOL0     C12730   9.712   9.969   1.378  0.1782  0.6452  0.0024
  836MOL0     C12731   9.580   9.928   1.370  0.4876 -0.3542  0.3178
  836MOL0     C12732   9.469  10.019   1.379 -0.1556 -0.0392  0.0206
  836MOL0     O12733   9.348   9.957   1.374  0.4631 -0.2643 -0.2347
  836MOL0     C12734   9.221  10.024   1.392 -0.0329  0.1383 -0.3516
  836MOL0     C12735   9.184  10.082   1.253 -0.4989  0.0822  0.4959
  836MOL0     C12736   9.039  10.133   1.249  0.0980 -0.4370 -0.8072
  836MOL0     C12737   8.933  10.027   1.262  0.2893 -0.4026 -0.2610
  836MOL0     C12738   8.795  10.067   1.193  0.5054  0.3922 -0.4280
  836MOL0     C12739   8.722  10.192   1.228 -0.6344 -0.1560  0.3958
  836MOL0     C12740   8.573  10.195   1.194 -0.0781 -0.5393  0.2355
  836MOL0     C12741   8.511  10.336   1.231  0.0272  0.4779 -0.2870
  836MOL0     N12742   8.369  10.314   1.222 -0.0632 -0.0754 -0.6669
  836MOL0     C12743   8.294  10.243   1.308  0.3605 -1.0049  0.0661
  836MOL0     C12744   8.171  10.269   1.268 -0.1616 -0.6606  0.6668
  836MOL0     C12745   8.057  10.211   1.334  0.3338 -0.8408  0.1841
  836MOL0     C12746   8.033  10.270   1.471  0.8559 -0.4881 -0.6055
  836MOL0     C12747   7.941  10.392   1.474  0.0553  0.3337 -0.5416
  836MOL0     C12748   7.934  10.460   1.606 -0.7236  0.8328 -0.2052
  836MOL0     O12749   7.857  10.578   1.597 -0.1080  0.1806  0.6004
  836MOL0     C12750   7.724  10.586   1.603  0.6149 -1.0928  0.7466
  836MOL0     C12751   7.634  10.484   1.630 -0.2909  0.1515 -0.5570
  836MOL0     C12752   7.496  10.506   1.636 -0.2733  0.3496  0.1257
  836MOL0     C12753   7.402  10.387   1.664 -0.1330 -0.4813  0.4586
  836MOL0     C12754   7.439  10.634   1.615  0.6992  0.3322 -0.1175
  836MOL0     C12755   7.294  10.660   1.606 -0.2462  0.5715  0.9364
  836MOL0     O12756   7.256  10.783   1.652 -0.3651  0.6150 -0.1943
  836MOL0     C12757   7.121  10.814   1.686  0.5495  0.6461 -0.7519
  836MOL0     C12758   7.077  10.947   1.694 -0.9733  0.8253  0.1033
  836MOL0     C12759   6.947  10.973   1.737  0.0633 -0.0647  0.1540
  836MOL0     C12760   6.864  10.872   1.782 -0.1660 -0.1293 -0.2843
  836MOL0     O12761   6.747  10.909   1.852 -0.1074  0.1731  0.2345
  836MOL0     C12762   6.713  10.853   1.979  1.1022 -0.1019  0.2889
  836MOL0     C12763   6.592  10.917   2.042  0.0919  1.4343 -0.5446
  836MOL0     C12764   6.524  10.846   2.169 -0.7618  0.5409 -0.5466
  836MOL0     C12765   6.393  10.917   2.207 -0.6031 -0.2445 -0.6307
  836MOL0     C12766   6.262  10.853   2.158 -0.2042  0.1970 -0.3298
  836MOL0     C12767   6.150  10.930   2.224  0.2115 -0.0559 -0.2308
  836MOL0     C12768   6.022  10.865   2.161  0.5581 -0.0557  0.1991
  836MOL0     C12769   5.904  10.948   2.213  0.5852  0.8524 -0.4729
  836MOL0    Cl12770   5.746  10.877   2.171 -0.4030 -0.3228  0.4188
  836MOL0     C12771   6.903  10.743   1.773  0.0138 -0.0295 -0.6708
  836MOL0     C12772   7.031  10.712   1.724 -0.2985  0.1466  0.4231
  836MOL0     O12773   7.225  10.584   1.532 -0.3704  0.5152  0.4579
  836MOL0     C12774   7.530  10.740   1.598 -0.4040  0.1612 -0.0483
  836MOL0     C12775   7.669  10.713   1.584  0.1810  0.6327  0.5294
  836MOL0     N12776   8.179  10.350   1.158 -0.1705  0.1258  1.0434
  836MOL0     N12777   8.298  10.365   1.123  0.1071 -1.1988  0.3022
  836MOL0     C12778   9.493  10.157   1.398  0.4951  0.7314 -0.0852
  836MOL0     C12779   9.633  10.200   1.401 -0.5591 -0.1531 -0.8215
  836MOL0     C12780  10.046  10.155   1.598  0.3178 -0.5334 -0.3209
  836MOL0     C12781  10.127  10.229   1.509 -0.1015 -0.6919  0.4782
  836MOL0     C12782  10.262  10.226   1.531  0.1318 -0.0514  0.4899
  836MOL0     C12783  10.324  10.169   1.638 -0.7144  0.4236  0.2116
  836MOL0     O12784  10.457  10.183   1.633 -0.4857 -0.3749  0.4026
  836MOL0     C12785  10.530  10.109   1.725 -0.4866 -0.3749 -0.3357
  836MOL0     C12786  10.559   9.956   1.683  0.0609 -0.4435 -0.0831
  836MOL0     C12787  10.648   9.948   1.558  0.2169 -0.0063 -0.5261
  836MOL0     C12788  10.562   9.950   1.424  0.2342 -0.5852  0.0076
  836MOL0     C12789  10.501   9.818   1.383  1.0212 -0.9678  0.1715
  836MOL0     C12790  10.453   9.715   1.342  0.2918  0.4188  0.1824
  836MOL0     C12791  10.243  10.116   1.740  0.3335  0.0043  0.2181
  836MOL0     C12792  10.102  10.108   1.719 -0.2428 -1.0035  0.1558
  836MOL0     H12793   9.793   9.899   1.362  2.6543  2.8647  1.8852
  836MOL0     H12794   9.569   9.823   1.345 -0.0292 -0.8689  2.4955
  836MOL0     H12795   9.155   9.943   1.426  1.4244 -0.4685  1.2089
  836MOL0     H12796   9.220  10.100   1.470  0.0921  0.8940 -1.0760
  836MOL0     H12797   9.253  10.165   1.240  0.1037 -0.0943  2.2117
  836MOL0     H12798   9.198  10.007   1.175  0.8592  0.1860  0.6176
  836MOL0     H12799   9.029  10.214   1.321 -2.0859  0.8427 -2.4488
  836MOL0     H12800   9.023  10.180   1.152 -0.8316 -0.8731 -0.8773
  836MOL0     H12801   8.974   9.931   1.227  0.9981 -0.2030  0.0010
  836MOL0     H12802   8.896  10.020   1.365 -0.1965  1.5935 -0.2630
  836MOL0     H12803   8.805  10.067   1.084 -1.5928  1.8560 -0.6821
  836MOL0     H12804   8.729   9.985   1.223 -0.1910  0.1526 -2.4196
  836MOL0     H12805   8.726  10.212   1.336 -0.5028 -3.5951  1.1227
  836MOL0     H12806   8.762  10.282   1.181 -1.3578 -0.3199 -0.5470
  836MOL0     H12807   8.550  10.166   1.091 -0.2355  0.6893 -0.0844
  836MOL0     H12808   8.522  10.125   1.261 -2.7914  1.1263  0.0652
  836MOL0     H12809   8.542  10.417   1.164  0.2610 -0.4544 -1.3420
  836MOL0     H12810   8.532  10.364   1.335 -0.1322 -0.3939 -0.0172
  836MOL0     H12811   8.326  10.174   1.385  2.2115 -0.4725 -0.1758
  836MOL0     H12812   7.965  10.209   1.275 -1.0150 -1.1210  2.1938
  836MOL0     H12813   8.087  10.107   1.352  1.9761 -0.5656 -0.7439
  836MOL0     H12814   8.134  10.289   1.510  0.3499  0.6053  0.2259
  836MOL0     H12815   7.999  10.191   1.538  0.4248  0.0931 -0.1311
  836MOL0     H12816   7.841  10.358   1.444 -0.2990 -0.9012  1.7661
  836MOL0     H12817   7.970  10.474   1.408 -0.8435  1.5215  0.4832
  836MOL0     H12818   8.036  10.494   1.626  0.0192 -1.8083  0.9256
  836MOL0     H12819   7.895  10.392   1.682  0.1229 -0.9484 -1.3061
  836MOL0     H12820   7.682  10.387   1.639  2.2282  1.2473 -1.2605
  836MOL0     H12821   7.314  10.431   1.712  0.2641  0.3613  0.4303
  836MOL0     H12822   7.387  10.325   1.575  0.1271  1.8462 -1.3084
  836MOL0     H12823   7.444  10.319   1.739  0.2400 -2.6335 -1.5878
  836MOL0     H12824   7.135  11.035   1.670 -0.4291  0.1600 -1.1639
  836MOL0     H12825   6.911  11.075   1.747  2.2317  0.5574  2.8520
  836MOL0     H12826   6.685  10.749   1.960  1.8524  0.3008 -3.9863
  836MOL0     H12827   6.797  10.847   2.050  1.7097  1.0636 -0.2954
  836MOL0     H12828   6.621  11.019   2.067  3.2578  0.6733 -0.6216
  836MOL0     H12829   6.510  10.920   1.969 -1.2439  0.8549  0.8690
  836MOL0     H12830   6.599  10.857   2.247  1.4608  2.4679 -2.7706
  836MOL0     H12831   6.502  10.740   2.149 -3.2614  0.2813  2.7941
  836MOL0     H12832   6.383  10.916   2.316 -0.9471 -0.7104 -0.6634
  836MOL0     H12833   6.399  11.020   2.172  0.8686 -1.4990 -4.6326
  836MOL0     H12834   6.266  10.747   2.184  2.2630  0.6083  1.3278
  836MOL0     H12835   6.263  10.859   2.049  1.9704  2.0862 -0.2684
  836MOL0     H12836   6.146  10.922   2.333  1.2090 -2.3607 -0.3128
  836MOL0     H12837   6.159  11.035   2.195  1.6321  0.4678  1.8793
  836MOL0     H12838   6.008  10.760   2.185 -1.0169  0.5259  2.0993
  836MOL0     H12839   6.021  10.872   2.052 -2.5356  0.6737  0.1872
  836MOL0     H12840   5.909  11.048   2.167  1.0017  1.1350  0.1742
  836MOL0     H12841   5.912  10.980   2.317 -2.7914 -1.9468  0.8184
  836MOL0     H12842   6.829  10.676   1.816  0.2654  1.2988  2.0544
  836MOL0     H12843   7.051  10.606   1.735  0.4075  0.4634  2.7792
  836MOL0     H12844   7.496  10.843   1.586 -0.3293  0.3287  1.1203
  836MOL0     H12845   7.733  10.799   1.564 -1.3611  1.7937  0.3419
  836MOL0     H12846   9.408  10.223   1.414  1.3432  2.7607 -3.1179
  836MOL0     H12847   9.643  10.303   1.433  0.3118  0.8046 -3.8957
  836MOL0     H12848  10.087  10.280   1.422  1.4305 -1.5705 -0.7996
  836MOL0     H12849  10.320  10.277   1.455  1.9025  1.8482  2.9519
  836MOL0     H12850  10.627  10.158   1.739  0.7198 -2.9365  0.7189
  836MOL0     H12851  10.481  10.100   1.822  2.6991 -4.8008  1.2210
  836MOL0     H12852  10.471   9.894   1.663  0.4565 -0.2295 -2.8758
  836MOL0     H12853  10.622   9.929   1.768  0.2533  0.9243  0.2398
  836MOL0     H12854  10.704   9.854   1.561 -0.6603 -0.6728 -2.9620
  836MOL0     H12855  10.707  10.040   1.552 -0.3213  0.4767  1.0041
  836MOL0     H12856  10.621   9.984   1.339  0.1413  1.1208  0.5925
  836MOL0     H12857  10.482  10.025   1.422  2.0020  1.3752 -1.1022
  836MOL0     H12858  10.405   9.627   1.302  2.6735 -1.5552  1.3400
  836MOL0     H12859  10.280  10.077   1.834 -1.9675  0.0904  1.2237
  836MOL0     H12860  10.036  10.064   1.793 -1.9408  1.2521  0.0868
  837MOL0     O12861   4.942  11.238   4.633 -0.0088  0.7184 -1.0148
  837MOL0     C12862   5.014  11.333   4.653  0.1199  0.3093  0.0187
  837MOL0     O12863   4.984  11.443   4.734  0.1380 -0.6878 -0.0586
  837MOL0     C12864   4.870  11.440   4.808  0.1444 -0.3553  0.1885
  837MOL0     C12865   4.868  11.373   4.928 -0.1285  0.5786 -0.0807
  837MOL0     C12866   4.748  11.361   5.003 -0.3525 -0.2403  0.0104
  837MOL0     C12867   4.633  11.414   4.949 -0.2128 -0.4893 -0.5381
  837MOL0     O12868   4.519  11.395   5.020 -0.1625 -0.4215  0.5018
  837MOL0     C12869   4.390  11.406   4.965  0.0105 -0.3806  0.0164
  837MOL0     C12870   4.292  11.413   5.084 -0.4168  0.4072 -0.8184
  837MOL0     C12871   4.154  11.404   5.023  0.1480  0.3334 -0.0380
  837MOL0     C12872   4.054  11.418   5.134 -0.2906  0.1996  0.5134
  837MOL0     C12873   3.914  11.396   5.074 -0.2211 -0.1591 -0.4838
  837MOL0     C12874   3.786  11.426   5.154 -0.0153 -0.7356 -0.0031
  837MOL0     C12875   3.664  11.372   5.081  0.4714  0.0973  0.3052
  837MOL0     C12876   3.552  11.336   5.192 -1.0420  0.6839  0.0957
  837MOL0     N12877   3.437  11.312   5.101  0.1927 -0.1731 -0.6402
  837MOL0     C12878   3.360  11.407   5.031 -0.1182 -0.5646 -0.2469
  837MOL0     C12879   3.283  11.332   4.944  0.5005  0.0634 -0.3551
  837MOL0     C12880   3.182  11.379   4.848 -0.0040 -0.4839  0.6095
  837MOL0     C12881   3.152  11.532   4.838  0.3254  0.4643  0.3744
  837MOL0     C12882   3.048  11.566   4.938 -0.3008 -0.5422  0.2969
  837MOL0     C12883   2.911  11.564   4.900  0.3820 -0.5141  0.4938
  837MOL0     O12884   2.837  11.631   5.000 -0.3939  0.0737  0.1764
  837MOL0     C12885   2.699  11.628   4.983  0.2873  0.6703  1.4341
  837MOL0     C12886   2.642  11.686   4.873  0.4119  0.0848 -0.2230
  837MOL0     C12887   2.501  11.672   4.854 -0.2563 -0.4666 -0.3470
  837MOL0     C12888   2.445  11.732   4.731  0.3068  0.0839  0.7953
  837MOL0     C12889   2.418  11.609   4.957 -1.0042  0.3579 -0.2927
  837MOL0     C12890   2.267  11.593   4.947 -0.1422  0.5086 -0.3227
  837MOL0     O12891   2.198  11.557   5.059  0.6810  0.4419 -0.1297
  837MOL0     C12892   2.068  11.585   5.069  0.2097 -0.6579 -0.1158
  837MOL0     C12893   2.014  11.717   5.065  0.6541  0.7417  0.3163
  837MOL0     C12894   1.874  11.736   5.079 -0.4802 -0.2353  0.1762
  837MOL0     C12895   1.789  11.621   5.087  0.2265 -0.1457  1.1908
  837MOL0     O12896   1.653  11.634   5.096 -0.2784 -0.0273 -0.5127
  837MOL0     C12897   1.596  11.632   4.962 -0.7859  0.3012 -0.1479
  837MOL0     C12898   1.449  11.626   4.962 -0.0789 -0.1563 -0.2536
  837MOL0     C12899   1.390  11.619   4.821 -0.3693 -0.5626 -0.3908
  837MOL0     C12900   1.250  11.558   4.823  0.4035 -0.4598  0.0237
  837MOL0     C12901   1.181  11.559   4.689  0.3409  0.6247  0.2667
  837MOL0     C12902   1.034  11.502   4.722  0.0747 -0.1845  0.4353
  837MOL0     C12903   0.950  11.535   4.599  0.0440 -0.5811 -0.0896
  837MOL0     C12904   0.819  11.454   4.600  0.5273 -0.5549 -0.0855
  837MOL0    Cl12905   0.733  11.488   4.756  0.4775 -0.0181 -0.4387
  837MOL0     C12906   1.843  11.493   5.088  0.2961 -0.4848  0.0798
  837MOL0     C12907   1.982  11.476   5.077  0.4840  0.9791 -0.8940
  837MOL0     O12908   2.204  11.628   4.843  0.6775  0.5011  0.0188
  837MOL0     C12909   2.484  11.559   5.073 -0.2679 -0.2032 -0.2624
  837MOL0     C12910   2.627  11.560   5.082 -0.6325  0.0345 -0.2530
  837MOL0     N12911   3.323  11.200   4.962  0.0526 -0.4528 -0.2924
  837MOL0     N12912   3.406  11.191   5.060 -0.7822  1.3186 -0.0558
  837MOL0     C12913   4.635  11.478   4.827 -0.5463 -0.5314  0.0400
  837MOL0     C12914   4.750  11.493   4.752  0.1002  1.0583  0.2975
  837MOL0     C12915   5.144  11.339   4.587 -0.1686  0.7670  0.3259
  837MOL0     C12916   5.158  11.297   4.454 -0.9724  0.1262  0.7018
  837MOL0     C12917   5.282  11.315   4.388  0.4674  0.9166 -0.1528
  837MOL0     C12918   5.403  11.356   4.460  0.2552  1.2051  0.2746
  837MOL0     O12919   5.518  11.360   4.385  0.3354 -0.2839 -0.4153
  837MOL0     C12920   5.639  11.371   4.466 -0.3600 -0.1032  0.1500
  837MOL0     C12921   5.760  11.334   4.375  0.3953 -0.9088  0.1936
  837MOL0     C12922   5.900  11.369   4.444 -0.0198 -0.0922  0.2695
  837MOL0     C12923   6.010  11.301   4.359  0.2194 -0.7433  0.8795
  837MOL0     C12924   6.143  11.346   4.406 -0.7505  0.6412  0.2909
  837MOL0     C12925   6.253  11.386   4.450  0.0215  1.0462 -0.0776
  837MOL0     C12926   5.383  11.387   4.598 -0.0055  0.0135 -0.6507
  837MOL0     C12927   5.256  11.389   4.655  0.4845 -0.2219 -0.0730
  837MOL0     H12928   4.964  11.340   4.967 -0.1115  0.3088 -0.3493
  837MOL0     H12929   4.764  11.329   5.106  1.1890  3.6002  1.1542
  837MOL0     H12930   4.388  11.503   4.915  2.5540 -0.1744  0.1584
  837MOL0     H12931   4.382  11.321   4.898  2.3857  0.8882 -2.0612
  837MOL0     H12932   4.295  11.330   5.154 -0.1751  1.9259  1.0600
  837MOL0     H12933   4.301  11.500   5.150 -3.1362  1.9006 -2.2064
  837MOL0     H12934   4.144  11.478   4.943  0.8575 -0.3146 -0.7495
  837MOL0     H12935   4.142  11.302   4.984  0.8047  0.6663 -1.1807
  837MOL0     H12936   4.078  11.351   5.217 -0.0634 -0.8858 -0.4034
  837MOL0     H12937   4.064  11.520   5.174 -1.0875  0.3961  0.2458
  837MOL0     H12938   3.900  11.451   4.980  0.0950  1.9426  0.6441
  837MOL0     H12939   3.915  11.294   5.036  1.5343 -0.0054 -0.9298
  837MOL0     H12940   3.793  11.378   5.252  0.3402 -1.0386 -0.1720
  837MOL0     H12941   3.770  11.530   5.181 -1.5626 -0.4852 -1.6741
  837MOL0     H12942   3.628  11.441   5.004  0.4262  2.1357  2.0601
  837MOL0     H12943   3.692  11.276   5.036 -0.7659  0.2630 -0.8833
  837MOL0     H12944   3.532  11.410   5.270  1.6138 -0.1915  1.7372
  837MOL0     H12945   3.603  11.251   5.237  0.0435  1.5435  0.5425
  837MOL0     H12946   3.379  11.513   5.038 -0.1452 -0.6330  1.0179
  837MOL0     H12947   3.200  11.347   4.745 -1.7474 -1.5180  0.5965
  837MOL0     H12948   3.092  11.324   4.877  1.0131 -1.4138  2.1533
  837MOL0     H12949   3.117  11.561   4.738  1.6980  2.8340  0.5113
  837MOL0     H12950   3.243  11.586   4.868 -0.9146  1.3731  2.6872
  837MOL0     H12951   3.067  11.671   4.963 -2.5550 -0.1856  0.6531
  837MOL0     H12952   3.056  11.511   5.032  0.6937 -0.1279  0.4641
  837MOL0     H12953   2.874  11.462   4.881 -1.1733  0.3829 -1.8747
  837MOL0     H12954   2.894  11.619   4.807 -1.3287 -1.6160  0.1021
  837MOL0     H12955   2.697  11.747   4.802 -2.2396  3.7165  0.5646
  837MOL0     H12956   2.392  11.823   4.761  0.8112  1.6585 -2.5799
  837MOL0     H12957   2.522  11.766   4.661 -1.8946  0.3214 -1.6795
  837MOL0     H12958   2.378  11.668   4.674 -0.8460  2.0094 -0.0990
  837MOL0     H12959   2.087  11.797   5.059  0.1276  1.1188 -1.3456
  837MOL0     H12960   1.836  11.837   5.069 -2.7242 -1.0788 -0.4262
  837MOL0     H12961   1.633  11.715   4.902 -0.5892 -0.5754 -1.2828
  837MOL0     H12962   1.623  11.542   4.906 -1.7997 -2.2764  3.1568
  837MOL0     H12963   1.414  11.546   5.028 -1.5956  2.9500  3.1064
  837MOL0     H12964   1.412  11.715   5.015 -1.9321 -0.1243 -1.4909
  837MOL0     H12965   1.449  11.552   4.756 -0.8513 -2.2669  0.8627
  837MOL0     H12966   1.379  11.719   4.777 -1.1484 -0.4873 -0.0295
  837MOL0     H12967   1.267  11.457   4.861  0.3562  0.8431  4.0615
  837MOL0     H12968   1.188  11.605   4.900 -0.7794  0.5901 -1.4975
  837MOL0     H12969   1.239  11.495   4.621 -1.3039  2.2166 -2.8267
  837MOL0     H12970   1.168  11.659   4.648  1.8516  0.1822 -1.4949
  837MOL0     H12971   1.031  11.398   4.755 -0.5594  0.3396  2.1240
  837MOL0     H12972   0.999  11.559   4.808 -0.3102 -1.5136  1.1860
  837MOL0     H12973   1.000  11.506   4.506 -0.0923 -1.2883  0.0505
  837MOL0     H12974   0.926  11.642   4.595 -0.8896 -0.7863 -0.3116
  837MOL0     H12975   0.824  11.346   4.584 -0.3245 -0.6288  0.0953
  837MOL0     H12976   0.761  11.496   4.517  1.9136  0.6442 -0.4819
  837MOL0     H12977   1.780  11.404   5.093  2.2531 -1.8799  1.0684
  837MOL0     H12978   2.026  11.377   5.066 -1.2503  0.0149  0.3091
  837MOL0     H12979   2.429  11.511   5.154 -0.6712 -2.1284 -1.6139
  837MOL0     H12980   2.684  11.514   5.162 -1.4419 -2.4109 -0.9842
  837MOL0     H12981   4.541  11.508   4.783  1.9120  2.3773 -3.9298
  837MOL0     H12982   4.743  11.531   4.650 -2.0195 -1.0658 -0.4113
  837MOL0     H12983   5.074  11.246   4.407 -1.0285  0.1940  0.7297
  837MOL0     H12984   5.297  11.292   4.283  1.1209  0.7001 -0.0159
  837MOL0     H12985   5.648  11.474   4.504 -0.1155  0.3073 -0.9895
  837MOL0     H12986   5.647  11.302   4.551  0.6466 -1.3505 -0.9243
  837MOL0     H12987   5.742  11.391   4.284  0.0200 -0.0089  0.8156
  837MOL0     H12988   5.758  11.225   4.363 -0.2917 -0.6289 -2.6702
  837MOL0     H12989   5.894  11.323   4.543 -2.6666  0.5254  0.4741
  837MOL0     H12990   5.922  11.477   4.451  0.0629 -0.1179  0.4263
  837MOL0     H12991   6.000  11.322   4.252 -1.7892 -0.2330  1.1282
  837MOL0     H12992   6.003  11.193   4.371  0.0016 -1.2198 -2.5172
  837MOL0     H12993   6.355  11.416   4.465 -0.5585  1.9246  2.7923
  837MOL0     H12994   5.466  11.424   4.659  1.1918 -2.1309 -0.8732
  837MOL0     H12995   5.245  11.426   4.756 -0.4894 -1.4421  0.3019
  838MOL0     O12996   9.035   9.165  10.158 -0.2688 -0.3006  0.0026
  838MOL0     C12997   9.090   9.151  10.268  0.3932  0.1694  0.3303
  838MOL0     O12998   9.029   9.174  10.389  0.0516 -0.2599  0.4381
  838MOL0     C12999   8.896   9.189  10.379  0.1855  0.1423 -0.1973
  838MOL0     C13000   8.828   9.310  10.369  0.0208  0.3056  0.5927
  838MOL0     C13001   8.693   9.320  10.338 -0.2117 -0.2239 -0.5911
  838MOL0     C13002   8.614   9.202  10.326  0.3674 -0.0634  0.4003
  838MOL0     O13003   8.481   9.212  10.279 -0.3702  0.3609  0.0653
  838MOL0     C13004   8.387   9.298  10.354 -0.1240  0.3305  0.1601
  838MOL0     C13005   8.276   9.325  10.258 -0.5561  0.9476  0.4740
  838MOL0     C13006   8.178   9.207  10.241  0.1204 -0.3818  0.3037
  838MOL0     C13007   8.111   9.165  10.373 -0.3527 -0.2526 -0.6902
  838MOL0     C13008   8.008   9.052  10.350 -0.5044  0.1070 -0.3170
  838MOL0     C13009   7.943   9.002  10.469 -0.0981  0.6324  0.0524
  838MOL0     C13010   7.821   9.082  10.523 -0.0742  0.3540 -0.5772
  838MOL0     C13011   7.860   9.217  10.595 -0.3465  0.2684  0.1112
  838MOL0     N13012   7.742   9.265  10.676 -0.9059  0.3336  0.8454
  838MOL0     C13013   7.741   9.249  10.813  0.8196 -0.0444  0.3466
  838MOL0     C13014   7.610   9.280  10.845  1.0765 -0.6499 -0.2172
  838MOL0     C13015   7.569   9.293  10.994 -0.4402  0.0534  0.5659
  838MOL0     C13016   7.462   9.399  11.018  0.2457  0.1551 -0.8255
  838MOL0     C13017   7.321   9.356  10.985 -0.1483 -0.4071 -0.5878
  838MOL0     C13018   7.228   9.471  11.014  0.2243 -0.4977  0.2352
  838MOL0     O13019   7.091   9.433  10.992  0.0145  1.3076 -0.6751
  838MOL0     C13020   6.995   9.500  11.065 -0.0319  0.1948 -0.4488
  838MOL0     C13021   6.997   9.639  11.093  0.2160  0.5448 -0.0837
  838MOL0     C13022   6.891   9.699  11.161 -0.6232  0.0646 -0.5630
  838MOL0     C13023   6.923   9.834  11.227  0.1337 -0.2346  0.4254
  838MOL0     C13024   6.772   9.627  11.185 -0.2644  0.1898 -0.2543
  838MOL0     C13025   6.656   9.688  11.252  0.3742  0.0336 -0.0461
  838MOL0     O13026   6.612   9.807  11.208 -0.3117 -0.3344  0.1441
  838MOL0     C13027   6.501   9.853  11.273  0.2134  0.7952  0.2081
  838MOL0     C13028   6.376   9.849  11.201 -0.1359  0.1107  0.0828
  838MOL0     C13029   6.257   9.905  11.249 -0.5375  0.2629  0.1831
  838MOL0     C13030   6.264   9.971  11.373  0.3628 -0.7028  0.3352
  838MOL0     O13031   6.147  10.046  11.406  0.1638  0.3178  0.4027
  838MOL0     C13032   6.142  10.130  11.524  0.0620  0.4134 -0.2757
  838MOL0     C13033   6.043  10.243  11.496  0.7987  0.6685  0.0138
  838MOL0     C13034   6.024  10.334  11.613 -0.2858  0.3448  0.5292
  838MOL0     C13035   5.935  10.451  11.585 -0.5425 -0.1524 -0.3905
  838MOL0     C13036   5.787  10.423  11.599  0.8123 -0.5686  0.6937
  838MOL0     C13037   5.709  10.551  11.628 -0.0329 -0.4622  0.2820
  838MOL0     C13038   5.559  10.526  11.665  0.0344  0.3317 -0.2021
  838MOL0     C13039   5.456  10.651  11.662 -0.5264  0.5886  0.0417
  838MOL0    Cl13040   5.439  10.719  11.496  0.4210 -0.1883 -0.3996
  838MOL0     C13041   6.385   9.976  11.445 -0.0734 -0.0806  0.3226
  838MOL0     C13042   6.502   9.917  11.395  0.0377 -0.5094 -0.6316
  838MOL0     O13043   6.611   9.623  11.346  0.3792 -0.8565  0.3726
  838MOL0     C13044   6.763   9.488  11.152 -0.2692 -0.1722  0.2764
  838MOL0     C13045   6.875   9.423  11.089  0.4192 -0.4811 -0.3792
  838MOL0     N13046   7.548   9.311  10.730  0.6750 -0.5272 -0.2195
  838MOL0     N13047   7.624   9.305  10.627 -0.9850 -0.4859 -0.1460
  838MOL0     C13048   8.681   9.077  10.332  0.5913  0.0317 -0.2352
  838MOL0     C13049   8.818   9.073  10.367 -0.8249  0.4227  0.0749
  838MOL0     C13050   9.227   9.126  10.256  0.3526  0.5767  0.5879
  838MOL0     C13051   9.302   9.139  10.141  0.2152  0.2366 -0.5948
  838MOL0     C13052   9.442   9.122  10.139 -1.0600  0.6603 -0.3689
  838MOL0     C13053   9.517   9.092  10.256  0.0404  0.3363 -0.4359
  838MOL0     O13054   9.652   9.065  10.274  0.1016  0.0024  0.9464
  838MOL0     C13055   9.739   9.094  10.160 -0.1675 -0.0582  1.2168
  838MOL0     C13056   9.892   9.063  10.173  0.3100 -0.3112 -0.0431
  838MOL0     C13057   9.935   9.099  10.313 -0.0285 -0.4625 -0.1784
  838MOL0     C13058  10.088   9.122  10.335 -0.1734 -0.3178 -0.5614
  838MOL0     C13059  10.142   9.233  10.256  0.7723  0.4788 -0.1712
  838MOL0     C13060  10.186   9.310  10.177  0.0519 -0.0412  0.4673
  838MOL0     C13061   9.442   9.087  10.366  0.2557  0.6739  0.2215
  838MOL0     C13062   9.304   9.099  10.369  0.2873 -0.5315 -0.0090
  838MOL0     H13063   8.889   9.399  10.362 -1.8228  1.7318  1.6033
  838MOL0     H13064   8.656   9.416  10.304  0.0623 -0.2205 -0.8750
  838MOL0     H13065   8.358   9.254  10.450  1.1092  1.5703  1.1563
  838MOL0     H13066   8.432   9.393  10.385  2.9765 -0.6141 -1.0671
  838MOL0     H13067   8.209   9.406  10.289 -3.0637  0.1203 -2.3241
  838MOL0     H13068   8.322   9.345  10.161  2.1928  1.1836  1.7232
  838MOL0     H13069   8.109   9.240  10.163  0.0763  0.5214  0.7075
  838MOL0     H13070   8.230   9.116  10.209 -3.0347 -2.0401 -0.5130
  838MOL0     H13071   8.181   9.117  10.442 -1.5614  1.0755  1.5846
  838MOL0     H13072   8.079   9.260  10.417 -2.3157  0.3017 -3.0761
  838MOL0     H13073   7.929   9.070  10.278 -0.7850  0.7146  0.1381
  838MOL0     H13074   8.062   8.968  10.304 -2.2366 -1.0290 -0.3880
  838MOL0     H13075   7.909   8.904  10.435  2.1413 -0.1121 -0.1592
  838MOL0     H13076   8.022   8.988  10.543 -2.6100  1.6304  3.1841
  838MOL0     H13077   7.761   9.106  10.435 -0.3509 -1.1607 -0.8340
  838MOL0     H13078   7.772   9.021  10.598  1.7752  0.0288  0.4146
  838MOL0     H13079   7.885   9.291  10.519  1.3785 -0.0279  0.3496
  838MOL0     H13080   7.951   9.224  10.655  1.0694 -2.0001 -1.6145
  838MOL0     H13081   7.819   9.235  10.887  0.7733 -3.2591 -0.0963
  838MOL0     H13082   7.550   9.193  11.032 -1.8925  0.2364  0.3647
  838MOL0     H13083   7.662   9.326  11.041  0.9352  0.6926 -2.3541
  838MOL0     H13084   7.486   9.487  10.958  0.3556 -0.7926 -2.2105
  838MOL0     H13085   7.469   9.437  11.120  1.0626 -0.4938 -0.6220
  838MOL0     H13086   7.297   9.273  11.052 -1.9302  0.5669  0.0633
  838MOL0     H13087   7.309   9.320  10.882  0.2517  1.2899 -1.2781
  838MOL0     H13088   7.254   9.551  10.945  0.1124  0.6435  1.4706
  838MOL0     H13089   7.243   9.503  11.118  0.8033 -2.9806  0.9936
  838MOL0     H13090   7.090   9.691  11.074 -0.0996  0.1099 -3.5309
  838MOL0     H13091   6.886   9.922  11.173  3.4699  0.7263 -0.5368
  838MOL0     H13092   6.880   9.838  11.328 -4.0810 -0.0034 -1.1609
  838MOL0     H13093   7.026   9.867  11.240 -0.5351  2.5545 -0.6843
  838MOL0     H13094   6.385   9.785  11.114  0.3686 -0.8832  0.8399
  838MOL0     H13095   6.167   9.901  11.188  0.2959  0.7684 -1.1233
  838MOL0     H13096   6.115  10.065  11.607 -0.1969 -0.5281 -1.0828
  838MOL0     H13097   6.241  10.174  11.541  0.5874 -0.3990 -1.1486
  838MOL0     H13098   6.065  10.296  11.403 -0.2466 -1.8738 -1.7832
  838MOL0     H13099   5.954  10.187  11.469 -1.0807  4.4215 -2.3804
  838MOL0     H13100   6.125  10.373  11.628 -0.1287  0.1814 -0.0804
  838MOL0     H13101   5.999  10.272  11.699  1.1097 -3.1524 -1.3577
  838MOL0     H13102   5.963  10.521  11.664 -4.0958  0.6217  0.3579
  838MOL0     H13103   5.957  10.493  11.486 -0.2989  1.8283  0.4600
  838MOL0     H13104   5.763  10.365  11.689 -1.8189 -0.1055  0.3850
  838MOL0     H13105   5.735  10.374  11.516 -1.5985 -0.3886  1.9937
  838MOL0     H13106   5.761  10.612  11.702  1.9089  0.2758 -1.6092
  838MOL0     H13107   5.721  10.608  11.536 -1.2013  1.2000  1.1060
  838MOL0     H13108   5.558  10.502  11.772  1.4105 -1.6283 -0.5845
  838MOL0     H13109   5.518  10.441  11.610 -2.3864  2.1252 -1.3885
  838MOL0     H13110   5.483  10.717  11.745  0.7528 -2.4237  2.2360
  838MOL0     H13111   5.358  10.618  11.698 -1.6213  0.2706 -2.9755
  838MOL0     H13112   6.401  10.025  11.541 -0.2265  0.8728 -0.1256
  838MOL0     H13113   6.596   9.929  11.450  0.0664 -0.5029 -0.6822
  838MOL0     H13114   6.673   9.434  11.182  0.7982 -2.2545 -0.1000
  838MOL0     H13115   6.860   9.319  11.063  0.9673 -0.7670  0.4207
  838MOL0     H13116   8.630   8.982  10.319  1.9957 -1.3229  3.0174
  838MOL0     H13117   8.862   8.974  10.376 -1.4673  0.1294  0.0978
  838MOL0     H13118   9.257   9.169  10.047  0.6803  0.3545 -0.7860
  838MOL0     H13119   9.506   9.125  10.052 -0.6125 -0.7679 -0.1150
  838MOL0     H13120   9.717   9.037  10.070  1.7996 -0.6898  1.0883
  838MOL0     H13121   9.730   9.198  10.128 -0.5966  0.3539  2.5941
  838MOL0     H13122   9.953   9.120  10.101 -0.2913  1.2634  0.6460
  838MOL0     H13123   9.913   8.960  10.145 -2.6458 -0.7289 -1.1069
  838MOL0     H13124   9.905   9.013  10.374 -1.5010 -0.2533 -0.5556
  838MOL0     H13125   9.885   9.180  10.368  0.1333 -2.1796  2.6910
  838MOL0     H13126  10.141   9.031  10.306 -1.6918 -1.3825 -0.1119
  838MOL0     H13127  10.111   9.129  10.442 -0.4200 -3.8587 -0.1604
  838MOL0     H13128  10.218   9.375  10.098 -3.2654  2.2620  0.8423
  838MOL0     H13129   9.495   9.075  10.460 -0.4169 -0.9178  0.4381
  838MOL0     H13130   9.270   9.091  10.472  2.0107 -0.5022  0.6014
  839MOL0     O13131   9.241   5.439  10.352  0.7324  0.0083 -0.9016
  839MOL0     C13132   9.258   5.514  10.256 -0.3665  1.4042 -0.1200
  839MOL0     O13133   9.182   5.520  10.141  0.1846  0.2099  0.1098
  839MOL0     C13134   9.069   5.449  10.119  0.4133  0.3631  0.3724
  839MOL0     C13135   8.988   5.384  10.219  0.1736 -0.4982  0.7332
  839MOL0     C13136   8.857   5.340  10.184 -0.4371  0.3725 -0.2476
  839MOL0     C13137   8.794   5.364  10.063  0.4719 -0.0341  0.0492
  839MOL0     O13138   8.658   5.334  10.038  0.3646 -0.5655  0.3344
  839MOL0     C13139   8.614   5.343   9.895  0.4956 -0.8474  0.9399
  839MOL0     C13140   8.557   5.483   9.860  0.0450 -0.0154 -0.5050
  839MOL0     C13141   8.507   5.509   9.720  0.4834  0.1449  0.6298
  839MOL0     C13142   8.371   5.444   9.687  0.0525  0.3824 -0.2859
  839MOL0     C13143   8.279   5.510   9.583 -0.2918 -0.4063 -0.0950
  839MOL0     C13144   8.151   5.428   9.561  0.0212 -0.4020  0.0505
  839MOL0     C13145   8.083   5.492   9.446  0.4723 -0.4143 -0.1821
  839MOL0     C13146   7.974   5.400   9.385 -0.2055  0.1615  0.1810
  839MOL0     N13147   7.833   5.439   9.427 -0.1778  0.1100 -0.3490
  839MOL0     C13148   7.775   5.563   9.438 -0.3067 -0.6312  0.4839
  839MOL0     C13149   7.646   5.528   9.460  0.1769  1.1781  0.4561
  839MOL0     C13150   7.534   5.630   9.476 -0.3584 -0.2324 -0.0112
  839MOL0     C13151   7.490   5.687   9.338 -0.5925  0.7530 -0.0357
  839MOL0     C13152   7.462   5.597   9.221 -0.7050 -0.0900 -0.1398
  839MOL0     C13153   7.343   5.500   9.249  0.0431 -0.1211 -0.2662
  839MOL0     O13154   7.231   5.581   9.290 -0.0025  0.2870  0.5467
  839MOL0     C13155   7.105   5.529   9.291  0.2434  0.9112 -0.0391
  839MOL0     C13156   7.003   5.603   9.241  0.1111  0.9017 -0.5088
  839MOL0     C13157   6.870   5.559   9.240 -0.5569 -0.6539  0.2228
  839MOL0     C13158   6.774   5.650   9.178  0.7438 -0.0443 -0.5333
  839MOL0     C13159   6.831   5.443   9.309 -0.7299 -0.4786  0.1897
  839MOL0     C13160   6.699   5.388   9.316 -0.1493 -1.2844 -0.5953
  839MOL0     O13161   6.681   5.303   9.426  0.1633  0.0414  0.2106
  839MOL0     C13162   6.578   5.216   9.424  0.1331 -0.0026  0.3259
  839MOL0     C13163   6.452   5.244   9.482 -0.4864  0.6499 -1.0607
  839MOL0     C13164   6.355   5.146   9.478  0.4564  0.1627  0.0784
  839MOL0     C13165   6.367   5.030   9.395  0.0312 -0.3210 -0.8902
  839MOL0     O13166   6.267   4.941   9.372  0.1779  0.2732 -0.3273
  839MOL0     C13167   6.151   4.925   9.454  0.3280  0.2080 -0.3096
  839MOL0     C13168   6.038   4.877   9.360 -0.1127  0.4713 -0.0532
  839MOL0     C13169   5.907   4.819   9.439 -0.1598 -0.9472  0.4584
  839MOL0     C13170   5.814   4.748   9.339 -0.0160  0.4469  0.3925
  839MOL0     C13171   5.700   4.691   9.427 -0.2406 -0.6278  0.1789
  839MOL0     C13172   5.580   4.625   9.350 -0.3224 -0.5581 -0.4249
  839MOL0     C13173   5.499   4.708   9.244 -0.4187  0.1108 -0.5734
  839MOL0     C13174   5.390   4.618   9.189 -0.7663  0.6196  0.1142
  839MOL0    Cl13175   5.277   4.557   9.304 -0.1491  0.0057 -0.0783
  839MOL0     C13176   6.487   5.002   9.339 -0.0428 -0.8126  0.0347
  839MOL0     C13177   6.591   5.094   9.356  0.5002 -0.2844 -0.4347
  839MOL0     O13178   6.623   5.406   9.224  0.8543  0.2427  0.5881
  839MOL0     C13179   6.936   5.365   9.360 -0.3512  0.2618 -0.2306
  839MOL0     C13180   7.069   5.410   9.357  1.0467  0.4636  0.4460
  839MOL0     N13181   7.629   5.396   9.447  0.1660 -0.2520  0.3267
  839MOL0     N13182   7.741   5.340   9.444 -0.1678 -0.7879 -0.3401
  839MOL0     C13183   8.874   5.434   9.965 -0.0401  0.9844  0.3911
  839MOL0     C13184   9.007   5.474   9.992  0.4402  0.0635 -0.3632
  839MOL0     C13185   9.373   5.609  10.251 -0.0605  0.3105 -0.4125
  839MOL0     C13186   9.489   5.595  10.329  0.2216  0.4434 -0.3187
  839MOL0     C13187   9.591   5.686  10.314 -0.4560  0.1990  0.1600
  839MOL0     C13188   9.589   5.796  10.234 -0.3255 -0.2322  0.1906
  839MOL0     O13189   9.688   5.895  10.230  0.1737 -0.2442 -0.1107
  839MOL0     C13190   9.797   5.900  10.314 -0.3229  0.0257  0.7200
  839MOL0     C13191   9.900   6.002  10.265  0.3929  0.6978  0.2890
  839MOL0     C13192  10.047   5.961  10.288 -0.0140 -0.5126  0.1854
  839MOL0     C13193  10.150   6.037  10.208 -0.2662 -0.0848 -0.1469
  839MOL0     C13194  10.278   5.968  10.220 -0.3573  0.5451  0.0931
  839MOL0     C13195  10.383   5.903  10.213 -0.3461 -0.7274  0.5091
  839MOL0     C13196   9.471   5.815  10.156  0.3360  0.8789  0.9436
  839MOL0     C13197   9.360   5.723  10.173  0.3516 -0.3527 -0.7416
  839MOL0     H13198   9.027   5.372  10.320  1.1926 -0.2157  0.3816
  839MOL0     H13199   8.788   5.303  10.258 -0.1585  3.8244  1.9383
  839MOL0     H13200   8.685   5.301   9.824 -1.5546 -3.1935  0.1190
  839MOL0     H13201   8.523   5.284   9.877 -1.3265  2.0395  0.0370
  839MOL0     H13202   8.474   5.493   9.930 -0.0835 -0.6088 -0.5706
  839MOL0     H13203   8.625   5.564   9.889  1.6447 -0.8384 -1.7603
  839MOL0     H13204   8.473   5.613   9.720 -1.3010 -0.3987  0.7227
  839MOL0     H13205   8.579   5.498   9.639 -0.0211 -0.1803  0.2163
  839MOL0     H13206   8.387   5.337   9.668 -0.2963  0.4819 -1.1802
  839MOL0     H13207   8.305   5.447   9.775 -0.7889  0.1493 -0.8973
  839MOL0     H13208   8.248   5.611   9.609 -0.2690  0.2469 -2.3878
  839MOL0     H13209   8.341   5.499   9.494  1.0472 -0.7614  0.8319
  839MOL0     H13210   8.182   5.324   9.544  0.5108 -0.5753  1.8036
  839MOL0     H13211   8.086   5.426   9.649 -2.9919 -0.7295 -2.0144
  839MOL0     H13212   8.047   5.595   9.457  1.2681 -0.2914  1.6156
  839MOL0     H13213   8.163   5.506   9.374 -0.5328  0.2098 -1.2160
  839MOL0     H13214   7.992   5.292   9.397 -1.6231 -0.3418 -1.7714
  839MOL0     H13215   7.985   5.414   9.277 -0.8703  2.5737  0.3813
  839MOL0     H13216   7.821   5.660   9.425  0.1701 -0.7442  1.2983
  839MOL0     H13217   7.451   5.584   9.530  2.4804 -2.7241  2.6065
  839MOL0     H13218   7.579   5.709   9.536 -0.7853 -0.7822  1.0557
  839MOL0     H13219   7.572   5.751   9.302  0.5165 -0.6159 -0.0311
  839MOL0     H13220   7.405   5.752   9.358 -2.4981 -1.7598  0.5143
  839MOL0     H13221   7.556   5.543   9.210 -0.2833  0.9855 -2.1563
  839MOL0     H13222   7.432   5.648   9.129 -0.9321 -1.7979 -1.0714
  839MOL0     H13223   7.376   5.424   9.321  2.7914  0.8750 -0.3778
  839MOL0     H13224   7.311   5.452   9.156  2.4502  1.5789 -2.0970
  839MOL0     H13225   7.037   5.691   9.186  0.6938  0.0389 -1.5729
  839MOL0     H13226   6.684   5.660   9.239  1.6623  2.5158  0.5521
  839MOL0     H13227   6.799   5.756   9.164  0.1507  0.3121  0.9075
  839MOL0     H13228   6.753   5.609   9.079  0.0581 -1.6563  0.2514
  839MOL0     H13229   6.440   5.335   9.541 -0.9366 -1.1294  1.7952
  839MOL0     H13230   6.257   5.172   9.516  0.8088  1.5077  0.1151
  839MOL0     H13231   6.167   4.854   9.536 -0.2307 -2.7568 -2.5952
  839MOL0     H13232   6.115   5.020   9.493  0.3820 -0.8480  2.5651
  839MOL0     H13233   6.016   4.950   9.282  1.0873  0.3723 -0.4982
  839MOL0     H13234   6.079   4.797   9.297  2.0126  1.5569 -0.1406
  839MOL0     H13235   5.857   4.906   9.482  1.5548  0.8882 -1.0498
  839MOL0     H13236   5.942   4.760   9.524  0.0434  0.3052  1.2609
  839MOL0     H13237   5.769   4.812   9.262  0.2775  0.3810  0.1632
  839MOL0     H13238   5.874   4.671   9.289 -0.1699  0.8671 -0.4653
  839MOL0     H13239   5.668   4.770   9.495  0.9922 -0.5401  0.6962
  839MOL0     H13240   5.728   4.610   9.495 -1.7143 -0.4495  1.0397
  839MOL0     H13241   5.605   4.532   9.298 -0.9551 -1.1258  0.2615
  839MOL0     H13242   5.510   4.595   9.428  1.4328 -0.9214  1.0938
  839MOL0     H13243   5.559   4.737   9.158 -1.7808 -1.8679 -2.2988
  839MOL0     H13244   5.460   4.796   9.297  2.0464  0.7173  0.3509
  839MOL0     H13245   5.447   4.545   9.132 -0.1894  1.7043 -0.7400
  839MOL0     H13246   5.331   4.668   9.112  2.0170  0.7154 -2.1369
  839MOL0     H13247   6.507   4.919   9.272  3.0750 -0.1211 -0.0401
  839MOL0     H13248   6.690   5.087   9.313  0.1999 -0.3127 -1.1545
  839MOL0     H13249   6.923   5.273   9.416 -0.5422  0.2237 -0.3380
  839MOL0     H13250   7.146   5.343   9.395  0.6627 -0.5803 -0.5516
  839MOL0     H13251   8.829   5.468   9.873 -0.3112  1.8430  0.8325
  839MOL0     H13252   9.059   5.524   9.911  3.0810 -0.5366  0.8636
  839MOL0     H13253   9.494   5.517  10.404 -1.6587 -0.2047 -0.8028
  839MOL0     H13254   9.674   5.667  10.381 -0.2948  2.1139  0.5372
  839MOL0     H13255   9.773   5.925  10.418  0.3070  1.6852  0.4975
  839MOL0     H13256   9.846   5.803  10.310  1.8608  1.1042 -1.3027
  839MOL0     H13257   9.874   6.097  10.314 -1.1521  1.2549 -1.5005
  839MOL0     H13258   9.886   6.024  10.158  0.8834  1.7147  0.4131
  839MOL0     H13259  10.063   5.857  10.259  1.3299  0.5030 -3.2405
  839MOL0     H13260  10.075   5.967  10.394 -1.8202 -0.9364  0.7230
  839MOL0     H13261  10.149   6.138  10.250 -2.7922 -0.6771  1.4566
  839MOL0     H13262  10.132   6.044  10.101  0.4336 -0.5626 -0.2991
  839MOL0     H13263  10.475   5.851  10.193 -0.1428 -0.5664  1.0224
  839MOL0     H13264   9.468   5.908  10.102 -0.4563 -0.3859 -1.3246
  839MOL0     H13265   9.267   5.744  10.120 -0.2534 -0.1077  0.3776
  840MOL0     O13266   3.215   6.745   2.439 -0.0109  0.0258 -0.3191
  840MOL0     C13267   3.218   6.869   2.423 -0.3031  0.2692 -0.0705
  840MOL0     O13268   3.111   6.951   2.450  0.1646 -0.4187  0.0129
  840MOL0     C13269   2.990   6.894   2.493 -0.0671  0.4019  0.7141
  840MOL0     C13270   2.935   6.776   2.440  0.4817 -0.0936  0.0106
  840MOL0     C13271   2.812   6.737   2.487 -0.3063 -0.6250  0.0425
  840MOL0     C13272   2.734   6.811   2.583 -1.2068  0.2937  0.2871
  840MOL0     O13273   2.620   6.768   2.639 -0.1645  1.6296  0.1287
  840MOL0     C13274   2.554   6.653   2.574 -0.6277 -0.7601 -0.4746
  840MOL0     C13275   2.427   6.634   2.656 -0.5496  0.4018  1.4670
  840MOL0     C13276   2.320   6.546   2.579 -0.7304 -0.5895  0.0836
  840MOL0     C13277   2.205   6.531   2.669 -0.2631  0.5283 -0.3870
  840MOL0     C13278   2.110   6.437   2.597  0.1283  1.1161  0.7297
  840MOL0     C13279   1.981   6.412   2.694 -0.5734 -0.9488  0.6303
  840MOL0     C13280   1.874   6.370   2.600  0.1220  0.1179 -0.4622
  840MOL0     C13281   1.743   6.350   2.678  0.0445 -0.7431  0.2056
  840MOL0     N13282   1.646   6.285   2.587 -0.2645  0.4395  0.4327
  840MOL0     C13283   1.598   6.158   2.602 -0.5438 -0.3033 -0.1111
  840MOL0     C13284   1.521   6.143   2.495  0.1678  1.1446  0.4730
  840MOL0     C13285   1.438   6.012   2.468  0.4740 -0.4753 -0.4358
  840MOL0     C13286   1.374   6.012   2.329 -0.7950  0.3122  0.2769
  840MOL0     C13287   1.349   5.870   2.266 -0.4303  0.2718 -0.0225
  840MOL0     C13288   1.276   5.879   2.132 -0.3810 -0.8962  0.1952
  840MOL0     O13289   1.141   5.920   2.156 -0.7859 -0.0231  0.1179
  840MOL0     C13290   1.043   5.830   2.179 -0.0845  0.6219 -0.3434
  840MOL0     C13291   0.913   5.865   2.152  0.4405 -0.1081  0.2364
  840MOL0     C13292   0.800   5.779   2.166  0.6734 -0.2001 -0.4261
  840MOL0     C13293   0.667   5.840   2.116  0.2911 -0.1556 -0.4591
  840MOL0     C13294   0.824   5.654   2.228 -0.5063 -1.0074 -0.3402
  840MOL0     C13295   0.712   5.568   2.280 -0.4698  0.4275 -0.5362
  840MOL0     O13296   0.740   5.472   2.379  1.2977 -1.0356  0.0124
  840MOL0     C13297   0.659   5.359   2.393  0.3875 -0.7241 -0.2821
  840MOL0     C13298   0.525   5.367   2.442  0.9749 -0.2017  0.7581
  840MOL0     C13299   0.451   5.251   2.457 -0.3977  0.7471  0.1757
  840MOL0     C13300   0.502   5.122   2.423 -0.1278  0.1750 -0.1354
  840MOL0     O13301   0.416   5.019   2.447  0.7699  0.0717 -0.5425
  840MOL0     C13302   0.466   4.882   2.436 -0.3114 -0.6133  0.1975
  840MOL0     C13303   0.373   4.796   2.511 -0.3396  0.5420 -0.2922
  840MOL0     C13304   0.426   4.649   2.540  0.1904 -0.1710 -0.1845
  840MOL0     C13305   0.429   4.570   2.409  0.6953 -1.2613  0.1152
  840MOL0     C13306   0.465   4.426   2.421  0.2030 -0.1911 -0.5360
  840MOL0     C13307   0.340   4.352   2.481  0.9873 -0.0325  0.7354
  840MOL0     C13308   0.375   4.197   2.488  0.0676 -0.0137  0.2477
  840MOL0     C13309   0.293   4.142   2.612  0.5874 -0.0902  0.3081
  840MOL0    Cl13310   0.111   4.120   2.565 -0.2515 -0.1110 -0.3809
  840MOL0     C13311   0.631   5.115   2.369  0.0916  0.9202  0.0496
  840MOL0     C13312   0.712   5.234   2.361  0.1404 -0.0063  0.7880
  840MOL0     O13313   0.603   5.580   2.225 -0.8440 -0.5849 -0.0358
  840MOL0     C13314   0.959   5.612   2.257 -1.2751 -0.8162  0.0233
  840MOL0     C13315   1.063   5.695   2.229  0.1180 -0.6594 -0.0629
  840MOL0     N13316   1.507   6.258   2.418 -0.1375  0.1602 -0.6183
  840MOL0     N13317   1.586   6.337   2.472 -0.0603 -0.9370 -0.2969
  840MOL0     C13318   2.786   6.934   2.633 -0.9151 -0.3372  0.0074
  840MOL0     C13319   2.908   6.975   2.574 -0.3515 -0.3694 -0.8441
  840MOL0     C13320   3.348   6.930   2.383 -0.9855 -0.1674 -0.9478
  840MOL0     C13321   3.470   6.876   2.434 -0.3756 -0.0122 -0.9957
  840MOL0     C13322   3.595   6.936   2.398 -0.0574  0.2800  0.4015
  840MOL0     C13323   3.595   7.059   2.328 -0.6999  0.2122  0.6477
  840MOL0     O13324   3.721   7.117   2.304  0.4441 -0.1741 -0.3449
  840MOL0     C13325   3.737   7.214   2.205  0.2914 -0.1518 -0.8340
  840MOL0     C13326   3.887   7.220   2.173  0.8723 -0.7135  0.7058
  840MOL0     C13327   3.910   7.271   2.030 -0.2125 -0.2198 -0.4840
  840MOL0     C13328   4.053   7.309   2.017 -0.2291 -0.9039 -1.0700
  840MOL0     C13329   4.152   7.202   2.040  0.4259 -0.1161  0.5914
  840MOL0     C13330   4.243   7.129   2.064  0.0791  0.4339 -0.1080
  840MOL0     C13331   3.471   7.114   2.295 -0.1509 -0.5987 -0.0757
  840MOL0     C13332   3.355   7.039   2.308 -0.5287 -0.0702  0.0649
  840MOL0     H13333   2.987   6.714   2.368  1.3972  0.1153  0.4826
  840MOL0     H13334   2.771   6.641   2.457  3.3618 -2.7477  1.1962
  840MOL0     H13335   2.530   6.692   2.475  2.5215  1.5768 -0.4416
  840MOL0     H13336   2.621   6.567   2.566  1.2248  0.5993 -0.1652
  840MOL0     H13337   2.457   6.577   2.745  0.8362  0.3483  0.9930
  840MOL0     H13338   2.381   6.729   2.681 -0.0810  1.7691 -2.2538
  840MOL0     H13339   2.291   6.596   2.485 -0.1216 -1.5334 -0.6263
  840MOL0     H13340   2.348   6.445   2.548 -0.6706 -0.5488  0.0032
  840MOL0     H13341   2.240   6.471   2.754 -3.5609 -2.1575 -0.6784
  840MOL0     H13342   2.169   6.627   2.707 -0.9286  0.1660 -0.0596
  840MOL0     H13343   2.075   6.479   2.503  0.1705 -0.2522  0.0798
  840MOL0     H13344   2.154   6.338   2.581 -0.0775  1.1200  0.1403
  840MOL0     H13345   2.005   6.334   2.767 -1.8692 -0.5934  1.4638
  840MOL0     H13346   1.952   6.510   2.732 -1.3987 -1.4478  1.3202
  840MOL0     H13347   1.848   6.435   2.516 -0.1530 -1.9890 -2.0897
  840MOL0     H13348   1.905   6.269   2.569 -0.1276  0.0933 -0.6316
  840MOL0     H13349   1.702   6.446   2.712  0.9661 -0.7689  1.4620
  840MOL0     H13350   1.759   6.294   2.771  2.1739  1.6351  1.4105
  840MOL0     H13351   1.633   6.078   2.667 -0.3886 -2.0294 -2.1823
  840MOL0     H13352   1.497   5.923   2.490  1.3740  0.6782  2.1801
  840MOL0     H13353   1.356   6.009   2.540  2.7766 -2.1732  2.3131
  840MOL0     H13354   1.444   6.054   2.256 -0.9250 -0.0661 -0.0686
  840MOL0     H13355   1.278   6.064   2.333 -2.0511 -1.8023 -0.7806
  840MOL0     H13356   1.300   5.797   2.332 -0.5745 -1.9691 -2.4696
  840MOL0     H13357   1.444   5.818   2.256 -1.3962 -1.0869 -3.5446
  840MOL0     H13358   1.279   5.781   2.084 -0.1294 -0.2825 -1.0693
  840MOL0     H13359   1.328   5.948   2.065 -0.8524  0.5364  1.2370
  840MOL0     H13360   0.898   5.967   2.118  2.1975  0.4007  0.8614
  840MOL0     H13361   0.670   5.942   2.078  1.1688 -1.1009 -3.1261
  840MOL0     H13362   0.622   5.788   2.031 -3.6213  0.2965  1.1092
  840MOL0     H13363   0.594   5.833   2.197  3.0345 -0.3912  2.1954
  840MOL0     H13364   0.474   5.459   2.466  0.9920  0.4744 -1.5961
  840MOL0     H13365   0.349   5.251   2.495 -1.7228 -0.7639 -3.0162
  840MOL0     H13366   0.474   4.857   2.330  3.1394  0.8222 -0.0121
  840MOL0     H13367   0.567   4.869   2.475 -0.4307 -0.6784  0.4916
  840MOL0     H13368   0.366   4.843   2.609 -1.4295  1.9340 -0.9970
  840MOL0     H13369   0.285   4.807   2.446 -0.2524  0.4592 -0.4250
  840MOL0     H13370   0.362   4.594   2.609  0.6661 -2.3167 -1.3669
  840MOL0     H13371   0.527   4.660   2.579  0.6381 -2.0313 -0.7528
  840MOL0     H13372   0.332   4.595   2.365  1.2131  2.6674  0.8191
  840MOL0     H13373   0.506   4.615   2.345  2.1575 -3.4488  0.2229
  840MOL0     H13374   0.545   4.415   2.495 -1.7471 -2.9058  1.3769
  840MOL0     H13375   0.491   4.381   2.325  3.6280  2.0154 -0.7908
  840MOL0     H13376   0.296   4.403   2.567  0.7901  1.8044 -0.4095
  840MOL0     H13377   0.270   4.362   2.398  1.8347 -0.8411 -0.1021
  840MOL0     H13378   0.481   4.191   2.514  0.2761  1.0445 -0.2902
  840MOL0     H13379   0.340   4.149   2.396 -1.8031 -0.2664  1.0458
  840MOL0     H13380   0.304   4.213   2.694  3.6943 -1.0164  0.8168
  840MOL0     H13381   0.327   4.046   2.653 -2.4758 -1.2982  0.3003
  840MOL0     H13382   0.672   5.021   2.334 -2.7287 -1.1470  1.8532
  840MOL0     H13383   0.811   5.229   2.316 -0.0335 -2.2745  0.5194
  840MOL0     H13384   0.973   5.516   2.306 -3.5187 -1.6330 -0.8467
  840MOL0     H13385   1.163   5.657   2.247  0.8661  0.5815 -1.3590
  840MOL0     H13386   2.724   6.994   2.700 -1.1213  0.6260 -1.0085
  840MOL0     H13387   2.937   7.075   2.604 -2.6384  0.2085 -0.3410
  840MOL0     H13388   3.464   6.790   2.501 -1.4940  0.8057  0.0094
  840MOL0     H13389   3.687   6.893   2.438 -0.3401  0.1651  0.9324
  840MOL0     H13390   3.676   7.182   2.120 -1.6212 -0.8548  0.7049
  840MOL0     H13391   3.691   7.309   2.236 -0.0933 -0.4056 -0.6146
  840MOL0     H13392   3.938   7.124   2.189  2.7899 -0.0995 -1.1757
  840MOL0     H13393   3.928   7.288   2.248  0.4826 -0.9310  1.1195
  840MOL0     H13394   3.846   7.358   2.014 -2.2598 -1.8978 -1.8908
  840MOL0     H13395   3.893   7.195   1.954  1.5872  1.5751 -2.8369
  840MOL0     H13396   4.073   7.383   2.095  2.3411  0.5596 -2.9325
  840MOL0     H13397   4.071   7.357   1.920 -0.3619 -2.2426 -1.7821
  840MOL0     H13398   4.319   7.057   2.083 -0.1530 -0.2888 -1.7383
  840MOL0     H13399   3.463   7.202   2.232  1.0151 -0.7984 -0.5403
  840MOL0     H13400   3.263   7.089   2.280  0.6428  2.7837  0.9401
  841MOL0     O13401   0.202   0.311   8.215  0.2724 -0.0637  0.5262
  841MOL0     C13402   0.270   0.265   8.306 -0.2229  1.0765 -0.5650
  841MOL0     O13403   0.235   0.159   8.389  0.5931  0.0986  0.1045
  841MOL0     C13404   0.106   0.100   8.377 -0.6563 -0.0145 -0.4325
  841MOL0     C13405   0.088  -0.026   8.440 -1.0574  0.0144  0.1269
  841MOL0     C13406  -0.035  -0.084   8.448 -0.7538  0.8465  0.3652
  841MOL0     C13407  -0.152  -0.023   8.403  0.5286  0.4002 -0.2187
  841MOL0     O13408  -0.270  -0.089   8.433  0.1868 -0.8185 -0.4674
  841MOL0     C13409  -0.384  -0.044   8.354  0.6895  0.0369 -0.6102
  841MOL0     C13410  -0.514  -0.111   8.405 -0.0928 -0.0703  0.4569
  841MOL0     C13411  -0.619  -0.134   8.297 -0.0968  0.3097  0.3327
  841MOL0     C13412  -0.617  -0.263   8.219 -0.2842 -0.4882  0.0695
  841MOL0     C13413  -0.727  -0.269   8.113  0.0774  0.0962  0.0822
  841MOL0     C13414  -0.739  -0.404   8.032  0.0218  0.0559  0.1068
  841MOL0     C13415  -0.853  -0.403   7.931 -0.0876  0.3422  0.4571
  841MOL0     C13416  -0.980  -0.474   7.999  0.4563  1.0078  0.2682
  841MOL0     N13417  -0.983  -0.621   7.976 -0.0494  0.2181  0.1042
  841MOL0     C13418  -1.072  -0.708   8.030 -0.3803 -0.7513  0.4476
  841MOL0     C13419  -1.051  -0.824   7.966  0.8510 -0.4237 -0.2810
  841MOL0     C13420  -1.135  -0.941   8.004 -0.4918 -0.7464  0.3778
  841MOL0     C13421  -1.169  -1.011   7.869 -0.5479 -0.1591  0.9994
  841MOL0     C13422  -1.282  -1.106   7.865 -0.7794 -0.0125 -0.7652
  841MOL0     C13423  -1.410  -1.042   7.887 -0.2708 -0.0043  0.1057
  841MOL0     O13424  -1.525  -1.128   7.884  0.0992 -0.2553  0.0142
  841MOL0     C13425  -1.653  -1.071   7.916 -0.5414  0.5428 -0.2553
  841MOL0     C13426  -1.761  -1.169   7.930  0.1477 -0.4653  0.9180
  841MOL0     C13427  -1.887  -1.132   7.972  1.2861 -0.5699 -0.0496
  841MOL0     C13428  -1.997  -1.236   7.987 -0.1155  0.1430 -0.2218
  841MOL0     C13429  -1.917  -0.994   7.990  0.3433  0.6389 -0.0664
  841MOL0     C13430  -2.047  -0.931   8.038 -0.4202  0.8319  0.2772
  841MOL0     O13431  -2.167  -0.995   8.016 -0.0316  0.0997 -0.4496
  841MOL0     C13432  -2.298  -0.944   8.028  0.1036 -0.1608  0.1423
  841MOL0     C13433  -2.402  -1.034   8.037 -0.0725  0.3579  0.6910
  841MOL0     C13434  -2.539  -0.995   8.015 -0.7889  0.4195 -0.2004
  841MOL0     C13435  -2.571  -0.860   7.988  0.6504  0.8544 -0.4145
  841MOL0     O13436  -2.691  -0.799   7.989  0.2240  0.2824  0.2968
  841MOL0     C13437  -2.803  -0.875   8.041 -0.1752  0.3125 -0.2507
  841MOL0     C13438  -2.938  -0.798   8.036  0.0270 -0.3273  0.0828
  841MOL0     C13439  -3.055  -0.873   8.096  0.3165 -1.0861 -0.0652
  841MOL0     C13440  -3.190  -0.802   8.083 -0.6861 -0.6013  1.3000
  841MOL0     C13441  -3.319  -0.877   8.132  0.1495 -0.4105 -0.5896
  841MOL0     C13442  -3.326  -0.871   8.280  0.3502  0.1278  0.8840
  841MOL0     C13443  -3.455  -0.941   8.328 -0.1950  0.7514  0.3333
  841MOL0     C13444  -3.458  -0.972   8.483 -0.1671  0.1341 -0.5686
  841MOL0    Cl13445  -3.392  -0.834   8.591  0.1672 -0.0005  0.0591
  841MOL0     C13446  -2.463  -0.774   7.974  0.3685 -0.4454  0.7815
  841MOL0     C13447  -2.324  -0.814   7.994  0.9094 -0.6455 -0.1583
  841MOL0     O13448  -2.035  -0.815   8.079 -0.0989  0.4658 -0.7902
  841MOL0     C13449  -1.814  -0.899   7.968  0.2210  0.6968 -0.1713
  841MOL0     C13450  -1.684  -0.937   7.932  0.1558  0.0763  0.5494
  841MOL0     N13451  -0.954  -0.812   7.875 -0.6171  0.3689  0.2767
  841MOL0     N13452  -0.914  -0.689   7.885  0.1128  0.0889  0.5454
  841MOL0     C13453  -0.136   0.103   8.343  0.0307 -0.6180  0.1690
  841MOL0     C13454  -0.009   0.159   8.324  0.6985 -0.8394  0.5767
  841MOL0     C13455   0.415   0.314   8.300 -0.4888  0.3128 -0.4483
  841MOL0     C13456   0.510   0.247   8.380 -0.0455 -0.0265 -0.4548
  841MOL0     C13457   0.640   0.294   8.381  0.1192 -0.5080 -0.6472
  841MOL0     C13458   0.675   0.410   8.304  0.2101 -0.5313  0.2325
  841MOL0     O13459   0.811   0.434   8.304  0.2481  0.6957  0.3746
  841MOL0     C13460   0.867   0.476   8.174  0.0568  0.3181  0.1231
  841MOL0     C13461   1.025   0.469   8.176 -0.2729 -0.2559 -0.1825
  841MOL0     C13462   1.112   0.347   8.214 -0.4741  0.4685  0.0608
  841MOL0     C13463   1.258   0.361   8.173 -0.6134  0.4406  0.9964
  841MOL0     C13464   1.328   0.459   8.249  0.3811 -0.4205 -0.4325
  841MOL0     C13465   1.394   0.545   8.303  0.8466  0.2556 -0.4855
  841MOL0     C13466   0.579   0.468   8.216  0.3111  0.2271 -0.5127
  841MOL0     C13467   0.450   0.420   8.219 -0.2759 -0.4736  0.5948
  841MOL0     H13468   0.185  -0.061   8.476  0.2481  2.7234 -0.5610
  841MOL0     H13469  -0.033  -0.169   8.515  0.0931  0.6564  0.1159
  841MOL0     H13470  -0.409   0.062   8.366 -1.1810 -0.0924 -2.7106
  841MOL0     H13471  -0.361  -0.074   8.252 -1.3632  1.7893 -1.6807
  841MOL0     H13472  -0.471  -0.193   8.462  2.1397  1.2336  0.7645
  841MOL0     H13473  -0.564  -0.038   8.470 -0.8453 -0.7541  0.6558
  841MOL0     H13474  -0.712  -0.134   8.354 -1.4486 -0.4468 -1.7565
  841MOL0     H13475  -0.620  -0.051   8.225 -0.7575 -1.2150 -1.5142
  841MOL0     H13476  -0.517  -0.262   8.176 -0.2472 -0.3987  0.1555
  841MOL0     H13477  -0.638  -0.345   8.288 -5.8972  0.5580  0.1076
  841MOL0     H13478  -0.822  -0.258   8.167  0.8159 -0.1395  1.4837
  841MOL0     H13479  -0.705  -0.193   8.038  2.1164  2.2122  2.6477
  841MOL0     H13480  -0.645  -0.426   7.981  0.9347  0.7462  1.4310
  841MOL0     H13481  -0.751  -0.480   8.111 -2.2541  1.4990  1.2694
  841MOL0     H13482  -0.877  -0.300   7.903 -0.8399 -0.0754 -0.4686
  841MOL0     H13483  -0.824  -0.445   7.834 -0.6351  0.9327  0.0294
  841MOL0     H13484  -1.078  -0.428   7.981 -1.1661 -2.9620 -2.7077
  841MOL0     H13485  -0.982  -0.460   8.107 -0.8272 -0.1291  0.4330
  841MOL0     H13486  -1.156  -0.681   8.093  0.4184 -0.5404  1.4544
  841MOL0     H13487  -1.062  -1.005   8.055 -0.6540 -2.1991 -1.1497
  841MOL0     H13488  -1.217  -0.912   8.071 -2.2761 -0.6278 -1.7725
  841MOL0     H13489  -1.078  -1.069   7.850 -0.6338 -1.0707  3.1131
  841MOL0     H13490  -1.194  -0.932   7.797  1.7009  0.4375  0.8162
  841MOL0     H13491  -1.268  -1.181   7.944 -0.7591  1.6353  0.8529
  841MOL0     H13492  -1.288  -1.153   7.766  1.3467 -1.2329 -0.3962
  841MOL0     H13493  -1.415  -0.959   7.816 -1.9450  0.2434  0.4592
  841MOL0     H13494  -1.414  -1.002   7.989 -0.2309  0.8896 -0.2359
  841MOL0     H13495  -1.738  -1.275   7.919 -1.1294 -0.7516  0.9505
  841MOL0     H13496  -2.071  -1.206   7.912  0.8630 -0.2023 -1.3667
  841MOL0     H13497  -1.962  -1.338   7.965  1.0255  0.0330  1.8492
  841MOL0     H13498  -2.033  -1.242   8.090  0.0114  4.4297  0.2450
  841MOL0     H13499  -2.368  -1.135   8.059 -1.4815 -0.2564  0.1885
  841MOL0     H13500  -2.617  -1.061   8.051  1.2505 -0.1743  3.8405
  841MOL0     H13501  -2.805  -0.965   7.979 -1.5272  1.0683 -1.3568
  841MOL0     H13502  -2.778  -0.912   8.141 -1.3237 -0.1375 -0.1153
  841MOL0     H13503  -2.922  -0.700   8.082  0.6866 -1.0478  1.4300
  841MOL0     H13504  -2.963  -0.772   7.933 -0.0745 -0.9023 -0.0416
  841MOL0     H13505  -3.034  -0.884   8.203 -0.3528 -0.8149  0.1059
  841MOL0     H13506  -3.054  -0.974   8.056 -0.5804 -1.4441  0.7577
  841MOL0     H13507  -3.179  -0.705   8.132 -0.3575  0.4147 -0.6890
  841MOL0     H13508  -3.202  -0.785   7.976  0.2020  3.5455  1.6808
  841MOL0     H13509  -3.309  -0.982   8.101 -1.4093  0.2246 -3.4571
  841MOL0     H13510  -3.408  -0.838   8.084  0.2933  2.0069  0.9608
  841MOL0     H13511  -3.247  -0.919   8.338 -0.4063 -0.8809  1.1260
  841MOL0     H13512  -3.330  -0.764   8.298  0.8552  0.5085 -1.0850
  841MOL0     H13513  -3.461  -1.040   8.281 -2.1059  1.2908 -0.6773
  841MOL0     H13514  -3.547  -0.889   8.302  0.2031  0.4036 -2.0782
  841MOL0     H13515  -3.382  -1.049   8.499  3.6930  3.4886 -0.8050
  841MOL0     H13516  -3.558  -1.002   8.515 -1.0998  2.7396 -0.8111
  841MOL0     H13517  -2.486  -0.672   7.944 -0.5301 -1.1656 -1.1957
  841MOL0     H13518  -2.245  -0.743   7.970  0.7126 -0.5015 -0.3804
  841MOL0     H13519  -1.832  -0.792   7.975 -1.9083  0.2930  1.7476
  841MOL0     H13520  -1.610  -0.860   7.913 -0.4930  0.1454 -2.1041
  841MOL0     H13521  -0.218   0.155   8.294  3.0438  1.5229 -3.1196
  841MOL0     H13522  -0.016   0.253   8.270 -1.3281 -0.2145  1.8073
  841MOL0     H13523   0.484   0.155   8.431  1.8688 -1.2251 -1.5267
  841MOL0     H13524   0.708   0.239   8.446 -2.0447 -3.2130 -0.4882
  841MOL0     H13525   0.816   0.438   8.085 -1.2676  2.4265 -0.0811
  841MOL0     H13526   0.851   0.583   8.162  3.4860  0.8823 -0.4679
  841MOL0     H13527   1.053   0.541   8.253  1.3251  1.0783 -1.9323
  841MOL0     H13528   1.060   0.512   8.082 -0.2426  3.9209  1.5419
  841MOL0     H13529   1.079   0.259   8.158 -0.6955  1.5340 -1.5551
  841MOL0     H13530   1.091   0.320   8.318 -3.0995  1.4045 -0.1411
  841MOL0     H13531   1.264   0.382   8.066 -1.9426 -0.1894  0.7736
  841MOL0     H13532   1.308   0.264   8.176 -0.8240  0.2329 -1.1407
  841MOL0     H13533   1.427   0.636   8.348  1.5651  0.2546 -1.0055
  841MOL0     H13534   0.611   0.550   8.152  1.2920  1.7418  1.7440
  841MOL0     H13535   0.384   0.470   8.149 -0.0589 -0.9054  0.0736
  842MOL0     O13536   5.088   9.055   7.685  0.6883 -0.1775 -0.7483
  842MOL0     C13537   5.100   9.137   7.781  0.3077 -0.8795  1.0562
  842MOL0     O13538   5.010   9.245   7.797  0.6473  0.5652 -0.4545
  842MOL0     C13539   4.878   9.255   7.750 -1.3091 -0.7805 -0.3301
  842MOL0     C13540   4.807   9.142   7.704  0.7459  0.1742 -1.3029
  842MOL0     C13541   4.675   9.164   7.662 -0.3853  1.0586  0.4862
  842MOL0     C13542   4.614   9.291   7.671 -0.3117  0.1612  0.9565
  842MOL0     O13543   4.475   9.290   7.628 -0.1253  0.3486 -0.0412
  842MOL0     C13544   4.409   9.411   7.651  0.2268 -0.0300  0.8832
  842MOL0     C13545   4.262   9.389   7.617  0.0488  0.8987 -0.4914
  842MOL0     C13546   4.233   9.349   7.476  0.1261 -0.3336 -0.2892
  842MOL0     C13547   4.089   9.281   7.467  0.5470 -0.5314  0.1134
  842MOL0     C13548   4.039   9.259   7.317 -0.3021 -0.3899  0.4908
  842MOL0     C13549   3.882   9.246   7.333 -0.0892 -0.3088  0.5860
  842MOL0     C13550   3.823   9.223   7.199  0.6025  0.0644  0.9949
  842MOL0     C13551   3.821   9.078   7.154  0.0553  0.3399  0.1915
  842MOL0     N13552   3.744   8.976   7.220 -0.5363  0.0781 -0.7241
  842MOL0     C13553   3.627   8.912   7.176  0.0816 -0.5376  1.1879
  842MOL0     C13554   3.601   8.812   7.259 -0.8098 -0.0906 -0.5649
  842MOL0     C13555   3.499   8.715   7.257  0.2062 -0.1132  0.1699
  842MOL0     C13556   3.359   8.759   7.202  0.4805  0.0470  1.2114
  842MOL0     C13557   3.259   8.661   7.261 -0.3080  0.1273  0.0973
  842MOL0     C13558   3.117   8.697   7.214 -0.6226 -0.1258 -0.1989
  842MOL0     O13559   3.034   8.605   7.261  0.5929  0.1228  0.7416
  842MOL0     C13560   2.895   8.591   7.228 -0.5554 -0.2028 -0.3529
  842MOL0     C13561   2.821   8.509   7.319 -0.2075 -0.1401 -0.3382
  842MOL0     C13562   2.677   8.507   7.316  0.1863 -0.4814  1.0349
  842MOL0     C13563   2.601   8.423   7.417 -0.1827  0.3567 -1.0216
  842MOL0     C13564   2.608   8.587   7.217  0.6616  0.0915 -0.7852
  842MOL0     C13565   2.466   8.624   7.233  0.6313  0.2574 -0.8899
  842MOL0     O13566   2.420   8.714   7.137  0.0418 -0.0567  0.1320
  842MOL0     C13567   2.283   8.722   7.123 -0.2494  0.3848  0.4148
  842MOL0     C13568   2.209   8.847   7.147  0.1039  0.7600  0.1017
  842MOL0     C13569   2.077   8.848   7.120  0.3596  0.2293 -0.2637
  842MOL0     C13570   2.009   8.729   7.077  0.6244  0.1793 -0.4813
  842MOL0     O13571   1.871   8.724   7.045  0.4356  0.2599  0.7180
  842MOL0     C13572   1.794   8.848   7.038 -0.2489 -0.3956 -0.0234
  842MOL0     C13573   1.651   8.820   7.003 -0.4582 -0.1665  0.1181
  842MOL0     C13574   1.574   8.956   6.995  1.5472 -0.2456 -0.5268
  842MOL0     C13575   1.425   8.916   6.960  0.0282 -1.3933  0.3903
  842MOL0     C13576   1.347   9.039   6.910 -0.7747  0.3389  0.4934
  842MOL0     C13577   1.340   9.154   7.011 -1.3590  0.1708 -0.8253
  842MOL0     C13578   1.276   9.279   6.960 -0.7946 -0.7382 -0.1570
  842MOL0     C13579   1.368   9.400   6.959  0.1744  0.0146  0.0287
  842MOL0    Cl13580   1.488   9.410   6.831  0.0445  0.1941 -0.7906
  842MOL0     C13581   2.082   8.605   7.052  0.4220  0.6622 -0.1989
  842MOL0     C13582   2.219   8.603   7.078 -0.8433  0.4163 -0.6234
  842MOL0     O13583   2.397   8.575   7.324 -0.0876 -0.2658 -0.1853
  842MOL0     C13584   2.689   8.646   7.112  0.6203  0.2273 -0.2222
  842MOL0     C13585   2.829   8.664   7.127  0.1824 -0.0672  0.4046
  842MOL0     N13586   3.704   8.817   7.358  0.8924 -0.0121 -0.8353
  842MOL0     N13587   3.789   8.908   7.334 -0.6331  0.2695  0.3698
  842MOL0     C13588   4.678   9.401   7.720  0.3750  0.2507  0.1653
  842MOL0     C13589   4.813   9.378   7.763  0.4271  0.0895 -0.4055
  842MOL0     C13590   5.227   9.136   7.855 -0.5362  0.9331  0.5752
  842MOL0     C13591   5.283   9.252   7.906 -0.1604 -1.2086 -0.2238
  842MOL0     C13592   5.405   9.252   7.977 -0.3319  0.2901  0.4012
  842MOL0     C13593   5.468   9.125   8.011 -0.0141 -0.3844 -0.0938
  842MOL0     O13594   5.570   9.131   8.100 -0.1247 -0.0648  0.1700
  842MOL0     C13595   5.601   9.008   8.154 -0.8889  0.3201  0.4694
  842MOL0     C13596   5.695   9.039   8.283 -1.0598 -0.1121 -0.9613
  842MOL0     C13597   5.803   9.145   8.265  0.0316  0.3870 -0.2028
  842MOL0     C13598   5.888   9.159   8.384 -0.0471  0.3787  0.7325
  842MOL0     C13599   5.993   9.056   8.391  0.7047  0.0412  0.0814
  842MOL0     C13600   6.065   8.960   8.399  0.0405 -0.9947  0.4057
  842MOL0     C13601   5.412   9.008   7.962  0.8543 -0.3343 -0.7063
  842MOL0     C13602   5.292   9.016   7.890 -0.4434  0.2789  0.2764
  842MOL0     H13603   4.851   9.045   7.682  0.2701 -0.2163 -0.5683
  842MOL0     H13604   4.625   9.078   7.619  2.0782 -0.5207  0.6044
  842MOL0     H13605   4.407   9.429   7.759  2.3352 -1.3337  1.1923
  842MOL0     H13606   4.448   9.490   7.587  0.5858 -1.5358 -0.8372
  842MOL0     H13607   4.224   9.310   7.682  0.8796 -0.1959 -1.2846
  842MOL0     H13608   4.202   9.474   7.649  0.1918  1.2725 -1.1892
  842MOL0     H13609   4.232   9.434   7.406 -2.9153  0.1018  0.1509
  842MOL0     H13610   4.299   9.270   7.440  1.1875 -0.3479  1.6038
  842MOL0     H13611   4.089   9.182   7.513  0.7693 -0.9665 -0.8113
  842MOL0     H13612   4.029   9.353   7.524 -2.5775 -3.1959  0.4822
  842MOL0     H13613   4.059   9.340   7.246  0.9974 -1.5136 -0.4644
  842MOL0     H13614   4.075   9.163   7.280 -0.7005  0.0933 -1.2363
  842MOL0     H13615   3.853   9.174   7.410 -0.2448  0.7673  1.5644
  842MOL0     H13616   3.837   9.341   7.363  0.9221  0.4497 -0.1958
  842MOL0     H13617   3.717   9.249   7.212  1.0627  1.3901  2.4211
  842MOL0     H13618   3.864   9.293   7.126 -1.5677 -1.4746 -1.8755
  842MOL0     H13619   3.926   9.047   7.158 -0.5613 -1.7732  1.6200
  842MOL0     H13620   3.792   9.073   7.049 -2.3420 -2.4526  0.8629
  842MOL0     H13621   3.580   8.944   7.083  2.8825  2.3716  0.5785
  842MOL0     H13622   3.532   8.621   7.212  0.7013  0.4243 -0.6129
  842MOL0     H13623   3.478   8.695   7.363 -0.8034  3.4114  0.7787
  842MOL0     H13624   3.358   8.754   7.093  0.5770  2.6903  1.0108
  842MOL0     H13625   3.337   8.863   7.230  1.4516  1.5137 -2.7485
  842MOL0     H13626   3.265   8.671   7.370 -0.4267 -0.3214  0.1448
  842MOL0     H13627   3.297   8.563   7.231 -0.4014  1.1200 -3.7825
  842MOL0     H13628   3.122   8.703   7.105  0.5944  1.4120 -0.0842
  842MOL0     H13629   3.095   8.788   7.269 -2.2815 -1.2891  1.1760
  842MOL0     H13630   2.864   8.452   7.401  1.2730  2.1893  0.6126
  842MOL0     H13631   2.654   8.334   7.454 -0.9252  0.0292 -0.7134
  842MOL0     H13632   2.577   8.475   7.510  2.9456 -1.7955  1.2206
  842MOL0     H13633   2.504   8.379   7.393 -1.0452 -0.4110  3.0386
  842MOL0     H13634   2.264   8.939   7.166  2.5546 -0.8572  1.2621
  842MOL0     H13635   2.035   8.944   7.147 -0.2472 -0.0672 -0.1376
  842MOL0     H13636   1.802   8.895   7.136  2.3568  2.1546 -1.2895
  842MOL0     H13637   1.843   8.905   6.958  0.0900 -1.3667 -0.5331
  842MOL0     H13638   1.657   8.774   6.904 -1.3350  0.3471 -0.1825
  842MOL0     H13639   1.601   8.759   7.078  2.6926 -0.5143  2.1361
  842MOL0     H13640   1.620   9.030   6.929  2.8768 -1.4831 -1.0653
  842MOL0     H13641   1.565   9.004   7.093 -0.7849  0.0338 -0.8332
  842MOL0     H13642   1.428   8.843   6.879  3.4537  0.1808 -1.1063
  842MOL0     H13643   1.371   8.887   7.051 -1.4823  2.3842  0.9028
  842MOL0     H13644   1.249   9.021   6.867 -0.5809  4.2280 -2.0838
  842MOL0     H13645   1.403   9.088   6.830  0.9992  1.1866  2.1631
  842MOL0     H13646   1.285   9.119   7.098  1.7804  0.0737  1.2752
  842MOL0     H13647   1.444   9.184   7.027 -1.3250  0.6747 -1.8968
  842MOL0     H13648   1.189   9.302   7.023 -1.1165  0.9306 -1.1538
  842MOL0     H13649   1.240   9.256   6.859  2.7081 -3.1768 -1.0149
  842MOL0     H13650   1.420   9.409   7.054  0.7801 -0.3005 -0.2641
  842MOL0     H13651   1.300   9.485   6.951  2.0550  1.7359  1.4250
  842MOL0     H13652   2.032   8.518   7.012 -0.4224  1.2013 -0.3420
  842MOL0     H13653   2.281   8.515   7.060 -1.7900  0.1821 -3.1435
  842MOL0     H13654   2.635   8.687   7.027 -1.2429  3.6686  2.3405
  842MOL0     H13655   2.880   8.734   7.060 -1.2878  0.9568  0.3135
  842MOL0     H13656   4.638   9.501   7.711 -1.5674 -0.5492 -0.3955
  842MOL0     H13657   4.867   9.467   7.795 -1.2677  1.8247 -2.0525
  842MOL0     H13658   5.241   9.349   7.879  1.9500 -0.3402 -0.5692
  842MOL0     H13659   5.450   9.348   8.001  3.1777 -0.4058 -2.4938
  842MOL0     H13660   5.523   8.946   8.199  0.0555  0.2956  2.1483
  842MOL0     H13661   5.641   8.947   8.073 -1.6447 -0.6585  0.8011
  842MOL0     H13662   5.734   8.944   8.321  0.9376  1.1762  0.4300
  842MOL0     H13663   5.628   9.086   8.356 -1.4857  1.5752 -2.3724
  842MOL0     H13664   5.747   9.239   8.258  0.6012  0.8612  1.2059
  842MOL0     H13665   5.861   9.131   8.173 -1.6935  1.1591 -1.4722
  842MOL0     H13666   5.827   9.160   8.475  1.1552  0.8083  1.5749
  842MOL0     H13667   5.937   9.257   8.379  0.9758 -0.1705 -0.6861
  842MOL0     H13668   6.137   8.881   8.404  0.1856 -1.0417 -1.5806
  842MOL0     H13669   5.445   8.908   7.987 -0.3301 -0.8693 -1.2125
  842MOL0     H13670   5.250   8.920   7.861  0.3692 -0.6948  2.1161
  843MOL0     O13671   9.068   8.613   6.386 -0.5856 -0.8381  0.8111
  843MOL0     C13672   9.036   8.498   6.364  0.7825  0.0235  0.1885
  843MOL0     O13673   8.908   8.457   6.335 -0.3042  0.2003 -0.7162
  843MOL0     C13674   8.798   8.534   6.337  0.1768 -0.1735  0.1835
  843MOL0     C13675   8.775   8.640   6.419  0.1999  0.0689 -0.3720
  843MOL0     C13676   8.653   8.708   6.413 -0.8234  0.8288  0.1850
  843MOL0     C13677   8.555   8.667   6.319  0.3442 -0.3298 -0.0566
  843MOL0     O13678   8.436   8.735   6.312 -0.1619 -0.7546 -0.4914
  843MOL0     C13679   8.389   8.755   6.177 -0.4129  0.4579 -0.7185
  843MOL0     C13680   8.266   8.652   6.170 -0.6754  0.1618  0.3577
  843MOL0     C13681   8.139   8.722   6.160  0.6937 -0.4812  0.3862
  843MOL0     C13682   8.037   8.639   6.084 -0.1371 -0.6808 -0.1502
  843MOL0     C13683   7.907   8.716   6.075  0.0312 -0.3890  0.3278
  843MOL0     C13684   7.798   8.634   6.008  0.1389 -0.0484 -0.5888
  843MOL0     C13685   7.673   8.737   6.008 -1.5236  0.0317 -0.9970
  843MOL0     C13686   7.593   8.743   6.145 -0.3709 -0.0674  0.2725
  843MOL0     N13687   7.471   8.662   6.148  0.1853 -0.1558  0.0786
  843MOL0     C13688   7.360   8.706   6.089  0.2728 -0.3863 -0.3910
  843MOL0     C13689   7.258   8.620   6.124  0.0772 -0.7290  0.3167
  843MOL0     C13690   7.116   8.636   6.086  0.8965  0.0975 -0.2298
  843MOL0     C13691   7.020   8.636   6.206  0.0593 -0.4499 -0.1588
  843MOL0     C13692   7.042   8.761   6.299 -0.5272  0.4533 -0.0060
  843MOL0     C13693   6.935   8.763   6.403 -0.2302  0.6717 -0.3564
  843MOL0     O13694   6.827   8.828   6.349 -0.3842  0.1268  0.3382
  843MOL0     C13695   6.708   8.804   6.406  0.4306  0.4037 -0.1761
  843MOL0     C13696   6.589   8.817   6.325  0.1686  0.1378 -0.0163
  843MOL0     C13697   6.460   8.794   6.375 -0.6998 -0.3493  1.0557
  843MOL0     C13698   6.347   8.792   6.275 -0.3793  0.2048  0.6182
  843MOL0     C13699   6.447   8.785   6.510 -0.7266  0.3003 -0.4949
  843MOL0     C13700   6.303   8.786   6.570  0.6534 -0.2748  0.3383
  843MOL0     O13701   6.205   8.868   6.514 -1.0548  0.0360 -0.7697
  843MOL0     C13702   6.093   8.883   6.592  0.1281  0.5437  0.4480
  843MOL0     C13703   6.084   8.956   6.713  0.1491  1.3341 -0.2406
  843MOL0     C13704   5.964   8.964   6.780  0.3187 -0.4711 -0.2658
  843MOL0     C13705   5.849   8.913   6.724  0.2254  0.9489 -1.1580
  843MOL0     O13706   5.726   8.907   6.782  0.1755  0.2892 -0.1677
  843MOL0     C13707   5.692   8.977   6.908  0.6680  0.5240 -0.1241
  843MOL0     C13708   5.550   8.954   6.950  0.0756  0.2483  0.4076
  843MOL0     C13709   5.445   9.025   6.857 -0.1399 -0.7279  0.4214
  843MOL0     C13710   5.297   8.980   6.888 -0.2186  0.1467 -0.6571
  843MOL0     C13711   5.194   9.054   6.808 -0.9349 -0.1400  0.6256
  843MOL0     C13712   5.055   9.016   6.858 -0.0026 -0.7816 -0.0758
  843MOL0     C13713   4.941   9.116   6.813  0.1178  0.5480 -0.2335
  843MOL0     C13714   4.802   9.074   6.851  0.0706  0.7779  0.6436
  843MOL0    Cl13715   4.776   8.901   6.787  0.0416 -0.1380 -0.3183
  843MOL0     C13716   5.850   8.856   6.602 -1.2603  0.1775 -0.0155
  843MOL0     C13717   5.975   8.832   6.541  0.0782  0.0816  0.0463
  843MOL0     O13718   6.286   8.713   6.670 -0.1306  0.5628  0.1005
  843MOL0     C13719   6.560   8.771   6.594  0.5108 -0.8116  0.9066
  843MOL0     C13720   6.689   8.765   6.542  0.3938  0.2393  0.2355
  843MOL0     N13721   7.314   8.525   6.214  0.1561 -0.4525 -0.3584
  843MOL0     N13722   7.444   8.553   6.232 -0.6521  0.3180 -0.4587
  843MOL0     C13723   8.574   8.554   6.241  0.9136 -0.0446  0.4362
  843MOL0     C13724   8.695   8.489   6.247  0.5158  0.8273 -0.6694
  843MOL0     C13725   9.140   8.400   6.376  0.0132  0.7461 -0.0751
  843MOL0     C13726   9.280   8.439   6.385  0.3199  0.7168  0.4156
  843MOL0     C13727   9.379   8.349   6.391  0.7274 -0.7400 -0.7194
  843MOL0     C13728   9.355   8.208   6.394 -0.0669 -0.0736  0.0538
  843MOL0     O13729   9.446   8.110   6.403  0.0100  0.9763  0.4804
  843MOL0     C13730   9.587   8.141   6.407 -1.5884  0.1133 -0.2182
  843MOL0     C13731   9.627   8.189   6.557  0.1254 -0.0149  0.0466
  843MOL0     C13732   9.587   8.093   6.669  0.3360 -0.5465 -0.2533
  843MOL0     C13733   9.643   7.952   6.663 -0.5254 -0.4686 -0.4001
  843MOL0     C13734   9.787   7.969   6.662 -0.0453  1.0231  0.4127
  843MOL0     C13735   9.905   7.977   6.655 -0.2501  0.0478  0.2976
  843MOL0     C13736   9.220   8.169   6.398 -0.3491 -0.1429  0.6437
  843MOL0     C13737   9.110   8.263   6.387 -0.2305 -0.0254 -0.2215
  843MOL0     H13738   8.855   8.665   6.488  0.5002  2.2687 -1.3969
  843MOL0     H13739   8.653   8.805   6.463 -0.0344  1.2014 -0.5083
  843MOL0     H13740   8.348   8.857   6.182 -3.7616 -0.7470  4.9503
  843MOL0     H13741   8.463   8.748   6.097 -0.5211  1.5088 -0.9261
  843MOL0     H13742   8.283   8.598   6.076  0.7424  1.8306 -0.3976
  843MOL0     H13743   8.271   8.572   6.245 -0.9747  1.6743  2.0576
  843MOL0     H13744   8.100   8.746   6.259 -2.3587 -1.3580 -0.5216
  843MOL0     H13745   8.149   8.818   6.107 -0.2807  0.3220  1.6229
  843MOL0     H13746   8.075   8.629   5.982  0.4232  1.1515 -0.1502
  843MOL0     H13747   8.011   8.544   6.133 -1.8577 -0.3419 -0.3343
  843MOL0     H13748   7.882   8.738   6.179 -1.0742  1.2067 -0.2319
  843MOL0     H13749   7.928   8.806   6.016  2.4020 -1.2962 -0.2928
  843MOL0     H13750   7.816   8.605   5.904 -1.6714 -0.1777 -0.9071
  843MOL0     H13751   7.771   8.539   6.056  2.3555 -0.8203 -0.7701
  843MOL0     H13752   7.718   8.833   5.983 -0.0284 -1.3940 -4.3497
  843MOL0     H13753   7.606   8.701   5.929 -0.9585 -1.9006 -0.6591
  843MOL0     H13754   7.557   8.844   6.171 -0.3816 -0.1914  0.7624
  843MOL0     H13755   7.656   8.707   6.227 -3.0540 -0.7120  2.1893
  843MOL0     H13756   7.345   8.799   6.035  1.2704 -0.0213 -0.0544
  843MOL0     H13757   7.087   8.729   6.034 -3.6604  0.1391  1.8862
  843MOL0     H13758   7.098   8.553   6.016  0.8258  0.4386 -0.6259
  843MOL0     H13759   7.068   8.556   6.263  0.3290 -0.2691 -0.1316
  843MOL0     H13760   6.913   8.619   6.191 -0.2963 -2.0438  3.2701
  843MOL0     H13761   7.048   8.852   6.239  1.6537  0.9392  0.8289
  843MOL0     H13762   7.135   8.739   6.353  0.4223  0.9904 -1.3704
  843MOL0     H13763   6.965   8.826   6.488 -0.6789  4.3913 -2.7458
  843MOL0     H13764   6.922   8.662   6.443  0.7309  0.7640  0.2300
  843MOL0     H13765   6.592   8.843   6.220  2.5997  0.0955 -0.0239
  843MOL0     H13766   6.324   8.898   6.268  0.3530  0.3638  0.4676
  843MOL0     H13767   6.386   8.747   6.183  1.6877 -1.3098  2.1216
  843MOL0     H13768   6.261   8.737   6.314  0.9832 -1.6002  1.2288
  843MOL0     H13769   6.174   9.001   6.753  1.0561  1.5601 -2.4007
  843MOL0     H13770   5.958   8.998   6.883  1.4925 -2.1869  0.4151
  843MOL0     H13771   5.755   8.947   6.992  0.7181 -1.4035 -0.7876
  843MOL0     H13772   5.725   9.075   6.874  3.0799 -0.4280 -0.7802
  843MOL0     H13773   5.529   8.847   6.943  0.8606  0.0415  1.0649
  843MOL0     H13774   5.533   8.984   7.053  0.0222 -0.9518  0.7695
  843MOL0     H13775   5.468   8.994   6.755  2.4412 -3.7888  1.7479
  843MOL0     H13776   5.468   9.131   6.872 -0.1570 -0.8115  1.0714
  843MOL0     H13777   5.294   8.873   6.865  4.1138  0.2028 -2.3326
  843MOL0     H13778   5.301   8.980   6.997  0.5649 -0.8536 -0.6628
  843MOL0     H13779   5.209   9.031   6.703  0.8019 -2.9884  1.3982
  843MOL0     H13780   5.206   9.162   6.826 -1.3007  0.1612 -0.8287
  843MOL0     H13781   5.034   8.913   6.831 -2.5649  0.1599 -2.0864
  843MOL0     H13782   5.059   9.016   6.967 -3.0285 -2.0579  0.1220
  843MOL0     H13783   4.957   9.137   6.707 -1.5151 -0.3513 -0.6867
  843MOL0     H13784   4.961   9.213   6.861  0.7406 -0.5514  1.8921
  843MOL0     H13785   4.738   9.143   6.794  0.2417 -2.9512 -4.8046
  843MOL0     H13786   4.777   9.079   6.957  0.1782  0.7968  0.6677
  843MOL0     H13787   5.762   8.813   6.555  0.0335 -0.8980 -1.5505
  843MOL0     H13788   5.976   8.763   6.457  3.2190 -1.3470  1.1328
  843MOL0     H13789   6.545   8.752   6.700  4.3484 -3.1777  1.2285
  843MOL0     H13790   6.776   8.758   6.608  0.6207 -0.2445 -0.1072
  843MOL0     H13791   8.493   8.525   6.174  0.0570  0.5168  1.2038
  843MOL0     H13792   8.708   8.395   6.196 -1.1851 -2.1234  3.6722
  843MOL0     H13793   9.319   8.540   6.378  2.8351 -0.1408  1.1266
  843MOL0     H13794   9.479   8.388   6.410  0.2078 -0.0932  0.8408
  843MOL0     H13795   9.634   8.045   6.385 -2.5833 -0.7393  1.1947
  843MOL0     H13796   9.627   8.200   6.324  0.6409 -3.1428 -1.6654
  843MOL0     H13797   9.587   8.289   6.577 -0.8934 -0.3498 -0.3066
  843MOL0     H13798   9.736   8.201   6.563  0.3606 -1.7433 -0.3755
  843MOL0     H13799   9.479   8.078   6.670  0.4527 -1.7233 -1.5883
  843MOL0     H13800   9.615   8.148   6.759 -1.1467  1.2613 -0.8462
  843MOL0     H13801   9.624   7.901   6.568  0.8683 -0.6203 -0.6174
  843MOL0     H13802   9.600   7.904   6.752 -2.3154  0.9302 -0.4423
  843MOL0     H13803  10.011   7.982   6.661 -0.1035 -0.0469 -1.7277
  843MOL0     H13804   9.187   8.066   6.410 -1.5956  0.2891  1.1296
  843MOL0     H13805   9.005   8.236   6.397  0.2897 -1.1022  4.4981
  844MOL0     O13806   2.960   5.812   7.545  0.8757 -0.3477  0.2920
  844MOL0     C13807   3.064   5.869   7.507 -0.6695 -0.3215  0.0328
  844MOL0     O13808   3.074   5.959   7.400 -0.7161 -0.3327  0.1390
  844MOL0     C13809   2.969   5.969   7.311  1.0121  0.1758 -0.0555
  844MOL0     C13810   2.949   6.089   7.247  0.1376  0.8347  0.4917
  844MOL0     C13811   2.848   6.098   7.143  0.4705  0.2875 -0.0600
  844MOL0     C13812   2.775   5.989   7.093  0.2090  0.0378  0.0473
  844MOL0     O13813   2.678   6.002   6.995  0.0851  0.4215 -0.3924
  844MOL0     C13814   2.714   5.951   6.870 -0.2727 -0.7966 -0.1375
  844MOL0     C13815   2.624   5.834   6.820  0.8498 -0.0753  0.4665
  844MOL0     C13816   2.679   5.777   6.686 -0.7045 -0.0400 -0.5335
  844MOL0     C13817   2.581   5.682   6.625  0.5521  0.5301  0.3590
  844MOL0     C13818   2.642   5.559   6.558  0.7757 -0.3657  0.3101
  844MOL0     C13819   2.543   5.492   6.466 -0.1466  0.1088  0.4989
  844MOL0     C13820   2.603   5.356   6.421  0.1007  0.3506 -0.2024
  844MOL0     C13821   2.517   5.283   6.330  1.0326 -0.0291 -0.3283
  844MOL0     N13822   2.376   5.281   6.370 -0.4666  0.1008  0.3835
  844MOL0     C13823   2.334   5.236   6.495 -0.2412 -1.1616  0.2197
  844MOL0     C13824   2.201   5.274   6.494  0.0433 -0.9766 -0.5418
  844MOL0     C13825   2.096   5.244   6.599 -0.0926 -0.4696  0.2856
  844MOL0     C13826   1.971   5.162   6.545  0.0082  0.3523  0.3237
  844MOL0     C13827   1.995   5.035   6.459  0.3189  0.1248  1.0081
  844MOL0     C13828   1.866   4.954   6.433  0.5445  1.0335  0.4892
  844MOL0     O13829   1.788   5.017   6.334 -0.3128 -0.5048 -0.7307
  844MOL0     C13830   1.653   5.018   6.346  0.4532 -0.2363 -0.1366
  844MOL0     C13831   1.583   5.031   6.230  0.4761 -0.7283 -0.3788
  844MOL0     C13832   1.440   5.030   6.227 -0.2170  0.7158  0.2983
  844MOL0     C13833   1.371   5.049   6.099  0.7759  0.6827  0.6215
  844MOL0     C13834   1.376   5.008   6.347  0.1488  0.9227  0.0136
  844MOL0     C13835   1.231   5.002   6.348 -0.2388  1.1569  0.6537
  844MOL0     O13836   1.182   4.918   6.256  1.0479  0.6182  0.4019
  844MOL0     C13837   1.043   4.901   6.236 -0.5162 -0.1772  0.1337
  844MOL0     C13838   0.963   4.806   6.308 -0.0183 -0.2085  0.1805
  844MOL0     C13839   0.830   4.777   6.269 -0.6222 -0.6479 -0.8309
  844MOL0     C13840   0.781   4.838   6.160 -0.1022 -0.1773  0.2191
  844MOL0     O13841   0.651   4.796   6.131  0.1623 -0.1978  0.6830
  844MOL0     C13842   0.598   4.851   6.008  0.2772  0.5544  0.2852
  844MOL0     C13843   0.458   4.805   5.964  0.4812  0.3622 -0.0858
  844MOL0     C13844   0.362   4.789   6.084 -0.1281  1.0778  0.4718
  844MOL0     C13845   0.232   4.748   6.029  0.1952  0.0365  0.5311
  844MOL0     C13846   0.144   4.708   6.146 -0.1559 -0.3265 -0.0045
  844MOL0     C13847   0.007   4.665   6.097 -0.1139 -0.0460 -0.4493
  844MOL0     C13848  -0.097   4.623   6.201 -0.4654  0.6521 -0.1879
  844MOL0     C13849  -0.136   4.747   6.284  0.3063  0.4123  0.0836
  844MOL0    Cl13850  -0.220   4.881   6.181 -0.4830 -0.0955 -0.1639
  844MOL0     C13851   0.859   4.929   6.084  0.5019  0.3168  0.4452
  844MOL0     C13852   0.986   4.955   6.119 -0.1600  0.3601 -0.8310
  844MOL0     O13853   1.164   5.062   6.435 -0.3231 -0.4844 -0.6920
  844MOL0     C13854   1.451   4.983   6.461  0.7351 -0.8897 -0.2169
  844MOL0     C13855   1.588   5.000   6.467  0.3075  1.1862 -0.7046
  844MOL0     N13856   2.178   5.347   6.379 -0.7840 -0.0981 -0.0472
  844MOL0     N13857   2.280   5.348   6.302 -0.2698  0.0129  0.0812
  844MOL0     C13858   2.789   5.870   7.170 -0.5604  0.2485  0.9175
  844MOL0     C13859   2.887   5.858   7.271 -0.0805  0.2014  0.6430
  844MOL0     C13860   3.182   5.844   7.598 -0.7672 -0.7534  0.0410
  844MOL0     C13861   3.180   5.772   7.718 -0.5717 -0.4455  0.8961
  844MOL0     C13862   3.297   5.759   7.798 -0.5326 -0.7910  0.0459
  844MOL0     C13863   3.412   5.838   7.773  0.0145  0.0766  1.3686
  844MOL0     O13864   3.531   5.835   7.843  0.3191  0.1138  0.6197
  844MOL0     C13865   3.548   5.740   7.948  0.2312  0.0314  0.1438
  844MOL0     C13866   3.574   5.595   7.900  0.0317 -0.9085 -0.8909
  844MOL0     C13867   3.653   5.582   7.768 -0.6779  1.2428 -0.0012
  844MOL0     C13868   3.681   5.431   7.710 -0.6684  0.1868 -0.1152
  844MOL0     C13869   3.562   5.351   7.693 -0.4890  1.0870 -0.2189
  844MOL0     C13870   3.464   5.289   7.667 -1.1690 -0.1558 -0.0851
  844MOL0     C13871   3.405   5.932   7.662 -0.1854  0.1423 -0.1035
  844MOL0     C13872   3.301   5.929   7.574 -0.2334  0.1636  0.2851
  844MOL0     H13873   3.004   6.182   7.257  2.9296 -0.8535  2.0043
  844MOL0     H13874   2.831   6.195   7.098  0.1609 -0.1609 -0.9225
  844MOL0     H13875   2.700   6.037   6.805  0.2296 -0.7610 -0.2044
  844MOL0     H13876   2.819   5.921   6.865 -0.4098 -1.2696 -0.2952
  844MOL0     H13877   2.596   5.755   6.891 -1.3419 -2.8902 -3.1280
  844MOL0     H13878   2.534   5.889   6.791 -0.6769 -1.6282  2.0316
  844MOL0     H13879   2.696   5.859   6.616  3.2312 -1.5185 -1.5580
  844MOL0     H13880   2.771   5.721   6.703  1.8124  4.0805  0.9413
  844MOL0     H13881   2.513   5.642   6.700 -0.8632 -2.6037 -2.3793
  844MOL0     H13882   2.528   5.734   6.544  2.4628 -0.4817 -1.6711
  844MOL0     H13883   2.730   5.579   6.496 -0.6921 -1.5175 -2.2940
  844MOL0     H13884   2.686   5.495   6.635  0.7191  2.4334  2.8599
  844MOL0     H13885   2.455   5.477   6.529  2.3866  0.4485  4.4683
  844MOL0     H13886   2.526   5.555   6.378 -2.2010 -3.0478 -1.5479
  844MOL0     H13887   2.700   5.378   6.375 -0.7360 -0.0633 -2.3098
  844MOL0     H13888   2.628   5.285   6.500 -0.2785  0.9597  0.4725
  844MOL0     H13889   2.544   5.177   6.331 -1.6961 -0.8188  1.0604
  844MOL0     H13890   2.542   5.319   6.230 -1.2857  1.1392 -0.5553
  844MOL0     H13891   2.391   5.174   6.564  1.0857 -0.4357 -0.1866
  844MOL0     H13892   2.145   5.188   6.680  0.9186  2.0384  1.5458
  844MOL0     H13893   2.067   5.343   6.638  1.3955 -0.2395  0.8916
  844MOL0     H13894   1.910   5.231   6.487  1.3905  1.1102 -0.2834
  844MOL0     H13895   1.923   5.124   6.635  1.0678  0.2372  0.8667
  844MOL0     H13896   2.074   4.975   6.507  1.1395  1.2557  1.1012
  844MOL0     H13897   2.028   5.050   6.356 -2.2772 -1.3359 -0.1305
  844MOL0     H13898   1.810   4.928   6.523 -0.4470 -0.6073 -0.5393
  844MOL0     H13899   1.887   4.855   6.391  0.3979  1.3723 -0.4025
  844MOL0     H13900   1.635   5.052   6.136 -0.2591  0.2361 -0.5843
  844MOL0     H13901   1.286   5.117   6.109 -0.7374 -0.8026 -1.4180
  844MOL0     H13902   1.434   5.098   6.024  0.5219 -0.2746 -0.2368
  844MOL0     H13903   1.338   4.953   6.058 -5.8797  1.4294  2.9446
  844MOL0     H13904   1.005   4.750   6.391  1.4201  1.1677  0.4378
  844MOL0     H13905   0.778   4.695   6.316 -0.7174  0.1861  0.5693
  844MOL0     H13906   0.599   4.959   6.027 -2.1505  1.1706 -2.3073
  844MOL0     H13907   0.670   4.831   5.928  0.3393  0.2962  0.4064
  844MOL0     H13908   0.421   4.876   5.889 -2.8493 -1.4128 -0.3401
  844MOL0     H13909   0.480   4.710   5.915  0.2869  0.5793 -0.6029
  844MOL0     H13910   0.361   4.882   6.141  2.3939  1.3872  0.1324
  844MOL0     H13911   0.403   4.720   6.158  0.2888  2.4214  1.5286
  844MOL0     H13912   0.189   4.830   5.970 -0.8728 -0.8922 -0.0280
  844MOL0     H13913   0.247   4.660   5.965 -2.7468  1.0511 -1.8042
  844MOL0     H13914   0.132   4.796   6.210  0.1858 -0.4822  0.2743
  844MOL0     H13915   0.191   4.628   6.203 -4.5745 -2.7277  0.7487
  844MOL0     H13916  -0.031   4.748   6.037 -0.3463  3.7126  4.3177
  844MOL0     H13917   0.024   4.579   6.032  1.8239  2.1340 -3.0762
  844MOL0     H13918  -0.056   4.553   6.274 -0.0945  2.2663  1.2149
  844MOL0     H13919  -0.185   4.592   6.144  1.0089  1.6567 -3.2561
  844MOL0     H13920  -0.052   4.797   6.331 -0.1184  1.5278 -0.3137
  844MOL0     H13921  -0.204   4.705   6.358 -0.1877 -0.9297 -1.0769
  844MOL0     H13922   0.826   4.976   5.992  1.1981 -1.1455 -0.5974
  844MOL0     H13923   1.048   5.025   6.064 -0.4579  1.7693  0.5398
  844MOL0     H13924   1.396   4.961   6.552  3.0357  0.2788  1.5517
  844MOL0     H13925   1.625   4.985   6.569  1.1250  1.3913 -0.9615
  844MOL0     H13926   2.732   5.784   7.136 -1.2398  0.4678  1.4857
  844MOL0     H13927   2.898   5.761   7.319  0.8298  0.9573  2.0228
  844MOL0     H13928   3.088   5.721   7.745 -1.6087  1.6936  1.5673
  844MOL0     H13929   3.294   5.691   7.882 -0.5699  1.7138  2.2123
  844MOL0     H13930   3.632   5.775   8.009 -1.7474  0.7395  2.6185
  844MOL0     H13931   3.469   5.748   8.023  0.3767  0.7372  0.2380
  844MOL0     H13932   3.483   5.535   7.885 -0.4720  0.2509 -2.7870
  844MOL0     H13933   3.635   5.553   7.980 -2.6060  0.3394  1.9783
  844MOL0     H13934   3.745   5.640   7.782  0.0685 -0.2341  1.7385
  844MOL0     H13935   3.587   5.619   7.689 -0.5812 -0.4372 -0.9020
  844MOL0     H13936   3.755   5.388   7.778 -0.0170  1.6523  0.1366
  844MOL0     H13937   3.731   5.435   7.613 -1.0869 -2.1405 -0.4797
  844MOL0     H13938   3.373   5.234   7.651 -1.1471  0.1800 -1.4427
  844MOL0     H13939   3.490   6.000   7.658  0.8544 -1.1715 -1.2547
  844MOL0     H13940   3.313   5.996   7.490 -0.5051  1.1401  1.0133
  845MOL0     O13941   9.010   3.866   6.567  0.2860 -0.6156  0.2835
  845MOL0     C13942   9.070   3.810   6.481 -0.1993  0.2651  0.4639
  845MOL0     O13943   9.022   3.783   6.350  0.5973  0.4176 -0.3847
  845MOL0     C13944   8.886   3.807   6.342  1.0304 -0.3424  0.2890
  845MOL0     C13945   8.823   3.935   6.359 -0.3709  0.0418 -0.4487
  845MOL0     C13946   8.683   3.937   6.355  0.7510 -0.3056  0.2412
  845MOL0     C13947   8.598   3.824   6.331 -0.0929  0.9014 -0.5978
  845MOL0     O13948   8.463   3.826   6.329 -0.3434 -0.2137 -0.6236
  845MOL0     C13949   8.386   3.711   6.292 -0.7762 -1.0449 -0.6116
  845MOL0     C13950   8.239   3.753   6.292 -0.4323 -0.1856 -0.1699
  845MOL0     C13951   8.187   3.796   6.432 -0.7224 -0.7764  0.1646
  845MOL0     C13952   8.038   3.832   6.435 -0.1084  0.5189 -0.3615
  845MOL0     C13953   7.996   3.875   6.583  0.4439  0.1206 -0.2447
  845MOL0     C13954   7.853   3.940   6.579  0.2644 -0.6185 -0.7164
  845MOL0     C13955   7.730   3.852   6.569 -0.0121  0.3932 -0.1695
  845MOL0     C13956   7.607   3.936   6.533 -0.5662  0.2903  0.2267
  845MOL0     N13957   7.489   3.870   6.488 -0.0295 -0.4477 -0.7723
  845MOL0     C13958   7.454   3.858   6.359 -0.2352  0.4571 -0.3144
  845MOL0     C13959   7.336   3.791   6.365 -0.0995  0.5602  0.0511
  845MOL0     C13960   7.267   3.746   6.238  0.4599  0.2158  0.0795
  845MOL0     C13961   7.147   3.843   6.211  0.5521  0.5227  1.6821
  845MOL0     C13962   7.045   3.794   6.092  0.9395  0.3581 -0.0707
  845MOL0     C13963   6.957   3.669   6.137 -0.7925  0.2664 -0.5235
  845MOL0     O13964   6.886   3.602   6.040  0.4998 -0.1784  0.2081
  845MOL0     C13965   6.766   3.649   6.013  0.1286  0.9832  0.1723
  845MOL0     C13966   6.737   3.763   5.937  0.6341  1.2191 -0.2124
  845MOL0     C13967   6.604   3.783   5.883 -0.6191 -0.1252 -0.6839
  845MOL0     C13968   6.596   3.894   5.780 -0.0268 -0.7156 -0.5311
  845MOL0     C13969   6.496   3.700   5.915  0.3501  0.1300 -0.0012
  845MOL0     C13970   6.354   3.730   5.874  0.2456 -0.4748  0.2976
  845MOL0     O13971   6.276   3.622   5.853 -0.6733  0.3507  0.2196
  845MOL0     C13972   6.145   3.658   5.833  0.6647  0.3425  0.0162
  845MOL0     C13973   6.092   3.672   5.709  0.5691  1.4865  0.6758
  845MOL0     C13974   5.955   3.719   5.691 -0.3135  0.8549  0.5818
  845MOL0     C13975   5.876   3.742   5.802 -0.8623 -0.2151 -1.2506
  845MOL0     O13976   5.737   3.773   5.800  0.1574  0.5084  0.2339
  845MOL0     C13977   5.701   3.853   5.689 -0.8256  0.2009 -0.5104
  845MOL0     C13978   5.551   3.893   5.687  0.0120  0.3450 -0.6665
  845MOL0     C13979   5.518   3.999   5.580 -0.0548 -0.0159 -0.3722
  845MOL0     C13980   5.368   4.009   5.561  1.0083  0.2822  0.2553
  845MOL0     C13981   5.320   4.133   5.483  0.0037  0.0621 -0.4102
  845MOL0     C13982   5.365   4.148   5.341 -0.2252  0.7673  0.6143
  845MOL0     C13983   5.267   4.245   5.261  0.4348  0.3460 -0.4680
  845MOL0     C13984   5.317   4.280   5.122  1.3473  0.0695  0.6512
  845MOL0    Cl13985   5.209   4.391   5.035  0.0991  0.6571  0.1633
  845MOL0     C13986   5.935   3.731   5.934  0.2295  0.2349  0.1664
  845MOL0     C13987   6.067   3.695   5.942 -0.1817  0.7006 -0.2477
  845MOL0     O13988   6.319   3.848   5.874  0.4575 -0.6832 -0.0345
  845MOL0     C13989   6.525   3.589   5.996 -0.0819 -0.0735 -1.0827
  845MOL0     C13990   6.649   3.569   6.044 -0.8929 -1.0194  0.3734
  845MOL0     N13991   7.308   3.758   6.495 -0.4244  0.2282 -0.4245
  845MOL0     N13992   7.409   3.806   6.575 -0.5138  0.6500 -0.3971
  845MOL0     C13993   8.673   3.709   6.300  0.0980 -0.7320 -1.0683
  845MOL0     C13994   8.813   3.699   6.309  0.7567  0.3756 -0.6686
  845MOL0     C13995   9.193   3.744   6.521  0.9946 -0.8500 -0.4342
  845MOL0     C13996   9.242   3.777   6.649 -1.2069 -0.1247  0.3294
  845MOL0     C13997   9.368   3.720   6.694 -0.2856 -0.2611  0.2332
  845MOL0     C13998   9.422   3.608   6.624  0.0371 -0.0373 -0.0558
  845MOL0     O13999   9.541   3.554   6.658  0.5549  0.2512  0.2160
  845MOL0     C14000   9.576   3.414   6.648  0.2676 -0.2650  0.4561
  845MOL0     C14001   9.720   3.400   6.708  0.5615 -0.7354  0.1273
  845MOL0     C14002   9.712   3.443   6.850 -0.5623 -0.0286 -0.0860
  845MOL0     C14003   9.854   3.423   6.920  0.2711 -0.4126 -0.5582
  845MOL0     C14004   9.831   3.428   7.069 -0.2610 -0.0847  0.3419
  845MOL0     C14005   9.823   3.409   7.190 -0.3116  0.5099  0.7035
  845MOL0     C14006   9.352   3.559   6.512  0.0077 -0.1573 -0.0944
  845MOL0     C14007   9.241   3.632   6.458  0.4575 -0.0158 -0.5841
  845MOL0     H14008   8.889   4.017   6.387 -1.1095  0.1122  1.1655
  845MOL0     H14009   8.649   4.035   6.387  2.7631  0.3565  0.5221
  845MOL0     H14010   8.408   3.683   6.189  2.8003  3.3843 -1.3571
  845MOL0     H14011   8.395   3.630   6.365 -0.6597 -0.8971 -0.4618
  845MOL0     H14012   8.223   3.828   6.213 -3.1827 -0.9775 -0.4895
  845MOL0     H14013   8.192   3.661   6.256 -2.7995  1.0727 -0.4932
  845MOL0     H14014   8.216   3.717   6.503  2.1963  1.7637  2.1318
  845MOL0     H14015   8.246   3.887   6.449  1.2396 -1.3056 -3.0668
  845MOL0     H14016   8.037   3.914   6.362  2.2392  1.9920  1.1144
  845MOL0     H14017   7.979   3.754   6.387  0.0176  1.0058 -1.3411
  845MOL0     H14018   7.991   3.785   6.646  1.7359 -1.1033 -1.7918
  845MOL0     H14019   8.071   3.947   6.615  1.4682 -1.2588  0.5763
  845MOL0     H14020   7.844   4.000   6.671  1.2720 -1.2397 -0.1975
  845MOL0     H14021   7.848   4.002   6.489  2.0246 -1.4273 -1.4267
  845MOL0     H14022   7.752   3.781   6.488  1.3047 -2.5355  2.5088
  845MOL0     H14023   7.711   3.794   6.660  2.1036 -2.2902 -1.2865
  845MOL0     H14024   7.624   4.010   6.454 -1.0925  1.0588  0.8107
  845MOL0     H14025   7.576   3.993   6.621 -0.6877  0.4074  0.1097
  845MOL0     H14026   7.507   3.882   6.267  2.1573 -1.3424  0.4912
  845MOL0     H14027   7.339   3.738   6.156 -3.5244 -0.8218 -3.6917
  845MOL0     H14028   7.241   3.639   6.243  4.3764 -0.9380 -0.2928
  845MOL0     H14029   7.192   3.942   6.197 -1.6695  1.2561 -1.2332
  845MOL0     H14030   7.082   3.846   6.298 -0.4006  0.4098  0.9858
  845MOL0     H14031   7.100   3.755   6.006 -0.1595  2.2690 -1.7152
  845MOL0     H14032   6.986   3.883   6.070 -0.3413 -0.4740 -0.1624
  845MOL0     H14033   6.888   3.694   6.218  1.8774 -1.8393  2.6513
  845MOL0     H14034   7.032   3.603   6.181 -0.7306  2.1136  2.3410
  845MOL0     H14035   6.816   3.833   5.912  0.1446  1.8948  0.0841
  845MOL0     H14036   6.556   3.986   5.823 -1.2604 -1.0622 -0.9088
  845MOL0     H14037   6.693   3.897   5.729 -0.7115  0.6074 -1.8248
  845MOL0     H14038   6.528   3.863   5.700 -0.2482  0.0725 -0.6493
  845MOL0     H14039   6.145   3.660   5.615 -1.0072  4.3605 -0.7234
  845MOL0     H14040   5.930   3.725   5.586  0.5070 -1.3100  0.2121
  845MOL0     H14041   5.759   3.945   5.699 -1.0316  0.1047  2.3770
  845MOL0     H14042   5.724   3.797   5.598 -1.3319 -1.7244  0.4861
  845MOL0     H14043   5.501   3.797   5.670  2.3252 -1.1832  0.5814
  845MOL0     H14044   5.524   3.928   5.788 -0.5655 -0.6998 -0.4515
  845MOL0     H14045   5.567   3.968   5.487 -1.3379 -2.1393 -0.3995
  845MOL0     H14046   5.556   4.100   5.599  0.7383  0.0848 -2.2449
  845MOL0     H14047   5.329   3.917   5.518  1.7201  0.1429 -0.1090
  845MOL0     H14048   5.312   4.016   5.655 -0.7870  0.1607 -0.7652
  845MOL0     H14049   5.358   4.222   5.534  0.5509 -1.7331  2.5984
  845MOL0     H14050   5.211   4.128   5.484 -0.0439  0.9974 -0.0393
  845MOL0     H14051   5.459   4.202   5.349  0.8035 -1.1832  3.6246
  845MOL0     H14052   5.369   4.054   5.285 -0.5682 -1.0371  3.4185
  845MOL0     H14053   5.247   4.337   5.316 -0.5036 -0.8670  1.2965
  845MOL0     H14054   5.173   4.191   5.247  0.0495  0.6513  0.8084
  845MOL0     H14055   5.328   4.191   5.059 -1.2254  1.5511 -2.1701
  845MOL0     H14056   5.418   4.317   5.141  0.1235  2.2429  3.7808
  845MOL0     H14057   5.884   3.746   6.028  1.2575  2.1670  0.4604
  845MOL0     H14058   6.109   3.692   6.042 -2.3403 -0.2416  0.7006
  845MOL0     H14059   6.448   3.524   6.036 -0.9733  2.8418  2.5143
  845MOL0     H14060   6.673   3.487   6.110 -3.1916 -0.4374  2.0655
  845MOL0     H14061   8.620   3.619   6.271 -2.8163  1.0880 -1.7903
  845MOL0     H14062   8.873   3.612   6.283 -0.1312  0.2341 -2.3986
  845MOL0     H14063   9.201   3.862   6.702  4.4531  2.9577  0.5312
  845MOL0     H14064   9.421   3.761   6.780 -0.4277  1.0197 -0.2610
  845MOL0     H14065   9.505   3.362   6.713  0.1807  0.9763  1.3920
  845MOL0     H14066   9.582   3.376   6.546 -2.2557 -0.1446  0.2062
  845MOL0     H14067   9.791   3.458   6.649  1.1261 -0.7427  0.7862
  845MOL0     H14068   9.753   3.297   6.692 -0.7524 -1.5634  2.2306
  845MOL0     H14069   9.645   3.381   6.911  0.4627 -0.7749  0.3091
  845MOL0     H14070   9.678   3.546   6.861 -0.9992  0.0132 -1.6396
  845MOL0     H14071   9.921   3.503   6.890 -2.2469  1.7642 -0.7668
  845MOL0     H14072   9.903   3.331   6.888  0.0941 -0.9819  0.7546
  845MOL0     H14073   9.815   3.377   7.292  1.6967 -0.1730  0.6954
  845MOL0     H14074   9.388   3.473   6.456 -0.7728 -1.1052  0.7910
  845MOL0     H14075   9.183   3.587   6.378 -1.4854 -1.2896  1.4045
  846MOL0     O14076   9.618   3.681   1.490 -0.5615 -0.5985 -0.9109
  846MOL0     C14077   9.649   3.697   1.611  0.7370 -1.1640  0.7377
  846MOL0     O14078   9.575   3.772   1.706 -0.1032  0.2699  0.1198
  846MOL0     C14079   9.458   3.840   1.666  0.5117 -0.1682  0.0360
  846MOL0     C14080   9.432   3.959   1.732 -0.3966  0.2085  0.4607
  846MOL0     C14081   9.301   4.016   1.729 -0.5104 -0.5612  0.4873
  846MOL0     C14082   9.202   3.953   1.648 -0.2420  0.3914  0.7709
  846MOL0     O14083   9.077   3.990   1.629  0.1577  0.0131 -0.0228
  846MOL0     C14084   9.021   4.069   1.727 -0.8475 -0.7254  0.4929
  846MOL0     C14085   8.862   4.070   1.728  0.2005 -0.5921  0.4720
  846MOL0     C14086   8.809   4.163   1.614 -0.0048  0.5059 -0.1104
  846MOL0     C14087   8.658   4.159   1.649 -0.1200 -0.7223 -0.5673
  846MOL0     C14088   8.570   4.232   1.559  0.4988  0.6189 -0.1751
  846MOL0     C14089   8.419   4.195   1.579 -0.2805 -0.0700  1.3116
  846MOL0     C14090   8.323   4.291   1.502 -0.1271  0.1147  0.2595
  846MOL0     C14091   8.184   4.232   1.475 -0.2752  0.5475  0.0746
  846MOL0     N14092   8.102   4.335   1.399  0.0878 -0.1939  0.1472
  846MOL0     C14093   7.974   4.374   1.417 -0.1839  0.6235  0.5018
  846MOL0     C14094   7.955   4.463   1.316 -0.5390 -0.1404 -0.0702
  846MOL0     C14095   7.836   4.545   1.269  0.3728 -0.1008  0.5098
  846MOL0     C14096   7.807   4.657   1.373  0.2577  0.1353 -0.0676
  846MOL0     C14097   7.744   4.601   1.504 -0.4457  0.6298 -0.4687
  846MOL0     C14098   7.597   4.571   1.495  0.1881  0.0423 -0.9848
  846MOL0     O14099   7.530   4.707   1.476  0.2277  0.1227  0.0785
  846MOL0     C14100   7.393   4.692   1.494 -0.1907 -0.0360  0.0271
  846MOL0     C14101   7.323   4.808   1.477  0.3888 -0.1177  0.5598
  846MOL0     C14102   7.185   4.821   1.516  0.2457  0.0567  0.1892
  846MOL0     C14103   7.136   4.962   1.527 -0.0594  0.5402  0.2342
  846MOL0     C14104   7.105   4.697   1.527 -0.3584 -0.5517  0.5246
  846MOL0     C14105   6.957   4.700   1.573  0.0061 -0.0347 -0.2973
  846MOL0     O14106   6.906   4.585   1.621 -0.1634  0.0782 -0.3081
  846MOL0     C14107   6.789   4.595   1.686  0.7956 -0.1755  0.1178
  846MOL0     C14108   6.786   4.553   1.827 -0.6740  0.4249  0.3138
  846MOL0     C14109   6.659   4.554   1.893  1.0067  0.4888 -0.4851
  846MOL0     C14110   6.552   4.618   1.836  0.2484 -0.1338 -0.6527
  846MOL0     O14111   6.435   4.634   1.900  0.5556  0.5626 -0.1369
  846MOL0     C14112   6.336   4.532   1.875  0.1196 -0.1901  0.0670
  846MOL0     C14113   6.366   4.408   1.956  0.3329 -0.8660  0.3035
  846MOL0     C14114   6.348   4.443   2.107 -0.0739  0.9128 -0.2730
  846MOL0     C14115   6.373   4.313   2.192 -0.0343  0.3191  0.2066
  846MOL0     C14116   6.389   4.326   2.346 -0.0048 -0.4028 -0.2071
  846MOL0     C14117   6.378   4.191   2.420 -0.1865  0.9816  0.7591
  846MOL0     C14118   6.236   4.157   2.439  0.1918 -0.2511 -0.9197
  846MOL0     C14119   6.212   4.022   2.510 -0.3506 -0.0229 -0.1028
  846MOL0    Cl14120   6.269   4.055   2.673 -0.1396  0.1224 -0.0453
  846MOL0     C14121   6.559   4.671   1.713  0.1716  0.2968  1.2821
  846MOL0     C14122   6.670   4.667   1.635  0.2291  0.4361  0.4772
  846MOL0     O14123   6.900   4.810   1.573 -0.3205 -0.0082  0.2443
  846MOL0     C14124   7.179   4.573   1.528 -0.7972 -0.3412 -0.5558
  846MOL0     C14125   7.316   4.569   1.507 -0.5580 -0.3920 -0.2281
  846MOL0     N14126   8.069   4.473   1.243  0.4449  0.1616  0.2719
  846MOL0     N14127   8.155   4.408   1.303 -0.0202  0.4743 -0.0464
  846MOL0     C14128   9.233   3.842   1.573  0.4746  0.0941 -0.0171
  846MOL0     C14129   9.355   3.786   1.586 -0.3688 -0.5288  0.2209
  846MOL0     C14130   9.782   3.640   1.659 -0.6747  0.6002 -0.1524
  846MOL0     C14131   9.874   3.593   1.565 -0.3493  0.3957 -0.0985
  846MOL0     C14132  10.003   3.563   1.603 -0.3684 -0.5152  0.1526
  846MOL0     C14133  10.040   3.570   1.736 -0.5130 -0.5892 -0.8103
  846MOL0     O14134  10.167   3.548   1.771 -0.7580  0.6726 -0.2447
  846MOL0     C14135  10.278   3.580   1.685  0.3156  0.0511 -0.2046
  846MOL0     C14136  10.403   3.570   1.767 -0.2547  0.1989  0.1167
  846MOL0     C14137  10.488   3.699   1.762 -0.1727 -0.3337 -0.4304
  846MOL0     C14138  10.626   3.687   1.820 -0.2728 -0.1553  0.2871
  846MOL0     C14139  10.713   3.597   1.747  0.1130  0.1312 -0.0019
  846MOL0     C14140  10.784   3.531   1.680  0.2506 -0.2124  0.5395
  846MOL0     C14141   9.952   3.620   1.835  0.2945  0.2648 -0.1654
  846MOL0     C14142   9.814   3.658   1.793 -1.2841 -0.5001 -0.6469
  846MOL0     H14143   9.517   3.995   1.789  2.2541 -4.3568 -0.0735
  846MOL0     H14144   9.299   4.106   1.789  1.1413 -2.1230  3.0796
  846MOL0     H14145   9.055   4.022   1.820  0.5493 -0.0158  0.3660
  846MOL0     H14146   9.068   4.167   1.715  0.4437 -1.3409  0.3685
  846MOL0     H14147   8.825   3.967   1.734  0.1231 -0.5642  0.4714
  846MOL0     H14148   8.840   4.118   1.823 -0.4863 -2.5297  1.3413
  846MOL0     H14149   8.862   4.258   1.626  0.5161 -0.0041  2.0930
  846MOL0     H14150   8.835   4.110   1.522 -2.5454 -0.4703 -0.3558
  846MOL0     H14151   8.630   4.053   1.653  1.4320 -1.1596 -0.5497
  846MOL0     H14152   8.651   4.196   1.751  3.6576 -2.5222  0.5056
  846MOL0     H14153   8.594   4.339   1.570  1.8931  0.4022 -0.9288
  846MOL0     H14154   8.595   4.214   1.454  0.9930  2.5920 -0.4455
  846MOL0     H14155   8.395   4.092   1.551  3.1975 -1.1230  1.6567
  846MOL0     H14156   8.393   4.199   1.685 -2.9867 -0.4473  0.7332
  846MOL0     H14157   8.328   4.392   1.545  4.1464  0.7611 -1.3323
  846MOL0     H14158   8.369   4.294   1.403 -0.8446 -0.7297 -0.1131
  846MOL0     H14159   8.139   4.214   1.572 -1.9673  0.7618 -0.6417
  846MOL0     H14160   8.204   4.136   1.426  0.0601 -0.9566  2.9873
  846MOL0     H14161   7.899   4.323   1.477 -0.3763  0.5136  0.1708
  846MOL0     H14162   7.857   4.586   1.169 -2.0755 -1.9089 -0.8573
  846MOL0     H14163   7.749   4.482   1.250 -0.6676  1.6068 -0.7039
  846MOL0     H14164   7.730   4.715   1.322  1.0856  1.0762 -0.2913
  846MOL0     H14165   7.898   4.717   1.384 -0.8140  1.8454 -0.2293
  846MOL0     H14166   7.767   4.672   1.584  2.5108 -0.3525 -0.3418
  846MOL0     H14167   7.779   4.501   1.532 -1.9288  0.5131  1.1665
  846MOL0     H14168   7.570   4.524   1.591  1.2422  0.5773 -0.4028
  846MOL0     H14169   7.572   4.500   1.416  0.5835 -1.6324  0.3362
  846MOL0     H14170   7.374   4.900   1.451 -1.1418  0.9454  1.2074
  846MOL0     H14171   7.220   5.032   1.527 -1.9072  2.9402 -1.9763
  846MOL0     H14172   7.060   4.990   1.454 -4.0925  0.8580  4.1555
  846MOL0     H14173   7.093   4.970   1.627 -3.0476  3.3507 -1.0873
  846MOL0     H14174   6.873   4.507   1.873 -0.1714  0.6954 -0.3409
  846MOL0     H14175   6.654   4.517   1.995  0.5571  1.3422 -0.1926
  846MOL0     H14176   6.249   4.588   1.909  0.4382 -0.0389  0.6449
  846MOL0     H14177   6.325   4.512   1.768  2.5493 -1.8835  0.0440
  846MOL0     H14178   6.313   4.320   1.918  1.0076 -2.2042  2.3009
  846MOL0     H14179   6.469   4.382   1.931  1.6884  3.5447  0.5723
  846MOL0     H14180   6.247   4.479   2.127 -0.3144 -0.7585  1.8773
  846MOL0     H14181   6.421   4.519   2.137  1.4229 -0.6840  0.3252
  846MOL0     H14182   6.290   4.251   2.158  0.8593 -0.5443 -0.4520
  846MOL0     H14183   6.457   4.265   2.141 -1.8640  0.0062 -2.7816
  846MOL0     H14184   6.315   4.393   2.389  0.8319 -0.0750  0.7821
  846MOL0     H14185   6.486   4.374   2.365  1.2190 -2.3470 -1.1795
  846MOL0     H14186   6.430   4.114   2.361  2.3840  3.4461 -0.4514
  846MOL0     H14187   6.427   4.191   2.518  0.0174 -0.2903  0.6778
  846MOL0     H14188   6.181   4.155   2.345  1.0735 -2.3208 -1.4478
  846MOL0     H14189   6.195   4.231   2.508 -1.5127 -0.2559 -1.8984
  846MOL0     H14190   6.262   3.938   2.461  0.2113  0.4956 -0.4337
  846MOL0     H14191   6.104   4.008   2.505 -0.3300  0.1684 -3.3949
  846MOL0     H14192   6.479   4.730   1.669  1.1482  0.3521 -0.5032
  846MOL0     H14193   6.667   4.714   1.537 -0.0232 -2.4046 -0.9783
  846MOL0     H14194   7.116   4.493   1.564 -0.0231  0.2482  2.4103
  846MOL0     H14195   7.355   4.468   1.510 -0.1042 -0.1973  1.9801
  846MOL0     H14196   9.156   3.810   1.504  0.1702  1.3582 -0.2944
  846MOL0     H14197   9.366   3.686   1.545 -3.7289 -2.0059  2.4948
  846MOL0     H14198   9.846   3.589   1.460 -0.0074 -1.0058 -0.1501
  846MOL0     H14199  10.073   3.535   1.524  0.5130  1.0791  0.3172
  846MOL0     H14200  10.278   3.518   1.595 -2.8394  0.9187 -0.9344
  846MOL0     H14201  10.257   3.686   1.665  0.8500  0.0978 -0.5270
  846MOL0     H14202  10.467   3.485   1.742  0.5179  0.9821 -0.6612
  846MOL0     H14203  10.370   3.550   1.869  1.3848  3.3349  1.3976
  846MOL0     H14204  10.433   3.771   1.824 -1.4054 -0.1984 -1.6463
  846MOL0     H14205  10.510   3.729   1.659 -2.4318  0.2092 -0.8010
  846MOL0     H14206  10.623   3.659   1.926 -0.0046  1.3475  0.7137
  846MOL0     H14207  10.671   3.787   1.813 -0.1311 -0.2433 -0.0525
  846MOL0     H14208  10.842   3.456   1.630  2.2876  0.6876  1.4183
  846MOL0     H14209   9.990   3.627   1.936 -1.6338  1.0107  0.5616
  846MOL0     H14210   9.745   3.706   1.861 -2.0428 -2.1212 -0.2135
  847MOL0     O14211   6.539   0.455   1.335  0.3087  0.3921  0.9007
  847MOL0     C14212   6.624   0.527   1.296 -0.1114  0.1816  0.1584
  847MOL0     O14213   6.663   0.644   1.355 -0.1468 -0.3501 -0.6564
  847MOL0     C14214   6.605   0.683   1.470  0.2785 -0.0247 -0.5861
  847MOL0     C14215   6.668   0.663   1.588 -0.2560  0.5338  0.5979
  847MOL0     C14216   6.606   0.713   1.708  0.2623 -0.0098  0.1288
  847MOL0     C14217   6.475   0.768   1.704 -0.2537 -0.7767 -0.0719
  847MOL0     O14218   6.424   0.816   1.820 -0.0555  0.0081 -0.6802
  847MOL0     C14219   6.294   0.876   1.840  0.0329 -0.5258 -0.7181
  847MOL0     C14220   6.245   0.865   1.983  0.1599 -0.8715  0.2064
  847MOL0     C14221   6.099   0.900   1.999 -0.1145 -0.7504 -0.1082
  847MOL0     C14222   6.057   1.022   1.922  0.1750  0.1994 -0.0751
  847MOL0     C14223   5.943   1.093   1.989  0.5995  0.1066 -0.1755
  847MOL0     C14224   5.803   1.041   1.937 -0.3279 -1.0790 -0.5600
  847MOL0     C14225   5.695   1.145   1.955  0.2509  0.1008  0.1568
  847MOL0     C14226   5.559   1.099   1.902  0.1712 -0.1568 -0.8204
  847MOL0     N14227   5.512   0.973   1.955  0.0126 -0.7878  0.1304
  847MOL0     C14228   5.498   0.943   2.086  0.4179  0.5474 -0.3279
  847MOL0     C14229   5.435   0.815   2.075  0.1064  0.4718 -0.2286
  847MOL0     C14230   5.392   0.715   2.179  0.4129 -0.1362  0.4161
  847MOL0     C14231   5.433   0.565   2.154 -0.1281  0.1764 -0.3542
  847MOL0     C14232   5.371   0.471   2.256  0.2185 -0.3038 -0.4663
  847MOL0     C14233   5.368   0.325   2.208  0.0403 -0.8617  0.3359
  847MOL0     O14234   5.304   0.285   2.092 -0.0094  0.3007  0.3080
  847MOL0     C14235   5.164   0.285   2.081  1.3809  0.3509 -0.6182
  847MOL0     C14236   5.113   0.280   1.949 -0.0234 -0.4898 -0.9758
  847MOL0     C14237   4.976   0.256   1.924  0.4313 -0.0852  0.1126
  847MOL0     C14238   4.937   0.216   1.778  0.5127  0.2333  0.3786
  847MOL0     C14239   4.878   0.263   2.033  0.0486 -0.2053 -0.1110
  847MOL0     C14240   4.733   0.256   2.004 -0.1823  0.3194 -0.3976
  847MOL0     O14241   4.686   0.283   1.876 -0.4088 -0.7817 -0.1581
  847MOL0     C14242   4.553   0.264   1.841 -0.8772 -0.9300 -0.2137
  847MOL0     C14243   4.437   0.251   1.914  0.1247 -0.0671  0.2896
  847MOL0     C14244   4.312   0.235   1.860  0.6506  0.5152  0.3504
  847MOL0     C14245   4.294   0.238   1.718  0.7508 -0.5555 -0.2913
  847MOL0     O14246   4.182   0.207   1.638 -0.2460  0.1951  0.0035
  847MOL0     C14247   4.061   0.199   1.708 -0.2425  0.4594  0.2486
  847MOL0     C14248   3.955   0.166   1.606 -0.6078 -0.8165 -0.5494
  847MOL0     C14249   3.821   0.114   1.671 -0.2546  0.2416 -0.3545
  847MOL0     C14250   3.715   0.067   1.566  0.2553  0.4207  0.5718
  847MOL0     C14251   3.592   0.007   1.644  1.0014 -0.0104  0.3787
  847MOL0     C14252   3.487  -0.039   1.536  0.2918 -0.0955 -0.1476
  847MOL0     C14253   3.362  -0.089   1.610 -0.0379  0.0140  0.5657
  847MOL0     C14254   3.286   0.018   1.672  0.0907  0.4337 -0.5343
  847MOL0    Cl14255   3.163  -0.065   1.775 -0.6684 -0.0532 -0.1899
  847MOL0     C14256   4.398   0.264   1.641 -0.6477 -1.2010 -0.2387
  847MOL0     C14257   4.528   0.281   1.700  0.4631 -0.0930 -0.4049
  847MOL0     O14258   4.668   0.211   2.101 -0.3219  0.5903  1.0077
  847MOL0     C14259   4.932   0.287   2.163  0.5912 -0.1648  0.4546
  847MOL0     C14260   5.070   0.300   2.189  0.8236  0.2578 -0.4187
  847MOL0     N14261   5.435   0.779   1.941 -0.0839 -0.1812 -0.9782
  847MOL0     N14262   5.474   0.878   1.870  0.0006 -0.4401  0.0215
  847MOL0     C14263   6.417   0.797   1.580 -0.5941 -0.1712 -0.0988
  847MOL0     C14264   6.490   0.748   1.467  0.4684 -0.2876  0.6775
  847MOL0     C14265   6.696   0.484   1.171  0.0110 -0.8190 -0.5145
  847MOL0     C14266   6.663   0.367   1.106 -0.0591 -0.3001  0.0684
  847MOL0     C14267   6.746   0.321   1.001 -1.4875 -0.2528  0.7536
  847MOL0     C14268   6.859   0.398   0.948  0.4167 -0.2612  0.1452
  847MOL0     O14269   6.941   0.346   0.851 -0.0912  0.3618 -0.4380
  847MOL0     C14270   7.083   0.371   0.851  0.4445 -0.6061 -0.2849
  847MOL0     C14271   7.165   0.268   0.767  0.2764 -0.4651 -0.4406
  847MOL0     C14272   7.157   0.133   0.830 -0.2166  0.2570  1.0225
  847MOL0     C14273   7.235   0.037   0.735 -0.1514  0.1679 -0.3913
  847MOL0     C14274   7.189  -0.102   0.728  1.1861  0.9114  0.0516
  847MOL0     C14275   7.157  -0.218   0.733 -0.5583 -0.8708 -0.4507
  847MOL0     C14276   6.877   0.524   1.016  0.4867  0.5026 -0.5988
  847MOL0     C14277   6.803   0.566   1.124  0.0654 -0.2266 -0.0216
  847MOL0     H14278   6.767   0.622   1.573 -0.6564 -0.0345 -0.6358
  847MOL0     H14279   6.641   0.694   1.809  0.0566  3.3542  0.9452
  847MOL0     H14280   6.300   0.985   1.830 -4.6633  0.1378  1.0574
  847MOL0     H14281   6.223   0.828   1.771  1.3069 -0.1313 -2.3560
  847MOL0     H14282   6.248   0.760   2.014 -1.9719 -0.7011  1.2092
  847MOL0     H14283   6.308   0.927   2.049  1.4345 -0.3310 -1.4635
  847MOL0     H14284   6.049   0.809   1.964 -0.6571 -1.4405  2.2685
  847MOL0     H14285   6.084   0.917   2.106 -2.6926  3.6156 -0.9262
  847MOL0     H14286   6.142   1.089   1.908  1.9208 -2.1649 -1.5042
  847MOL0     H14287   6.022   0.990   1.823 -1.1838  1.0996  0.0866
  847MOL0     H14288   5.953   1.098   2.098  0.3720  0.3282 -0.1641
  847MOL0     H14289   5.951   1.200   1.969  0.0352  1.1016  4.0020
  847MOL0     H14290   5.805   1.035   1.828 -0.5498  0.3835 -0.6590
  847MOL0     H14291   5.784   0.942   1.979 -1.7331 -0.4128  0.4606
  847MOL0     H14292   5.682   1.176   2.059  0.5518  0.4965  0.0754
  847MOL0     H14293   5.719   1.234   1.896  1.7559 -0.6085 -0.3376
  847MOL0     H14294   5.559   1.102   1.792  0.0494  2.2172 -0.8103
  847MOL0     H14295   5.492   1.182   1.927  2.7500  1.9614 -0.5079
  847MOL0     H14296   5.529   1.005   2.169  0.9514  2.1851 -1.7035
  847MOL0     H14297   5.444   0.745   2.271  1.1244  2.6799 -0.8074
  847MOL0     H14298   5.283   0.719   2.174  0.4039 -1.5452 -1.4519
  847MOL0     H14299   5.542   0.562   2.154 -0.0068  1.9218  1.3988
  847MOL0     H14300   5.397   0.543   2.054 -1.1539  2.0224 -0.4536
  847MOL0     H14301   5.271   0.502   2.285 -0.4014 -0.3912 -2.3818
  847MOL0     H14302   5.442   0.472   2.340 -0.4061  1.0853  0.0817
  847MOL0     H14303   5.325   0.265   2.290  0.4819 -0.2716  1.0132
  847MOL0     H14304   5.474   0.306   2.190  0.7449  2.1569  0.7778
  847MOL0     H14305   5.176   0.284   1.861 -0.9316  0.0469 -1.6207
  847MOL0     H14306   5.021   0.181   1.717 -1.8196 -1.3035 -2.1397
  847MOL0     H14307   4.866   0.134   1.794 -0.8895  1.2463 -0.4591
  847MOL0     H14308   4.894   0.300   1.723 -3.1531 -1.1806  0.8131
  847MOL0     H14309   4.449   0.272   2.020  0.7640 -0.9623  0.4009
  847MOL0     H14310   4.222   0.221   1.920  0.5803 -2.7802 -0.2845
  847MOL0     H14311   4.080   0.130   1.791 -1.5050  1.9169  1.8090
  847MOL0     H14312   4.029   0.286   1.765 -2.1396 -0.5474  0.8006
  847MOL0     H14313   3.937   0.251   1.540 -0.2874 -1.0840 -0.9853
  847MOL0     H14314   3.983   0.083   1.541  2.9951  0.3623 -0.7344
  847MOL0     H14315   3.775   0.188   1.737 -0.1541  1.7636 -1.9150
  847MOL0     H14316   3.856   0.029   1.730  1.0620  0.7578 -0.3632
  847MOL0     H14317   3.682   0.146   1.498  1.6035  1.5817  1.2210
  847MOL0     H14318   3.762  -0.009   1.504 -0.3309  1.5667 -1.3697
  847MOL0     H14319   3.555   0.078   1.718  0.8107 -0.3629  0.6212
  847MOL0     H14320   3.619  -0.086   1.694  1.2720 -0.5482 -0.7385
  847MOL0     H14321   3.450   0.044   1.475 -3.1756 -0.1575  1.6507
  847MOL0     H14322   3.536  -0.117   1.478  3.2296  0.3815  1.4788
  847MOL0     H14323   3.383  -0.166   1.685  0.7589  0.7896  1.1567
  847MOL0     H14324   3.299  -0.136   1.534  0.1061  1.6000 -0.5851
  847MOL0     H14325   3.250   0.092   1.600 -0.0196  0.0138 -0.9127
  847MOL0     H14326   3.348   0.066   1.748 -1.1568  2.6408 -0.8348
  847MOL0     H14327   4.390   0.280   1.534 -1.8777 -1.6472 -0.2248
  847MOL0     H14328   4.620   0.294   1.644  0.3341 -1.7432 -1.0810
  847MOL0     H14329   4.856   0.294   2.240  0.1452  1.7248 -0.0955
  847MOL0     H14330   5.095   0.341   2.286  1.4486  1.8913 -1.2122
  847MOL0     H14331   6.324   0.851   1.576 -1.3877 -1.2871  1.7144
  847MOL0     H14332   6.426   0.759   1.379 -1.2296  1.6739  2.0378
  847MOL0     H14333   6.581   0.309   1.147  0.6224 -0.2909  1.5304
  847MOL0     H14334   6.728   0.222   0.960 -0.8410  0.3597 -1.0880
  847MOL0     H14335   7.086   0.469   0.801 -0.8225 -1.8115 -2.9263
  847MOL0     H14336   7.128   0.385   0.949  0.1381  0.1694 -0.2443
  847MOL0     H14337   7.265   0.312   0.766 -0.5664  1.6434  0.6556
  847MOL0     H14338   7.114   0.270   0.670 -1.5653 -0.5229  0.4862
  847MOL0     H14339   7.050   0.112   0.828  0.0194 -0.9824 -0.3650
  847MOL0     H14340   7.192   0.131   0.934  2.0811  0.3845  0.3188
  847MOL0     H14341   7.339   0.047   0.767  0.7165 -0.8936 -2.6700
  847MOL0     H14342   7.238   0.066   0.629 -1.1138 -4.2366 -1.8006
  847MOL0     H14343   7.132  -0.322   0.739  0.5673 -1.4152 -3.3627
  847MOL0     H14344   6.965   0.584   0.994 -0.0304  2.2592  1.7606
  847MOL0     H14345   6.821   0.668   1.156  0.8154  0.4429 -2.3683
  848MOL0     O14346   4.670   6.741   2.582  0.1891  0.7246  0.1991
  848MOL0     C14347   4.661   6.860   2.599 -0.4169  0.9864  0.4759
  848MOL0     O14348   4.547   6.924   2.615  0.4130  0.0688 -0.3858
  848MOL0     C14349   4.429   6.879   2.556  0.6178 -0.2889 -0.0424
  848MOL0     C14350   4.313   6.926   2.631 -0.4169 -0.2937  0.4758
  848MOL0     C14351   4.180   6.885   2.585  0.7871  0.4115  0.4809
  848MOL0     C14352   4.167   6.804   2.474  0.4962 -0.5929 -0.3356
  848MOL0     O14353   4.037   6.764   2.442 -1.1105  0.0309  0.0148
  848MOL0     C14354   4.021   6.630   2.384  0.2715 -0.0727 -0.8329
  848MOL0     C14355   3.862   6.617   2.379  0.0462 -0.2247  0.0184
  848MOL0     C14356   3.831   6.469   2.341  0.4079  0.1082  0.1886
  848MOL0     C14357   3.715   6.446   2.246  0.6684 -0.7027 -0.6552
  848MOL0     C14358   3.580   6.465   2.315  0.0035  0.1167 -0.6109
  848MOL0     C14359   3.463   6.394   2.243  0.4000  0.7903  0.0784
  848MOL0     C14360   3.338   6.387   2.342  0.0629  0.3044  0.1658
  848MOL0     C14361   3.225   6.307   2.282 -0.3558 -0.4494  0.2979
  848MOL0     N14362   3.247   6.158   2.307 -0.3628 -0.1061  0.3947
  848MOL0     C14363   3.180   6.078   2.397  0.0966 -0.1594  0.5027
  848MOL0     C14364   3.238   5.960   2.383  0.3105 -0.7450  0.1614
  848MOL0     C14365   3.172   5.841   2.450 -0.4951 -0.0368 -0.1463
  848MOL0     C14366   3.059   5.785   2.365 -0.6677 -0.0408  0.1770
  848MOL0     C14367   2.917   5.857   2.363  0.0506  0.4081  0.6084
  848MOL0     C14368   2.821   5.768   2.289 -0.2155 -0.5060 -0.4656
  848MOL0     O14369   2.684   5.810   2.309 -0.0611 -0.0749  0.1206
  848MOL0     C14370   2.591   5.748   2.230  0.4199 -0.4176  0.1840
  848MOL0     C14371   2.460   5.744   2.282  0.6330  0.0010  0.0403
  848MOL0     C14372   2.357   5.668   2.223 -0.7545 -0.3302 -0.4094
  848MOL0     C14373   2.235   5.661   2.310 -0.4935  0.9168  0.5324
  848MOL0     C14374   2.373   5.613   2.089  0.2374 -0.0004 -1.0059
  848MOL0     C14375   2.266   5.550   2.008 -0.4139 -0.8662  0.1352
  848MOL0     O14376   2.312   5.491   1.889 -0.8574 -0.2899 -0.0500
  848MOL0     C14377   2.219   5.445   1.792 -0.3850 -0.6380  0.5965
  848MOL0     C14378   2.266   5.345   1.701 -0.3209  0.5392 -0.8296
  848MOL0     C14379   2.183   5.297   1.600  0.0302 -0.2765  0.6321
  848MOL0     C14380   2.051   5.344   1.581 -0.2326 -0.5426  0.1813
  848MOL0     O14381   1.956   5.285   1.498  0.1299  0.4699  1.0444
  848MOL0     C14382   2.009   5.201   1.398 -0.1254 -0.2497 -0.0536
  848MOL0     C14383   1.909   5.141   1.299  0.1974 -0.0313  0.5807
  848MOL0     C14384   1.786   5.075   1.352  0.3073 -0.1861 -0.0911
  848MOL0     C14385   1.689   5.186   1.413  0.5475  0.8030 -0.8308
  848MOL0     C14386   1.609   5.259   1.302 -0.8980  1.1048 -1.0666
  848MOL0     C14387   1.522   5.157   1.222  0.0502 -0.1968 -0.5730
  848MOL0     C14388   1.389   5.225   1.180  0.5013  0.1638  0.2391
  848MOL0     C14389   1.286   5.130   1.119 -0.1021  0.6004 -0.3268
  848MOL0    Cl14390   1.319   5.113   0.948  0.1253  0.5455 -0.4067
  848MOL0     C14391   2.009   5.450   1.667  0.3276  0.2595 -0.1295
  848MOL0     C14392   2.094   5.500   1.772  0.3415  0.5071 -0.7445
  848MOL0     O14393   2.147   5.553   2.036 -0.5246 -0.2436 -0.0184
  848MOL0     C14394   2.505   5.621   2.041 -0.7484  1.0348  0.4599
  848MOL0     C14395   2.615   5.687   2.110  0.0911 -0.7902  0.7664
  848MOL0     N14396   3.333   5.961   2.287 -0.3785 -0.9877 -0.3297
  848MOL0     N14397   3.344   6.082   2.240  0.6564 -0.0613 -0.2868
  848MOL0     C14398   4.278   6.762   2.400 -0.4868 -0.5927  1.0215
  848MOL0     C14399   4.410   6.804   2.437  0.6643  1.2613 -0.5533
  848MOL0     C14400   4.785   6.933   2.613 -0.1400 -0.1824  0.1470
  848MOL0     C14401   4.913   6.859   2.630  0.7220  0.7447  0.0115
  848MOL0     C14402   5.022   6.927   2.659  0.1881  0.1097  1.3592
  848MOL0     C14403   5.031   7.062   2.668 -0.6408 -0.3943  0.3292
  848MOL0     O14404   5.148   7.142   2.688 -0.5884 -0.9193 -0.0398
  848MOL0     C14405   5.271   7.081   2.669  0.6991  0.5376 -0.2336
  848MOL0     C14406   5.380   7.193   2.659 -0.0040  0.5876  0.0590
  848MOL0     C14407   5.388   7.295   2.777  0.0079  0.3925 -0.7113
  848MOL0     C14408   5.417   7.234   2.912 -0.6130  0.4637  0.2179
  848MOL0     C14409   5.403   7.327   3.025 -0.7572 -0.2981  0.3731
  848MOL0     C14410   5.404   7.408   3.115  0.9591  0.0362 -0.3487
  848MOL0     C14411   4.913   7.131   2.642  0.4567  0.3312 -0.2823
  848MOL0     C14412   4.787   7.071   2.623  0.8129 -0.1819 -0.5993
  848MOL0     H14413   4.336   6.982   2.721  0.2980  1.1951 -0.5821
  848MOL0     H14414   4.093   6.924   2.638  0.3602  0.1774 -0.0393
  848MOL0     H14415   4.067   6.609   2.287 -1.1168 -0.0218 -1.5334
  848MOL0     H14416   4.056   6.555   2.456 -3.7973  0.2196  1.7967
  848MOL0     H14417   3.819   6.639   2.476  0.2057  0.4774 -0.0611
  848MOL0     H14418   3.817   6.688   2.309 -0.9530 -2.9918 -2.3343
  848MOL0     H14419   3.920   6.424   2.297  0.2805 -1.9852  1.9165
  848MOL0     H14420   3.809   6.413   2.433 -1.5268 -0.2412 -0.4362
  848MOL0     H14421   3.708   6.521   2.166  1.8608 -0.8791 -0.9437
  848MOL0     H14422   3.718   6.348   2.197  2.5610 -0.3808 -1.2470
  848MOL0     H14423   3.582   6.427   2.417  2.9795 -0.3910 -0.7776
  848MOL0     H14424   3.572   6.574   2.327  3.5108  0.3304  0.9244
  848MOL0     H14425   3.436   6.438   2.147  0.0259 -0.6885 -0.5249
  848MOL0     H14426   3.497   6.291   2.229  3.3348  0.8914  4.4118
  848MOL0     H14427   3.364   6.369   2.447  0.4816  2.1174  0.4226
  848MOL0     H14428   3.308   6.490   2.364  3.7216  0.6611  5.3200
  848MOL0     H14429   3.208   6.326   2.176  0.8957 -1.8394 -0.1932
  848MOL0     H14430   3.138   6.330   2.345 -0.3273 -1.5444  0.7716
  848MOL0     H14431   3.097   6.102   2.463  0.1083 -1.7377  1.1359
  848MOL0     H14432   3.254   5.768   2.458  0.2286  0.4889 -2.1048
  848MOL0     H14433   3.137   5.862   2.551  2.2480 -1.0568  1.1249
  848MOL0     H14434   3.045   5.686   2.410 -2.6152  0.3076  0.4173
  848MOL0     H14435   3.100   5.764   2.265  2.0747 -1.8267  1.5356
  848MOL0     H14436   2.921   5.958   2.321 -1.3950  0.7521  1.2465
  848MOL0     H14437   2.879   5.860   2.465  1.9857  1.9126  1.3404
  848MOL0     H14438   2.833   5.665   2.325 -0.2344  0.1465  1.5296
  848MOL0     H14439   2.850   5.778   2.184  0.9478 -0.4441 -0.1626
  848MOL0     H14440   2.451   5.796   2.377 -0.6437  3.3020 -1.7312
  848MOL0     H14441   2.251   5.615   2.408  0.3738  0.2634  0.0958
  848MOL0     H14442   2.207   5.766   2.325  0.5368  1.3197 -0.1727
  848MOL0     H14443   2.157   5.604   2.259 -0.1158  0.7656  0.1163
  848MOL0     H14444   2.363   5.307   1.730 -0.5131  1.1311  0.6640
  848MOL0     H14445   2.224   5.230   1.525  0.9054  2.3040 -1.3492
  848MOL0     H14446   2.077   5.269   1.347 -1.4902  2.0096  0.9438
  848MOL0     H14447   2.059   5.118   1.448 -0.0252  0.1776  0.5629
  848MOL0     H14448   1.883   5.228   1.238  1.5311 -1.4920 -2.2664
  848MOL0     H14449   1.969   5.078   1.233  0.5009  1.3929 -0.5389
  848MOL0     H14450   1.824   5.000   1.422 -0.6298 -1.2035 -0.6421
  848MOL0     H14451   1.727   5.018   1.279  1.8575 -1.8944 -0.0963
  848MOL0     H14452   1.613   5.133   1.470 -0.8934  2.6091 -0.9935
  848MOL0     H14453   1.733   5.251   1.489  2.0111  0.0715 -1.0135
  848MOL0     H14454   1.668   5.319   1.232  2.1493 -1.9277 -1.3209
  848MOL0     H14455   1.543   5.331   1.353 -0.2873 -0.7141  2.6171
  848MOL0     H14456   1.575   5.117   1.136  2.0352  1.0561 -0.0080
  848MOL0     H14457   1.499   5.078   1.293  2.3584 -0.9957 -0.6417
  848MOL0     H14458   1.412   5.304   1.108 -2.1481  1.5776  0.8286
  848MOL0     H14459   1.328   5.273   1.257  1.2418  0.3720  0.7022
  848MOL0     H14460   1.183   5.162   1.136 -0.4963 -1.0105  0.5349
  848MOL0     H14461   1.283   5.029   1.161 -3.9372 -0.1525 -1.9765
  848MOL0     H14462   1.906   5.482   1.661 -0.0571 -0.8005  0.5563
  848MOL0     H14463   2.049   5.575   1.836 -0.4590 -0.0010 -0.7028
  848MOL0     H14464   2.525   5.594   1.938 -1.5012  2.0297  0.0256
  848MOL0     H14465   2.708   5.702   2.057 -0.7834  1.0038 -0.3672
  848MOL0     H14466   4.262   6.696   2.315  3.2029 -1.8680  1.1410
  848MOL0     H14467   4.495   6.772   2.377 -0.5710 -0.7692 -1.3040
  848MOL0     H14468   4.911   6.750   2.629 -1.7740  0.6336  2.8184
  848MOL0     H14469   5.115   6.872   2.670 -0.3845 -0.8916  1.3643
  848MOL0     H14470   5.298   7.010   2.748  1.8817  0.7547 -0.4299
  848MOL0     H14471   5.264   7.028   2.574 -2.5418  2.3085 -1.1486
  848MOL0     H14472   5.343   7.252   2.574 -2.5337 -3.2095 -1.7593
  848MOL0     H14473   5.472   7.139   2.637 -0.4812 -0.4243  0.4835
  848MOL0     H14474   5.300   7.357   2.794  0.0523 -0.4152  3.5224
  848MOL0     H14475   5.466   7.370   2.758 -1.3230  2.1436  0.4252
  848MOL0     H14476   5.522   7.205   2.910 -0.0670  2.1436  1.6732
  848MOL0     H14477   5.356   7.147   2.936 -2.5002  1.4871 -0.6014
  848MOL0     H14478   5.405   7.475   3.198  0.0526  1.4833 -1.4350
  848MOL0     H14479   4.917   7.239   2.631 -2.6231  0.5331 -0.1489
  848MOL0     H14480   4.698   7.127   2.597 -2.6228 -4.1709  1.2602
  849MOL0     O14481   7.458   5.211   8.618 -0.2041  0.4317 -0.0352
  849MOL0     C14482   7.546   5.127   8.626  0.6152 -0.2587 -0.3688
  849MOL0     O14483   7.521   4.996   8.634  0.3755  0.3280 -0.3683
  849MOL0     C14484   7.395   4.940   8.653  0.1641  0.4998 -0.3867
  849MOL0     C14485   7.347   4.918   8.785 -0.2758 -0.0356  1.1818
  849MOL0     C14486   7.215   4.875   8.795  0.0131  0.2925 -0.2073
  849MOL0     C14487   7.132   4.851   8.679  0.3181 -0.5687 -0.3892
  849MOL0     O14488   7.001   4.815   8.678 -0.3212 -0.0476 -0.1659
  849MOL0     C14489   6.966   4.707   8.778  0.2530 -0.3533  0.5820
  849MOL0     C14490   6.830   4.659   8.741  0.7819  0.4836 -0.1872
  849MOL0     C14491   6.740   4.648   8.862 -0.1340 -0.3408  0.7884
  849MOL0     C14492   6.611   4.574   8.835 -0.2534 -0.4764  0.4861
  849MOL0     C14493   6.528   4.561   8.962 -0.6259  0.5902  0.4859
  849MOL0     C14494   6.393   4.486   8.935 -1.1114 -0.0068 -0.0973
  849MOL0     C14495   6.306   4.480   9.061  0.0436  0.4577  0.7512
  849MOL0     C14496   6.184   4.393   9.053  0.8570  0.4421  0.4041
  849MOL0     N14497   6.095   4.430   8.938 -0.2948 -0.2815  0.4372
  849MOL0     C14498   6.016   4.542   8.933  0.3367 -0.0473 -0.1080
  849MOL0     C14499   5.977   4.551   8.805 -0.2412 -0.2348 -0.7540
  849MOL0     C14500   5.880   4.654   8.753  0.1108 -0.6094 -0.0771
  849MOL0     C14501   5.734   4.610   8.779 -0.4457  0.3579 -0.5086
  849MOL0     C14502   5.638   4.728   8.760 -0.2226 -0.6453 -0.5419
  849MOL0     C14503   5.492   4.698   8.773 -0.4896 -0.6849  0.5364
  849MOL0     O14504   5.407   4.810   8.731  0.5890  0.6394  0.2628
  849MOL0     C14505   5.271   4.789   8.759  0.2582 -0.3077  0.3262
  849MOL0     C14506   5.214   4.700   8.856  0.7735  0.5054 -0.3109
  849MOL0     C14507   5.066   4.688   8.867  0.3688 -0.1935 -0.2393
  849MOL0     C14508   5.012   4.575   8.944  0.1379 -1.1160  1.3181
  849MOL0     C14509   4.983   4.788   8.801  0.2435  0.2967  0.7436
  849MOL0     C14510   4.839   4.804   8.816 -0.4860 -0.4566 -1.3266
  849MOL0     O14511   4.778   4.874   8.720 -0.2403  0.5513 -0.1465
  849MOL0     C14512   4.644   4.911   8.721  0.1263  0.0133  0.6926
  849MOL0     C14513   4.538   4.853   8.792  0.3574  0.7008  0.0437
  849MOL0     C14514   4.407   4.907   8.785  0.1942 -0.2501  0.9314
  849MOL0     C14515   4.388   5.023   8.710 -0.0300  0.1047  0.2889
  849MOL0     O14516   4.275   5.092   8.697  0.4880  0.0036  0.9601
  849MOL0     C14517   4.150   5.032   8.746  0.5887 -0.0784 -0.1851
  849MOL0     C14518   4.041   5.135   8.729  0.9052 -0.0006 -0.7229
  849MOL0     C14519   3.902   5.068   8.753  1.2430 -0.4287 -0.0059
  849MOL0     C14520   3.790   5.174   8.772  0.3203  0.1799  0.2937
  849MOL0     C14521   3.641   5.139   8.795 -0.8484  0.3621 -0.4225
  849MOL0     C14522   3.581   5.048   8.679 -0.0459 -0.5811 -0.1859
  849MOL0     C14523   3.440   5.021   8.719  0.4680 -0.0696 -0.3849
  849MOL0     C14524   3.360   4.992   8.592 -0.8190 -0.3542  0.7333
  849MOL0    Cl14525   3.353   5.121   8.477  0.2898 -0.1171  0.1042
  849MOL0     C14526   4.485   5.068   8.625 -0.5485 -0.8217  0.2727
  849MOL0     C14527   4.612   5.007   8.627 -0.1481 -0.2584  0.8601
  849MOL0     O14528   4.788   4.775   8.925 -0.6793 -0.4060 -0.1191
  849MOL0     C14529   5.052   4.868   8.707 -0.5952 -0.3332 -0.3185
  849MOL0     C14530   5.184   4.863   8.685 -0.5379  0.8714 -0.3175
  849MOL0     N14531   6.043   4.450   8.733 -0.1523  0.3765  0.2562
  849MOL0     N14532   6.111   4.377   8.822 -0.6735  0.4630  0.7801
  849MOL0     C14533   7.186   4.884   8.558  0.2739 -0.5009  0.2047
  849MOL0     C14534   7.317   4.920   8.539  0.1745  0.5147  0.5135
  849MOL0     C14535   7.682   5.166   8.614 -0.3291  0.3431 -1.2093
  849MOL0     C14536   7.724   5.284   8.545  0.2230  1.0352  0.3807
  849MOL0     C14537   7.854   5.308   8.531 -0.6213  0.1561  0.2013
  849MOL0     C14538   7.957   5.231   8.597  0.3003 -0.5250  0.0532
  849MOL0     O14539   8.088   5.273   8.597  0.0010  0.0640 -0.3569
  849MOL0     C14540   8.169   5.190   8.511  0.0790 -0.3518  0.4942
  849MOL0     C14541   8.143   5.213   8.363  0.0219  0.5638 -0.3061
  849MOL0     C14542   8.205   5.347   8.321  0.3142  0.0396  0.7870
  849MOL0     C14543   8.191   5.355   8.160 -0.4139  0.0716 -0.0764
  849MOL0     C14544   8.297   5.286   8.100 -0.2071  0.7714 -0.1542
  849MOL0     C14545   8.385   5.216   8.067 -0.8495 -0.5371  0.8852
  849MOL0     C14546   7.914   5.132   8.676  0.3100 -0.4009 -0.4714
  849MOL0     C14547   7.780   5.094   8.685  0.0274  0.7198  0.1062
  849MOL0     H14548   7.417   4.947   8.863  1.9007  0.3986 -0.8063
  849MOL0     H14549   7.171   4.854   8.892 -1.9592 -0.6619 -1.2396
  849MOL0     H14550   7.036   4.623   8.778 -2.7652 -3.0637  1.8636
  849MOL0     H14551   6.970   4.762   8.872  0.5367  0.8791 -0.1165
  849MOL0     H14552   6.791   4.736   8.673 -1.2282 -0.9131 -0.7051
  849MOL0     H14553   6.835   4.567   8.682  2.2000 -0.8189  1.8399
  849MOL0     H14554   6.789   4.589   8.940  1.8720  1.9293  1.3455
  849MOL0     H14555   6.716   4.746   8.904  1.2359  1.8493 -3.0765
  849MOL0     H14556   6.561   4.635   8.759 -0.5405 -0.5693  0.5996
  849MOL0     H14557   6.627   4.473   8.795  1.9473  0.3118 -0.7912
  849MOL0     H14558   6.583   4.517   9.045 -2.2203 -2.1308  0.2310
  849MOL0     H14559   6.495   4.658   8.998  0.0834  0.4781  1.4749
  849MOL0     H14560   6.353   4.530   8.843 -2.3202  1.0951  0.9204
  849MOL0     H14561   6.428   4.385   8.911 -1.9373  0.0434 -1.5974
  849MOL0     H14562   6.363   4.438   9.144  0.3067 -0.2553  0.2186
  849MOL0     H14563   6.269   4.575   9.101 -0.5469  0.1472  0.9574
  849MOL0     H14564   6.129   4.410   9.146  1.3757  0.0647  0.7866
  849MOL0     H14565   6.216   4.289   9.044  0.6121  0.4042 -0.0807
  849MOL0     H14566   5.985   4.602   9.018  1.4281  0.5883 -0.1461
  849MOL0     H14567   5.905   4.755   8.785  1.1014 -0.3690 -1.5337
  849MOL0     H14568   5.896   4.650   8.645 -1.2060  0.8432 -0.3645
  849MOL0     H14569   5.741   4.572   8.882 -0.6285 -0.0797 -0.6562
  849MOL0     H14570   5.700   4.523   8.722  0.9079  0.9082 -2.2223
  849MOL0     H14571   5.658   4.754   8.656 -2.7836  1.0896 -0.6851
  849MOL0     H14572   5.672   4.820   8.809 -0.8347  0.1702 -1.6149
  849MOL0     H14573   5.470   4.666   8.876 -0.0432  1.2205  1.2667
  849MOL0     H14574   5.486   4.614   8.703  1.6186 -0.6375  0.2502
  849MOL0     H14575   5.262   4.622   8.915 -0.0803  0.3572  0.1969
  849MOL0     H14576   5.077   4.487   8.940 -0.5046 -1.5605 -1.3772
  849MOL0     H14577   4.982   4.608   9.044  1.4771  1.2931  1.0081
  849MOL0     H14578   4.914   4.553   8.902 -0.1688  2.2418 -0.1167
  849MOL0     H14579   4.565   4.769   8.855 -0.7720  1.7430  1.9849
  849MOL0     H14580   4.323   4.859   8.834 -1.2140 -1.2602 -2.1724
  849MOL0     H14581   4.123   4.939   8.695 -3.4388  0.9133 -0.1880
  849MOL0     H14582   4.165   5.011   8.852 -1.2671  0.8149  0.2901
  849MOL0     H14583   4.058   5.219   8.798  0.2285  0.9525 -1.6755
  849MOL0     H14584   4.050   5.167   8.624 -1.8512  0.2889 -0.9403
  849MOL0     H14585   3.900   5.014   8.847  2.2188  0.1367  0.3620
  849MOL0     H14586   3.872   5.004   8.669  0.1891  1.1869 -0.9167
  849MOL0     H14587   3.808   5.236   8.860 -1.1397 -0.7326  1.2609
  849MOL0     H14588   3.790   5.252   8.695 -0.1572  0.7949  0.9015
  849MOL0     H14589   3.581   5.229   8.809  1.2184  1.5531  1.5548
  849MOL0     H14590   3.635   5.074   8.883  0.6805  1.9239  0.9132
  849MOL0     H14591   3.585   5.112   8.591 -0.6057  0.4905  0.5376
  849MOL0     H14592   3.637   4.956   8.659 -0.6733 -1.3015  1.2122
  849MOL0     H14593   3.395   5.109   8.765  1.3246 -0.0707  0.5009
  849MOL0     H14594   3.444   4.941   8.794  1.1643  0.2668 -0.0549
  849MOL0     H14595   3.256   4.967   8.615 -1.7470  2.2439 -0.3276
  849MOL0     H14596   3.405   4.908   8.539  0.8859  0.5308  0.7174
  849MOL0     H14597   4.462   5.155   8.564  0.6478 -0.8261 -0.2110
  849MOL0     H14598   4.685   5.044   8.556 -0.9876  2.3966  1.2928
  849MOL0     H14599   5.006   4.942   8.643  0.6829  0.4568 -0.3582
  849MOL0     H14600   5.228   4.940   8.622  0.0721  2.9079  2.3972
  849MOL0     H14601   7.119   4.879   8.472  1.4802  0.3248 -0.8017
  849MOL0     H14602   7.356   4.931   8.438  0.9519 -0.1169  0.7311
  849MOL0     H14603   7.648   5.353   8.512 -0.2964  1.0020  1.4433
  849MOL0     H14604   7.882   5.402   8.484  3.1010 -1.1870 -0.5698
  849MOL0     H14605   8.274   5.219   8.523 -0.7985  3.5216  0.0285
  849MOL0     H14606   8.145   5.089   8.548 -1.2446  0.0868  0.8858
  849MOL0     H14607   8.036   5.232   8.345 -0.3641  2.9215  3.3796
  849MOL0     H14608   8.178   5.131   8.300 -3.4921 -0.7279 -0.8198
  849MOL0     H14609   8.307   5.362   8.357  0.0241  2.6067  0.7034
  849MOL0     H14610   8.148   5.422   8.377  0.8000 -0.4281  1.9280
  849MOL0     H14611   8.183   5.458   8.124 -0.9917 -0.1923 -0.7217
  849MOL0     H14612   8.098   5.305   8.133  0.2940 -2.3321  1.6360
  849MOL0     H14613   8.463   5.152   8.033 -0.2631  0.9093 -0.6575
  849MOL0     H14614   7.983   5.071   8.733  1.1590 -2.6796 -3.6564
  849MOL0     H14615   7.755   5.001   8.736 -0.0234  1.4922  1.5391
  850MOL0     O14616   7.769   3.786   6.216  0.0332  0.5989 -0.1683
  850MOL0     C14617   7.845   3.761   6.124 -0.5562 -0.1001  1.3409
  850MOL0     O14618   7.845   3.639   6.057 -0.3374  0.3210 -0.7773
  850MOL0     C14619   7.733   3.565   6.062  0.5213  0.3097 -1.2544
  850MOL0     C14620   7.608   3.613   6.007  1.0492  0.4197  0.2571
  850MOL0     C14621   7.489   3.536   6.012 -1.2465 -0.0719  0.5739
  850MOL0     C14622   7.489   3.410   6.079  0.4436  0.0483  0.2531
  850MOL0     O14623   7.368   3.347   6.079  0.2083  0.1199  0.1965
  850MOL0     C14624   7.362   3.209   6.134 -0.7837  0.0880  0.5748
  850MOL0     C14625   7.218   3.155   6.105 -0.5559 -0.3111  0.0778
  850MOL0     C14626   7.198   3.023   6.168 -0.2312  0.0166  0.5157
  850MOL0     C14627   7.172   3.014   6.320  0.7167  1.2684  0.0113
  850MOL0     C14628   7.031   3.056   6.353  0.3197 -0.3195 -0.1793
  850MOL0     C14629   6.929   2.940   6.345  0.1191 -0.2368 -0.4731
  850MOL0     C14630   6.799   2.993   6.392  0.1245  0.6913  0.8657
  850MOL0     C14631   6.707   2.882   6.423 -0.2250  0.5842  0.2785
  850MOL0     N14632   6.568   2.907   6.393  0.4386  0.4294 -0.3666
  850MOL0     C14633   6.518   2.882   6.271  0.5363 -0.9258 -0.3627
  850MOL0     C14634   6.389   2.931   6.279 -0.0760 -0.6179 -0.7380
  850MOL0     C14635   6.277   2.904   6.184 -0.1903 -0.1354  0.0223
  850MOL0     C14636   6.183   2.794   6.222  1.0940 -0.8580 -0.9395
  850MOL0     C14637   6.063   2.782   6.131  0.4832 -0.0691  0.2726
  850MOL0     C14638   5.958   2.683   6.191 -0.2989  0.0694  0.0255
  850MOL0     O14639   5.908   2.741   6.309 -0.2586 -0.2507  0.5173
  850MOL0     C14640   5.802   2.824   6.291 -0.7228 -0.2480 -0.3145
  850MOL0     C14641   5.817   2.963   6.316  0.5135  0.0020  0.4233
  850MOL0     C14642   5.692   3.039   6.334  0.2440  0.3356 -0.2505
  850MOL0     C14643   5.710   3.183   6.363  0.2241  0.2704  0.9036
  850MOL0     C14644   5.560   2.981   6.316 -0.5690  0.4247  0.1792
  850MOL0     C14645   5.438   3.046   6.304  0.0668 -0.2255  0.7227
  850MOL0     O14646   5.433   3.161   6.233 -0.1584  0.2264 -0.5898
  850MOL0     C14647   5.327   3.243   6.248 -0.4274  0.0298 -0.0853
  850MOL0     C14648   5.327   3.357   6.326 -0.3569 -0.6230 -0.4700
  850MOL0     C14649   5.203   3.433   6.344 -0.1004 -0.1064 -0.3722
  850MOL0     C14650   5.085   3.387   6.283 -0.1255 -0.0813  0.2348
  850MOL0     O14651   4.972   3.457   6.314  0.8358 -0.2487 -0.3271
  850MOL0     C14652   4.860   3.387   6.378  0.1119 -0.4445 -0.2146
  850MOL0     C14653   4.752   3.358   6.269  0.0074 -0.5324 -0.1500
  850MOL0     C14654   4.651   3.259   6.305  0.4627 -0.4989  0.0811
  850MOL0     C14655   4.554   3.291   6.417 -0.4902  0.0112  0.1359
  850MOL0     C14656   4.492   3.163   6.466 -0.5054  0.0300  0.1251
  850MOL0     C14657   4.403   3.182   6.584  0.1065 -0.2255  0.9538
  850MOL0     C14658   4.340   3.048   6.622 -0.3332 -0.0212  0.2351
  850MOL0     C14659   4.239   3.047   6.732 -0.2218  0.0619  0.2749
  850MOL0    Cl14660   4.346   3.047   6.879 -0.7626  0.0688 -0.1537
  850MOL0     C14661   5.093   3.271   6.194  0.2283  0.0397 -0.4158
  850MOL0     C14662   5.212   3.198   6.179  1.5213  0.6198  0.5645
  850MOL0     O14663   5.342   2.999   6.374  0.6182  0.3879  0.6656
  850MOL0     C14664   5.555   2.837   6.291 -0.5445 -1.0799 -0.8835
  850MOL0     C14665   5.673   2.761   6.284  0.8572  0.5362 -0.2318
  850MOL0     N14666   6.373   2.984   6.409 -0.9361 -0.5650 -0.1721
  850MOL0     N14667   6.477   2.965   6.479 -0.5934 -0.4868 -0.6840
  850MOL0     C14668   7.610   3.365   6.133 -0.1416 -0.4808 -0.0666
  850MOL0     C14669   7.725   3.439   6.116 -0.1226 -0.1077  0.6547
  850MOL0     C14670   7.949   3.861   6.074  0.2605  0.4192  0.3616
  850MOL0     C14671   7.954   3.994   6.127  0.0781  0.4684  0.4925
  850MOL0     C14672   8.060   4.080   6.090  0.2762 -0.0687  0.0693
  850MOL0     C14673   8.150   4.041   5.992 -0.0385 -0.6842 -0.2025
  850MOL0     O14674   8.249   4.122   5.941  0.1181 -0.5560 -0.6379
  850MOL0     C14675   8.331   4.187   6.040  0.9408 -0.0019  0.4617
  850MOL0     C14676   8.439   4.264   5.955 -0.5049  0.8932  0.3899
  850MOL0     C14677   8.542   4.175   5.886  0.2852 -0.4592  0.7138
  850MOL0     C14678   8.599   4.250   5.771 -0.6115 -0.5830 -0.6681
  850MOL0     C14679   8.691   4.362   5.798  0.1125  0.4429  0.0787
  850MOL0     C14680   8.766   4.454   5.818  0.6638 -0.4606  0.4721
  850MOL0     C14681   8.144   3.907   5.943  0.3465 -0.9478 -0.7682
  850MOL0     C14682   8.044   3.821   5.981 -0.4348 -0.1427 -0.3034
  850MOL0     H14683   7.588   3.715   5.973 -2.4230  0.4981  2.0175
  850MOL0     H14684   7.399   3.570   5.962 -2.1612  0.3821  2.4088
  850MOL0     H14685   7.432   3.147   6.077 -1.0134  0.5495 -0.2269
  850MOL0     H14686   7.384   3.205   6.241  2.3911  0.8617  0.0490
  850MOL0     H14687   7.139   3.224   6.137 -1.9380 -1.2693 -1.1421
  850MOL0     H14688   7.208   3.148   5.996 -1.7632 -0.0094  0.1583
  850MOL0     H14689   7.126   2.975   6.101 -1.5927  1.9879  0.5051
  850MOL0     H14690   7.284   2.956   6.154 -1.1963 -0.5788 -3.9243
  850MOL0     H14691   7.182   2.909   6.351  0.3849  0.9433 -0.9482
  850MOL0     H14692   7.250   3.074   6.368  0.4929  2.1333 -0.6799
  850MOL0     H14693   7.028   3.100   6.453  0.6207 -0.6483 -0.0203
  850MOL0     H14694   6.993   3.124   6.276  1.3281  3.0455  2.1189
  850MOL0     H14695   6.919   2.901   6.244  3.1067  2.7700 -2.1271
  850MOL0     H14696   6.965   2.858   6.408  0.9991 -0.2549 -0.9816
  850MOL0     H14697   6.797   3.065   6.475 -2.9934  1.6316  0.1139
  850MOL0     H14698   6.761   3.049   6.306  2.2527  2.2401  0.8343
  850MOL0     H14699   6.722   2.844   6.525  1.5588  0.3623 -0.0354
  850MOL0     H14700   6.740   2.793   6.370  5.7733  0.4952  3.2893
  850MOL0     H14701   6.558   2.838   6.180 -0.6872 -0.7011 -1.0419
  850MOL0     H14702   6.214   2.993   6.176 -3.5756 -2.4339 -1.2466
  850MOL0     H14703   6.321   2.882   6.086 -0.4971  0.6730 -0.3041
  850MOL0     H14704   6.137   2.833   6.314 -1.0699  1.6888 -2.9232
  850MOL0     H14705   6.220   2.696   6.251 -3.1058 -2.8858 -1.7658
  850MOL0     H14706   6.089   2.739   6.034  0.1529  0.3927 -0.0283
  850MOL0     H14707   6.017   2.880   6.112 -0.0656  0.2188  2.6654
  850MOL0     H14708   6.002   2.585   6.213  1.4854  0.9954  0.8383
  850MOL0     H14709   5.871   2.671   6.127 -1.1107 -1.7089  1.3704
  850MOL0     H14710   5.919   2.998   6.325  0.5299 -0.6850  4.3516
  850MOL0     H14711   5.668   3.197   6.463  0.3949 -0.2353  1.0512
  850MOL0     H14712   5.817   3.206   6.356  0.4007 -0.9281 -1.9529
  850MOL0     H14713   5.669   3.253   6.290 -0.6985 -0.5424  0.6262
  850MOL0     H14714   5.420   3.398   6.363 -0.4644  0.2450 -1.1266
  850MOL0     H14715   5.195   3.525   6.402  0.2682  0.7493 -1.6479
  850MOL0     H14716   4.898   3.300   6.432  1.7841  0.9501  0.9832
  850MOL0     H14717   4.811   3.443   6.459  0.1417 -3.6994  2.2782
  850MOL0     H14718   4.709   3.450   6.228  2.9279  0.3267 -1.5560
  850MOL0     H14719   4.801   3.315   6.181  1.2059  0.9837 -0.2626
  850MOL0     H14720   4.712   3.173   6.336  0.4482  0.0170  1.6012
  850MOL0     H14721   4.595   3.229   6.215  0.9581 -0.0826 -0.3730
  850MOL0     H14722   4.598   3.335   6.507  1.9090  0.6449 -1.2672
  850MOL0     H14723   4.482   3.365   6.381 -0.2891  0.8153  1.3312
  850MOL0     H14724   4.572   3.091   6.488 -0.7630  0.2236  1.8566
  850MOL0     H14725   4.430   3.117   6.388  2.3570 -2.2338 -1.0043
  850MOL0     H14726   4.458   3.236   6.661  2.8845 -2.1509  0.4409
  850MOL0     H14727   4.331   3.248   6.533  1.7383  3.1264  2.7027
  850MOL0     H14728   4.419   2.979   6.652 -0.2623  0.2573  0.7146
  850MOL0     H14729   4.285   3.010   6.535 -0.3944 -0.7001  0.5621
  850MOL0     H14730   4.175   2.958   6.729 -0.7530  0.4398  0.3103
  850MOL0     H14731   4.172   3.133   6.730  0.2910  0.4615 -1.2293
  850MOL0     H14732   5.002   3.235   6.147  0.2643  0.4830 -0.8343
  850MOL0     H14733   5.213   3.108   6.119 -0.0779 -1.3239  3.2061
  850MOL0     H14734   5.459   2.787   6.283 -0.7969 -0.7321 -0.0950
  850MOL0     H14735   5.668   2.656   6.259  2.3890 -0.0215  1.5896
  850MOL0     H14736   7.605   3.270   6.186 -0.1193  0.0678  0.9318
  850MOL0     H14737   7.822   3.415   6.159  0.5621 -1.4168 -1.4620
  850MOL0     H14738   7.876   4.026   6.195  1.9301  1.6557  2.1675
  850MOL0     H14739   8.058   4.178   6.136 -0.0013  0.7634 -1.6187
  850MOL0     H14740   8.261   4.247   6.098 -0.2039 -2.1565  1.4519
  850MOL0     H14741   8.374   4.113   6.108 -0.8615  0.2073  1.8828
  850MOL0     H14742   8.489   4.337   6.020  0.9820 -2.2328  3.0063
  850MOL0     H14743   8.397   4.327   5.876  0.0585  0.0699 -0.5846
  850MOL0     H14744   8.491   4.088   5.843  0.6176  0.8294 -2.6201
  850MOL0     H14745   8.630   4.142   5.941  2.3003 -1.8616 -3.0113
  850MOL0     H14746   8.521   4.271   5.697  2.2330  0.7485 -3.5265
  850MOL0     H14747   8.658   4.182   5.709  0.2913  0.8333 -1.4383
  850MOL0     H14748   8.837   4.530   5.845 -2.8870  3.6282 -0.6270
  850MOL0     H14749   8.224   3.896   5.870  1.4400  4.0427 -0.6629
  850MOL0     H14750   8.042   3.719   5.944 -0.4356  0.1124 -1.0143
  851MOL0     O14751   6.158   3.663  10.736  0.3940 -0.4331  0.4037
  851MOL0     C14752   6.142   3.627  10.621 -0.5259 -0.3572  0.9943
  851MOL0     O14753   6.032   3.634  10.545  0.2093  0.1843 -0.5396
  851MOL0     C14754   5.908   3.642  10.606 -0.6876  0.5858 -0.1145
  851MOL0     C14755   5.822   3.531  10.595 -0.6168 -1.3242  0.2813
  851MOL0     C14756   5.696   3.529  10.655 -0.0165  0.9054  0.0381
  851MOL0     C14757   5.661   3.640  10.731 -0.1809 -0.4554  0.1327
  851MOL0     O14758   5.549   3.664  10.807 -0.1473 -0.1184  0.2974
  851MOL0     C14759   5.449   3.562  10.812 -0.3761  0.3519  0.4583
  851MOL0     C14760   5.327   3.626  10.884 -1.1091 -0.5235 -0.7776
  851MOL0     C14761   5.206   3.537  10.852  0.6121 -0.5316  0.5174
  851MOL0     C14762   5.073   3.591  10.921 -0.7696 -0.2624 -0.7070
  851MOL0     C14763   4.954   3.504  10.890 -0.2498  0.3349 -0.7769
  851MOL0     C14764   4.909   3.500  10.750  0.6474 -0.3201  0.2561
  851MOL0     C14765   4.770   3.464  10.719 -0.0523 -0.3090 -0.1324
  851MOL0     C14766   4.731   3.498  10.573  0.4597  0.3190  0.3086
  851MOL0     N14767   4.613   3.419  10.543  1.1222  0.3712  0.3711
  851MOL0     C14768   4.488   3.472  10.580 -0.5324  0.5154  0.8507
  851MOL0     C14769   4.403   3.365  10.573  1.2317 -0.8792 -0.7334
  851MOL0     C14770   4.265   3.365  10.630  0.4384 -0.9140 -0.0577
  851MOL0     C14771   4.272   3.307  10.766 -0.4408 -0.0971 -0.3887
  851MOL0     C14772   4.367   3.387  10.873 -0.9561  0.5111  0.7556
  851MOL0     C14773   4.318   3.529  10.883  0.1018 -0.2846  0.8790
  851MOL0     O14774   4.359   3.587  11.011 -0.2477  0.5974  0.3221
  851MOL0     C14775   4.260   3.620  11.103 -0.3925 -0.4072  1.0412
  851MOL0     C14776   4.123   3.652  11.079  0.0714  0.9446  0.2875
  851MOL0     C14777   4.029   3.680  11.173  0.0886  0.4128  0.0164
  851MOL0     C14778   3.893   3.724  11.107  0.1575  0.7781 -0.4258
  851MOL0     C14779   4.064   3.665  11.304  1.5838 -0.3502 -0.7764
  851MOL0     C14780   3.958   3.685  11.416 -0.0174  0.2767 -0.2437
  851MOL0     O14781   3.827   3.706  11.370 -0.5436  0.6675  0.2815
  851MOL0     C14782   3.749   3.786  11.457  0.7143  0.1630 -0.5739
  851MOL0     C14783   3.606   3.768  11.440 -0.3143 -0.7834  0.9718
  851MOL0     C14784   3.531   3.858  11.513  0.2736  0.2422 -0.2698
  851MOL0     C14785   3.578   3.968  11.590  0.4047  0.2391 -0.7652
  851MOL0     O14786   3.489   4.072  11.630 -0.3550  0.9705  0.0211
  851MOL0     C14787   3.554   4.182  11.699  0.2618  0.0114 -0.2754
  851MOL0     C14788   3.439   4.259  11.769 -1.2046 -0.2905  0.4593
  851MOL0     C14789   3.508   4.379  11.830  1.0784 -0.7405  0.7737
  851MOL0     C14790   3.397   4.466  11.902 -0.7689  0.3316  0.5320
  851MOL0     C14791   3.451   4.554  12.018  0.0033  0.2173  0.1193
  851MOL0     C14792   3.343   4.650  12.065  0.5834 -0.0541 -0.4053
  851MOL0     C14793   3.393   4.750  12.166  0.7866 -0.4248  0.1478
  851MOL0     C14794   3.286   4.851  12.207  0.1895  0.5479  0.6851
  851MOL0    Cl14795   3.158   4.794  12.321  0.1720 -0.0710 -0.4402
  851MOL0     C14796   3.711   3.982  11.603 -0.5346  0.8055 -0.2631
  851MOL0     C14797   3.800   3.891  11.542  0.0936 -0.5117  0.4165
  851MOL0     O14798   3.991   3.666  11.534 -0.8438  0.6929  0.2392
  851MOL0     C14799   4.194   3.618  11.337 -0.5031 -0.4464 -0.2409
  851MOL0     C14800   4.293   3.602  11.239  0.1587 -0.4532 -0.5309
  851MOL0     N14801   4.480   3.254  10.539  0.1081 -0.1707  0.2363
  851MOL0     N14802   4.604   3.287  10.519  0.4726  0.5501 -0.0486
  851MOL0     C14803   5.743   3.756  10.738 -0.7318 -0.6323 -0.7583
  851MOL0     C14804   5.864   3.756  10.670  0.4902  0.2648 -0.5915
  851MOL0     C14805   6.269   3.579  10.554 -0.8183 -0.7377  0.1967
  851MOL0     C14806   6.260   3.478  10.462  0.1973 -0.3424  0.2693
  851MOL0     C14807   6.368   3.434  10.393  0.1498 -0.1941 -0.4849
  851MOL0     C14808   6.494   3.497  10.407 -0.2269  0.1417  0.3328
  851MOL0     O14809   6.597   3.451  10.325 -0.0298 -0.3369  0.3732
  851MOL0     C14810   6.628   3.532  10.209 -0.0860  0.0704  0.0731
  851MOL0     C14811   6.763   3.498  10.137 -0.0904 -0.2178  0.1378
  851MOL0     C14812   6.738   3.371  10.048  0.4744  0.3939  0.1917
  851MOL0     C14813   6.873   3.326   9.995 -0.3929 -0.4235  0.7194
  851MOL0     C14814   6.921   3.403   9.884  0.0601 -0.0851  0.6441
  851MOL0     C14815   6.963   3.473   9.793 -0.1082  0.3735 -0.5888
  851MOL0     C14816   6.516   3.588  10.515 -0.6909  0.2556 -0.6100
  851MOL0     C14817   6.400   3.629  10.578 -0.4902 -1.2035 -0.0028
  851MOL0     H14818   5.864   3.437  10.560 -2.5128 -1.5869 -1.5426
  851MOL0     H14819   5.648   3.433  10.668 -0.1949  1.0701  0.6145
  851MOL0     H14820   5.414   3.535  10.712 -1.1810  1.4730  0.4124
  851MOL0     H14821   5.478   3.474  10.869  2.7222 -0.9545 -2.7917
  851MOL0     H14822   5.340   3.627  10.993  0.6722 -1.0864 -0.9458
  851MOL0     H14823   5.331   3.730  10.852  0.7406 -0.6098 -0.9282
  851MOL0     H14824   5.195   3.532  10.744 -1.4468  1.4990  0.5605
  851MOL0     H14825   5.203   3.437  10.896 -1.8681  0.3763  2.6463
  851MOL0     H14826   5.083   3.592  11.030 -0.7738  0.5570 -0.7053
  851MOL0     H14827   5.059   3.693  10.883  0.3472  0.7789  1.4924
  851MOL0     H14828   4.983   3.405  10.925  0.5912  0.5780 -0.7795
  851MOL0     H14829   4.871   3.544  10.950  1.1489  2.2833 -0.0337
  851MOL0     H14830   4.912   3.605  10.721 -1.2295  0.4300  2.4594
  851MOL0     H14831   4.972   3.441  10.683 -1.2490  2.3482 -4.3912
  851MOL0     H14832   4.764   3.356  10.737  2.1647 -0.4271  0.2192
  851MOL0     H14833   4.711   3.506  10.801  3.1079 -1.0673  2.7289
  851MOL0     H14834   4.808   3.464  10.503 -0.9132 -2.2571 -0.0700
  851MOL0     H14835   4.714   3.605  10.561 -0.4239  0.0103 -1.6290
  851MOL0     H14836   4.456   3.573  10.601 -3.4449 -0.1754  0.1423
  851MOL0     H14837   4.211   3.461  10.630  1.3505 -0.3681  1.0092
  851MOL0     H14838   4.198   3.300  10.573  0.9742 -1.3838 -0.1596
  851MOL0     H14839   4.311   3.207  10.747 -1.8273 -1.2137  2.1641
  851MOL0     H14840   4.168   3.298  10.797 -1.6661  1.6804 -3.5519
  851MOL0     H14841   4.472   3.371  10.847 -1.4643 -0.1068 -1.0328
  851MOL0     H14842   4.363   3.338  10.971  1.6663 -2.8600 -0.6272
  851MOL0     H14843   4.210   3.519  10.883  0.0148  0.1370  3.1052
  851MOL0     H14844   4.340   3.598  10.801 -0.9184 -0.0971  0.7588
  851MOL0     H14845   4.089   3.656  10.976 -2.5322 -2.5990  0.8372
  851MOL0     H14846   3.857   3.821  11.142  0.0215 -0.6168  3.8745
  851MOL0     H14847   3.893   3.737  10.998 -1.4038 -0.3116 -0.5954
  851MOL0     H14848   3.812   3.656  11.135  1.5543 -0.7464  0.0939
  851MOL0     H14849   3.547   3.712  11.369 -3.7140  1.8820  1.4191
  851MOL0     H14850   3.424   3.863  11.498  0.1236  0.0919  0.6482
  851MOL0     H14851   3.624   4.153  11.778 -0.9215 -0.6699  0.5541
  851MOL0     H14852   3.609   4.240  11.624 -0.3898  0.2545 -0.5822
  851MOL0     H14853   3.361   4.293  11.701  0.0107  1.5925 -0.0961
  851MOL0     H14854   3.388   4.214  11.855 -3.3375 -0.2019 -0.7040
  851MOL0     H14855   3.556   4.443  11.756 -0.7034 -0.8569 -0.5574
  851MOL0     H14856   3.594   4.360  11.895  2.0453  0.5444 -0.0848
  851MOL0     H14857   3.360   4.538  11.829  0.9391 -1.1228 -1.9277
  851MOL0     H14858   3.322   4.396  11.939  0.0730 -0.3999  0.9143
  851MOL0     H14859   3.542   4.601  11.979  1.2032 -0.3755  2.0692
  851MOL0     H14860   3.484   4.490  12.100 -0.2114  1.9717  1.6347
  851MOL0     H14861   3.313   4.700  11.972 -4.9519 -3.8721 -1.2101
  851MOL0     H14862   3.261   4.588  12.104 -1.7491 -1.1517 -6.0565
  851MOL0     H14863   3.468   4.809  12.113  0.6066 -0.4084 -0.0931
  851MOL0     H14864   3.435   4.704  12.256 -0.7453 -1.7641  0.2278
  851MOL0     H14865   3.227   4.893  12.125 -1.8024  0.5456  2.0565
  851MOL0     H14866   3.338   4.934  12.256 -0.6873  1.4418  0.1334
  851MOL0     H14867   3.756   4.069  11.650 -0.2002 -0.7924  2.5558
  851MOL0     H14868   3.907   3.906  11.544 -0.0448  0.5582  0.0791
  851MOL0     H14869   4.216   3.587  11.439  3.1634 -0.2263 -0.8243
  851MOL0     H14870   4.383   3.555  11.276  0.3148 -0.2527 -0.6606
  851MOL0     H14871   5.708   3.842  10.793 -0.7429 -1.2069  0.1630
  851MOL0     H14872   5.930   3.841  10.674 -0.2357  0.9217 -1.9595
  851MOL0     H14873   6.166   3.425  10.446  0.3759 -0.0652 -2.0498
  851MOL0     H14874   6.350   3.354  10.322 -1.2098  0.5378 -0.9978
  851MOL0     H14875   6.546   3.496  10.146 -0.2397 -0.2524  0.4537
  851MOL0     H14876   6.624   3.640  10.227  2.3103  0.0221  1.3706
  851MOL0     H14877   6.838   3.485  10.216 -0.4773  1.3593  0.7958
  851MOL0     H14878   6.782   3.590  10.083 -0.1985  0.2889  0.9437
  851MOL0     H14879   6.680   3.390   9.958  0.9351  2.3474  0.2767
  851MOL0     H14880   6.696   3.286  10.104 -0.5858 -0.4682 -1.8158
  851MOL0     H14881   6.875   3.222   9.961  2.3356  0.1292 -1.1032
  851MOL0     H14882   6.949   3.337  10.073  1.6082 -0.8460 -1.0780
  851MOL0     H14883   6.995   3.529   9.707 -1.1251  1.7745 -0.0986
  851MOL0     H14884   6.618   3.613  10.542 -0.9257  1.7183 -1.0262
  851MOL0     H14885   6.409   3.695  10.664  2.0953 -1.4071 -0.0275
  852MOL0     O14886   7.302   2.382   8.003 -0.8035  1.1654 -0.4904
  852MOL0     C14887   7.341   2.289   7.943 -0.6384  0.2724  0.4419
  852MOL0     O14888   7.273   2.198   7.859 -0.2538 -0.2230 -0.2507
  852MOL0     C14889   7.138   2.209   7.842  0.0658  0.4711  0.6576
  852MOL0     C14890   7.081   2.258   7.726 -0.1343  0.2537  0.8629
  852MOL0     C14891   6.942   2.259   7.702 -0.1415 -0.4465 -1.1162
  852MOL0     C14892   6.850   2.207   7.793 -0.3654 -0.0760 -0.2905
  852MOL0     O14893   6.718   2.212   7.766  0.2050  0.1530  0.3159
  852MOL0     C14894   6.608   2.182   7.860  0.4546 -0.2080  0.0878
  852MOL0     C14895   6.560   2.311   7.925 -0.3850  0.1275 -0.4503
  852MOL0     C14896   6.429   2.284   7.999 -0.5564 -0.8883 -0.5972
  852MOL0     C14897   6.408   2.383   8.114 -0.2252  0.6406  0.0642
  852MOL0     C14898   6.271   2.360   8.188 -0.0983 -1.0240  0.8504
  852MOL0     C14899   6.258   2.454   8.311 -0.3137 -1.4598  0.3054
  852MOL0     C14900   6.124   2.442   8.375  0.2635 -1.0813 -0.8822
  852MOL0     C14901   6.110   2.323   8.466  0.0504  0.7276 -0.4383
  852MOL0     N14902   6.052   2.344   8.596  0.0043 -0.7036 -0.8515
  852MOL0     C14903   5.925   2.372   8.633 -0.0467 -0.4403  0.4835
  852MOL0     C14904   5.929   2.398   8.766 -0.1650 -0.6407 -1.1107
  852MOL0     C14905   5.805   2.425   8.854 -0.5335  0.6834  0.2466
  852MOL0     C14906   5.731   2.549   8.808  0.1763 -0.4006 -0.7339
  852MOL0     C14907   5.650   2.597   8.923  0.3440 -0.3059 -0.1280
  852MOL0     C14908   5.507   2.532   8.933 -0.1087 -0.0302 -0.0677
  852MOL0     O14909   5.440   2.565   9.054 -0.1978  0.8194  0.3000
  852MOL0     C14910   5.305   2.578   9.059  0.1279 -0.0278  0.6595
  852MOL0     C14911   5.216   2.533   8.961 -0.1510 -0.8555  0.6530
  852MOL0     C14912   5.083   2.542   8.980  1.1159 -0.7605 -0.3770
  852MOL0     C14913   4.997   2.459   8.889  0.1869 -0.7110  0.1134
  852MOL0     C14914   5.031   2.598   9.098  0.4584  0.4302  1.1679
  852MOL0     C14915   4.888   2.625   9.125  0.0148 -0.5927 -0.6281
  852MOL0     O14916   4.861   2.700   9.244 -1.3218  0.3446  0.0093
  852MOL0     C14917   4.735   2.733   9.283  0.0019  0.0807 -0.2538
  852MOL0     C14918   4.675   2.849   9.235 -0.1227 -0.3397  0.1467
  852MOL0     C14919   4.543   2.882   9.263 -0.3574 -0.6345  0.3251
  852MOL0     C14920   4.467   2.804   9.348  0.0481 -0.8277  0.7783
  852MOL0     O14921   4.338   2.847   9.361 -0.0221 -0.0014  0.5306
  852MOL0     C14922   4.261   2.803   9.478 -0.4056  0.2257 -0.0948
  852MOL0     C14923   4.176   2.689   9.436  1.1121  0.7870  0.6907
  852MOL0     C14924   4.120   2.620   9.564 -0.3411 -0.7149  0.4190
  852MOL0     C14925   4.019   2.506   9.523  0.9403  0.1330 -0.4846
  852MOL0     C14926   3.940   2.450   9.655 -0.6111 -1.6007  0.1824
  852MOL0     C14927   4.032   2.406   9.774  0.1631 -0.1426  0.3503
  852MOL0     C14928   4.057   2.263   9.750  0.4246  0.4366  0.4615
  852MOL0     C14929   4.160   2.209   9.841 -0.1385 -0.0534 -0.5195
  852MOL0    Cl14930   4.094   2.170  10.006  0.1467  0.2696  0.1513
  852MOL0     C14931   4.517   2.683   9.404 -0.8111 -0.0173 -0.2818
  852MOL0     C14932   4.654   2.648   9.374  0.6682 -1.1913 -0.0911
  852MOL0     O14933   4.807   2.594   9.044  0.0613 -0.3144 -0.4908
  852MOL0     C14934   5.123   2.635   9.194 -0.0478 -0.0148  0.4409
  852MOL0     C14935   5.253   2.609   9.183 -0.5447 -0.3845 -0.5889
  852MOL0     N14936   6.056   2.378   8.814 -0.3988 -0.0001 -0.3018
  852MOL0     N14937   6.130   2.346   8.710 -0.5894 -0.3529 -0.3995
  852MOL0     C14938   6.912   2.150   7.903 -0.4010 -0.5378 -0.5385
  852MOL0     C14939   7.052   2.142   7.927 -0.2008 -0.3776  0.1338
  852MOL0     C14940   7.486   2.278   7.935  0.0523  0.3016 -1.1467
  852MOL0     C14941   7.568   2.378   7.975 -0.1320 -0.0174  0.1383
  852MOL0     C14942   7.705   2.372   7.958  0.2231  1.0267 -0.6747
  852MOL0     C14943   7.764   2.260   7.908  0.2257  0.5425 -0.9903
  852MOL0     O14944   7.900   2.247   7.908 -0.0941 -0.1755  0.1066
  852MOL0     C14945   7.973   2.182   7.807  0.0604  0.2550 -0.0263
  852MOL0     C14946   7.940   2.250   7.668 -0.1583  0.0798  0.1782
  852MOL0     C14947   7.962   2.402   7.673  0.2824 -0.7132 -0.1789
  852MOL0     C14948   7.880   2.478   7.574  0.3380  0.2959 -0.1774
  852MOL0     C14949   7.729   2.472   7.595 -0.4539 -0.0042 -0.6261
  852MOL0     C14950   7.612   2.456   7.629 -0.2889 -0.8396 -0.1827
  852MOL0     C14951   7.681   2.152   7.877  0.3143  0.4688 -0.3963
  852MOL0     C14952   7.540   2.160   7.888 -0.2917  0.2926 -0.1926
  852MOL0     H14953   7.142   2.312   7.654  1.5486 -1.9082  0.5562
  852MOL0     H14954   6.910   2.326   7.622 -0.5800 -0.3204 -0.8423
  852MOL0     H14955   6.522   2.155   7.799  2.6878 -0.8309 -3.0397
  852MOL0     H14956   6.639   2.106   7.933 -3.4225 -0.9329  1.1944
  852MOL0     H14957   6.637   2.364   7.982 -2.9618  2.0645  1.5106
  852MOL0     H14958   6.531   2.372   7.839 -0.2258 -0.7400 -1.1319
  852MOL0     H14959   6.339   2.296   7.938 -0.2289 -3.7618 -1.8506
  852MOL0     H14960   6.427   2.178   8.026 -0.1700 -1.5349 -2.8912
  852MOL0     H14961   6.487   2.386   8.189 -1.1818  4.3482  1.1228
  852MOL0     H14962   6.402   2.486   8.075 -1.0621  1.5546  2.4325
  852MOL0     H14963   6.180   2.364   8.126  1.0713  1.0218 -0.8634
  852MOL0     H14964   6.282   2.258   8.226 -0.2729 -1.3726 -0.0116
  852MOL0     H14965   6.334   2.421   8.383  0.7702 -2.3846 -1.2043
  852MOL0     H14966   6.268   2.561   8.290 -0.4497 -1.6926 -1.0299
  852MOL0     H14967   6.117   2.527   8.444  2.0530 -0.8113 -0.9764
  852MOL0     H14968   6.040   2.449   8.305  0.3337  0.8830 -0.8273
  852MOL0     H14969   6.205   2.269   8.472 -0.3299  0.2366  2.3636
  852MOL0     H14970   6.047   2.255   8.408  1.0612 -0.0390 -0.6687
  852MOL0     H14971   5.835   2.385   8.574 -0.3594 -0.5639  0.9263
  852MOL0     H14972   5.732   2.345   8.862 -0.3775  0.6154  1.0537
  852MOL0     H14973   5.836   2.436   8.958  0.9927 -2.1512  0.1996
  852MOL0     H14974   5.672   2.524   8.720 -1.5616  3.7342 -0.9989
  852MOL0     H14975   5.797   2.634   8.786  0.4001 -0.1022  0.9156
  852MOL0     H14976   5.632   2.702   8.900  1.5792 -0.3085 -1.1769
  852MOL0     H14977   5.704   2.585   9.018 -0.1758 -0.0782  0.2033
  852MOL0     H14978   5.521   2.424   8.926  2.4630 -0.0744  3.2120
  852MOL0     H14979   5.452   2.575   8.848  1.5495  1.7147 -0.3299
  852MOL0     H14980   5.259   2.493   8.870  3.4750 -3.7183  3.3382
  852MOL0     H14981   5.062   2.386   8.841  1.6386  0.6610 -0.0711
  852MOL0     H14982   4.920   2.401   8.941 -1.1080 -1.9204 -2.9243
  852MOL0     H14983   4.956   2.525   8.812  1.4974 -0.7234 -0.6258
  852MOL0     H14984   4.727   2.921   9.173 -1.4362 -0.0019 -0.5867
  852MOL0     H14985   4.506   2.978   9.230  1.6106  0.2168  0.4950
  852MOL0     H14986   4.329   2.780   9.560  2.0459  1.0335 -1.7744
  852MOL0     H14987   4.198   2.882   9.518 -0.1688 -1.0252  2.9866
  852MOL0     H14988   4.093   2.729   9.378 -0.1927 -3.9335 -1.2231
  852MOL0     H14989   4.232   2.612   9.381 -0.4046 -0.0107  0.2220
  852MOL0     H14990   4.063   2.689   9.626 -0.3829  2.4060 -2.7442
  852MOL0     H14991   4.212   2.581   9.608  1.7734  0.7510 -2.3562
  852MOL0     H14992   3.941   2.546   9.457  0.1178  0.0299  0.3923
  852MOL0     H14993   4.065   2.421   9.471 -0.5614 -0.4036 -0.9934
  852MOL0     H14994   3.869   2.370   9.631 -0.7437 -1.8879  1.4325
  852MOL0     H14995   3.875   2.531   9.691 -0.9422 -1.7751 -0.0198
  852MOL0     H14996   4.130   2.455   9.774  0.7051 -0.8852 -3.8343
  852MOL0     H14997   3.976   2.429   9.866 -0.3750  1.7129 -0.3955
  852MOL0     H14998   4.103   2.264   9.651  0.4335 -3.2390  0.2949
  852MOL0     H14999   3.964   2.206   9.755  0.3123  0.7053  1.8759
  852MOL0     H15000   4.247   2.274   9.855  0.9952 -1.8357  1.1737
  852MOL0     H15001   4.191   2.113   9.799 -0.3019 -0.0867 -0.5627
  852MOL0     H15002   4.455   2.622   9.468 -0.3449  0.6669  0.8496
  852MOL0     H15003   4.697   2.564   9.427  0.0741 -2.7867 -1.9945
  852MOL0     H15004   5.091   2.676   9.289 -1.9450  0.4285 -0.3418
  852MOL0     H15005   5.314   2.617   9.273 -4.2652  0.7958  2.0570
  852MOL0     H15006   6.848   2.103   7.977 -0.4472  1.2900  0.6477
  852MOL0     H15007   7.084   2.085   8.014  2.3588 -0.0981 -0.5249
  852MOL0     H15008   7.533   2.470   8.019 -0.7356  0.3509 -1.0680
  852MOL0     H15009   7.775   2.445   7.996 -0.3218  0.7508  0.9421
  852MOL0     H15010   8.080   2.187   7.830 -0.0336  1.1858  0.2734
  852MOL0     H15011   7.951   2.075   7.813  0.1609  0.0812 -2.2099
  852MOL0     H15012   7.838   2.217   7.643  0.4090 -2.4609  0.9221
  852MOL0     H15013   8.012   2.206   7.598 -0.0177 -1.2925  1.1417
  852MOL0     H15014   8.065   2.422   7.644 -0.0695 -1.6034 -2.2946
  852MOL0     H15015   7.939   2.447   7.770 -0.8666 -0.5839 -0.4955
  852MOL0     H15016   7.899   2.450   7.470 -2.5366 -1.1058 -0.4514
  852MOL0     H15017   7.913   2.582   7.569  0.9624  0.0386 -3.3127
  852MOL0     H15018   7.508   2.463   7.651 -0.7785 -0.5982 -2.4092
  852MOL0     H15019   7.724   2.059   7.841  0.1560 -0.3894  1.4630
  852MOL0     H15020   7.476   2.080   7.855 -0.0169 -0.5260  1.1688
  853MOL0     O15021   8.041   9.298   2.160  0.1325 -0.0810 -0.0293
  853MOL0     C15022   8.049   9.228   2.063 -0.7736  0.6829 -0.8458
  853MOL0     O15023   7.954   9.179   1.977  0.2553  0.4657 -0.1948
  853MOL0     C15024   7.824   9.202   2.017 -0.1022 -0.5890 -0.6707
  853MOL0     C15025   7.773   9.196   2.152 -0.5944 -0.0755  0.2703
  853MOL0     C15026   7.636   9.195   2.188  0.3018  0.6088  0.0894
  853MOL0     C15027   7.545   9.180   2.082  0.4770  0.0469 -0.3921
  853MOL0     O15028   7.415   9.170   2.114 -0.2022 -0.0600  0.6970
  853MOL0     C15029   7.367   9.040   2.090 -0.0033 -0.3987  0.0172
  853MOL0     C15030   7.214   9.028   2.112 -0.6327 -1.2732  0.2460
  853MOL0     C15031   7.152   9.075   2.246 -0.6862  0.0204  0.0667
  853MOL0     C15032   7.036   8.986   2.296 -0.7379  0.5465 -0.2296
  853MOL0     C15033   6.912   8.979   2.202  0.9706  0.3194  0.0886
  853MOL0     C15034   6.816   8.862   2.234 -0.4761 -0.1852  0.1104
  853MOL0     C15035   6.745   8.867   2.369  0.6190  0.3501  0.3376
  853MOL0     C15036   6.660   8.745   2.388  0.5579  0.2318 -0.7742
  853MOL0     N15037   6.542   8.745   2.310  0.8150 -0.0266 -0.5148
  853MOL0     C15038   6.506   8.649   2.222 -0.7249 -0.1142  0.5619
  853MOL0     C15039   6.379   8.676   2.178 -0.3753  0.0458 -0.2129
  853MOL0     C15040   6.298   8.606   2.083 -0.0467  0.0619  0.3991
  853MOL0     C15041   6.265   8.704   1.958 -0.1235 -0.0710 -0.3342
  853MOL0     C15042   6.210   8.631   1.838  0.0201  0.2892 -0.6079
  853MOL0     C15043   6.142   8.724   1.734  0.0847  0.2658  0.3095
  853MOL0     O15044   6.013   8.764   1.776  0.0978  0.4041 -0.6464
  853MOL0     C15045   5.915   8.672   1.797  0.4793  0.4274  0.3472
  853MOL0     C15046   5.800   8.704   1.874  0.4860 -0.2782 -0.4006
  853MOL0     C15047   5.682   8.626   1.876 -0.1436  0.0716 -0.3771
  853MOL0     C15048   5.554   8.685   1.945  0.6668  0.0491  0.3187
  853MOL0     C15049   5.684   8.497   1.809 -0.1132 -0.3102  1.0402
  853MOL0     C15050   5.567   8.408   1.793  0.7195 -0.6764  0.1405
  853MOL0     O15051   5.576   8.300   1.711  0.4808 -0.2123  0.2800
  853MOL0     C15052   5.456   8.246   1.672 -0.0265 -0.3616 -0.7868
  853MOL0     C15053   5.359   8.323   1.601  0.5218  0.5187 -0.1743
  853MOL0     C15054   5.243   8.263   1.547 -0.0479 -0.0526 -0.0598
  853MOL0     C15055   5.222   8.127   1.543 -0.7330 -0.1120 -0.6129
  853MOL0     O15056   5.105   8.064   1.517 -0.1623 -0.6634 -0.3436
  853MOL0     C15057   5.002   8.141   1.450 -0.2297  0.3143  0.1823
  853MOL0     C15058   4.887   8.049   1.425  0.6778 -0.4137  0.0316
  853MOL0     C15059   4.778   8.098   1.328 -0.2281 -0.2503 -0.6681
  853MOL0     C15060   4.700   7.978   1.271 -0.5166  1.0558 -0.3177
  853MOL0     C15061   4.571   8.014   1.199 -0.1917  0.5524 -0.6926
  853MOL0     C15062   4.519   7.903   1.097 -0.8774 -0.2368 -0.6345
  853MOL0     C15063   4.364   7.897   1.107  0.5817 -0.0547 -0.2575
  853MOL0     C15064   4.294   7.765   1.061 -1.0057  0.0751 -0.5803
  853MOL0    Cl15065   4.270   7.643   1.194 -0.3454  0.3721 -0.4706
  853MOL0     C15066   5.315   8.055   1.615  0.2071 -0.0434  0.0597
  853MOL0     C15067   5.425   8.111   1.675  0.8966  0.6314 -0.2479
  853MOL0     O15068   5.462   8.449   1.848  0.2848  0.2695  0.0699
  853MOL0     C15069   5.795   8.470   1.727 -0.2995  0.3562 -0.6112
  853MOL0     C15070   5.912   8.553   1.723  0.4941 -0.6412 -0.6230
  853MOL0     N15071   6.337   8.786   2.246  0.4810  0.2035  0.8015
  853MOL0     N15072   6.429   8.824   2.326 -0.8866 -0.0867  0.8035
  853MOL0     C15073   7.588   9.191   1.947 -0.1970 -0.3956  0.7518
  853MOL0     C15074   7.727   9.209   1.918 -0.2461  0.8397 -0.0256
  853MOL0     C15075   8.188   9.197   2.015 -0.1617 -0.3150 -0.3375
  853MOL0     C15076   8.207   9.152   1.876 -0.7340  1.1721 -0.1119
  853MOL0     C15077   8.337   9.150   1.826  0.6314 -0.1901  0.2312
  853MOL0     C15078   8.448   9.176   1.911  0.2717 -0.5716  0.1206
  853MOL0     O15079   8.584   9.167   1.877 -0.0327  0.1339  0.2950
  853MOL0     C15080   8.611   9.124   1.740 -0.8864 -0.3100  0.3663
  853MOL0     C15081   8.618   8.976   1.749 -0.0801 -0.2818  0.6764
  853MOL0     C15082   8.672   8.907   1.621  0.8100  0.8208 -0.9502
  853MOL0     C15083   8.602   8.765   1.596  0.1791 -0.9483  2.0409
  853MOL0     C15084   8.459   8.794   1.560 -0.8932 -0.5265  0.7622
  853MOL0     C15085   8.355   8.815   1.504  0.3657  0.4364  0.0800
  853MOL0     C15086   8.426   9.206   2.047 -0.1991  0.3611 -0.4057
  853MOL0     C15087   8.300   9.214   2.096  0.6434  0.0338  0.6207
  853MOL0     H15088   7.847   9.184   2.231  1.9128  3.6359 -1.2286
  853MOL0     H15089   7.606   9.172   2.289 -2.5979 -0.4317 -0.9118
  853MOL0     H15090   7.379   9.007   1.987 -1.1656 -2.2922  0.4369
  853MOL0     H15091   7.423   8.974   2.157  0.3966 -2.1228 -1.9118
  853MOL0     H15092   7.172   9.085   2.029 -0.1689  0.2066  1.0051
  853MOL0     H15093   7.179   8.928   2.085  0.0587 -0.7353 -3.1752
  853MOL0     H15094   7.223   9.084   2.329 -0.1412  0.8148 -0.4693
  853MOL0     H15095   7.110   9.172   2.215 -1.5829 -0.5162 -0.4371
  853MOL0     H15096   7.076   8.889   2.326 -0.0857  1.4515  2.0988
  853MOL0     H15097   7.002   9.025   2.393  0.2875  2.3945 -0.5755
  853MOL0     H15098   6.852   9.070   2.209  0.2506 -0.2089  0.9794
  853MOL0     H15099   6.944   8.966   2.098 -0.1908 -3.1927  0.0352
  853MOL0     H15100   6.754   8.866   2.144 -1.4631 -1.0437  0.7278
  853MOL0     H15101   6.877   8.772   2.226 -0.6560 -0.4931  1.8855
  853MOL0     H15102   6.819   8.869   2.450  0.2222  0.6775  0.7014
  853MOL0     H15103   6.685   8.959   2.376 -1.1119 -0.6866 -0.3639
  853MOL0     H15104   6.630   8.747   2.494  0.1402 -3.0946 -0.7256
  853MOL0     H15105   6.723   8.660   2.364 -1.6318 -0.9076 -2.9903
  853MOL0     H15106   6.575   8.571   2.190  0.0461  0.0709  1.7194
  853MOL0     H15107   6.342   8.512   2.050  0.9387  0.9119 -0.7997
  853MOL0     H15108   6.207   8.582   2.138  0.1814 -0.5786  0.5008
  853MOL0     H15109   6.352   8.764   1.930  0.2741 -0.6853 -0.4484
  853MOL0     H15110   6.189   8.770   2.001  0.6077  1.3417 -1.1461
  853MOL0     H15111   6.145   8.547   1.865  1.2045 -0.8795 -1.2931
  853MOL0     H15112   6.296   8.584   1.789  0.6163  1.4675 -0.7059
  853MOL0     H15113   6.131   8.670   1.639 -0.8591  2.9462 -1.2103
  853MOL0     H15114   6.206   8.810   1.712  0.3551  0.7327  2.7246
  853MOL0     H15115   5.798   8.799   1.926 -2.1989  0.7791 -2.2076
  853MOL0     H15116   5.484   8.710   1.864  2.4193 -2.6323 -2.2033
  853MOL0     H15117   5.513   8.619   2.022 -0.2625  0.6406  0.3437
  853MOL0     H15118   5.576   8.784   1.986  2.8764  1.1977 -3.2135
  853MOL0     H15119   5.382   8.429   1.593  1.0652  0.3712 -0.6904
  853MOL0     H15120   5.168   8.331   1.509 -2.0890 -1.4391  1.2720
  853MOL0     H15121   4.957   8.212   1.520 -2.6147 -0.6993 -0.2531
  853MOL0     H15122   5.032   8.193   1.358 -0.0941  0.8769  0.5348
  853MOL0     H15123   4.935   7.964   1.376  1.3803 -0.2369  0.4024
  853MOL0     H15124   4.842   8.021   1.520 -2.8122 -1.2289 -1.7078
  853MOL0     H15125   4.829   8.157   1.251  1.6484  1.0587  1.4668
  853MOL0     H15126   4.717   8.162   1.392  0.2165 -0.0727 -0.4262
  853MOL0     H15127   4.766   7.925   1.202 -1.8701 -0.3689 -0.5716
  853MOL0     H15128   4.668   7.916   1.355  0.7108  1.6425  0.6069
  853MOL0     H15129   4.586   8.109   1.148 -0.1030  0.4239 -0.9065
  853MOL0     H15130   4.496   8.024   1.278  0.9243 -1.8357  0.7886
  853MOL0     H15131   4.541   7.916   0.991  1.0887 -3.3203 -0.7159
  853MOL0     H15132   4.545   7.800   1.123  0.3416  0.1318 -0.3473
  853MOL0     H15133   4.329   7.985   1.052 -1.8764 -1.3194 -0.8818
  853MOL0     H15134   4.332   7.911   1.210 -1.1299  1.0189 -0.9024
  853MOL0     H15135   4.373   7.721   1.000 -0.6439  0.9731 -0.7876
  853MOL0     H15136   4.207   7.795   1.002 -1.5738 -0.2283  0.0886
  853MOL0     H15137   5.307   7.948   1.633 -1.0061  0.1607  0.8517
  853MOL0     H15138   5.486   8.047   1.739 -0.6930 -0.1795  0.5065
  853MOL0     H15139   5.794   8.388   1.657 -3.5899  0.1833 -0.5162
  853MOL0     H15140   5.996   8.523   1.661  0.3737 -0.0678 -1.0821
  853MOL0     H15141   7.508   9.198   1.875  0.1825 -1.7515  0.1684
  853MOL0     H15142   7.763   9.215   1.816  0.3709 -1.2149  0.0111
  853MOL0     H15143   8.122   9.117   1.820  1.0351 -2.6534 -0.6926
  853MOL0     H15144   8.346   9.107   1.727 -2.1846 -0.5924  0.0659
  853MOL0     H15145   8.537   9.166   1.671 -1.2192  1.4741  1.7112
  853MOL0     H15146   8.701   9.175   1.705 -2.5427  3.0954  0.5691
  853MOL0     H15147   8.514   8.951   1.772 -0.1439  3.1146  5.5495
  853MOL0     H15148   8.695   8.948   1.822  2.0236  1.3372 -0.8044
  853MOL0     H15149   8.779   8.886   1.626  0.3061 -1.8518  1.2847
  853MOL0     H15150   8.656   8.977   1.539 -1.8659  1.0048 -0.3722
  853MOL0     H15151   8.603   8.697   1.682 -1.4067 -0.5567  2.3976
  853MOL0     H15152   8.654   8.718   1.512 -1.8290  3.6039 -2.2823
  853MOL0     H15153   8.255   8.820   1.466  0.2551  3.5290  0.4672
  853MOL0     H15154   8.505   9.212   2.121  0.6598 -2.9130 -0.9147
  853MOL0     H15155   8.297   9.240   2.201  1.6179 -1.5993  1.0924
  854MOL0     O15156   9.606   1.977   7.504 -0.0250  0.3053 -0.2333
  854MOL0     C15157   9.656   1.873   7.459  0.4973 -0.2775 -0.6467
  854MOL0     O15158   9.588   1.776   7.396 -0.0097  0.2246 -0.3807
  854MOL0     C15159   9.463   1.794   7.343  0.4297 -0.1486 -0.5260
  854MOL0     C15160   9.348   1.785   7.426 -0.2842  0.2370  0.0212
  854MOL0     C15161   9.231   1.830   7.370 -0.2551 -0.4928  0.2743
  854MOL0     C15162   9.218   1.861   7.234 -0.2559 -1.0441  0.5369
  854MOL0     O15163   9.099   1.903   7.170  0.0484 -0.4707  0.3258
  854MOL0     C15164   8.974   1.900   7.252 -0.7281  0.2676 -0.3664
  854MOL0     C15165   8.860   1.893   7.141  0.9218 -0.0040  0.1167
  854MOL0     C15166   8.732   1.833   7.209  0.1047 -0.6402  0.7839
  854MOL0     C15167   8.676   1.925   7.322  0.7379 -0.6020 -0.4232
  854MOL0     C15168   8.612   1.859   7.440  1.2966  0.5969 -0.4307
  854MOL0     C15169   8.494   1.761   7.415  0.9523  0.2223 -0.3860
  854MOL0     C15170   8.442   1.700   7.546  0.1772  1.0396 -0.1261
  854MOL0     C15171   8.366   1.786   7.645  0.2146  0.6573 -1.1060
  854MOL0     N15172   8.233   1.840   7.602 -0.2373  0.5406  0.1825
  854MOL0     C15173   8.108   1.781   7.622  0.6163 -0.8768 -0.2605
  854MOL0     C15174   8.028   1.879   7.576  0.4537  0.3984  0.7055
  854MOL0     C15175   7.874   1.877   7.591  0.3353  1.0484  0.6536
  854MOL0     C15176   7.797   1.766   7.506  0.9174  0.1638 -0.7510
  854MOL0     C15177   7.796   1.626   7.568  0.4951  0.2148 -0.1429
  854MOL0     C15178   7.685   1.616   7.673 -0.7327  0.0244  0.2357
  854MOL0     O15179   7.716   1.661   7.812 -0.4797 -0.0555  0.3750
  854MOL0     C15180   7.621   1.729   7.883 -0.6777  1.1182 -0.5440
  854MOL0     C15181   7.657   1.720   8.027 -0.1964  0.2419  0.5794
  854MOL0     C15182   7.564   1.763   8.121  0.8116  0.0503  0.3823
  854MOL0     C15183   7.611   1.751   8.266 -0.6401 -0.1497 -0.6788
  854MOL0     C15184   7.437   1.817   8.084  0.4370  0.1427 -0.4042
  854MOL0     C15185   7.331   1.859   8.179  0.4518 -0.1416 -0.2412
  854MOL0     O15186   7.368   1.908   8.300  0.6465  0.5224 -0.5205
  854MOL0     C15187   7.263   1.934   8.388  0.5435  0.6052  0.6343
  854MOL0     C15188   7.222   1.827   8.471 -0.4542 -0.7483  0.5079
  854MOL0     C15189   7.121   1.849   8.565 -0.6484 -0.0619  0.6509
  854MOL0     C15190   7.066   1.984   8.574  0.3190  0.4129  0.2502
  854MOL0     O15191   6.971   2.016   8.667  1.1734  0.3172 -0.6435
  854MOL0     C15192   6.874   1.908   8.695 -0.2838 -0.3305  0.9675
  854MOL0     C15193   6.734   1.967   8.700  0.3255 -0.1452  0.5442
  854MOL0     C15194   6.714   2.059   8.819 -0.6560 -0.4119 -1.0526
  854MOL0     C15195   6.587   2.148   8.805  0.1146 -0.4482  0.2378
  854MOL0     C15196   6.581   2.257   8.913  0.2484 -0.5690 -0.6882
  854MOL0     C15197   6.498   2.377   8.866  0.2159  0.2875 -0.0634
  854MOL0     C15198   6.456   2.465   8.985 -0.7303  0.5695 -0.1727
  854MOL0     C15199   6.419   2.599   8.933 -0.3324  0.6985 -0.3227
  854MOL0    Cl15200   6.419   2.687   9.090  0.0024  0.3552  0.1069
  854MOL0     C15201   7.117   2.087   8.492  0.3189  0.3664  0.2158
  854MOL0     C15202   7.218   2.068   8.399  0.2688  0.5432 -0.4880
  854MOL0     O15203   7.217   1.842   8.141  0.1271 -0.0167  0.7918
  854MOL0     C15204   7.402   1.822   7.945 -0.4246  1.1950  0.2406
  854MOL0     C15205   7.492   1.770   7.842 -0.2086 -0.3347 -0.7811
  854MOL0     N15206   8.098   1.990   7.541 -0.4715 -0.8862 -0.1606
  854MOL0     N15207   8.225   1.962   7.557  0.6268 -0.0387  0.6365
  854MOL0     C15208   9.329   1.845   7.151  0.1351  0.0918  0.5212
  854MOL0     C15209   9.454   1.816   7.208  0.0478  0.2674  0.6853
  854MOL0     C15210   9.803   1.844   7.478  0.2890  0.6534 -0.1917
  854MOL0     C15211   9.865   1.721   7.438  0.1753 -0.0058 -0.1322
  854MOL0     C15212  10.003   1.690   7.454  1.1113 -0.2603 -0.7514
  854MOL0     C15213  10.085   1.791   7.514 -0.6831 -0.0702  0.1517
  854MOL0     O15214  10.220   1.782   7.535 -0.3695  0.1645  0.3542
  854MOL0     C15215  10.295   1.668   7.485 -0.0159 -1.0491 -0.9484
  854MOL0     C15216  10.321   1.576   7.605 -0.7650 -0.4409  0.8409
  854MOL0     C15217  10.444   1.483   7.597 -0.1935 -0.5832  0.8540
  854MOL0     C15218  10.499   1.463   7.445 -0.2252  0.9041 -0.3366
  854MOL0     C15219  10.596   1.350   7.442  0.1878 -0.4809  0.9429
  854MOL0     C15220  10.679   1.260   7.446 -0.3429 -0.2106  0.6183
  854MOL0     C15221  10.028   1.913   7.562  0.2971  0.5096 -0.2921
  854MOL0     C15222   9.890   1.943   7.537 -0.7178 -0.2611 -0.1810
  854MOL0     H15223   9.348   1.733   7.521 -0.3432  2.0808  1.0609
  854MOL0     H15224   9.145   1.822   7.436  0.0566 -1.9878  0.5281
  854MOL0     H15225   8.967   1.811   7.315 -0.7067  1.8240  1.9710
  854MOL0     H15226   8.963   1.988   7.316 -1.2753 -1.6597  2.3295
  854MOL0     H15227   8.842   1.995   7.107  2.0833  0.6483  1.3455
  854MOL0     H15228   8.892   1.832   7.056 -0.9466 -0.0989 -0.5637
  854MOL0     H15229   8.654   1.814   7.134  1.1674 -0.1641 -0.4859
  854MOL0     H15230   8.770   1.741   7.256 -0.3639 -1.2429  0.0096
  854MOL0     H15231   8.750   1.992   7.366  1.6456 -0.6742 -1.7660
  854MOL0     H15232   8.601   1.988   7.273  2.7315 -0.6802 -3.8769
  854MOL0     H15233   8.683   1.793   7.491 -1.3527 -1.3022  1.0680
  854MOL0     H15234   8.593   1.938   7.514  3.0423  0.4822  0.1758
  854MOL0     H15235   8.414   1.817   7.365  1.1965  0.3962 -0.5878
  854MOL0     H15236   8.523   1.683   7.344 -0.2770  0.0882 -0.7641
  854MOL0     H15237   8.384   1.612   7.516 -0.8630  2.1163 -1.3629
  854MOL0     H15238   8.527   1.661   7.603 -1.2738 -0.5534  1.0646
  854MOL0     H15239   8.434   1.869   7.668  1.1477  0.0002 -1.4272
  854MOL0     H15240   8.343   1.722   7.730  0.7205 -0.1211 -1.5388
  854MOL0     H15241   8.078   1.692   7.676 -2.9479  1.4313  2.0113
  854MOL0     H15242   7.837   1.871   7.694  2.7073  0.0698  1.5342
  854MOL0     H15243   7.845   1.971   7.543  1.5743  0.2567 -1.8461
  854MOL0     H15244   7.844   1.761   7.407  0.7677  1.1121 -0.8797
  854MOL0     H15245   7.697   1.808   7.493  0.9726  0.9106  0.9610
  854MOL0     H15246   7.895   1.605   7.610  0.3874 -0.1620 -0.0741
  854MOL0     H15247   7.779   1.543   7.498  2.4654 -0.7821  0.4824
  854MOL0     H15248   7.662   1.510   7.687  1.9250 -0.5735  0.6833
  854MOL0     H15249   7.602   1.675   7.633  0.0850  1.0428  0.0039
  854MOL0     H15250   7.756   1.679   8.046  1.0075  2.5042 -0.3550
  854MOL0     H15251   7.696   1.682   8.270 -0.0812  0.5584  0.9809
  854MOL0     H15252   7.658   1.844   8.302  4.2942 -3.2829  2.0897
  854MOL0     H15253   7.531   1.725   8.336  0.9006  0.1390  1.3162
  854MOL0     H15254   7.263   1.727   8.463 -0.1393 -0.6916  1.3383
  854MOL0     H15255   7.073   1.765   8.616 -2.1645  0.9386  0.9641
  854MOL0     H15256   6.880   1.823   8.627 -1.5869 -0.3949  0.8922
  854MOL0     H15257   6.907   1.869   8.792  1.7551 -1.5007 -0.1553
  854MOL0     H15258   6.720   2.030   8.612  1.4293 -2.8120 -1.7222
  854MOL0     H15259   6.658   1.889   8.698  0.4666 -0.2728 -0.0230
  854MOL0     H15260   6.808   2.115   8.829  0.0524 -1.3264 -2.3754
  854MOL0     H15261   6.700   2.015   8.918 -1.6954 -0.9940 -1.4542
  854MOL0     H15262   6.589   2.205   8.711 -2.3620  0.8645  0.8743
  854MOL0     H15263   6.488   2.101   8.800 -1.2944  2.1647  1.0075
  854MOL0     H15264   6.685   2.284   8.934 -0.0976  0.5424 -0.3775
  854MOL0     H15265   6.538   2.209   9.001 -3.3638  0.7664 -1.5674
  854MOL0     H15266   6.553   2.434   8.790 -0.3184  0.1224 -0.5870
  854MOL0     H15267   6.415   2.333   8.809 -0.0587 -2.4020  2.1820
  854MOL0     H15268   6.543   2.475   9.050 -0.8250 -3.5569  0.8665
  854MOL0     H15269   6.372   2.420   9.038  0.0280 -0.2572  0.3498
  854MOL0     H15270   6.313   2.600   8.903 -0.8340  1.0288  1.3514
  854MOL0     H15271   6.494   2.646   8.869 -0.8578  2.4737  0.2871
  854MOL0     H15272   7.086   2.190   8.489 -0.1201  0.2226 -0.3327
  854MOL0     H15273   7.260   2.143   8.332 -0.0844  0.9426 -0.2661
  854MOL0     H15274   7.306   1.858   7.910 -2.3611 -0.9444  2.9642
  854MOL0     H15275   7.446   1.763   7.744 -2.2591 -2.7987  0.2503
  854MOL0     H15276   9.314   1.856   7.044 -1.3812  0.8953  0.7828
  854MOL0     H15277   9.548   1.812   7.153 -0.1544  2.0706  0.1319
  854MOL0     H15278   9.807   1.645   7.387 -0.1215  0.8161 -1.0477
  854MOL0     H15279  10.039   1.591   7.424 -1.9061 -2.2789  1.6435
  854MOL0     H15280  10.248   1.612   7.404 -0.0001 -0.0549 -1.6546
  854MOL0     H15281  10.383   1.711   7.435  0.0377 -2.8255 -2.5037
  854MOL0     H15282  10.229   1.525   7.638 -1.9310  0.7491 -0.4270
  854MOL0     H15283  10.348   1.647   7.684 -0.8078  0.9741 -0.3700
  854MOL0     H15284  10.406   1.389   7.639 -0.5513 -0.1949  1.4070
  854MOL0     H15285  10.527   1.516   7.660  0.2950 -1.0813  0.4900
  854MOL0     H15286  10.534   1.559   7.406 -0.5963  0.3206 -2.2294
  854MOL0     H15287  10.425   1.414   7.382 -1.2350  0.5960  1.0539
  854MOL0     H15288  10.751   1.181   7.432  0.6085  0.6148  0.7404
  854MOL0     H15289  10.091   1.983   7.618  1.0097 -0.4728  0.1562
  854MOL0     H15290   9.858   2.038   7.578  1.1742  0.7560 -0.9186
  855MOL0     O15291   4.949   1.520   4.105 -0.1615 -1.2711 -0.0529
  855MOL0     C15292   5.015   1.592   4.189  0.4346  0.2488  0.3281
  855MOL0     O15293   4.956   1.634   4.302 -0.8133  0.5467 -0.6719
  855MOL0     C15294   4.826   1.587   4.330 -0.5174 -0.7475 -0.4196
  855MOL0     C15295   4.740   1.695   4.371  0.1475 -0.4256 -0.0182
  855MOL0     C15296   4.611   1.677   4.416 -0.9145 -0.3302 -0.8401
  855MOL0     C15297   4.571   1.551   4.446  0.1645  0.0024 -1.1182
  855MOL0     O15298   4.442   1.548   4.499  0.6334 -0.0080 -0.4462
  855MOL0     C15299   4.374   1.423   4.479  0.0716 -0.3783  0.7300
  855MOL0     C15300   4.235   1.438   4.533  0.1672 -0.1400  0.2872
  855MOL0     C15301   4.151   1.316   4.487  0.3835  0.4075 -0.5550
  855MOL0     C15302   4.013   1.322   4.551 -0.3278  0.6640  0.7709
  855MOL0     C15303   3.912   1.406   4.481 -0.1572  1.0102  0.0357
  855MOL0     C15304   3.805   1.461   4.579 -0.0295 -0.2722 -0.1205
  855MOL0     C15305   3.875   1.557   4.683  1.0283 -0.8831  0.7241
  855MOL0     C15306   3.776   1.664   4.736  0.4294  0.5230  0.7919
  855MOL0     N15307   3.668   1.619   4.824  0.5089  0.1698  0.1637
  855MOL0     C15308   3.538   1.595   4.794  0.2177 -0.1480  0.1377
  855MOL0     C15309   3.473   1.589   4.905  0.6077 -0.9736 -0.5932
  855MOL0     C15310   3.328   1.573   4.917  0.2827 -0.1416  0.2856
  855MOL0     C15311   3.263   1.682   4.836  0.0076  0.5331  0.2545
  855MOL0     C15312   3.114   1.695   4.866 -0.0481  0.2355 -0.1620
  855MOL0     C15313   3.048   1.807   4.778 -0.3300  0.8585 -0.1890
  855MOL0     O15314   2.914   1.841   4.826 -0.4382 -0.4791  0.1676
  855MOL0     C15315   2.811   1.761   4.816  0.2157 -0.0280  0.0335
  855MOL0     C15316   2.690   1.808   4.872  0.1763  0.7661  0.8073
  855MOL0     C15317   2.563   1.744   4.842 -0.6337 -0.5981 -0.0362
  855MOL0     C15318   2.442   1.811   4.901  0.5205 -0.4911 -0.4654
  855MOL0     C15319   2.561   1.623   4.771  1.0258  0.4167 -0.6771
  855MOL0     C15320   2.438   1.551   4.748  0.3362  0.6650  0.9475
  855MOL0     O15321   2.456   1.423   4.699 -0.2310 -0.0467 -0.2833
  855MOL0     C15322   2.351   1.356   4.651  0.8458 -0.1155 -0.3291
  855MOL0     C15323   2.347   1.318   4.518  0.5486  0.8681 -0.6271
  855MOL0     C15324   2.248   1.237   4.469  0.2696  0.8100 -0.7397
  855MOL0     C15325   2.140   1.213   4.549  0.8012  0.5919  1.2914
  855MOL0     O15326   2.038   1.129   4.507 -1.1236  0.2664  0.3187
  855MOL0     C15327   1.905   1.182   4.525  0.0675 -0.0275  0.3486
  855MOL0     C15328   1.823   1.109   4.422  0.7170 -0.4016 -0.3721
  855MOL0     C15329   1.674   1.134   4.439  0.3060  0.0018 -0.5294
  855MOL0     C15330   1.591   1.112   4.313 -0.2113  0.1463  0.1199
  855MOL0     C15331   1.440   1.116   4.334 -0.3117 -0.5790  0.6462
  855MOL0     C15332   1.364   1.118   4.204  0.2908 -0.9305  1.3211
  855MOL0     C15333   1.216   1.112   4.219  0.1295 -0.1049  0.7126
  855MOL0     C15334   1.151   1.208   4.317  0.6519 -0.2577  0.1248
  855MOL0    Cl15335   0.973   1.204   4.283 -0.0028 -0.1672  0.0195
  855MOL0     C15336   2.139   1.257   4.677 -0.5755 -0.8806  0.5378
  855MOL0     C15337   2.245   1.326   4.740  1.1118  0.3471 -0.1344
  855MOL0     O15338   2.327   1.604   4.757  0.5337  0.7143 -0.1299
  855MOL0     C15339   2.686   1.576   4.717  0.0365 -0.5455  0.3786
  855MOL0     C15340   2.804   1.646   4.731 -0.0728  0.6174 -0.8757
  855MOL0     N15341   3.555   1.626   5.012  0.0001  0.1031  0.1270
  855MOL0     N15342   3.672   1.649   4.958  0.0144 -0.3808  0.0926
  855MOL0     C15343   4.648   1.442   4.415 -0.3916  0.0898 -0.3533
  855MOL0     C15344   4.774   1.458   4.365 -0.4998 -0.3736  0.3249
  855MOL0     C15345   5.158   1.626   4.152  0.3890 -0.3467 -0.6077
  855MOL0     C15346   5.242   1.720   4.226 -0.9861  0.4202 -0.2230
  855MOL0     C15347   5.369   1.739   4.183 -0.5086 -0.5525  0.6062
  855MOL0     C15348   5.422   1.670   4.068 -0.5200 -0.0041  1.1165
  855MOL0     O15349   5.551   1.673   4.029  0.3564 -0.6702  0.0429
  855MOL0     C15350   5.649   1.763   4.083  0.3532 -0.4029 -0.1152
  855MOL0     C15351   5.771   1.775   3.989  0.1880  0.7190 -0.4165
  855MOL0     C15352   5.831   1.640   3.958  0.1557  0.0015 -0.0048
  855MOL0     C15353   5.948   1.659   3.858  0.4760  0.7932 -0.3165
  855MOL0     C15354   6.029   1.536   3.837 -0.4040  0.4225  0.1711
  855MOL0     C15355   6.114   1.445   3.825  0.5695 -0.2130 -0.2895
  855MOL0     C15356   5.338   1.586   3.992 -0.1834 -0.4537 -0.8468
  855MOL0     C15357   5.206   1.571   4.036  1.1969 -1.0415  0.6508
  855MOL0     H15358   4.783   1.794   4.368  3.0908 -1.5098  1.7944
  855MOL0     H15359   4.542   1.760   4.430  0.8942  0.9810  1.0216
  855MOL0     H15360   4.383   1.396   4.374  1.1912 -0.1340  0.7467
  855MOL0     H15361   4.421   1.338   4.529 -0.4405 -1.2198 -0.1871
  855MOL0     H15362   4.236   1.434   4.643 -1.7354  0.3198  0.3584
  855MOL0     H15363   4.178   1.528   4.506 -3.8730 -1.6615  2.8148
  855MOL0     H15364   4.137   1.323   4.379 -0.3713  0.6668 -0.4456
  855MOL0     H15365   4.204   1.223   4.511 -0.6897  0.3396  1.8621
  855MOL0     H15366   3.973   1.222   4.569  0.2785  0.5111  1.2778
  855MOL0     H15367   4.032   1.367   4.649  1.1810  0.4110  0.6100
  855MOL0     H15368   3.953   1.490   4.424  1.2790 -0.2160 -0.8440
  855MOL0     H15369   3.856   1.343   4.412 -2.3646 -0.9042  3.3309
  855MOL0     H15370   3.742   1.523   4.514  1.5009 -0.5164 -1.9243
  855MOL0     H15371   3.749   1.377   4.621 -1.6094 -0.2933 -2.1071
  855MOL0     H15372   3.919   1.500   4.766  1.0753 -1.0288  0.6010
  855MOL0     H15373   3.962   1.605   4.637  0.5669 -0.1009  0.6588
  855MOL0     H15374   3.731   1.712   4.649 -0.0326  1.4217  1.5109
  855MOL0     H15375   3.833   1.744   4.785 -0.4503  0.7982  1.3889
  855MOL0     H15376   3.499   1.591   4.693  0.2817  0.0758  0.1031
  855MOL0     H15377   3.305   1.477   4.870  1.4489 -0.3810  0.1947
  855MOL0     H15378   3.299   1.563   5.022 -0.3419 -2.8086 -0.0680
  855MOL0     H15379   3.279   1.653   4.732 -3.0744  0.9084 -0.4270
  855MOL0     H15380   3.306   1.778   4.864 -1.3892  1.2615 -0.0200
  855MOL0     H15381   3.114   1.721   4.972  0.6843 -0.9819  0.1508
  855MOL0     H15382   3.058   1.603   4.848  0.5678  0.0310 -1.0826
  855MOL0     H15383   3.047   1.773   4.675  2.9278  0.7560 -0.3032
  855MOL0     H15384   3.098   1.904   4.777  0.7367  0.3575  0.8981
  855MOL0     H15385   2.701   1.910   4.907  0.4242  0.7534  0.7666
  855MOL0     H15386   2.372   1.868   4.839  0.2081 -1.4589 -1.0236
  855MOL0     H15387   2.395   1.744   4.974 -0.1713 -1.0583 -1.4104
  855MOL0     H15388   2.468   1.897   4.963  1.0624 -0.3911 -0.8259
  855MOL0     H15389   2.429   1.344   4.452  0.3523 -1.7192 -2.0357
  855MOL0     H15390   2.233   1.202   4.367 -2.2591 -3.0999  0.7149
  855MOL0     H15391   1.873   1.152   4.625 -0.5452  2.2242  0.8773
  855MOL0     H15392   1.894   1.288   4.504 -3.4522 -0.2224  0.5183
  855MOL0     H15393   1.857   1.139   4.323  4.2589 -1.5886  0.3380
  855MOL0     H15394   1.841   1.002   4.431  2.0500 -0.2604 -1.0727
  855MOL0     H15395   1.660   1.240   4.464 -3.3100 -0.6459  0.8004
  855MOL0     H15396   1.635   1.074   4.522 -1.6389  1.4317 -0.3568
  855MOL0     H15397   1.616   1.195   4.246 -0.9628  0.3918  0.1371
  855MOL0     H15398   1.616   1.015   4.269 -0.0522  0.8644 -1.4223
  855MOL0     H15399   1.413   1.205   4.390 -2.0140  0.3434 -1.4847
  855MOL0     H15400   1.412   1.024   4.387 -1.6592 -0.7841 -0.3432
  855MOL0     H15401   1.389   1.212   4.155  1.1373 -1.8944 -0.1931
  855MOL0     H15402   1.403   1.044   4.134  0.1267  1.5931 -1.6477
  855MOL0     H15403   1.177   1.017   4.255  0.7359 -0.2046  1.1174
  855MOL0     H15404   1.182   1.121   4.115 -1.6217 -1.1687  1.1587
  855MOL0     H15405   1.190   1.309   4.302  0.7311 -0.6017 -2.4418
  855MOL0     H15406   1.168   1.174   4.419  1.1482 -1.3811 -0.3061
  855MOL0     H15407   2.056   1.238   4.744 -1.2303 -1.9048 -0.5275
  855MOL0     H15408   2.242   1.361   4.843  3.0642 -2.2623  0.9109
  855MOL0     H15409   2.702   1.491   4.651  0.8226 -0.4885  0.4904
  855MOL0     H15410   2.894   1.610   4.683 -0.5727 -1.9288 -0.0217
  855MOL0     H15411   4.612   1.340   4.426  1.7225 -0.8792 -1.7074
  855MOL0     H15412   4.845   1.378   4.351 -0.5449 -0.4937  0.7744
  855MOL0     H15413   5.208   1.769   4.317 -1.6536  2.9105 -1.7150
  855MOL0     H15414   5.436   1.801   4.243 -1.2345  1.6272 -0.7064
  855MOL0     H15415   5.617   1.866   4.099  1.1673 -0.3249  1.1839
  855MOL0     H15416   5.693   1.723   4.175 -2.4130 -2.1779  0.5669
  855MOL0     H15417   5.843   1.840   4.039  1.2501  0.8162 -2.0242
  855MOL0     H15418   5.743   1.819   3.893 -0.1858  0.5758 -0.3787
  855MOL0     H15419   5.762   1.569   3.911 -1.4312  1.9078 -0.6361
  855MOL0     H15420   5.856   1.587   4.050 -1.9933  1.0617  1.2578
  855MOL0     H15421   6.009   1.744   3.890 -1.9386  1.7255  2.1303
  855MOL0     H15422   5.909   1.691   3.761 -1.7484  0.0275  0.2731
  855MOL0     H15423   6.196   1.377   3.817  1.4261  0.6507  0.8639
  855MOL0     H15424   5.365   1.551   3.893 -0.3108 -2.5265 -0.2050
  855MOL0     H15425   5.152   1.501   3.973  2.6453 -0.1155 -1.7342
  856MOL0     O15426   1.420   6.757   6.211  0.0483 -0.2428  0.3215
  856MOL0     C15427   1.406   6.830   6.312  0.7835  0.5706 -1.0678
  856MOL0     O15428   1.291   6.895   6.349 -0.3689  0.3955 -0.1314
  856MOL0     C15429   1.202   6.911   6.244  0.0723  0.4237 -0.3171
  856MOL0     C15430   1.249   6.946   6.113  0.1587  0.1699  0.6921
  856MOL0     C15431   1.155   6.977   6.015  0.6350 -0.3524 -1.1100
  856MOL0     C15432   1.019   6.983   6.040 -0.7186 -0.0423 -0.7807
  856MOL0     O15433   0.941   7.017   5.934  0.1841 -0.0112  0.2200
  856MOL0     C15434   0.798   6.985   5.925  0.6676  0.5302  0.2237
  856MOL0     C15435   0.742   7.080   5.828  0.9398 -0.9319 -0.4021
  856MOL0     C15436   0.594   7.046   5.817 -0.1946  0.4364 -0.7177
  856MOL0     C15437   0.533   7.142   5.725 -0.1143 -0.7325 -0.1189
  856MOL0     C15438   0.378   7.129   5.713  0.6379  0.1058  0.1518
  856MOL0     C15439   0.309   7.155   5.845  0.4811  0.2929 -0.5100
  856MOL0     C15440   0.351   7.283   5.920  0.3670  0.1556 -0.3975
  856MOL0     C15441   0.325   7.421   5.867  0.1566 -0.8556  0.5336
  856MOL0     N15442   0.184   7.446   5.831  0.4846  0.4857 -0.1666
  856MOL0     C15443   0.131   7.432   5.702  0.2342  0.9945  0.4798
  856MOL0     C15444  -0.002   7.419   5.721 -0.7036  0.1648 -0.0676
  856MOL0     C15445  -0.098   7.411   5.611 -0.3735  0.0658  0.0008
  856MOL0     C15446  -0.230   7.354   5.664 -0.2553  0.3849  0.5201
  856MOL0     C15447  -0.236   7.200   5.687 -0.2192 -0.0377 -1.0392
  856MOL0     C15448  -0.119   7.138   5.761 -0.2348  0.4845 -0.3266
  856MOL0     O15449  -0.141   6.999   5.786  0.4742  0.3775 -0.6707
  856MOL0     C15450  -0.029   6.914   5.803 -0.0411 -0.4187 -0.0970
  856MOL0     C15451  -0.000   6.812   5.715 -0.5039  0.3330  0.4601
  856MOL0     C15452   0.101   6.721   5.746 -0.0281 -0.1614 -0.1741
  856MOL0     C15453   0.113   6.613   5.648 -0.3606 -0.2710 -0.1693
  856MOL0     C15454   0.175   6.733   5.870 -0.3458  0.0905 -0.4106
  856MOL0     C15455   0.295   6.650   5.913  0.5770  0.5448 -0.2682
  856MOL0     O15456   0.328   6.666   6.039 -0.5065 -0.0089 -0.6374
  856MOL0     C15457   0.462   6.637   6.055  1.0212 -0.7748  0.0552
  856MOL0     C15458   0.543   6.741   6.094 -0.4865  0.2490 -1.0540
  856MOL0     C15459   0.675   6.721   6.123  0.8238 -0.5291 -0.1777
  856MOL0     C15460   0.733   6.595   6.126 -0.2064  0.1570 -0.1772
  856MOL0     O15461   0.854   6.573   6.183  0.0591 -0.4989  0.1920
  856MOL0     C15462   0.935   6.474   6.124  0.0199  0.2923  0.4521
  856MOL0     C15463   1.079   6.510   6.149 -0.1386 -0.8546 -0.5769
  856MOL0     C15464   1.174   6.402   6.108  1.0480  0.3656 -0.3469
  856MOL0     C15465   1.317   6.460   6.090  0.2467  1.3852 -0.1509
  856MOL0     C15466   1.406   6.354   6.020 -0.7180  0.0061  0.7887
  856MOL0     C15467   1.551   6.393   6.047 -0.4971  0.7643  0.2055
  856MOL0     C15468   1.640   6.273   6.013 -0.4957  0.8979 -0.6280
  856MOL0     C15469   1.658   6.165   6.119  0.5828 -0.1844  0.1815
  856MOL0    Cl15470   1.755   6.217   6.260 -0.1759  0.4339 -0.0593
  856MOL0     C15471   0.652   6.494   6.079 -0.7634 -0.5786  0.8356
  856MOL0     C15472   0.521   6.518   6.033 -1.1501  0.1509 -0.0746
  856MOL0     O15473   0.354   6.594   5.820  0.1905  0.1493  0.3151
  856MOL0     C15474   0.137   6.838   5.965  0.5806  0.2235  0.4132
  856MOL0     C15475   0.033   6.928   5.930 -0.6005 -0.5128 -0.4660
  856MOL0     N15476  -0.028   7.414   5.864 -0.3061  0.2018  0.3526
  856MOL0     N15477   0.080   7.436   5.923  0.1435 -0.6337  0.0594
  856MOL0     C15478   0.980   6.977   6.171  0.5804  0.1872 -0.7228
  856MOL0     C15479   1.072   6.941   6.272 -0.2336 -0.8814  0.6711
  856MOL0     C15480   1.519   6.834   6.416 -0.1160  0.3662  0.5675
  856MOL0     C15481   1.654   6.814   6.373  0.1237 -0.8877 -0.4113
  856MOL0     C15482   1.757   6.830   6.463 -0.5532 -0.6931  0.9033
  856MOL0     C15483   1.737   6.860   6.594 -0.3030  0.1052 -0.4987
  856MOL0     O15484   1.853   6.898   6.659 -0.3583  0.6312 -0.3462
  856MOL0     C15485   1.829   6.974   6.784 -0.0850 -0.6717  0.0849
  856MOL0     C15486   1.957   6.977   6.872 -0.2864  0.5876  0.9496
  856MOL0     C15487   2.082   7.044   6.818  0.7004 -0.3523 -0.0570
  856MOL0     C15488   2.071   7.194   6.787  0.0323 -0.1461  0.1053
  856MOL0     C15489   2.194   7.249   6.731  0.0765  0.0759  0.5972
  856MOL0     C15490   2.296   7.289   6.684  0.5667 -0.8608  0.4682
  856MOL0     C15491   1.605   6.855   6.644  0.4202 -0.1254  0.3760
  856MOL0     C15492   1.501   6.849   6.555  0.1417 -0.3671 -0.0267
  856MOL0     H15493   1.353   6.952   6.082  1.1257 -2.7374  2.9058
  856MOL0     H15494   1.189   6.988   5.912  1.4754  1.0286 -0.7112
  856MOL0     H15495   0.791   6.884   5.886 -1.7027  1.5302 -2.2389
  856MOL0     H15496   0.752   6.994   6.024  0.0721  1.4972 -0.1200
  856MOL0     H15497   0.743   7.172   5.888 -1.0595 -1.4762  0.5607
  856MOL0     H15498   0.803   7.081   5.738  2.9132 -0.2585  0.8666
  856MOL0     H15499   0.578   6.941   5.789 -0.2719 -0.0182  0.9663
  856MOL0     H15500   0.555   7.058   5.918  2.8685  1.2939  0.4549
  856MOL0     H15501   0.568   7.238   5.765 -1.9543  0.0637 -0.2885
  856MOL0     H15502   0.577   7.141   5.625  1.1662  4.4458  0.0883
  856MOL0     H15503   0.350   7.199   5.633 -1.4026  0.2286  0.9230
  856MOL0     H15504   0.349   7.026   5.693 -0.7895  0.0277  2.2763
  856MOL0     H15505   0.201   7.160   5.827  0.3864  1.5290  0.2697
  856MOL0     H15506   0.328   7.070   5.911 -0.7768  0.0736 -0.4108
  856MOL0     H15507   0.304   7.266   6.017  0.6322 -2.3230 -0.6501
  856MOL0     H15508   0.457   7.271   5.943  0.0880  0.2398  1.0266
  856MOL0     H15509   0.377   7.441   5.772 -0.1827  1.2191  0.7317
  856MOL0     H15510   0.359   7.494   5.941  0.2996  0.4337 -0.7397
  856MOL0     H15511   0.185   7.430   5.608  3.1162 -2.2141  1.9970
  856MOL0     H15512  -0.112   7.511   5.569  0.0504  1.2532  2.5385
  856MOL0     H15513  -0.060   7.360   5.522 -0.6586 -1.0766  0.5186
  856MOL0     H15514  -0.298   7.350   5.578 -0.6498 -4.4369  0.8323
  856MOL0     H15515  -0.273   7.411   5.747 -1.3719 -2.5606  2.1029
  856MOL0     H15516  -0.264   7.146   5.596 -0.3902 -1.1744 -0.3295
  856MOL0     H15517  -0.320   7.179   5.755 -0.7138  1.1549 -1.2570
  856MOL0     H15518  -0.095   7.180   5.859 -1.2506 -1.9419  1.0613
  856MOL0     H15519  -0.028   7.143   5.701  2.3863  0.7672  3.3611
  856MOL0     H15520  -0.052   6.808   5.619  0.1805 -2.7579  0.1231
  856MOL0     H15521   0.198   6.636   5.584 -0.6416 -2.4884 -1.4306
  856MOL0     H15522   0.124   6.515   5.695  3.9994 -0.5883 -1.4364
  856MOL0     H15523   0.023   6.608   5.586 -0.9513 -0.5162  0.6853
  856MOL0     H15524   0.499   6.836   6.120  2.4081  1.3088  0.4421
  856MOL0     H15525   0.731   6.801   6.171 -0.0138 -0.8242  1.3472
  856MOL0     H15526   0.906   6.376   6.163 -1.3654  0.8369  0.8397
  856MOL0     H15527   0.924   6.457   6.017 -0.4142 -1.0464  0.6913
  856MOL0     H15528   1.097   6.608   6.103 -4.2852  1.3104  1.7472
  856MOL0     H15529   1.098   6.532   6.255 -3.1811 -2.1155  0.3439
  856MOL0     H15530   1.136   6.353   6.018 -3.1174 -0.7027  1.7367
  856MOL0     H15531   1.169   6.325   6.186  0.3054  0.3649 -0.3925
  856MOL0     H15532   1.311   6.558   6.041 -0.7702  0.7783 -1.2926
  856MOL0     H15533   1.352   6.477   6.192  0.0184  1.9962 -0.1638
  856MOL0     H15534   1.397   6.360   5.911 -2.5167 -2.0772  0.7444
  856MOL0     H15535   1.370   6.252   6.037 -1.0273 -0.6861 -3.0042
  856MOL0     H15536   1.578   6.482   5.990 -0.5951 -0.4136 -1.7669
  856MOL0     H15537   1.569   6.415   6.153  1.1812 -0.3780  0.2083
  856MOL0     H15538   1.739   6.316   5.997 -0.4452 -0.0517 -3.2372
  856MOL0     H15539   1.594   6.230   5.924 -0.1389  1.8033 -1.2638
  856MOL0     H15540   1.705   6.079   6.071  0.7163 -0.9170  1.5765
  856MOL0     H15541   1.559   6.144   6.162  0.1556  3.2718  1.2448
  856MOL0     H15542   0.690   6.393   6.068  0.6398 -0.1899  1.7744
  856MOL0     H15543   0.466   6.427   6.012 -1.0058  0.1428 -0.4387
  856MOL0     H15544   0.185   6.855   6.061  0.0514 -2.8429  1.3288
  856MOL0     H15545  -0.001   7.000   6.004 -1.8093 -2.5317  1.0554
  856MOL0     H15546   0.879   7.008   6.198  0.7961  1.3346 -1.1514
  856MOL0     H15547   1.052   6.948   6.378 -1.5416  0.8056  0.3552
  856MOL0     H15548   1.675   6.808   6.266  0.8348 -2.1437 -0.2273
  856MOL0     H15549   1.854   6.836   6.415 -1.9456 -2.8965 -2.6188
  856MOL0     H15550   1.791   7.076   6.770  1.1477 -0.0728  0.9124
  856MOL0     H15551   1.747   6.933   6.844 -0.9747  0.1116 -0.5716
  856MOL0     H15552   1.992   6.875   6.891 -0.6890 -0.4851 -3.0937
  856MOL0     H15553   1.934   7.030   6.965 -0.6096  2.4727 -0.1581
  856MOL0     H15554   2.109   6.987   6.729  1.7960  1.1050 -0.7164
  856MOL0     H15555   2.165   7.031   6.888  0.9876  1.6237  0.0350
  856MOL0     H15556   2.036   7.246   6.877 -1.1405  0.4907 -0.6858
  856MOL0     H15557   1.995   7.210   6.710  0.2367  1.0924  0.1428
  856MOL0     H15558   2.387   7.330   6.644 -0.7052  0.9818 -0.7242
  856MOL0     H15559   1.578   6.858   6.749 -0.6740 -3.1062  0.2779
  856MOL0     H15560   1.405   6.872   6.600  1.9951  1.0174  3.6398
  857MOL0     O15561  11.270   2.171   5.350 -0.2344 -0.1772 -0.2141
  857MOL0     C15562  11.306   2.094   5.433  0.2182 -0.5945  0.1131
  857MOL0     O15563  11.240   1.974   5.462 -0.3937  0.0241 -0.6772
  857MOL0     C15564  11.127   1.927   5.404 -0.2838  0.0618  0.1281
  857MOL0     C15565  11.129   1.791   5.374 -0.0100  0.2295  0.6704
  857MOL0     C15566  11.025   1.731   5.305  0.4228  1.5074 -0.2152
  857MOL0     C15567  10.908   1.804   5.279  1.3624 -0.2509 -0.0284
  857MOL0     O15568  10.804   1.730   5.225  0.1577 -0.1523 -0.2708
  857MOL0     C15569  10.662   1.754   5.247 -0.0903 -1.2011 -0.3931
  857MOL0     C15570  10.586   1.626   5.190 -0.4035  0.2636  0.1568
  857MOL0     C15571  10.441   1.670   5.177 -0.0016  0.0893 -0.0093
  857MOL0     C15572  10.352   1.566   5.102  0.1682 -0.7717  0.2510
  857MOL0     C15573  10.204   1.611   5.084  0.2686  0.0037 -1.0620
  857MOL0     C15574  10.189   1.731   4.994  0.2978 -0.2411 -0.3138
  857MOL0     C15575  10.041   1.753   4.953  0.1213 -0.0624  0.1414
  857MOL0     C15576   9.950   1.808   5.064  0.4536 -0.4477  0.6307
  857MOL0     N15577   9.806   1.803   5.037  0.0749 -0.2579 -0.2202
  857MOL0     C15578   9.734   1.691   5.007 -0.3660 -0.5144  0.3014
  857MOL0     C15579   9.608   1.716   5.029  0.8614 -0.4501  0.7515
  857MOL0     C15580   9.488   1.629   4.992 -0.6492 -0.7572  1.2178
  857MOL0     C15581   9.364   1.614   5.096  0.3213 -0.0157 -1.0101
  857MOL0     C15582   9.246   1.525   5.062 -0.0572  0.0487 -0.1225
  857MOL0     C15583   9.187   1.574   4.931 -0.7651  0.4692  0.5070
  857MOL0     O15584   9.081   1.475   4.915  0.0097  0.2560  0.1959
  857MOL0     C15585   8.970   1.517   4.844 -0.1865  0.0520 -0.2363
  857MOL0     C15586   8.841   1.480   4.888  0.1708  0.3024  1.0249
  857MOL0     C15587   8.734   1.503   4.804  0.3479 -0.8959  0.1454
  857MOL0     C15588   8.616   1.429   4.839 -0.7237  0.1515 -0.0370
  857MOL0     C15589   8.741   1.587   4.686 -0.3366  0.2510 -0.2996
  857MOL0     C15590   8.623   1.634   4.606 -0.7832 -0.2134  0.3857
  857MOL0     O15591   8.512   1.667   4.678 -0.2178  0.0507 -0.2602
  857MOL0     C15592   8.399   1.708   4.617  0.8011  0.0471 -0.4255
  857MOL0     C15593   8.322   1.622   4.550  1.2680  0.6188  0.7509
  857MOL0     C15594   8.198   1.654   4.497  0.1749 -1.0699  0.2984
  857MOL0     C15595   8.155   1.790   4.497 -0.8290 -1.0897 -0.7998
  857MOL0     O15596   8.040   1.816   4.429 -0.0770  0.1343  0.5372
  857MOL0     C15597   8.030   1.935   4.352 -0.2487 -0.4841 -0.2946
  857MOL0     C15598   7.892   1.932   4.284 -0.1390 -0.0240  0.8839
  857MOL0     C15599   7.789   1.991   4.385  0.0943 -0.2819  0.1694
  857MOL0     C15600   7.644   2.013   4.320 -0.4807 -0.2900 -0.5603
  857MOL0     C15601   7.591   1.885   4.265  0.8874  0.6745 -0.0438
  857MOL0     C15602   7.445   1.904   4.243 -0.2219 -0.5192 -0.0784
  857MOL0     C15603   7.383   1.782   4.183 -0.0785 -0.1487  0.8534
  857MOL0     C15604   7.236   1.800   4.161  0.2332  0.1424  0.5356
  857MOL0    Cl15605   7.132   1.830   4.311 -0.0692  0.0717 -0.1816
  857MOL0     C15606   8.237   1.878   4.563  0.0539 -0.4567 -0.5556
  857MOL0     C15607   8.350   1.838   4.627  0.1394 -0.3561 -0.8352
  857MOL0     O15608   8.646   1.662   4.486  0.7733 -0.2544 -0.3389
  857MOL0     C15609   8.866   1.639   4.656  0.8187 -0.5247 -0.0781
  857MOL0     C15610   8.981   1.589   4.723 -0.1620 -1.0252  0.1424
  857MOL0     N15611   9.604   1.844   5.091 -0.1897  0.6335 -0.1539
  857MOL0     N15612   9.724   1.892   5.095  0.9894  0.2691  0.0489
  857MOL0     C15613  10.892   1.937   5.313 -0.1439  0.3306  0.3920
  857MOL0     C15614  11.008   2.004   5.367 -0.0163  0.4886 -0.1831
  857MOL0     C15615  11.448   2.124   5.488  0.9678  0.7378 -0.1458
  857MOL0     C15616  11.503   2.036   5.581  0.3031  1.2217 -0.3343
  857MOL0     C15617  11.635   2.055   5.633  0.0130  0.0571 -0.4990
  857MOL0     C15618  11.709   2.170   5.586  0.2302 -0.0114 -0.0402
  857MOL0     O15619  11.826   2.210   5.645  0.6252  0.5745 -0.3130
  857MOL0     C15620  11.888   2.134   5.750  0.5335  1.3560 -0.0372
  857MOL0     C15621  12.037   2.180   5.762 -0.1096  0.5560 -0.1099
  857MOL0     C15622  12.052   2.327   5.793 -0.2838  0.1818 -0.6706
  857MOL0     C15623  12.201   2.356   5.824 -0.5711 -0.1148 -0.0148
  857MOL0     C15624  12.282   2.340   5.699  0.4380 -0.1420 -0.3035
  857MOL0     C15625  12.322   2.303   5.591  0.1097 -0.0308  0.2279
  857MOL0     C15626  11.650   2.259   5.496 -1.1229 -0.2283  0.6342
  857MOL0     C15627  11.526   2.234   5.445 -0.1768 -0.1527 -0.0452
  857MOL0     H15628  11.218   1.731   5.392 -1.6992 -2.6199  0.0955
  857MOL0     H15629  11.036   1.629   5.270 -2.0986  1.3061 -0.5999
  857MOL0     H15630  10.639   1.759   5.353  0.0523  1.1686 -0.4268
  857MOL0     H15631  10.622   1.846   5.203  0.7704  0.0091  1.2362
  857MOL0     H15632  10.632   1.599   5.095  2.0380 -0.2505  1.4030
  857MOL0     H15633  10.591   1.539   5.256 -0.0531 -0.8937 -1.3377
  857MOL0     H15634  10.400   1.677   5.278  0.5429 -1.3848  0.3374
  857MOL0     H15635  10.430   1.771   5.137 -0.6187  0.0055 -0.0731
  857MOL0     H15636  10.392   1.553   5.001  2.2710  1.4503  0.7022
  857MOL0     H15637  10.354   1.474   5.162 -1.8072 -2.0544 -1.4916
  857MOL0     H15638  10.151   1.524   5.045  1.3621 -0.9368 -0.4904
  857MOL0     H15639  10.157   1.644   5.177 -1.1859  0.8737 -2.0562
  857MOL0     H15640  10.242   1.820   5.028  0.6172 -0.9329  1.0649
  857MOL0     H15641  10.244   1.699   4.905  1.7334  0.5757  0.2406
  857MOL0     H15642  10.033   1.818   4.866  0.6529 -0.7949 -0.4621
  857MOL0     H15643  10.001   1.660   4.913  0.4603 -0.8510  1.5674
  857MOL0     H15644   9.981   1.911   5.083  0.8520 -0.2796 -0.7681
  857MOL0     H15645   9.971   1.745   5.151 -2.4315  0.4240  2.0900
  857MOL0     H15646   9.775   1.596   4.973  1.1699 -0.5734  2.1718
  857MOL0     H15647   9.446   1.670   4.899 -0.7072  1.6103  2.2251
  857MOL0     H15648   9.532   1.530   4.979  0.8849 -0.1573  1.5647
  857MOL0     H15649   9.328   1.717   5.110 -1.6541 -0.8143  0.2869
  857MOL0     H15650   9.408   1.588   5.192 -0.3968  0.4951 -0.5301
  857MOL0     H15651   9.161   1.539   5.130  0.6236  1.0531  0.5486
  857MOL0     H15652   9.276   1.420   5.052 -1.8487 -0.5157  0.0462
  857MOL0     H15653   9.257   1.571   4.847  0.9886  1.2179  1.8880
  857MOL0     H15654   9.147   1.674   4.952 -0.2426  0.6370  0.6997
  857MOL0     H15655   8.841   1.419   4.978 -0.8226  0.4244  1.1184
  857MOL0     H15656   8.586   1.440   4.943 -0.4736 -1.0076  0.1707
  857MOL0     H15657   8.520   1.456   4.794 -2.6627 -3.5707  1.4227
  857MOL0     H15658   8.630   1.326   4.804 -2.7880 -1.4542  3.2961
  857MOL0     H15659   8.349   1.518   4.536  0.0561  0.5908 -2.2206
  857MOL0     H15660   8.150   1.571   4.444 -0.6873 -0.0813 -0.5267
  857MOL0     H15661   8.065   2.020   4.411 -0.3490 -1.3893  1.1455
  857MOL0     H15662   8.096   1.937   4.265 -1.2359  3.1957 -1.1378
  857MOL0     H15663   7.905   1.987   4.190  0.2992 -0.8622  0.4457
  857MOL0     H15664   7.861   1.830   4.262 -3.6954  1.4729 -2.1618
  857MOL0     H15665   7.819   2.086   4.430  1.6941 -1.1522  1.0406
  857MOL0     H15666   7.771   1.919   4.466  1.6199  0.2130  0.9847
  857MOL0     H15667   7.578   2.050   4.399 -0.4373 -1.6940  0.1589
  857MOL0     H15668   7.658   2.082   4.236 -0.4946  1.2925  0.6968
  857MOL0     H15669   7.611   1.801   4.331  2.3692 -0.2307 -1.5502
  857MOL0     H15670   7.646   1.848   4.177  3.7573 -1.2829  2.3560
  857MOL0     H15671   7.393   1.920   4.338  1.0710 -1.2290  0.7640
  857MOL0     H15672   7.427   1.995   4.185 -1.8544 -2.0794 -2.1591
  857MOL0     H15673   7.398   1.693   4.246 -1.8715  0.8233  2.7916
  857MOL0     H15674   7.426   1.755   4.086 -1.3334  0.1988  0.1831
  857MOL0     H15675   7.209   1.703   4.118  4.7744 -1.2224  0.2457
  857MOL0     H15676   7.207   1.877   4.089 -1.2878 -1.4005 -0.5778
  857MOL0     H15677   8.206   1.981   4.575  0.6706 -0.2260 -0.8897
  857MOL0     H15678   8.389   1.916   4.692 -2.2006 -0.1559  0.4663
  857MOL0     H15679   8.875   1.704   4.569  1.4896 -2.7861 -1.7891
  857MOL0     H15680   9.076   1.611   4.675  0.1327 -3.0205 -0.2493
  857MOL0     H15681  10.795   1.982   5.293 -0.6616 -0.8881  0.0819
  857MOL0     H15682  10.999   2.109   5.392  1.1472  0.6386 -0.3404
  857MOL0     H15683  11.443   1.951   5.613 -0.5850  1.8065 -0.4040
  857MOL0     H15684  11.671   1.995   5.717  3.3792  0.2980 -1.6139
  857MOL0     H15685  11.831   2.155   5.841 -1.4141  2.0084 -1.3184
  857MOL0     H15686  11.880   2.026   5.736  1.0719  1.0729  1.6730
  857MOL0     H15687  12.082   2.172   5.663  2.8090 -0.2878  1.1666
  857MOL0     H15688  12.081   2.118   5.841  1.2283  2.1153  0.4217
  857MOL0     H15689  11.987   2.339   5.880  0.2236 -0.3176 -0.2123
  857MOL0     H15690  12.009   2.397   5.720 -3.2248  1.3428  1.9458
  857MOL0     H15691  12.228   2.292   5.909  0.8303  0.7802  0.2408
  857MOL0     H15692  12.228   2.453   5.867  3.5439 -1.2453  0.3702
  857MOL0     H15693  12.354   2.256   5.500 -0.3680  1.1566 -0.5832
  857MOL0     H15694  11.700   2.345   5.454  0.3170 -1.7201 -0.8508
  857MOL0     H15695  11.481   2.305   5.376 -1.0383  0.3654  1.0144
  858MOL0     O15696   1.196  10.874   2.729  0.3906  0.3682  0.5198
  858MOL0     C15697   1.250  10.938   2.637  0.1045  0.4936 -0.6452
  858MOL0     O15698   1.184  11.001   2.532 -1.2737 -0.0626 -0.5723
  858MOL0     C15699   1.056  11.040   2.556 -0.3453 -0.0069 -0.2155
  858MOL0     C15700   0.950  11.018   2.463  0.5142 -1.0092  0.4590
  858MOL0     C15701   0.818  11.064   2.493 -0.6316 -0.6882 -0.0748
  858MOL0     C15702   0.796  11.137   2.608 -0.3525  0.6229 -0.4875
  858MOL0     O15703   0.670  11.167   2.645 -0.6627  0.0418  0.5978
  858MOL0     C15704   0.627  11.297   2.691  0.5245  0.1804  0.1773
  858MOL0     C15705   0.497  11.330   2.611 -0.0030  1.3105  0.7328
  858MOL0     C15706   0.404  11.422   2.687  0.4986 -0.8782 -0.4121
  858MOL0     C15707   0.293  11.474   2.592  0.1027 -0.1587 -0.4493
  858MOL0     C15708   0.183  11.565   2.661  0.3434 -0.3356  1.1385
  858MOL0     C15709   0.074  11.608   2.564  0.5027 -0.6256 -0.0088
  858MOL0     C15710  -0.010  11.714   2.631 -0.7173 -0.0073 -0.0326
  858MOL0     C15711  -0.144  11.724   2.561  0.7990  0.6275  0.1706
  858MOL0     N15712  -0.128  11.782   2.430  0.2404 -1.1505 -0.2461
  858MOL0     C15713  -0.046  11.890   2.405 -0.5403  0.3258 -0.5292
  858MOL0     C15714  -0.061  11.905   2.273 -0.2722  0.5622  0.0139
  858MOL0     C15715   0.012  12.005   2.191 -0.7059  0.0696  0.5501
  858MOL0     C15716   0.005  12.134   2.272  0.0906  0.0163  0.0523
  858MOL0     C15717  -0.003  12.253   2.173 -0.3426 -0.2977  0.6149
  858MOL0     C15718  -0.143  12.272   2.112  1.3501  0.0161  0.8591
  858MOL0     O15719  -0.235  12.296   2.218 -0.1426  0.1059  0.2709
  858MOL0     C15720  -0.359  12.240   2.205 -1.1390  0.2792  0.2674
  858MOL0     C15721  -0.377  12.105   2.192 -0.6935 -0.2976  0.5326
  858MOL0     C15722  -0.506  12.046   2.166  1.0455  0.0909 -0.2022
  858MOL0     C15723  -0.524  11.895   2.152  0.0453 -0.8617 -0.5701
  858MOL0     C15724  -0.621  12.144   2.171 -0.8461 -0.6111  0.1483
  858MOL0     C15725  -0.760  12.091   2.138  0.6922 -0.0353  0.3381
  858MOL0     O15726  -0.855  12.161   2.196 -0.9377  0.3862 -0.3787
  858MOL0     C15727  -0.987  12.148   2.157  0.2329 -0.6635  0.8874
  858MOL0     C15728  -1.069  12.090   2.257 -0.5165 -0.1855 -0.1156
  858MOL0     C15729  -1.198  12.057   2.220 -1.1516  0.5733 -0.2416
  858MOL0     C15730  -1.247  12.080   2.097 -0.6069 -0.7078  0.4637
  858MOL0     O15731  -1.381  12.051   2.087  0.0972  0.0987 -0.6881
  858MOL0     C15732  -1.445  12.052   1.960 -1.2356  0.2903  0.7078
  858MOL0     C15733  -1.582  11.999   1.973 -0.1953  0.1066  0.1317
  858MOL0     C15734  -1.645  12.018   1.836 -0.2824  0.5428  0.1313
  858MOL0     C15735  -1.779  11.949   1.833 -0.4738 -0.7574 -0.2950
  858MOL0     C15736  -1.856  11.994   1.705 -0.2865  0.1475 -0.2588
  858MOL0     C15737  -1.969  11.896   1.680 -0.0941  0.2097 -0.5807
  858MOL0     C15738  -2.054  11.931   1.555 -1.0321 -0.4291  1.3849
  858MOL0     C15739  -2.176  11.844   1.536 -0.4358 -0.2654 -0.2296
  858MOL0    Cl15740  -2.230  11.881   1.366  0.1160 -0.1924 -0.1040
  858MOL0     C15741  -1.168  12.133   1.993 -0.7655  0.0608  0.1852
  858MOL0     C15742  -1.036  12.174   2.023  0.4370 -0.3920 -0.7187
  858MOL0     O15743  -0.781  11.999   2.058  0.1872  0.0621 -0.1752
  858MOL0     C15744  -0.606  12.278   2.210 -0.5561  0.3340  1.1294
  858MOL0     C15745  -0.471  12.320   2.216 -0.0096 -0.3847 -0.0991
  858MOL0     N15746  -0.157  11.819   2.215 -0.1021  0.1096 -0.2237
  858MOL0     N15747  -0.193  11.744   2.317 -0.9643 -0.7799  0.0608
  858MOL0     C15748   0.906  11.166   2.690 -0.2130  0.9595 -0.2235
  858MOL0     C15749   1.035  11.126   2.660 -0.1241 -0.2701 -0.7455
  858MOL0     C15750   1.399  10.942   2.647 -0.8344  0.1942  0.3841
  858MOL0     C15751   1.470  10.876   2.748  0.0380 -0.3620  0.9829
  858MOL0     C15752   1.615  10.885   2.740  1.2708  0.1945 -0.0990
  858MOL0     C15753   1.683  10.960   2.642  0.3635  0.1754  0.0727
  858MOL0     O15754   1.822  10.970   2.653  0.5431  0.2666  0.0675
  858MOL0     C15755   1.899  10.996   2.539 -0.2626 -0.3065 -0.1048
  858MOL0     C15756   2.044  11.013   2.586  0.7056 -0.6432 -1.1638
  858MOL0     C15757   2.126  11.037   2.460  0.0319 -0.3162  0.1394
  858MOL0     C15758   2.249  11.126   2.495  0.9518 -0.1291  0.2915
  858MOL0     C15759   2.349  11.146   2.390 -0.5031 -0.1733  0.7965
  858MOL0     C15760   2.429  11.163   2.299  0.3201  0.1306  0.2059
  858MOL0     C15761   1.604  11.016   2.539 -0.0373  0.1634  0.0244
  858MOL0     C15762   1.466  11.005   2.543  0.2401  0.2432  0.2901
  858MOL0     H15763   0.968  10.959   2.374 -0.0457  0.2289 -0.5012
  858MOL0     H15764   0.733  11.037   2.431  0.5152  1.9752 -3.0922
  858MOL0     H15765   0.613  11.281   2.798  0.6956 -2.4795 -0.1286
  858MOL0     H15766   0.702  11.374   2.671  0.2524  0.5258  0.4794
  858MOL0     H15767   0.529  11.388   2.524 -0.3229 -0.3990 -0.5904
  858MOL0     H15768   0.453  11.235   2.579 -0.0946  1.4705  0.3799
  858MOL0     H15769   0.355  11.368   2.768  1.7615 -2.5049 -0.6716
  858MOL0     H15770   0.462  11.502   2.734 -1.7194  0.4470  0.2006
  858MOL0     H15771   0.340  11.535   2.515  1.8616  2.0450  2.1871
  858MOL0     H15772   0.248  11.387   2.541 -1.8569  0.2122  0.5456
  858MOL0     H15773   0.142  11.520   2.752 -0.0036  2.0840  2.2643
  858MOL0     H15774   0.234  11.656   2.693  1.0115 -0.0664 -0.5927
  858MOL0     H15775   0.111  11.638   2.465  0.1236  0.4252  0.1586
  858MOL0     H15776   0.004  11.525   2.555 -1.7636  0.7384  3.2204
  858MOL0     H15777  -0.034  11.672   2.730 -0.8602  1.0625  0.3999
  858MOL0     H15778   0.033  11.813   2.647 -2.0918  0.6445 -0.2585
  858MOL0     H15779  -0.216  11.789   2.611 -1.5474 -1.1488 -0.7693
  858MOL0     H15780  -0.183  11.623   2.545 -0.6802  0.7042  2.6687
  858MOL0     H15781   0.012  11.949   2.475  0.5972 -1.9487  0.5516
  858MOL0     H15782   0.117  11.977   2.176  0.3685  2.8888  1.9818
  858MOL0     H15783  -0.033  12.011   2.092 -2.5217 -0.6315  1.2918
  858MOL0     H15784   0.089  12.139   2.342 -0.3162 -1.9618  0.7256
  858MOL0     H15785  -0.089  12.141   2.328  0.2980 -2.3978  0.8038
  858MOL0     H15786   0.051  12.234   2.080 -0.6315  0.3285  0.3168
  858MOL0     H15787   0.049  12.344   2.202  1.5155  0.0925 -3.2969
  858MOL0     H15788  -0.170  12.187   2.047  2.5882 -2.2361  3.1094
  858MOL0     H15789  -0.143  12.357   2.042  2.7918 -1.0974 -0.5734
  858MOL0     H15790  -0.291  12.042   2.212 -0.2606 -0.1982 -0.9639
  858MOL0     H15791  -0.576  11.856   2.240  0.1561  1.9683  0.8521
  858MOL0     H15792  -0.572  11.848   2.066 -0.0656 -4.9148  1.4430
  858MOL0     H15793  -0.424  11.851   2.160  0.3526 -0.0266  0.3999
  858MOL0     H15794  -1.034  12.073   2.358  0.1565 -1.4680 -0.5440
  858MOL0     H15795  -1.260  12.020   2.300 -0.0731  1.3567  0.9979
  858MOL0     H15796  -1.448  12.153   1.917 -0.5211 -0.3877 -1.0138
  858MOL0     H15797  -1.390  11.988   1.891 -0.5087 -0.2840  1.7930
  858MOL0     H15798  -1.581  11.892   1.995 -1.0602  0.6136  3.0416
  858MOL0     H15799  -1.636  12.042   2.057  0.0125 -3.7318  2.4937
  858MOL0     H15800  -1.586  11.981   1.752 -1.6676  0.1293 -0.7007
  858MOL0     H15801  -1.660  12.126   1.826 -1.5280  0.2626 -1.3942
  858MOL0     H15802  -1.766  11.842   1.846  3.1241 -0.2566  1.6261
  858MOL0     H15803  -1.846  11.980   1.914  0.7392  1.0607  0.0770
  858MOL0     H15804  -1.786  11.998   1.622  0.3210 -0.9587  0.1711
  858MOL0     H15805  -1.894  12.096   1.719  1.8633  0.9976 -0.3722
  858MOL0     H15806  -1.927  11.795   1.665 -4.9471 -2.2876  0.7482
  858MOL0     H15807  -2.033  11.882   1.767  0.4475  0.0247 -0.1999
  858MOL0     H15808  -1.985  11.915   1.473 -0.4961  1.8192  1.3261
  858MOL0     H15809  -2.078  12.037   1.543 -0.0070 -0.1602  1.6269
  858MOL0     H15810  -2.261  11.867   1.600  0.1886 -0.4457  0.6920
  858MOL0     H15811  -2.142  11.742   1.557 -3.9125 -1.1099  2.1417
  858MOL0     H15812  -1.204  12.156   1.893 -0.0525  1.5319  0.2352
  858MOL0     H15813  -0.971  12.207   1.943  0.1384 -3.9732 -2.6384
  858MOL0     H15814  -0.695  12.336   2.233 -1.3059 -1.9142  4.8525
  858MOL0     H15815  -0.448  12.424   2.240  0.1559 -0.4281 -0.0722
  858MOL0     H15816   0.893  11.219   2.784  0.9362 -4.3248  3.3598
  858MOL0     H15817   1.110  11.151   2.734 -0.0866  2.6380 -1.6246
  858MOL0     H15818   1.419  10.802   2.809 -0.8912 -1.6554 -1.2281
  858MOL0     H15819   1.672  10.819   2.805  1.1556 -0.3605 -0.5562
  858MOL0     H15820   1.902  10.904   2.481 -1.1651 -0.6558  0.3908
  858MOL0     H15821   1.858  11.085   2.488 -4.0710 -1.3900  0.7485
  858MOL0     H15822   2.078  10.926   2.643 -2.5929 -1.6639 -0.5049
  858MOL0     H15823   2.050  11.095   2.658 -0.1063 -2.0116  0.5452
  858MOL0     H15824   2.063  11.085   2.385 -2.0455  0.0861  2.0550
  858MOL0     H15825   2.156  10.944   2.411 -0.6803 -1.5265  1.9058
  858MOL0     H15826   2.302  11.093   2.585  2.3310  0.2384 -0.3578
  858MOL0     H15827   2.217  11.229   2.512  3.4130  0.6818  0.3858
  858MOL0     H15828   2.498  11.161   2.218  1.9557 -2.1300  1.5282
  858MOL0     H15829   1.648  11.080   2.463  0.8944  0.5664  0.8802
  858MOL0     H15830   1.404  11.046   2.464 -0.7095 -1.7368 -0.0770
  859MOL0     O15831   8.018   6.970   9.039 -0.0006  0.7898  0.7144
  859MOL0     C15832   7.952   6.896   9.107  0.9333 -0.0136 -0.9647
  859MOL0     O15833   8.003   6.833   9.220 -0.2732  0.4479 -1.0270
  859MOL0     C15834   8.142   6.820   9.229  0.7305  0.1173  0.5322
  859MOL0     C15835   8.204   6.840   9.352  0.3032  0.6159  0.4786
  859MOL0     C15836   8.344   6.831   9.358  0.2416 -0.0981  0.9047
  859MOL0     C15837   8.418   6.803   9.240  0.7927 -0.6856 -0.9887
  859MOL0     O15838   8.553   6.798   9.224 -0.3041 -0.0210  0.1719
  859MOL0     C15839   8.637   6.822   9.340  0.7888  0.5002 -0.7178
  859MOL0     C15840   8.789   6.840   9.309  0.1218 -0.0158  0.0552
  859MOL0     C15841   8.851   6.724   9.237  0.8538 -1.0267  0.4455
  859MOL0     C15842   9.006   6.723   9.224  0.6705 -1.1648 -0.7342
  859MOL0     C15843   9.061   6.613   9.140  0.1868  0.1886  0.3276
  859MOL0     C15844   8.999   6.616   9.001 -0.0508  0.3323  0.1966
  859MOL0     C15845   9.078   6.537   8.893 -0.5113 -0.7210 -0.3268
  859MOL0     C15846   9.069   6.389   8.905  0.4043 -0.6509  0.3813
  859MOL0     N15847   9.128   6.315   8.790  0.1519  1.8433 -0.1445
  859MOL0     C15848   9.093   6.326   8.651  0.0729  0.1029 -0.0206
  859MOL0     C15849   9.168   6.230   8.592  0.0423  0.5627  0.3213
  859MOL0     C15850   9.193   6.214   8.439  0.2414  0.8223 -0.6594
  859MOL0     C15851   9.059   6.197   8.363 -1.0456 -0.7396  0.6851
  859MOL0     C15852   9.066   6.214   8.212 -0.0104 -0.2008 -0.3428
  859MOL0     C15853   8.923   6.181   8.163 -0.3603 -0.1603  0.0990
  859MOL0     O15854   8.878   6.049   8.197 -0.3282 -0.1502 -0.0472
  859MOL0     C15855   8.747   6.022   8.165  0.0622  0.2857 -0.5669
  859MOL0     C15856   8.717   5.885   8.180 -0.5488  0.2029  0.0195
  859MOL0     C15857   8.590   5.841   8.151 -0.2143 -0.2151 -0.1172
  859MOL0     C15858   8.567   5.705   8.180 -0.1872  0.8512 -0.8359
  859MOL0     C15859   8.487   5.932   8.109 -0.2220 -0.5077 -0.4778
  859MOL0     C15860   8.343   5.896   8.088 -0.0607 -0.0584 -0.2370
  859MOL0     O15861   8.264   5.982   8.020  0.0154 -0.3169  0.0521
  859MOL0     C15862   8.134   5.967   8.014  0.9365 -0.4810  1.1327
  859MOL0     C15863   8.059   6.056   8.095 -0.8550 -0.5399 -0.1267
  859MOL0     C15864   7.921   6.044   8.101  0.3420  0.2945  0.9104
  859MOL0     C15865   7.854   5.952   8.029  0.6426  0.0185  0.4546
  859MOL0     O15866   7.716   5.947   8.042 -0.0522  0.0918  0.5941
  859MOL0     C15867   7.654   5.816   7.999  0.1957 -0.8334 -0.3478
  859MOL0     C15868   7.501   5.831   8.037 -0.8790 -0.4384 -0.2947
  859MOL0     C15869   7.426   5.718   7.959  0.3120  0.2660 -1.1404
  859MOL0     C15870   7.281   5.696   8.008 -0.6543  0.1869 -0.1822
  859MOL0     C15871   7.224   5.581   7.938  0.8657 -0.3737 -0.0352
  859MOL0     C15872   7.071   5.569   7.967  0.1411  0.0548  0.2514
  859MOL0     C15873   7.021   5.449   7.877  0.1486 -0.2570  0.0061
  859MOL0     C15874   6.868   5.420   7.898  0.4866  0.1742  0.2886
  859MOL0    Cl15875   6.856   5.320   8.050 -0.2210 -0.1660  0.1032
  859MOL0     C15876   7.929   5.849   7.957  0.6270 -0.3125  1.2926
  859MOL0     C15877   8.070   5.859   7.954 -0.1930  0.3642  0.5452
  859MOL0     O15878   8.301   5.795   8.137  0.6458  0.0235  0.0591
  859MOL0     C15879   8.515   6.066   8.108 -0.1692  0.2243 -0.0599
  859MOL0     C15880   8.643   6.114   8.126  0.2836  1.0569  0.1147
  859MOL0     N15881   9.245   6.170   8.681  0.2345 -0.2875 -0.3890
  859MOL0     N15882   9.218   6.216   8.803  0.6603  0.1890  0.3000
  859MOL0     C15883   8.348   6.781   9.117  0.1764  0.2476 -0.2606
  859MOL0     C15884   8.212   6.789   9.116  0.9276 -0.7125  0.1668
  859MOL0     C15885   7.805   6.904   9.088 -0.0490  0.8204 -0.1209
  859MOL0     C15886   7.744   7.013   9.027 -0.5151  0.4498 -0.4761
  859MOL0     C15887   7.608   7.038   9.004  0.5153 -0.2579  0.0374
  859MOL0     C15888   7.515   6.957   9.072  0.1638  0.3260  0.7840
  859MOL0     O15889   7.381   6.978   9.062 -0.1014  0.4087  0.7870
  859MOL0     C15890   7.326   7.098   8.992 -0.1322 -0.7304  0.1047
  859MOL0     C15891   7.165   7.100   8.959  0.2658 -0.1107  0.5726
  859MOL0     C15892   7.105   7.032   9.082  0.1796  0.6191  0.1600
  859MOL0     C15893   6.956   7.072   9.092  0.0856  0.4356  0.3379
  859MOL0     C15894   6.878   7.047   8.971 -0.7267  0.5363  0.4367
  859MOL0     C15895   6.810   7.020   8.871  0.1056  0.3117 -0.1393
  859MOL0     C15896   7.566   6.843   9.134 -0.6895 -0.6037  0.1588
  859MOL0     C15897   7.710   6.820   9.148 -0.8211 -0.5358 -0.4372
  859MOL0     H15898   8.136   6.861   9.434 -2.4544  1.5755 -1.8720
  859MOL0     H15899   8.393   6.860   9.451  0.0076  0.0445  0.9848
  859MOL0     H15900   8.599   6.906   9.398  3.0284 -1.6683  4.5005
  859MOL0     H15901   8.637   6.734   9.405 -2.4564  1.0888  0.2131
  859MOL0     H15902   8.799   6.933   9.252  1.3657  0.1765  0.5429
  859MOL0     H15903   8.848   6.857   9.400  1.1486 -1.0232 -0.3971
  859MOL0     H15904   8.831   6.627   9.284  0.7918  0.1693  3.0464
  859MOL0     H15905   8.813   6.733   9.135  0.8621 -1.8351  0.3623
  859MOL0     H15906   9.027   6.822   9.183 -0.3322 -0.1741  1.0374
  859MOL0     H15907   9.054   6.712   9.322  3.0754 -1.1792 -1.8350
  859MOL0     H15908   9.170   6.614   9.137  0.3421  1.6583  3.0865
  859MOL0     H15909   9.035   6.516   9.183 -1.5373  1.1427  1.5905
  859MOL0     H15910   8.895   6.582   9.007  0.1975 -0.8984 -1.5646
  859MOL0     H15911   8.999   6.720   8.969  0.0703  0.6401  1.1706
  859MOL0     H15912   9.028   6.570   8.801 -1.6734  1.3093  0.9388
  859MOL0     H15913   9.181   6.572   8.893 -1.0168  1.0192  1.6358
  859MOL0     H15914   8.962   6.366   8.910  0.7473 -2.4716  0.1166
  859MOL0     H15915   9.108   6.361   9.003 -1.3523 -1.8741  0.7837
  859MOL0     H15916   9.033   6.399   8.597  2.2350  1.3768 -0.8349
  859MOL0     H15917   9.240   6.305   8.401  0.5147  0.9418 -0.0513
  859MOL0     H15918   9.242   6.121   8.409  0.2422  1.3326 -2.3022
  859MOL0     H15919   8.992   6.274   8.402  3.1694  3.1780  1.0543
  859MOL0     H15920   9.008   6.103   8.388 -2.0542  0.1344  2.0352
  859MOL0     H15921   9.139   6.146   8.168 -1.6683 -0.4831 -2.8654
  859MOL0     H15922   9.094   6.316   8.185 -0.8137 -0.7470 -3.6451
  859MOL0     H15923   8.930   6.185   8.054  1.5225  0.7990  0.2069
  859MOL0     H15924   8.867   6.266   8.203  2.8461  3.0975 -1.7391
  859MOL0     H15925   8.785   5.821   8.234  1.3995  1.0063 -1.3762
  859MOL0     H15926   8.497   5.699   8.264  2.0036 -2.1482  0.9692
  859MOL0     H15927   8.525   5.653   8.093 -0.1567  0.7986 -0.8201
  859MOL0     H15928   8.656   5.648   8.209  0.7240  2.7004  0.1492
  859MOL0     H15929   8.114   6.129   8.153  0.0642 -1.8704  0.7079
  859MOL0     H15930   7.857   6.106   8.162 -1.1577 -0.8828  0.5943
  859MOL0     H15931   7.654   5.818   7.890  0.2476 -1.6252 -0.3626
  859MOL0     H15932   7.700   5.725   8.038  0.7176 -0.4103  0.0341
  859MOL0     H15933   7.489   5.825   8.145 -0.8839  1.3190 -0.1698
  859MOL0     H15934   7.469   5.932   8.012 -0.5655 -0.2556  0.0371
  859MOL0     H15935   7.473   5.620   7.974 -1.5811 -0.5009  0.0733
  859MOL0     H15936   7.436   5.750   7.855 -0.2597 -0.1820 -1.3344
  859MOL0     H15937   7.292   5.680   8.115  1.8910 -2.8490 -0.7413
  859MOL0     H15938   7.214   5.781   7.992 -0.5547  0.0727 -1.2865
  859MOL0     H15939   7.282   5.495   7.975 -0.0353  0.2365  3.0858
  859MOL0     H15940   7.238   5.597   7.831 -0.2785 -0.3980 -0.1951
  859MOL0     H15941   7.054   5.569   8.075 -1.2453 -0.3405  0.0557
  859MOL0     H15942   7.008   5.653   7.936 -0.1238  0.0239  0.6937
  859MOL0     H15943   7.076   5.357   7.898 -0.7987 -0.6346  0.9573
  859MOL0     H15944   7.035   5.482   7.774  0.7789  1.5411  0.6445
  859MOL0     H15945   6.816   5.363   7.820 -1.3232 -1.5109  2.5651
  859MOL0     H15946   6.816   5.514   7.916 -0.4879 -0.2101 -0.4058
  859MOL0     H15947   7.887   5.767   7.900  1.3535 -0.2265  0.6255
  859MOL0     H15948   8.126   5.784   7.899 -1.8864 -0.5901  0.0590
  859MOL0     H15949   8.428   6.129   8.091 -0.6660 -0.0459  1.3725
  859MOL0     H15950   8.662   6.219   8.107 -1.6229  1.0406 -2.2739
  859MOL0     H15951   8.399   6.766   9.023  1.9608  1.7187  0.3932
  859MOL0     H15952   8.156   6.759   9.028  0.0340 -1.1244  0.8624
  859MOL0     H15953   7.813   7.084   8.981 -1.2778  0.9344 -0.9103
  859MOL0     H15954   7.576   7.117   8.937 -1.8051 -1.1896 -0.0432
  859MOL0     H15955   7.339   7.183   9.060 -0.7233 -2.3504  2.3689
  859MOL0     H15956   7.368   7.110   8.892 -0.0982 -1.0868  0.0752
  859MOL0     H15957   7.143   7.053   8.863  2.7715  0.8946 -0.5810
  859MOL0     H15958   7.127   7.202   8.946  1.3104  0.0278 -1.8743
  859MOL0     H15959   7.152   7.062   9.177 -0.8558  4.4244 -0.3682
  859MOL0     H15960   7.123   6.924   9.073 -0.4044  0.7156 -4.3351
  859MOL0     H15961   6.956   7.181   9.097  3.7167  0.8705 -3.5681
  859MOL0     H15962   6.911   7.046   9.188  1.8834  1.0479  1.3946
  859MOL0     H15963   6.753   7.004   8.781  0.8471  3.0435 -1.2089
  859MOL0     H15964   7.495   6.773   9.176 -0.5558 -1.7279 -1.3922
  859MOL0     H15965   7.742   6.745   9.219  0.8919 -0.8185 -1.4669
  860MOL0     O15966  10.904  11.070   2.310 -0.1992  0.4898 -0.5934
  860MOL0     C15967  10.933  10.977   2.387  1.0594  0.6185  0.5599
  860MOL0     O15968  10.842  10.898   2.458  0.1084 -0.1324  0.4053
  860MOL0     C15969  10.717  10.941   2.459 -0.1705 -0.5643 -0.1388
  860MOL0     C15970  10.645  10.983   2.348 -1.5658 -1.0391 -0.0975
  860MOL0     C15971  10.517  11.026   2.349  0.6039  0.0116 -0.0736
  860MOL0     C15972  10.442  11.010   2.466  0.1778  0.9012  0.6786
  860MOL0     O15973  10.306  11.023   2.480 -0.5197 -0.8775 -0.3641
  860MOL0     C15974  10.229  11.066   2.369  0.0323  0.2776 -0.2347
  860MOL0     C15975  10.086  11.058   2.424  0.6507  0.1877 -0.3544
  860MOL0     C15976   9.984  11.128   2.339 -0.1054  0.2929 -0.2448
  860MOL0     C15977   9.848  11.147   2.405 -0.3198  0.6588 -0.1398
  860MOL0     C15978   9.737  11.170   2.300 -0.1864 -0.3685  0.7068
  860MOL0     C15979   9.596  11.179   2.356 -0.5049  0.1537 -0.0082
  860MOL0     C15980   9.485  11.159   2.253  0.8041 -0.2084  0.1155
  860MOL0     C15981   9.344  11.177   2.314  0.3126 -0.6595  0.2312
  860MOL0     N15982   9.309  11.315   2.354 -0.7496 -0.0307 -0.0932
  860MOL0     C15983   9.385  11.427   2.361 -0.4874 -0.5917 -0.1222
  860MOL0     C15984   9.305  11.528   2.389  0.5409  0.1926  0.5701
  860MOL0     C15985   9.354  11.664   2.391 -0.9163 -1.7066  0.0568
  860MOL0     C15986   9.381  11.735   2.257  0.2392  0.9772 -0.2200
  860MOL0     C15987   9.429  11.877   2.273 -0.3161  0.1087  0.0998
  860MOL0     C15988   9.557  11.893   2.362 -0.8224  0.4609 -0.5503
  860MOL0     O15989   9.626  12.011   2.324 -0.3249  0.0152  0.0430
  860MOL0     C15990   9.738  12.045   2.391  0.7003  1.2669  1.1393
  860MOL0     C15991   9.790  12.160   2.342  0.9273  0.6932 -0.2875
  860MOL0     C15992   9.902  12.213   2.397 -0.0684  0.6092 -0.4248
  860MOL0     C15993   9.951  12.339   2.340  0.0060 -0.4750 -0.3399
  860MOL0     C15994   9.975  12.147   2.509  0.7021 -0.4818  0.1115
  860MOL0     C15995  10.096  12.206   2.584 -0.2464  0.5397 -0.1771
  860MOL0     O15996  10.152  12.113   2.670 -0.1702 -0.8035  0.5295
  860MOL0     C15997  10.268  12.159   2.731  0.3026 -0.0756  0.8376
  860MOL0     C15998  10.265  12.198   2.864  0.3136  0.1893  0.0992
  860MOL0     C15999  10.382  12.215   2.942  0.6118  0.0285  0.5799
  860MOL0     C16000  10.503  12.200   2.885  0.3294 -0.2632 -0.3663
  860MOL0     O16001  10.616  12.229   2.969 -0.2608 -0.7164  0.7009
  860MOL0     C16002  10.721  12.132   2.972 -0.0999  0.0217 -0.4085
  860MOL0     C16003  10.745  12.088   3.113 -0.1883  0.0471  0.2569
  860MOL0     C16004  10.879  12.017   3.125  0.1100 -0.8066 -0.7185
  860MOL0     C16005  10.901  11.976   3.274  0.2434  0.6626  0.7164
  860MOL0     C16006  11.019  11.881   3.282 -0.7152 -0.3031 -0.2735
  860MOL0     C16007  11.059  11.840   3.423  0.1770  0.2392  0.1741
  860MOL0     C16008  10.966  11.745   3.490  0.2819 -0.1293  0.8633
  860MOL0     C16009  10.992  11.704   3.630 -0.1574 -0.1798 -0.5213
  860MOL0    Cl16010  10.949  11.861   3.723  0.3452  0.0654  0.0048
  860MOL0     C16011  10.510  12.176   2.744 -0.2735 -0.4525 -0.1186
  860MOL0     C16012  10.393  12.161   2.664 -0.3076 -0.9546 -0.1923
  860MOL0     O16013  10.129  12.324   2.567  0.0682  0.0135  0.8937
  860MOL0     C16014   9.922  12.023   2.553 -0.5431 -0.2077 -0.2498
  860MOL0     C16015   9.803  11.979   2.496 -0.1088  0.1496  0.8910
  860MOL0     N16016   9.181  11.483   2.411  0.1386  0.4567  0.9549
  860MOL0     N16017   9.185  11.349   2.395  0.1955 -0.6439 -0.5135
  860MOL0     C16018  10.512  10.969   2.582  0.9804 -0.0805  0.1928
  860MOL0     C16019  10.641  10.928   2.576  0.3021  0.1247 -0.5478
  860MOL0     C16020  11.076  10.945   2.405 -0.0700  0.2034  0.7086
  860MOL0     C16021  11.168  11.028   2.340  0.8127 -0.5778 -1.1780
  860MOL0     C16022  11.304  11.026   2.385  0.4064 -0.4116 -0.0086
  860MOL0     C16023  11.349  10.925   2.469 -0.2312  0.4228 -0.3844
  860MOL0     O16024  11.484  10.901   2.502 -0.2357 -0.0317  0.1669
  860MOL0     C16025  11.588  10.992   2.461 -0.4756  0.6746  0.6691
  860MOL0     C16026  11.657  10.967   2.321 -0.0952 -0.6121 -0.0384
  860MOL0     C16027  11.777  11.063   2.320  1.2994  0.6791 -0.0373
  860MOL0     C16028  11.865  11.036   2.204  0.4204  0.0855  0.0758
  860MOL0     C16029  11.938  10.907   2.218 -0.0162  0.6613 -0.6574
  860MOL0     C16030  12.010  10.808   2.227  0.3024 -0.8469 -0.0066
  860MOL0     C16031  11.252  10.845   2.531 -0.7165 -0.3341  0.6295
  860MOL0     C16032  11.120  10.845   2.495 -0.3557 -0.0587  0.7065
  860MOL0     H16033  10.700  10.988   2.255  1.3211  0.2309  1.5584
  860MOL0     H16034  10.478  11.049   2.251 -0.7955  1.0542  0.7031
  860MOL0     H16035  10.258  11.172   2.363  2.6567 -0.1117  2.6495
  860MOL0     H16036  10.245  11.015   2.274  0.8388 -1.1206  0.6088
  860MOL0     H16037  10.062  10.953   2.438 -1.8238  0.8606  1.0573
  860MOL0     H16038  10.095  11.106   2.521  0.7030 -1.0092  0.2489
  860MOL0     H16039  10.032  11.222   2.311 -2.1851  1.2252 -0.9358
  860MOL0     H16040   9.967  11.086   2.239  1.3549  0.8806 -0.7558
  860MOL0     H16041   9.832  11.062   2.472  0.9266  2.9293  3.3322
  860MOL0     H16042   9.859  11.232   2.473  0.7331 -1.2480  2.2558
  860MOL0     H16043   9.756  11.260   2.242 -2.0035  0.9993  2.1137
  860MOL0     H16044   9.737  11.077   2.242  2.2691 -1.3281  2.1100
  860MOL0     H16045   9.584  11.098   2.429 -2.6909 -0.8309 -1.3266
  860MOL0     H16046   9.595  11.274   2.410  2.0366 -0.4379  1.2322
  860MOL0     H16047   9.497  11.230   2.170  2.5483 -0.0134  0.4892
  860MOL0     H16048   9.491  11.064   2.199  1.6981 -0.3530  0.4540
  860MOL0     H16049   9.326  11.109   2.398 -0.9260 -0.5461  0.0662
  860MOL0     H16050   9.267  11.149   2.242 -1.7497 -0.2783  2.1712
  860MOL0     H16051   9.485  11.456   2.330 -0.9201  0.1186 -0.8823
  860MOL0     H16052   9.268  11.722   2.427 -0.4697 -0.4939 -0.7757
  860MOL0     H16053   9.442  11.677   2.455 -0.6025 -0.4587 -0.5967
  860MOL0     H16054   9.292  11.735   2.193  1.3434  1.4620 -1.8239
  860MOL0     H16055   9.456  11.671   2.208  0.1695 -0.2803  1.2502
  860MOL0     H16056   9.345  11.940   2.304 -2.2605 -2.4108  0.2023
  860MOL0     H16057   9.450  11.913   2.172 -1.4719  0.4302 -0.0378
  860MOL0     H16058   9.617  11.807   2.329 -0.9804  0.1633 -0.0797
  860MOL0     H16059   9.530  11.892   2.468 -1.1319  1.7042 -0.6044
  860MOL0     H16060   9.738  12.199   2.255  0.7234 -2.4288 -1.7195
  860MOL0     H16061  10.053  12.327   2.304  1.3305 -2.1784  3.4045
  860MOL0     H16062   9.893  12.385   2.260 -0.8217  1.5708  1.3206
  860MOL0     H16063   9.945  12.414   2.421 -2.8659  0.0750 -0.9439
  860MOL0     H16064  10.167  12.199   2.911  0.4885  0.5289  0.4612
  860MOL0     H16065  10.379  12.248   3.045 -1.6278  0.2341  0.4854
  860MOL0     H16066  10.701  12.048   2.905 -0.3585  1.4569 -2.2048
  860MOL0     H16067  10.813  12.176   2.933  0.2855  0.7505  1.2431
  860MOL0     H16068  10.758  12.179   3.172 -0.0305  0.6492 -0.6842
  860MOL0     H16069  10.669  12.016   3.144 -1.1842  1.2654  0.7298
  860MOL0     H16070  10.954  12.091   3.099 -1.0164  0.1810 -1.2519
  860MOL0     H16071  10.882  11.931   3.058  1.2454 -0.5786 -0.9742
  860MOL0     H16072  10.914  12.064   3.337  4.5415  0.4335  0.4388
  860MOL0     H16073  10.811  11.927   3.313 -1.9125  3.1584 -0.8400
  860MOL0     H16074  11.108  11.927   3.238 -0.6470 -1.4118 -1.3611
  860MOL0     H16075  11.000  11.787   3.229  1.0745 -0.2268 -1.1276
  860MOL0     H16076  11.159  11.796   3.413  1.2572  2.5179  0.4006
  860MOL0     H16077  11.068  11.930   3.484  0.0380  0.3570  0.0186
  860MOL0     H16078  10.959  11.647   3.443  0.1776 -0.0168  0.6380
  860MOL0     H16079  10.861  11.775   3.478  0.6092  0.1372 -2.1529
  860MOL0     H16080  11.098  11.675   3.632  0.1973  0.8262 -2.1249
  860MOL0     H16081  10.932  11.618   3.659 -3.3348  2.0084  0.0032
  860MOL0     H16082  10.604  12.183   2.690 -0.3526 -0.6662 -0.2856
  860MOL0     H16083  10.411  12.158   2.556  1.2570  1.9156 -0.1223
  860MOL0     H16084   9.975  11.965   2.629 -0.5867 -0.3056 -0.2937
  860MOL0     H16085   9.762  11.886   2.532  0.9638 -0.7884 -0.2340
  860MOL0     H16086  10.466  10.965   2.681  2.1165  0.9967  0.7932
  860MOL0     H16087  10.685  10.888   2.667 -1.7424 -1.8153 -0.3215
  860MOL0     H16088  11.130  11.106   2.275 -2.9930  1.6929  3.1244
  860MOL0     H16089  11.353  11.119   2.357 -2.4618  0.5821 -2.2524
  860MOL0     H16090  11.551  11.095   2.468 -2.3110  0.3525 -2.4235
  860MOL0     H16091  11.660  10.978   2.542 -3.4108 -2.4152  3.0001
  860MOL0     H16092  11.588  10.996   2.241  1.3763 -2.3118 -2.0166
  860MOL0     H16093  11.680  10.860   2.317  0.8049 -0.4706  0.8361
  860MOL0     H16094  11.829  11.065   2.416 -0.3729  0.0706  0.9295
  860MOL0     H16095  11.745  11.167   2.310 -0.3542  0.3743  1.6863
  860MOL0     H16096  11.945  11.109   2.196  3.8892 -3.5042 -1.7397
  860MOL0     H16097  11.811  11.029   2.109 -1.0454 -0.2073  0.8883
  860MOL0     H16098  12.076  10.724   2.219 -0.0623 -0.9314 -3.3408
  860MOL0     H16099  11.299  10.766   2.589  2.6476  0.2685 -0.9856
  860MOL0     H16100  11.040  10.779   2.525 -2.7302  1.8482 -1.0398
  861MOL0     O16101   3.803   9.236   5.123  0.3695  0.3535 -0.5608
  861MOL0     C16102   3.834   9.333   5.054 -0.3874  0.3977  1.0894
  861MOL0     O16103   3.756   9.438   5.018  0.1988  0.4183 -0.0916
  861MOL0     C16104   3.617   9.449   5.046 -0.1537  0.4170  0.1496
  861MOL0     C16105   3.537   9.342   5.070 -0.9082 -0.2838  0.0825
  861MOL0     C16106   3.403   9.355   5.097  0.8831 -0.0481  1.3130
  861MOL0     C16107   3.348   9.484   5.111 -0.0682  0.9051 -0.6071
  861MOL0     O16108   3.218   9.510   5.137 -0.4494  0.4993  0.2193
  861MOL0     C16109   3.131   9.489   5.022 -0.3367  0.6087  0.6160
  861MOL0     C16110   2.981   9.461   5.063 -1.0247  0.2019 -0.7412
  861MOL0     C16111   2.895   9.446   4.943  0.0081  0.5405 -0.0044
  861MOL0     C16112   2.753   9.391   4.971 -0.4242 -0.0079 -0.7107
  861MOL0     C16113   2.652   9.416   4.862  0.1918 -0.9177  0.1952
  861MOL0     C16114   2.515   9.371   4.896 -0.3480  0.9004 -0.0565
  861MOL0     C16115   2.421   9.386   4.775  0.4153  0.2926 -0.0658
  861MOL0     C16116   2.280   9.352   4.818 -0.5222 -1.1034  0.0086
  861MOL0     N16117   2.212   9.458   4.894 -0.3707  0.1910 -0.0114
  861MOL0     C16118   2.106   9.523   4.833  0.0406 -0.4427  1.0367
  861MOL0     C16119   2.052   9.591   4.940 -0.6811  0.2792  0.2736
  861MOL0     C16120   1.933   9.680   4.932 -0.4118 -0.7586 -0.0961
  861MOL0     C16121   1.791   9.623   4.936  0.1610 -0.1990 -0.0996
  861MOL0     C16122   1.697   9.746   4.936  0.5387  0.2061  0.0680
  861MOL0     C16123   1.545   9.707   4.945 -1.0989 -0.4502  0.3407
  861MOL0     O16124   1.521   9.647   5.074 -0.2267  1.0803 -0.0032
  861MOL0     C16125   1.396   9.593   5.080  0.2535 -0.0444 -0.4147
  861MOL0     C16126   1.377   9.465   5.132  0.4424 -0.1190 -0.5142
  861MOL0     C16127   1.250   9.413   5.141  0.5903 -0.4502 -0.5578
  861MOL0     C16128   1.255   9.267   5.191  0.4441 -0.8854  1.2663
  861MOL0     C16129   1.133   9.478   5.098 -0.4367 -0.1108  0.4491
  861MOL0     C16130   0.999   9.421   5.094 -0.3615  0.1944  0.3477
  861MOL0     O16131   0.973   9.327   5.186 -0.1705 -0.1214  0.7237
  861MOL0     C16132   0.862   9.253   5.177 -0.0384 -0.5414  0.0595
  861MOL0     C16133   0.859   9.142   5.100  0.0051  0.5192  0.4245
  861MOL0     C16134   0.749   9.056   5.114  0.4404  0.4218  0.7080
  861MOL0     C16135   0.645   9.079   5.210 -0.1978  0.2422  1.0482
  861MOL0     O16136   0.545   8.982   5.214 -0.6501 -0.3220 -0.2537
  861MOL0     C16137   0.432   8.989   5.298 -0.5079 -0.1044 -0.1588
  861MOL0     C16138   0.330   9.090   5.227 -0.5426  1.2534 -0.5774
  861MOL0     C16139   0.196   9.113   5.297 -0.0968 -0.7224  0.4936
  861MOL0     C16140   0.092   9.009   5.283 -0.1610  0.4314  0.6742
  861MOL0     C16141  -0.026   9.038   5.378 -0.9556  0.4063 -0.2641
  861MOL0     C16142  -0.133   8.922   5.376  0.0498 -0.1348  0.0420
  861MOL0     C16143  -0.248   8.942   5.465 -0.0797 -0.3893 -0.5541
  861MOL0     C16144  -0.341   8.823   5.465  0.0815 -0.1467  0.2335
  861MOL0    Cl16145  -0.452   8.872   5.593 -0.0179 -0.0328 -0.0033
  861MOL0     C16146   0.653   9.198   5.275  0.4551 -0.4343 -0.6470
  861MOL0     C16147   0.755   9.287   5.261  0.2332 -0.3312 -0.0076
  861MOL0     O16148   0.928   9.446   4.995  0.4546 -0.0303 -0.1780
  861MOL0     C16149   1.155   9.610   5.044 -1.1982 -0.4377 -0.1285
  861MOL0     C16150   1.285   9.661   5.040  0.0073 -0.4157  0.6152
  861MOL0     N16151   2.135   9.576   5.053 -0.3023 -0.2741  0.1802
  861MOL0     N16152   2.227   9.488   5.031 -0.1621 -0.0409 -0.0414
  861MOL0     C16153   3.433   9.591   5.106 -0.7769 -0.0917 -0.0002
  861MOL0     C16154   3.568   9.575   5.080 -0.1536  0.4330  0.3527
  861MOL0     C16155   3.967   9.329   4.986 -0.1537 -0.6043  0.2236
  861MOL0     C16156   3.970   9.332   4.847  0.0684  0.1078 -0.1371
  861MOL0     C16157   4.088   9.318   4.777 -0.4880  0.9123 -0.1391
  861MOL0     C16158   4.206   9.297   4.840  0.3994  0.0405 -0.4426
  861MOL0     O16159   4.316   9.282   4.763 -0.2295  0.8516  0.0887
  861MOL0     C16160   4.444   9.279   4.836 -0.6426  0.3223  0.1097
  861MOL0     C16161   4.494   9.418   4.864 -0.8051 -0.5695  0.0547
  861MOL0     C16162   4.457   9.525   4.755 -0.4463  0.1323 -0.5264
  861MOL0     C16163   4.583   9.594   4.702  0.0490  0.6346  0.1532
  861MOL0     C16164   4.660   9.500   4.618 -0.2259  0.4015  0.7843
  861MOL0     C16165   4.691   9.425   4.526 -0.7406 -0.2568  0.0325
  861MOL0     C16166   4.202   9.289   4.987  0.1900 -1.4498  1.2031
  861MOL0     C16167   4.082   9.301   5.059  0.1276 -0.3017  0.3246
  861MOL0     H16168   3.566   9.239   5.054 -0.0956 -0.1698  0.7749
  861MOL0     H16169   3.335   9.270   5.107 -0.1021  0.5877  0.3467
  861MOL0     H16170   3.139   9.575   4.956 -2.1355  0.5005  0.2073
  861MOL0     H16171   3.161   9.395   4.976 -3.6773 -0.2541 -0.0858
  861MOL0     H16172   2.971   9.372   5.125  1.2798  2.5191  3.4525
  861MOL0     H16173   2.955   9.546   5.128  2.4780 -0.9056  2.4899
  861MOL0     H16174   2.883   9.549   4.906  0.5806  1.6249  2.6387
  861MOL0     H16175   2.949   9.391   4.865  3.6486  2.3309  1.0591
  861MOL0     H16176   2.767   9.283   4.981 -0.6190 -0.0042 -0.3812
  861MOL0     H16177   2.720   9.434   5.066 -1.0970  0.5881 -1.2027
  861MOL0     H16178   2.652   9.523   4.840  1.6978 -0.9172  0.1240
  861MOL0     H16179   2.686   9.360   4.774  2.2225  1.4073 -0.6034
  861MOL0     H16180   2.523   9.267   4.930 -0.7921  1.3066  1.3494
  861MOL0     H16181   2.474   9.438   4.973 -0.2934  2.0385 -0.9974
  861MOL0     H16182   2.416   9.482   4.724  0.2403 -0.8009 -2.2355
  861MOL0     H16183   2.456   9.310   4.704 -0.4606  0.1542 -0.3631
  861MOL0     H16184   2.278   9.257   4.873 -0.2707 -0.4371  1.2137
  861MOL0     H16185   2.227   9.323   4.727  1.7691 -0.4991 -1.6070
  861MOL0     H16186   2.068   9.518   4.732  0.4842  1.0445  0.7729
  861MOL0     H16187   1.939   9.736   5.027 -0.7286  0.9818 -1.0512
  861MOL0     H16188   1.944   9.752   4.850  1.1672 -1.6576 -0.7161
  861MOL0     H16189   1.773   9.565   5.026  0.9268 -1.2464 -0.6077
  861MOL0     H16190   1.783   9.559   4.848 -0.2340  1.7765 -1.5947
  861MOL0     H16191   1.711   9.803   4.844  1.1948  2.7498  1.6522
  861MOL0     H16192   1.718   9.811   5.022  2.0919  1.7645 -1.4117
  861MOL0     H16193   1.516   9.644   4.861 -2.0740  2.4080 -1.5935
  861MOL0     H16194   1.490   9.801   4.945 -2.2260 -0.9993 -3.1393
  861MOL0     H16195   1.467   9.419   5.172 -0.2141  0.7748  2.2176
  861MOL0     H16196   1.192   9.252   5.279  0.5930  0.7814  1.6747
  861MOL0     H16197   1.218   9.213   5.103 -0.7572  5.1066 -2.4710
  861MOL0     H16198   1.351   9.227   5.227  0.1927 -0.1531  2.7886
  861MOL0     H16199   0.946   9.114   5.042 -0.3555 -0.0020  0.1284
  861MOL0     H16200   0.763   8.969   5.051 -0.0033  2.2199 -2.0498
  861MOL0     H16201   0.376   8.896   5.295 -2.0008  0.7798 -1.1006
  861MOL0     H16202   0.458   9.020   5.399  0.7195  0.6545 -0.6778
  861MOL0     H16203   0.387   9.182   5.212 -0.8237  2.7869  5.2256
  861MOL0     H16204   0.325   9.053   5.124  1.0079 -1.0488  0.1100
  861MOL0     H16205   0.161   9.203   5.245  3.8516 -0.1500 -1.5135
  861MOL0     H16206   0.211   9.132   5.404  1.6560 -1.1034  0.3455
  861MOL0     H16207   0.056   9.007   5.180  0.1657 -0.2004  0.5643
  861MOL0     H16208   0.138   8.911   5.301 -0.1613  0.2033 -0.4879
  861MOL0     H16209  -0.068   9.137   5.360 -0.4499  0.4751 -1.1100
  861MOL0     H16210   0.017   9.037   5.478  1.0686 -2.8658 -1.0082
  861MOL0     H16211  -0.168   8.905   5.273 -2.0799  1.5583  0.4220
  861MOL0     H16212  -0.077   8.832   5.404  1.1668  1.1225  1.9716
  861MOL0     H16213  -0.320   9.022   5.443 -3.1606 -2.7974  0.0102
  861MOL0     H16214  -0.210   8.951   5.567 -3.3374 -0.9866  0.8376
  861MOL0     H16215  -0.292   8.729   5.495 -1.2608 -0.5698  1.1997
  861MOL0     H16216  -0.375   8.815   5.361  2.9477  0.4049 -0.8472
  861MOL0     H16217   0.580   9.239   5.344  1.1594  1.7606 -1.1084
  861MOL0     H16218   0.767   9.368   5.333  0.9556 -1.0958  0.7569
  861MOL0     H16219   1.080   9.681   5.009  1.1293  2.0490 -0.3737
  861MOL0     H16220   1.294   9.755   4.988  3.5380 -2.2558 -2.5838
  861MOL0     H16221   3.396   9.688   5.139 -0.1170 -0.2762  1.3637
  861MOL0     H16222   3.643   9.653   5.082 -1.0144  1.3900 -1.4918
  861MOL0     H16223   3.884   9.373   4.795 -1.0513  2.3492  3.1220
  861MOL0     H16224   4.083   9.337   4.670 -0.8339  1.2214 -0.0671
  861MOL0     H16225   4.440   9.208   4.919  2.6806  0.6833  0.7076
  861MOL0     H16226   4.516   9.230   4.771  0.8766  1.5285  0.8024
  861MOL0     H16227   4.602   9.421   4.882 -0.4552 -1.2380 -1.7491
  861MOL0     H16228   4.438   9.456   4.950 -2.2907  1.7426 -1.8079
  861MOL0     H16229   4.397   9.598   4.809  0.7927 -1.8479  4.0354
  861MOL0     H16230   4.414   9.489   4.661 -1.5326  1.7733 -0.6944
  861MOL0     H16231   4.643   9.619   4.790 -0.3661 -1.6420  1.1581
  861MOL0     H16232   4.568   9.686   4.645 -0.5632  0.5483  0.1762
  861MOL0     H16233   4.702   9.360   4.442 -0.9209  2.7944 -2.5800
  861MOL0     H16234   4.294   9.276   5.042  0.4858 -0.5482  0.9403
  861MOL0     H16235   4.080   9.302   5.167  3.3524  0.4445  0.5111
  862MOL0     O16236   7.883   6.128   5.957  0.6090 -0.0326  0.4188
  862MOL0     C16237   7.902   6.142   6.079  0.5008 -0.6203  0.9654
  862MOL0     O16238   7.837   6.233   6.165  0.5146  0.1010 -0.1406
  862MOL0     C16239   7.739   6.318   6.115  0.4201 -0.3528 -0.0222
  862MOL0     C16240   7.754   6.462   6.113  0.4070 -0.5255  0.4047
  862MOL0     C16241   7.649   6.542   6.069 -0.0968 -0.5856 -0.2247
  862MOL0     C16242   7.528   6.482   6.020 -0.7099 -0.4230  0.6360
  862MOL0     O16243   7.417   6.555   5.974  0.4265  0.1942  0.1556
  862MOL0     C16244   7.393   6.677   6.053 -0.4176  0.0886  0.2847
  862MOL0     C16245   7.248   6.732   6.035 -0.0156 -0.7670 -0.8196
  862MOL0     C16246   7.146   6.625   6.066 -0.5135  0.3049  0.4246
  862MOL0     C16247   7.018   6.670   6.124 -0.1716  0.3819 -0.3250
  862MOL0     C16248   6.896   6.564   6.129 -0.4665 -0.1334  0.4758
  862MOL0     C16249   6.775   6.640   6.182  0.8879 -0.2678  0.2170
  862MOL0     C16250   6.661   6.539   6.206  0.2961 -0.1241  0.8261
  862MOL0     C16251   6.523   6.598   6.250 -0.3977  0.0411 -0.0194
  862MOL0     N16252   6.404   6.517   6.220  0.1606  0.2742 -0.4180
  862MOL0     C16253   6.342   6.449   6.316  0.1458  0.4787 -0.5959
  862MOL0     C16254   6.269   6.355   6.248  0.2405  0.6401 -0.1130
  862MOL0     C16255   6.201   6.240   6.294  0.5896  0.0713  0.0180
  862MOL0     C16256   6.050   6.249   6.300  0.1616 -0.2340 -0.5159
  862MOL0     C16257   5.989   6.253   6.156 -0.2846  0.4352 -0.1362
  862MOL0     C16258   5.838   6.244   6.151 -0.2402  0.2108  0.0226
  862MOL0     O16259   5.796   6.362   6.213  0.1257 -0.5859  0.2505
  862MOL0     C16260   5.666   6.377   6.241 -0.5289  0.6221 -0.4000
  862MOL0     C16261   5.609   6.500   6.236 -0.2793 -0.5809 -0.4845
  862MOL0     C16262   5.477   6.529   6.268 -0.0556 -0.5830 -0.3910
  862MOL0     C16263   5.421   6.667   6.242 -0.3090  0.5855 -0.0651
  862MOL0     C16264   5.390   6.421   6.305 -0.2855  0.5331 -0.0067
  862MOL0     C16265   5.248   6.430   6.340  0.4903 -0.6072 -0.1132
  862MOL0     O16266   5.165   6.328   6.306  0.7767  0.0587  0.2376
  862MOL0     C16267   5.028   6.329   6.319 -0.0847  0.0487 -0.6584
  862MOL0     C16268   4.963   6.388   6.430 -0.3594  0.9390 -0.4611
  862MOL0     C16269   4.817   6.381   6.434 -0.3458 -0.0494 -0.4549
  862MOL0     C16270   4.744   6.333   6.329  0.4496 -0.0915  0.3860
  862MOL0     O16271   4.605   6.340   6.347  0.1825 -0.0982 -0.5342
  862MOL0     C16272   4.526   6.286   6.240  0.2633 -0.3912 -0.0365
  862MOL0     C16273   4.381   6.286   6.288  0.2674 -0.7100  0.9026
  862MOL0     C16274   4.287   6.239   6.179 -0.3106  0.7664 -0.3091
  862MOL0     C16275   4.253   6.344   6.072  0.2925  0.3963  0.5831
  862MOL0     C16276   4.103   6.334   6.022  0.0071  0.6599 -0.0451
  862MOL0     C16277   4.059   6.204   5.957 -0.3986  0.5547  0.2281
  862MOL0     C16278   3.910   6.188   5.917  0.8569 -0.1181  1.6149
  862MOL0     C16279   3.875   6.209   5.774 -0.1945 -0.5972 -0.2045
  862MOL0    Cl16280   3.698   6.179   5.745  0.0106 -0.0217  0.3142
  862MOL0     C16281   4.805   6.283   6.214 -0.2822 -0.2265  0.1186
  862MOL0     C16282   4.950   6.282   6.211 -0.1418 -0.2820 -0.3819
  862MOL0     O16283   5.213   6.538   6.376  0.3385  0.5527 -0.7127
  862MOL0     C16284   5.442   6.293   6.301 -0.1542 -0.6658 -0.8301
  862MOL0     C16285   5.577   6.270   6.276 -0.8014 -0.7696  0.1699
  862MOL0     N16286   6.269   6.395   6.115 -0.8232 -0.3445 -1.0752
  862MOL0     N16287   6.356   6.493   6.094  0.1236  0.7601 -0.2048
  862MOL0     C16288   7.527   6.341   6.000  0.3456  0.8699  0.2922
  862MOL0     C16289   7.626   6.263   6.059  0.2466 -0.4101 -0.0166
  862MOL0     C16290   7.995   6.046   6.150 -0.1239 -0.4836 -0.0474
  862MOL0     C16291   8.036   6.072   6.289  0.4146  0.2940 -0.0371
  862MOL0     C16292   8.114   5.988   6.357  0.1933 -0.0267  1.1866
  862MOL0     C16293   8.166   5.874   6.295  0.4051 -0.1981 -0.4324
  862MOL0     O16294   8.238   5.783   6.364 -0.7450  0.5533 -0.2716
  862MOL0     C16295   8.375   5.774   6.319 -0.1292 -0.2445 -0.4547
  862MOL0     C16296   8.453   5.697   6.422  0.0103  0.4184 -0.5560
  862MOL0     C16297   8.585   5.645   6.353  0.5123  0.2413  0.8704
  862MOL0     C16298   8.663   5.549   6.443 -0.3058 -0.1336  0.7233
  862MOL0     C16299   8.658   5.424   6.368  0.5283  0.7453  0.0926
  862MOL0     C16300   8.631   5.320   6.307 -0.5064  0.9227 -0.8145
  862MOL0     C16301   8.127   5.842   6.164  0.5799 -0.2809  0.3787
  862MOL0     C16302   8.041   5.929   6.091  0.5922 -0.2328  0.1897
  862MOL0     H16303   7.842   6.502   6.162 -1.1130  0.4219  2.5304
  862MOL0     H16304   7.669   6.646   6.090 -0.6988 -0.6519  0.7627
  862MOL0     H16305   7.395   6.650   6.159 -1.4152 -0.3312  0.2111
  862MOL0     H16306   7.478   6.743   6.032 -0.4723 -0.0615 -0.4312
  862MOL0     H16307   7.235   6.819   6.100 -3.1453 -1.7527  0.0619
  862MOL0     H16308   7.242   6.776   5.935 -0.5274  0.2253 -0.3765
  862MOL0     H16309   7.113   6.575   5.975  0.1963  1.8711 -0.7560
  862MOL0     H16310   7.185   6.547   6.132 -2.4924 -0.4223  0.7986
  862MOL0     H16311   7.048   6.706   6.222 -1.6741 -0.2388  0.3908
  862MOL0     H16312   6.980   6.763   6.082 -2.7333 -0.4395 -0.0109
  862MOL0     H16313   6.867   6.537   6.027 -0.1623  0.3639  0.2517
  862MOL0     H16314   6.922   6.475   6.187  2.2943  0.7156  0.7085
  862MOL0     H16315   6.801   6.689   6.276  1.5104 -0.7042  0.2693
  862MOL0     H16316   6.750   6.710   6.101 -1.5960 -2.2826 -0.9043
  862MOL0     H16317   6.639   6.474   6.121  2.0445 -3.8088  2.9189
  862MOL0     H16318   6.695   6.463   6.277  0.5457 -0.2587  0.5641
  862MOL0     H16319   6.514   6.693   6.197  1.3823 -1.8182 -4.0560
  862MOL0     H16320   6.528   6.613   6.358  1.5428  0.7675 -0.1715
  862MOL0     H16321   6.357   6.444   6.424  1.2371 -0.6489 -0.7807
  862MOL0     H16322   6.217   6.155   6.228  2.0439  0.2194  0.1419
  862MOL0     H16323   6.232   6.205   6.393 -0.8711  1.5769  1.0630
  862MOL0     H16324   6.018   6.327   6.370  0.8376 -1.1576  0.8662
  862MOL0     H16325   6.026   6.154   6.349  0.0765  0.0803  0.0685
  862MOL0     H16326   6.036   6.167   6.109 -1.1715 -0.4783  0.6020
  862MOL0     H16327   6.022   6.341   6.101 -0.0525  0.6494  0.3379
  862MOL0     H16328   5.800   6.153   6.197 -0.7384 -0.1123 -1.0074
  862MOL0     H16329   5.812   6.238   6.045  0.2273 -3.4222 -0.0232
  862MOL0     H16330   5.681   6.577   6.211 -0.3420 -0.4657 -0.3051
  862MOL0     H16331   5.382   6.730   6.323 -0.7374  1.4452 -0.9150
  862MOL0     H16332   5.505   6.731   6.211  1.3295 -1.0646  0.7360
  862MOL0     H16333   5.343   6.655   6.167 -2.5283 -1.7251  2.4014
  862MOL0     H16334   5.013   6.431   6.516 -1.9912 -0.2549  1.1758
  862MOL0     H16335   4.771   6.410   6.527  1.8400 -0.4817  0.8366
  862MOL0     H16336   4.530   6.355   6.155  0.5296 -1.1214 -0.6248
  862MOL0     H16337   4.550   6.182   6.217 -1.9158 -1.1257  0.6905
  862MOL0     H16338   4.378   6.225   6.378  0.1170  2.0250  2.8784
  862MOL0     H16339   4.349   6.388   6.308 -0.8924 -0.6074 -1.2062
  862MOL0     H16340   4.191   6.206   6.221 -0.7390  1.8384 -0.4140
  862MOL0     H16341   4.340   6.156   6.131  2.7961  3.2477 -1.4886
  862MOL0     H16342   4.274   6.444   6.112  2.1730  0.1627  0.2983
  862MOL0     H16343   4.315   6.311   5.988 -1.9159 -1.9625 -0.2265
  862MOL0     H16344   4.076   6.419   5.958 -1.0368  0.7445  0.4805
  862MOL0     H16345   4.038   6.339   6.110  0.7339  2.5429  0.4588
  862MOL0     H16346   4.119   6.201   5.866  2.5583  0.6764  2.0251
  862MOL0     H16347   4.089   6.125   6.026 -1.1523 -0.3954 -0.5030
  862MOL0     H16348   3.861   6.265   5.978  0.1572  1.7296 -1.0998
  862MOL0     H16349   3.883   6.085   5.940  0.6523 -0.8519 -1.5142
  862MOL0     H16350   3.938   6.145   5.712 -1.8349 -1.1936 -1.3313
  862MOL0     H16351   3.891   6.313   5.744 -0.3229  0.4705  3.0038
  862MOL0     H16352   4.749   6.247   6.128 -0.1376  0.2021 -0.1563
  862MOL0     H16353   4.997   6.242   6.122  2.3707  0.1400  0.6776
  862MOL0     H16354   5.391   6.205   6.340  1.7730 -2.4273 -2.0672
  862MOL0     H16355   5.618   6.171   6.289 -1.4752 -0.9927  0.6632
  862MOL0     H16356   7.445   6.287   5.955  1.1001  0.1470 -0.2536
  862MOL0     H16357   7.628   6.156   6.040 -1.5151 -0.4806  0.0418
  862MOL0     H16358   7.996   6.157   6.344  3.7352  1.2696  1.0908
  862MOL0     H16359   8.152   6.002   6.457 -0.6080 -1.1911  1.6784
  862MOL0     H16360   8.377   5.720   6.224  2.7629 -2.8766  0.9386
  862MOL0     H16361   8.418   5.874   6.310 -1.3151  0.3046 -0.1924
  862MOL0     H16362   8.405   5.604   6.454 -1.6065  1.2262 -0.4811
  862MOL0     H16363   8.476   5.747   6.516 -0.7023 -0.7685  0.2882
  862MOL0     H16364   8.643   5.734   6.328  0.4047 -0.4099 -2.0280
  862MOL0     H16365   8.566   5.594   6.259 -1.0402  2.2108  0.0544
  862MOL0     H16366   8.623   5.547   6.545 -1.1681  0.6234  0.4107
  862MOL0     H16367   8.771   5.567   6.444 -0.4947  1.0505  1.9482
  862MOL0     H16368   8.591   5.225   6.277 -3.2121  0.7976  2.5153
  862MOL0     H16369   8.152   5.744   6.124  3.4327  0.7433 -0.6118
  862MOL0     H16370   8.005   5.906   5.991  2.7799  0.9489 -0.9161
  863MOL0     O16371   9.900   9.185   8.048 -0.2867 -0.3608  0.4856
  863MOL0     C16372   9.935   9.265   8.136  0.8051  0.1492 -0.0780
  863MOL0     O16373   9.850   9.355   8.187 -0.6123 -0.2889  0.0543
  863MOL0     C16374   9.717   9.330   8.188 -0.4795 -0.9441 -0.5541
  863MOL0     C16375   9.639   9.279   8.090 -0.3337  0.2903 -0.4252
  863MOL0     C16376   9.503   9.257   8.109 -0.5771  0.4961 -0.2531
  863MOL0     C16377   9.437   9.288   8.231  0.0503 -1.1260 -0.3884
  863MOL0     O16378   9.311   9.261   8.261 -0.3255  0.6962  1.0273
  863MOL0     C16379   9.261   9.127   8.247 -0.0694  0.4609 -0.6297
  863MOL0     C16380   9.162   9.079   8.351 -0.4186  0.2841 -0.1920
  863MOL0     C16381   9.125   8.934   8.346  0.1992  0.2760 -0.0884
  863MOL0     C16382   9.025   8.909   8.454  0.5488  0.0665  0.2686
  863MOL0     C16383   8.977   8.770   8.477 -0.1827  0.2032  0.1908
  863MOL0     C16384   8.885   8.735   8.365 -0.6892  0.1862  0.4235
  863MOL0     C16385   8.839   8.588   8.393  0.2699  0.8836 -0.0746
  863MOL0     C16386   8.749   8.561   8.515 -0.5102  0.2721  0.2098
  863MOL0     N16387   8.626   8.644   8.518 -0.1858  0.9112 -0.0987
  863MOL0     C16388   8.505   8.598   8.456 -0.9744  1.0046 -0.3389
  863MOL0     C16389   8.421   8.697   8.493 -0.2970 -0.0284 -0.5058
  863MOL0     C16390   8.274   8.698   8.456 -0.3578  1.1684 -0.9893
  863MOL0     C16391   8.259   8.756   8.311  0.4545 -0.2333 -0.7091
  863MOL0     C16392   8.109   8.776   8.267 -0.2018 -0.6561 -0.3047
  863MOL0     C16393   8.039   8.632   8.280  0.6839 -0.2931 -0.2001
  863MOL0     O16394   7.916   8.631   8.201  0.4150  0.2142  0.0210
  863MOL0     C16395   7.797   8.663   8.260 -0.3699 -0.6172 -0.0386
  863MOL0     C16396   7.783   8.734   8.386  0.0404  0.0073  0.7236
  863MOL0     C16397   7.656   8.755   8.440 -0.0069 -0.8481  0.8347
  863MOL0     C16398   7.657   8.823   8.574  0.6571  0.5836 -0.4324
  863MOL0     C16399   7.540   8.724   8.360 -0.2969  0.6412  0.1283
  863MOL0     C16400   7.399   8.752   8.399  0.1059 -1.1856 -0.2075
  863MOL0     O16401   7.314   8.795   8.300  0.4658 -0.3400  0.0272
  863MOL0     C16402   7.177   8.818   8.324 -0.0598  0.4128 -0.8196
  863MOL0     C16403   7.132   8.949   8.319 -0.1679 -0.1041  0.4635
  863MOL0     C16404   6.995   8.983   8.311 -0.5210  0.6811 -0.0780
  863MOL0     C16405   6.903   8.879   8.318  0.3006  0.1882 -0.0260
  863MOL0     O16406   6.772   8.918   8.301 -1.1326  0.6401 -0.7620
  863MOL0     C16407   6.672   8.813   8.328  0.4906 -0.3332 -1.0787
  863MOL0     C16408   6.532   8.875   8.319  0.4997 -0.3338 -0.1151
  863MOL0     C16409   6.486   8.928   8.182  0.0228 -0.7086  0.3391
  863MOL0     C16410   6.350   9.009   8.183  0.3063  0.6428  0.3098
  863MOL0     C16411   6.323   9.055   8.042  0.0317  0.2883 -0.7841
  863MOL0     C16412   6.205   9.154   8.036  0.7436  0.2664 -0.1904
  863MOL0     C16413   6.179   9.194   7.890 -0.4346  0.3597 -0.2078
  863MOL0     C16414   6.108   9.334   7.878  0.4214  0.8026 -0.9784
  863MOL0    Cl16415   5.936   9.322   7.929  0.5014  0.4800 -0.2647
  863MOL0     C16416   6.950   8.750   8.349 -0.1334  0.3564  0.1794
  863MOL0     C16417   7.083   8.719   8.358  0.5165  0.0742 -0.4236
  863MOL0     O16418   7.365   8.740   8.523  0.0012 -0.5800 -0.3141
  863MOL0     C16419   7.557   8.654   8.236  0.5397 -0.2345 -0.4823
  863MOL0     C16420   7.680   8.626   8.192 -0.1341  0.2614  0.7122
  863MOL0     N16421   8.479   8.789   8.581 -0.7632  0.1403 -0.5754
  863MOL0     N16422   8.604   8.752   8.595  0.3088  0.2992  0.2296
  863MOL0     C16423   9.513   9.341   8.333  0.4379  0.7670 -0.0739
  863MOL0     C16424   9.653   9.367   8.316  0.3572 -0.7822  0.6275
  863MOL0     C16425  10.073   9.262   8.187  0.3836 -0.2309  0.1866
  863MOL0     C16426  10.166   9.168   8.146 -0.5611  0.5233  0.4655
  863MOL0     C16427  10.297   9.177   8.199 -0.4600 -0.3714 -0.0816
  863MOL0     C16428  10.329   9.265   8.304 -0.5199  0.4501  0.3586
  863MOL0     O16429  10.462   9.294   8.340  0.4807 -0.6512  0.1686
  863MOL0     C16430  10.538   9.174   8.361  0.0721 -0.4688  0.5098
  863MOL0     C16431  10.687   9.203   8.334  0.4301 -0.3146 -0.4164
  863MOL0     C16432  10.756   9.299   8.434 -0.7491 -0.0742  0.6239
  863MOL0     C16433  10.726   9.440   8.407  0.9724  0.1991 -0.0472
  863MOL0     C16434  10.804   9.524   8.497  0.2046 -0.8409 -0.1628
  863MOL0     C16435  10.871   9.597   8.574  0.1914 -0.2436  0.4298
  863MOL0     C16436  10.234   9.356   8.339 -0.4498  0.3855 -0.0555
  863MOL0     C16437  10.105   9.355   8.288  1.1278 -0.2269  1.0120
  863MOL0     H16438   9.683   9.262   7.992 -1.5941  1.0773 -1.1695
  863MOL0     H16439   9.463   9.230   8.012 -0.0690 -1.3733  0.0075
  863MOL0     H16440   9.206   9.122   8.153 -3.5297  1.0556  1.1935
  863MOL0     H16441   9.352   9.066   8.244  1.5613  2.4638  2.6735
  863MOL0     H16442   9.204   9.103   8.449  0.3947 -1.4567 -0.0774
  863MOL0     H16443   9.073   9.140   8.333  1.2672  3.4827  1.4431
  863MOL0     H16444   9.101   8.908   8.242  1.0926 -0.6440 -0.0763
  863MOL0     H16445   9.208   8.866   8.367 -1.1715 -0.8677  2.0005
  863MOL0     H16446   9.056   8.956   8.548 -1.7670  1.1047  0.5792
  863MOL0     H16447   8.937   8.969   8.430 -0.2808 -0.9595  0.6938
  863MOL0     H16448   9.071   8.715   8.483 -0.4654 -0.7433 -2.4857
  863MOL0     H16449   8.932   8.767   8.576  3.5041 -1.2055  2.0103
  863MOL0     H16450   8.791   8.789   8.352 -0.8668 -0.6030 -2.0670
  863MOL0     H16451   8.949   8.746   8.277  3.1499 -2.9630  2.4358
  863MOL0     H16452   8.797   8.545   8.301 -1.7963 -0.9853  1.6007
  863MOL0     H16453   8.925   8.522   8.404 -1.8552 -2.3537 -1.3189
  863MOL0     H16454   8.801   8.579   8.610 -0.3590  1.8408 -0.1483
  863MOL0     H16455   8.725   8.455   8.523  2.4042 -0.4190  1.0125
  863MOL0     H16456   8.480   8.503   8.410  2.5095 -0.0758 -0.2989
  863MOL0     H16457   8.240   8.594   8.460 -0.0453  0.8785 -3.6045
  863MOL0     H16458   8.221   8.760   8.529  1.7080 -0.1466  1.8180
  863MOL0     H16459   8.299   8.689   8.234  0.4922 -0.1591 -0.7543
  863MOL0     H16460   8.301   8.857   8.312  0.3896 -0.2073  0.9611
  863MOL0     H16461   8.104   8.800   8.161  2.1421  0.9383 -0.1151
  863MOL0     H16462   8.064   8.851   8.333 -1.6334 -1.7709  0.0535
  863MOL0     H16463   8.023   8.594   8.382 -1.6497  0.2986 -0.2903
  863MOL0     H16464   8.106   8.559   8.234  0.3472  0.6710 -2.3383
  863MOL0     H16465   7.870   8.745   8.450 -0.1143 -2.1034  1.3755
  863MOL0     H16466   7.557   8.858   8.602  0.7253 -0.8133  1.7365
  863MOL0     H16467   7.677   8.750   8.652  2.2220  0.5885 -0.7892
  863MOL0     H16468   7.732   8.903   8.572 -1.3094  2.5396 -0.9555
  863MOL0     H16469   7.204   9.030   8.313 -0.0572 -0.3010 -1.8804
  863MOL0     H16470   6.960   9.085   8.304  1.7963  1.6645  1.5739
  863MOL0     H16471   6.674   8.736   8.250 -0.5965 -2.5001  0.9289
  863MOL0     H16472   6.692   8.771   8.426  1.1714  1.2229 -0.5126
  863MOL0     H16473   6.455   8.809   8.360 -2.4023  3.0929  0.4014
  863MOL0     H16474   6.534   8.959   8.389  0.5085  0.9762 -1.6365
  863MOL0     H16475   6.474   8.837   8.122 -1.0042  0.0074 -0.5976
  863MOL0     H16476   6.561   8.989   8.130  2.9037 -3.8225  0.4729
  863MOL0     H16477   6.274   8.955   8.240 -0.9797  0.5275 -1.4350
  863MOL0     H16478   6.366   9.104   8.236 -1.5050  1.0047  0.2949
  863MOL0     H16479   6.294   8.973   7.976  1.9287  0.8046 -2.3379
  863MOL0     H16480   6.408   9.105   7.996  0.9477 -1.9674 -1.6914
  863MOL0     H16481   6.120   9.115   8.094  1.8052  3.3035  3.8778
  863MOL0     H16482   6.241   9.240   8.094 -1.6524  0.1637  1.6477
  863MOL0     H16483   6.122   9.118   7.835  1.3535 -1.3926  0.2893
  863MOL0     H16484   6.275   9.202   7.839  0.2698 -0.4546  0.9720
  863MOL0     H16485   6.105   9.358   7.772 -2.7325 -0.2948 -1.2384
  863MOL0     H16486   6.165   9.416   7.923 -0.1506  1.7323 -1.9136
  863MOL0     H16487   6.879   8.670   8.369 -0.5436  1.3028  2.9186
  863MOL0     H16488   7.112   8.618   8.384 -0.7030 -0.7283 -1.9780
  863MOL0     H16489   7.478   8.605   8.181  0.9830 -0.7765 -0.6446
  863MOL0     H16490   7.697   8.566   8.103 -0.2744 -0.5354  1.2109
  863MOL0     H16491   9.456   9.352   8.425 -0.0881 -1.3679 -0.0921
  863MOL0     H16492   9.718   9.395   8.399 -0.8243  2.1835  0.6699
  863MOL0     H16493  10.147   9.091   8.071 -2.5608  1.3238  0.0900
  863MOL0     H16494  10.379   9.119   8.157  0.0451 -0.4292  0.9528
  863MOL0     H16495  10.525   9.145   8.466 -0.6958  0.8114  0.7964
  863MOL0     H16496  10.509   9.091   8.297  0.0087 -0.4854  0.5601
  863MOL0     H16497  10.697   9.231   8.228  2.3976  2.8765  0.4749
  863MOL0     H16498  10.731   9.103   8.344 -0.4431 -0.5724  1.2425
  863MOL0     H16499  10.864   9.285   8.435 -0.5372  1.2767 -0.4959
  863MOL0     H16500  10.727   9.273   8.536 -2.3755 -1.2149 -0.0787
  863MOL0     H16501  10.618   9.448   8.425  1.1591 -0.9055  1.7960
  863MOL0     H16502  10.757   9.467   8.305 -2.3590  0.3548 -1.1740
  863MOL0     H16503  10.949   9.638   8.635  2.0810 -1.5644 -0.9687
  863MOL0     H16504  10.260   9.437   8.406 -0.0530  0.1883  0.0307
  863MOL0     H16505  10.029   9.424   8.324 -1.3327 -1.5127 -1.3345
  864MOL0     O16506   5.423   1.053   5.620 -0.3763 -0.5497 -0.1979
  864MOL0     C16507   5.405   0.993   5.726 -0.2430 -0.5384  0.0337
  864MOL0     O16508   5.291   0.981   5.797  0.5938 -0.4635  0.4560
  864MOL0     C16509   5.182   1.069   5.770 -0.0530  0.0693  0.2953
  864MOL0     C16510   5.180   1.194   5.699  0.3981 -1.1480 -0.2243
  864MOL0     C16511   5.053   1.258   5.672 -0.5658 -0.9304 -0.4077
  864MOL0     C16512   4.930   1.196   5.707  0.5341  0.7922 -0.3474
  864MOL0     O16513   4.813   1.270   5.718 -0.8481  0.2629 -0.1557
  864MOL0     C16514   4.798   1.367   5.619  0.7394 -0.0663 -0.0404
  864MOL0     C16515   4.651   1.391   5.605 -0.7210  0.4253 -0.1361
  864MOL0     C16516   4.585   1.426   5.743  0.4714 -0.0672  0.0797
  864MOL0     C16517   4.441   1.483   5.725  0.2594 -0.6149  0.2244
  864MOL0     C16518   4.371   1.531   5.842 -0.6886  0.1765 -1.3706
  864MOL0     C16519   4.230   1.600   5.808 -0.2092 -0.3356 -1.3903
  864MOL0     C16520   4.114   1.502   5.817 -0.1474  0.5384  0.1297
  864MOL0     C16521   3.972   1.557   5.788 -0.4959  0.4211  0.8935
  864MOL0     N16522   3.868   1.458   5.807  0.2855 -0.6161 -0.3951
  864MOL0     C16523   3.788   1.392   5.713  0.9137  0.6282 -0.2002
  864MOL0     C16524   3.698   1.317   5.783 -0.4084 -1.1945 -0.6713
  864MOL0     C16525   3.583   1.246   5.721 -0.6116 -0.1978  0.4889
  864MOL0     C16526   3.462   1.247   5.812 -0.4873  0.9558 -0.4458
  864MOL0     C16527   3.337   1.200   5.729 -0.0296  0.8721 -0.7107
  864MOL0     C16528   3.221   1.208   5.822 -0.2262  0.5344 -0.6817
  864MOL0     O16529   3.194   1.344   5.859  0.2425  0.2891  0.2822
  864MOL0     C16530   3.071   1.394   5.825  0.2100  0.3365  0.7479
  864MOL0     C16531   2.997   1.451   5.927  0.5452  0.2843 -0.1674
  864MOL0     C16532   2.869   1.502   5.915 -0.2720 -0.4950  0.2546
  864MOL0     C16533   2.793   1.537   6.040  1.0249 -0.3666  0.6678
  864MOL0     C16534   2.811   1.502   5.781  0.7371  0.0731  0.5805
  864MOL0     C16535   2.674   1.559   5.749  0.7087  0.0134 -0.4041
  864MOL0     O16536   2.606   1.637   5.832 -0.0745 -0.3201 -0.7694
  864MOL0     C16537   2.476   1.686   5.812 -1.3745 -0.0842 -0.6026
  864MOL0     C16538   2.368   1.645   5.884  0.1807  0.2055  0.1553
  864MOL0     C16539   2.230   1.675   5.863  0.0355  0.1660 -0.4091
  864MOL0     C16540   2.207   1.780   5.768 -0.4000  0.5556 -0.8861
  864MOL0     O16541   2.081   1.822   5.720  0.4063  0.7453 -0.8209
  864MOL0     C16542   1.979   1.815   5.819  1.7641  0.0039  0.0848
  864MOL0     C16543   1.862   1.898   5.753  0.2912 -0.1924 -0.1971
  864MOL0     C16544   1.743   1.916   5.856  0.0583  0.0949 -0.3261
  864MOL0     C16545   1.624   2.002   5.801 -0.2039 -0.0483 -0.5938
  864MOL0     C16546   1.526   2.031   5.903  0.0502 -0.4320 -0.1164
  864MOL0     C16547   1.415   2.114   5.863  0.3536  0.3912 -0.4658
  864MOL0     C16548   1.325   2.152   5.983  0.3785 -0.0138  0.3526
  864MOL0     C16549   1.183   2.209   5.958  0.2986  1.0107  0.1762
  864MOL0    Cl16550   1.124   2.259   6.120  0.4168  0.0698 -0.0823
  864MOL0     C16551   2.322   1.825   5.696 -0.6329 -0.3150  1.3304
  864MOL0     C16552   2.449   1.777   5.715  0.3280 -0.2158 -0.3001
  864MOL0     O16553   2.634   1.515   5.639 -0.0975 -1.0852  0.4138
  864MOL0     C16554   2.875   1.424   5.683  0.1860 -0.4554 -0.2463
  864MOL0     C16555   3.009   1.371   5.702 -0.3098  0.7618  0.0344
  864MOL0     N16556   3.714   1.354   5.920  0.5037  0.0517 -0.3913
  864MOL0     N16557   3.815   1.428   5.929  0.1662  0.5902  0.2951
  864MOL0     C16558   4.936   1.068   5.756 -1.0500  0.6516 -0.3665
  864MOL0     C16559   5.061   1.009   5.787  0.2442  0.3906  0.3542
  864MOL0     C16560   5.516   0.908   5.779  0.0850  0.6900  0.3317
  864MOL0     C16561   5.532   0.864   5.909 -1.0598 -0.4145 -0.2066
  864MOL0     C16562   5.646   0.798   5.953 -0.2592  0.4299 -0.1629
  864MOL0     C16563   5.753   0.775   5.868  1.2058  0.4451  0.3060
  864MOL0     O16564   5.859   0.707   5.921  0.0448 -0.0150  0.3612
  864MOL0     C16565   5.975   0.682   5.843  0.5937 -0.2609 -0.0722
  864MOL0     C16566   6.082   0.626   5.938  0.9765  0.4515 -0.0726
  864MOL0     C16567   6.115   0.749   6.027  0.0805  0.1635 -0.5039
  864MOL0     C16568   6.235   0.725   6.127 -0.1817  0.1545 -0.2664
  864MOL0     C16569   6.236   0.603   6.203  0.1113  0.5474 -0.3772
  864MOL0     C16570   6.220   0.497   6.266 -0.6481 -0.4488 -0.0782
  864MOL0     C16571   5.744   0.824   5.740  0.5012  0.5245  0.6460
  864MOL0     C16572   5.620   0.875   5.688  0.0787 -0.5932  0.6388
  864MOL0     H16573   5.270   1.251   5.681  0.0783 -1.1403 -2.0087
  864MOL0     H16574   5.061   1.363   5.643  4.2207 -1.0561 -0.4074
  864MOL0     H16575   4.850   1.460   5.643 -0.7247  0.0835  2.8882
  864MOL0     H16576   4.843   1.335   5.524 -0.7940 -0.6674 -0.5985
  864MOL0     H16577   4.643   1.468   5.528 -0.7370 -0.4280 -0.9987
  864MOL0     H16578   4.616   1.301   5.555 -0.1144  0.2808 -0.3096
  864MOL0     H16579   4.584   1.344   5.815  2.0028  0.8016  1.1307
  864MOL0     H16580   4.651   1.504   5.782  3.3113 -0.9133 -2.6473
  864MOL0     H16581   4.454   1.570   5.660  3.1763 -1.1568 -0.0631
  864MOL0     H16582   4.380   1.407   5.675  0.4046  1.0418 -2.6633
  864MOL0     H16583   4.361   1.453   5.916  1.1400 -0.2459 -1.5169
  864MOL0     H16584   4.430   1.612   5.887  0.8515 -2.4925  1.8171
  864MOL0     H16585   4.216   1.669   5.892 -0.6971 -0.0138 -1.7332
  864MOL0     H16586   4.230   1.649   5.710 -2.9538 -2.1477 -2.3998
  864MOL0     H16587   4.146   1.419   5.753  1.0310  0.2162  1.0964
  864MOL0     H16588   4.123   1.456   5.916  2.3034  0.4662 -0.0790
  864MOL0     H16589   3.985   1.587   5.683  3.9991 -0.9489  0.8562
  864MOL0     H16590   3.947   1.640   5.855 -0.4532 -0.5790  2.1868
  864MOL0     H16591   3.806   1.399   5.606 -1.6060 -0.2916 -0.7306
  864MOL0     H16592   3.558   1.287   5.622  2.3769  1.0946  0.1794
  864MOL0     H16593   3.613   1.143   5.704  0.2036  0.3264 -1.5582
  864MOL0     H16594   3.444   1.345   5.858  4.4844  2.5846 -1.3734
  864MOL0     H16595   3.494   1.179   5.892  2.3930  0.2974 -2.0614
  864MOL0     H16596   3.356   1.093   5.715 -1.8021  0.3726  0.4273
  864MOL0     H16597   3.313   1.259   5.640 -1.5900  5.2268  2.2308
  864MOL0     H16598   3.251   1.160   5.916 -1.0697 -2.0887 -1.6693
  864MOL0     H16599   3.132   1.155   5.788 -2.0049  2.5849  0.5346
  864MOL0     H16600   3.054   1.444   6.019  1.5842 -2.6546 -0.8959
  864MOL0     H16601   2.691   1.499   6.037  0.6836  0.4916 -2.5837
  864MOL0     H16602   2.856   1.499   6.122  0.6806 -1.8039  0.2946
  864MOL0     H16603   2.777   1.644   6.057  2.4568  0.0745 -0.5797
  864MOL0     H16604   2.377   1.567   5.960 -1.3752 -1.8907 -1.6781
  864MOL0     H16605   2.146   1.622   5.907 -1.2397  0.1660 -2.6895
  864MOL0     H16606   1.950   1.710   5.829  0.4855  0.1383 -1.7273
  864MOL0     H16607   2.006   1.842   5.922  2.4751 -0.8188  0.1247
  864MOL0     H16608   1.894   2.001   5.737 -1.0936  0.1741 -0.7228
  864MOL0     H16609   1.830   1.858   5.657 -0.8676  1.4153 -0.5195
  864MOL0     H16610   1.780   1.965   5.947 -1.6511  2.6299 -0.8633
  864MOL0     H16611   1.716   1.815   5.886 -0.1508  0.9113  2.5585
  864MOL0     H16612   1.648   2.101   5.761 -2.7908 -1.1007 -5.4680
  864MOL0     H16613   1.582   1.956   5.712  1.9868  1.7178 -2.6840
  864MOL0     H16614   1.573   2.091   5.982 -0.9957  1.1228 -0.6160
  864MOL0     H16615   1.501   1.931   5.940 -1.5435 -0.0228  0.0000
  864MOL0     H16616   1.452   2.204   5.813  0.1655 -0.0561 -1.4286
  864MOL0     H16617   1.347   2.063   5.794 -0.4238  1.5679 -0.6014
  864MOL0     H16618   1.396   2.226   6.024 -1.2666  2.4803 -1.0463
  864MOL0     H16619   1.320   2.066   6.051  1.2940 -0.6580 -0.3719
  864MOL0     H16620   1.121   2.132   5.912  2.3600  0.5065 -1.9685
  864MOL0     H16621   1.180   2.298   5.894 -1.6322  0.2842 -0.8016
  864MOL0     H16622   2.312   1.891   5.610  3.4271  1.0585  1.6646
  864MOL0     H16623   2.535   1.801   5.653  2.8685 -4.0176  1.3978
  864MOL0     H16624   2.831   1.420   5.584  2.0849  0.3916 -1.1769
  864MOL0     H16625   3.056   1.322   5.617 -0.5397 -0.5580  0.6456
  864MOL0     H16626   4.841   1.020   5.778 -1.7501  0.9342 -2.5595
  864MOL0     H16627   5.046   0.910   5.829 -1.3038  0.0480 -0.8767
  864MOL0     H16628   5.453   0.885   5.980  0.2821  2.8573  0.4601
  864MOL0     H16629   5.658   0.767   6.057 -2.8697  0.0057  0.0678
  864MOL0     H16630   5.947   0.605   5.770  1.4292 -0.4845 -0.1594
  864MOL0     H16631   6.016   0.768   5.789 -2.1660  1.5625  0.5102
  864MOL0     H16632   6.169   0.590   5.882 -0.3975 -4.8274  0.6406
  864MOL0     H16633   6.056   0.533   5.989  2.9303  0.2195  0.6019
  864MOL0     H16634   6.023   0.777   6.080  0.2986  0.7509 -0.4240
  864MOL0     H16635   6.146   0.830   5.960 -1.7175  1.1079 -0.2484
  864MOL0     H16636   6.236   0.805   6.202  2.8794  0.4132 -0.4649
  864MOL0     H16637   6.322   0.733   6.062 -0.6457 -0.0625 -0.9175
  864MOL0     H16638   6.206   0.417   6.336  1.0137 -2.1575 -1.5712
  864MOL0     H16639   5.830   0.830   5.675 -0.1214  0.8616 -0.1580
  864MOL0     H16640   5.630   0.908   5.585 -0.7203  2.7155  1.4961
  865MOL0     O16641  10.126   4.376   4.718 -0.3664 -0.3927 -0.6987
  865MOL0     C16642  10.219   4.302   4.749  0.1043  0.4371 -0.3388
  865MOL0     O16643  10.217   4.220   4.858 -0.6665  0.1741  0.0639
  865MOL0     C16644  10.110   4.223   4.938 -0.1600 -0.3528 -0.1450
  865MOL0     C16645  10.039   4.097   4.957 -0.6597 -0.0975  0.2338
  865MOL0     C16646   9.935   4.083   5.051  0.2353  0.2687 -0.2237
  865MOL0     C16647   9.891   4.202   5.119 -0.5380 -0.0296 -0.5598
  865MOL0     O16648   9.802   4.173   5.222 -0.0331  0.6413 -0.2175
  865MOL0     C16649   9.772   4.280   5.313  0.3313  0.0975  0.0456
  865MOL0     C16650   9.640   4.353   5.272 -0.0212  0.8702  0.2891
  865MOL0     C16651   9.621   4.494   5.345 -0.7679 -0.6268  0.5858
  865MOL0     C16652   9.579   4.484   5.485  0.6557 -0.0035  0.3850
  865MOL0     C16653   9.613   4.611   5.555  0.3195  0.1277  0.0892
  865MOL0     C16654   9.623   4.597   5.703  0.3439 -0.5181 -1.3138
  865MOL0     C16655   9.679   4.722   5.781 -0.0707  0.2167  0.4273
  865MOL0     C16656   9.722   4.699   5.926 -0.4716  0.7442 -0.6005
  865MOL0     N16657   9.609   4.691   6.021  0.9503 -0.2189  0.8486
  865MOL0     C16658   9.547   4.808   6.057 -0.0673  0.1472 -0.3218
  865MOL0     C16659   9.456   4.768   6.150 -0.1126  1.3099 -0.9015
  865MOL0     C16660   9.352   4.855   6.209 -1.1837  0.6933 -0.7055
  865MOL0     C16661   9.208   4.831   6.155 -0.7919 -0.6890 -0.6821
  865MOL0     C16662   9.200   4.704   6.077 -0.3920  0.5600  0.9313
  865MOL0     C16663   9.067   4.669   6.008  0.4897 -0.0033 -1.0651
  865MOL0     O16664   8.977   4.639   6.115 -0.0413  0.4164  0.3400
  865MOL0     C16665   8.851   4.690   6.108  1.0155 -0.1452  0.5639
  865MOL0     C16666   8.748   4.611   6.157 -0.5356  0.7700 -0.4843
  865MOL0     C16667   8.619   4.667   6.173 -0.5220 -0.4437 -0.5867
  865MOL0     C16668   8.510   4.572   6.190  0.0007 -0.4785 -0.6079
  865MOL0     C16669   8.595   4.803   6.135 -0.5192 -0.6199 -0.5165
  865MOL0     C16670   8.461   4.859   6.129 -0.8086  0.4283 -0.8632
  865MOL0     O16671   8.455   4.973   6.052 -0.9676  0.3604  0.5249
  865MOL0     C16672   8.330   5.009   6.013 -0.1896  0.4214  0.3156
  865MOL0     C16673   8.254   4.938   5.914  0.4861 -0.3872 -1.0791
  865MOL0     C16674   8.128   4.957   5.888  0.6638  0.2526  0.0862
  865MOL0     C16675   8.064   5.061   5.951  0.0332 -0.2258 -0.6241
  865MOL0     O16676   7.932   5.081   5.924  0.1778  0.1930 -0.1383
  865MOL0     C16677   7.855   5.196   5.957 -0.2442  0.4026 -0.5003
  865MOL0     C16678   7.737   5.204   5.855 -0.2648 -1.0389  0.0632
  865MOL0     C16679   7.624   5.104   5.876 -0.4287 -0.5427 -1.2158
  865MOL0     C16680   7.531   5.114   5.761 -0.1889  0.6762  0.8922
  865MOL0     C16681   7.417   5.011   5.781 -0.5467  1.0912 -0.6101
  865MOL0     C16682   7.453   4.864   5.730  0.8368  0.3872 -0.8016
  865MOL0     C16683   7.331   4.767   5.767 -1.0496 -0.4742 -0.4413
  865MOL0     C16684   7.357   4.640   5.691 -0.2409  0.2603 -0.3900
  865MOL0    Cl16685   7.485   4.546   5.793 -0.0707 -0.0586  0.1227
  865MOL0     C16686   8.136   5.136   6.049  0.4720 -0.3284 -0.4907
  865MOL0     C16687   8.273   5.117   6.077  0.0159 -0.9698  0.0685
  865MOL0     O16688   8.371   4.806   6.190 -0.4853  0.0122  0.1237
  865MOL0     C16689   8.703   4.884   6.103 -0.3808  0.2613  0.3327
  865MOL0     C16690   8.828   4.832   6.092 -0.4848 -0.1697  0.2696
  865MOL0     N16691   9.489   4.635   6.186 -0.0431  0.8338  0.9313
  865MOL0     N16692   9.588   4.592   6.108 -0.1796 -0.1025  0.3321
  865MOL0     C16693   9.957   4.328   5.098 -1.1292  0.3899  0.4742
  865MOL0     C16694  10.063   4.336   5.007 -0.5942  0.9059 -0.2137
  865MOL0     C16695  10.340   4.306   4.658  0.0283 -0.2530 -0.7891
  865MOL0     C16696  10.350   4.386   4.545  0.5671 -0.4184 -0.0753
  865MOL0     C16697  10.464   4.388   4.469 -0.6669 -0.9316 -0.0144
  865MOL0     C16698  10.578   4.323   4.509  0.2934 -0.5360  0.4251
  865MOL0     O16699  10.688   4.360   4.442 -0.2601  0.0849  0.4572
  865MOL0     C16700  10.768   4.242   4.407  0.0098  0.3637  0.4652
  865MOL0     C16701  10.877   4.270   4.303  0.1054  0.3329  0.0475
  865MOL0     C16702  10.987   4.362   4.345 -0.7044 -1.1828  0.0365
  865MOL0     C16703  11.080   4.305   4.453 -0.2705 -0.0921  1.0992
  865MOL0     C16704  11.211   4.381   4.459 -0.4438 -0.3100  0.1576
  865MOL0     C16705  11.313   4.445   4.467 -0.2527 -1.1242 -0.1801
  865MOL0     C16706  10.565   4.227   4.612  0.0683 -0.1761  0.2859
  865MOL0     C16707  10.447   4.219   4.685  0.7136 -0.1591 -0.0723
  865MOL0     H16708  10.080   4.008   4.910  1.4698 -0.1074  1.9619
  865MOL0     H16709   9.880   3.991   5.070  0.8859  0.1918  1.4677
  865MOL0     H16710   9.763   4.236   5.413  4.8324  0.2175  0.7126
  865MOL0     H16711   9.859   4.344   5.331 -1.6743  2.4544  2.0529
  865MOL0     H16712   9.640   4.362   5.163 -1.4367 -0.1332  0.1788
  865MOL0     H16713   9.554   4.289   5.293  0.6465  0.0119  0.4948
  865MOL0     H16714   9.717   4.547   5.338 -1.9572  1.7390  1.3358
  865MOL0     H16715   9.548   4.552   5.289 -0.8521 -0.7347  0.5844
  865MOL0     H16716   9.473   4.458   5.487  1.1054 -2.0219  2.4096
  865MOL0     H16717   9.631   4.406   5.540  0.9987  0.2492  0.4282
  865MOL0     H16718   9.709   4.644   5.515 -0.3928  1.6477 -0.4508
  865MOL0     H16719   9.537   4.687   5.530  2.5268  1.9980 -1.3123
  865MOL0     H16720   9.525   4.570   5.744  0.6045 -0.9435 -0.9593
  865MOL0     H16721   9.692   4.515   5.724  1.5640 -0.2845 -3.9781
  865MOL0     H16722   9.763   4.765   5.726  1.4094  1.7634  3.6446
  865MOL0     H16723   9.601   4.798   5.773 -0.2938 -0.0073  0.4713
  865MOL0     H16724   9.792   4.775   5.962 -0.4646  1.4588 -2.0577
  865MOL0     H16725   9.778   4.608   5.950  2.0178  1.9202 -1.6545
  865MOL0     H16726   9.564   4.908   6.019 -0.3313  0.4632  0.3825
  865MOL0     H16727   9.346   4.839   6.317 -2.4410 -2.4328 -1.1384
  865MOL0     H16728   9.377   4.960   6.191 -0.4504  0.1740 -3.1586
  865MOL0     H16729   9.167   4.916   6.099  0.1125  0.3329  0.1824
  865MOL0     H16730   9.143   4.817   6.243 -1.4332  0.1861 -0.9958
  865MOL0     H16731   9.233   4.612   6.127  0.6456  0.2446 -0.2969
  865MOL0     H16732   9.266   4.714   5.991 -3.1856 -2.3354 -1.8457
  865MOL0     H16733   9.068   4.587   5.935  0.6198 -2.4043  1.4802
  865MOL0     H16734   9.040   4.758   5.950  0.0456  0.3376 -0.3517
  865MOL0     H16735   8.769   4.505   6.165  0.9809  1.0141 -0.9575
  865MOL0     H16736   8.443   4.603   6.271  1.0670 -2.5107  1.1388
  865MOL0     H16737   8.439   4.573   6.107 -2.0806  0.7085  1.0636
  865MOL0     H16738   8.541   4.468   6.202  1.5139 -0.1303 -1.2353
  865MOL0     H16739   8.306   4.875   5.843  1.5416 -0.3672 -0.3397
  865MOL0     H16740   8.072   4.914   5.805 -1.1247  1.4091  0.6269
  865MOL0     H16741   7.822   5.204   6.061 -0.7642 -0.9700 -0.5502
  865MOL0     H16742   7.922   5.281   5.943 -0.6576  0.7807 -0.2305
  865MOL0     H16743   7.702   5.305   5.877 -0.1216 -0.4894 -2.0275
  865MOL0     H16744   7.773   5.210   5.752  2.2423  1.5025  0.9569
  865MOL0     H16745   7.573   5.125   5.970  2.4195  1.3049  0.0535
  865MOL0     H16746   7.669   5.005   5.887  3.6083  1.3919  2.9740
  865MOL0     H16747   7.495   5.217   5.752 -0.9926  0.2168 -2.3619
  865MOL0     H16748   7.584   5.101   5.666  1.3561  1.1682  1.6625
  865MOL0     H16749   7.327   5.048   5.731  0.0295 -0.0898 -2.6230
  865MOL0     H16750   7.401   5.009   5.889 -1.4664  2.0486 -0.7191
  865MOL0     H16751   7.454   4.875   5.621 -2.7064 -1.6522 -1.2152
  865MOL0     H16752   7.550   4.828   5.765  2.3046  1.2286 -3.6977
  865MOL0     H16753   7.237   4.815   5.737 -0.3151 -0.3574 -2.7357
  865MOL0     H16754   7.314   4.750   5.874 -1.2066 -2.4975 -0.7524
  865MOL0     H16755   7.390   4.655   5.588  0.4322 -0.3831 -0.2767
  865MOL0     H16756   7.264   4.582   5.688  0.6490 -1.2042 -0.7788
  865MOL0     H16757   8.080   5.205   6.111  0.9867 -1.2087  1.0228
  865MOL0     H16758   8.326   5.172   6.154 -1.8664 -0.9384  1.4047
  865MOL0     H16759   8.686   4.991   6.097 -0.8257  0.1597 -0.3195
  865MOL0     H16760   8.922   4.884   6.074 -0.9291  0.9665  1.1153
  865MOL0     H16761   9.933   4.421   5.149 -3.9453  1.5336 -2.5660
  865MOL0     H16762  10.121   4.425   4.984  0.4327  0.1245 -0.7177
  865MOL0     H16763  10.264   4.444   4.513 -0.3015 -1.0416  1.0461
  865MOL0     H16764  10.476   4.465   4.393 -0.3794  0.4780  1.3965
  865MOL0     H16765  10.817   4.191   4.491 -1.5285 -2.1237 -0.0447
  865MOL0     H16766  10.700   4.164   4.372  1.5374 -0.7183 -0.2141
  865MOL0     H16767  10.828   4.328   4.224  5.0028  1.6399 -2.3822
  865MOL0     H16768  10.905   4.173   4.261 -2.3449 -0.5902  0.3796
  865MOL0     H16769  10.954   4.459   4.383 -0.2136 -2.1491  3.2835
  865MOL0     H16770  11.051   4.380   4.259  2.0858 -0.3553  2.1392
  865MOL0     H16771  11.091   4.198   4.429 -2.9012 -0.6072  1.8767
  865MOL0     H16772  11.019   4.320   4.542 -1.0818 -0.0085  0.5425
  865MOL0     H16773  11.397   4.512   4.466 -0.3907 -0.9584 -1.1448
  865MOL0     H16774  10.646   4.167   4.651  2.7751  2.4297 -0.9917
  865MOL0     H16775  10.448   4.159   4.776 -0.7499 -1.4817 -0.8771
  866MOL0     O16776   0.823   1.811  10.202 -0.6049 -0.0583  0.0027
  866MOL0     C16777   0.883   1.705  10.226 -0.3134 -0.5733  1.1120
  866MOL0     O16778   0.822   1.582  10.231  0.6073 -0.6563  0.0814
  866MOL0     C16779   0.682   1.570  10.224  0.2932 -0.3292  0.2092
  866MOL0     C16780   0.592   1.661  10.291 -0.5962  0.9848  0.7235
  866MOL0     C16781   0.460   1.626  10.303 -0.7203  0.3263  0.5915
  866MOL0     C16782   0.403   1.516  10.237 -0.3874 -0.2447  0.9446
  866MOL0     O16783   0.271   1.482  10.256 -0.4728  0.2645  0.4358
  866MOL0     C16784   0.184   1.590  10.271 -0.1021  0.0635  0.3127
  866MOL0     C16785   0.041   1.520  10.261 -0.3551 -0.0697 -0.4467
  866MOL0     C16786  -0.073   1.614  10.217  0.4534 -0.5177 -1.2907
  866MOL0     C16787  -0.166   1.664  10.330 -0.4506 -0.2680  0.1344
  866MOL0     C16788  -0.225   1.805  10.307  0.3948  0.1326  0.2071
  866MOL0     C16789  -0.326   1.803  10.193 -0.7085 -0.7529 -0.4297
  866MOL0     C16790  -0.430   1.911  10.212  1.2682 -0.0566 -0.4349
  866MOL0     C16791  -0.503   1.941  10.078  0.4013 -0.5558 -0.0154
  866MOL0     N16792  -0.614   1.854  10.059  0.9748  0.3428  0.0795
  866MOL0     C16793  -0.619   1.719  10.033  0.1449  1.0664  0.3667
  866MOL0     C16794  -0.749   1.679  10.045 -0.2136 -0.7686 -0.8581
  866MOL0     C16795  -0.783   1.534  10.017 -0.4723  0.2468  0.1283
  866MOL0     C16796  -0.737   1.492   9.876  0.0094 -0.0440 -0.1940
  866MOL0     C16797  -0.783   1.350   9.836 -0.3792 -0.5811 -0.1138
  866MOL0     C16798  -0.928   1.317   9.864 -0.6962  0.9532  0.3564
  866MOL0     O16799  -0.958   1.267   9.993  0.2245 -0.6032 -0.5050
  866MOL0     C16800  -1.099   1.256  10.002 -0.1252  0.5149 -0.3181
  866MOL0     C16801  -1.150   1.246  10.134  0.0522 -0.0458 -0.0305
  866MOL0     C16802  -1.284   1.250  10.167 -0.2386  0.9102  1.2765
  866MOL0     C16803  -1.310   1.269  10.313 -0.2964  0.0807  0.1124
  866MOL0     C16804  -1.383   1.268  10.061 -0.0707  0.2688 -0.1864
  866MOL0     C16805  -1.526   1.302  10.075  0.5996  0.2129  0.2764
  866MOL0     O16806  -1.592   1.359   9.966  0.1969 -0.3688  0.7027
  866MOL0     C16807  -1.727   1.385   9.993 -1.1808  0.6249  0.3088
  866MOL0     C16808  -1.763   1.492  10.068  0.4829 -0.5715  0.0701
  866MOL0     C16809  -1.904   1.506  10.105  0.0946  0.5197 -0.2852
  866MOL0     C16810  -1.999   1.415  10.067 -1.1209 -0.7787  0.1839
  866MOL0     O16811  -2.121   1.430  10.122 -0.0004  0.4876 -0.7103
  866MOL0     C16812  -2.233   1.390  10.042  0.2179 -0.1298  0.2812
  866MOL0     C16813  -2.357   1.469  10.089  0.8096 -0.4486  0.1608
  866MOL0     C16814  -2.375   1.461  10.238  0.3562 -0.1604  0.2755
  866MOL0     C16815  -2.470   1.569  10.287 -0.8441 -0.1287  0.0637
  866MOL0     C16816  -2.514   1.545  10.441  0.5207 -0.3391  0.0107
  866MOL0     C16817  -2.633   1.638  10.476 -0.3565 -0.6140 -0.1565
  866MOL0     C16818  -2.661   1.613  10.622  1.1308  0.0056  0.0921
  866MOL0     C16819  -2.769   1.707  10.668 -0.1137  0.0444 -0.5998
  866MOL0    Cl16820  -2.779   1.720  10.842 -0.4861  0.1567 -0.3337
  866MOL0     C16821  -1.961   1.315   9.982  0.2756  0.2808  0.1585
  866MOL0     C16822  -1.824   1.299   9.942  0.0224  0.2547 -0.0297
  866MOL0     O16823  -1.581   1.265  10.175 -0.3490 -0.0282 -0.4529
  866MOL0     C16824  -1.334   1.262   9.925 -0.2265 -0.7261 -0.1842
  866MOL0     C16825  -1.193   1.260   9.895 -0.2487 -0.5834  0.3163
  866MOL0     N16826  -0.825   1.792  10.079 -0.0306  0.4130 -0.5243
  866MOL0     N16827  -0.743   1.893  10.087 -0.2915 -0.4773 -0.5202
  866MOL0     C16828   0.487   1.436  10.165  0.7440  0.3699  0.3265
  866MOL0     C16829   0.623   1.465  10.152  0.1609  0.6249 -0.4262
  866MOL0     C16830   1.023   1.720  10.238 -0.1206  0.9862  0.0949
  866MOL0     C16831   1.108   1.782  10.142 -0.2731 -0.3760 -1.1837
  866MOL0     C16832   1.244   1.780  10.175  0.5702  0.6691 -0.2453
  866MOL0     C16833   1.294   1.720  10.290  0.8654  0.0595 -0.7597
  866MOL0     O16834   1.422   1.735  10.331  0.3226 -1.0405  0.3238
  866MOL0     C16835   1.525   1.775  10.242 -0.5482  0.3551 -0.4556
  866MOL0     C16836   1.668   1.754  10.294 -0.3178  0.0594  0.9267
  866MOL0     C16837   1.732   1.866  10.373 -0.0622 -0.5704  0.5859
  866MOL0     C16838   1.876   1.845  10.400  0.4672 -0.1950 -0.4299
  866MOL0     C16839   1.923   1.921  10.513  0.7088 -0.4012 -1.0188
  866MOL0     C16840   1.943   1.995  10.607 -0.5972 -0.2587 -0.6063
  866MOL0     C16841   1.206   1.664  10.384  0.7639 -0.0114 -1.4422
  866MOL0     C16842   1.078   1.650  10.346  0.8784 -0.6123  0.7546
  866MOL0     H16843   0.640   1.744  10.340  3.2989  0.7262 -2.1639
  866MOL0     H16844   0.412   1.697  10.370  1.0823  0.7555  1.4749
  866MOL0     H16845   0.186   1.626  10.374  0.6308 -2.1061  1.1175
  866MOL0     H16846   0.201   1.670  10.199  2.2756 -0.0999  0.6110
  866MOL0     H16847   0.046   1.430  10.199 -2.8557  0.6622 -1.8400
  866MOL0     H16848   0.020   1.484  10.363  1.5426 -1.6596 -0.5407
  866MOL0     H16849  -0.027   1.700  10.167  2.2009  0.2057  1.3417
  866MOL0     H16850  -0.139   1.570  10.142 -0.9903  0.1763 -0.4768
  866MOL0     H16851  -0.240   1.586  10.350 -1.2062 -0.1514 -1.9236
  866MOL0     H16852  -0.108   1.655  10.422  0.0019 -0.3795 -0.1551
  866MOL0     H16853  -0.269   1.833  10.403 -1.5021 -1.0068 -0.2710
  866MOL0     H16854  -0.143   1.874  10.286  0.2407  1.4717  3.4415
  866MOL0     H16855  -0.277   1.823  10.098 -0.5430 -0.1688 -0.2271
  866MOL0     H16856  -0.374   1.704  10.196  0.6935 -1.5007  3.1945
  866MOL0     H16857  -0.504   1.885  10.288  0.3209  0.6480 -1.0776
  866MOL0     H16858  -0.387   2.000  10.259 -0.4870  0.4910  0.2244
  866MOL0     H16859  -0.441   1.941   9.989 -0.4570 -1.4848 -0.6402
  866MOL0     H16860  -0.544   2.042  10.088 -0.5907 -0.9147 -0.3790
  866MOL0     H16861  -0.537   1.656  10.001 -0.8306 -0.4791  0.8099
  866MOL0     H16862  -0.730   1.466  10.085 -2.2706 -0.4919  0.8569
  866MOL0     H16863  -0.892   1.522  10.016 -0.3680 -0.8138 -0.4542
  866MOL0     H16864  -0.629   1.495   9.860 -0.1098  0.0788 -1.0483
  866MOL0     H16865  -0.787   1.564   9.811  1.7485  1.9239  0.5338
  866MOL0     H16866  -0.728   1.269   9.883 -1.1093  0.4744  2.7877
  866MOL0     H16867  -0.767   1.345   9.728  0.3820 -1.1617  0.0229
  866MOL0     H16868  -0.938   1.232   9.796  0.4305 -0.1422  1.4839
  866MOL0     H16869  -0.994   1.399   9.838 -1.0228 -0.1198 -2.5360
  866MOL0     H16870  -1.086   1.241  10.221 -1.9014 -0.0764  1.4798
  866MOL0     H16871  -1.336   1.171  10.355  1.5068 -0.5190 -0.0704
  866MOL0     H16872  -1.222   1.293  10.373 -0.7976  0.4092  0.7186
  866MOL0     H16873  -1.382   1.348  10.334  3.4629  3.2584  2.2870
  866MOL0     H16874  -1.678   1.554  10.096  1.5187  0.2405 -4.2527
  866MOL0     H16875  -1.937   1.587  10.170  0.6324 -0.5339  1.3778
  866MOL0     H16876  -2.215   1.413   9.937  1.7891 -1.7106  0.1575
  866MOL0     H16877  -2.254   1.283  10.045  0.6770 -0.2295  0.0559
  866MOL0     H16878  -2.329   1.573  10.072  0.3734 -0.7143 -2.7796
  866MOL0     H16879  -2.450   1.447  10.036  0.2006  1.3930  0.4137
  866MOL0     H16880  -2.281   1.471  10.293  1.1234  0.8617 -1.1630
  866MOL0     H16881  -2.432   1.372  10.264  1.1835 -0.5668  0.7526
  866MOL0     H16882  -2.425   1.668  10.271  1.2807 -1.2353 -1.1296
  866MOL0     H16883  -2.559   1.576  10.224 -1.2505  1.4213  0.7468
  866MOL0     H16884  -2.427   1.548  10.506  1.2213  1.8670 -0.9228
  866MOL0     H16885  -2.545   1.440  10.446  0.9485 -0.7376 -3.2336
  866MOL0     H16886  -2.592   1.737  10.453  0.5371 -1.1313 -0.8573
  866MOL0     H16887  -2.722   1.622  10.414 -0.0119  0.6770 -1.0529
  866MOL0     H16888  -2.569   1.619  10.681  0.0120 -0.2650  1.9111
  866MOL0     H16889  -2.693   1.510  10.637  0.4876  0.0542 -0.8677
  866MOL0     H16890  -2.867   1.675  10.631  0.2281  0.4007 -1.8403
  866MOL0     H16891  -2.755   1.807  10.625  0.5136  0.3524  0.2874
  866MOL0     H16892  -2.027   1.237   9.944  1.8223 -1.3767  0.7114
  866MOL0     H16893  -1.777   1.219   9.887  0.4492 -1.8941  3.2229
  866MOL0     H16894  -1.409   1.278   9.848 -2.7630  0.3023  2.3020
  866MOL0     H16895  -1.169   1.244   9.791 -1.0786 -1.9079  0.2995
  866MOL0     H16896   0.448   1.341  10.129  1.2063  1.0163 -1.9892
  866MOL0     H16897   0.689   1.399  10.096  0.0775 -0.5954  0.8678
  866MOL0     H16898   1.065   1.839  10.061 -2.0043  0.5713  0.3193
  866MOL0     H16899   1.314   1.826  10.106  0.6777 -0.4073 -0.8904
  866MOL0     H16900   1.507   1.720  10.149 -1.0972 -1.2486  0.5427
  866MOL0     H16901   1.519   1.881  10.216  0.4936  0.1655 -1.5626
  866MOL0     H16902   1.734   1.734  10.208 -0.6050 -2.0321  1.1321
  866MOL0     H16903   1.673   1.662  10.353  1.7433 -2.1515 -2.3220
  866MOL0     H16904   1.672   1.872  10.464 -3.0208  1.3525 -1.3156
  866MOL0     H16905   1.717   1.963  10.322 -0.8465 -2.7373 -3.8319
  866MOL0     H16906   1.923   1.879  10.308  2.0893 -1.2975 -0.0509
  866MOL0     H16907   1.889   1.737  10.414 -2.8989 -0.5486  0.8866
  866MOL0     H16908   1.967   2.069  10.681 -1.1322 -0.8427  0.1622
  866MOL0     H16909   1.248   1.627  10.477  2.4918  4.0882 -0.3749
  866MOL0     H16910   1.009   1.603  10.416 -0.9512  0.4872 -0.2483
  867MOL0     O16911  11.063   0.605   8.636 -0.0383  0.5406  0.3428
  867MOL0     C16912  11.126   0.584   8.533 -0.3900 -0.8392 -0.6739
  867MOL0     O16913  11.084   0.525   8.425 -0.0311 -0.7350  0.6168
  867MOL0     C16914  10.960   0.467   8.405 -0.4644 -0.0268 -0.4097
  867MOL0     C16915  10.844   0.497   8.477  0.1304 -0.1538 -0.4430
  867MOL0     C16916  10.727   0.428   8.446 -0.1976 -0.4348  0.1391
  867MOL0     C16917  10.713   0.340   8.333  0.0133 -0.1801  0.2370
  867MOL0     O16918  10.596   0.264   8.303  0.2880 -0.7892  0.7010
  867MOL0     C16919  10.474   0.289   8.372 -0.3667 -0.2008  0.1905
  867MOL0     C16920  10.357   0.198   8.323  0.0674  0.7178 -0.6246
  867MOL0     C16921  10.291   0.245   8.189 -0.2019 -1.2750 -0.7005
  867MOL0     C16922  10.242   0.399   8.185 -0.0402  1.1008 -0.5017
  867MOL0     C16923  10.155   0.426   8.066  0.4647 -0.0074  0.2054
  867MOL0     C16924  10.143   0.575   8.033 -0.4492 -0.5653  0.0152
  867MOL0     C16925  10.039   0.591   7.921 -0.6284 -0.1461 -0.2374
  867MOL0     C16926   9.889   0.578   7.956  0.5017 -0.0386 -0.3153
  867MOL0     N16927   9.804   0.613   7.840  0.6414 -0.4590  0.3274
  867MOL0     C16928   9.755   0.532   7.737  0.2776  0.5302  0.5772
  867MOL0     C16929   9.668   0.610   7.676 -0.6024 -0.5883 -0.4182
  867MOL0     C16930   9.580   0.586   7.560 -0.7030 -0.6473  0.9136
  867MOL0     C16931   9.437   0.550   7.608  0.1342  0.1348 -0.4727
  867MOL0     C16932   9.351   0.469   7.509  0.4766  0.1238  0.1140
  867MOL0     C16933   9.203   0.500   7.510 -0.2403 -0.1831 -0.7455
  867MOL0     O16934   9.135   0.458   7.396  0.5695 -0.5023  0.6619
  867MOL0     C16935   8.999   0.454   7.393  0.1461 -1.2065  0.1393
  867MOL0     C16936   8.937   0.410   7.281 -0.8562 -0.5865  0.5371
  867MOL0     C16937   8.796   0.411   7.263  0.4538  0.1586 -0.6955
  867MOL0     C16938   8.747   0.371   7.122 -0.9394 -0.0143 -0.6568
  867MOL0     C16939   8.714   0.463   7.366 -0.4651  0.2253 -0.0533
  867MOL0     C16940   8.566   0.473   7.354  0.8405  0.3515  0.1009
  867MOL0     O16941   8.504   0.564   7.433  0.6128  0.2505 -0.3538
  867MOL0     C16942   8.366   0.565   7.450  0.1430  0.2431  0.3929
  867MOL0     C16943   8.318   0.497   7.559  0.0900 -0.1487 -0.3796
  867MOL0     C16944   8.180   0.492   7.587 -0.1292 -0.0857 -0.3871
  867MOL0     C16945   8.092   0.542   7.494 -0.5727  0.0397  0.6559
  867MOL0     O16946   7.959   0.535   7.508 -0.0875 -0.0844 -0.6253
  867MOL0     C16947   7.899   0.424   7.581  0.3519 -0.4606 -0.5539
  867MOL0     C16948   7.752   0.441   7.589 -0.4409 -0.1687  0.6574
  867MOL0     C16949   7.694   0.354   7.694 -0.1454  1.0641 -0.0363
  867MOL0     C16950   7.545   0.391   7.721 -0.0884 -0.4433 -0.6044
  867MOL0     C16951   7.503   0.335   7.854  0.0766  0.8736  0.6958
  867MOL0     C16952   7.370   0.388   7.901 -0.1266 -0.1364 -0.5497
  867MOL0     C16953   7.330   0.313   8.027  0.3507  0.2680 -0.0102
  867MOL0     C16954   7.199   0.366   8.086  0.8397 -0.1836  0.7512
  867MOL0    Cl16955   7.230   0.540   8.124 -0.3622 -0.5004  0.1592
  867MOL0     C16956   8.136   0.602   7.381 -0.4082  0.1817  0.0515
  867MOL0     C16957   8.274   0.621   7.354 -0.1453  0.2056 -0.9005
  867MOL0     O16958   8.508   0.392   7.278 -0.0764  0.1378 -0.0779
  867MOL0     C16959   8.783   0.520   7.479  0.5151  0.4386 -0.1063
  867MOL0     C16960   8.921   0.512   7.499  0.1289  0.1964 -0.5372
  867MOL0     N16961   9.671   0.740   7.741 -0.2613 -0.5632  1.0198
  867MOL0     N16962   9.749   0.739   7.839 -0.1636 -0.3715 -0.2083
  867MOL0     C16963  10.840   0.317   8.261  0.7015  0.0603 -0.2646
  867MOL0     C16964  10.951   0.381   8.297 -0.0398  0.2639  0.1989
  867MOL0     C16965  11.269   0.644   8.520  1.5667 -0.4256 -0.4517
  867MOL0     C16966  11.317   0.769   8.585  0.0685 -0.3353  0.4066
  867MOL0     C16967  11.443   0.829   8.548  0.6829  0.2313  0.6939
  867MOL0     C16968  11.527   0.759   8.455 -0.5748  0.4916 -0.2443
  867MOL0     O16969  11.650   0.819   8.413  0.2770 -0.3538 -0.1801
  867MOL0     C16970  11.766   0.740   8.397  1.2805  0.5252  0.3076
  867MOL0     C16971  11.858   0.761   8.513  0.2662 -0.6484 -0.3537
  867MOL0     C16972  11.887   0.908   8.519 -0.2662  0.6864  0.6146
  867MOL0     C16973  11.999   0.938   8.619  0.7874 -0.3182  0.8087
  867MOL0     C16974  12.066   1.075   8.594  0.7413  0.1564  0.0031
  867MOL0     C16975  12.106   1.183   8.557 -0.6594  0.3678  0.0689
  867MOL0     C16976  11.489   0.626   8.403 -0.7181 -0.0517 -0.7901
  867MOL0     C16977  11.359   0.581   8.428 -0.1213  0.0480 -1.0162
  867MOL0     H16978  10.848   0.586   8.539  0.1378  1.1379 -2.2017
  867MOL0     H16979  10.641   0.438   8.512 -0.9144 -0.2044 -0.8010
  867MOL0     H16980  10.491   0.254   8.474 -0.6525 -1.1617 -0.0814
  867MOL0     H16981  10.449   0.395   8.365  1.3536  0.3600  1.7173
  867MOL0     H16982  10.391   0.095   8.316  1.3470  0.9921  0.9938
  867MOL0     H16983  10.279   0.212   8.399  2.1675 -0.3540  1.8877
  867MOL0     H16984  10.353   0.220   8.102 -0.6791 -1.6308 -0.9396
  867MOL0     H16985  10.198   0.189   8.180  1.0735 -3.5181 -0.8311
  867MOL0     H16986  10.184   0.425   8.274 -0.5230  1.5442 -0.9360
  867MOL0     H16987  10.328   0.466   8.194  0.3674  0.3845  1.5146
  867MOL0     H16988  10.192   0.370   7.979  1.4956 -0.9011  1.1871
  867MOL0     H16989  10.054   0.389   8.083  0.8369 -1.3095 -0.3389
  867MOL0     H16990  10.118   0.638   8.119 -2.8483 -0.0930 -0.9529
  867MOL0     H16991  10.240   0.606   7.995 -1.2045  3.5754  0.9823
  867MOL0     H16992  10.065   0.691   7.885  2.8173 -0.2414  1.6593
  867MOL0     H16993  10.056   0.519   7.840  2.0992 -2.4685  2.1732
  867MOL0     H16994   9.869   0.646   8.039  1.9327 -0.4356  0.3781
  867MOL0     H16995   9.866   0.475   7.983  0.4798  0.3811  1.3471
  867MOL0     H16996   9.780   0.427   7.724  1.4213  0.9473 -0.8513
  867MOL0     H16997   9.581   0.677   7.499  1.0279 -1.9677 -1.1717
  867MOL0     H16998   9.617   0.509   7.491 -2.4750  0.4197 -1.4081
  867MOL0     H16999   9.379   0.640   7.631 -2.7024 -1.6772  0.0897
  867MOL0     H17000   9.451   0.490   7.698 -0.1460 -0.7383 -1.0005
  867MOL0     H17001   9.372   0.367   7.542  0.9103 -0.0812 -0.7692
  867MOL0     H17002   9.392   0.475   7.408 -1.3482  1.7037 -0.6120
  867MOL0     H17003   9.200   0.608   7.524 -1.1795 -0.2657 -0.2782
  867MOL0     H17004   9.150   0.464   7.599 -1.9324  2.8350 -0.4115
  867MOL0     H17005   9.005   0.376   7.203  0.4055 -1.4303  1.9382
  867MOL0     H17006   8.831   0.361   7.051  1.7172  1.3281  2.0691
  867MOL0     H17007   8.684   0.282   7.115 -1.7770  0.2179  2.6238
  867MOL0     H17008   8.686   0.458   7.098  0.4183  1.1574  0.0062
  867MOL0     H17009   8.396   0.461   7.625  0.4447 -0.4200 -0.9477
  867MOL0     H17010   8.161   0.441   7.681  1.4856 -1.1717 -0.6282
  867MOL0     H17011   7.928   0.339   7.519  1.8031  0.1227 -0.7132
  867MOL0     H17012   7.946   0.430   7.680 -0.6126  2.9054 -0.1674
  867MOL0     H17013   7.729   0.543   7.621 -1.4300  0.1827 -1.0322
  867MOL0     H17014   7.692   0.435   7.498 -3.1166 -0.7181  2.3320
  867MOL0     H17015   7.755   0.363   7.785  2.0813 -1.3194 -1.1669
  867MOL0     H17016   7.697   0.246   7.677 -0.3989  1.1742 -0.8069
  867MOL0     H17017   7.538   0.500   7.730  2.5170 -0.2690  0.2856
  867MOL0     H17018   7.479   0.365   7.639  0.1740 -0.4728 -0.8091
  867MOL0     H17019   7.575   0.360   7.932  0.4038  0.9130  0.3821
  867MOL0     H17020   7.505   0.226   7.856 -0.9317  0.8504  1.7018
  867MOL0     H17021   7.369   0.497   7.913  1.8695 -0.0677 -0.5874
  867MOL0     H17022   7.309   0.363   7.814  0.4481  1.7804 -1.5806
  867MOL0     H17023   7.404   0.323   8.107  0.5043 -0.0896 -0.1042
  867MOL0     H17024   7.325   0.209   7.995  0.1984  0.9560 -2.4860
  867MOL0     H17025   7.160   0.322   8.178  0.1695  0.1795  0.6536
  867MOL0     H17026   7.118   0.363   8.012  0.1693 -2.6049  1.4819
  867MOL0     H17027   8.066   0.638   7.306  1.4856  1.5973 -1.1582
  867MOL0     H17028   8.315   0.649   7.257  0.2495 -0.3543 -0.9014
  867MOL0     H17029   8.719   0.569   7.552  0.5807  0.4127 -0.0310
  867MOL0     H17030   8.959   0.561   7.588  1.0507 -1.2184 -0.1258
  867MOL0     H17031  10.845   0.242   8.182 -2.5578 -2.8688  2.0203
  867MOL0     H17032  11.042   0.368   8.240 -0.3573 -2.9821  0.2393
  867MOL0     H17033  11.245   0.813   8.653 -1.4746 -1.2137 -0.5908
  867MOL0     H17034  11.489   0.912   8.600  0.9463  0.1447  0.5979
  867MOL0     H17035  11.739   0.635   8.395  2.7303  0.0588  2.1678
  867MOL0     H17036  11.818   0.764   8.304  2.7510 -1.2129  0.6154
  867MOL0     H17037  11.951   0.707   8.493 -0.4613 -1.3595 -2.0102
  867MOL0     H17038  11.807   0.732   8.606  1.5086  1.4411  1.0778
  867MOL0     H17039  11.798   0.963   8.553 -0.1506  1.6202 -0.5237
  867MOL0     H17040  11.926   0.929   8.419 -1.7893  2.0052  0.2460
  867MOL0     H17041  12.086   0.873   8.608 -0.3373 -1.5345 -1.5236
  867MOL0     H17042  11.955   0.919   8.718 -2.4197  0.0201 -0.4127
  867MOL0     H17043  12.166   1.269   8.531  2.5417 -1.0365  2.2249
  867MOL0     H17044  11.543   0.596   8.314 -2.2291 -0.8319 -1.4810
  867MOL0     H17045  11.339   0.487   8.377  0.1625 -0.4906 -0.1514
  868MOL0     O17046   7.332  10.060   6.233  0.4912 -0.0338 -1.1025
  868MOL0     C17047   7.371  10.104   6.345 -0.3268  0.2223  0.6026
  868MOL0     O17048   7.297  10.142   6.450 -0.0743  0.0665 -0.4583
  868MOL0     C17049   7.158  10.136   6.431 -0.3759 -0.0313  0.0573
  868MOL0     C17050   7.088  10.159   6.304  0.1339 -0.6252 -0.1817
  868MOL0     C17051   6.949  10.170   6.303 -0.2532 -0.5350  0.7607
  868MOL0     C17052   6.873  10.140   6.418 -0.6374  0.1083  0.4908
  868MOL0     O17053   6.740  10.115   6.424  0.7185  0.1511  0.3115
  868MOL0     C17054   6.673  10.081   6.302 -1.2961  0.4109 -0.1734
  868MOL0     C17055   6.521  10.064   6.321  0.9681 -1.6554  0.4023
  868MOL0     C17056   6.459  10.186   6.397  0.1556 -0.6600 -0.2028
  868MOL0     C17057   6.301  10.181   6.386 -0.0468 -0.4991  0.1789
  868MOL0     C17058   6.236  10.285   6.474  0.2475 -0.0061  0.6051
  868MOL0     C17059   6.088  10.317   6.434 -0.1110 -0.5997  0.3375
  868MOL0     C17060   6.011  10.190   6.399  0.5308  0.4069  0.0660
  868MOL0     C17061   5.862  10.217   6.355 -1.1849  0.3366  0.2759
  868MOL0     N17062   5.765  10.272   6.446 -0.0822 -0.1527  0.2510
  868MOL0     C17063   5.628  10.258   6.417  0.0061  0.2242 -0.3162
  868MOL0     C17064   5.564  10.367   6.481  0.0171  0.1389 -0.7255
  868MOL0     C17065   5.411  10.392   6.484  0.1563 -0.1514  0.7022
  868MOL0     C17066   5.344  10.327   6.615 -0.0981 -0.3898  1.1770
  868MOL0     C17067   5.289  10.192   6.579 -0.1769 -0.6433  0.2173
  868MOL0     C17068   5.159  10.175   6.512  0.7215  0.3474  0.4080
  868MOL0     O17069   5.135  10.033   6.506 -0.5412  0.6800  0.6440
  868MOL0     C17070   5.012   9.979   6.490  0.5263 -0.2819  0.2838
  868MOL0     C17071   4.901  10.059   6.459 -0.0632  0.3024 -0.0667
  868MOL0     C17072   4.778  10.006   6.443 -0.3994  0.2280  0.2910
  868MOL0     C17073   4.663  10.090   6.431  0.2999 -0.3668 -0.2545
  868MOL0     C17074   4.761   9.860   6.445 -0.4250 -0.5810  0.2475
  868MOL0     C17075   4.628   9.792   6.419 -1.2794  0.6085 -0.1251
  868MOL0     O17076   4.532   9.849   6.336 -0.2971  0.1793 -0.1220
  868MOL0     C17077   4.413   9.784   6.319 -0.2393 -0.5128  0.1391
  868MOL0     C17078   4.354   9.690   6.408  0.3075 -0.3277 -0.7770
  868MOL0     C17079   4.224   9.640   6.393 -0.0112  0.0406 -0.3401
  868MOL0     C17080   4.150   9.685   6.280 -0.0136 -0.5259 -0.1848
  868MOL0     O17081   4.025   9.643   6.245 -0.6334 -0.0572 -0.5034
  868MOL0     C17082   3.970   9.537   6.319  0.2534  0.8891  0.0623
  868MOL0     C17083   4.026   9.402   6.271 -0.2807  0.7761 -0.5172
  868MOL0     C17084   3.961   9.280   6.333 -0.2159 -0.8385  0.0737
  868MOL0     C17085   3.817   9.280   6.292  0.8921  0.2344 -0.3365
  868MOL0     C17086   3.752   9.147   6.320 -1.0023 -0.2067 -0.0140
  868MOL0     C17087   3.621   9.123   6.239 -0.3335 -0.4069  0.0371
  868MOL0     C17088   3.506   9.173   6.326 -0.1015  0.3776  0.2630
  868MOL0     C17089   3.379   9.180   6.244 -0.2454 -0.4245  0.8093
  868MOL0    Cl17090   3.240   9.209   6.348  0.0320  0.1353  0.0498
  868MOL0     C17091   4.208   9.781   6.200  0.1616  0.1043  0.1256
  868MOL0     C17092   4.335   9.828   6.214  0.5774  0.5242  0.0104
  868MOL0     O17093   4.630   9.673   6.449 -0.1356 -0.0346 -0.0890
  868MOL0     C17094   4.884   9.783   6.471 -0.5615 -0.1899  0.1023
  868MOL0     C17095   5.009   9.841   6.483  0.4355 -0.4590 -0.3979
  868MOL0     N17096   5.655  10.435   6.559 -0.8217 -0.1368  0.0730
  868MOL0     N17097   5.772  10.382   6.526  0.6303  0.6137 -0.2971
  868MOL0     C17098   6.943  10.116   6.538  0.4035  0.8811 -0.5886
  868MOL0     C17099   7.085  10.113   6.544 -0.2090  0.7009  0.0381
  868MOL0     C17100   7.515  10.101   6.375 -0.0410 -0.6797 -0.1679
  868MOL0     C17101   7.569  10.118   6.502 -0.2723 -0.4310 -0.2026
  868MOL0     C17102   7.710  10.112   6.513  1.1839  0.1708 -0.2889
  868MOL0     C17103   7.794  10.076   6.410  0.0349 -0.0331 -0.9918
  868MOL0     O17104   7.924  10.066   6.435  0.0484 -0.3626 -0.5957
  868MOL0     C17105   7.992  10.188   6.461  0.2711  0.0646  0.0988
  868MOL0     C17106   8.139  10.154   6.490 -0.7654 -0.6895  0.0871
  868MOL0     C17107   8.222  10.101   6.374 -0.0274 -0.1562  0.2747
  868MOL0     C17108   8.355  10.042   6.418 -1.2534 -0.2048 -0.9353
  868MOL0     C17109   8.443  10.164   6.448 -0.1221  0.8158  0.6301
  868MOL0     C17110   8.535  10.234   6.450  0.0349 -0.1633  0.4347
  868MOL0     C17111   7.739  10.062   6.286  0.1687  0.0273  0.1435
  868MOL0     C17112   7.602  10.069   6.267 -0.2213  0.4752 -0.2328
  868MOL0     H17113   7.140  10.203   6.219  0.4234 -0.4882  0.0622
  868MOL0     H17114   6.904  10.198   6.209  1.2127 -0.8748 -0.0667
  868MOL0     H17115   6.697  10.162   6.233  0.8356  2.7763  3.0857
  868MOL0     H17116   6.712   9.986   6.263  0.2262 -0.3952  2.9993
  868MOL0     H17117   6.489  10.060   6.217  1.7845  0.8799 -0.0230
  868MOL0     H17118   6.499   9.971   6.374 -1.8097 -0.0996  2.1908
  868MOL0     H17119   6.494  10.185   6.500  0.6728 -1.1221 -0.3813
  868MOL0     H17120   6.490  10.282   6.353  0.8013  0.0673  1.7286
  868MOL0     H17121   6.277  10.195   6.281 -0.5380  1.5489  0.5150
  868MOL0     H17122   6.273  10.081   6.420  1.7521 -0.8883  0.5922
  868MOL0     H17123   6.229  10.256   6.579 -0.0376  3.4555  1.6377
  868MOL0     H17124   6.298  10.375   6.476 -0.7818  0.8882 -2.1965
  868MOL0     H17125   6.054  10.377   6.519  0.3938 -1.2505  1.0131
  868MOL0     H17126   6.095  10.380   6.345  1.6289  0.2720  1.0364
  868MOL0     H17127   6.061  10.132   6.321 -3.0107 -1.3137 -1.1315
  868MOL0     H17128   6.017  10.121   6.483 -0.9692 -1.0386 -0.9401
  868MOL0     H17129   5.830  10.117   6.326  1.5095 -0.4271 -0.3213
  868MOL0     H17130   5.862  10.285   6.269  0.6791 -0.0162 -0.0393
  868MOL0     H17131   5.590  10.178   6.354  0.7386 -1.5272  1.3621
  868MOL0     H17132   5.389  10.498   6.473 -0.1560 -0.3149 -0.3289
  868MOL0     H17133   5.373  10.340   6.396  3.8464 -2.2366  0.1291
  868MOL0     H17134   5.264  10.392   6.651 -1.1244  2.7375 -5.2794
  868MOL0     H17135   5.417  10.309   6.694  0.1279  1.8359  1.5259
  868MOL0     H17136   5.278  10.134   6.672 -0.7931  1.4447  1.5094
  868MOL0     H17137   5.366  10.143   6.519  1.0808  0.8471  0.5538
  868MOL0     H17138   5.143  10.225   6.416 -1.5539 -0.2434  0.4182
  868MOL0     H17139   5.087  10.224   6.579  0.6000  2.6807 -1.3249
  868MOL0     H17140   4.914  10.166   6.476 -0.4977  0.3726 -0.1514
  868MOL0     H17141   4.577  10.046   6.483  0.8664 -1.2807 -0.0600
  868MOL0     H17142   4.676  10.187   6.479 -1.5407 -0.7037  1.0491
  868MOL0     H17143   4.654  10.096   6.323  0.2070  3.0188 -0.1644
  868MOL0     H17144   4.413   9.660   6.495 -1.4645  3.3288  1.9598
  868MOL0     H17145   4.185   9.558   6.453  0.0993 -0.9768 -1.6219
  868MOL0     H17146   3.980   9.539   6.428 -1.9600 -1.5107  0.4134
  868MOL0     H17147   3.864   9.544   6.293  0.4695 -0.6426 -1.4635
  868MOL0     H17148   4.004   9.381   6.166  1.4065  2.4369 -1.2634
  868MOL0     H17149   4.134   9.398   6.287 -0.4564 -0.1748  0.5260
  868MOL0     H17150   3.969   9.284   6.442 -0.4935 -2.9373  0.2215
  868MOL0     H17151   4.010   9.190   6.295 -1.3793 -1.5823  0.2799
  868MOL0     H17152   3.768   9.356   6.353  0.6846  0.8194 -1.2054
  868MOL0     H17153   3.810   9.305   6.185 -0.0159 -0.5460 -0.4746
  868MOL0     H17154   3.730   9.122   6.424 -0.2858 -0.3515  0.1092
  868MOL0     H17155   3.833   9.082   6.285  1.1736  1.7205  1.1499
  868MOL0     H17156   3.622   9.174   6.143  0.5418 -1.8537 -0.7439
  868MOL0     H17157   3.596   9.021   6.208  0.0243 -0.2252 -0.8744
  868MOL0     H17158   3.540   9.266   6.372 -0.3620  1.4472 -1.6164
  868MOL0     H17159   3.483   9.094   6.399 -0.1164 -1.9485 -2.0899
  868MOL0     H17160   3.371   9.087   6.186 -1.5210 -0.1550  0.5363
  868MOL0     H17161   3.382   9.264   6.174 -1.0284 -0.5825  0.5806
  868MOL0     H17162   4.156   9.813   6.110 -0.8623  3.6217  1.8046
  868MOL0     H17163   4.377   9.899   6.143  0.3587  1.3941  0.7316
  868MOL0     H17164   4.885   9.674   6.465 -0.8687 -0.2066  0.3296
  868MOL0     H17165   5.098   9.781   6.495 -0.1522 -1.3807 -0.5709
  868MOL0     H17166   6.881  10.111   6.627  0.4548  3.1291 -0.3607
  868MOL0     H17167   7.145  10.095   6.633  0.4815  2.3802 -0.0505
  868MOL0     H17168   7.512  10.149   6.589  1.7064  1.1931  0.5858
  868MOL0     H17169   7.759  10.122   6.610  2.4056 -1.5017 -0.6992
  868MOL0     H17170   7.990  10.247   6.369  1.1163 -0.1927 -0.0899
  868MOL0     H17171   7.946  10.245   6.542 -0.6249  1.2445 -1.1943
  868MOL0     H17172   8.142  10.089   6.579 -0.8100 -3.4518 -1.8129
  868MOL0     H17173   8.183  10.251   6.514 -0.8924  0.3999 -3.5924
  868MOL0     H17174   8.231  10.163   6.285  0.6185 -1.5100 -0.6460
  868MOL0     H17175   8.160  10.017   6.340 -1.2937  1.2201 -0.9468
  868MOL0     H17176   8.399   9.992   6.332  0.2098  0.0139 -0.3452
  868MOL0     H17177   8.341   9.967   6.496 -0.9104 -1.3110 -1.9216
  868MOL0     H17178   8.622  10.296   6.463  0.7408 -0.7133 -1.3004
  868MOL0     H17179   7.814  10.054   6.208  1.6894  1.5131  1.3784
  868MOL0     H17180   7.561  10.053   6.168 -0.3477  0.4852 -0.1818
  869MOL0     O17181   4.442   1.013   9.410  0.9423 -0.2638  0.0513
  869MOL0     C17182   4.421   1.107   9.335  0.4688  0.4944  0.6848
  869MOL0     O17183   4.302   1.180   9.337  0.3701  0.2063  0.2724
  869MOL0     C17184   4.195   1.143   9.409  1.4102  0.7567 -0.0306
  869MOL0     C17185   4.072   1.172   9.349 -0.5826 -0.6288  0.4245
  869MOL0     C17186   3.945   1.149   9.400 -0.0730 -1.2858  0.2470
  869MOL0     C17187   3.946   1.094   9.526  0.2963  0.0405 -0.6319
  869MOL0     O17188   3.826   1.063   9.594 -0.2333 -0.0596 -0.2517
  869MOL0     C17189   3.708   1.038   9.518  0.4425  0.1179  0.3320
  869MOL0     C17190   3.621   0.946   9.599 -0.3921  0.2800 -0.1112
  869MOL0     C17191   3.482   0.953   9.546  0.5967 -0.5044  0.3892
  869MOL0     C17192   3.403   0.831   9.606  0.2484  0.3617  1.0872
  869MOL0     C17193   3.249   0.853   9.563 -0.1087  0.6463  0.6731
  869MOL0     C17194   3.166   0.736   9.617 -0.7760  0.2635  0.1756
  869MOL0     C17195   3.013   0.755   9.624  0.0469 -1.0150  0.0325
  869MOL0     C17196   2.968   0.855   9.727  0.3835  0.1695  0.1530
  869MOL0     N17197   2.824   0.856   9.756  0.1894 -0.4510  0.2505
  869MOL0     C17198   2.767   0.779   9.854  0.7980  0.2314 -0.4743
  869MOL0     C17199   2.633   0.805   9.845  0.1067  1.2246 -0.0369
  869MOL0     C17200   2.526   0.729   9.920 -0.2111  0.0837  0.0927
  869MOL0     C17201   2.390   0.715   9.851  0.0924  0.7023  0.1534
  869MOL0     C17202   2.326   0.577   9.879  0.2583  0.1369 -0.8903
  869MOL0     C17203   2.214   0.546   9.781  0.0607 -0.1364  0.2834
  869MOL0     O17204   2.159   0.421   9.808 -0.1908  0.1392 -0.3020
  869MOL0     C17205   2.021   0.409   9.796 -1.5703  0.2645  0.0390
  869MOL0     C17206   1.958   0.319   9.886  0.6175  1.1212  0.4015
  869MOL0     C17207   1.817   0.292   9.871  0.0189  0.1857  0.1153
  869MOL0     C17208   1.747   0.193   9.963 -0.7907 -0.0818  0.4235
  869MOL0     C17209   1.745   0.354   9.766  0.2848 -0.1892 -0.6586
  869MOL0     C17210   1.611   0.313   9.715  0.5635 -0.4854 -0.4682
  869MOL0     O17211   1.508   0.311   9.804  0.0690  0.2940  0.3691
  869MOL0     C17212   1.384   0.254   9.761  0.0568  0.9711 -0.2001
  869MOL0     C17213   1.259   0.311   9.750 -1.3545 -0.7195  0.3710
  869MOL0     C17214   1.146   0.236   9.714  0.0318 -0.4492  1.0525
  869MOL0     C17215   1.158   0.103   9.676 -0.2532  0.5098  0.1312
  869MOL0     O17216   1.058   0.025   9.630  0.1468 -0.1335  0.0357
  869MOL0     C17217   0.932   0.084   9.610  0.0738 -0.2576 -0.3192
  869MOL0     C17218   0.849  -0.031   9.547 -0.3452  0.6499  0.5487
  869MOL0     C17219   0.697   0.003   9.573 -0.0567 -0.3086 -0.0346
  869MOL0     C17220   0.617  -0.123   9.546  0.1166  0.5315  0.8669
  869MOL0     C17221   0.470  -0.085   9.538 -0.5096 -1.0395  0.2288
  869MOL0     C17222   0.377  -0.208   9.503  1.0297  0.6021 -0.1481
  869MOL0     C17223   0.231  -0.177   9.494  1.0379 -0.5563  0.0281
  869MOL0     C17224   0.150  -0.292   9.441  0.5065 -0.1547 -0.3458
  869MOL0    Cl17225   0.002  -0.211   9.390  0.2231 -0.0292 -0.4024
  869MOL0     C17226   1.282   0.040   9.681 -0.6537  0.0266 -0.0523
  869MOL0     C17227   1.392   0.114   9.725 -0.6147  1.7458  0.4036
  869MOL0     O17228   1.606   0.286   9.597  0.0392  0.7532 -0.1372
  869MOL0     C17229   1.813   0.450   9.688  0.6323  0.0791 -0.3424
  869MOL0     C17230   1.946   0.479   9.710 -0.2000 -0.2756  0.3486
  869MOL0     N17231   2.615   0.898   9.743  0.3088  0.6668  0.1894
  869MOL0     N17232   2.730   0.931   9.690 -0.4284 -0.1433  0.3017
  869MOL0     C17233   4.062   1.066   9.594  0.3957  0.4160 -0.4327
  869MOL0     C17234   4.188   1.097   9.542  0.6907  1.1322  0.7781
  869MOL0     C17235   4.514   1.137   9.224  0.1396  0.5663 -0.0221
  869MOL0     C17236   4.637   1.076   9.215  1.0169 -0.8060 -0.1338
  869MOL0     C17237   4.727   1.097   9.111  0.7092 -0.0737  0.1871
  869MOL0     C17238   4.693   1.186   9.004 -1.0558  0.3319 -0.2538
  869MOL0     O17239   4.773   1.204   8.890 -0.5030  0.5003 -0.6900
  869MOL0     C17240   4.897   1.144   8.892 -0.1282  0.3083 -0.6752
  869MOL0     C17241   4.946   1.157   8.740 -0.3668 -0.1118 -0.0303
  869MOL0     C17242   4.998   1.301   8.701  0.5033  0.3555 -0.4632
  869MOL0     C17243   5.130   1.329   8.758 -0.1413 -0.4702  0.1038
  869MOL0     C17244   5.172   1.475   8.759 -0.7715  0.0057  0.0308
  869MOL0     C17245   5.206   1.590   8.760 -0.7115 -0.9600  0.5147
  869MOL0     C17246   4.566   1.238   9.002  0.6741 -0.1567  0.5501
  869MOL0     C17247   4.480   1.225   9.111  0.4458  0.2503 -0.4681
  869MOL0     H17248   4.077   1.221   9.252 -2.5731 -2.9011 -0.9535
  869MOL0     H17249   3.850   1.160   9.349 -1.9811 -1.1289  3.5238
  869MOL0     H17250   3.670   1.140   9.509 -0.3867 -0.3154 -1.4468
  869MOL0     H17251   3.714   0.999   9.416 -1.6280  0.3013  0.1031
  869MOL0     H17252   3.656   0.843   9.584 -2.9333 -0.8630  1.2096
  869MOL0     H17253   3.634   0.969   9.705 -2.7460  0.3022  0.2392
  869MOL0     H17254   3.447   1.051   9.582  1.9212 -0.3151  1.2285
  869MOL0     H17255   3.471   0.944   9.438 -2.3565 -0.0626  0.5587
  869MOL0     H17256   3.432   0.731   9.571 -1.5566  0.9021 -2.4019
  869MOL0     H17257   3.414   0.831   9.714 -1.0287 -1.5731  1.2584
  869MOL0     H17258   3.213   0.947   9.605 -0.7506  0.6931  0.0388
  869MOL0     H17259   3.237   0.851   9.454 -2.2749  0.0463  0.8712
  869MOL0     H17260   3.182   0.644   9.560  1.5341  0.1113  0.9914
  869MOL0     H17261   3.208   0.713   9.715  0.7220  0.1147 -0.4747
  869MOL0     H17262   2.968   0.775   9.526  1.7930  1.2282 -0.3706
  869MOL0     H17263   2.975   0.654   9.646 -2.5472 -0.1577 -0.1012
  869MOL0     H17264   2.983   0.960   9.701 -2.0664  0.0232 -2.3762
  869MOL0     H17265   3.020   0.848   9.823 -1.0813 -2.8015  0.8528
  869MOL0     H17266   2.810   0.721   9.934  1.5062  1.2661 -0.0803
  869MOL0     H17267   2.567   0.630   9.943  2.5976  1.6404  2.5567
  869MOL0     H17268   2.508   0.775  10.018 -0.3256  2.0857 -0.8219
  869MOL0     H17269   2.404   0.722   9.743 -0.9974 -0.1626 -0.0598
  869MOL0     H17270   2.334   0.803   9.884 -3.5669 -0.1515 -3.0821
  869MOL0     H17271   2.295   0.578   9.984  1.4240  1.0528 -0.5224
  869MOL0     H17272   2.395   0.493   9.871 -1.3816 -1.5944  1.5761
  869MOL0     H17273   2.241   0.556   9.675  1.6270 -0.9092  0.5713
  869MOL0     H17274   2.137   0.620   9.799 -0.3948 -0.9212  1.7364
  869MOL0     H17275   2.024   0.272   9.958 -0.4059 -0.2801  0.4512
  869MOL0     H17276   1.711   0.109   9.901 -0.6791  0.2001 -0.0256
  869MOL0     H17277   1.824   0.150  10.027 -0.8842  0.9136  1.2216
  869MOL0     H17278   1.672   0.254  10.013  0.7153  1.5720  0.7394
  869MOL0     H17279   1.247   0.416   9.774 -0.8484 -0.5225 -0.1816
  869MOL0     H17280   1.048   0.283   9.715  0.3708  0.2601  1.3614
  869MOL0     H17281   0.880   0.105   9.704 -1.6770  0.5295 -1.4201
  869MOL0     H17282   0.933   0.172   9.544 -0.5516 -0.8517 -1.1476
  869MOL0     H17283   0.873  -0.053   9.442 -3.2219  1.7897 -0.4722
  869MOL0     H17284   0.861  -0.118   9.612 -1.1263 -1.2035 -1.6144
  869MOL0     H17285   0.673   0.075   9.494 -4.0870  1.7288  2.7186
  869MOL0     H17286   0.678   0.037   9.675  0.3472  0.2963 -0.1536
  869MOL0     H17287   0.656  -0.186   9.466 -2.4260 -0.3479  0.2196
  869MOL0     H17288   0.628  -0.185   9.635  1.5985  0.1990  0.4748
  869MOL0     H17289   0.448  -0.007   9.464  2.3108 -1.4731 -1.1882
  869MOL0     H17290   0.426  -0.039   9.627 -2.3171  0.1743 -1.1904
  869MOL0     H17291   0.407  -0.243   9.403  2.3095 -1.8173  0.9865
  869MOL0     H17292   0.394  -0.296   9.566 -1.7036  0.2936  0.2673
  869MOL0     H17293   0.220  -0.090   9.430  1.2894 -0.5297  0.0214
  869MOL0     H17294   0.193  -0.142   9.590 -0.4874 -0.2003 -0.6835
  869MOL0     H17295   0.114  -0.356   9.522 -1.3545  0.5155 -0.5964
  869MOL0     H17296   0.193  -0.343   9.354 -0.9347  1.4630 -2.0942
  869MOL0     H17297   1.299  -0.064   9.655  0.8019  0.2352 -0.0318
  869MOL0     H17298   1.482   0.054   9.742 -0.5734  2.1151  1.5085
  869MOL0     H17299   1.764   0.508   9.610 -1.9020 -3.7405 -1.8266
  869MOL0     H17300   1.986   0.552   9.640  1.4539  0.9420  2.4815
  869MOL0     H17301   4.051   1.029   9.695  0.1866 -0.0147 -0.6097
  869MOL0     H17302   4.281   1.077   9.595 -0.5273 -1.2438  2.1944
  869MOL0     H17303   4.655   1.000   9.290  1.3729 -0.4863  0.1054
  869MOL0     H17304   4.815   1.034   9.101  0.8985  0.2535 -0.2411
  869MOL0     H17305   4.968   1.204   8.951 -0.9138  0.9223 -0.3358
  869MOL0     H17306   4.906   1.044   8.936 -1.2430  2.1592  4.5078
  869MOL0     H17307   4.859   1.138   8.677  1.1681  0.9075 -2.6068
  869MOL0     H17308   5.021   1.082   8.712  1.1635  0.6002  1.8386
  869MOL0     H17309   4.937   1.378   8.751  0.4723 -0.2368  0.4435
  869MOL0     H17310   4.988   1.330   8.596  1.2962 -1.4350 -1.0563
  869MOL0     H17311   5.201   1.276   8.694  0.3392  2.1381 -1.7280
  869MOL0     H17312   5.152   1.298   8.860 -0.2269 -0.6658  0.0632
  869MOL0     H17313   5.219   1.696   8.754 -0.3885 -1.0332 -0.1987
  869MOL0     H17314   4.545   1.284   8.906  1.9664 -2.5381 -0.9779
  869MOL0     H17315   4.383   1.273   9.105 -0.2319 -1.0088  0.1929
  870MOL0     O17316   6.784   5.786   3.121 -0.7288  0.6564  0.1079
  870MOL0     C17317   6.845   5.854   3.202  0.0813  0.3560  0.9281
  870MOL0     O17318   6.802   5.977   3.256  0.7976 -0.5166  0.0815
  870MOL0     C17319   6.669   6.007   3.207 -0.8261 -0.2882  0.1989
  870MOL0     C17320   6.649   6.070   3.086  0.8247 -0.4227 -1.1483
  870MOL0     C17321   6.525   6.121   3.046 -0.8083  0.0217  0.6704
  870MOL0     C17322   6.414   6.094   3.123 -0.2950  0.2127  0.2088
  870MOL0     O17323   6.282   6.117   3.093  0.0050 -0.7768 -0.0468
  870MOL0     C17324   6.247   6.158   2.956  0.0907 -0.0662  0.6161
  870MOL0     C17325   6.122   6.246   2.956 -0.1452 -0.1708 -0.1604
  870MOL0     C17326   5.988   6.169   2.979 -0.5684 -0.9180 -0.1048
  870MOL0     C17327   5.869   6.241   2.924  1.0426  0.8040  0.4517
  870MOL0     C17328   5.752   6.145   2.905  0.4093 -0.6950 -0.5821
  870MOL0     C17329   5.631   6.238   2.899 -0.6005  0.1430 -0.7104
  870MOL0     C17330   5.504   6.154   2.910  0.2994 -0.1979 -0.6337
  870MOL0     C17331   5.482   6.050   2.790 -0.0939  0.2969 -1.0125
  870MOL0     N17332   5.343   6.032   2.748 -0.0159  0.0888  0.2335
  870MOL0     C17333   5.256   5.940   2.799  0.7982  0.5892  0.0495
  870MOL0     C17334   5.141   5.957   2.730 -0.2272  0.9160  0.9649
  870MOL0     C17335   5.026   5.872   2.734  0.4285 -0.1548 -0.7196
  870MOL0     C17336   4.931   5.899   2.852  0.5412 -0.3799 -0.0257
  870MOL0     C17337   4.887   6.054   2.847 -0.0989  0.3667 -0.0642
  870MOL0     C17338   4.749   6.064   2.914  1.1168 -0.1123 -0.5499
  870MOL0     O17339   4.652   6.027   2.806 -0.9007  0.2227 -0.4557
  870MOL0     C17340   4.534   5.974   2.845  0.7381 -0.5544 -0.0416
  870MOL0     C17341   4.459   5.911   2.748 -0.4704 -0.9922  0.3145
  870MOL0     C17342   4.334   5.860   2.776  0.4117  0.4593 -0.7970
  870MOL0     C17343   4.263   5.789   2.662  0.1117  0.2664 -0.7051
  870MOL0     C17344   4.277   5.870   2.910  0.0046 -0.0356  0.5822
  870MOL0     C17345   4.133   5.834   2.942  0.3692  0.4993  0.1639
  870MOL0     O17346   4.051   5.801   2.839  0.2574 -0.2605 -0.1121
  870MOL0     C17347   3.927   5.749   2.859  0.3370  0.5608  0.1189
  870MOL0     C17348   3.840   5.773   2.966 -0.0668  0.5107 -0.0659
  870MOL0     C17349   3.708   5.712   2.967  0.4656  0.0368  0.6711
  870MOL0     C17350   3.663   5.627   2.858 -0.8856  0.3549 -0.8541
  870MOL0     O17351   3.533   5.570   2.874  0.4027  0.2488  0.8243
  870MOL0     C17352   3.464   5.528   2.760  0.7073 -0.0049  0.2591
  870MOL0     C17353   3.321   5.486   2.784  0.3853 -0.4240  0.4138
  870MOL0     C17354   3.256   5.396   2.678  1.0757 -0.0277 -0.3923
  870MOL0     C17355   3.132   5.463   2.612  0.6156  0.5165  0.4174
  870MOL0     C17356   3.010   5.430   2.704 -1.1548  0.2971 -0.3602
  870MOL0     C17357   2.866   5.464   2.659  0.2152  0.4919  0.1306
  870MOL0     C17358   2.756   5.442   2.767  0.0169  0.3924 -0.7757
  870MOL0     C17359   2.613   5.484   2.718  0.6501  0.2827  0.5269
  870MOL0    Cl17360   2.614   5.650   2.641  0.1469  0.1058 -0.0154
  870MOL0     C17361   3.756   5.609   2.755 -0.3453 -0.4842  0.5275
  870MOL0     C17362   3.884   5.666   2.761 -1.4712 -0.3278  0.6609
  870MOL0     O17363   4.104   5.827   3.061  0.7904  0.6192 -0.0291
  870MOL0     C17364   4.357   5.928   3.005  0.2647  0.2772  0.0326
  870MOL0     C17365   4.484   5.986   2.974  0.5742 -0.0682  0.2049
  870MOL0     N17366   5.163   6.064   2.641 -0.0960 -0.1860 -0.1128
  870MOL0     N17367   5.279   6.107   2.654  0.2774  0.5938  0.9937
  870MOL0     C17368   6.427   6.043   3.255  0.3679  0.4073  1.2335
  870MOL0     C17369   6.556   5.999   3.292  1.0922 -0.1845  0.5988
  870MOL0     C17370   6.975   5.804   3.239 -0.3114  0.2855 -0.0973
  870MOL0     C17371   7.009   5.669   3.209  0.6390 -0.1910 -0.2983
  870MOL0     C17372   7.130   5.617   3.271  0.2245  0.4263  0.3287
  870MOL0     C17373   7.222   5.695   3.342 -0.4439  0.1406 -0.1382
  870MOL0     O17374   7.331   5.648   3.418  0.4825 -0.4163  0.3722
  870MOL0     C17375   7.349   5.500   3.428 -0.4959 -0.6814 -0.4985
  870MOL0     C17376   7.479   5.480   3.513  0.3828  0.8437  0.1008
  870MOL0     C17377   7.483   5.331   3.566  0.1890 -0.1611  0.9053
  870MOL0     C17378   7.533   5.243   3.451 -0.5448  0.5814  0.0924
  870MOL0     C17379   7.594   5.117   3.503  0.3333  0.7170  0.2783
  870MOL0     C17380   7.656   5.020   3.538  0.4284  0.4976  0.7692
  870MOL0     C17381   7.191   5.831   3.347 -1.5563 -0.2810  0.1072
  870MOL0     C17382   7.065   5.882   3.311 -0.3498  0.6355 -0.9782
  870MOL0     H17383   6.726   6.075   3.010  1.9920  0.4441  0.0386
  870MOL0     H17384   6.517   6.159   2.945 -0.3902  0.0019  0.6290
  870MOL0     H17385   6.322   6.221   2.906 -1.2995 -1.1120 -3.1132
  870MOL0     H17386   6.235   6.066   2.899  0.0405 -0.3029  1.0036
  870MOL0     H17387   6.126   6.328   3.028 -0.2419 -1.4240  1.3124
  870MOL0     H17388   6.111   6.286   2.855 -2.4502  1.4410  0.6346
  870MOL0     H17389   5.995   6.070   2.933 -1.2081 -0.8147 -0.4379
  870MOL0     H17390   5.979   6.161   3.087  0.3056  1.4816  0.2128
  870MOL0     H17391   5.827   6.324   2.983  0.4353  1.1523 -0.4423
  870MOL0     H17392   5.888   6.288   2.826 -0.9060  0.7290  0.0014
  870MOL0     H17393   5.773   6.088   2.814  1.0887 -0.3408 -0.6572
  870MOL0     H17394   5.730   6.078   2.988 -2.1324 -0.9576 -1.3752
  870MOL0     H17395   5.625   6.302   2.987  3.6969  0.6432 -0.5460
  870MOL0     H17396   5.631   6.303   2.811 -0.4291  0.6628 -0.3272
  870MOL0     H17397   5.495   6.100   3.006 -0.6043  1.0667  0.0154
  870MOL0     H17398   5.419   6.223   2.910  0.4712  0.2256  2.9671
  870MOL0     H17399   5.523   5.950   2.809  2.3059  1.2209 -0.9864
  870MOL0     H17400   5.536   6.084   2.701  0.5709  1.0012 -0.3550
  870MOL0     H17401   5.273   5.875   2.884 -4.0750  0.0160  0.8802
  870MOL0     H17402   4.970   5.882   2.641  0.4785  0.8227 -0.6525
  870MOL0     H17403   5.055   5.767   2.747  1.9511  0.3208 -0.0042
  870MOL0     H17404   4.984   5.860   2.939  0.9442  1.0415  0.3895
  870MOL0     H17405   4.844   5.834   2.834  0.0314 -0.2813  1.8819
  870MOL0     H17406   4.881   6.086   2.743 -1.1674 -2.3609 -0.9261
  870MOL0     H17407   4.954   6.117   2.907 -1.7895 -0.9069  3.4897
  870MOL0     H17408   4.731   6.166   2.949  0.7640  0.0069 -1.0741
  870MOL0     H17409   4.736   6.000   3.002 -0.8205  1.4524  0.3732
  870MOL0     H17410   4.492   5.896   2.646  2.0050  2.9967  0.2878
  870MOL0     H17411   4.322   5.777   2.571  1.1007 -0.3448 -0.0056
  870MOL0     H17412   4.223   5.690   2.687 -0.6549  0.8338  0.4284
  870MOL0     H17413   4.178   5.851   2.632 -0.5635 -0.2489  0.0800
  870MOL0     H17414   3.865   5.842   3.046  0.0487 -1.4465  1.6892
  870MOL0     H17415   3.645   5.718   3.054  0.1198 -0.3258  0.4473
  870MOL0     H17416   3.474   5.617   2.696  1.0737  0.1766  0.5630
  870MOL0     H17417   3.514   5.442   2.716  1.2931 -0.6496  2.1329
  870MOL0     H17418   3.336   5.434   2.879  0.7149 -1.1344 -0.0191
  870MOL0     H17419   3.256   5.571   2.806  0.5695 -0.2190  0.1630
  870MOL0     H17420   3.239   5.298   2.725  0.3918  0.2227 -0.1027
  870MOL0     H17421   3.326   5.391   2.594  2.5202  0.3088  0.7542
  870MOL0     H17422   3.154   5.570   2.604  1.9482  0.4951  2.7343
  870MOL0     H17423   3.116   5.422   2.512  1.6338  1.0089  0.0330
  870MOL0     H17424   3.025   5.487   2.796  1.5259 -0.9101  0.0426
  870MOL0     H17425   3.025   5.326   2.734  4.4272  0.4252 -1.5449
  870MOL0     H17426   2.878   5.568   2.628  0.3550  0.0277 -1.4203
  870MOL0     H17427   2.841   5.403   2.572  1.5724 -0.4229  0.3535
  870MOL0     H17428   2.773   5.514   2.848  1.2082 -0.6472 -0.0673
  870MOL0     H17429   2.752   5.337   2.799 -1.2461  0.1194 -1.7554
  870MOL0     H17430   2.531   5.472   2.791 -0.2637  1.9057 -0.1936
  870MOL0     H17431   2.577   5.408   2.648  0.0437  0.3872  0.7197
  870MOL0     H17432   3.734   5.537   2.676  0.3613  1.2141 -1.2850
  870MOL0     H17433   3.950   5.644   2.678  0.5095 -1.9494  2.5333
  870MOL0     H17434   4.330   5.925   3.110  1.3219  0.6729  0.3263
  870MOL0     H17435   4.533   6.044   3.051 -2.9522  3.8967 -0.1215
  870MOL0     H17436   6.345   6.022   3.323 -0.7812  0.0910 -0.2228
  870MOL0     H17437   6.555   5.951   3.390 -1.3090 -1.0428  0.2270
  870MOL0     H17438   6.942   5.605   3.153 -1.3737  1.3780  0.1999
  870MOL0     H17439   7.144   5.510   3.256 -0.2538  0.1308  1.7791
  870MOL0     H17440   7.263   5.459   3.482  0.9407  0.8823  3.3253
  870MOL0     H17441   7.362   5.449   3.332 -1.2268 -1.8503  0.0001
  870MOL0     H17442   7.467   5.538   3.605 -1.4518 -0.3978  0.6830
  870MOL0     H17443   7.571   5.501   3.457 -0.1299  0.7842 -0.7723
  870MOL0     H17444   7.394   5.293   3.616  1.8031 -1.2714  3.0866
  870MOL0     H17445   7.558   5.322   3.646 -0.1275 -0.3770  1.1785
  870MOL0     H17446   7.609   5.288   3.387  1.0108 -0.9009  0.7949
  870MOL0     H17447   7.451   5.226   3.382  0.5307 -0.0030 -1.0820
  870MOL0     H17448   7.724   4.937   3.545 -1.4507 -1.4875 -2.3088
  870MOL0     H17449   7.253   5.900   3.404  0.9438 -1.6367 -0.7984
  870MOL0     H17450   7.041   5.987   3.322 -1.5132  0.3550 -0.6853
  871MOL0     O17451   2.429   4.781   1.819 -0.5408  0.0436 -1.1946
  871MOL0     C17452   2.362   4.874   1.862  0.3837  0.2177 -0.0367
  871MOL0     O17453   2.233   4.913   1.826  0.5590  0.7994  0.0994
  871MOL0     C17454   2.133   4.833   1.768 -0.0459 -0.4993 -0.6459
  871MOL0     C17455   2.145   4.696   1.769  0.3197 -0.4077  0.2087
  871MOL0     C17456   2.044   4.619   1.716  0.1002  0.0489 -0.1795
  871MOL0     C17457   1.928   4.678   1.666 -0.2988  0.2455  0.1928
  871MOL0     O17458   1.826   4.604   1.621  0.4407 -0.3004 -0.6000
  871MOL0     C17459   1.861   4.478   1.552 -0.3394  0.1219  0.7107
  871MOL0     C17460   1.754   4.413   1.458  0.1006 -0.2707 -0.1662
  871MOL0     C17461   1.627   4.373   1.538 -0.3056 -0.9758 -0.1431
  871MOL0     C17462   1.512   4.348   1.436  0.3686  0.5853 -0.1407
  871MOL0     C17463   1.378   4.312   1.504  0.9802 -0.2866  0.8114
  871MOL0     C17464   1.258   4.268   1.408 -0.0801 -0.4228  0.1885
  871MOL0     C17465   1.210   4.374   1.302 -0.3728  0.4868  0.6062
  871MOL0     C17466   1.144   4.491   1.373 -0.5825 -0.1923 -0.3498
  871MOL0     N17467   1.113   4.605   1.283 -0.1981  1.0214 -0.0057
  871MOL0     C17468   1.063   4.589   1.153  0.3632  0.0605  0.3897
  871MOL0     C17469   1.015   4.711   1.111 -0.1288  1.3608 -1.1386
  871MOL0     C17470   0.936   4.747   0.984  0.2582  0.2866 -0.7337
  871MOL0     C17471   0.786   4.775   1.007  0.5323 -1.1918 -0.1611
  871MOL0     C17472   0.757   4.854   1.137 -0.0092 -0.1796  1.0031
  871MOL0     C17473   0.619   4.914   1.130  0.8059 -0.4509  0.2905
  871MOL0     O17474   0.525   4.815   1.114  0.7867  0.5338 -0.4263
  871MOL0     C17475   0.397   4.866   1.108  0.4231 -0.0759 -0.3365
  871MOL0     C17476   0.344   4.905   0.985 -0.3400  0.4407  0.4697
  871MOL0     C17477   0.218   4.961   0.985  0.1504 -1.0086  0.9118
  871MOL0     C17478   0.176   5.013   0.838 -0.5939  0.3057  0.2809
  871MOL0     C17479   0.137   4.976   1.103 -0.3522 -0.1392  0.6681
  871MOL0     C17480   0.012   5.042   1.109 -0.0666  0.0363  0.2838
  871MOL0     O17481  -0.054   5.039   1.225 -0.1415 -0.4833 -0.3365
  871MOL0     C17482  -0.176   5.102   1.235  0.9689  0.0824 -0.0671
  871MOL0     C17483  -0.193   5.226   1.293  0.7566 -0.4181 -0.7784
  871MOL0     C17484  -0.326   5.286   1.312 -0.6167 -0.0449  0.1334
  871MOL0     C17485  -0.440   5.215   1.262  0.0350  1.1509  0.1894
  871MOL0     O17486  -0.564   5.258   1.258  0.3397  0.0137  0.1980
  871MOL0     C17487  -0.595   5.391   1.308 -0.3661  0.2645 -0.1474
  871MOL0     C17488  -0.746   5.416   1.284  0.1798 -0.0429 -0.0735
  871MOL0     C17489  -0.789   5.563   1.309  0.4910  0.6672 -0.0382
  871MOL0     C17490  -0.935   5.587   1.285  0.3556  0.2478 -0.3611
  871MOL0     C17491  -1.017   5.522   1.396 -0.0844 -0.0493 -0.0165
  871MOL0     C17492  -1.169   5.572   1.409  0.7563 -0.3007 -0.8417
  871MOL0     C17493  -1.258   5.506   1.515 -0.6909  0.5394 -0.8558
  871MOL0     C17494  -1.400   5.552   1.476  0.2687 -0.2098 -0.4849
  871MOL0    Cl17495  -1.525   5.462   1.579  0.0456 -0.1824 -0.1334
  871MOL0     C17496  -0.421   5.096   1.198  0.1347  0.6526 -0.1732
  871MOL0     C17497  -0.294   5.034   1.183  0.2869  0.2488  0.0742
  871MOL0     O17498  -0.041   5.090   1.009 -0.4565 -0.0017 -0.2319
  871MOL0     C17499   0.197   4.935   1.224  0.0725 -0.2044  0.0061
  871MOL0     C17500   0.325   4.879   1.220 -0.5570 -0.4911 -0.5994
  871MOL0     N17501   1.037   4.792   1.223 -0.9589  0.2309  0.3858
  871MOL0     N17502   1.100   4.731   1.315  0.0948  0.1519 -0.0099
  871MOL0     C17503   1.913   4.817   1.667 -0.1267 -0.6916 -0.6931
  871MOL0     C17504   2.010   4.893   1.730 -0.1320 -0.8816  0.3731
  871MOL0     C17505   2.447   4.980   1.924  0.4450 -0.3970 -0.4932
  871MOL0     C17506   2.587   4.959   1.945 -0.3338 -0.1907 -0.6059
  871MOL0     C17507   2.670   5.068   1.978 -0.2185  0.7807 -0.3526
  871MOL0     C17508   2.617   5.194   2.013  0.3436  0.3176  0.0101
  871MOL0     O17509   2.690   5.305   2.042  0.2767 -0.4205 -0.4648
  871MOL0     C17510   2.826   5.295   2.068  0.5696 -0.2872 -0.4652
  871MOL0     C17511   2.866   5.434   2.122  0.8756  0.7316 -0.6386
  871MOL0     C17512   3.015   5.444   2.150 -0.4149  0.1435  0.1821
  871MOL0     C17513   3.100   5.448   2.029  1.0187 -0.6674 -0.7017
  871MOL0     C17514   3.077   5.558   1.935 -0.0892  0.0141  0.4076
  871MOL0     C17515   3.045   5.651   1.861 -0.9335 -0.9456 -0.2229
  871MOL0     C17516   2.475   5.208   2.010 -0.8721 -0.0094  0.1975
  871MOL0     C17517   2.395   5.106   1.962 -0.2186 -0.5867 -0.0348
  871MOL0     H17518   2.230   4.652   1.821  0.3261  0.6496  1.1240
  871MOL0     H17519   2.050   4.512   1.733  0.0077  0.5258  4.0665
  871MOL0     H17520   1.944   4.486   1.481  0.4117 -1.0751  1.4044
  871MOL0     H17521   1.893   4.397   1.619  3.0328 -1.4238 -2.3842
  871MOL0     H17522   1.726   4.479   1.375  1.1566  0.7748  0.2781
  871MOL0     H17523   1.794   4.317   1.422 -0.0156 -1.3850  2.4961
  871MOL0     H17524   1.644   4.279   1.591  3.2239 -0.2257  0.2399
  871MOL0     H17525   1.593   4.442   1.616  0.7289 -0.7469  0.1088
  871MOL0     H17526   1.497   4.430   1.367  0.7523 -1.0460 -2.2700
  871MOL0     H17527   1.540   4.264   1.371 -1.4446  0.1920 -0.4703
  871MOL0     H17528   1.401   4.231   1.574 -5.0356  0.0203  3.8214
  871MOL0     H17529   1.343   4.400   1.559  4.1686  2.6503 -1.4370
  871MOL0     H17530   1.286   4.178   1.353  1.2101 -0.0924  0.2674
  871MOL0     H17531   1.180   4.244   1.481  2.0336 -2.5980  1.8707
  871MOL0     H17532   1.305   4.407   1.258 -0.0597 -1.3148 -0.1970
  871MOL0     H17533   1.146   4.333   1.223  2.0305 -0.1300 -1.1595
  871MOL0     H17534   1.211   4.527   1.452 -1.8870 -0.8899  1.1249
  871MOL0     H17535   1.056   4.462   1.430  0.3617  0.2893  1.4279
  871MOL0     H17536   1.047   4.497   1.098  0.2274  1.5766 -2.2613
  871MOL0     H17537   0.972   4.843   0.946 -0.8475  0.9102 -0.2760
  871MOL0     H17538   0.936   4.659   0.920 -0.8667 -1.0934  1.0713
  871MOL0     H17539   0.730   4.681   1.002  1.2396 -1.6724  0.7330
  871MOL0     H17540   0.750   4.832   0.921 -0.9118 -2.5981 -0.5391
  871MOL0     H17541   0.825   4.940   1.137 -0.5080  0.2289  1.8527
  871MOL0     H17542   0.771   4.802   1.232 -0.3986 -0.6305  0.8146
  871MOL0     H17543   0.602   4.982   1.046 -0.5522 -1.4981 -0.3337
  871MOL0     H17544   0.603   4.962   1.227  2.2654  2.1725 -0.6636
  871MOL0     H17545   0.401   4.876   0.898 -0.3414 -1.1469  0.9789
  871MOL0     H17546   0.211   4.935   0.770  2.9322  1.5564  0.4244
  871MOL0     H17547   0.070   5.035   0.825 -0.8309 -0.8917  0.1147
  871MOL0     H17548   0.229   5.106   0.811 -0.4792  0.6172  1.5489
  871MOL0     H17549  -0.105   5.276   1.333  1.1175 -2.1333  0.7047
  871MOL0     H17550  -0.331   5.386   1.352  2.2144 -0.3220  1.3886
  871MOL0     H17551  -0.578   5.393   1.417  0.9240 -0.9571 -0.2958
  871MOL0     H17552  -0.537   5.468   1.257 -1.6343  0.0949 -1.9144
  871MOL0     H17553  -0.764   5.394   1.179  2.7007  0.9774 -0.7931
  871MOL0     H17554  -0.803   5.350   1.351 -1.6094  0.1109 -1.3800
  871MOL0     H17555  -0.732   5.625   1.239  2.8701 -0.7839  0.4846
  871MOL0     H17556  -0.752   5.586   1.409 -1.4093  2.9098  0.2066
  871MOL0     H17557  -0.952   5.694   1.297 -3.2971 -0.3291  0.9537
  871MOL0     H17558  -0.967   5.545   1.189  2.3733 -0.6740 -0.6775
  871MOL0     H17559  -0.967   5.548   1.490  0.3159 -0.6206 -0.0696
  871MOL0     H17560  -1.007   5.414   1.390 -1.9796 -0.2436  0.0347
  871MOL0     H17561  -1.170   5.681   1.419 -0.8801 -0.3973  0.4262
  871MOL0     H17562  -1.213   5.534   1.317  0.8274  0.6496 -1.2875
  871MOL0     H17563  -1.220   5.532   1.615 -0.6128  1.6784 -1.1678
  871MOL0     H17564  -1.258   5.398   1.497  0.0957  0.7456 -2.3070
  871MOL0     H17565  -1.424   5.530   1.371  1.4018 -0.5994 -0.6677
  871MOL0     H17566  -1.398   5.660   1.490  1.2074 -0.1325 -1.1540
  871MOL0     H17567  -0.510   5.042   1.167  0.4554  1.2802 -2.3534
  871MOL0     H17568  -0.292   4.941   1.127 -0.6492  0.6551 -0.6585
  871MOL0     H17569   0.150   4.938   1.322  1.8495 -0.4041  0.9077
  871MOL0     H17570   0.361   4.840   1.315 -1.5636 -0.2349 -0.0963
  871MOL0     H17571   1.830   4.859   1.611  0.5277  2.0947  0.2877
  871MOL0     H17572   1.994   5.000   1.740 -0.8977 -0.5634 -3.0176
  871MOL0     H17573   2.640   4.866   1.931  2.1196  1.2795 -1.8043
  871MOL0     H17574   2.777   5.050   1.983 -0.5376 -1.1385  0.5682
  871MOL0     H17575   2.861   5.215   2.134  1.5480  0.3119 -0.2325
  871MOL0     H17576   2.874   5.271   1.973 -2.1997  0.9259 -2.2715
  871MOL0     H17577   2.817   5.444   2.220  0.2026  1.4911 -1.0404
  871MOL0     H17578   2.827   5.510   2.053 -0.6824 -1.2539 -2.0740
  871MOL0     H17579   3.037   5.355   2.208 -0.9968 -0.8581 -1.0850
  871MOL0     H17580   3.038   5.535   2.206  2.4937 -0.6000  0.3469
  871MOL0     H17581   3.091   5.353   1.976 -1.3897  0.4266 -2.4569
  871MOL0     H17582   3.200   5.446   2.074  0.4830  1.4216  0.7350
  871MOL0     H17583   3.023   5.733   1.796  1.4298 -0.6010 -0.6816
  871MOL0     H17584   2.436   5.302   2.048  0.0228 -0.3199  1.9829
  871MOL0     H17585   2.289   5.118   1.943 -0.1143 -1.7015 -1.5589
  872MOL0     O17586   6.958  10.562   2.034  0.9276 -0.7833  0.0588
  872MOL0     C17587   6.994  10.448   2.022 -0.3074 -0.5627  1.3329
  872MOL0     O17588   6.912  10.349   1.984  0.0053  0.0202  0.2210
  872MOL0     C17589   6.777  10.387   1.972 -0.0237  0.1621  0.0840
  872MOL0     C17590   6.690  10.347   2.078 -0.1447  0.3167  0.3028
  872MOL0     C17591   6.550  10.363   2.072 -1.0535  0.3354  0.2547
  872MOL0     C17592   6.495  10.431   1.959 -0.2657 -0.3663  0.1097
  872MOL0     O17593   6.359  10.479   1.960 -0.2218  0.2434  0.5180
  872MOL0     C17594   6.284  10.471   2.079 -0.1555  0.4188 -0.1902
  872MOL0     C17595   6.193  10.350   2.093 -0.4165 -0.1328  0.0459
  872MOL0     C17596   6.077  10.363   2.201 -0.6175  0.0281  0.1800
  872MOL0     C17597   5.984  10.248   2.180 -0.2046  0.8531 -0.3306
  872MOL0     C17598   5.883  10.238   2.292  0.1756  0.6853  0.2362
  872MOL0     C17599   5.764  10.155   2.247 -0.0256 -0.7669  0.2587
  872MOL0     C17600   5.651  10.172   2.346  0.5373 -0.3467 -0.8597
  872MOL0     C17601   5.548  10.073   2.307  0.0301  0.1059 -0.5327
  872MOL0     N17602   5.423  10.135   2.289  0.4862 -0.6617  0.5527
  872MOL0     C17603   5.318  10.100   2.359  0.6278  0.5714  0.9144
  872MOL0     C17604   5.214  10.162   2.306  0.5781  0.7582  0.0737
  872MOL0     C17605   5.074  10.142   2.359  0.4931  0.5300 -0.2400
  872MOL0     C17606   4.978  10.067   2.265 -0.6606 -0.2909 -0.2330
  872MOL0     C17607   4.837  10.060   2.320 -0.1090  0.3099  0.1320
  872MOL0     C17608   4.743   9.976   2.231 -0.3136 -0.0471 -0.0741
  872MOL0     O17609   4.613   9.985   2.288 -0.7414  0.0258  0.0849
  872MOL0     C17610   4.535  10.097   2.268  0.2422  0.3454  0.4742
  872MOL0     C17611   4.406  10.090   2.322 -0.2996  0.7352 -0.3188
  872MOL0     C17612   4.320  10.197   2.318  0.2071  0.2377 -0.7978
  872MOL0     C17613   4.178  10.176   2.374  0.0754 -0.2175 -0.0620
  872MOL0     C17614   4.351  10.312   2.238 -0.8182  0.0747  0.0346
  872MOL0     C17615   4.283  10.441   2.237 -0.0410 -0.1612 -0.4552
  872MOL0     O17616   4.310  10.504   2.126 -0.3320  0.3304  0.3143
  872MOL0     C17617   4.229  10.608   2.079 -0.0462 -0.5194 -0.0371
  872MOL0     C17618   4.195  10.613   1.944 -0.1013  0.2668 -0.5582
  872MOL0     C17619   4.120  10.720   1.896  0.0308 -0.5772  0.2519
  872MOL0     C17620   4.108  10.832   1.979  0.5364  0.8218 -0.0098
  872MOL0     O17621   4.049  10.947   1.933  0.5714  0.6466 -0.4912
  872MOL0     C17622   3.936  10.933   1.851 -0.0554 -0.0479 -0.4307
  872MOL0     C17623   3.831  11.054   1.868 -0.1490 -0.1566  0.3584
  872MOL0     C17624   3.765  11.056   2.007  0.0723 -0.3194  0.1993
  872MOL0     C17625   3.651  11.159   2.011 -0.6119 -0.4617 -0.3326
  872MOL0     C17626   3.615  11.190   2.156 -0.2752 -0.5421 -0.2642
  872MOL0     C17627   3.488  11.279   2.179  0.3376  0.0524  1.2196
  872MOL0     C17628   3.481  11.409   2.078  0.1585  0.3721  0.4717
  872MOL0     C17629   3.350  11.492   2.087  0.6636  0.1194  0.3236
  872MOL0    Cl17630   3.321  11.571   2.252 -0.4971 -0.5497  0.3630
  872MOL0     C17631   4.149  10.828   2.107  0.2412 -0.6953  0.0703
  872MOL0     C17632   4.209  10.721   2.153 -0.4976  0.4356 -0.4397
  872MOL0     O17633   4.197  10.472   2.323 -0.6382 -0.1763  0.1948
  872MOL0     C17634   4.474  10.304   2.168  0.0637 -1.7086 -0.2966
  872MOL0     C17635   4.564  10.201   2.178 -0.6850  0.1407 -0.2819
  872MOL0     N17636   5.253  10.243   2.206  0.4187 -0.6779 -0.3251
  872MOL0     N17637   5.376  10.216   2.189  0.1115 -0.4454 -0.2839
  872MOL0     C17638   6.577  10.462   1.849 -0.6808 -1.0471  0.0568
  872MOL0     C17639   6.711  10.430   1.857 -0.7014 -0.7602  0.0089
  872MOL0     C17640   7.140  10.422   2.042  0.4221 -0.9500 -0.3398
  872MOL0     C17641   7.226  10.531   2.076 -0.3049  0.0206  0.5405
  872MOL0     C17642   7.364  10.510   2.090  0.0725  0.0834 -0.4937
  872MOL0     C17643   7.422  10.386   2.085 -0.0558 -0.0888  0.5262
  872MOL0     O17644   7.555  10.360   2.099 -0.5869  0.0414 -0.5773
  872MOL0     C17645   7.645  10.439   2.019 -0.5922  0.6022  0.0233
  872MOL0     C17646   7.721  10.541   2.096 -0.2238 -0.1106  0.0726
  872MOL0     C17647   7.829  10.602   2.007  0.0288  1.4898  0.4756
  872MOL0     C17648   7.941  10.669   2.092  0.6743 -0.1279 -1.6771
  872MOL0     C17649   8.060  10.699   2.009  0.2295 -0.3107  0.0408
  872MOL0     C17650   8.157  10.724   1.942  0.2834  0.0487  0.5361
  872MOL0     C17651   7.339  10.275   2.056 -0.4933  0.6519 -0.8809
  872MOL0     C17652   7.202  10.296   2.029  0.3064 -0.0011 -0.0109
  872MOL0     H17653   6.736  10.291   2.159 -0.1826 -1.5502 -0.9084
  872MOL0     H17654   6.493  10.345   2.163 -0.5191  1.4838  0.8501
  872MOL0     H17655   6.351  10.483   2.164 -0.3582 -2.3857  0.4800
  872MOL0     H17656   6.222  10.561   2.080 -3.0085 -1.4300  0.1710
  872MOL0     H17657   6.144  10.332   1.997  2.0986 -0.4597 -1.2341
  872MOL0     H17658   6.255  10.261   2.106  1.7912  0.9804 -2.1551
  872MOL0     H17659   6.129  10.359   2.297  1.1185  1.5026 -0.6436
  872MOL0     H17660   6.036  10.464   2.194  0.4710  0.3453 -2.6518
  872MOL0     H17661   5.929  10.252   2.086 -3.2197  1.3413  1.3469
  872MOL0     H17662   6.046  10.158   2.171 -2.0463 -0.7884  2.0201
  872MOL0     H17663   5.919  10.187   2.382 -0.5156  1.5131  0.9992
  872MOL0     H17664   5.855  10.338   2.328 -1.0170 -0.0463  1.4167
  872MOL0     H17665   5.741  10.184   2.144  1.2263 -0.2888  0.0836
  872MOL0     H17666   5.793  10.052   2.226 -1.2737 -1.5418  2.1151
  872MOL0     H17667   5.690  10.136   2.442 -1.1923 -0.5623 -0.2124
  872MOL0     H17668   5.612  10.273   2.362 -2.9065 -1.6831 -0.0573
  872MOL0     H17669   5.528  10.009   2.393  0.5155  2.6779  1.6033
  872MOL0     H17670   5.576  10.007   2.224 -2.5610  2.6209 -3.6657
  872MOL0     H17671   5.321  10.022   2.435  1.4014 -0.8409 -0.5226
  872MOL0     H17672   5.068  10.079   2.448 -0.6286  0.7388 -0.1524
  872MOL0     H17673   5.027  10.239   2.381 -0.4373 -0.4932  2.8212
  872MOL0     H17674   5.023   9.967   2.265 -2.4869 -1.1597  0.7971
  872MOL0     H17675   4.980  10.110   2.164  0.0141 -3.0933 -1.5265
  872MOL0     H17676   4.796  10.160   2.335 -0.3488  0.6076 -2.2023
  872MOL0     H17677   4.825  10.010   2.417 -0.9986 -0.3118 -0.2898
  872MOL0     H17678   4.773   9.871   2.223  0.8819  0.3355 -0.9071
  872MOL0     H17679   4.739  10.011   2.127 -1.7738 -1.1987 -0.4349
  872MOL0     H17680   4.393  10.016   2.401 -0.6606  0.7952 -0.3207
  872MOL0     H17681   4.160  10.070   2.394  0.0722 -0.0266  0.9941
  872MOL0     H17682   4.158  10.240   2.460 -2.3162  1.1960 -1.5648
  872MOL0     H17683   4.108  10.197   2.293 -2.1729 -4.6901  0.3974
  872MOL0     H17684   4.221  10.526   1.884  1.0213 -0.1612  0.5123
  872MOL0     H17685   4.089  10.717   1.791 -1.1694 -0.5063  0.5857
  872MOL0     H17686   3.970  10.920   1.747 -0.8889 -1.2645 -0.5836
  872MOL0     H17687   3.874  10.847   1.879  0.2089 -0.6062 -1.4691
  872MOL0     H17688   3.878  11.153   1.865 -0.1593 -0.1384  0.7582
  872MOL0     H17689   3.756  11.057   1.788  0.6676  3.7312 -0.4380
  872MOL0     H17690   3.842  11.072   2.083 -0.1211 -0.5888  0.4526
  872MOL0     H17691   3.715  10.959   2.019  1.6847 -1.6961 -2.9387
  872MOL0     H17692   3.689  11.250   1.963 -1.2301  1.6116  2.8136
  872MOL0     H17693   3.560  11.116   1.967 -1.3320 -2.4753  2.7915
  872MOL0     H17694   3.701  11.233   2.207  0.3450 -1.1813 -0.7420
  872MOL0     H17695   3.592  11.094   2.205 -0.9691  0.4513  1.4374
  872MOL0     H17696   3.393  11.226   2.171 -0.1657  0.8512  1.8663
  872MOL0     H17697   3.493  11.310   2.283 -1.3801  2.0375  0.7540
  872MOL0     H17698   3.493  11.386   1.971  1.6542 -1.8524  1.0503
  872MOL0     H17699   3.559  11.481   2.101 -0.7046  1.6806 -0.5654
  872MOL0     H17700   3.264  11.425   2.071 -0.2836  0.6989  2.5813
  872MOL0     H17701   3.371  11.570   2.013  1.5168 -1.5280 -1.2511
  872MOL0     H17702   4.127  10.909   2.176 -1.4759 -1.2005  0.1556
  872MOL0     H17703   4.248  10.726   2.254 -0.6483  0.4381 -0.3801
  872MOL0     H17704   4.508  10.382   2.101  1.4089 -0.1285  2.0549
  872MOL0     H17705   4.657  10.205   2.122 -0.8191  0.9389 -0.4556
  872MOL0     H17706   6.531  10.501   1.759  1.8322  2.1429 -0.0345
  872MOL0     H17707   6.768  10.433   1.764 -0.8799 -0.1937 -0.0895
  872MOL0     H17708   7.187  10.632   2.088  2.3610  1.0969  0.8546
  872MOL0     H17709   7.428  10.592   2.121 -0.3515  0.8388 -1.5330
  872MOL0     H17710   7.716  10.375   1.968  0.6345 -0.2277  2.5881
  872MOL0     H17711   7.589  10.486   1.937 -0.0994  0.8811 -0.1572
  872MOL0     H17712   7.751  10.503   2.194  0.8714 -3.9592 -1.5389
  872MOL0     H17713   7.649  10.622   2.112 -0.5457 -0.1274 -1.1240
  872MOL0     H17714   7.796  10.662   1.922 -0.4045  0.8362  0.1821
  872MOL0     H17715   7.878  10.515   1.962 -4.4391 -0.1710 -1.7405
  872MOL0     H17716   7.960  10.622   2.189  1.1374  2.4648 -0.4009
  872MOL0     H17717   7.883  10.758   2.121 -3.5632 -3.8993  3.2945
  872MOL0     H17718   8.249  10.738   1.888  1.6959  1.8365  3.1724
  872MOL0     H17719   7.389  10.179   2.059  3.0936  2.3729  1.0095
  872MOL0     H17720   7.130  10.217   2.011  2.2634 -1.8933  0.1760
  873MOL0     O17721  10.526   9.800   3.975 -0.6829 -0.1644  0.9713
  873MOL0     C17722  10.614   9.766   4.047 -0.0781  0.4468  0.1137
  873MOL0     O17723  10.600   9.693   4.158  0.4381 -0.0044 -0.3492
  873MOL0     C17724  10.476   9.645   4.199  0.5421  0.6262  0.3467
  873MOL0     C17725  10.390   9.732   4.273 -0.0861  0.9743 -0.0440
  873MOL0     C17726  10.294   9.679   4.358  0.2055 -1.5265 -0.1856
  873MOL0     C17727  10.268   9.543   4.366 -0.8217 -0.4054  0.3944
  873MOL0     O17728  10.182   9.478   4.448  0.6168 -0.3497 -0.0412
  873MOL0     C17729  10.089   9.567   4.515  0.3686 -0.0995  0.4019
  873MOL0     C17730   9.973   9.487   4.580  0.5039 -0.3307  0.9940
  873MOL0     C17731   9.840   9.564   4.588  0.3118  0.3216 -0.5172
  873MOL0     C17732   9.834   9.665   4.709 -0.5219  0.1748 -0.1146
  873MOL0     C17733   9.725   9.768   4.685  0.0072  0.0483  0.0328
  873MOL0     C17734   9.588   9.718   4.621 -0.3744 -0.7790  0.4400
  873MOL0     C17735   9.490   9.686   4.724  0.7527 -0.3999 -1.0372
  873MOL0     C17736   9.351   9.650   4.664 -0.8586  0.1879  0.1510
  873MOL0     N17737   9.257   9.770   4.640 -0.1785  0.6329 -0.4447
  873MOL0     C17738   9.280   9.880   4.559  0.6878 -0.5177 -0.1688
  873MOL0     C17739   9.168   9.958   4.559 -0.3859 -0.4252 -0.2221
  873MOL0     C17740   9.141  10.096   4.493 -0.7312  0.5752 -0.0855
  873MOL0     C17741   9.165  10.087   4.346 -1.3190  0.0129  0.4239
  873MOL0     C17742   9.138  10.220   4.270 -1.1534 -0.0891 -0.0705
  873MOL0     C17743   8.995  10.257   4.244 -0.0508 -0.0249  0.4805
  873MOL0     O17744   8.948  10.348   4.349 -0.7498  0.2946  0.5195
  873MOL0     C17745   8.817  10.375   4.372  0.0853  0.5925 -0.1519
  873MOL0     C17746   8.792  10.456   4.478  0.4259 -0.2279  0.5145
  873MOL0     C17747   8.664  10.496   4.509  0.2766 -0.5615  0.5978
  873MOL0     C17748   8.645  10.586   4.627 -1.1182  0.0720  0.5207
  873MOL0     C17749   8.547  10.460   4.426 -0.1008 -0.4654  0.6219
  873MOL0     C17750   8.400  10.487   4.438 -0.3896 -0.8280 -0.5947
  873MOL0     O17751   8.324  10.440   4.334  0.2726 -1.2493  0.0194
  873MOL0     C17752   8.200  10.501   4.320 -0.7336 -0.3288  0.8922
  873MOL0     C17753   8.201  10.613   4.228 -0.2774 -0.4749  0.0082
  873MOL0     C17754   8.081  10.680   4.213  0.0973  0.3892 -0.2363
  873MOL0     C17755   7.963  10.649   4.281 -0.5569 -0.6120  0.2206
  873MOL0     O17756   7.857  10.740   4.263  0.9041  0.1755  0.1599
  873MOL0     C17757   7.723  10.708   4.303  0.2379 -0.1038  1.0695
  873MOL0     C17758   7.640  10.711   4.179  0.0056  0.1991 -0.3271
  873MOL0     C17759   7.497  10.685   4.200  0.0677 -0.7186  0.4610
  873MOL0     C17760   7.435  10.683   4.056  0.2640 -0.7756  0.4088
  873MOL0     C17761   7.301  10.613   4.050  0.5074 -0.9707 -0.1087
  873MOL0     C17762   7.220  10.617   3.912  0.2170  0.3117 -0.2089
  873MOL0     C17763   7.076  10.565   3.936  0.4137 -0.0061 -0.3953
  873MOL0     C17764   6.964  10.602   3.830  0.2508  0.4263 -0.8609
  873MOL0    Cl17765   6.816  10.506   3.873 -0.0440  0.1219  0.0134
  873MOL0     C17766   7.965  10.537   4.367 -0.7105  0.5694  0.4779
  873MOL0     C17767   8.083  10.465   4.381 -0.3501  0.6648 -0.2821
  873MOL0     O17768   8.360  10.528   4.549 -0.5616  0.2467 -0.9505
  873MOL0     C17769   8.590  10.380   4.312  0.7244 -0.3516  0.1807
  873MOL0     C17770   8.722  10.347   4.279  0.1282  0.0926 -0.1908
  873MOL0     N17771   9.082   9.898   4.641  0.0033 -0.1989 -0.8657
  873MOL0     N17772   9.130   9.780   4.681 -0.0382 -0.4616 -0.4676
  873MOL0     C17773  10.346   9.459   4.282  0.1696 -0.3015 -0.1261
  873MOL0     C17774  10.456   9.509   4.210  0.1629 -0.1402  0.7519
  873MOL0     C17775  10.752   9.805   4.009 -0.4926  0.2283  0.9331
  873MOL0     C17776  10.775   9.843   3.878  0.5837  0.1238  0.1174
  873MOL0     C17777  10.900   9.896   3.841  0.0044  1.2553  0.0426
  873MOL0     C17778  11.006   9.906   3.933  0.0109  0.4687 -0.4623
  873MOL0     O17779  11.121   9.919   3.872 -0.3509 -0.3475  1.1907
  873MOL0     C17780  11.241   9.936   3.947 -0.4051  0.2833 -0.6811
  873MOL0     C17781  11.323  10.049   3.883  0.2696  0.1960  0.4677
  873MOL0     C17782  11.248  10.179   3.846  0.4188  0.6808 -0.0274
  873MOL0     C17783  11.173  10.244   3.970 -0.1516 -0.3886 -0.2865
  873MOL0     C17784  11.279  10.277   4.072 -0.0271  0.8385  0.5900
  873MOL0     C17785  11.359  10.320   4.157 -0.6240  0.3754 -0.0129
  873MOL0     C17786  10.978   9.871   4.068  0.6515 -0.4635 -0.1829
  873MOL0     C17787  10.847   9.828   4.107 -0.4479  0.0483 -0.1164
  873MOL0     H17788  10.417   9.836   4.282  0.7257  0.7795 -0.1527
  873MOL0     H17789  10.251   9.752   4.425  2.3253  0.1801 -0.5748
  873MOL0     H17790  10.135   9.622   4.597 -0.7190 -0.2443  1.1324
  873MOL0     H17791  10.045   9.624   4.432  2.1468 -3.4532 -3.2041
  873MOL0     H17792   9.970   9.402   4.511  3.1250 -0.7806  1.3089
  873MOL0     H17793   9.998   9.442   4.677 -0.3291  0.1723  1.4437
  873MOL0     H17794   9.834   9.625   4.497  0.0503 -0.3544 -0.9653
  873MOL0     H17795   9.761   9.490   4.603  1.8831 -0.8878  2.5735
  873MOL0     H17796   9.800   9.600   4.790 -3.0500 -1.8952 -2.6222
  873MOL0     H17797   9.930   9.712   4.732 -0.3636  0.7095 -1.7159
  873MOL0     H17798   9.712   9.824   4.778 -1.3693  1.0616 -0.7415
  873MOL0     H17799   9.771   9.838   4.616 -2.0664  1.0494 -0.4116
  873MOL0     H17800   9.548   9.803   4.564  1.4547 -1.0247 -1.3397
  873MOL0     H17801   9.605   9.632   4.555 -2.3936 -0.1195 -1.0542
  873MOL0     H17802   9.539   9.603   4.777  0.0842 -0.6277 -0.7687
  873MOL0     H17803   9.488   9.777   4.786  0.3617  1.1927 -3.2719
  873MOL0     H17804   9.287   9.586   4.725 -2.5291  1.5430 -0.0954
  873MOL0     H17805   9.378   9.601   4.570  0.4044 -0.1690  0.6880
  873MOL0     H17806   9.367   9.912   4.503  1.1253 -0.9829  0.2354
  873MOL0     H17807   9.033  10.111   4.507 -0.8658  0.6487 -1.1626
  873MOL0     H17808   9.200  10.175   4.539 -1.0676  0.9932 -0.3616
  873MOL0     H17809   9.110  10.008   4.295 -0.4843  0.8225 -1.8398
  873MOL0     H17810   9.271  10.069   4.326 -1.6067 -0.7021 -0.5203
  873MOL0     H17811   9.182  10.208   4.171 -1.3984  1.2879 -0.3587
  873MOL0     H17812   9.191  10.301   4.320 -0.0683  0.4831 -2.0248
  873MOL0     H17813   8.927  10.170   4.240  0.1301 -0.1715  0.5990
  873MOL0     H17814   8.988  10.313   4.151  0.6156  0.8811  0.9703
  873MOL0     H17815   8.877  10.484   4.539 -0.4521  0.7750  1.3061
  873MOL0     H17816   8.740  10.586   4.682 -0.0264  0.8655 -1.2741
  873MOL0     H17817   8.617  10.688   4.597  2.4257  1.8965  2.7339
  873MOL0     H17818   8.561  10.549   4.686 -2.2952 -1.1209 -1.7743
  873MOL0     H17819   8.295  10.644   4.184 -1.4726  1.7766 -1.1137
  873MOL0     H17820   8.077  10.756   4.135  2.7333 -0.8503 -1.6908
  873MOL0     H17821   7.720  10.606   4.344  3.7572 -0.4611  0.7826
  873MOL0     H17822   7.680  10.781   4.371  1.0476  0.9703  0.4611
  873MOL0     H17823   7.649  10.812   4.137 -2.6735  0.0733 -1.4218
  873MOL0     H17824   7.681  10.635   4.111  3.8000  1.3747  0.4188
  873MOL0     H17825   7.451  10.762   4.263  1.1671  0.8932 -0.6138
  873MOL0     H17826   7.488  10.586   4.246 -2.1690 -2.1605 -2.6712
  873MOL0     H17827   7.438  10.788   4.024  2.0966 -0.9959 -0.2751
  873MOL0     H17828   7.498  10.626   3.986  0.7700 -0.1301  0.3245
  873MOL0     H17829   7.230  10.646   4.126 -1.0947 -3.8673 -0.2141
  873MOL0     H17830   7.323  10.510   4.079 -0.0720 -1.1943 -0.4413
  873MOL0     H17831   7.208  10.723   3.889 -1.6502  0.5443  1.5766
  873MOL0     H17832   7.262  10.565   3.825 -1.6230 -0.2672 -0.7882
  873MOL0     H17833   7.040  10.608   4.030 -0.4846  0.7616 -1.0682
  873MOL0     H17834   7.088  10.457   3.949  0.6608  0.2115  1.4427
  873MOL0     H17835   6.991  10.570   3.729  0.4138 -0.7231 -0.4622
  873MOL0     H17836   6.950  10.711   3.829 -0.0104  0.4439  1.2712
  873MOL0     H17837   7.878  10.491   4.413  0.3326 -1.3026  0.6779
  873MOL0     H17838   8.086  10.380   4.448  0.5100  0.7107 -0.2466
  873MOL0     H17839   8.515  10.346   4.241  0.1547  1.9729 -0.4090
  873MOL0     H17840   8.745  10.294   4.188  2.8283 -0.1845  0.5646
  873MOL0     H17841  10.334   9.351   4.277 -1.1604 -0.2344  0.9925
  873MOL0     H17842  10.519   9.437   4.158 -0.2051  1.4300 -2.1152
  873MOL0     H17843  10.701   9.832   3.799  0.8591 -0.1836 -0.1066
  873MOL0     H17844  10.914   9.919   3.735 -1.3891  0.3931 -0.3611
  873MOL0     H17845  11.225   9.961   4.052  1.6134 -1.8565  0.2186
  873MOL0     H17846  11.303   9.845   3.948  0.1864  0.5759  2.8030
  873MOL0     H17847  11.367  10.009   3.791 -0.7472 -0.2944  0.1783
  873MOL0     H17848  11.412  10.075   3.941 -0.4152  3.3393  0.3105
  873MOL0     H17849  11.169  10.151   3.775  0.5422 -0.8968  0.4158
  873MOL0     H17850  11.315  10.252   3.798 -0.0986  0.4388 -1.1523
  873MOL0     H17851  11.107  10.168   4.012 -0.1091 -0.6810 -0.7351
  873MOL0     H17852  11.115  10.331   3.937  0.1260 -0.1867 -0.2467
  873MOL0     H17853  11.427  10.336   4.238 -1.8526 -0.5068  1.2316
  873MOL0     H17854  11.060   9.862   4.140  0.4185  1.3099  0.3649
  873MOL0     H17855  10.815   9.810   4.209 -2.1975  1.0691 -0.4488
  874MOL0     O17856   3.914   2.132   2.330 -0.7707 -0.4662  0.0366
  874MOL0     C17857   3.983   2.054   2.390  0.6593  0.7665  0.0103
  874MOL0     O17858   3.937   1.936   2.445 -0.3292  0.7040 -0.3259
  874MOL0     C17859   3.809   1.890   2.430  0.1255 -0.5887  0.4150
  874MOL0     C17860   3.759   1.804   2.525  0.1303  0.5979  0.5219
  874MOL0     C17861   3.630   1.749   2.519  0.2171 -0.6538 -1.0552
  874MOL0     C17862   3.555   1.762   2.402  1.0981 -0.4427 -0.0003
  874MOL0     O17863   3.431   1.716   2.381 -0.2714 -0.1269 -0.3350
  874MOL0     C17864   3.392   1.577   2.412 -1.0856 -0.0491 -0.4992
  874MOL0     C17865   3.243   1.557   2.371  1.0845 -0.4089 -0.5316
  874MOL0     C17866   3.148   1.659   2.426  0.3276 -0.3790 -0.4815
  874MOL0     C17867   3.007   1.607   2.406 -0.5749 -0.3134  1.0176
  874MOL0     C17868   2.945   1.627   2.267  0.2526  0.1397  0.1890
  874MOL0     C17869   2.793   1.598   2.277 -0.0205 -0.5485 -0.2756
  874MOL0     C17870   2.755   1.461   2.312 -0.5591 -0.3698 -0.1685
  874MOL0     C17871   2.607   1.424   2.319 -1.4763 -0.2759  0.2743
  874MOL0     N17872   2.577   1.281   2.332  0.1196 -0.9408  0.2257
  874MOL0     C17873   2.447   1.223   2.305 -0.3992 -0.4185 -0.0609
  874MOL0     C17874   2.457   1.110   2.380 -0.0336  0.1218  0.5672
  874MOL0     C17875   2.358   0.996   2.388 -0.2447  0.0219 -0.1855
  874MOL0     C17876   2.323   0.965   2.238  0.4862 -0.6339  0.5023
  874MOL0     C17877   2.310   0.812   2.216  0.1975 -0.1329 -0.3304
  874MOL0     C17878   2.238   0.794   2.089 -0.1221 -0.1652  1.2921
  874MOL0     O17879   2.100   0.817   2.113 -0.0271  0.2455 -0.1789
  874MOL0     C17880   2.008   0.775   2.019  0.2213  0.8758 -0.1027
  874MOL0     C17881   1.888   0.727   2.059  0.4676  0.4161  0.3557
  874MOL0     C17882   1.779   0.692   1.973  0.0647 -0.0712  0.4414
  874MOL0     C17883   1.646   0.667   2.034  0.0071 -0.7386  0.4364
  874MOL0     C17884   1.794   0.697   1.834 -0.7552 -0.0407 -0.1241
  874MOL0     C17885   1.679   0.684   1.731 -0.4956 -0.5785  0.5899
  874MOL0     O17886   1.556   0.672   1.781  0.6293  0.2957  0.4411
  874MOL0     C17887   1.457   0.715   1.704  0.3984 -0.3424  0.1609
  874MOL0     C17888   1.382   0.834   1.752 -0.6420 -0.2084 -0.3655
  874MOL0     C17889   1.275   0.883   1.681  0.1947 -0.5722  0.4417
  874MOL0     C17890   1.235   0.815   1.560 -0.1774 -0.4429  0.5018
  874MOL0     O17891   1.117   0.856   1.491  0.6517 -0.7105 -0.3456
  874MOL0     C17892   1.028   0.938   1.565 -0.4096  0.0879  0.6826
  874MOL0     C17893   0.892   0.940   1.491 -0.1400 -0.1135 -0.7263
  874MOL0     C17894   0.768   0.963   1.582 -0.0733  0.6974  0.3377
  874MOL0     C17895   0.633   0.913   1.535  0.1574 -0.5641  0.3981
  874MOL0     C17896   0.590   1.000   1.416 -0.4808  0.2191 -0.1934
  874MOL0     C17897   0.447   0.988   1.367  0.6880  0.2112  0.7368
  874MOL0     C17898   0.423   0.854   1.307  0.8976 -0.4632  0.5719
  874MOL0     C17899   0.278   0.826   1.264  0.3298  0.7472 -0.1922
  874MOL0    Cl17900   0.270   0.884   1.098  0.1367  0.6025  0.0520
  874MOL0     C17901   1.307   0.707   1.512  0.7510 -0.5470  0.6197
  874MOL0     C17902   1.418   0.660   1.584 -0.1077 -0.0533 -0.3954
  874MOL0     O17903   1.713   0.695   1.612  0.4107  0.3775 -0.2935
  874MOL0     C17904   1.926   0.735   1.791 -0.7663  0.2450 -1.1594
  874MOL0     C17905   2.033   0.761   1.880  0.5109  0.4088  0.7670
  874MOL0     N17906   2.581   1.099   2.453 -0.2992  0.8147 -0.0553
  874MOL0     N17907   2.645   1.200   2.421 -0.1843 -0.0118 -0.1163
  874MOL0     C17908   3.604   1.840   2.306 -0.1549  0.3555  1.1257
  874MOL0     C17909   3.730   1.909   2.317 -0.4730 -0.7368  0.8456
  874MOL0     C17910   4.124   2.084   2.415 -0.5645  0.6131  0.0602
  874MOL0     C17911   4.214   1.996   2.485  0.3333  1.1702  0.6723
  874MOL0     C17912   4.343   2.033   2.516 -0.2297 -0.3775 -0.1690
  874MOL0     C17913   4.393   2.160   2.485  0.3651  0.1065 -0.1572
  874MOL0     O17914   4.518   2.211   2.513  0.1746  0.9930 -0.2540
  874MOL0     C17915   4.618   2.112   2.550  0.5392 -0.5185  0.0866
  874MOL0     C17916   4.746   2.175   2.599 -0.8622 -0.3768  0.2885
  874MOL0     C17917   4.721   2.255   2.722  0.2669 -1.1352 -0.5140
  874MOL0     C17918   4.841   2.332   2.770 -0.3350 -0.0377 -0.1011
  874MOL0     C17919   4.955   2.247   2.791  0.1658 -0.2373  0.4660
  874MOL0     C17920   5.049   2.171   2.803  0.6002 -0.6957  0.2788
  874MOL0     C17921   4.311   2.243   2.406  0.3608  0.4236  0.8563
  874MOL0     C17922   4.176   2.212   2.383 -0.2932  0.7949  1.0246
  874MOL0     H17923   3.826   1.768   2.603  0.2212  0.0336  0.1919
  874MOL0     H17924   3.585   1.682   2.591 -0.4614 -0.8295 -1.6341
  874MOL0     H17925   3.460   1.506   2.363 -0.8704 -0.0547 -0.1920
  874MOL0     H17926   3.401   1.556   2.519  0.7622  0.9192 -0.4363
  874MOL0     H17927   3.229   1.540   2.264 -1.3302 -0.1422 -0.3087
  874MOL0     H17928   3.212   1.462   2.415 -1.6482 -0.1953 -1.7787
  874MOL0     H17929   3.153   1.664   2.535 -1.1644  1.5742 -0.4569
  874MOL0     H17930   3.153   1.760   2.386 -1.7097 -0.1106 -0.1315
  874MOL0     H17931   3.006   1.502   2.437  0.3568 -0.9996 -1.1080
  874MOL0     H17932   2.942   1.652   2.482 -1.0927  3.5600 -1.4110
  874MOL0     H17933   2.953   1.730   2.231 -3.0076 -0.2062 -1.9661
  874MOL0     H17934   3.001   1.577   2.188 -0.0411  0.8325 -0.4719
  874MOL0     H17935   2.751   1.666   2.351  3.1244  0.0783  1.1291
  874MOL0     H17936   2.745   1.620   2.182  2.7548 -2.6047 -2.3168
  874MOL0     H17937   2.804   1.384   2.252  1.7359 -0.0774  1.2198
  874MOL0     H17938   2.790   1.451   2.415 -3.5865 -1.3115  0.8438
  874MOL0     H17939   2.569   1.465   2.225  1.2103 -0.3741 -0.9548
  874MOL0     H17940   2.570   1.492   2.397 -0.8674  0.1563  0.1932
  874MOL0     H17941   2.362   1.245   2.242 -1.3852 -2.1560  0.6019
  874MOL0     H17942   2.398   0.910   2.443  0.5097 -0.9112 -2.1041
  874MOL0     H17943   2.268   1.037   2.434  1.1793  0.0284  2.8240
  874MOL0     H17944   2.399   1.006   2.170 -0.0476  0.1991  0.3921
  874MOL0     H17945   2.224   1.005   2.215  0.7175  0.4263  1.2752
  874MOL0     H17946   2.256   0.780   2.305 -0.8139  4.1910  0.8556
  874MOL0     H17947   2.408   0.765   2.203 -0.2457 -0.7818 -1.5118
  874MOL0     H17948   2.262   0.690   2.066 -0.2929  0.0419  0.1152
  874MOL0     H17949   2.265   0.862   2.007 -1.1416 -1.3120 -0.0399
  874MOL0     H17950   1.880   0.729   2.167  1.5578  2.3255  0.4410
  874MOL0     H17951   1.602   0.580   1.983 -0.4580  0.2749 -0.9492
  874MOL0     H17952   1.647   0.643   2.141  0.2565 -0.3680  0.5182
  874MOL0     H17953   1.571   0.745   2.016  1.0842 -0.2723 -2.5092
  874MOL0     H17954   1.413   0.878   1.847  1.1941 -1.3036 -0.4211
  874MOL0     H17955   1.229   0.970   1.728  2.2021  0.4086  0.6744
  874MOL0     H17956   1.011   0.882   1.657  1.1399 -0.3261  0.7482
  874MOL0     H17957   1.066   1.038   1.587  0.2058  0.3037 -1.1339
  874MOL0     H17958   0.900   1.017   1.415  0.6059 -0.9763 -1.5533
  874MOL0     H17959   0.872   0.848   1.435 -2.3907 -0.1384  0.0119
  874MOL0     H17960   0.757   1.066   1.616  1.3275  1.3281 -1.0297
  874MOL0     H17961   0.786   0.901   1.670  1.4592 -0.8298 -0.9725
  874MOL0     H17962   0.633   0.806   1.513  0.1428 -0.9005  1.9236
  874MOL0     H17963   0.563   0.921   1.619 -0.3539  1.0067 -0.1397
  874MOL0     H17964   0.654   0.974   1.331  1.3764  1.1441  0.8424
  874MOL0     H17965   0.603   1.107   1.437 -5.0287  0.1649  5.4648
  874MOL0     H17966   0.364   1.001   1.438 -2.6492  0.1098 -2.8347
  874MOL0     H17967   0.424   1.067   1.295 -1.9822 -2.2069 -1.2864
  874MOL0     H17968   0.446   0.777   1.382  1.5869 -1.1343 -0.3000
  874MOL0     H17969   0.491   0.843   1.222  1.1393 -2.1799  0.9459
  874MOL0     H17970   0.207   0.887   1.320 -2.1876 -1.6300 -0.5826
  874MOL0     H17971   0.253   0.721   1.276 -0.1224  0.7937 -0.6633
  874MOL0     H17972   1.285   0.664   1.415  0.6014  0.6915  0.0871
  874MOL0     H17973   1.472   0.571   1.555 -1.7217 -0.7135 -1.5026
  874MOL0     H17974   1.947   0.727   1.685 -2.0159  0.5908 -1.4500
  874MOL0     H17975   2.134   0.789   1.849  0.4535  1.3290  1.3704
  874MOL0     H17976   3.538   1.857   2.222  0.1333 -1.9827  0.3413
  874MOL0     H17977   3.772   1.965   2.234 -3.1102  2.5705  1.5123
  874MOL0     H17978   4.186   1.898   2.523  1.5810  0.7618  0.5837
  874MOL0     H17979   4.400   1.959   2.572  0.1140  2.2934  3.3675
  874MOL0     H17980   4.580   2.066   2.642 -2.6044  4.8972  1.9387
  874MOL0     H17981   4.620   2.041   2.467 -0.2466 -0.5676  0.0981
  874MOL0     H17982   4.771   2.233   2.511 -4.3234  0.4109 -0.3299
  874MOL0     H17983   4.820   2.095   2.613  0.5689  0.8487 -0.0868
  874MOL0     H17984   4.689   2.195   2.808  2.3216 -2.1433 -0.4047
  874MOL0     H17985   4.644   2.331   2.706  0.4646 -0.4556  1.5044
  874MOL0     H17986   4.809   2.374   2.866  1.1915 -0.2611  0.5438
  874MOL0     H17987   4.889   2.411   2.712  0.8494  0.4944  1.5096
  874MOL0     H17988   5.138   2.113   2.815  1.3319  0.2859 -0.3149
  874MOL0     H17989   4.363   2.334   2.381  0.6207  0.3752  1.2178
  874MOL0     H17990   4.121   2.288   2.330  3.2970  1.7917 -1.6760
  875MOL0     O17991   0.297   6.255   3.878  0.1647  0.3010 -0.2061
  875MOL0     C17992   0.358   6.358   3.915  0.6072 -0.3178  0.5010
  875MOL0     O17993   0.332   6.490   3.870 -0.3277 -0.2345  0.1653
  875MOL0     C17994   0.275   6.508   3.752 -0.3648 -0.6566 -0.5153
  875MOL0     C17995   0.290   6.435   3.640 -0.1116 -0.2407 -0.4882
  875MOL0     C17996   0.221   6.467   3.525 -1.2947 -0.1749  0.2116
  875MOL0     C17997   0.142   6.575   3.516 -0.3588 -0.5182 -0.1680
  875MOL0     O17998   0.045   6.607   3.414  0.0299  0.3642  0.2807
  875MOL0     C17999  -0.046   6.507   3.371  0.2733 -0.1579 -0.4190
  875MOL0     C18000  -0.190   6.561   3.345 -0.5764  0.0128 -0.3657
  875MOL0     C18001  -0.271   6.588   3.476 -0.0938 -0.5697 -0.0251
  875MOL0     C18002  -0.385   6.685   3.442 -0.1537  0.5003 -0.8138
  875MOL0     C18003  -0.481   6.721   3.555  0.2959 -0.4194  0.6547
  875MOL0     C18004  -0.591   6.828   3.507  0.7777 -0.1168  0.3301
  875MOL0     C18005  -0.698   6.853   3.622 -0.2407  0.2773  0.5559
  875MOL0     C18006  -0.797   6.959   3.569 -0.5852 -1.1247  0.1085
  875MOL0     N18007  -0.889   6.892   3.472 -0.0706  0.3788  0.2963
  875MOL0     C18008  -0.993   6.821   3.510 -1.0938  1.0234  1.0692
  875MOL0     C18009  -1.046   6.785   3.388  0.8924 -0.7185 -0.3730
  875MOL0     C18010  -1.179   6.698   3.372  0.4549 -1.1517  0.7693
  875MOL0     C18011  -1.298   6.798   3.333 -0.7728 -0.3516 -0.0471
  875MOL0     C18012  -1.432   6.709   3.295 -0.4593  0.3820  1.0366
  875MOL0     C18013  -1.564   6.787   3.303  0.0072  0.5800  0.7079
  875MOL0     O18014  -1.559   6.902   3.206  0.1061  0.0359  0.6983
  875MOL0     C18015  -1.671   6.939   3.137 -0.2197 -0.4914 -0.1617
  875MOL0     C18016  -1.646   7.003   3.019  0.7769  0.5579  0.4318
  875MOL0     C18017  -1.757   7.052   2.938 -0.6761 -0.4174 -0.7232
  875MOL0     C18018  -1.718   7.082   2.801  1.0683  0.1350  0.3882
  875MOL0     C18019  -1.885   7.034   2.982  0.0231  0.0404 -0.4022
  875MOL0     C18020  -2.008   7.074   2.908  0.0001 -0.1091 -0.2875
  875MOL0     O18021  -2.122   7.027   2.963  0.7847  0.1468 -0.2197
  875MOL0     C18022  -2.241   7.084   2.933 -0.0416 -0.2030 -0.6744
  875MOL0     C18023  -2.281   7.216   2.960 -0.6756  0.7458 -0.5626
  875MOL0     C18024  -2.408   7.261   2.925  0.1974  0.0099  0.1562
  875MOL0     C18025  -2.501   7.182   2.870 -0.0281  0.1835 -0.4860
  875MOL0     O18026  -2.637   7.225   2.863 -0.1136 -1.0328  0.3510
  875MOL0     C18027  -2.741   7.165   2.780 -0.2382 -0.2089  0.1399
  875MOL0     C18028  -2.878   7.225   2.796  0.6954  0.0403  0.0633
  875MOL0     C18029  -2.895   7.334   2.682  0.0127  0.5967 -0.4568
  875MOL0     C18030  -3.041   7.371   2.673  1.2764  0.6231  0.6245
  875MOL0     C18031  -3.067   7.475   2.553  0.0287  1.0299 -0.2498
  875MOL0     C18032  -3.038   7.626   2.587 -0.2251  0.2396 -0.0309
  875MOL0     C18033  -2.888   7.677   2.576 -0.6105  0.3836  0.2506
  875MOL0     C18034  -2.875   7.823   2.617  0.3220  0.2391  0.0975
  875MOL0    Cl18035  -2.896   7.826   2.787  0.1097 -0.5738 -0.3296
  875MOL0     C18036  -2.467   7.048   2.841 -0.1880  0.0287  0.3325
  875MOL0     C18037  -2.340   7.006   2.875 -0.2062 -0.0639  0.3454
  875MOL0     O18038  -2.001   7.159   2.826 -0.0816 -0.5085 -0.3122
  875MOL0     C18039  -1.907   6.970   3.108 -0.4087 -0.2304 -0.3043
  875MOL0     C18040  -1.798   6.920   3.178  0.4769 -0.4303  0.1057
  875MOL0     N18041  -0.982   6.855   3.296 -0.1962 -0.1911  0.0360
  875MOL0     N18042  -0.892   6.933   3.347 -0.2473 -0.2146 -0.0345
  875MOL0     C18043   0.130   6.657   3.619  1.1177  0.2916 -0.4932
  875MOL0     C18044   0.189   6.620   3.748 -0.5245 -0.4162  0.8823
  875MOL0     C18045   0.467   6.340   4.007  0.1172  0.7579 -0.8254
  875MOL0     C18046   0.477   6.240   4.104 -0.0659 -0.0836  1.2037
  875MOL0     C18047   0.577   6.232   4.180 -1.1512  0.2744  0.0625
  875MOL0     C18048   0.694   6.304   4.165 -0.4531 -0.3260  0.3684
  875MOL0     O18049   0.798   6.267   4.246 -0.5172  0.0264 -0.3913
  875MOL0     C18050   0.908   6.355   4.239  0.0031 -0.0110 -0.6820
  875MOL0     C18051   1.005   6.316   4.127  0.1239 -0.1258 -0.0227
  875MOL0     C18052   1.109   6.425   4.100 -0.0893  0.4465  0.3312
  875MOL0     C18053   1.234   6.407   4.197 -0.1024 -0.8582 -0.5878
  875MOL0     C18054   1.354   6.473   4.154  0.0357  0.3777  0.6903
  875MOL0     C18055   1.456   6.527   4.109 -0.6472  0.6999 -0.4820
  875MOL0     C18056   0.688   6.410   4.070 -0.0476 -0.1209 -0.4500
  875MOL0     C18057   0.574   6.423   3.994  0.4277 -0.0376 -0.3144
  875MOL0     H18058   0.353   6.347   3.648  0.3277  0.1076 -0.0074
  875MOL0     H18059   0.227   6.407   3.434 -1.2252  0.6633 -0.3474
  875MOL0     H18060  -0.010   6.450   3.285 -0.5182 -1.7563  0.2689
  875MOL0     H18061  -0.051   6.430   3.448 -1.6861 -0.2268 -0.5679
  875MOL0     H18062  -0.192   6.649   3.279  0.7746 -0.1738 -0.6778
  875MOL0     H18063  -0.232   6.475   3.292  3.3563 -2.3780 -0.0074
  875MOL0     H18064  -0.305   6.494   3.519  1.7523 -0.2323  2.3498
  875MOL0     H18065  -0.200   6.621   3.552  0.6253 -2.9201  0.3900
  875MOL0     H18066  -0.345   6.777   3.399 -0.2278  0.9116 -0.0026
  875MOL0     H18067  -0.440   6.635   3.361 -0.8449 -0.5288  0.2552
  875MOL0     H18068  -0.534   6.637   3.600 -1.7280  0.4762  0.0705
  875MOL0     H18069  -0.427   6.763   3.641  2.2724  0.9524 -1.1387
  875MOL0     H18070  -0.556   6.927   3.478  0.7903  0.1495  1.2399
  875MOL0     H18071  -0.638   6.778   3.422 -0.2395 -1.0961  1.4221
  875MOL0     H18072  -0.751   6.757   3.632  0.6769 -0.3180 -0.1219
  875MOL0     H18073  -0.653   6.891   3.714 -0.0845  0.3583  0.4462
  875MOL0     H18074  -0.744   7.038   3.514 -0.0110 -0.5998  1.3676
  875MOL0     H18075  -0.849   7.007   3.652  1.3716  0.7722  0.3436
  875MOL0     H18076  -1.020   6.803   3.614  1.8996  2.7412  2.2888
  875MOL0     H18077  -1.167   6.633   3.285 -0.4414 -0.6806  0.2798
  875MOL0     H18078  -1.203   6.632   3.456 -0.5444 -1.2852  0.3911
  875MOL0     H18079  -1.267   6.873   3.260  0.5091 -0.5891  0.2183
  875MOL0     H18080  -1.331   6.859   3.418 -0.1362  1.6667 -1.1870
  875MOL0     H18081  -1.422   6.631   3.372  0.7971  0.2474  0.7680
  875MOL0     H18082  -1.410   6.677   3.192  0.9036  1.4910  0.9517
  875MOL0     H18083  -1.577   6.823   3.405 -0.8839 -0.1408  0.8561
  875MOL0     H18084  -1.639   6.715   3.270  0.8470 -0.4010  0.8801
  875MOL0     H18085  -1.541   7.019   2.995  1.1417  0.2755  1.8000
  875MOL0     H18086  -1.782   7.030   2.729  1.2563  0.0981  0.2462
  875MOL0     H18087  -1.730   7.189   2.782 -3.3266  0.3077  2.7959
  875MOL0     H18088  -1.613   7.056   2.783  1.0141 -0.0944  0.3972
  875MOL0     H18089  -2.214   7.290   3.001  0.0390  0.0306 -0.4144
  875MOL0     H18090  -2.428   7.366   2.938  4.1737  0.8330  1.0591
  875MOL0     H18091  -2.705   7.188   2.679  1.2164  1.7766  1.0388
  875MOL0     H18092  -2.750   7.056   2.788  1.3484 -0.5724 -2.0371
  875MOL0     H18093  -2.951   7.144   2.782  0.5873 -0.3237  2.2464
  875MOL0     H18094  -2.910   7.270   2.891 -2.0748  0.4813 -0.9853
  875MOL0     H18095  -2.865   7.292   2.585  0.8134  0.7023 -0.2632
  875MOL0     H18096  -2.837   7.423   2.708 -2.0554  2.0293 -0.5372
  875MOL0     H18097  -3.087   7.275   2.651  2.9349 -0.3529  1.2100
  875MOL0     H18098  -3.078   7.413   2.767  0.6244  2.0670 -0.2344
  875MOL0     H18099  -3.170   7.463   2.521  0.0950  1.8889 -0.7918
  875MOL0     H18100  -3.005   7.437   2.472 -0.8731  0.9462 -0.9089
  875MOL0     H18101  -3.101   7.687   2.522 -0.4691 -0.6044 -0.6121
  875MOL0     H18102  -3.062   7.640   2.693  1.9974  4.0521  0.1353
  875MOL0     H18103  -2.867   7.670   2.469 -1.1627  2.5998 -0.0354
  875MOL0     H18104  -2.815   7.617   2.631 -0.3259 -0.5218 -1.0595
  875MOL0     H18105  -2.949   7.881   2.561  2.5123  0.7045 -2.5434
  875MOL0     H18106  -2.774   7.856   2.589 -0.8817  2.5734 -1.8425
  875MOL0     H18107  -2.523   6.972   2.789  1.2834 -1.4486  0.8351
  875MOL0     H18108  -2.311   6.904   2.853  0.8478 -0.0571  1.5754
  875MOL0     H18109  -2.006   6.947   3.146 -0.5312  2.1889  1.0145
  875MOL0     H18110  -1.818   6.872   3.273  2.1584  1.8850  1.7257
  875MOL0     H18111   0.062   6.741   3.610 -0.6225 -1.0357 -0.1986
  875MOL0     H18112   0.176   6.662   3.847  1.7909  1.2810  0.5598
  875MOL0     H18113   0.393   6.172   4.109 -1.0354  1.0103  0.3379
  875MOL0     H18114   0.580   6.147   4.247  3.0196 -2.1251 -2.7085
  875MOL0     H18115   0.883   6.461   4.232 -1.1176  0.0652  2.7338
  875MOL0     H18116   0.972   6.356   4.328  1.8232  3.4424 -1.8531
  875MOL0     H18117   0.947   6.311   4.035 -1.5301  1.9374  0.8213
  875MOL0     H18118   1.047   6.215   4.134 -1.8391 -1.0436 -0.8243
  875MOL0     H18119   1.065   6.521   4.130  0.7117  0.1624  2.5523
  875MOL0     H18120   1.135   6.417   3.994 -1.1963 -1.5555  0.1714
  875MOL0     H18121   1.258   6.302   4.218  2.2851  0.1085  2.1643
  875MOL0     H18122   1.207   6.447   4.295  1.3902 -1.7183  0.2137
  875MOL0     H18123   1.548   6.573   4.079 -1.3885  2.6914  0.1255
  875MOL0     H18124   0.775   6.469   4.043  1.7740 -1.8164  1.3642
  875MOL0     H18125   0.561   6.490   3.909  0.1473 -1.6911 -1.6170
  876MOL0     O18126   5.898   6.599   9.679  0.0559  0.5592 -0.5073
  876MOL0     C18127   5.941   6.622   9.792  0.6401  0.1727  0.0825
  876MOL0     O18128   5.916   6.738   9.859  0.1518  0.1631  0.4221
  876MOL0     C18129   5.806   6.819   9.826  0.6992  0.3266  0.6080
  876MOL0     C18130   5.690   6.779   9.751  0.3811  0.0173 -0.1256
  876MOL0     C18131   5.588   6.872   9.722  0.4118 -0.2358 -0.4092
  876MOL0     C18132   5.588   7.000   9.778  0.1828  0.6131  0.7702
  876MOL0     O18133   5.473   7.076   9.751 -0.6506 -0.1657  0.0924
  876MOL0     C18134   5.457   7.205   9.817  0.1639 -0.0562  0.4851
  876MOL0     C18135   5.378   7.289   9.727  0.1260 -1.0914 -0.3923
  876MOL0     C18136   5.224   7.249   9.708  0.2192 -0.3586 -0.4211
  876MOL0     C18137   5.142   7.354   9.621  0.2104  0.2170  0.3643
  876MOL0     C18138   5.003   7.312   9.610  0.5769  0.1902  0.2980
  876MOL0     C18139   4.930   7.407   9.510 -0.2574  0.9476 -0.0045
  876MOL0     C18140   4.799   7.349   9.455  1.2475  0.0319  0.3344
  876MOL0     C18141   4.695   7.340   9.565  0.5191 -0.3427  0.3491
  876MOL0     N18142   4.566   7.306   9.509  0.5973  0.3820 -0.1119
  876MOL0     C18143   4.508   7.355   9.395  0.3205 -0.1418 -0.4715
  876MOL0     C18144   4.379   7.334   9.417 -0.0341 -0.7466 -0.2785
  876MOL0     C18145   4.265   7.389   9.350 -0.1675 -0.1120  0.7666
  876MOL0     C18146   4.192   7.299   9.250 -0.5169  0.0566 -0.4134
  876MOL0     C18147   4.073   7.372   9.192 -0.3065 -0.2177 -0.5371
  876MOL0     C18148   3.999   7.263   9.117  0.4627  0.5156 -0.6428
  876MOL0     O18149   3.878   7.315   9.056  0.2456 -0.3519 -0.5907
  876MOL0     C18150   3.785   7.225   9.024  0.3278 -0.4188  0.5577
  876MOL0     C18151   3.802   7.085   8.999 -0.7660 -0.4447 -0.0958
  876MOL0     C18152   3.703   6.992   8.977  0.2611 -0.6508  0.5357
  876MOL0     C18153   3.740   6.858   8.955 -0.0149  0.7871 -0.4195
  876MOL0     C18154   3.574   7.040   8.949  0.4744  1.2663  0.3784
  876MOL0     C18155   3.452   6.955   8.918 -0.0345 -0.0554 -0.3012
  876MOL0     O18156   3.339   7.010   8.881 -0.1130 -0.3713  0.4758
  876MOL0     C18157   3.229   6.940   8.829  0.0316 -0.2351 -0.0152
  876MOL0     C18158   3.233   6.828   8.752 -0.0913  0.3756 -0.0674
  876MOL0     C18159   3.121   6.786   8.689  0.0083  0.8694  0.3362
  876MOL0     C18160   2.996   6.830   8.732  0.6218 -0.2629  0.8556
  876MOL0     O18161   2.866   6.785   8.698 -0.0415 -0.5479  0.0410
  876MOL0     C18162   2.859   6.682   8.594 -0.5170  0.4159 -0.5650
  876MOL0     C18163   2.718   6.658   8.540 -0.3782 -0.3552 -0.2443
  876MOL0     C18164   2.636   6.573   8.641 -0.6334  0.0087  0.6787
  876MOL0     C18165   2.502   6.545   8.581  0.2748 -0.1151 -0.3459
  876MOL0     C18166   2.434   6.435   8.662 -0.1241 -0.1855  0.7075
  876MOL0     C18167   2.322   6.494   8.751 -0.3860 -0.2395 -0.3681
  876MOL0     C18168   2.270   6.391   8.856 -0.5459  0.5443  0.0385
  876MOL0     C18169   2.132   6.417   8.909  0.1228 -0.1645  0.9799
  876MOL0    Cl18170   2.107   6.594   8.945 -0.1456 -0.0706 -0.1496
  876MOL0     C18171   2.993   6.927   8.822  0.5878  0.1938 -0.5709
  876MOL0     C18172   3.105   6.989   8.876  0.8324  0.4624  0.6657
  876MOL0     O18173   3.467   6.836   8.935 -0.0125 -0.1164  0.5546
  876MOL0     C18174   3.548   7.182   8.975 -0.5059  1.5031 -0.4100
  876MOL0     C18175   3.649   7.268   9.016  0.1385  0.4142 -0.3992
  876MOL0     N18176   4.358   7.262   9.529 -0.2107 -0.0085 -0.2023
  876MOL0     N18177   4.469   7.230   9.577  0.2951 -0.2742 -0.6896
  876MOL0     C18178   5.703   7.037   9.854  0.3883 -0.1119 -0.3651
  876MOL0     C18179   5.809   6.945   9.869  0.3790  0.1482  0.4365
  876MOL0     C18180   6.036   6.530   9.853  0.3696 -0.4331 -0.7879
  876MOL0     C18181   6.072   6.417   9.783  0.0038  0.7088  0.0941
  876MOL0     C18182   6.177   6.327   9.836 -0.8683  0.3731 -0.2602
  876MOL0     C18183   6.227   6.350   9.969  0.1969 -0.0113  0.4104
  876MOL0     O18184   6.324   6.270  10.036  0.2981  0.0610  0.6977
  876MOL0     C18185   6.452   6.327  10.029 -0.3900 -1.2932 -0.3336
  876MOL0     C18186   6.483   6.426  10.146  0.5433  0.8452  0.3738
  876MOL0     C18187   6.510   6.350  10.280 -0.0253 -0.2751 -0.4736
  876MOL0     C18188   6.610   6.231  10.264  0.3434 -0.5424  0.6592
  876MOL0     C18189   6.740   6.274  10.206 -0.2604 -0.6683  0.9876
  876MOL0     C18190   6.856   6.310  10.169 -1.1604  0.2350  0.2950
  876MOL0     C18191   6.161   6.446  10.042  0.2234  0.5908 -0.0570
  876MOL0     C18192   6.073   6.543   9.985  0.2262 -0.3052  0.5968
  876MOL0     H18193   5.669   6.675   9.726  0.1972 -0.6545  2.5063
  876MOL0     H18194   5.505   6.838   9.661  0.1833 -1.8930  0.7374
  876MOL0     H18195   5.398   7.201   9.909 -1.7493  4.9454 -0.2336
  876MOL0     H18196   5.552   7.255   9.835  1.2904 -1.1452 -1.9728
  876MOL0     H18197   5.391   7.383   9.781 -0.0291 -1.6945  0.7121
  876MOL0     H18198   5.433   7.285   9.632  2.2623  0.2774  0.7114
  876MOL0     H18199   5.230   7.158   9.647  1.6420  1.8035 -3.8189
  876MOL0     H18200   5.175   7.237   9.805 -0.4321  1.9291 -0.4144
  876MOL0     H18201   5.151   7.454   9.665  3.0163  1.0840 -1.8250
  876MOL0     H18202   5.195   7.357   9.525  1.8285  0.3375  1.2338
  876MOL0     H18203   4.986   7.213   9.568 -2.1480  1.1420 -1.0796
  876MOL0     H18204   4.942   7.321   9.700 -3.2515  0.9430 -2.1158
  876MOL0     H18205   4.901   7.506   9.545 -4.6623  0.0021 -0.3639
  876MOL0     H18206   4.995   7.411   9.422  2.0328 -3.3570  1.2064
  876MOL0     H18207   4.760   7.415   9.378  1.4843 -1.1694 -0.8424
  876MOL0     H18208   4.822   7.249   9.418  1.3884 -1.7592  4.6222
  876MOL0     H18209   4.679   7.442   9.601 -2.4281 -0.8329  0.7117
  876MOL0     H18210   4.733   7.277   9.647  1.1222  1.3373  1.4059
  876MOL0     H18211   4.549   7.410   9.312 -2.6551 -0.2488 -2.1628
  876MOL0     H18212   4.194   7.434   9.421  0.9093  2.0868  0.5218
  876MOL0     H18213   4.312   7.472   9.297  2.8152 -2.0810  0.0984
  876MOL0     H18214   4.157   7.205   9.295  2.5451 -0.3197  1.4076
  876MOL0     H18215   4.254   7.263   9.168  2.3718 -1.2757  2.1588
  876MOL0     H18216   4.105   7.454   9.127 -1.3397  1.1855  0.6533
  876MOL0     H18217   3.999   7.420   9.256  2.4664  0.6857  2.2281
  876MOL0     H18218   3.980   7.182   9.189 -0.9180 -0.5114 -2.0979
  876MOL0     H18219   4.059   7.208   9.044  2.1507 -0.8398  1.6276
  876MOL0     H18220   3.900   7.040   9.010 -1.5179 -2.0323  0.4431
  876MOL0     H18221   3.704   6.794   9.037 -1.4183 -0.2783 -1.8173
  876MOL0     H18222   3.715   6.813   8.859  2.1217  0.0396 -0.6675
  876MOL0     H18223   3.849   6.849   8.962 -0.1585 -0.0159  1.6429
  876MOL0     H18224   3.328   6.780   8.729  0.3685  1.8969 -1.5888
  876MOL0     H18225   3.132   6.691   8.636 -0.3331  0.6961  0.5754
  876MOL0     H18226   2.916   6.703   8.503 -1.8380  0.1793 -1.4877
  876MOL0     H18227   2.909   6.589   8.622 -2.4983 -0.6905 -0.5311
  876MOL0     H18228   2.658   6.744   8.512 -0.7256 -0.6485 -0.4133
  876MOL0     H18229   2.734   6.593   8.453  2.9794  1.4903 -1.1739
  876MOL0     H18230   2.612   6.631   8.730 -2.4778 -0.3608  0.4664
  876MOL0     H18231   2.685   6.477   8.662 -0.0017  0.6714  2.3665
  876MOL0     H18232   2.443   6.637   8.586  0.8756  0.2232  3.6223
  876MOL0     H18233   2.506   6.505   8.480  2.1276 -0.4268 -0.1777
  876MOL0     H18234   2.510   6.382   8.719  0.1154  0.5942  1.1385
  876MOL0     H18235   2.391   6.370   8.585  1.0037 -0.3262  0.1844
  876MOL0     H18236   2.357   6.577   8.813 -0.2449 -0.7890  0.3014
  876MOL0     H18237   2.242   6.530   8.686  1.2999  0.0622 -2.3799
  876MOL0     H18238   2.340   6.384   8.940  1.6410 -3.1082 -1.8199
  876MOL0     H18239   2.277   6.288   8.819 -2.7687  1.4486 -3.2838
  876MOL0     H18240   2.096   6.356   8.994 -1.9177  0.0029  0.2953
  876MOL0     H18241   2.069   6.383   8.826  0.8909 -1.5724  0.9420
  876MOL0     H18242   2.909   6.968   8.878  0.7862 -0.6632  0.3970
  876MOL0     H18243   3.096   7.076   8.940 -1.2813  2.3245 -1.9908
  876MOL0     H18244   3.449   7.223   8.958 -0.7566  2.1259  2.0748
  876MOL0     H18245   3.620   7.372   9.025 -0.3263  0.3535 -1.1779
  876MOL0     H18246   5.712   7.130   9.909  1.2370 -1.3703  1.7833
  876MOL0     H18247   5.896   6.965   9.931  1.1898 -2.4458  0.2475
  876MOL0     H18248   6.036   6.413   9.680  1.0316  1.2828 -0.3060
  876MOL0     H18249   6.220   6.250   9.773 -0.7453  0.6084 -0.4650
  876MOL0     H18250   6.527   6.248  10.020  0.3924 -0.4085 -2.0819
  876MOL0     H18251   6.466   6.368   9.928 -2.0669 -1.4640 -0.6715
  876MOL0     H18252   6.403   6.501  10.145 -0.3062  0.2086 -4.5490
  876MOL0     H18253   6.569   6.490  10.126  0.7572  1.3324  2.5312
  876MOL0     H18254   6.426   6.307  10.335  2.0554 -0.9905  2.3595
  876MOL0     H18255   6.553   6.419  10.354  0.3315 -0.2111 -0.7409
  876MOL0     H18256   6.564   6.143  10.216 -0.1131 -0.1824  0.4265
  876MOL0     H18257   6.624   6.206  10.369  0.5090 -1.7616  0.3722
  876MOL0     H18258   6.957   6.343  10.155 -0.8797  0.0840  1.7172
  876MOL0     H18259   6.171   6.453  10.150 -0.3909 -3.0924  0.3815
  876MOL0     H18260   6.050   6.631  10.045 -0.4602  1.0858 -1.5757
  877MOL0     O18261   8.349   1.075   3.999 -0.3139 -0.0414 -0.0629
  877MOL0     C18262   8.454   1.084   3.931 -0.5806  0.9752 -0.8727
  877MOL0     O18263   8.460   1.128   3.807  0.0471 -0.0167  0.1759
  877MOL0     C18264   8.341   1.161   3.746  0.3518  0.3498 -1.0392
  877MOL0     C18265   8.297   1.293   3.751 -0.3148 -0.0547  0.5995
  877MOL0     C18266   8.179   1.329   3.692  0.9418  0.0203 -0.6240
  877MOL0     C18267   8.104   1.235   3.624  1.2390 -0.6230  0.1805
  877MOL0     O18268   7.978   1.259   3.557  0.3611  0.8548  0.1620
  877MOL0     C18269   7.897   1.361   3.615 -0.7337 -0.6046  0.2976
  877MOL0     C18270   7.761   1.359   3.535 -0.4116 -0.1533 -0.1569
  877MOL0     C18271   7.659   1.272   3.612 -0.4351 -0.0869 -0.3200
  877MOL0     C18272   7.523   1.283   3.559  1.2389 -0.7006 -0.0266
  877MOL0     C18273   7.429   1.175   3.614 -0.3257  0.3626 -0.1901
  877MOL0     C18274   7.279   1.193   3.563 -0.1902  0.7008  0.6028
  877MOL0     C18275   7.191   1.084   3.615 -0.7009  0.2341 -0.0538
  877MOL0     C18276   7.060   1.088   3.550  0.7684  0.7656  0.4782
  877MOL0     N18277   6.942   1.057   3.630 -0.6976  0.3288  0.2696
  877MOL0     C18278   6.908   0.924   3.659  0.6303 -0.2501 -0.0636
  877MOL0     C18279   6.783   0.936   3.710 -0.4066 -0.0039 -0.5328
  877MOL0     C18280   6.710   0.817   3.767 -0.8745 -0.0281  0.2780
  877MOL0     C18281   6.583   0.779   3.691 -1.4365  0.0687  0.3068
  877MOL0     C18282   6.608   0.701   3.565 -1.1261  0.1552  0.2721
  877MOL0     C18283   6.470   0.656   3.513  0.9850  0.1808 -0.2330
  877MOL0     O18284   6.408   0.567   3.610 -0.5799  0.0152 -0.6137
  877MOL0     C18285   6.278   0.581   3.630  0.8163  0.1365  0.4717
  877MOL0     C18286   6.169   0.572   3.534 -0.1834  0.0081 -0.5678
  877MOL0     C18287   6.041   0.584   3.577  0.2120 -0.3746 -0.7546
  877MOL0     C18288   5.939   0.571   3.466  0.2308  0.6105 -0.9695
  877MOL0     C18289   6.007   0.610   3.714 -0.4829  0.6795  0.6742
  877MOL0     C18290   5.873   0.632   3.765  0.0594 -0.1894 -0.7829
  877MOL0     O18291   5.872   0.708   3.874 -0.9793  0.4562 -0.4926
  877MOL0     C18292   5.763   0.702   3.957  0.1240  0.3787 -0.7930
  877MOL0     C18293   5.689   0.586   3.997  0.7102 -0.3122  0.5262
  877MOL0     C18294   5.592   0.603   4.090  0.4965  1.0438  0.2533
  877MOL0     C18295   5.551   0.723   4.141  1.1734  0.2685 -0.2333
  877MOL0     O18296   5.444   0.715   4.228  0.2637  0.2168 -0.5038
  877MOL0     C18297   5.353   0.825   4.241  0.2649 -0.3675 -0.3619
  877MOL0     C18298   5.270   0.828   4.107 -0.7741  0.4595  0.8394
  877MOL0     C18299   5.175   0.709   4.118  0.7426  0.4115  0.6179
  877MOL0     C18300   5.067   0.717   4.012  0.8128  0.0733 -0.0506
  877MOL0     C18301   4.949   0.621   4.054 -0.2747  0.6520  0.1845
  877MOL0     C18302   4.843   0.627   3.947 -0.3403 -0.3315  0.0384
  877MOL0     C18303   4.699   0.584   3.991 -0.0455  0.2553  0.4692
  877MOL0     C18304   4.705   0.456   4.071 -0.9767 -1.3290  0.0088
  877MOL0    Cl18305   4.540   0.390   4.101  0.3092  0.0554 -0.2581
  877MOL0     C18306   5.629   0.837   4.109 -0.7434 -0.6271  0.0826
  877MOL0     C18307   5.734   0.828   4.014  0.0651 -0.3064 -0.3412
  877MOL0     O18308   5.772   0.578   3.715 -0.0336  0.2299  0.1834
  877MOL0     C18309   6.119   0.621   3.806  0.1484  0.5855  0.2167
  877MOL0     C18310   6.249   0.602   3.762 -0.2226  0.0495  0.6423
  877MOL0     N18311   6.747   1.071   3.722  0.0884 -0.4645  0.0535
  877MOL0     N18312   6.845   1.141   3.669 -0.0539 -0.4929 -0.2246
  877MOL0     C18313   8.153   1.100   3.620  0.2149  0.5511 -0.3876
  877MOL0     C18314   8.276   1.064   3.676  0.0239 -0.1757  0.5563
  877MOL0     C18315   8.588   1.047   3.987  0.3758 -0.0917 -1.1853
  877MOL0     C18316   8.596   0.959   4.092 -0.9867  0.5523 -0.1998
  877MOL0     C18317   8.723   0.913   4.136 -0.4950  0.9584  0.2363
  877MOL0     C18318   8.843   0.966   4.074 -0.2727  0.6591 -0.0659
  877MOL0     O18319   8.967   0.922   4.116  0.4223 -0.0874  0.1882
  877MOL0     C18320   8.987   0.873   4.253  0.4921  0.6986 -0.1054
  877MOL0     C18321   9.120   0.814   4.254 -0.2319 -0.2157 -0.4121
  877MOL0     C18322   9.179   0.818   4.390  0.5212  0.2017  0.1018
  877MOL0     C18323   9.322   0.746   4.398 -0.2043  1.0363  0.3372
  877MOL0     C18324   9.322   0.600   4.390 -0.2760 -0.0688 -0.1952
  877MOL0     C18325   9.298   0.480   4.395 -0.2920 -0.0074 -0.7494
  877MOL0     C18326   8.827   1.050   3.963 -0.3455 -0.8271 -0.2882
  877MOL0     C18327   8.706   1.096   3.922  0.2620  0.7405  0.1470
  877MOL0     H18328   8.357   1.365   3.806 -0.6463  0.8256 -0.1599
  877MOL0     H18329   8.143   1.430   3.711 -0.0241 -0.8216  2.8785
  877MOL0     H18330   7.889   1.340   3.722 -0.1398 -1.5059  0.1805
  877MOL0     H18331   7.944   1.460   3.609 -1.9114  0.0103  0.9969
  877MOL0     H18332   7.707   1.453   3.524  0.2804 -0.0090 -2.7738
  877MOL0     H18333   7.773   1.313   3.437 -1.5832 -0.7700 -0.0374
  877MOL0     H18334   7.681   1.166   3.599 -0.1331  0.2267 -2.8476
  877MOL0     H18335   7.651   1.298   3.718 -0.6825  1.2221 -0.6364
  877MOL0     H18336   7.483   1.383   3.576 -3.4902 -2.4971  0.6925
  877MOL0     H18337   7.538   1.253   3.454  0.6815 -1.8705  0.2138
  877MOL0     H18338   7.472   1.078   3.587 -0.1332  0.8041 -1.5032
  877MOL0     H18339   7.413   1.196   3.721  1.5344  1.9400 -0.1730
  877MOL0     H18340   7.235   1.288   3.593 -0.7812  0.2616  1.1362
  877MOL0     H18341   7.280   1.193   3.453  0.9475 -0.5081  0.5818
  877MOL0     H18342   7.247   0.995   3.587 -0.0061  0.4255  0.7078
  877MOL0     H18343   7.186   1.094   3.724  0.9534 -1.0742  0.1723
  877MOL0     H18344   7.067   1.016   3.468 -0.5805  2.2708 -1.0465
  877MOL0     H18345   7.040   1.184   3.502 -1.2771 -0.0664 -0.4532
  877MOL0     H18346   6.967   0.834   3.645  0.5086 -0.4126  0.4323
  877MOL0     H18347   6.774   0.730   3.779 -0.4478  0.3734  1.0257
  877MOL0     H18348   6.678   0.831   3.871  2.8018 -0.4568  1.5978
  877MOL0     H18349   6.528   0.873   3.679  1.5056  2.0122  0.7926
  877MOL0     H18350   6.525   0.706   3.748 -1.8495  0.3272  0.2214
  877MOL0     H18351   6.666   0.614   3.597 -0.0736  0.2554 -1.2428
  877MOL0     H18352   6.665   0.756   3.489 -1.7236  1.6333  0.8501
  877MOL0     H18353   6.483   0.604   3.418 -0.9760 -2.6434  0.9123
  877MOL0     H18354   6.402   0.740   3.498 -1.2715 -1.7150 -1.2028
  877MOL0     H18355   6.185   0.556   3.428  0.1063 -1.9355 -0.2784
  877MOL0     H18356   5.900   0.668   3.435 -2.6432 -0.6368 -1.5676
  877MOL0     H18357   5.979   0.510   3.385  1.4307 -1.6576  1.1948
  877MOL0     H18358   5.861   0.499   3.495  2.4774 -1.1726  1.1590
  877MOL0     H18359   5.719   0.493   3.949 -0.0857 -1.3923  2.0189
  877MOL0     H18360   5.544   0.512   4.124  0.0347  0.5224 -1.6845
  877MOL0     H18361   5.285   0.811   4.326 -0.9584  0.9919 -1.0598
  877MOL0     H18362   5.399   0.924   4.249  1.5335 -0.8411 -1.4216
  877MOL0     H18363   5.220   0.924   4.095 -0.4969  0.4681 -0.3329
  877MOL0     H18364   5.344   0.820   4.027  1.1379 -1.4192  2.6814
  877MOL0     H18365   5.134   0.715   4.220  2.9036  2.2704  1.4613
  877MOL0     H18366   5.237   0.620   4.106  2.4677  1.5804  0.6132
  877MOL0     H18367   5.042   0.824   4.006  0.2633  0.0170  0.9808
  877MOL0     H18368   5.106   0.696   3.912  1.7215  2.5750 -0.3006
  877MOL0     H18369   4.913   0.650   4.153  0.8043  1.5931  0.3207
  877MOL0     H18370   4.998   0.523   4.057 -3.3825 -1.0574 -0.9774
  877MOL0     H18371   4.820   0.727   3.910 -1.8082 -0.4286  0.6142
  877MOL0     H18372   4.865   0.557   3.866  1.9330  0.3112  0.0346
  877MOL0     H18373   4.640   0.552   3.904 -1.5073  0.0155  1.5141
  877MOL0     H18374   4.649   0.669   4.038 -2.3544 -0.7426 -0.0340
  877MOL0     H18375   4.766   0.464   4.162  0.6587 -0.4173 -1.1058
  877MOL0     H18376   4.762   0.378   4.021  0.4059  0.0120 -0.5945
  877MOL0     H18377   5.604   0.937   4.142  1.0492  0.0843 -0.6134
  877MOL0     H18378   5.792   0.919   3.997 -3.6433  2.5166  0.8649
  877MOL0     H18379   6.100   0.639   3.911 -2.0742  0.8193 -0.1893
  877MOL0     H18380   6.338   0.610   3.824  0.4161  1.2574 -0.3816
  877MOL0     H18381   8.082   1.027   3.583 -1.2247  0.7342  1.8337
  877MOL0     H18382   8.321   0.965   3.671  0.9827  0.1554  2.0405
  877MOL0     H18383   8.506   0.919   4.138  1.5104 -2.6170  2.4022
  877MOL0     H18384   8.728   0.849   4.224  0.7212  1.5520  0.6136
  877MOL0     H18385   8.978   0.954   4.326 -0.4540 -0.1745  0.7795
  877MOL0     H18386   8.920   0.792   4.282 -1.6839  2.9733  1.6791
  877MOL0     H18387   9.188   0.870   4.189 -0.8542  1.1971  0.1142
  877MOL0     H18388   9.122   0.709   4.221 -1.0116  0.2037 -1.9070
  877MOL0     H18389   9.108   0.776   4.462  1.4042  2.2652  2.3320
  877MOL0     H18390   9.199   0.923   4.414 -0.5682  0.9832 -2.1436
  877MOL0     H18391   9.357   0.777   4.497 -1.1478  0.0623  1.0017
  877MOL0     H18392   9.378   0.788   4.314  0.4147  0.7525  0.6046
  877MOL0     H18393   9.287   0.374   4.383 -1.4200 -0.0712  0.6709
  877MOL0     H18394   8.915   1.091   3.915 -0.3382 -1.2918 -0.6896
  877MOL0     H18395   8.698   1.165   3.839 -1.0386  2.5545  1.6977
  878MOL0     O18396   8.280   1.213   1.486  0.5408  0.3008 -0.5704
  878MOL0     C18397   8.382   1.276   1.479  0.9408  0.3718  0.3919
  878MOL0     O18398   8.388   1.413   1.455  1.0989  0.6457  0.4773
  878MOL0     C18399   8.277   1.481   1.499  0.0866  0.6755  0.6645
  878MOL0     C18400   8.164   1.490   1.420  0.3406  0.3609  0.9118
  878MOL0     C18401   8.066   1.574   1.459  0.0031  0.2074  0.8197
  878MOL0     C18402   8.076   1.660   1.566  0.5598 -0.6606  0.0909
  878MOL0     O18403   7.976   1.751   1.590  0.7437 -0.2172  0.3287
  878MOL0     C18404   7.927   1.775   1.719  0.8300  0.0920 -0.6423
  878MOL0     C18405   7.793   1.852   1.721  0.1761 -0.5814 -0.3287
  878MOL0     C18406   7.764   1.898   1.867  0.3968  0.4262 -0.0883
  878MOL0     C18407   7.649   1.996   1.871 -0.3557 -0.2750 -0.1845
  878MOL0     C18408   7.609   2.032   2.019  0.3205  0.8437 -0.2752
  878MOL0     C18409   7.511   1.936   2.076  0.4997  0.1614 -0.2683
  878MOL0     C18410   7.483   1.962   2.226 -0.4379  0.2270 -0.9843
  878MOL0     C18411   7.406   2.090   2.257  0.3588 -0.1951 -0.1972
  878MOL0     N18412   7.275   2.086   2.195 -0.0521 -0.1239  0.3930
  878MOL0     C18413   7.168   2.014   2.234  0.3267 -0.7436 -0.1520
  878MOL0     C18414   7.076   2.026   2.128 -0.1780  0.3809  0.1304
  878MOL0     C18415   6.943   1.949   2.119 -0.4949 -0.1152  0.1856
  878MOL0     C18416   6.819   2.043   2.116  0.6605  0.5485  0.0877
  878MOL0     C18417   6.685   1.959   2.089 -0.4433 -1.0363  0.0478
  878MOL0     C18418   6.585   2.055   2.013 -0.6629 -0.3406 -0.7500
  878MOL0     O18419   6.452   2.005   1.994 -0.0603  0.1447  0.3794
  878MOL0     C18420   6.344   2.032   2.079 -0.3342  0.7343 -0.3252
  878MOL0     C18421   6.224   1.984   2.045  0.2989  0.1821 -0.2706
  878MOL0     C18422   6.107   2.000   2.116  0.4816 -0.2374 -1.3098
  878MOL0     C18423   5.986   1.938   2.058  0.3739  0.1933  0.6231
  878MOL0     C18424   6.118   2.084   2.236 -0.0731  0.0100  0.1059
  878MOL0     C18425   6.009   2.124   2.329  0.3513 -0.3151  0.7695
  878MOL0     O18426   6.033   2.214   2.430  0.4880 -0.2531 -0.3114
  878MOL0     C18427   5.939   2.224   2.528  0.1719 -0.0764 -0.0883
  878MOL0     C18428   5.876   2.111   2.591 -0.7467 -0.7575  0.6653
  878MOL0     C18429   5.775   2.130   2.685  1.0266  0.2829  0.2137
  878MOL0     C18430   5.739   2.257   2.729  0.1542  0.1832 -1.4593
  878MOL0     O18431   5.639   2.257   2.831 -0.7475 -0.4014 -0.5945
  878MOL0     C18432   5.647   2.357   2.928 -0.8300  0.4080 -0.8255
  878MOL0     C18433   5.511   2.406   2.948  0.3061  0.6715 -0.4799
  878MOL0     C18434   5.498   2.500   3.063 -0.5544 -0.9689  0.5438
  878MOL0     C18435   5.378   2.586   3.066 -0.7604  0.2855  0.5430
  878MOL0     C18436   5.390   2.692   3.173 -0.2840  0.9628  0.5499
  878MOL0     C18437   5.424   2.826   3.097 -0.9700  0.0632  0.5255
  878MOL0     C18438   5.301   2.886   3.027  0.0285  0.5030  0.7423
  878MOL0     C18439   5.312   2.887   2.877  0.2065 -0.2636 -0.9353
  878MOL0    Cl18440   5.143   2.896   2.808  0.3618  0.0194 -0.2218
  878MOL0     C18441   5.802   2.364   2.669  0.7576 -0.6736 -0.1198
  878MOL0     C18442   5.905   2.358   2.572  0.1931  1.0466  0.3509
  878MOL0     O18443   5.899   2.076   2.307 -0.3788  0.8113 -0.5204
  878MOL0     C18444   6.245   2.128   2.272  0.4408  0.5154  0.8250
  878MOL0     C18445   6.356   2.105   2.195  0.4154 -0.2226  0.2813
  878MOL0     N18446   7.132   2.102   2.026  0.2000 -0.1036 -0.6508
  878MOL0     N18447   7.250   2.132   2.065  0.0729  0.0571 -0.0976
  878MOL0     C18448   8.187   1.652   1.651  0.7073 -0.0524  0.2664
  878MOL0     C18449   8.285   1.563   1.613  0.7548  0.3173  0.0216
  878MOL0     C18450   8.515   1.215   1.521  0.1106 -2.0322 -0.2876
  878MOL0     C18451   8.629   1.294   1.549  0.2064 -0.3236 -0.2822
  878MOL0     C18452   8.750   1.233   1.585 -0.0049  0.6601 -0.7738
  878MOL0     C18453   8.767   1.098   1.580  0.1134 -0.2505  0.0496
  878MOL0     O18454   8.894   1.055   1.609  0.2631 -0.3258  0.6819
  878MOL0     C18455   8.916   0.914   1.638  0.2246  0.2302  0.1668
  878MOL0     C18456   9.049   0.901   1.718 -0.1471 -0.2815  0.1498
  878MOL0     C18457   9.064   0.777   1.797  0.7662 -0.1218 -0.9692
  878MOL0     C18458   9.011   0.791   1.928  0.1051  0.1814 -0.2952
  878MOL0     C18459   9.023   0.669   2.008 -0.5427 -0.2117  0.1639
  878MOL0     C18460   9.032   0.559   2.063 -0.0826 -0.3195 -0.7754
  878MOL0     C18461   8.652   1.026   1.559  0.3531  0.2984  0.3004
  878MOL0     C18462   8.530   1.083   1.543  0.5630 -0.6946  0.7723
  878MOL0     H18463   8.156   1.427   1.333 -2.1969  3.4966 -1.3784
  878MOL0     H18464   7.993   1.589   1.379  1.2816 -0.7100 -0.5665
  878MOL0     H18465   7.910   1.690   1.785 -2.2544 -0.1217 -1.5867
  878MOL0     H18466   7.994   1.847   1.767 -2.3314  2.5690  0.3864
  878MOL0     H18467   7.799   1.937   1.652  1.1836  0.4181  0.9432
  878MOL0     H18468   7.713   1.790   1.679 -0.8251  0.1194  0.5005
  878MOL0     H18469   7.736   1.813   1.931 -0.9644 -0.8724 -2.2664
  878MOL0     H18470   7.856   1.932   1.915  0.5359 -1.6413  1.2870
  878MOL0     H18471   7.689   2.089   1.828 -0.3275 -0.2313 -0.0644
  878MOL0     H18472   7.562   1.969   1.811 -0.5053  1.9537 -1.0712
  878MOL0     H18473   7.695   2.042   2.086 -0.9037  0.5274  1.3981
  878MOL0     H18474   7.556   2.127   2.009  1.7346  1.7887  0.7690
  878MOL0     H18475   7.420   1.948   2.016 -0.1663 -1.4992  0.3509
  878MOL0     H18476   7.527   1.829   2.065 -1.4710 -0.0923 -1.1550
  878MOL0     H18477   7.419   1.890   2.277  0.3190  0.4697  0.3426
  878MOL0     H18478   7.580   1.964   2.275 -1.9049 -1.1645  2.2168
  878MOL0     H18479   7.463   2.176   2.222 -0.2792 -0.1461 -1.1410
  878MOL0     H18480   7.403   2.089   2.366  0.4969 -1.9395 -0.1712
  878MOL0     H18481   7.153   1.960   2.327 -2.8760 -0.3965 -0.3385
  878MOL0     H18482   6.950   1.882   2.032  0.1995 -2.7199  2.1120
  878MOL0     H18483   6.928   1.877   2.200 -1.5659 -2.4495 -1.9323
  878MOL0     H18484   6.826   2.118   2.036  0.0033  0.5534  0.0293
  878MOL0     H18485   6.813   2.097   2.210  3.6798  0.8191  0.2097
  878MOL0     H18486   6.648   1.912   2.180  2.1444 -1.8175  0.7838
  878MOL0     H18487   6.711   1.874   2.025 -1.6380 -1.7533  0.5069
  878MOL0     H18488   6.626   2.078   1.915 -3.0677 -1.7471 -2.1953
  878MOL0     H18489   6.572   2.144   2.075  0.0366 -1.6409  1.4042
  878MOL0     H18490   6.232   1.933   1.950  3.5043  0.4667 -0.2576
  878MOL0     H18491   5.979   1.834   2.092 -0.7925 -0.8159 -2.2994
  878MOL0     H18492   5.893   1.992   2.079 -0.5882 -0.7236 -1.0424
  878MOL0     H18493   5.989   1.926   1.949 -2.1770 -2.6433  0.7167
  878MOL0     H18494   5.911   2.016   2.552  1.3427  0.4083 -0.4872
  878MOL0     H18495   5.718   2.047   2.727 -3.4156  3.1752  0.4993
  878MOL0     H18496   5.677   2.311   3.022 -0.3780 -1.6985 -1.9257
  878MOL0     H18497   5.718   2.437   2.906  2.3712 -1.7419  0.8830
  878MOL0     H18498   5.478   2.459   2.858  0.5736  2.3281  0.3459
  878MOL0     H18499   5.442   2.322   2.962  0.8185  0.1690 -0.9135
  878MOL0     H18500   5.574   2.578   3.055 -2.1400  0.6869  0.8707
  878MOL0     H18501   5.514   2.449   3.158  1.4632  2.4607  2.2201
  878MOL0     H18502   5.355   2.629   2.968 -0.7010  0.3723  0.5667
  878MOL0     H18503   5.289   2.526   3.086 -0.5975  0.7451  2.8518
  878MOL0     H18504   5.476   2.674   3.239 -1.8488 -1.1080  2.1383
  878MOL0     H18505   5.305   2.697   3.241 -2.7288  1.6707 -2.3718
  878MOL0     H18506   5.473   2.895   3.166  0.2281  0.9853 -1.1481
  878MOL0     H18507   5.505   2.800   3.028 -0.6182 -1.1604  1.3583
  878MOL0     H18508   5.301   2.991   3.057 -3.6996  0.1309  2.6237
  878MOL0     H18509   5.207   2.840   3.059  0.7743  0.3004  2.8313
  878MOL0     H18510   5.375   2.814   2.827  0.9631  1.3298 -2.4026
  878MOL0     H18511   5.354   2.985   2.852 -0.2268  0.2494  0.2387
  878MOL0     H18512   5.777   2.466   2.695  1.6562 -0.8813  1.7793
  878MOL0     H18513   5.958   2.432   2.514  1.8607 -1.8166 -2.0559
  878MOL0     H18514   6.255   2.186   2.363 -0.5179  0.1370  1.1843
  878MOL0     H18515   6.444   2.143   2.244 -0.8894  0.6099  2.1074
  878MOL0     H18516   8.202   1.711   1.740 -1.2119 -0.5968  1.0006
  878MOL0     H18517   8.375   1.551   1.673  1.5265  2.0606 -0.7204
  878MOL0     H18518   8.647   1.399   1.568  3.3998 -1.2565  3.2293
  878MOL0     H18519   8.821   1.302   1.629  1.4492 -2.1830  1.8199
  878MOL0     H18520   8.831   0.871   1.691  0.1520  0.0169 -0.1242
  878MOL0     H18521   8.917   0.848   1.551 -0.8063  0.6409 -0.1697
  878MOL0     H18522   9.048   0.981   1.793 -2.4030  0.5372 -0.6764
  878MOL0     H18523   9.139   0.918   1.659  0.9439 -1.2105  1.4814
  878MOL0     H18524   9.169   0.752   1.813  1.2447  1.3125 -1.6887
  878MOL0     H18525   9.013   0.694   1.748 -0.9471  0.9608 -1.1031
  878MOL0     H18526   8.906   0.822   1.922  0.5797  2.4494  1.4949
  878MOL0     H18527   9.063   0.877   1.972  0.2958  1.1219 -2.2653
  878MOL0     H18528   9.038   0.459   2.103 -4.4339 -1.1633 -1.7164
  878MOL0     H18529   8.658   0.917   1.557  0.5996  0.3181 -0.0207
  878MOL0     H18530   8.438   1.028   1.527  0.5947  0.2708 -4.6200
  879MOL0     O18531   1.847   8.802   7.379  0.4505  0.3567 -0.3401
  879MOL0     C18532   1.781   8.700   7.381  0.6740 -0.2717 -0.6846
  879MOL0     O18533   1.640   8.690   7.372 -1.0406 -0.5472  0.1825
  879MOL0     C18534   1.556   8.802   7.389  0.0477  0.8035  0.0103
  879MOL0     C18535   1.579   8.921   7.452 -0.3390 -0.1889 -0.7556
  879MOL0     C18536   1.489   9.015   7.447  0.1135  0.1947  0.3737
  879MOL0     C18537   1.352   9.004   7.401  0.0441 -0.5146  0.5813
  879MOL0     O18538   1.271   9.111   7.403  0.6814  0.2030 -0.3971
  879MOL0     C18539   1.155   9.090   7.486  0.2218  0.4797  0.3264
  879MOL0     C18540   1.047   9.199   7.439  0.0688  0.2163  0.6079
  879MOL0     C18541   0.902   9.154   7.491 -0.2341 -0.2029  0.1368
  879MOL0     C18542   0.809   9.268   7.450  0.3481 -0.4611  0.3998
  879MOL0     C18543   0.664   9.259   7.513 -0.6003 -0.7218 -0.1409
  879MOL0     C18544   0.590   9.392   7.503 -0.8424  0.8541 -0.2340
  879MOL0     C18545   0.446   9.384   7.529 -0.2726  0.0267 -0.3285
  879MOL0     C18546   0.398   9.327   7.667  0.5731 -1.2465  0.6603
  879MOL0     N18547   0.252   9.281   7.679  0.5353 -0.9779 -0.1237
  879MOL0     C18548   0.145   9.374   7.677  0.2303 -0.2899 -0.7227
  879MOL0     C18549   0.030   9.299   7.707 -1.1560 -0.1161 -0.7804
  879MOL0     C18550  -0.117   9.349   7.713 -0.5114 -0.5786  0.3874
  879MOL0     C18551  -0.192   9.317   7.847  0.2715  0.4917  0.8369
  879MOL0     C18552  -0.165   9.418   7.959  0.2684  0.3349 -0.0489
  879MOL0     C18553  -0.260   9.541   7.957 -0.1120  0.1875  0.7460
  879MOL0     O18554  -0.391   9.499   7.917 -0.3379 -0.2153 -0.9694
  879MOL0     C18555  -0.497   9.558   7.991  0.5255  0.9078 -0.0743
  879MOL0     C18556  -0.617   9.500   7.965  0.4018  0.0129  0.7290
  879MOL0     C18557  -0.751   9.552   8.013  0.0919  0.8224 -0.1061
  879MOL0     C18558  -0.873   9.482   7.967 -0.1616 -0.3571  0.0926
  879MOL0     C18559  -0.745   9.664   8.098  0.4920  0.4281 -0.1697
  879MOL0     C18560  -0.860   9.733   8.147 -0.2705  0.3295  0.0298
  879MOL0     O18561  -0.981   9.710   8.092 -0.5284  0.3456 -0.3233
  879MOL0     C18562  -1.096   9.773   8.131  0.4912  0.5179  0.4464
  879MOL0     C18563  -1.122   9.910   8.152  0.6775 -0.4478 -0.0518
  879MOL0     C18564  -1.250   9.951   8.191 -0.0127  0.8814 -0.7035
  879MOL0     C18565  -1.353   9.858   8.209 -0.5509  0.1516 -0.3059
  879MOL0     O18566  -1.476   9.909   8.234 -0.0437  0.2016 -0.0067
  879MOL0     C18567  -1.578   9.870   8.133  0.0466 -0.5916 -0.0410
  879MOL0     C18568  -1.710   9.926   8.188 -0.1045  0.3277  0.8114
  879MOL0     C18569  -1.760   9.863   8.322 -0.5345  0.2685  0.2111
  879MOL0     C18570  -1.907   9.891   8.344  0.4708  0.5810  0.8526
  879MOL0     C18571  -1.974   9.791   8.435  0.1919 -0.3768  0.0277
  879MOL0     C18572  -2.119   9.828   8.444 -0.4281 -0.0714 -0.0164
  879MOL0     C18573  -2.208   9.750   8.545  0.0394  0.2298  0.3888
  879MOL0     C18574  -2.356   9.800   8.553  0.1141 -0.2758 -0.4280
  879MOL0    Cl18575  -2.456   9.656   8.533 -0.1400  0.1809  0.2756
  879MOL0     C18576  -1.329   9.731   8.193 -0.1988  0.8281  0.2200
  879MOL0     C18577  -1.201   9.683   8.148  0.3784 -0.2734  0.3744
  879MOL0     O18578  -0.841   9.805   8.242 -0.1075 -0.3357 -0.1587
  879MOL0     C18579  -0.610   9.700   8.143  0.4585 -0.7156 -0.1166
  879MOL0     C18580  -0.494   9.659   8.088  0.7435 -0.6345  0.4002
  879MOL0     N18581   0.075   9.159   7.702 -0.4966 -0.4719  0.0602
  879MOL0     N18582   0.209   9.162   7.701  0.4714 -0.4083  0.6382
  879MOL0     C18583   1.321   8.875   7.352  0.1278  0.5446 -0.4590
  879MOL0     C18584   1.418   8.773   7.350 -0.4299 -0.7082 -0.3043
  879MOL0     C18585   1.843   8.572   7.370  0.2413 -0.6661  0.1653
  879MOL0     C18586   1.980   8.569   7.380 -0.0804 -0.5539  0.6576
  879MOL0     C18587   2.046   8.446   7.371 -0.3758 -1.0282 -0.0968
  879MOL0     C18588   1.979   8.329   7.363 -0.0776 -0.2611  0.7172
  879MOL0     O18589   2.052   8.217   7.353  0.1406 -0.3414  0.5739
  879MOL0     C18590   1.991   8.091   7.352  0.0505 -0.4543  0.5118
  879MOL0     C18591   2.088   7.980   7.327 -0.6998 -0.2170  0.5877
  879MOL0     C18592   2.206   7.980   7.432  0.0692  0.6167  0.0247
  879MOL0     C18593   2.326   7.903   7.378  0.0462 -0.4654 -0.8032
  879MOL0     C18594   2.438   7.903   7.471  0.2637  1.0257  0.3093
  879MOL0     C18595   2.524   7.916   7.553 -0.3022 -0.2273 -0.3536
  879MOL0     C18596   1.842   8.331   7.364  0.1138  0.2323  0.6549
  879MOL0     C18597   1.776   8.455   7.347  0.4149  0.1769  0.5124
  879MOL0     H18598   1.672   8.945   7.503 -1.1159  0.2039  0.5256
  879MOL0     H18599   1.516   9.112   7.488 -3.3590  1.0086  1.0438
  879MOL0     H18600   1.108   8.993   7.468 -0.2290  0.8693 -0.6471
  879MOL0     H18601   1.182   9.093   7.592  0.5966 -0.4855  0.2648
  879MOL0     H18602   1.075   9.292   7.489  1.8935  0.9014 -1.5214
  879MOL0     H18603   1.047   9.220   7.332 -3.2978  1.4666  0.7240
  879MOL0     H18604   0.881   9.055   7.450  0.0962  0.4315 -1.6328
  879MOL0     H18605   0.897   9.151   7.601 -1.1784  0.5046  0.1257
  879MOL0     H18606   0.853   9.361   7.487  2.3178 -1.3399  0.4389
  879MOL0     H18607   0.803   9.277   7.341  0.2500  2.1895  0.5631
  879MOL0     H18608   0.618   9.175   7.460 -1.2231  0.1456 -1.0331
  879MOL0     H18609   0.661   9.232   7.619  0.3355  1.0888  0.3978
  879MOL0     H18610   0.640   9.463   7.570 -0.5436 -0.4768  1.0000
  879MOL0     H18611   0.603   9.410   7.396 -2.5911 -1.9124 -1.0386
  879MOL0     H18612   0.398   9.482   7.520  1.4394  1.0688  1.3885
  879MOL0     H18613   0.399   9.321   7.452 -0.0595 -0.8222  0.2132
  879MOL0     H18614   0.413   9.408   7.738 -3.6039 -0.0473  0.3881
  879MOL0     H18615   0.455   9.239   7.700 -0.2643 -1.7426  0.8270
  879MOL0     H18616   0.147   9.481   7.662  0.5016 -0.4420 -1.8435
  879MOL0     H18617  -0.106   9.457   7.701 -0.7965 -0.8115 -3.2177
  879MOL0     H18618  -0.181   9.314   7.631 -1.8865 -1.1323  1.6530
  879MOL0     H18619  -0.162   9.215   7.872  1.4182  0.6780  0.2960
  879MOL0     H18620  -0.300   9.308   7.828  0.2477  2.9754 -0.7033
  879MOL0     H18621  -0.060   9.448   7.963  0.0775  0.8941  1.3641
  879MOL0     H18622  -0.180   9.379   8.060 -0.0272 -0.3694 -0.3573
  879MOL0     H18623  -0.236   9.605   7.871  1.6630 -1.1752  0.1494
  879MOL0     H18624  -0.241   9.603   8.045 -0.2824 -0.7731  1.4745
  879MOL0     H18625  -0.619   9.418   7.893 -3.6194 -1.1290  1.8504
  879MOL0     H18626  -0.858   9.413   7.884  3.1556  2.3815 -1.8528
  879MOL0     H18627  -0.924   9.441   8.054 -0.1973 -0.2354  0.1296
  879MOL0     H18628  -0.941   9.552   7.916 -0.4515 -0.5074  0.2702
  879MOL0     H18629  -1.046   9.987   8.161  0.6435 -0.5543  1.3654
  879MOL0     H18630  -1.273  10.054   8.220  0.4660  1.1166 -1.1591
  879MOL0     H18631  -1.543   9.895   8.033 -1.0484 -4.2837 -1.5397
  879MOL0     H18632  -1.576   9.760   8.128  0.1038 -0.5629 -0.7557
  879MOL0     H18633  -1.688  10.033   8.198  1.1253  0.0906  0.8682
  879MOL0     H18634  -1.787   9.909   8.112 -0.9609  1.3980  1.4182
  879MOL0     H18635  -1.695   9.876   8.409  1.3077 -0.3960 -0.9941
  879MOL0     H18636  -1.747   9.756   8.301  0.7112  0.1280  1.5408
  879MOL0     H18637  -1.918   9.995   8.379  0.2276  2.0603 -3.1534
  879MOL0     H18638  -1.964   9.888   8.251 -0.2091 -1.2288  1.2848
  879MOL0     H18639  -1.937   9.793   8.538  0.3012  2.9764  0.0166
  879MOL0     H18640  -1.966   9.688   8.398  2.4619 -0.3786  0.3776
  879MOL0     H18641  -2.130   9.937   8.446 -2.1050  0.0480 -4.3788
  879MOL0     H18642  -2.157   9.803   8.344 -1.5795  0.2323  0.3262
  879MOL0     H18643  -2.158   9.759   8.641  0.3624  0.5219  0.1946
  879MOL0     H18644  -2.218   9.643   8.520 -3.3615  0.5784 -0.2500
  879MOL0     H18645  -2.377   9.883   8.485 -0.5670 -1.7473 -2.0703
  879MOL0     H18646  -2.362   9.828   8.659 -0.5748  0.1560 -0.5739
  879MOL0     H18647  -1.418   9.669   8.204  0.5279 -0.7803 -2.0984
  879MOL0     H18648  -1.184   9.577   8.130 -2.8083 -1.0261  1.2034
  879MOL0     H18649  -0.594   9.777   8.218  2.1476 -2.8379  1.8313
  879MOL0     H18650  -0.399   9.701   8.120 -0.6877  0.4573  3.6268
  879MOL0     H18651   1.222   8.852   7.314  0.4014 -1.9295  0.1678
  879MOL0     H18652   1.396   8.683   7.294  1.0117  0.5925 -3.1696
  879MOL0     H18653   2.035   8.661   7.391  2.7203 -1.8987 -1.0000
  879MOL0     H18654   2.154   8.446   7.383 -0.4515  1.1330  1.1982
  879MOL0     H18655   1.943   8.070   7.448 -3.0175  0.3439 -0.7251
  879MOL0     H18656   1.915   8.072   7.275 -0.6765  0.2574  1.0373
  879MOL0     H18657   2.131   7.979   7.227  2.0152 -1.1655  1.6765
  879MOL0     H18658   2.027   7.891   7.347 -0.0011 -0.1509  3.4439
  879MOL0     H18659   2.168   7.944   7.527  1.0162  1.4622  0.7446
  879MOL0     H18660   2.246   8.079   7.455  0.5455  0.1087  1.4454
  879MOL0     H18661   2.360   7.944   7.283 -0.6335  0.4160 -0.6815
  879MOL0     H18662   2.285   7.803   7.362  0.1570 -0.5373 -0.6367
  879MOL0     H18663   2.607   7.931   7.620 -0.3949  0.9344 -0.4645
  879MOL0     H18664   1.786   8.238   7.363  1.4443 -0.6025 -0.1114
  879MOL0     H18665   1.667   8.461   7.351  0.3802 -0.7998  1.7903
  880MOL0     O18666   4.004  11.115   0.647 -0.6148 -0.4238 -0.6250
  880MOL0     C18667   4.082  11.210   0.649 -0.1676  0.2475  0.5642
  880MOL0     O18668   4.101  11.310   0.554 -0.0947 -0.3772  0.1865
  880MOL0     C18669   4.001  11.355   0.470 -0.1302  0.9036 -0.3824
  880MOL0     C18670   3.999  11.300   0.341 -0.3141 -0.4504  1.1812
  880MOL0     C18671   3.893  11.326   0.261 -0.7772  0.5501  0.3823
  880MOL0     C18672   3.787  11.402   0.315  0.2032  0.0827  0.6015
  880MOL0     O18673   3.681  11.437   0.237 -0.4484 -0.4958  0.0905
  880MOL0     C18674   3.565  11.351   0.250  0.0430 -0.0182 -0.0804
  880MOL0     C18675   3.462  11.394   0.143 -0.3480 -0.5021  0.4123
  880MOL0     C18676   3.338  11.295   0.139  0.1406 -0.8120  0.3608
  880MOL0     C18677   3.219  11.349   0.062  0.6369  0.7440 -0.4280
  880MOL0     C18678   3.261  11.370  -0.088  0.6821 -0.3825 -0.9346
  880MOL0     C18679   3.138  11.417  -0.169 -0.3602 -1.1411 -0.6875
  880MOL0     C18680   3.165  11.475  -0.306 -0.4861  0.8370  0.6494
  880MOL0     C18681   3.069  11.590  -0.356  0.8630  0.2460 -0.2378
  880MOL0     N18682   2.933  11.531  -0.383 -0.1307 -0.0343 -0.1295
  880MOL0     C18683   2.895  11.486  -0.507 -1.0427 -0.1208  0.5595
  880MOL0     C18684   2.763  11.471  -0.499 -0.2395  0.2675 -0.7137
  880MOL0     C18685   2.677  11.401  -0.603  1.0145 -0.1966 -0.5696
  880MOL0     C18686   2.535  11.455  -0.637 -0.6020 -0.1585 -0.3921
  880MOL0     C18687   2.525  11.611  -0.654 -0.0287 -0.4109 -0.0180
  880MOL0     C18688   2.526  11.687  -0.524 -0.3309  0.3678  0.1160
  880MOL0     O18689   2.460  11.819  -0.544 -0.0883 -0.3387  0.2078
  880MOL0     C18690   2.328  11.821  -0.556 -0.1283  0.0668  1.1401
  880MOL0     C18691   2.269  11.941  -0.592 -0.2413  0.0160  0.4861
  880MOL0     C18692   2.134  11.958  -0.616  0.5986 -0.6670  0.6985
  880MOL0     C18693   2.084  12.094  -0.670  0.1625 -0.1571 -0.1585
  880MOL0     C18694   2.057  11.845  -0.592 -0.4914  0.6525 -0.0342
  880MOL0     C18695   1.906  11.843  -0.612 -0.0422  0.2407  0.3387
  880MOL0     O18696   1.839  11.946  -0.545  0.0894 -0.1000  0.3041
  880MOL0     C18697   1.707  11.971  -0.564  0.0622  0.9427 -0.0031
  880MOL0     C18698   1.626  11.964  -0.452  0.0733 -0.4688  0.1074
  880MOL0     C18699   1.491  11.987  -0.472 -0.0266  0.6633 -0.2691
  880MOL0     C18700   1.435  12.018  -0.599  0.9361  0.4419  0.1757
  880MOL0     O18701   1.298  12.040  -0.604  0.2340  0.1510 -0.6534
  880MOL0     C18702   1.244  12.033  -0.742  0.9654  0.2553  0.2414
  880MOL0     C18703   1.088  11.992  -0.731  0.3394 -0.2827  0.2761
  880MOL0     C18704   1.011  12.102  -0.657 -0.1847 -0.4040 -0.0342
  880MOL0     C18705   0.857  12.093  -0.657 -0.3276  0.2685 -0.0412
  880MOL0     C18706   0.808  12.206  -0.570 -0.5994  0.0222  0.1057
  880MOL0     C18707   0.655  12.226  -0.591 -0.8514 -0.0182 -0.4756
  880MOL0     C18708   0.589  12.334  -0.500 -1.1469 -0.2456  0.0632
  880MOL0     C18709   0.440  12.357  -0.541 -0.0089 -0.4868  0.4333
  880MOL0    Cl18710   0.346  12.201  -0.540  0.1391 -0.1489 -0.5746
  880MOL0     C18711   1.526  12.015  -0.708  0.3113 -0.6297 -0.0054
  880MOL0     C18712   1.662  11.992  -0.691  0.7359 -0.4360  0.0993
  880MOL0     O18713   1.855  11.750  -0.674  0.5538  0.1489  0.2075
  880MOL0     C18714   2.113  11.721  -0.567 -0.4650  0.0237 -0.6787
  880MOL0     C18715   2.246  11.711  -0.550 -0.1012  0.0789 -0.4434
  880MOL0     N18716   2.726  11.517  -0.373  0.1375  0.0896  0.1499
  880MOL0     N18717   2.827  11.554  -0.299  0.3693 -0.1043  0.5318
  880MOL0     C18718   3.801  11.471   0.441  0.6268 -0.2524  0.8139
  880MOL0     C18719   3.908  11.444   0.519  0.9887  0.0136 -0.3706
  880MOL0     C18720   4.193  11.208   0.754 -0.0615  0.4224 -0.1870
  880MOL0     C18721   4.285  11.311   0.761  0.5847  0.3759  0.2348
  880MOL0     C18722   4.385  11.311   0.857  0.2575  0.3198  0.3040
  880MOL0     C18723   4.398  11.201   0.949 -0.4521 -0.3128  0.1911
  880MOL0     O18724   4.505  11.219   1.032 -0.3527  0.6779  0.2382
  880MOL0     C18725   4.530  11.127   1.140  0.3844 -0.0415 -0.2451
  880MOL0     C18726   4.597  10.997   1.091  0.0860 -1.1645  1.0221
  880MOL0     C18727   4.747  11.007   1.057 -0.1139 -0.5176 -0.5532
  880MOL0     C18728   4.803  10.882   0.990 -0.5715 -0.1754  0.3597
  880MOL0     C18729   4.949  10.869   1.011 -0.8849  0.7508  1.0192
  880MOL0     C18730   5.068  10.864   0.983  0.2188  0.1306 -0.3466
  880MOL0     C18731   4.305  11.096   0.943  0.1369  0.3991  1.4558
  880MOL0     C18732   4.197  11.103   0.847 -0.3880  0.0086 -0.6195
  880MOL0     H18733   4.085  11.243   0.307  0.9824  1.6149  0.8346
  880MOL0     H18734   3.883  11.291   0.158 -1.4710 -0.5159  0.7951
  880MOL0     H18735   3.595  11.247   0.234  2.2770  0.2695  1.7593
  880MOL0     H18736   3.521  11.367   0.349  0.5314  1.0925 -0.0239
  880MOL0     H18737   3.430  11.492   0.181 -2.1173 -0.8277 -0.1540
  880MOL0     H18738   3.513  11.399   0.047 -1.3580  1.1697 -0.0926
  880MOL0     H18739   3.364  11.197   0.097 -2.2380 -1.2890 -0.1579
  880MOL0     H18740   3.308  11.271   0.241  1.6422  1.4622  1.4195
  880MOL0     H18741   3.136  11.278   0.072  0.4678  0.9391 -0.4403
  880MOL0     H18742   3.185  11.443   0.105  2.3179  1.0030  0.4255
  880MOL0     H18743   3.341  11.443  -0.085 -1.3343  1.9829  2.0229
  880MOL0     H18744   3.298  11.276  -0.130 -0.7687 -1.2957 -0.2789
  880MOL0     H18745   3.067  11.335  -0.185  2.1777 -3.2183 -2.1781
  880MOL0     H18746   3.088  11.497  -0.113 -0.3851  0.6444 -3.1080
  880MOL0     H18747   3.270  11.505  -0.310  0.5242 -2.5151 -1.4206
  880MOL0     H18748   3.162  11.394  -0.379  0.9884  0.0840  1.3863
  880MOL0     H18749   3.110  11.609  -0.456  2.0401  0.8632  0.3464
  880MOL0     H18750   3.076  11.680  -0.295  0.6041  0.7257 -0.8987
  880MOL0     H18751   2.964  11.450  -0.583 -0.0797  0.0838  1.3237
  880MOL0     H18752   2.724  11.380  -0.700 -1.4870  1.6239 -2.3019
  880MOL0     H18753   2.664  11.301  -0.562 -4.3944  0.1762 -0.6750
  880MOL0     H18754   2.452  11.419  -0.576 -2.4311  1.6340 -1.7072
  880MOL0     H18755   2.519  11.411  -0.736  1.4156 -1.2102 -0.3116
  880MOL0     H18756   2.431  11.639  -0.704 -1.0192 -2.6193  0.4960
  880MOL0     H18757   2.600  11.651  -0.723 -0.9643  0.1645 -0.7311
  880MOL0     H18758   2.631  11.692  -0.496 -0.9888 -1.1851  3.3773
  880MOL0     H18759   2.481  11.635  -0.439 -0.1978 -1.2014 -0.7289
  880MOL0     H18760   2.334  12.023  -0.622  1.7693 -1.8248 -0.4478
  880MOL0     H18761   2.092  12.173  -0.595  2.1364 -0.2967 -0.1755
  880MOL0     H18762   2.141  12.122  -0.759 -0.8858  0.9091 -0.5169
  880MOL0     H18763   1.980  12.084  -0.703  0.9859  0.3927 -3.2005
  880MOL0     H18764   1.663  11.948  -0.351 -1.9911  2.2241  1.4172
  880MOL0     H18765   1.434  11.997  -0.380  2.0127 -0.4537  1.2019
  880MOL0     H18766   1.250  12.134  -0.784  0.5338 -0.2002 -0.9588
  880MOL0     H18767   1.292  11.954  -0.801 -1.3371 -1.2343  0.2291
  880MOL0     H18768   1.045  11.961  -0.826  1.8971  0.0045 -0.5545
  880MOL0     H18769   1.079  11.904  -0.667  1.3604 -0.8832 -0.3747
  880MOL0     H18770   1.039  12.201  -0.695  1.9632 -0.6226  0.8295
  880MOL0     H18771   1.048  12.106  -0.554  0.5740  0.2222 -0.3203
  880MOL0     H18772   0.824  12.099  -0.761  0.7877 -0.3969 -0.4470
  880MOL0     H18773   0.825  11.996  -0.616 -0.6000 -0.5993 -2.1593
  880MOL0     H18774   0.858  12.300  -0.596  0.4724 -0.2529  1.0734
  880MOL0     H18775   0.839  12.188  -0.467  0.3820 -0.4938 -0.2552
  880MOL0     H18776   0.642  12.259  -0.695 -2.1558 -1.4709 -0.8036
  880MOL0     H18777   0.607  12.129  -0.576 -1.7836  0.3256 -1.1663
  880MOL0     H18778   0.647  12.427  -0.507 -3.0027  1.1466  2.1179
  880MOL0     H18779   0.598  12.294  -0.399 -0.4339 -0.5898 -0.1218
  880MOL0     H18780   0.435  12.407  -0.639 -0.9938 -0.5176  0.4498
  880MOL0     H18781   0.384  12.425  -0.475 -3.1484 -3.1470  0.7575
  880MOL0     H18782   1.494  12.029  -0.811 -2.6650  0.9550  1.0474
  880MOL0     H18783   1.723  11.983  -0.780 -0.0828 -2.8170 -0.3157
  880MOL0     H18784   2.047  11.638  -0.543 -1.6494  1.2940  0.7421
  880MOL0     H18785   2.271  11.617  -0.501 -1.7819  0.7715  1.8964
  880MOL0     H18786   3.721  11.539   0.470 -1.7883 -3.4501  2.3210
  880MOL0     H18787   3.935  11.487   0.615  2.4586 -0.1431 -0.6976
  880MOL0     H18788   4.274  11.404   0.706  2.0509 -0.2990 -1.2711
  880MOL0     H18789   4.465  11.385   0.856 -2.1291  3.0524 -0.8414
  880MOL0     H18790   4.595  11.171   1.216  1.8276  0.3526 -1.6486
  880MOL0     H18791   4.434  11.114   1.190  0.6845  2.0823  0.9919
  880MOL0     H18792   4.534  10.969   1.007  0.4105 -1.4817  0.8832
  880MOL0     H18793   4.597  10.930   1.178  0.3160 -0.4806  1.5617
  880MOL0     H18794   4.802  11.043   1.145  1.7610 -0.8126 -1.5676
  880MOL0     H18795   4.764  11.090   0.988 -1.2237 -1.3447 -1.8622
  880MOL0     H18796   4.783  10.891   0.883  0.0630  1.4891  0.3586
  880MOL0     H18797   4.748  10.796   1.030  0.4854 -0.6153  0.9038
  880MOL0     H18798   5.170  10.844   0.954 -0.3028 -1.8871 -0.9732
  880MOL0     H18799   4.310  11.012   1.012  0.6178  0.4727  1.5179
  880MOL0     H18800   4.116  11.030   0.843 -1.7741  1.2185  2.5825
  881MOL0     O18801   8.318   5.960  10.512 -0.2182 -0.8966 -0.2704
  881MOL0     C18802   8.344   6.080  10.491  0.4665 -0.3790 -0.8524
  881MOL0     O18803   8.268   6.171  10.421  1.1706  0.5086 -0.3754
  881MOL0     C18804   8.130   6.161  10.413 -0.7204 -0.2687 -0.3855
  881MOL0     C18805   8.043   6.106  10.508  0.0844  0.0279  0.2922
  881MOL0     C18806   7.900   6.120  10.499  0.1002 -0.7118  0.2226
  881MOL0     C18807   7.843   6.206  10.405 -0.3674 -0.1801  1.1781
  881MOL0     O18808   7.707   6.220  10.391 -0.1783 -0.5080 -0.5871
  881MOL0     C18809   7.608   6.198  10.499 -0.4537  0.3512 -0.2759
  881MOL0     C18810   7.475   6.266  10.471  1.4036  0.0064  0.0252
  881MOL0     C18811   7.375   6.210  10.576  0.9593  0.1042 -0.3716
  881MOL0     C18812   7.238   6.281  10.569  0.4407 -0.1632 -0.7274
  881MOL0     C18813   7.140   6.238  10.681 -0.2402 -0.0531  0.4029
  881MOL0     C18814   7.102   6.091  10.693  0.3756  0.0276  0.1054
  881MOL0     C18815   7.042   6.023  10.572 -0.1422 -0.3251  0.1697
  881MOL0     C18816   6.932   6.095  10.489  0.1489 -0.3185 -0.8848
  881MOL0     N18817   6.803   6.122  10.563 -0.1822  0.9363 -0.5729
  881MOL0     C18818   6.707   6.027  10.583 -0.4464  0.2153  0.6349
  881MOL0     C18819   6.624   6.072  10.676 -0.3344 -0.4491 -0.3442
  881MOL0     C18820   6.510   6.001  10.727  0.4448 -0.5934  0.6177
  881MOL0     C18821   6.374   6.025  10.662  0.0738  0.3884 -0.6145
  881MOL0     C18822   6.336   6.169  10.691 -0.0125  0.0529  0.3504
  881MOL0     C18823   6.199   6.200  10.630 -0.0859  0.1323 -0.5676
  881MOL0     O18824   6.104   6.138  10.715 -0.0340  0.0095  0.2811
  881MOL0     C18825   5.966   6.140  10.681 -0.1792  0.3876 -0.1963
  881MOL0     C18826   5.908   6.146  10.555 -0.3949 -0.3114 -0.0050
  881MOL0     C18827   5.773   6.150  10.514  0.2556  0.3519  0.8360
  881MOL0     C18828   5.720   6.135  10.377 -1.6123 -0.5429  0.4076
  881MOL0     C18829   5.680   6.154  10.618  0.4453 -0.6999 -0.3454
  881MOL0     C18830   5.540   6.162  10.605  0.3417 -0.9174  0.3595
  881MOL0     O18831   5.467   6.058  10.665  0.4932 -0.2264 -0.5177
  881MOL0     C18832   5.343   6.043  10.618 -0.0443  0.2864 -0.3255
  881MOL0     C18833   5.316   5.929  10.543  0.2158  0.2729  0.1746
  881MOL0     C18834   5.186   5.922  10.493  0.2221  0.3931 -0.3463
  881MOL0     C18835   5.082   6.014  10.525 -1.5648  0.1731  0.7826
  881MOL0     O18836   4.960   5.983  10.477 -0.3390 -0.1077 -0.0288
  881MOL0     C18837   4.889   6.102  10.443  1.1073  0.9424 -0.2751
  881MOL0     C18838   4.756   6.068  10.369 -0.1914  0.5322 -0.4527
  881MOL0     C18839   4.681   6.202  10.356  0.6529  0.0214  1.0066
  881MOL0     C18840   4.541   6.185  10.290  0.3057 -0.6573  0.0302
  881MOL0     C18841   4.470   6.323  10.275  0.5137  0.3399  0.3518
  881MOL0     C18842   4.317   6.337  10.277  0.6909  0.3935  0.3500
  881MOL0     C18843   4.283   6.486  10.269 -0.4707 -0.7863 -0.6076
  881MOL0     C18844   4.125   6.501  10.275 -0.0931 -0.0693  0.0845
  881MOL0    Cl18845   4.096   6.686  10.266 -0.3623  0.0058  0.1153
  881MOL0     C18846   5.113   6.122  10.606 -0.2198 -0.0204  0.0324
  881MOL0     C18847   5.246   6.140  10.648 -0.0147  0.3429  0.0191
  881MOL0     O18848   5.494   6.257  10.551  0.1207 -0.7546 -0.4778
  881MOL0     C18849   5.726   6.150  10.753 -0.1891 -0.7204 -0.6429
  881MOL0     C18850   5.865   6.153  10.780 -0.0146  0.4724  0.1012
  881MOL0     N18851   6.671   6.196  10.716 -0.5104  0.5469  0.4641
  881MOL0     N18852   6.768   6.220  10.634  0.4641 -0.5369  0.0015
  881MOL0     C18853   7.931   6.265  10.314 -0.1252  0.1199  0.0062
  881MOL0     C18854   8.073   6.242  10.319  0.4434  0.3951 -0.4104
  881MOL0     C18855   8.474   6.132  10.557 -0.0833 -0.6121 -0.5751
  881MOL0     C18856   8.499   6.274  10.557  0.1986  0.8169  0.6264
  881MOL0     C18857   8.613   6.323  10.614 -0.7620  0.4865 -0.2200
  881MOL0     C18858   8.712   6.239  10.675 -0.3397 -0.6199 -0.8572
  881MOL0     O18859   8.819   6.308  10.723  0.5430  0.2633 -0.0650
  881MOL0     C18860   8.936   6.237  10.775  0.7615 -0.2695 -0.3856
  881MOL0     C18861   8.985   6.315  10.896 -0.0381  0.4662  0.6067
  881MOL0     C18862   9.114   6.251  10.942 -0.4839 -0.1727 -0.2974
  881MOL0     C18863   9.153   6.299  11.083 -0.2330  0.3980 -0.1393
  881MOL0     C18864   9.050   6.255  11.177 -0.0919  0.0335  1.0690
  881MOL0     C18865   8.970   6.210  11.259 -0.2714 -0.2394  0.4871
  881MOL0     C18866   8.690   6.102  10.668 -0.0833  0.3736 -0.7995
  881MOL0     C18867   8.573   6.049  10.612  0.0503  0.0713  0.1878
  881MOL0     H18868   8.078   6.036  10.583  2.7276  1.9032  0.9724
  881MOL0     H18869   7.846   6.050  10.563 -2.2200  1.0307  0.3176
  881MOL0     H18870   7.601   6.090  10.508  1.3031  0.1778 -0.7115
  881MOL0     H18871   7.648   6.239  10.592 -0.3146 -1.9418  0.7377
  881MOL0     H18872   7.473   6.376  10.470 -1.0882  0.0289  1.3907
  881MOL0     H18873   7.434   6.232  10.375  0.3674 -0.6527  0.6842
  881MOL0     H18874   7.368   6.105  10.545  0.9774  0.9260 -3.4692
  881MOL0     H18875   7.417   6.212  10.677 -1.0257  2.2454  0.4893
  881MOL0     H18876   7.243   6.391  10.563  1.7419 -0.2717 -1.9428
  881MOL0     H18877   7.183   6.249  10.480  1.2343 -2.5556 -0.4134
  881MOL0     H18878   7.172   6.278  10.778  4.1087  0.5876 -1.1154
  881MOL0     H18879   7.045   6.288  10.658  1.6029  2.4368 -2.5093
  881MOL0     H18880   7.192   6.040  10.727  1.7710  1.3431 -1.4885
  881MOL0     H18881   7.028   6.083  10.774  1.0013 -0.0737  0.6752
  881MOL0     H18882   7.121   6.011  10.498 -0.3816  1.5117 -0.4374
  881MOL0     H18883   7.012   5.921  10.597 -2.0185 -0.1966 -1.2942
  881MOL0     H18884   6.902   6.037  10.400 -0.8245 -1.2764  0.0366
  881MOL0     H18885   6.962   6.192  10.447  1.3703 -0.3466 -0.1144
  881MOL0     H18886   6.696   5.926  10.544 -0.7860 -0.1035  1.5301
  881MOL0     H18887   6.521   5.892  10.716 -2.5046 -1.0791  1.5962
  881MOL0     H18888   6.504   6.019  10.834  1.4310  1.0153  0.4196
  881MOL0     H18889   6.306   5.954  10.711 -3.7179  2.1893 -2.8638
  881MOL0     H18890   6.386   6.001  10.556 -1.3822 -0.9846 -0.5052
  881MOL0     H18891   6.414   6.235  10.654  3.0975 -3.4495  0.1152
  881MOL0     H18892   6.339   6.194  10.798  1.2256 -0.6840  0.5046
  881MOL0     H18893   6.188   6.173  10.525  1.9843 -0.2997 -0.7155
  881MOL0     H18894   6.184   6.309  10.632  0.8820  0.2793 -0.9067
  881MOL0     H18895   5.987   6.157  10.481 -0.2175  2.6569  0.5145
  881MOL0     H18896   5.675   6.036  10.368 -0.0245 -1.2514 -0.1753
  881MOL0     H18897   5.654   6.220  10.359 -3.2322 -2.0112 -0.8574
  881MOL0     H18898   5.810   6.145  10.315 -1.1884  0.0139  1.0888
  881MOL0     H18899   5.390   5.853  10.519 -0.3050 -0.0582 -0.4036
  881MOL0     H18900   5.161   5.832  10.438 -3.0642 -1.7137  3.9574
  881MOL0     H18901   4.858   6.151  10.535  0.2602 -1.3649  0.7556
  881MOL0     H18902   4.944   6.170  10.378 -0.1001  1.8327 -0.4077
  881MOL0     H18903   4.768   6.018  10.273 -0.9716 -0.3654 -0.1005
  881MOL0     H18904   4.699   5.990  10.422 -0.0955  0.3438 -0.6278
  881MOL0     H18905   4.741   6.273  10.299  1.1389  0.9858  2.6569
  881MOL0     H18906   4.663   6.241  10.457  0.3233  1.5072  0.3893
  881MOL0     H18907   4.564   6.149  10.190  0.3400  1.9495 -0.9661
  881MOL0     H18908   4.467   6.119  10.337 -1.8079  1.7107  0.3058
  881MOL0     H18909   4.497   6.364  10.177 -0.7294  0.4341  0.0233
  881MOL0     H18910   4.508   6.384  10.357  2.3608  0.0052 -0.1978
  881MOL0     H18911   4.278   6.283  10.191  0.7573 -1.8852  1.6853
  881MOL0     H18912   4.270   6.293  10.366 -1.9450  2.1278 -0.0867
  881MOL0     H18913   4.316   6.521  10.171  1.2719  2.2122  0.9107
  881MOL0     H18914   4.336   6.537  10.350 -1.6338 -2.6686  1.4506
  881MOL0     H18915   4.103   6.468  10.377  1.5384  0.8145  0.7561
  881MOL0     H18916   4.075   6.443  10.197  0.8457  0.7323 -1.1375
  881MOL0     H18917   5.040   6.198  10.631  1.0299  1.3414 -0.3082
  881MOL0     H18918   5.263   6.231  10.705 -2.4999  0.9516 -0.0722
  881MOL0     H18919   5.655   6.148  10.835  0.5800 -0.4780  0.0400
  881MOL0     H18920   5.906   6.146  10.881 -2.0331 -2.8070  0.8293
  881MOL0     H18921   7.898   6.346  10.249  1.0410  0.0715 -0.6796
  881MOL0     H18922   8.130   6.294  10.243  0.1466 -0.6852 -1.4174
  881MOL0     H18923   8.427   6.345  10.519  1.6665  2.2244  0.3902
  881MOL0     H18924   8.629   6.431  10.614  0.8419  0.3633  2.6412
  881MOL0     H18925   8.910   6.138  10.815  1.2026 -0.1992  0.0830
  881MOL0     H18926   9.009   6.227  10.694  0.5216 -0.3857 -0.5932
  881MOL0     H18927   8.900   6.312  10.966 -0.2660  0.5962  0.3366
  881MOL0     H18928   8.998   6.421  10.874 -1.9064  0.7822  0.8258
  881MOL0     H18929   9.199   6.277  10.878  0.5230  1.9101  1.7478
  881MOL0     H18930   9.107   6.142  10.948  1.4696 -0.2452  2.9685
  881MOL0     H18931   9.155   6.409  11.079 -2.7550  0.4799 -3.1256
  881MOL0     H18932   9.250   6.253  11.103 -0.2318  0.4201 -0.0942
  881MOL0     H18933   8.895   6.174  11.326 -0.0223  0.6083  1.2266
  881MOL0     H18934   8.764   6.029  10.701 -3.0763 -2.3972  0.4063
  881MOL0     H18935   8.556   5.943  10.606 -0.2827  0.1474 -0.2194
  882MOL0     O18936   2.985   7.353   6.215  0.6890  0.6554  0.4535
  882MOL0     C18937   3.022   7.412   6.113 -0.8528  0.5131  0.1009
  882MOL0     O18938   2.945   7.436   5.994  0.0833  0.1253 -0.3627
  882MOL0     C18939   2.815   7.392   5.981  0.1678  0.3935  0.5462
  882MOL0     C18940   2.733   7.341   6.078  0.2064 -1.1007 -0.7402
  882MOL0     C18941   2.607   7.286   6.049  0.6694  1.1277 -0.8497
  882MOL0     C18942   2.563   7.269   5.919 -0.4234  0.0828  0.3866
  882MOL0     O18943   2.441   7.219   5.871 -0.2085 -0.2294  0.0976
  882MOL0     C18944   2.373   7.107   5.931 -0.0771  0.4792  0.3391
  882MOL0     C18945   2.255   7.077   5.840  0.8203 -0.1714 -0.5102
  882MOL0     C18946   2.297   7.095   5.692 -0.4727  0.0302 -0.0901
  882MOL0     C18947   2.226   7.008   5.588  0.5690  0.3014  0.2736
  882MOL0     C18948   2.081   7.049   5.568  0.7455 -0.3142  0.1492
  882MOL0     C18949   1.999   6.934   5.504  0.6021 -0.5971  0.5224
  882MOL0     C18950   1.851   6.968   5.518  0.5742 -0.5585  0.7825
  882MOL0     C18951   1.793   7.081   5.433 -0.2284 -0.1366 -0.3432
  882MOL0     N18952   1.651   7.064   5.440  0.4142  0.4773  0.3718
  882MOL0     C18953   1.559   7.077   5.542 -0.8038 -0.1049  0.3330
  882MOL0     C18954   1.437   7.047   5.493 -0.6282 -0.3853  0.1616
  882MOL0     C18955   1.305   7.047   5.567  0.6786  0.2685  0.2313
  882MOL0     C18956   1.173   7.033   5.476 -0.8594 -0.6239  0.8178
  882MOL0     C18957   1.059   6.977   5.562 -1.1760 -0.5050 -0.0979
  882MOL0     C18958   0.939   6.984   5.471  0.3568  0.1376 -0.2453
  882MOL0     O18959   0.834   6.908   5.510  0.1441 -0.1450 -0.5227
  882MOL0     C18960   0.706   6.921   5.451 -1.4411  0.1599  1.2599
  882MOL0     C18961   0.689   6.985   5.328  0.5091 -0.0624  0.1681
  882MOL0     C18962   0.555   7.007   5.277  0.7221 -1.1151  0.8294
  882MOL0     C18963   0.557   7.083   5.145  0.2655 -0.2987 -0.1048
  882MOL0     C18964   0.439   6.957   5.348 -0.0982 -0.2847  0.5988
  882MOL0     C18965   0.296   6.984   5.302 -0.9217 -0.0293  0.7924
  882MOL0     O18966   0.196   6.925   5.379  0.0589  0.5657  0.2382
  882MOL0     C18967   0.070   6.930   5.332  0.9516  0.4072  0.1123
  882MOL0     C18968   0.029   6.828   5.247  0.0046 -0.4805  0.1971
  882MOL0     C18969  -0.088   6.825   5.173 -0.1673 -1.2579  0.8675
  882MOL0     C18970  -0.184   6.927   5.205  0.6922 -0.6787  0.5975
  882MOL0     O18971  -0.298   6.933   5.137 -0.2189 -0.5026 -0.6938
  882MOL0     C18972  -0.380   6.814   5.161 -0.5820 -0.4903  0.1988
  882MOL0     C18973  -0.431   6.808   5.306  0.9603  0.1051  0.1321
  882MOL0     C18974  -0.515   6.935   5.343 -0.4274  0.2346 -0.7865
  882MOL0     C18975  -0.588   6.899   5.471 -0.0387 -0.1184  0.1688
  882MOL0     C18976  -0.662   7.022   5.518 -0.9764 -0.1297 -0.2643
  882MOL0     C18977  -0.783   7.060   5.433 -1.1748 -1.0035  0.5854
  882MOL0     C18978  -0.875   6.948   5.391 -0.7597  0.1019 -0.0134
  882MOL0     C18979  -1.005   6.979   5.305  0.4112 -0.1325 -0.7262
  882MOL0    Cl18980  -0.962   7.080   5.158 -0.2729  0.9256  0.0501
  882MOL0     C18981  -0.155   7.025   5.299  1.0315  0.6072 -0.6956
  882MOL0     C18982  -0.025   7.033   5.351  0.6795 -0.3060  0.1343
  882MOL0     O18983   0.275   7.055   5.204 -0.4320 -0.1612  0.4967
  882MOL0     C18984   0.464   6.883   5.465  0.0952  0.3257 -0.0020
  882MOL0     C18985   0.593   6.869   5.517  0.0932  0.0961 -0.7601
  882MOL0     N18986   1.453   7.037   5.352 -0.0739 -0.1671 -0.3148
  882MOL0     N18987   1.579   7.050   5.329  0.5551 -0.1832  0.1069
  882MOL0     C18988   2.644   7.328   5.810  0.2113 -0.6598 -0.6638
  882MOL0     C18989   2.766   7.384   5.847 -0.1502  0.5729  1.1131
  882MOL0     C18990   3.169   7.449   6.105  0.3099 -0.3584 -0.1684
  882MOL0     C18991   3.251   7.436   6.213 -1.0250 -0.2513  0.2031
  882MOL0     C18992   3.392   7.453   6.207 -0.0903 -0.5371  0.1475
  882MOL0     C18993   3.450   7.494   6.087  0.5506  0.0679  1.2607
  882MOL0     O18994   3.579   7.516   6.059 -0.1249 -0.2249  0.8381
  882MOL0     C18995   3.676   7.507   6.164  0.1879 -0.0656  0.6604
  882MOL0     C18996   3.802   7.575   6.123  0.3814 -0.1700  0.5846
  882MOL0     C18997   3.872   7.493   6.007 -0.2467  0.4334  0.0713
  882MOL0     C18998   3.994   7.566   5.948  0.8877  0.4737 -0.1373
  882MOL0     C18999   4.081   7.612   6.045 -0.7917  0.2865  0.2111
  882MOL0     C19000   4.172   7.633   6.128 -0.2882 -0.5026 -0.3720
  882MOL0     C19001   3.366   7.503   5.979  0.8336  0.8006 -0.7044
  882MOL0     C19002   3.226   7.487   5.984 -0.5893  0.1260 -0.7751
  882MOL0     H19003   2.765   7.353   6.181  0.3114 -0.0417 -0.8837
  882MOL0     H19004   2.539   7.263   6.131  1.2406 -1.5194 -1.0116
  882MOL0     H19005   2.430   7.016   5.950  0.8793  0.6169 -1.6430
  882MOL0     H19006   2.345   7.128   6.035  2.2797  0.2594  1.0756
  882MOL0     H19007   2.228   6.972   5.854  3.6803 -1.2206 -2.0097
  882MOL0     H19008   2.171   7.141   5.869  0.9492 -1.0205  1.9376
  882MOL0     H19009   2.276   7.198   5.661  0.6482  0.3631  0.2125
  882MOL0     H19010   2.403   7.086   5.667 -0.4263 -3.6760  0.8495
  882MOL0     H19011   2.272   7.006   5.489 -0.6242 -1.5650 -0.3017
  882MOL0     H19012   2.228   6.906   5.626  0.2406 -0.2353 -1.0937
  882MOL0     H19013   2.033   7.063   5.666 -2.5465 -7.1193  0.1471
  882MOL0     H19014   2.080   7.137   5.503  0.0615 -1.4400 -1.4466
  882MOL0     H19015   2.022   6.920   5.398  1.3911  1.6333  0.3618
  882MOL0     H19016   2.020   6.842   5.560 -0.9026 -0.7011  0.9696
  882MOL0     H19017   1.798   6.874   5.499  3.7298 -1.9321 -2.3726
  882MOL0     H19018   1.842   7.004   5.620  0.3964 -1.7271  1.1926
  882MOL0     H19019   1.836   7.087   5.333  1.0978  2.3301  0.2962
  882MOL0     H19020   1.813   7.180   5.477 -1.4734 -0.7167  1.6760
  882MOL0     H19021   1.575   7.077   5.650 -1.5664  0.1578  0.4528
  882MOL0     H19022   1.301   6.962   5.635  1.0904 -0.5219 -0.7181
  882MOL0     H19023   1.291   7.133   5.633 -0.8743  0.1398  0.1017
  882MOL0     H19024   1.192   6.972   5.387 -1.7844  1.4960 -0.8979
  882MOL0     H19025   1.155   7.134   5.439  1.7866 -0.0017  0.9867
  882MOL0     H19026   1.039   7.025   5.658 -0.6327  0.5077 -0.4720
  882MOL0     H19027   1.071   6.871   5.581 -0.1504 -0.6941 -1.5916
  882MOL0     H19028   0.971   6.945   5.374 -1.8651 -2.5553 -0.0268
  882MOL0     H19029   0.901   7.087   5.476 -1.1149 -0.4208  0.8701
  882MOL0     H19030   0.774   7.033   5.280  0.5979 -1.3518 -1.0204
  882MOL0     H19031   0.510   7.033   5.059  0.8391  0.7536 -1.0510
  882MOL0     H19032   0.506   7.180   5.148  0.6271 -0.0659 -0.9672
  882MOL0     H19033   0.660   7.116   5.129  0.7335 -0.3731  2.4204
  882MOL0     H19034   0.094   6.744   5.227  0.4727  0.4299 -2.3841
  882MOL0     H19035  -0.112   6.751   5.097 -4.2253 -0.3046  0.9967
  882MOL0     H19036  -0.460   6.820   5.087  0.7227  3.8320 -1.1456
  882MOL0     H19037  -0.330   6.720   5.134 -2.5175 -1.4394 -0.2227
  882MOL0     H19038  -0.494   6.719   5.314  1.9789 -0.5036  1.7432
  882MOL0     H19039  -0.344   6.800   5.372  0.8390 -0.2530  0.2491
  882MOL0     H19040  -0.582   6.966   5.263 -0.4876  0.7950 -0.5236
  882MOL0     H19041  -0.449   7.021   5.358  1.3768 -1.3086  0.5873
  882MOL0     H19042  -0.643   6.805   5.464 -0.6398  0.1932  0.6176
  882MOL0     H19043  -0.520   6.868   5.551  2.1974  0.3207 -1.4585
  882MOL0     H19044  -0.593   7.106   5.528 -1.0567 -0.2469  1.6206
  882MOL0     H19045  -0.690   7.015   5.624 -0.1593 -0.2320 -0.0517
  882MOL0     H19046  -0.845   7.137   5.480  0.2310  0.7917 -0.3122
  882MOL0     H19047  -0.741   7.099   5.339 -1.1967 -2.1093  0.1053
  882MOL0     H19048  -0.909   6.883   5.472 -1.0801 -0.1201 -0.3257
  882MOL0     H19049  -0.812   6.895   5.320 -0.0490 -1.5093  1.7424
  882MOL0     H19050  -1.090   7.027   5.353  2.0308  5.1356 -2.4030
  882MOL0     H19051  -1.046   6.881   5.279  0.2146 -1.0713  2.6539
  882MOL0     H19052  -0.227   7.099   5.334  0.5428 -0.1192 -0.1418
  882MOL0     H19053  -0.006   7.118   5.416 -2.3885 -1.7312  3.2304
  882MOL0     H19054   0.384   6.837   5.521  0.2851  0.7405  0.6150
  882MOL0     H19055   0.610   6.807   5.604 -0.3762 -1.1029 -1.4988
  882MOL0     H19056   2.610   7.323   5.707 -1.2153  0.9701 -0.3091
  882MOL0     H19057   2.826   7.425   5.767  1.3250 -1.7706  0.9368
  882MOL0     H19058   3.205   7.383   6.296 -0.2231 -1.4565 -0.1003
  882MOL0     H19059   3.460   7.438   6.290  2.7504  2.4426 -1.3937
  882MOL0     H19060   3.637   7.559   6.251  1.0390  0.8299  0.5275
  882MOL0     H19061   3.704   7.405   6.193  0.9295 -0.0564  0.0211
  882MOL0     H19062   3.863   7.580   6.213  1.4232  3.4085 -0.1423
  882MOL0     H19063   3.775   7.676   6.091 -4.4366 -0.4703  2.8674
  882MOL0     H19064   3.804   7.485   5.922  0.6252  1.1895 -0.7282
  882MOL0     H19065   3.888   7.392   6.047  1.1630  0.1931 -0.9977
  882MOL0     H19066   3.954   7.655   5.897 -3.0420  0.0601  1.9002
  882MOL0     H19067   4.040   7.502   5.872 -1.1833 -1.6421  0.2892
  882MOL0     H19068   4.258   7.635   6.193  1.2147 -0.6062 -2.2717
  882MOL0     H19069   3.407   7.534   5.884 -0.1486 -1.3630 -1.9226
  882MOL0     H19070   3.165   7.504   5.896 -0.4093  0.1173 -0.9030
  883MOL0     O19071   3.707   0.473   2.611 -0.3741  0.3136 -0.3930
  883MOL0     C19072   3.791   0.492   2.711  0.3808  0.1988 -0.0685
  883MOL0     O19073   3.752   0.493   2.848 -0.0338 -0.4058  0.3262
  883MOL0     C19074   3.626   0.448   2.872 -0.9985 -0.6598  0.4242
  883MOL0     C19075   3.609   0.346   2.962  1.0808  0.8232  0.6646
  883MOL0     C19076   3.476   0.293   2.992 -0.3984 -0.3748  0.6413
  883MOL0     C19077   3.363   0.354   2.940 -0.3746 -0.2203  1.4021
  883MOL0     O19078   3.244   0.293   2.965  0.0197  0.3957 -0.0277
  883MOL0     C19079   3.142   0.386   3.001  0.0651 -0.1772  0.5401
  883MOL0     C19080   3.003   0.327   3.003  0.5164  0.2207 -0.1845
  883MOL0     C19081   2.939   0.290   2.868 -0.1561 -0.2181 -0.3030
  883MOL0     C19082   2.952   0.146   2.831  0.6214 -0.1110  0.3118
  883MOL0     C19083   2.869   0.108   2.714  0.6026  0.5502  0.0761
  883MOL0     C19084   2.725   0.068   2.753 -0.0626  0.0364  0.2225
  883MOL0     C19085   2.647   0.030   2.624  0.2186  0.1451  0.1188
  883MOL0     C19086   2.704  -0.087   2.542 -0.7134  0.1788 -0.1951
  883MOL0     N19087   2.722  -0.203   2.630 -0.1224 -0.0519  0.1089
  883MOL0     C19088   2.623  -0.279   2.667 -0.2319  0.1199 -0.0113
  883MOL0     C19089   2.683  -0.371   2.736 -0.0448  0.8573  0.5608
  883MOL0     C19090   2.627  -0.492   2.802  0.3000  0.7170  0.5339
  883MOL0     C19091   2.562  -0.578   2.688  0.0380  0.9150 -0.0231
  883MOL0     C19092   2.473  -0.682   2.745  0.8138  0.4757  0.6819
  883MOL0     C19093   2.449  -0.784   2.637  0.0215 -0.1899 -0.0532
  883MOL0     O19094   2.371  -0.901   2.674 -0.3963  0.4896  0.1501
  883MOL0     C19095   2.234  -0.900   2.682 -0.3246  0.0609 -0.0519
  883MOL0     C19096   2.170  -1.024   2.708  0.4222 -0.0903 -0.5938
  883MOL0     C19097   2.034  -1.040   2.705 -0.1907 -0.0060  0.4816
  883MOL0     C19098   1.989  -1.183   2.721 -0.3043  0.8673  0.5747
  883MOL0     C19099   1.946  -0.930   2.700  0.3815  0.1573  0.0639
  883MOL0     C19100   1.793  -0.933   2.701 -0.4989  0.3148 -0.5268
  883MOL0     O19101   1.729  -0.820   2.738  0.0282 -0.2411 -0.2552
  883MOL0     C19102   1.592  -0.822   2.736  1.2442  0.2246  0.3077
  883MOL0     C19103   1.508  -0.763   2.637  0.1801  0.0127  0.3439
  883MOL0     C19104   1.371  -0.792   2.634 -0.6518  0.8614 -0.7090
  883MOL0     C19105   1.308  -0.874   2.731  0.5291  0.3162 -0.4635
  883MOL0     O19106   1.169  -0.900   2.731  0.0073  0.6308  0.6563
  883MOL0     C19107   1.086  -0.803   2.662  0.5065  0.9344  0.4267
  883MOL0     C19108   0.943  -0.824   2.699 -0.1422 -0.3563  0.1198
  883MOL0     C19109   0.854  -0.740   2.605  0.5179  0.1979  0.8840
  883MOL0     C19110   0.708  -0.780   2.626 -0.5831  0.5678 -0.5386
  883MOL0     C19111   0.622  -0.713   2.525  0.3198  0.0843  0.0205
  883MOL0     C19112   0.476  -0.760   2.538 -0.3589  0.4168 -0.7326
  883MOL0     C19113   0.397  -0.696   2.648 -0.2375  0.1743  0.9282
  883MOL0     C19114   0.265  -0.765   2.678 -0.1209  0.5211  0.4523
  883MOL0    Cl19115   0.169  -0.678   2.810 -0.0760  0.0953 -0.0637
  883MOL0     C19116   1.385  -0.933   2.836  0.4060 -0.4570  0.7235
  883MOL0     C19117   1.531  -0.906   2.832  0.3168 -0.2145 -0.7187
  883MOL0     O19118   1.735  -1.033   2.651 -0.4029 -0.2287  0.3329
  883MOL0     C19119   2.003  -0.802   2.677 -0.4095  0.1216  0.0347
  883MOL0     C19120   2.148  -0.794   2.667  1.1235 -0.8128 -0.0865
  883MOL0     N19121   2.821  -0.351   2.741  0.9040 -0.4158  0.4519
  883MOL0     N19122   2.844  -0.241   2.680  1.5397  0.5935 -0.2399
  883MOL0     C19123   3.372   0.450   2.843 -0.1691 -0.2851 -0.3965
  883MOL0     C19124   3.504   0.502   2.818  0.6666  1.0177  0.6521
  883MOL0     C19125   3.921   0.526   2.677 -0.2750  0.6943 -0.7011
  883MOL0     C19126   4.023   0.512   2.773  0.4203 -0.4067  0.0291
  883MOL0     C19127   4.153   0.541   2.745  0.2659  0.6541  0.9218
  883MOL0     C19128   4.196   0.590   2.619 -0.6381  0.2886 -0.5878
  883MOL0     O19129   4.322   0.635   2.595  0.4875 -0.3908 -0.3374
  883MOL0     C19130   4.427   0.534   2.593 -0.4075 -0.3986  0.1159
  883MOL0     C19131   4.423   0.470   2.450 -0.0333 -0.7947  1.1064
  883MOL0     C19132   4.457   0.579   2.349  0.0614  0.5959  0.4389
  883MOL0     C19133   4.452   0.526   2.206  0.2673 -0.7241 -0.1060
  883MOL0     C19134   4.323   0.482   2.154  0.2401  0.0887 -0.2948
  883MOL0     C19135   4.215   0.435   2.119  0.4022 -0.8401 -0.5731
  883MOL0     C19136   4.093   0.601   2.522 -0.3749 -0.0254 -0.3115
  883MOL0     C19137   3.959   0.575   2.550  0.0265 -0.0455 -0.5621
  883MOL0     H19138   3.693   0.291   3.004 -0.9378 -2.4478  0.6986
  883MOL0     H19139   3.456   0.212   3.060 -2.6237  0.1527  0.7076
  883MOL0     H19140   3.159   0.413   3.106 -2.1008  0.9715  0.6436
  883MOL0     H19141   3.145   0.472   2.933 -0.7621 -0.8788 -0.4149
  883MOL0     H19142   2.987   0.257   3.086 -2.3854  3.8211  2.6102
  883MOL0     H19143   2.936   0.408   3.032  0.9433 -0.0768  1.7493
  883MOL0     H19144   2.831   0.303   2.873 -0.6433 -2.4911 -2.4773
  883MOL0     H19145   2.969   0.367   2.796  1.6336 -1.6422 -1.1910
  883MOL0     H19146   3.056   0.131   2.802  0.6196  1.4882 -0.6630
  883MOL0     H19147   2.926   0.079   2.913  1.8716 -2.4204 -1.0810
  883MOL0     H19148   2.874   0.185   2.637 -0.0015 -1.0383 -1.6165
  883MOL0     H19149   2.913   0.017   2.671 -1.3060 -1.1528  1.4898
  883MOL0     H19150   2.725  -0.006   2.833  0.8270 -0.3899 -0.1501
  883MOL0     H19151   2.688   0.165   2.788 -1.6801 -0.2271 -0.6865
  883MOL0     H19152   2.542   0.016   2.651 -0.1514  1.0603 -0.8245
  883MOL0     H19153   2.651   0.112   2.552 -2.5848  1.7527  1.6221
  883MOL0     H19154   2.800  -0.060   2.498  0.0628  0.4982  1.5848
  883MOL0     H19155   2.639  -0.105   2.456  1.9609  4.4800 -3.5292
  883MOL0     H19156   2.516  -0.278   2.648  0.0231 -2.0031 -2.0680
  883MOL0     H19157   2.712  -0.535   2.857  1.8917  1.8279 -0.9611
  883MOL0     H19158   2.553  -0.460   2.875 -0.2806  1.1148 -0.2233
  883MOL0     H19159   2.640  -0.616   2.621  1.4743 -0.3793  2.2431
  883MOL0     H19160   2.492  -0.511   2.638 -0.3665 -0.2729 -1.1052
  883MOL0     H19161   2.377  -0.640   2.777  0.6025 -0.5392  1.4473
  883MOL0     H19162   2.524  -0.727   2.831  0.8374  1.8646  1.4263
  883MOL0     H19163   2.552  -0.811   2.612 -0.1096  0.8762 -1.9968
  883MOL0     H19164   2.392  -0.729   2.561 -1.6943 -1.4241  0.2848
  883MOL0     H19165   2.231  -1.114   2.708 -0.5090 -0.7321 -0.9200
  883MOL0     H19166   1.909  -1.176   2.796 -0.9714  2.6068 -0.2549
  883MOL0     H19167   1.947  -1.228   2.631 -0.4804  1.3326  0.4236
  883MOL0     H19168   2.067  -1.256   2.747  1.1593  1.6415 -1.3819
  883MOL0     H19169   1.551  -0.702   2.558 -2.3964  0.7669 -0.5902
  883MOL0     H19170   1.311  -0.751   2.553 -1.5587  1.0742  0.0537
  883MOL0     H19171   1.106  -0.697   2.681 -0.1310  1.3097 -0.8663
  883MOL0     H19172   1.099  -0.832   2.557  0.3600 -1.4631  1.0192
  883MOL0     H19173   0.917  -0.929   2.686 -1.3210  0.2537 -3.4968
  883MOL0     H19174   0.927  -0.794   2.803  0.8652  2.7328 -0.5088
  883MOL0     H19175   0.875  -0.755   2.498  3.0068 -2.9862  1.6571
  883MOL0     H19176   0.862  -0.632   2.624 -0.5016  0.3548  0.5021
  883MOL0     H19177   0.683  -0.886   2.625 -0.3705  0.5212 -1.1669
  883MOL0     H19178   0.681  -0.751   2.728 -2.5025 -1.9256 -0.2472
  883MOL0     H19179   0.664  -0.744   2.429 -1.4098  2.0598 -1.4567
  883MOL0     H19180   0.627  -0.604   2.530  1.8829 -0.0093  1.2470
  883MOL0     H19181   0.426  -0.762   2.440  0.8074  0.3427 -1.3379
  883MOL0     H19182   0.487  -0.866   2.562  0.3796  0.7539  0.4924
  883MOL0     H19183   0.376  -0.595   2.613  2.8767  0.1670 -1.3560
  883MOL0     H19184   0.463  -0.693   2.736  0.3752  0.5210  0.4635
  883MOL0     H19185   0.278  -0.869   2.708 -3.2015  0.1027  0.6981
  883MOL0     H19186   0.200  -0.767   2.590  3.4720  0.3673 -2.4414
  883MOL0     H19187   1.339  -0.996   2.912 -3.3712  1.2084  0.0541
  883MOL0     H19188   1.594  -0.946   2.911  0.2171 -1.0896 -1.0732
  883MOL0     H19189   1.932  -0.722   2.661 -0.4513 -0.0841 -0.8850
  883MOL0     H19190   2.194  -0.700   2.637 -1.0972 -0.0998 -1.5094
  883MOL0     H19191   3.290   0.497   2.790  0.0873  1.4621  0.6800
  883MOL0     H19192   3.508   0.577   2.741  1.5526  3.5675  3.0061
  883MOL0     H19193   3.993   0.468   2.867 -2.8522 -0.8888 -1.0936
  883MOL0     H19194   4.235   0.542   2.816 -1.8369  1.6285  3.4817
  883MOL0     H19195   4.517   0.596   2.605 -0.5896 -0.5258  2.6705
  883MOL0     H19196   4.422   0.457   2.671  0.7416  0.3428  0.9558
  883MOL0     H19197   4.328   0.429   2.415  1.3961 -0.9348 -3.1074
  883MOL0     H19198   4.498   0.391   2.440 -0.2744 -0.7022 -2.8557
  883MOL0     H19199   4.558   0.608   2.377 -1.0995  2.8800  2.6755
  883MOL0     H19200   4.392   0.667   2.357 -2.4535 -0.9033 -1.7790
  883MOL0     H19201   4.515   0.438   2.192  0.3172 -0.9930  1.6485
  883MOL0     H19202   4.495   0.603   2.142  1.3141 -0.5882  0.7372
  883MOL0     H19203   4.109   0.438   2.105  0.3492  1.1249 -0.0383
  883MOL0     H19204   4.122   0.625   2.421  1.3047  2.2608  0.6140
  883MOL0     H19205   3.888   0.573   2.468  1.2281 -4.1905 -1.7390
  884MOL0     O19206   2.555   6.975   8.350  0.9767 -0.1539 -0.2569
  884MOL0     C19207   2.608   7.008   8.457  0.6609 -0.3349 -0.1355
  884MOL0     O19208   2.546   7.010   8.582 -0.2382 -0.4821  0.0243
  884MOL0     C19209   2.411   6.984   8.595 -0.8107 -0.1235  0.1838
  884MOL0     C19210   2.314   7.061   8.521  0.1558 -0.0585  0.0229
  884MOL0     C19211   2.172   7.027   8.540 -0.0865  0.4759  0.2285
  884MOL0     C19212   2.136   6.938   8.639 -0.2512  0.3576 -0.0255
  884MOL0     O19213   2.009   6.930   8.689  0.1753  0.1914  0.1202
  884MOL0     C19214   1.900   6.953   8.598 -0.2001 -0.7054  0.1873
  884MOL0     C19215   1.777   6.969   8.681  0.1133  0.1347 -0.8696
  884MOL0     C19216   1.739   6.842   8.763  0.1768 -0.0546 -0.1031
  884MOL0     C19217   1.630   6.865   8.864 -0.7546  0.1473 -0.2130
  884MOL0     C19218   1.482   6.874   8.805  0.1729 -0.3573  0.4742
  884MOL0     C19219   1.369   6.895   8.911 -0.5793 -0.0610 -0.6143
  884MOL0     C19220   1.326   6.766   8.979 -1.0321  0.8373 -0.2950
  884MOL0     C19221   1.232   6.793   9.102  0.1719  0.2032  0.0053
  884MOL0     N19222   1.119   6.899   9.084 -0.0591 -0.0507 -0.4911
  884MOL0     C19223   1.028   6.890   8.983  0.3295  0.1759 -0.7328
  884MOL0     C19224   0.955   7.002   8.998  0.2222 -0.2429 -0.0511
  884MOL0     C19225   0.831   7.037   8.925  0.3700  0.5102 -0.3379
  884MOL0     C19226   0.722   6.948   8.985  1.0862  0.0688  0.7115
  884MOL0     C19227   0.597   6.947   8.890 -0.0880 -0.3475 -0.0959
  884MOL0     C19228   0.549   7.084   8.843  0.3446  0.4463  0.0238
  884MOL0     O19229   0.406   7.094   8.805  0.2623 -0.2656  0.6382
  884MOL0     C19230   0.301   7.098   8.898  0.6383  0.2320 -0.8031
  884MOL0     C19231   0.329   7.095   9.038  0.2221 -0.7383 -0.0081
  884MOL0     C19232   0.218   7.095   9.124 -0.1215 -0.6823  0.5698
  884MOL0     C19233   0.246   7.113   9.266  0.3177  0.9384 -0.8129
  884MOL0     C19234   0.085   7.079   9.074 -0.8454 -0.0355 -0.3942
  884MOL0     C19235  -0.041   7.062   9.160  0.3778 -0.0708  0.1239
  884MOL0     O19236  -0.167   7.069   9.095  0.6416  0.3239 -0.0315
  884MOL0     C19237  -0.282   7.101   9.167  0.1799  0.5009 -0.3695
  884MOL0     C19238  -0.405   7.059   9.118  0.5191  0.7503 -1.2274
  884MOL0     C19239  -0.522   7.075   9.181 -0.2053  0.5068 -0.4018
  884MOL0     C19240  -0.525   7.146   9.303 -0.1814  0.1541 -0.3576
  884MOL0     O19241  -0.645   7.154   9.383 -0.6602 -0.2567  0.0011
  884MOL0     C19242  -0.774   7.133   9.315  0.1342 -0.4894 -0.0989
  884MOL0     C19243  -0.896   7.176   9.409  0.5199  0.9694  0.7812
  884MOL0     C19244  -1.028   7.126   9.338 -1.0926 -0.7624  0.3185
  884MOL0     C19245  -1.152   7.169   9.415 -0.1313 -0.6291  0.1161
  884MOL0     C19246  -1.275   7.135   9.350 -0.0210 -0.0347 -0.5378
  884MOL0     C19247  -1.400   7.169   9.437 -0.2778  1.2637 -0.6323
  884MOL0     C19248  -1.522   7.104   9.366 -0.2117 -0.8595 -0.0960
  884MOL0     C19249  -1.660   7.144   9.430  0.0058 -0.1313  0.2237
  884MOL0    Cl19250  -1.669   7.329   9.423  0.0838 -0.2925 -0.3376
  884MOL0     C19251  -0.409   7.181   9.363 -0.5657 -0.2729  1.0778
  884MOL0     C19252  -0.290   7.160   9.301 -0.2419  0.2762  0.3572
  884MOL0     O19253  -0.024   7.045   9.274 -0.5942 -0.2431 -0.0177
  884MOL0     C19254   0.068   7.065   8.932  0.6414 -0.6781 -0.2956
  884MOL0     C19255   0.172   7.079   8.847 -1.0063 -0.4516 -0.3512
  884MOL0     N19256   1.011   7.082   9.097 -0.0002  0.5896  0.5057
  884MOL0     N19257   1.102   7.016   9.154 -0.3806  0.5703 -0.1117
  884MOL0     C19258   2.235   6.869   8.715 -0.3826 -0.1710 -0.1989
  884MOL0     C19259   2.371   6.887   8.687  0.9558 -0.1788 -0.1126
  884MOL0     C19260   2.745   7.063   8.453 -0.9114 -0.5150  0.2395
  884MOL0     C19261   2.816   7.065   8.330 -0.5192  0.3793  0.0460
  884MOL0     C19262   2.953   7.109   8.324  0.5901  1.2182  0.2479
  884MOL0     C19263   3.022   7.154   8.440 -0.4896  0.2977 -0.1464
  884MOL0     O19264   3.149   7.213   8.429 -0.7913  0.9453 -0.6623
  884MOL0     C19265   3.227   7.233   8.541  0.1623 -0.1993  0.1187
  884MOL0     C19266   3.199   7.368   8.607 -0.3881  0.0237  0.2975
  884MOL0     C19267   3.253   7.378   8.755 -0.4664  0.0084 -0.3385
  884MOL0     C19268   3.167   7.468   8.845  0.8115 -0.4754 -0.2917
  884MOL0     C19269   3.048   7.386   8.875 -0.2104 -1.1307 -0.5369
  884MOL0     C19270   2.952   7.309   8.885 -0.4271 -0.0584 -0.4912
  884MOL0     C19271   2.950   7.149   8.558 -0.3641 -0.5547  0.3526
  884MOL0     C19272   2.821   7.101   8.569  0.8949 -0.4449 -1.0377
  884MOL0     H19273   2.341   7.133   8.444  1.7259  0.8424  1.3548
  884MOL0     H19274   2.099   7.085   8.483  2.0088  0.9443 -2.1955
  884MOL0     H19275   1.905   7.043   8.536  0.6367 -0.8767 -0.0095
  884MOL0     H19276   1.886   6.868   8.530 -0.4318 -1.2463  0.8984
  884MOL0     H19277   1.799   7.050   8.751  2.7742  0.2554 -1.7373
  884MOL0     H19278   1.694   6.999   8.617  0.5555  2.1393 -0.5536
  884MOL0     H19279   1.713   6.765   8.690  1.6884  1.4440 -2.3255
  884MOL0     H19280   1.824   6.802   8.818  0.0511 -0.1711  0.0085
  884MOL0     H19281   1.636   6.800   8.952  0.5765  3.9953  2.8233
  884MOL0     H19282   1.647   6.961   8.914  0.1325 -0.3437  0.4471
  884MOL0     H19283   1.464   6.955   8.734 -1.4724 -2.0512 -1.1570
  884MOL0     H19284   1.459   6.781   8.752  1.6702 -0.5931  0.2030
  884MOL0     H19285   1.412   6.972   8.976  4.2359 -2.6091 -0.3719
  884MOL0     H19286   1.281   6.935   8.859 -1.9233 -2.2125 -0.1329
  884MOL0     H19287   1.275   6.706   8.903  3.0332 -2.5064 -0.8038
  884MOL0     H19288   1.415   6.712   9.015 -0.6461  1.5703 -0.1391
  884MOL0     H19289   1.301   6.828   9.179 -0.6846 -1.1863  1.4502
  884MOL0     H19290   1.197   6.697   9.138  1.7152 -0.3771  0.0364
  884MOL0     H19291   1.011   6.813   8.908 -2.9221  1.0140 -1.0106
  884MOL0     H19292   0.800   7.142   8.932  0.0577  0.4788 -1.1377
  884MOL0     H19293   0.846   7.023   8.818  0.0385 -0.3309 -0.2750
  884MOL0     H19294   0.694   6.993   9.080  0.6613 -0.0650  0.6518
  884MOL0     H19295   0.761   6.846   8.995  1.5169  0.1049 -0.4340
  884MOL0     H19296   0.516   6.893   8.939 -1.3977  1.3908 -0.2552
  884MOL0     H19297   0.619   6.898   8.795  1.7014  1.6649 -0.7856
  884MOL0     H19298   0.601   7.115   8.752 -0.4322 -1.7401 -1.2428
  884MOL0     H19299   0.568   7.166   8.912 -0.9543  1.4206 -0.7164
  884MOL0     H19300   0.430   7.104   9.076  0.3016  2.1745 -0.7187
  884MOL0     H19301   0.225   7.015   9.311 -0.9284  0.8166 -1.6134
  884MOL0     H19302   0.351   7.133   9.290  0.8074 -0.3365 -1.7310
  884MOL0     H19303   0.171   7.178   9.311  0.0021 -0.9988  1.6737
  884MOL0     H19304  -0.402   7.000   9.026 -1.8748 -2.9579  0.8349
  884MOL0     H19305  -0.617   7.033   9.149 -0.8388  0.6432  1.1982
  884MOL0     H19306  -0.764   7.204   9.232  0.0337  2.7704  2.4710
  884MOL0     H19307  -0.782   7.027   9.289  1.6017 -0.9387  1.1845
  884MOL0     H19308  -0.876   7.129   9.506  1.6058 -0.7372 -0.2148
  884MOL0     H19309  -0.900   7.285   9.419 -0.4958  1.2657 -1.9513
  884MOL0     H19310  -1.026   7.020   9.309 -0.5859 -1.0975  1.5205
  884MOL0     H19311  -1.030   7.173   9.239  0.4963  1.1710  1.1404
  884MOL0     H19312  -1.155   7.115   9.509 -2.2608 -1.4853 -0.3775
  884MOL0     H19313  -1.163   7.276   9.432 -2.0595 -0.8171  0.2995
  884MOL0     H19314  -1.272   7.026   9.339 -1.6443 -0.2281  0.4727
  884MOL0     H19315  -1.297   7.176   9.251 -1.5606 -2.3930 -1.2719
  884MOL0     H19316  -1.392   7.124   9.537 -3.4045 -0.1550 -0.9128
  884MOL0     H19317  -1.410   7.276   9.458  0.0428  1.7966 -2.9645
  884MOL0     H19318  -1.525   6.994   9.373 -3.0984 -0.7552  3.5891
  884MOL0     H19319  -1.524   7.145   9.265  1.2151 -0.9377 -0.1738
  884MOL0     H19320  -1.664   7.118   9.536 -2.2431  3.3733  1.1567
  884MOL0     H19321  -1.741   7.088   9.382  1.2814 -1.4888 -0.4106
  884MOL0     H19322  -0.410   7.233   9.458  1.0279  0.4206  0.7422
  884MOL0     H19323  -0.204   7.205   9.350 -1.6317  1.9008  1.4539
  884MOL0     H19324  -0.031   7.049   8.890 -1.1593  2.0602  2.4513
  884MOL0     H19325   0.155   7.069   8.740  1.8255  1.7352 -1.1359
  884MOL0     H19326   2.217   6.809   8.803 -1.2728  1.4473  0.7775
  884MOL0     H19327   2.448   6.833   8.741  1.6367  0.3951 -0.4837
  884MOL0     H19328   2.754   7.034   8.247 -2.0147 -0.2301  1.3211
  884MOL0     H19329   2.993   7.109   8.223 -1.9245 -2.2446 -0.9525
  884MOL0     H19330   3.212   7.154   8.616 -0.9250  0.5392  0.7217
  884MOL0     H19331   3.333   7.232   8.515  0.4389  2.1591  0.8611
  884MOL0     H19332   3.092   7.385   8.589  0.0509  1.4550 -1.1671
  884MOL0     H19333   3.248   7.446   8.548 -1.6096  0.4195 -0.2246
  884MOL0     H19334   3.353   7.420   8.747  0.7421 -2.8951 -1.7059
  884MOL0     H19335   3.265   7.283   8.807  1.8818  0.6862  0.4525
  884MOL0     H19336   3.147   7.567   8.803 -1.4731 -0.4824  0.6529
  884MOL0     H19337   3.224   7.481   8.938  1.2388  1.2798 -0.7614
  884MOL0     H19338   2.855   7.267   8.903 -0.6077  0.8030  0.6690
  884MOL0     H19339   2.977   7.191   8.654  1.4937 -0.1830 -0.2948
  884MOL0     H19340   2.782   7.107   8.670  3.7320  3.3214  0.0663
  885MOL0     O19341  10.690   9.611   9.352 -0.4238  0.1832 -0.0291
  885MOL0     C19342  10.743   9.651   9.458 -0.1747 -0.4967  0.2673
  885MOL0     O19343  10.691   9.651   9.582  0.4508  0.5515  0.2067
  885MOL0     C19344  10.563   9.592   9.596 -0.4361 -0.7415 -0.2771
  885MOL0     C19345  10.455   9.669   9.551 -0.2441 -0.0897  0.1257
  885MOL0     C19346  10.324   9.615   9.532  1.0981  0.6356  0.8135
  885MOL0     C19347  10.305   9.485   9.566  1.1358  0.1373 -0.4332
  885MOL0     O19348  10.178   9.417   9.570 -0.8153 -0.1636 -0.4733
  885MOL0     C19349  10.087   9.447   9.469  0.7256  0.2534 -0.6582
  885MOL0     C19350   9.985   9.547   9.523  0.0477 -0.1351  0.1358
  885MOL0     C19351   9.867   9.562   9.429  0.5263  0.3026  0.3655
  885MOL0     C19352   9.795   9.421   9.401 -0.8576 -0.6156  0.8254
  885MOL0     C19353   9.652   9.434   9.375 -0.2417 -0.1315  0.5001
  885MOL0     C19354   9.611   9.293   9.332  0.1271 -0.0315 -0.2794
  885MOL0     C19355   9.460   9.285   9.326 -0.4600 -0.2522  0.0266
  885MOL0     C19356   9.410   9.152   9.268  0.0691  0.1887 -0.6274
  885MOL0     N19357   9.270   9.139   9.266  0.0495  0.5060  0.1760
  885MOL0     C19358   9.192   9.189   9.160 -0.6092  0.1704  0.3790
  885MOL0     C19359   9.067   9.151   9.189 -0.3089 -0.8197  0.0712
  885MOL0     C19360   8.952   9.203   9.104 -0.1006 -0.1689 -0.0049
  885MOL0     C19361   8.911   9.339   9.151  0.5340  0.2664 -0.2792
  885MOL0     C19362   8.798   9.425   9.091  0.0378  0.3656  0.4268
  885MOL0     C19363   8.746   9.548   9.171 -0.6400 -0.2389 -0.1365
  885MOL0     O19364   8.636   9.593   9.094  0.4359  0.5031  0.7048
  885MOL0     C19365   8.542   9.679   9.148  0.0263  0.7305 -0.4149
  885MOL0     C19366   8.434   9.721   9.073  0.1659  0.1667 -0.1682
  885MOL0     C19367   8.330   9.800   9.123  0.0529  0.0587  0.4566
  885MOL0     C19368   8.206   9.809   9.038  0.3166 -0.8855 -1.1641
  885MOL0     C19369   8.339   9.852   9.258 -0.3431  0.5887 -0.2130
  885MOL0     C19370   8.239   9.926   9.342 -0.1823 -0.7098 -0.2935
  885MOL0     O19371   8.279   9.976   9.458  0.6270 -0.1936 -0.3800
  885MOL0     C19372   8.191  10.042   9.540 -0.5646  0.4736 -0.8639
  885MOL0     C19373   8.207  10.022   9.673 -0.1615 -0.0730  0.4903
  885MOL0     C19374   8.126  10.093   9.766  0.3920  0.6708  0.2296
  885MOL0     C19375   8.018  10.174   9.733 -0.0309 -0.9329  0.4002
  885MOL0     O19376   7.924  10.241   9.805 -0.3317 -0.4276  0.2327
  885MOL0     C19377   7.919  10.180   9.938  0.7046 -1.0368  0.4248
  885MOL0     C19378   7.804  10.248  10.024 -0.6421 -0.0317  0.1526
  885MOL0     C19379   7.795  10.397  10.017 -1.2526 -0.7697 -0.4900
  885MOL0     C19380   7.683  10.444  10.112 -0.6585 -0.7863  0.1913
  885MOL0     C19381   7.659  10.595  10.090  0.6094  0.6920 -0.4362
  885MOL0     C19382   7.589  10.623   9.948  0.2403 -0.2812 -0.5819
  885MOL0     C19383   7.441  10.573   9.935  0.7687  0.3700 -0.9216
  885MOL0     C19384   7.385  10.610   9.793 -0.1256  0.0198  0.4823
  885MOL0    Cl19385   7.378  10.459   9.689 -0.3592  0.3468 -0.1400
  885MOL0     C19386   8.007  10.190   9.589 -0.2839  0.8301  0.1828
  885MOL0     C19387   8.097  10.130   9.493  0.4081  0.2137  0.1722
  885MOL0     O19388   8.121   9.925   9.307 -0.0496  0.4229  0.3318
  885MOL0     C19389   8.457   9.814   9.329 -0.8660  0.1236 -0.2257
  885MOL0     C19390   8.556   9.726   9.276  0.7376  0.5548  0.3525
  885MOL0     N19391   9.069   9.072   9.302 -0.1621  0.2989  0.0676
  885MOL0     N19392   9.195   9.053   9.347 -0.1688  0.7607  0.7631
  885MOL0     C19393  10.407   9.411   9.635 -0.1636 -0.3041 -0.3188
  885MOL0     C19394  10.540   9.458   9.645  0.1988  0.4467  0.1344
  885MOL0     C19395  10.881   9.702   9.448 -0.1152  0.0144 -0.5763
  885MOL0     C19396  10.929   9.786   9.545 -0.5603  0.0415 -0.0901
  885MOL0     C19397  11.063   9.821   9.532 -0.1002 -0.0411 -0.8300
  885MOL0     C19398  11.139   9.807   9.412 -0.0228  0.9435  0.0498
  885MOL0     O19399  11.264   9.847   9.396 -0.0816 -0.2389  0.2518
  885MOL0     C19400  11.310   9.958   9.478  0.3987  0.3982  0.1481
  885MOL0     C19401  11.439  10.011   9.427  0.3365 -0.3510  0.5726
  885MOL0     C19402  11.553   9.905   9.438 -0.1047 -0.3919 -0.5069
  885MOL0     C19403  11.693   9.972   9.439 -0.4810  0.8771  0.9720
  885MOL0     C19404  11.792   9.865   9.409 -0.3019  0.2458  0.3324
  885MOL0     C19405  11.880   9.772   9.396  1.4376  0.2954 -0.0669
  885MOL0     C19406  11.082   9.727   9.312  0.0348 -0.8898 -0.1313
  885MOL0     C19407  10.957   9.666   9.338 -0.2764  0.2993  1.1489
  885MOL0     H19408  10.467   9.773   9.522 -2.8764  0.3883  0.4516
  885MOL0     H19409  10.241   9.673   9.494 -0.1495 -0.8218  1.2026
  885MOL0     H19410  10.139   9.497   9.387  2.3036  0.5323  0.4628
  885MOL0     H19411  10.045   9.355   9.427  0.3398  0.8163 -1.5302
  885MOL0     H19412   9.959   9.515   9.625  2.7806  0.2745  1.0521
  885MOL0     H19413  10.016   9.652   9.533 -1.3397  0.4722 -1.4397
  885MOL0     H19414   9.796   9.634   9.470 -1.1887  0.7357 -3.0378
  885MOL0     H19415   9.873   9.612   9.332 -2.5903  0.3889  0.1199
  885MOL0     H19416   9.841   9.381   9.310  0.9924  2.0489  0.4948
  885MOL0     H19417   9.803   9.355   9.488 -0.4907 -0.5706  0.8282
  885MOL0     H19418   9.602   9.454   9.470  0.2663 -0.3594  0.8182
  885MOL0     H19419   9.626   9.509   9.299  1.2919 -1.1968 -1.1646
  885MOL0     H19420   9.638   9.279   9.227  1.3967  1.7010 -0.2169
  885MOL0     H19421   9.654   9.225   9.407 -3.0993 -2.1696 -0.1605
  885MOL0     H19422   9.418   9.302   9.425 -0.4162 -0.1185  0.0218
  885MOL0     H19423   9.425   9.365   9.259  0.3154 -0.3761 -0.5495
  885MOL0     H19424   9.455   9.074   9.331 -0.1118 -0.4364 -1.2621
  885MOL0     H19425   9.447   9.136   9.166  2.8683 -0.2278  0.3450
  885MOL0     H19426   9.220   9.257   9.080  0.5893 -1.8117 -0.9859
  885MOL0     H19427   8.985   9.210   9.000 -0.5519 -0.7293 -0.1911
  885MOL0     H19428   8.870   9.131   9.112  0.1727 -0.3454  1.6013
  885MOL0     H19429   9.005   9.395   9.146 -1.5008  3.9887  0.3400
  885MOL0     H19430   8.872   9.325   9.252  0.4046 -0.8384 -0.4703
  885MOL0     H19431   8.714   9.358   9.072 -0.1764  0.9840 -0.9770
  885MOL0     H19432   8.829   9.453   8.990 -1.3610 -1.6908 -0.6521
  885MOL0     H19433   8.815   9.633   9.177 -1.7861  0.6683  0.4877
  885MOL0     H19434   8.719   9.506   9.268 -0.5504 -1.4497 -0.6164
  885MOL0     H19435   8.423   9.686   8.971 -0.0048  1.3801 -0.5817
  885MOL0     H19436   8.168   9.911   9.050  2.0394 -0.4359  1.2325
  885MOL0     H19437   8.226   9.781   8.934  1.3022 -3.1724 -0.4095
  885MOL0     H19438   8.136   9.735   9.079  0.4742  1.1063  3.2979
  885MOL0     H19439   8.280   9.948   9.705  2.1986  1.7371 -0.4071
  885MOL0     H19440   8.153  10.076   9.870  3.7939  2.1759 -0.2726
  885MOL0     H19441   7.904  10.072   9.936 -4.2986 -0.6456  2.4831
  885MOL0     H19442   8.011  10.213   9.987  0.9165 -1.3019  0.2058
  885MOL0     H19443   7.713  10.201   9.984 -1.0846  0.6170  0.3731
  885MOL0     H19444   7.818  10.222  10.129 -0.0812  0.4913  0.2129
  885MOL0     H19445   7.775  10.415   9.911  1.9225  1.5733 -0.8188
  885MOL0     H19446   7.889  10.450  10.034 -1.1066 -0.3529 -2.4165
  885MOL0     H19447   7.592  10.389  10.084 -1.6961  0.9692 -0.0507
  885MOL0     H19448   7.701  10.434  10.220 -1.3579 -1.1725  0.2805
  885MOL0     H19449   7.751  10.652  10.107 -0.1168  1.6928  0.2129
  885MOL0     H19450   7.594  10.634  10.168  0.7860 -0.6489  0.4153
  885MOL0     H19451   7.587  10.732   9.953 -2.1732 -0.2881  3.8291
  885MOL0     H19452   7.648  10.579   9.866  0.0224 -1.6605 -0.0317
  885MOL0     H19453   7.372  10.615  10.009  0.1064 -0.9807 -0.7445
  885MOL0     H19454   7.430  10.465   9.946 -2.3904  0.6408 -0.3741
  885MOL0     H19455   7.451  10.680   9.741 -0.4823  0.1676  0.2284
  885MOL0     H19456   7.290  10.663   9.796  0.4940  1.1804  0.2288
  885MOL0     H19457   7.929  10.262   9.567 -0.3813  1.0074  1.0382
  885MOL0     H19458   8.081  10.149   9.388  1.5988 -0.0933 -0.0740
  885MOL0     H19459   8.487   9.850   9.427  0.1388  1.4166 -0.9605
  885MOL0     H19460   8.644   9.703   9.334  1.1857 -2.1517 -1.2484
  885MOL0     H19461  10.387   9.309   9.668  1.4330 -0.6476 -0.3275
  885MOL0     H19462  10.629   9.413   9.688  0.7147  2.0899  0.8823
  885MOL0     H19463  10.881   9.799   9.642 -0.8216  1.3540 -0.3744
  885MOL0     H19464  11.108   9.860   9.622  0.0761 -0.5524 -0.6966
  885MOL0     H19465  11.239  10.041   9.471  0.4509  0.3193 -2.0009
  885MOL0     H19466  11.312   9.920   9.580  2.6700 -1.1964 -0.4071
  885MOL0     H19467  11.468  10.096   9.489  0.5305 -1.2022  1.6884
  885MOL0     H19468  11.430  10.039   9.322 -0.0603 -1.0924  0.3996
  885MOL0     H19469  11.538   9.844   9.349  0.5037 -0.3417 -0.6513
  885MOL0     H19470  11.538   9.850   9.531  0.3673 -0.7659 -0.6509
  885MOL0     H19471  11.710  10.015   9.538 -0.0454  0.6921  0.9783
  885MOL0     H19472  11.697  10.053   9.366 -0.0558 -1.3550 -1.6586
  885MOL0     H19473  11.945   9.689   9.379  2.2794  1.5502 -4.1457
  885MOL0     H19474  11.145   9.710   9.226  2.0115  1.3270  0.7590
  885MOL0     H19475  10.905   9.603   9.266 -0.9645 -1.5045  3.1288
  886MOL0     O19476   9.377   6.986   5.727  0.3975  0.8089  0.1954
  886MOL0     C19477   9.424   7.096   5.746 -0.8282 -0.3451 -0.7514
  886MOL0     O19478   9.355   7.206   5.772  0.5319  0.2544  0.9474
  886MOL0     C19479   9.219   7.221   5.747 -0.7612  0.3557 -0.7965
  886MOL0     C19480   9.138   7.141   5.664  0.4345 -0.1688  0.5634
  886MOL0     C19481   9.001   7.164   5.647  0.0806  0.3347  0.3358
  886MOL0     C19482   8.943   7.273   5.709 -0.3689 -0.2015 -0.3510
  886MOL0     O19483   8.807   7.295   5.702 -0.9010  0.0189  0.0524
  886MOL0     C19484   8.736   7.221   5.600 -0.7896 -0.3551 -0.3260
  886MOL0     C19485   8.586   7.232   5.607  0.5917  0.2953 -0.5707
  886MOL0     C19486   8.519   7.193   5.478  0.7505  0.4736 -0.7527
  886MOL0     C19487   8.353   7.209   5.481 -0.4895  0.0416 -0.9905
  886MOL0     C19488   8.287   7.135   5.366 -0.5672 -0.2474 -0.4207
  886MOL0     C19489   8.129   7.157   5.363 -0.5688 -0.2738  0.4473
  886MOL0     C19490   8.095   7.307   5.334 -0.4569 -0.2165  0.1533
  886MOL0     C19491   7.972   7.317   5.249 -0.3733  0.3612  0.2881
  886MOL0     N19492   7.849   7.264   5.296 -0.4616  0.5204 -0.6139
  886MOL0     C19493   7.782   7.303   5.409 -0.4047  0.7150 -0.6256
  886MOL0     C19494   7.666   7.231   5.403 -0.1199 -0.7617  0.2971
  886MOL0     C19495   7.554   7.228   5.500 -0.0635 -0.1981 -0.4141
  886MOL0     C19496   7.450   7.343   5.489 -0.2496  0.0281 -0.1120
  886MOL0     C19497   7.342   7.319   5.380 -0.5650 -0.0423  0.0074
  886MOL0     C19498   7.237   7.432   5.380  0.0033 -0.6333 -0.2169
  886MOL0     O19499   7.119   7.400   5.465  1.1601 -0.8490 -0.1754
  886MOL0     C19500   7.023   7.497   5.481  0.4378  0.0743  0.0146
  886MOL0     C19501   6.962   7.566   5.375  0.7032  0.5700  0.1134
  886MOL0     C19502   6.848   7.633   5.396 -0.3917  0.2019  0.1448
  886MOL0     C19503   6.785   7.692   5.272 -0.3309 -1.2304 -0.3748
  886MOL0     C19504   6.792   7.650   5.521 -0.8004  1.2220 -0.9304
  886MOL0     C19505   6.670   7.727   5.549 -0.4667 -0.7242 -0.0442
  886MOL0     O19506   6.557   7.680   5.480  0.4487 -0.0356  0.4337
  886MOL0     C19507   6.446   7.766   5.487  0.0277 -0.3851  1.0998
  886MOL0     C19508   6.341   7.731   5.566  0.0100 -0.6237 -0.2264
  886MOL0     C19509   6.250   7.823   5.619 -0.2296  0.5325  0.7710
  886MOL0     C19510   6.258   7.960   5.573  0.8096  0.2578  0.3959
  886MOL0     O19511   6.169   8.052   5.625 -0.0399  0.2355 -0.0923
  886MOL0     C19512   6.084   8.121   5.531  0.2318  1.0627 -0.2580
  886MOL0     C19513   5.941   8.141   5.587  0.3697 -0.1604  0.2449
  886MOL0     C19514   5.858   8.227   5.490  0.3470  0.3104  0.3436
  886MOL0     C19515   5.717   8.251   5.555 -0.1066 -0.4763  0.3463
  886MOL0     C19516   5.608   8.288   5.441  0.6677  0.2913 -0.4720
  886MOL0     C19517   5.476   8.335   5.506 -0.4900 -0.7590  0.4306
  886MOL0     C19518   5.392   8.217   5.550  0.1053 -0.5829  0.1635
  886MOL0     C19519   5.246   8.258   5.573  0.5568 -0.1434 -0.3229
  886MOL0    Cl19520   5.233   8.361   5.727  0.1707  0.2283  0.3269
  886MOL0     C19521   6.343   7.991   5.462 -0.5548 -0.4868  0.3190
  886MOL0     C19522   6.441   7.895   5.420 -0.0697 -0.8795  0.3756
  886MOL0     O19523   6.681   7.816   5.642 -0.1710 -0.0650  0.2217
  886MOL0     C19524   6.862   7.591   5.632 -0.5280 -0.6673 -0.7364
  886MOL0     C19525   6.974   7.515   5.608  0.3167  0.3022  0.5210
  886MOL0     N19526   7.665   7.160   5.287  0.7343  0.0241 -0.2699
  886MOL0     N19527   7.772   7.176   5.224  0.1714  0.1077 -0.4852
  886MOL0     C19528   9.019   7.343   5.802  0.5107 -0.1033 -0.0396
  886MOL0     C19529   9.161   7.326   5.811  0.9671 -0.0119 -1.0774
  886MOL0     C19530   9.574   7.102   5.746 -0.1539 -0.8884  0.5387
  886MOL0     C19531   9.634   7.227   5.776 -0.0772 -0.4062  0.2663
  886MOL0     C19532   9.774   7.241   5.770 -0.4553  0.9865  0.0376
  886MOL0     C19533   9.855   7.140   5.720  0.4694 -0.0517  0.0342
  886MOL0     O19534   9.982   7.162   5.672  0.1580  0.0895 -0.0831
  886MOL0     C19535  10.074   7.165   5.781  0.0585  0.3429 -0.6404
  886MOL0     C19536  10.220   7.165   5.752 -0.7672  0.1921  0.1401
  886MOL0     C19537  10.305   7.202   5.871  0.3135 -0.0482  0.6739
  886MOL0     C19538  10.455   7.171   5.833  0.0277 -0.0130 -0.0639
  886MOL0     C19539  10.545   7.216   5.944 -0.3844  0.7003  0.4504
  886MOL0     C19540  10.619   7.252   6.030  0.1154 -0.6815 -0.6533
  886MOL0     C19541   9.799   7.019   5.690 -0.2142 -0.1682  0.2580
  886MOL0     C19542   9.659   6.994   5.711 -0.1840  0.0273 -0.0087
  886MOL0     H19543   9.188   7.061   5.610  2.8000  0.3579  1.8267
  886MOL0     H19544   8.951   7.100   5.575  0.6106 -0.5882  0.7727
  886MOL0     H19545   8.780   7.245   5.503  2.1100 -3.6945 -0.0306
  886MOL0     H19546   8.754   7.115   5.620 -1.2890 -0.5859 -1.0160
  886MOL0     H19547   8.556   7.169   5.692 -1.2464  1.2099 -0.4974
  886MOL0     H19548   8.555   7.331   5.643 -0.5286 -0.2520  0.0427
  886MOL0     H19549   8.566   7.249   5.397  0.4541 -1.5114 -2.3999
  886MOL0     H19550   8.545   7.087   5.463 -0.4710  0.0616 -0.0943
  886MOL0     H19551   8.310   7.176   5.576  1.7764 -0.0931  0.0816
  886MOL0     H19552   8.321   7.313   5.468  0.9567  0.2395 -3.5782
  886MOL0     H19553   8.330   7.161   5.269  1.0414 -0.9111  0.0815
  886MOL0     H19554   8.298   7.027   5.376 -1.0860 -0.2613  0.0539
  886MOL0     H19555   8.093   7.092   5.283 -0.2481 -1.4088  1.1962
  886MOL0     H19556   8.086   7.132   5.460  1.2202  0.8343  1.5747
  886MOL0     H19557   8.082   7.376   5.418 -2.8482  0.7778 -0.9228
  886MOL0     H19558   8.178   7.350   5.276 -0.6630 -1.0125 -0.7492
  886MOL0     H19559   8.003   7.277   5.152  5.7396 -2.6450  2.9135
  886MOL0     H19560   7.958   7.425   5.246  0.2217  0.4516  0.6744
  886MOL0     H19561   7.816   7.367   5.490  0.0705 -1.3673  0.9054
  886MOL0     H19562   7.508   7.128   5.496 -3.0497  1.1041 -2.8282
  886MOL0     H19563   7.598   7.243   5.599 -0.6710 -2.8545  0.3639
  886MOL0     H19564   7.502   7.438   5.482  2.5750 -1.3757  0.5303
  886MOL0     H19565   7.382   7.327   5.574 -1.3548  0.5741 -0.8809
  886MOL0     H19566   7.312   7.216   5.401  0.7370  0.1199  3.2409
  886MOL0     H19567   7.397   7.320   5.285 -0.1618  1.3555  0.2296
  886MOL0     H19568   7.211   7.431   5.274  4.1101  0.8362 -1.3931
  886MOL0     H19569   7.272   7.535   5.393  0.4433 -1.0544  2.5759
  886MOL0     H19570   7.001   7.543   5.277  1.0393 -1.1624  0.6259
  886MOL0     H19571   6.704   7.632   5.230 -1.7314  0.4567 -0.1693
  886MOL0     H19572   6.760   7.797   5.288  0.2488 -1.0248 -0.7715
  886MOL0     H19573   6.861   7.704   5.194 -0.7925  0.5694 -0.5868
  886MOL0     H19574   6.355   7.634   5.612  0.2761 -0.2454  0.5108
  886MOL0     H19575   6.172   7.796   5.689  1.7071 -0.0440  2.8063
  886MOL0     H19576   6.140   8.213   5.509  1.3320  0.9259  1.7272
  886MOL0     H19577   6.080   8.069   5.434 -0.0318 -1.1451  0.8741
  886MOL0     H19578   5.888   8.047   5.600  0.4123 -0.4830 -1.6359
  886MOL0     H19579   5.952   8.191   5.684  0.8032  1.6646 -0.6932
  886MOL0     H19580   5.851   8.185   5.389  0.7731  0.8302  0.0898
  886MOL0     H19581   5.904   8.327   5.481  0.3052  0.3165  0.1982
  886MOL0     H19582   5.688   8.167   5.619 -0.8202 -0.3422  0.2064
  886MOL0     H19583   5.719   8.340   5.618 -1.1045  0.5780 -1.0319
  886MOL0     H19584   5.592   8.198   5.381  0.4847  0.2640 -0.3826
  886MOL0     H19585   5.648   8.364   5.374  2.7026 -1.7725 -1.7188
  886MOL0     H19586   5.482   8.402   5.592 -2.1784 -1.4931  1.1585
  886MOL0     H19587   5.422   8.387   5.426  0.7958 -0.9022 -0.5669
  886MOL0     H19588   5.423   8.172   5.645 -1.4913  5.0904  3.9287
  886MOL0     H19589   5.390   8.161   5.457 -0.1297  2.7642 -2.0326
  886MOL0     H19590   5.179   8.174   5.592 -0.1735  0.4043 -0.4241
  886MOL0     H19591   5.207   8.316   5.489 -1.1825 -1.0797 -0.2174
  886MOL0     H19592   6.358   8.086   5.412  1.8074 -0.0787  1.6596
  886MOL0     H19593   6.517   7.918   5.346 -3.6962  0.0721 -3.4177
  886MOL0     H19594   6.826   7.601   5.734 -1.9462  1.0626 -1.3528
  886MOL0     H19595   7.017   7.457   5.689  0.5030  0.0028  0.2119
  886MOL0     H19596   8.974   7.418   5.867 -1.7200 -0.9918 -0.4618
  886MOL0     H19597   9.213   7.386   5.886  0.9873 -1.0977 -0.1950
  886MOL0     H19598   9.571   7.312   5.801 -2.1734 -2.4343  2.4711
  886MOL0     H19599   9.821   7.334   5.800 -2.6461  1.8729  1.0114
  886MOL0     H19600  10.066   7.252   5.847  2.1499  1.7910 -2.1424
  886MOL0     H19601  10.051   7.075   5.838 -4.6466 -0.2213 -3.0042
  886MOL0     H19602  10.243   7.225   5.663 -1.5642 -2.1493 -1.7581
  886MOL0     H19603  10.250   7.065   5.722 -3.6310 -0.6623 -0.0850
  886MOL0     H19604  10.269   7.147   5.958 -2.6212 -0.2883 -0.5868
  886MOL0     H19605  10.294   7.308   5.895  0.5257  0.6928 -2.1367
  886MOL0     H19606  10.488   7.222   5.741 -1.1518  0.4741 -0.2390
  886MOL0     H19607  10.461   7.062   5.835  1.4279  0.0147 -1.0209
  886MOL0     H19608  10.674   7.310   6.102 -1.4041  0.3509 -0.2844
  886MOL0     H19609   9.869   6.945   5.654  0.1934  1.8301 -3.5161
  886MOL0     H19610   9.635   6.889   5.705  1.2139 -0.5400  2.8398
  887MOL0     O19611   5.818  11.323   8.284 -0.4692  0.1581  0.4891
  887MOL0     C19612   5.869  11.290   8.177 -0.5470  0.0177 -0.1910
  887MOL0     O19613   5.808  11.297   8.052  0.1299 -0.3978 -0.3126
  887MOL0     C19614   5.673  11.322   8.056  0.6504  0.5881  1.0267
  887MOL0     C19615   5.627  11.450   8.044  0.4897  0.1883 -0.4087
  887MOL0     C19616   5.491  11.481   8.031  0.5783  0.4645 -0.5573
  887MOL0     C19617   5.400  11.367   8.031  0.0268 -0.3790 -0.0618
  887MOL0     O19618   5.264  11.362   8.020 -0.4254  0.3995 -0.0015
  887MOL0     C19619   5.202  11.459   7.938 -0.4125 -0.8226 -0.0079
  887MOL0     C19620   5.050  11.443   7.918  0.4717  0.8960  0.1457
  887MOL0     C19621   5.014  11.288   7.918  0.8685  0.9067  0.3973
  887MOL0     C19622   4.890  11.260   7.828  0.5024  0.2471  0.5568
  887MOL0     C19623   4.763  11.317   7.881  0.7763 -1.0530  0.1673
  887MOL0     C19624   4.699  11.227   7.991  0.1113  0.3439 -0.6796
  887MOL0     C19625   4.629  11.307   8.100 -0.5015 -0.0762 -0.3590
  887MOL0     C19626   4.599  11.224   8.231  0.3763  0.4442  0.0657
  887MOL0     N19627   4.528  11.306   8.326  0.4112  0.2039 -0.5760
  887MOL0     C19628   4.393  11.319   8.359  0.2213  0.3711  0.0975
  887MOL0     C19629   4.388  11.403   8.465 -0.5699 -0.0460 -0.7509
  887MOL0     C19630   4.265  11.430   8.554  0.3983  0.1526 -0.3835
  887MOL0     C19631   4.142  11.466   8.472  0.6690 -0.5691 -0.0179
  887MOL0     C19632   4.045  11.535   8.571 -0.5921 -0.6947  0.5094
  887MOL0     C19633   3.898  11.520   8.533 -0.0325 -0.7787  0.2767
  887MOL0     O19634   3.845  11.388   8.543  0.6292 -0.0586  0.5218
  887MOL0     C19635   3.709  11.382   8.558 -0.5720  0.2693 -0.4044
  887MOL0     C19636   3.621  11.487   8.553  1.3942  0.1867 -0.0332
  887MOL0     C19637   3.480  11.475   8.564 -1.0555  0.1449 -0.7155
  887MOL0     C19638   3.398  11.594   8.565 -0.3968 -0.6189 -0.1752
  887MOL0     C19639   3.433  11.342   8.579  0.5746 -0.5216 -0.7442
  887MOL0     C19640   3.283  11.313   8.600 -0.3073  0.8226 -0.1409
  887MOL0     O19641   3.197  11.411   8.647  0.2078  0.1187  0.4336
  887MOL0     C19642   3.068  11.373   8.670  0.2720 -0.0761  0.8979
  887MOL0     C19643   3.034  11.276   8.765  0.1750  0.1767  0.8368
  887MOL0     C19644   2.909  11.224   8.774  0.4573 -0.1047 -0.7592
  887MOL0     C19645   2.802  11.289   8.698 -0.7943 -0.3221 -0.4881
  887MOL0     O19646   2.675  11.240   8.713 -0.4249 -0.5068 -0.3051
  887MOL0     C19647   2.568  11.322   8.661 -0.4453  0.7323  0.5714
  887MOL0     C19648   2.441  11.258   8.710  0.8894  0.7382 -0.3282
  887MOL0     C19649   2.420  11.113   8.664  0.0985  0.0412 -0.6193
  887MOL0     C19650   2.285  11.052   8.693 -0.1311 -0.0331 -0.0048
  887MOL0     C19651   2.273  10.906   8.662  0.0528 -0.4977  0.3719
  887MOL0     C19652   2.174  10.827   8.751  0.6084 -0.0973 -0.2239
  887MOL0     C19653   2.037  10.887   8.731 -0.0288  0.0885 -0.4311
  887MOL0     C19654   1.938  10.810   8.822  0.4638  0.1639 -0.0224
  887MOL0    Cl19655   1.901  10.657   8.739  0.2059 -0.0658 -0.5698
  887MOL0     C19656   2.839  11.401   8.619  1.1010  0.1400 -0.5173
  887MOL0     C19657   2.968  11.433   8.603 -0.3084 -0.3693 -0.1551
  887MOL0     O19658   3.253  11.193   8.596 -0.0792 -0.6535 -0.3879
  887MOL0     C19659   3.523  11.231   8.592  0.3911  0.3430 -0.0398
  887MOL0     C19660   3.660  11.256   8.579  0.2694  0.0289  0.4669
  887MOL0     N19661   4.516  11.428   8.499 -1.0533  0.1517 -0.0169
  887MOL0     N19662   4.600  11.377   8.419 -0.1738  0.7117 -0.3115
  887MOL0     C19663   5.448  11.233   8.051 -1.2514 -0.5465 -0.1782
  887MOL0     C19664   5.583  11.214   8.064  0.2441 -1.0057  0.2802
  887MOL0     C19665   6.021  11.268   8.183 -0.5012  0.2820  0.1742
  887MOL0     C19666   6.080  11.271   8.309 -0.5961  0.3815  0.8912
  887MOL0     C19667   6.219  11.244   8.316  0.0069 -0.1159  0.2635
  887MOL0     C19668   6.298  11.217   8.200 -0.3197  0.7446 -0.3688
  887MOL0     O19669   6.426  11.189   8.221  0.2704  0.4353 -0.2047
  887MOL0     C19670   6.507  11.133   8.115  0.8977  0.1413 -0.2109
  887MOL0     C19671   6.628  11.070   8.189 -0.0424  0.4373  0.3713
  887MOL0     C19672   6.720  11.018   8.077  0.5404  0.4027 -0.0876
  887MOL0     C19673   6.834  10.922   8.135 -0.3669  0.7251 -0.0105
  887MOL0     C19674   6.958  10.998   8.171  0.3704  0.1551  0.1270
  887MOL0     C19675   7.056  11.051   8.213 -0.7846 -1.3114 -0.2203
  887MOL0     C19676   6.227  11.216   8.076  0.0596 -0.9778 -0.1304
  887MOL0     C19677   6.095  11.246   8.066  0.0998 -0.2796  0.6614
  887MOL0     H19678   5.701  11.529   8.041  0.0257  0.7688  1.6010
  887MOL0     H19679   5.462  11.585   8.018  5.6374  2.9071  3.6438
  887MOL0     H19680   5.220  11.553   7.991 -0.1836 -2.1000  2.3289
  887MOL0     H19681   5.238  11.467   7.835 -2.0588 -0.5906 -0.5914
  887MOL0     H19682   4.999  11.492   8.002 -1.9861 -1.3842  0.1061
  887MOL0     H19683   5.013  11.500   7.832  1.7100  2.5825  0.6580
  887MOL0     H19684   5.101  11.239   7.873  0.2474 -0.9124  1.0851
  887MOL0     H19685   5.004  11.242   8.017  1.0274 -1.8536 -0.7715
  887MOL0     H19686   4.900  11.297   7.726 -0.9811 -3.6591 -1.2191
  887MOL0     H19687   4.876  11.152   7.823  0.2941  0.2712  0.6046
  887MOL0     H19688   4.779  11.424   7.901  0.3631 -1.5148  3.5007
  887MOL0     H19689   4.690  11.317   7.800  1.5091 -1.0792 -0.5054
  887MOL0     H19690   4.640  11.142   7.956 -1.0160  1.6441 -2.1010
  887MOL0     H19691   4.789  11.183   8.035 -0.5591 -1.4451 -1.0153
  887MOL0     H19692   4.700  11.388   8.122  1.1124 -0.8656 -2.3444
  887MOL0     H19693   4.535  11.353   8.070 -0.4363 -1.3529 -2.7590
  887MOL0     H19694   4.697  11.188   8.264 -0.3289 -1.9767 -0.2415
  887MOL0     H19695   4.540  11.135   8.205  1.5301 -0.2036 -0.4249
  887MOL0     H19696   4.310  11.265   8.314  0.3337  2.1316 -2.4724
  887MOL0     H19697   4.249  11.337   8.609  1.1624  0.8116  1.0097
  887MOL0     H19698   4.292  11.512   8.622  4.2591  0.4369 -1.9619
  887MOL0     H19699   4.092  11.386   8.417  1.8573  0.8134 -3.3783
  887MOL0     H19700   4.171  11.544   8.400  1.5504 -0.9830 -0.1130
  887MOL0     H19701   4.065  11.643   8.574 -0.3573 -0.7351  0.4366
  887MOL0     H19702   4.048  11.498   8.674 -4.3193  1.9996  1.8302
  887MOL0     H19703   3.878  11.549   8.429 -0.0846 -1.2226  0.1584
  887MOL0     H19704   3.850  11.589   8.602 -2.4492 -0.2361 -1.7945
  887MOL0     H19705   3.657  11.589   8.543  1.6675  0.7246  4.5008
  887MOL0     H19706   3.334  11.577   8.478 -0.8018 -2.5572  0.4553
  887MOL0     H19707   3.338  11.606   8.656 -0.3147 -1.8577  0.0599
  887MOL0     H19708   3.446  11.690   8.545 -1.1163  0.0471  1.1456
  887MOL0     H19709   3.111  11.242   8.833 -0.3747  0.0324  1.4013
  887MOL0     H19710   2.892  11.147   8.848 -1.7803  2.5600  1.7053
  887MOL0     H19711   2.578  11.425   8.698 -0.4984  1.0285 -0.2247
  887MOL0     H19712   2.567  11.329   8.552 -1.5134  1.5114  0.6178
  887MOL0     H19713   2.423  11.262   8.818  1.1165  3.1733 -0.3193
  887MOL0     H19714   2.364  11.316   8.659  1.3641 -0.4637 -2.5388
  887MOL0     H19715   2.486  11.040   8.713 -1.6486  0.4055  2.5531
  887MOL0     H19716   2.445  11.115   8.558  2.4394  2.0977 -0.1196
  887MOL0     H19717   2.273  11.065   8.800  1.0074 -0.9627  0.2590
  887MOL0     H19718   2.206  11.113   8.649 -0.3789  0.5050  1.1643
  887MOL0     H19719   2.375  10.867   8.671  0.2140 -0.5755 -1.4261
  887MOL0     H19720   2.249  10.896   8.555 -1.0003 -0.2496  0.5713
  887MOL0     H19721   2.181  10.724   8.715  2.4091  0.2755 -1.0059
  887MOL0     H19722   2.205  10.840   8.855  1.8058 -1.4450 -0.3868
  887MOL0     H19723   2.017  10.866   8.626 -1.6273 -2.9690  0.3536
  887MOL0     H19724   2.055  10.989   8.766  3.1186  0.2411 -2.1050
  887MOL0     H19725   1.844  10.866   8.826  0.2454 -0.0022 -1.8551
  887MOL0     H19726   1.987  10.788   8.918 -1.9826  1.5288  1.6392
  887MOL0     H19727   2.761  11.455   8.566  1.6988  0.7109 -0.8357
  887MOL0     H19728   2.988  11.526   8.551 -2.2765  0.5883  0.6647
  887MOL0     H19729   3.492  11.129   8.608  0.7145  0.0779 -1.0175
  887MOL0     H19730   3.722  11.167   8.575  1.1035  0.5400  1.5486
  887MOL0     H19731   5.377  11.152   8.060 -0.5979 -1.0505  0.6116
  887MOL0     H19732   5.626  11.115   8.059  1.8274 -0.3764  0.8240
  887MOL0     H19733   6.038  11.294   8.407  2.7922 -0.9203  2.8324
  887MOL0     H19734   6.266  11.253   8.413 -0.1996 -0.6490  0.4112
  887MOL0     H19735   6.450  11.055   8.062  1.1758  0.2072 -0.6099
  887MOL0     H19736   6.542  11.221   8.061  1.0683  0.9200  1.1196
  887MOL0     H19737   6.600  10.981   8.246  0.5889 -0.3354 -0.5071
  887MOL0     H19738   6.671  11.146   8.255  1.7292 -0.3874  0.2336
  887MOL0     H19739   6.765  11.106   8.031  1.1340  0.8973  1.3885
  887MOL0     H19740   6.665  10.971   7.994 -1.1277  2.1384 -0.0267
  887MOL0     H19741   6.859  10.852   8.054 -2.4109 -0.0903  0.0004
  887MOL0     H19742   6.788  10.866   8.217 -0.8493  0.4027 -0.4903
  887MOL0     H19743   7.153  11.089   8.239 -0.2339 -1.0038 -2.4872
  887MOL0     H19744   6.279  11.193   7.983 -0.3831 -2.7160  0.0159
  887MOL0     H19745   6.052  11.249   7.966  3.3096 -2.0235 -0.9254
  888MOL0     O19746   5.323   9.959   5.267 -0.3992  0.3106 -0.0482
  888MOL0     C19747   5.373   9.856   5.309 -0.4566 -0.5507 -0.5632
  888MOL0     O19748   5.306   9.761   5.373 -0.2898  0.1054 -0.0678
  888MOL0     C19749   5.183   9.782   5.427 -0.3551 -0.6924 -0.3002
  888MOL0     C19750   5.154   9.767   5.563  0.3285  0.2938 -0.9439
  888MOL0     C19751   5.029   9.807   5.607 -0.2121 -0.1900 -0.1525
  888MOL0     C19752   4.930   9.865   5.529 -0.7984 -0.5498 -1.0124
  888MOL0     O19753   4.813   9.902   5.589 -0.1068 -0.1223 -0.2227
  888MOL0     C19754   4.697   9.913   5.503 -0.7017 -0.3943 -0.1793
  888MOL0     C19755   4.680  10.051   5.436  0.3520  0.0258 -0.2692
  888MOL0     C19756   4.555  10.059   5.351  0.3269 -0.5032 -0.6387
  888MOL0     C19757   4.434  10.057   5.446  0.3609 -0.5979 -0.5136
  888MOL0     C19758   4.302  10.106   5.386 -0.7400 -0.0428 -0.2942
  888MOL0     C19759   4.188  10.066   5.490  0.0235  0.6694  0.3834
  888MOL0     C19760   4.053  10.122   5.438 -0.1267 -0.3983 -0.1136
  888MOL0     C19761   3.938  10.074   5.536  0.0094 -0.9656  0.0618
  888MOL0     N19762   3.806  10.128   5.515 -0.1179  0.1858  0.2180
  888MOL0     C19763   3.772  10.259   5.486 -0.0844  0.9736 -0.0444
  888MOL0     C19764   3.637  10.242   5.455 -0.4521 -0.5098  0.9483
  888MOL0     C19765   3.548  10.342   5.387  0.4454 -0.9610 -0.7078
  888MOL0     C19766   3.462  10.425   5.482  0.5578  0.2499 -1.1976
  888MOL0     C19767   3.348  10.495   5.412 -0.3576 -0.4804 -1.2503
  888MOL0     C19768   3.224  10.405   5.394 -0.3815 -0.3638 -0.1995
  888MOL0     O19769   3.242  10.309   5.292 -0.1920 -0.4777  0.9815
  888MOL0     C19770   3.136  10.305   5.204  0.5531 -1.1148  0.2765
  888MOL0     C19771   3.008  10.273   5.244 -0.0738 -0.0002 -0.2502
  888MOL0     C19772   2.901  10.311   5.163  0.3308  0.3403  0.8404
  888MOL0     C19773   2.760  10.281   5.222 -0.9848 -0.4711  0.2599
  888MOL0     C19774   2.919  10.363   5.033  0.5445 -0.4737 -0.9338
  888MOL0     C19775   2.802  10.400   4.944  0.2121 -0.2601 -0.3480
  888MOL0     O19776   2.838  10.478   4.841 -0.4833 -0.1810  0.0889
  888MOL0     C19777   2.734  10.536   4.772  0.4039 -0.5163 -0.3112
  888MOL0     C19778   2.696  10.493   4.643 -0.1823 -0.5681 -1.0874
  888MOL0     C19779   2.577  10.554   4.582 -0.4071 -0.4518 -0.2918
  888MOL0     C19780   2.505  10.658   4.648  0.0396  0.1516 -0.0478
  888MOL0     O19781   2.402  10.715   4.578  0.3197 -0.5625  0.8272
  888MOL0     C19782   2.360  10.844   4.628  0.4283 -0.8346  0.7436
  888MOL0     C19783   2.274  10.913   4.525  0.5983  0.1151  0.9350
  888MOL0     C19784   2.151  10.837   4.480 -0.2596 -0.1467  0.1059
  888MOL0     C19785   2.060  10.821   4.604 -0.0724 -0.0709  0.2061
  888MOL0     C19786   1.954  10.716   4.572  0.6545  0.2012 -0.4945
  888MOL0     C19787   1.852  10.699   4.686 -0.3956 -0.9508  0.1654
  888MOL0     C19788   1.740  10.611   4.642 -0.2705 -0.3743 -0.8573
  888MOL0     C19789   1.616  10.627   4.740 -0.1171 -0.0728  0.5850
  888MOL0    Cl19790   1.477  10.525   4.681  0.1023 -0.4585  0.2668
  888MOL0     C19791   2.544  10.688   4.778 -0.0580 -0.2341 -0.6568
  888MOL0     C19792   2.660  10.641   4.833 -0.4912 -0.1715  1.1856
  888MOL0     O19793   2.698  10.344   4.950 -0.3333  0.2382  0.0510
  888MOL0     C19794   3.050  10.388   4.991 -0.2575 -0.0306  0.5064
  888MOL0     C19795   3.155  10.356   5.075  0.1215 -0.5553  0.3638
  888MOL0     N19796   3.595  10.119   5.488 -0.9388 -0.2788  0.1861
  888MOL0     N19797   3.695  10.045   5.522 -0.9379 -0.0330 -0.5882
  888MOL0     C19798   4.959   9.865   5.391  0.5782 -1.0599 -0.2070
  888MOL0     C19799   5.076   9.820   5.339  0.1516 -0.2296 -0.2277
  888MOL0     C19800   5.509   9.826   5.250  0.3000  0.2442 -0.2488
  888MOL0     C19801   5.597   9.922   5.188 -0.5395 -0.3877 -0.0234
  888MOL0     C19802   5.718   9.884   5.119 -0.6868  0.2934 -1.3140
  888MOL0     C19803   5.765   9.754   5.142  0.0583 -0.5523  0.3289
  888MOL0     O19804   5.875   9.701   5.084 -0.2378  0.3295 -0.0832
  888MOL0     C19805   5.946   9.768   4.973 -0.6936 -1.1332 -1.0158
  888MOL0     C19806   6.079   9.703   4.971 -0.1022  0.1956  0.0212
  888MOL0     C19807   6.071   9.563   4.908 -0.8978 -0.3126 -0.1847
  888MOL0     C19808   6.044   9.451   5.009  0.4483 -0.1339  0.2563
  888MOL0     C19809   5.992   9.331   4.934  0.0230  1.3179 -0.4116
  888MOL0     C19810   5.959   9.224   4.885 -0.0157  0.7099 -0.5586
  888MOL0     C19811   5.692   9.669   5.218 -1.2922 -0.9193  0.3385
  888MOL0     C19812   5.565   9.701   5.267  0.4528  0.5282  0.4288
  888MOL0     H19813   5.237   9.725   5.619  0.7743  1.1816 -0.9164
  888MOL0     H19814   5.009   9.783   5.710 -0.5520 -1.3856 -0.4824
  888MOL0     H19815   4.701   9.832   5.429 -1.0797 -0.7568  0.1894
  888MOL0     H19816   4.624   9.893   5.582  0.2285 -0.2818  0.7344
  888MOL0     H19817   4.684  10.131   5.511  0.0548 -3.4494  3.8483
  888MOL0     H19818   4.761  10.081   5.369 -0.3691 -1.8788 -2.1089
  888MOL0     H19819   4.572  10.154   5.300  0.7039  0.6716  1.5530
  888MOL0     H19820   4.548   9.978   5.278  0.4066 -1.0404 -0.0577
  888MOL0     H19821   4.421   9.952   5.473 -4.2212 -0.1113 -0.1511
  888MOL0     H19822   4.463  10.116   5.533  2.3419 -0.3623 -1.2811
  888MOL0     H19823   4.310  10.214   5.377 -1.8896  0.0622 -0.2066
  888MOL0     H19824   4.276  10.053   5.294 -2.3839  0.4202 -0.1380
  888MOL0     H19825   4.185   9.959   5.510 -1.8775  0.2410 -1.8247
  888MOL0     H19826   4.209  10.114   5.586 -1.1430  0.0253  0.9755
  888MOL0     H19827   4.063  10.229   5.416  0.5795 -0.6221 -0.9290
  888MOL0     H19828   4.039  10.066   5.345  0.5396  0.2832 -0.6337
  888MOL0     H19829   3.972  10.103   5.636 -2.3696 -2.0838  1.2937
  888MOL0     H19830   3.929   9.966   5.525  0.7666 -0.9148 -1.2103
  888MOL0     H19831   3.839  10.344   5.476  1.8437 -0.4383  0.3046
  888MOL0     H19832   3.608  10.416   5.334 -0.6160  1.0580  0.7871
  888MOL0     H19833   3.482  10.291   5.315 -1.3260  1.6299 -1.0642
  888MOL0     H19834   3.523  10.498   5.535 -0.7785  1.1986 -0.9239
  888MOL0     H19835   3.419  10.355   5.554  1.0533  2.2371  1.1496
  888MOL0     H19836   3.387  10.526   5.315  3.2812 -1.7605 -0.3958
  888MOL0     H19837   3.318  10.588   5.462  1.0294 -0.6664  0.0253
  888MOL0     H19838   3.148  10.482   5.377 -0.5985  0.1686  2.7615
  888MOL0     H19839   3.200  10.361   5.491  1.2381  2.8562  1.8292
  888MOL0     H19840   2.998  10.236   5.346 -1.4814 -2.3316 -1.1482
  888MOL0     H19841   2.708  10.221   5.147  1.7921  1.2621 -3.3732
  888MOL0     H19842   2.777  10.227   5.315 -0.4344 -0.5548  0.1155
  888MOL0     H19843   2.707  10.373   5.249 -0.2244 -1.3450  5.9951
  888MOL0     H19844   2.757  10.419   4.593  0.2682 -0.8611 -0.1449
  888MOL0     H19845   2.536  10.527   4.485 -1.0674  1.8520 -0.7288
  888MOL0     H19846   2.314  10.845   4.728  0.1711  0.9496  0.6386
  888MOL0     H19847   2.440  10.919   4.625  0.6868 -1.1150 -2.2391
  888MOL0     H19848   2.253  11.015   4.557  0.8162  0.1673  0.9149
  888MOL0     H19849   2.337  10.916   4.435 -1.8659  0.1711 -0.9134
  888MOL0     H19850   2.196  10.747   4.436  3.0717  1.4885 -0.1419
  888MOL0     H19851   2.094  10.897   4.409 -0.1698  1.7925  1.5722
  888MOL0     H19852   2.114  10.791   4.694  1.3357 -1.6409 -1.0732
  888MOL0     H19853   2.013  10.919   4.618 -2.7189 -1.5410  2.5114
  888MOL0     H19854   2.000  10.617   4.562 -1.1640 -0.6297 -1.0488
  888MOL0     H19855   1.915  10.741   4.473  2.2289 -0.0822 -1.2258
  888MOL0     H19856   1.899  10.660   4.777 -0.2337  1.0288  0.9884
  888MOL0     H19857   1.813  10.797   4.715 -0.1142 -0.0681 -2.2415
  888MOL0     H19858   1.770  10.507   4.650 -0.4754 -0.4664 -1.2632
  888MOL0     H19859   1.712  10.637   4.539 -0.4971  2.5905 -0.1637
  888MOL0     H19860   1.578  10.729   4.752 -0.8406 -0.1254 -0.9888
  888MOL0     H19861   1.654  10.590   4.836 -0.3596 -1.2596  0.2418
  888MOL0     H19862   2.492  10.760   4.840  0.6088 -2.6648  3.0457
  888MOL0     H19863   2.698  10.681   4.927  0.8598  0.4265  0.4155
  888MOL0     H19864   3.066  10.429   4.892 -2.0398 -0.4725  0.0073
  888MOL0     H19865   3.254  10.384   5.040  0.7682 -1.2718  1.5706
  888MOL0     H19866   4.885   9.894   5.318 -0.6385  0.3346  1.4999
  888MOL0     H19867   5.076   9.828   5.231 -1.0537 -1.3973 -0.3447
  888MOL0     H19868   5.568  10.026   5.186  0.7104 -0.0297 -0.2606
  888MOL0     H19869   5.788   9.947   5.064  1.6598 -0.6901  0.3478
  888MOL0     H19870   5.907   9.770   4.870 -1.4602  1.6647 -0.7445
  888MOL0     H19871   5.975   9.866   5.012 -0.6237 -1.3786 -0.4512
  888MOL0     H19872   6.120   9.702   5.073  0.7092  1.3597 -0.2763
  888MOL0     H19873   6.157   9.763   4.923 -0.6464  2.0021  1.2967
  888MOL0     H19874   6.159   9.543   4.845  1.4328  0.7992  2.5452
  888MOL0     H19875   5.996   9.555   4.828 -1.0369 -0.6057 -0.0289
  888MOL0     H19876   5.971   9.487   5.083  1.0607 -1.0878  1.3566
  888MOL0     H19877   6.134   9.421   5.063  1.9656 -0.9844 -2.5106
  888MOL0     H19878   5.933   9.132   4.837  1.3471  0.9352 -1.8045
  888MOL0     H19879   5.717   9.564   5.207  0.3018 -0.6103  0.8078
  888MOL0     H19880   5.505   9.622   5.311 -0.0759 -0.0189 -1.2113
  889MOL0     O19881   2.480   6.536   9.111 -0.3023  0.1085  0.3447
  889MOL0     C19882   2.573   6.591   9.054  0.0821  0.2540 -1.0308
  889MOL0     O19883   2.581   6.725   9.019  0.0298  0.2708 -0.0445
  889MOL0     C19884   2.490   6.828   9.024  0.5356  0.1957  0.6317
  889MOL0     C19885   2.351   6.809   9.055  0.2899 -0.3334 -0.5745
  889MOL0     C19886   2.260   6.922   9.061 -0.2251  0.3208  0.5206
  889MOL0     C19887   2.306   7.041   9.018  0.5920  0.1393  0.2936
  889MOL0     O19888   2.235   7.157   8.995 -0.1024  0.2721  0.6841
  889MOL0     C19889   2.089   7.157   9.013 -0.5047 -0.3041 -0.8120
  889MOL0     C19890   2.024   7.294   9.037  0.0532 -0.4769 -0.2338
  889MOL0     C19891   1.868   7.288   9.026  0.8733  0.7255 -0.3480
  889MOL0     C19892   1.805   7.178   9.128 -0.8918 -0.6018 -0.2733
  889MOL0     C19893   1.820   7.224   9.278  0.2919  0.2020  0.3787
  889MOL0     C19894   1.761   7.126   9.384 -0.2183  1.0772 -0.3649
  889MOL0     C19895   1.607   7.130   9.395  0.5984 -1.2471  0.0561
  889MOL0     C19896   1.565   7.237   9.494 -0.4607 -0.5114 -0.7965
  889MOL0     N19897   1.417   7.246   9.501  0.1820  0.1604  0.1143
  889MOL0     C19898   1.324   7.149   9.495 -0.1273  0.6943 -1.0042
  889MOL0     C19899   1.205   7.211   9.505  0.3556 -0.2914  1.0810
  889MOL0     C19900   1.073   7.135   9.498  0.0830 -0.3110 -0.0405
  889MOL0     C19901   0.944   7.221   9.479  0.2147  0.3723 -0.2959
  889MOL0     C19902   0.906   7.279   9.617  0.0837  0.3280 -0.6998
  889MOL0     C19903   0.773   7.349   9.622 -0.8186 -0.7951  0.0136
  889MOL0     O19904   0.668   7.256   9.613 -0.2927 -0.1521  0.0690
  889MOL0     C19905   0.550   7.291   9.664  0.1298  0.4404 -0.6489
  889MOL0     C19906   0.514   7.418   9.705 -0.2548 -0.5724  1.2851
  889MOL0     C19907   0.382   7.453   9.734 -0.1997  0.2070 -0.0297
  889MOL0     C19908   0.347   7.598   9.771  0.0813 -0.6725 -0.5964
  889MOL0     C19909   0.278   7.350   9.734 -0.2000 -0.4973 -0.1593
  889MOL0     C19910   0.130   7.372   9.759 -0.6448 -0.7813 -0.5102
  889MOL0     O19911   0.048   7.263   9.724  0.0263  0.6164 -0.2560
  889MOL0     C19912  -0.087   7.255   9.748  0.6935 -0.8758 -0.5777
  889MOL0     C19913  -0.155   7.317   9.854 -0.2312  0.6469  0.0655
  889MOL0     C19914  -0.288   7.297   9.877 -0.5588  0.5715  0.6600
  889MOL0     C19915  -0.362   7.206   9.793  0.4460 -0.0923 -0.5388
  889MOL0     O19916  -0.493   7.184   9.846 -0.2150 -0.0675  0.1741
  889MOL0     C19917  -0.590   7.172   9.740  0.5290  0.0394  0.5414
  889MOL0     C19918  -0.729   7.211   9.796 -0.3783  0.5105  0.3374
  889MOL0     C19919  -0.820   7.095   9.838 -0.3327  0.6631 -0.0274
  889MOL0     C19920  -0.958   7.138   9.885  0.6469 -0.5680  0.8460
  889MOL0     C19921  -1.038   7.007   9.934 -0.6955  0.8492 -0.0229
  889MOL0     C19922  -1.170   7.058   9.981 -0.1699 -0.3001  0.1179
  889MOL0     C19923  -1.260   6.963  10.057 -0.3610  0.7443  1.1064
  889MOL0     C19924  -1.311   6.850   9.968  0.0282  0.3085 -0.1776
  889MOL0    Cl19925  -1.425   6.746  10.061 -0.2115  0.4512  0.0180
  889MOL0     C19926  -0.299   7.144   9.686  0.3850  0.1525 -0.1812
  889MOL0     C19927  -0.164   7.161   9.672  0.6485 -0.3042 -0.6540
  889MOL0     O19928   0.096   7.469   9.824  0.5483 -0.2690  0.0821
  889MOL0     C19929   0.322   7.219   9.712  0.1682  0.1682  0.0637
  889MOL0     C19930   0.455   7.188   9.675 -0.1737 -0.0099 -0.0779
  889MOL0     N19931   1.220   7.345   9.499  0.0191  0.1857  0.1643
  889MOL0     N19932   1.346   7.368   9.499  0.2102  0.5084 -0.9420
  889MOL0     C19933   2.431   7.056   8.969  0.3492  0.2855 -1.0970
  889MOL0     C19934   2.523   6.954   8.971 -0.0989  1.1652  0.3239
  889MOL0     C19935   2.687   6.494   9.017 -0.2213  0.4150 -0.0866
  889MOL0     C19936   2.669   6.355   9.039  0.5631 -0.7451 -0.0439
  889MOL0     C19937   2.766   6.266   9.018  0.3136  0.1717  0.7175
  889MOL0     C19938   2.886   6.309   8.970  0.1594  0.0219 -1.3991
  889MOL0     O19939   3.001   6.233   8.951 -0.2653 -0.0805 -0.9121
  889MOL0     C19940   2.987   6.093   8.948  0.2123 -0.8911 -0.3301
  889MOL0     C19941   2.912   6.050   8.819 -0.6821 -0.0631  0.3162
  889MOL0     C19942   2.901   5.892   8.823  1.0133  0.1019 -0.1741
  889MOL0     C19943   2.791   5.833   8.908 -0.4788 -0.9937  0.9138
  889MOL0     C19944   2.851   5.766   9.023  0.5683 -0.5698 -0.1632
  889MOL0     C19945   2.877   5.714   9.129  0.2320  0.0088  0.0729
  889MOL0     C19946   2.910   6.450   8.939 -0.1822 -0.9492  1.0310
  889MOL0     C19947   2.809   6.542   8.961 -0.0934  0.6064  0.1873
  889MOL0     H19948   2.308   6.712   9.077  1.2591 -0.7882 -0.6734
  889MOL0     H19949   2.161   6.886   9.083 -0.1333  0.4818  1.2144
  889MOL0     H19950   2.055   7.119   8.916  0.7509 -0.6537 -1.1278
  889MOL0     H19951   2.054   7.090   9.092 -0.4717  1.8972  1.1647
  889MOL0     H19952   2.042   7.343   9.134  1.3103  1.2809 -1.2977
  889MOL0     H19953   2.064   7.367   8.966  0.0281  1.0434  1.2500
  889MOL0     H19954   1.826   7.389   9.037  1.8283  1.1322 -0.3138
  889MOL0     H19955   1.837   7.250   8.928 -1.3094  1.3403  0.0429
  889MOL0     H19956   1.698   7.163   9.110 -1.2904 -1.7926  2.6352
  889MOL0     H19957   1.848   7.078   9.124  0.3188 -0.3074  2.6992
  889MOL0     H19958   1.927   7.227   9.300  0.5397 -3.6647  0.3299
  889MOL0     H19959   1.779   7.325   9.289 -1.0633  0.0386 -2.4061
  889MOL0     H19960   1.798   7.026   9.360  3.2484  1.8127  1.3066
  889MOL0     H19961   1.796   7.145   9.486  3.0472  4.5170 -1.8812
  889MOL0     H19962   1.557   7.146   9.299  1.7337  0.4657 -0.2812
  889MOL0     H19963   1.556   7.039   9.431 -3.8968  1.1201  0.4628
  889MOL0     H19964   1.609   7.329   9.454  1.6284 -1.6292 -1.2348
  889MOL0     H19965   1.608   7.219   9.593 -0.1963 -0.6381 -0.9311
  889MOL0     H19966   1.340   7.042   9.492  1.2789  0.8361  0.2197
  889MOL0     H19967   1.074   7.081   9.403  1.2697 -0.0199 -0.2092
  889MOL0     H19968   1.063   7.063   9.580 -0.7542  1.4956  1.5117
  889MOL0     H19969   0.865   7.157   9.440  0.3965 -0.2170  0.2808
  889MOL0     H19970   0.965   7.297   9.403 -0.6698  0.9569  0.0339
  889MOL0     H19971   0.985   7.349   9.645  1.8792 -2.2800  1.1263
  889MOL0     H19972   0.903   7.202   9.694 -2.0349 -0.5653 -1.5965
  889MOL0     H19973   0.774   7.419   9.538  0.8982 -1.1544 -0.2936
  889MOL0     H19974   0.781   7.402   9.718  3.4627  1.1012 -1.1589
  889MOL0     H19975   0.586   7.497   9.689  1.4652 -2.5644 -1.9159
  889MOL0     H19976   0.270   7.645   9.709  0.8055 -1.0868 -1.8452
  889MOL0     H19977   0.326   7.602   9.879 -0.9585 -0.6089 -0.7832
  889MOL0     H19978   0.437   7.657   9.751  2.8959 -4.6351 -0.8077
  889MOL0     H19979  -0.095   7.372   9.925 -1.3504 -1.2725  2.6294
  889MOL0     H19980  -0.347   7.351   9.951 -3.7004 -0.4631 -0.9185
  889MOL0     H19981  -0.557   7.241   9.662 -1.2138 -0.4079 -0.6561
  889MOL0     H19982  -0.584   7.072   9.695  0.5049  0.3041 -0.0596
  889MOL0     H19983  -0.707   7.265   9.888  2.4376 -1.5926  1.0434
  889MOL0     H19984  -0.788   7.266   9.722 -2.3297 -1.2658  0.4954
  889MOL0     H19985  -0.764   7.033   9.909  1.1580  0.2072 -1.5325
  889MOL0     H19986  -0.836   7.033   9.750 -3.9778  3.1440 -1.3301
  889MOL0     H19987  -0.944   7.211   9.965  1.6867 -0.1036  0.2546
  889MOL0     H19988  -1.008   7.183   9.798  1.9882 -1.4571 -0.4383
  889MOL0     H19989  -0.985   6.956  10.015 -1.7508 -2.0788 -1.0511
  889MOL0     H19990  -1.045   6.936   9.851  0.6508  2.4144 -1.5617
  889MOL0     H19991  -1.149   7.147  10.041  2.6034 -0.3849 -0.5490
  889MOL0     H19992  -1.225   7.082   9.890 -1.5808 -3.0490  0.1308
  889MOL0     H19993  -1.351   7.015  10.087 -1.1944  2.5941 -3.6413
  889MOL0     H19994  -1.194   6.928  10.136  1.9174  1.1394 -0.4999
  889MOL0     H19995  -1.230   6.785   9.937 -0.9519 -0.1529 -1.8816
  889MOL0     H19996  -1.355   6.894   9.878 -1.2566  0.5952  0.5586
  889MOL0     H19997  -0.360   7.072   9.631 -2.6703  2.6270 -0.2752
  889MOL0     H19998  -0.108   7.090   9.611  2.0166  0.1201  0.0659
  889MOL0     H19999   0.243   7.144   9.710 -1.2604  1.5937  0.2591
  889MOL0     H20000   0.480   7.086   9.645  4.5017  0.7083  0.6379
  889MOL0     H20001   2.471   7.152   8.938  1.1278 -0.2939 -1.9190
  889MOL0     H20002   2.625   6.980   8.942  0.0777 -0.2652 -0.3977
  889MOL0     H20003   2.571   6.322   9.069  0.2565  0.0042 -0.2038
  889MOL0     H20004   2.748   6.160   9.035 -4.9267  0.1968 -2.3796
  889MOL0     H20005   3.087   6.048   8.956  1.4348  1.8964  1.8838
  889MOL0     H20006   2.937   6.052   9.036  0.1955  0.3934  0.2756
  889MOL0     H20007   2.959   6.082   8.726 -1.7913  1.3199  0.1927
  889MOL0     H20008   2.811   6.093   8.825 -0.4207  0.5369  0.5738
  889MOL0     H20009   2.997   5.854   8.858  0.7044  0.5510  1.1908
  889MOL0     H20010   2.863   5.863   8.724  0.0271 -1.4484  0.6339
  889MOL0     H20011   2.737   5.761   8.845  0.7256 -0.2354 -1.0854
  889MOL0     H20012   2.707   5.896   8.937 -0.7007  0.2297 -2.0504
  889MOL0     H20013   2.909   5.685   9.227 -0.0114 -2.0638 -0.4277
  889MOL0     H20014   3.010   6.483   8.911  0.8766 -3.3182  1.7809
  889MOL0     H20015   2.827   6.648   8.943 -0.0847  0.0637 -4.0299
  890MOL0     O20016   0.880   1.931   7.066 -0.1413  0.3247  0.2655
  890MOL0     C20017   0.953   1.832   7.074  0.0521 -0.0849  0.0444
  890MOL0     O20018   0.905   1.703   7.091  0.5043 -0.8543 -0.0216
  890MOL0     C20019   0.776   1.692   7.137 -0.1145  0.7918 -0.2681
  890MOL0     C20020   0.715   1.770   7.242 -0.5938  0.2081  0.2972
  890MOL0     C20021   0.585   1.747   7.285 -1.4322  0.4325 -0.6892
  890MOL0     C20022   0.517   1.634   7.239 -0.0072 -1.5763  0.5246
  890MOL0     O20023   0.378   1.624   7.275 -0.4233  0.0850 -0.4581
  890MOL0     C20024   0.329   1.491   7.293  0.2434 -0.5545  0.6918
  890MOL0     C20025   0.180   1.492   7.348  0.2154 -0.9394 -0.8714
  890MOL0     C20026   0.133   1.359   7.399 -0.5885 -0.1172 -0.3643
  890MOL0     C20027   0.108   1.252   7.287  0.5488  0.3880  0.5584
  890MOL0     C20028   0.116   1.109   7.350 -0.1420  0.4974  0.0364
  890MOL0     C20029   0.007   1.078   7.456 -0.2880 -0.2237 -0.0990
  890MOL0     C20030   0.027   0.930   7.511 -0.4071 -0.4315 -0.0126
  890MOL0     C20031  -0.064   0.905   7.628  0.0583 -0.0073  0.4611
  890MOL0     N20032  -0.210   0.910   7.603  0.6141  0.7696  0.3584
  890MOL0     C20033  -0.308   0.872   7.698 -0.5450 -0.2421  0.1366
  890MOL0     C20034  -0.417   0.848   7.620  0.4823  0.7065  0.2430
  890MOL0     C20035  -0.558   0.828   7.666  0.6151 -0.1347  0.1391
  890MOL0     C20036  -0.663   0.885   7.574  1.0899 -0.2250  0.3624
  890MOL0     C20037  -0.798   0.879   7.648 -0.4657  0.0374  0.0194
  890MOL0     C20038  -0.898   0.982   7.614  0.8278 -0.6656  0.0540
  890MOL0     O20039  -1.016   0.964   7.699  0.4008 -0.7916  0.0406
  890MOL0     C20040  -1.119   1.046   7.681  0.2967  0.3872 -0.5595
  890MOL0     C20041  -1.234   1.021   7.760  0.7556 -0.0045 -0.3228
  890MOL0     C20042  -1.359   1.085   7.747 -0.0650  0.4583  0.6661
  890MOL0     C20043  -1.463   1.045   7.850 -0.1516  0.0483  0.3525
  890MOL0     C20044  -1.371   1.178   7.641  0.4547  0.2281  0.1869
  890MOL0     C20045  -1.491   1.265   7.619 -0.3534  0.4717  0.8030
  890MOL0     O20046  -1.611   1.217   7.676 -0.7477  0.3031  0.1146
  890MOL0     C20047  -1.725   1.307   7.665 -0.1901 -0.0758  0.3448
  890MOL0     C20048  -1.720   1.435   7.715 -0.8449  0.4771  0.1225
  890MOL0     C20049  -1.842   1.510   7.724 -0.4572 -0.2653 -0.9574
  890MOL0     C20050  -1.960   1.460   7.662 -0.1451 -0.2510  0.2170
  890MOL0     O20051  -2.063   1.559   7.646 -0.4195  0.5306  0.2254
  890MOL0     C20052  -2.109   1.621   7.771  1.2590 -0.3676 -0.2178
  890MOL0     C20053  -2.259   1.652   7.743  0.6747  0.6319  0.1364
  890MOL0     C20054  -2.352   1.528   7.725 -0.2385  0.0225  0.0884
  890MOL0     C20055  -2.493   1.565   7.685  0.0514  0.2359  0.0303
  890MOL0     C20056  -2.570   1.607   7.812  0.5618 -0.5950  0.5308
  890MOL0     C20057  -2.544   1.748   7.850 -0.3428  0.2201  0.0869
  890MOL0     C20058  -2.672   1.827   7.871  0.7089 -0.2869 -0.1805
  890MOL0     C20059  -2.663   1.979   7.851 -0.5907 -0.1050  0.0199
  890MOL0    Cl20060  -2.563   2.056   7.983  0.4273 -0.0358 -0.1534
  890MOL0     C20061  -1.963   1.329   7.610 -0.8223 -0.5332 -0.0122
  890MOL0     C20062  -1.846   1.254   7.614  0.5042  0.3257 -0.4724
  890MOL0     O20063  -1.483   1.365   7.546 -0.2253 -0.6650  0.7164
  890MOL0     C20064  -1.262   1.204   7.567  0.3938  0.2861  0.7507
  890MOL0     C20065  -1.135   1.141   7.590 -1.0561 -0.9096  0.0899
  890MOL0     N20066  -0.381   0.872   7.487 -0.3792  0.3019 -0.4458
  890MOL0     N20067  -0.258   0.918   7.478  0.0322  0.6177 -0.1935
  890MOL0     C20068   0.573   1.552   7.138  0.2565 -0.4350  0.1836
  890MOL0     C20069   0.702   1.578   7.086  0.3804  0.4116  0.2192
  890MOL0     C20070   1.086   1.846   7.019  0.5109 -0.4256 -0.1008
  890MOL0     C20071   1.166   1.948   7.064 -0.5579 -0.0320 -0.8693
  890MOL0     C20072   1.299   1.961   7.021 -0.5050  0.2996  0.6284
  890MOL0     C20073   1.356   1.866   6.940 -0.5629 -0.5109  0.6154
  890MOL0     O20074   1.486   1.866   6.912  1.0000 -0.2910  0.2057
  890MOL0     C20075   1.522   1.814   6.777 -0.3693  0.3347 -0.4879
  890MOL0     C20076   1.663   1.857   6.740  0.3793  0.0675 -0.2937
  890MOL0     C20077   1.686   1.815   6.589 -0.4876 -0.6753  0.6197
  890MOL0     C20078   1.822   1.862   6.536  0.0650  0.2975 -0.1886
  890MOL0     C20079   1.931   1.784   6.595  0.1286  0.8494 -0.4256
  890MOL0     C20080   2.024   1.718   6.639  0.1491  0.1864  0.8595
  890MOL0     C20081   1.270   1.764   6.890  0.1756  0.3828  0.2228
  890MOL0     C20082   1.145   1.752   6.935  1.0882  0.1231 -1.1441
  890MOL0     H20083   0.768   1.854   7.283  0.8384 -1.0024  1.0196
  890MOL0     H20084   0.522   1.803   7.353 -1.8291  0.0686 -0.7465
  890MOL0     H20085   0.332   1.439   7.197  1.1168  1.1002 -0.2329
  890MOL0     H20086   0.389   1.433   7.364  1.2984  0.1171  0.3815
  890MOL0     H20087   0.185   1.555   7.437 -2.2761 -2.0601  0.1449
  890MOL0     H20088   0.112   1.539   7.275  0.5966  2.2595  0.6395
  890MOL0     H20089   0.218   1.327   7.460 -0.7062  2.1234  1.0466
  890MOL0     H20090   0.045   1.365   7.463 -1.3081 -3.0087 -0.9388
  890MOL0     H20091   0.015   1.254   7.229  0.2148  3.4939  1.0595
  890MOL0     H20092   0.186   1.274   7.213 -1.0970  1.1994 -0.9953
  890MOL0     H20093   0.100   1.034   7.271 -3.4441 -0.3376  1.3216
  890MOL0     H20094   0.212   1.097   7.402  0.0574 -0.4176 -0.5210
  890MOL0     H20095   0.022   1.145   7.541 -1.1117 -0.3539  0.1604
  890MOL0     H20096  -0.091   1.090   7.409  0.2466  0.7966 -0.9786
  890MOL0     H20097  -0.000   0.858   7.434 -3.1946  0.9484 -0.4291
  890MOL0     H20098   0.128   0.915   7.551  1.5745  1.7220 -3.6471
  890MOL0     H20099  -0.040   0.966   7.715 -0.0742  2.0079 -0.8515
  890MOL0     H20100  -0.045   0.800   7.654 -1.5460 -0.1980  0.9806
  890MOL0     H20101  -0.297   0.868   7.806 -0.4689 -1.3055  0.0942
  890MOL0     H20102  -0.558   0.719   7.670 -1.2628 -0.1391  2.2103
  890MOL0     H20103  -0.576   0.853   7.771 -3.6799 -1.5001 -0.0823
  890MOL0     H20104  -0.667   0.833   7.478  2.2305  0.5248 -0.1056
  890MOL0     H20105  -0.637   0.989   7.555 -0.1330  0.3559  1.6541
  890MOL0     H20106  -0.783   0.895   7.756 -0.5713 -1.4587  0.2780
  890MOL0     H20107  -0.839   0.780   7.626 -0.3692 -0.0956  0.4277
  890MOL0     H20108  -0.928   0.960   7.512 -1.6938  0.1666  0.5461
  890MOL0     H20109  -0.863   1.084   7.628  0.8487 -0.8151  1.2032
  890MOL0     H20110  -1.235   0.938   7.830 -1.9056 -0.9586 -1.3758
  890MOL0     H20111  -1.498   1.126   7.915 -1.0178  1.1362 -1.3760
  890MOL0     H20112  -1.546   1.002   7.793  0.3378  1.3745 -1.4585
  890MOL0     H20113  -1.426   0.973   7.924 -0.6572 -1.3447 -0.6918
  890MOL0     H20114  -1.632   1.478   7.762  2.1567 -2.9956 -1.7404
  890MOL0     H20115  -1.822   1.603   7.776 -0.2412 -1.6530  1.6208
  890MOL0     H20116  -2.113   1.551   7.855 -4.1750 -2.4410 -1.7884
  890MOL0     H20117  -2.052   1.710   7.800  0.6675  0.4788 -1.5434
  890MOL0     H20118  -2.294   1.688   7.840  0.1910  0.2056  0.1238
  890MOL0     H20119  -2.274   1.731   7.668  1.5205  0.4585 -0.2250
  890MOL0     H20120  -2.354   1.471   7.818  0.2753  0.3987  0.3355
  890MOL0     H20121  -2.301   1.470   7.647 -0.2857 -0.4986  0.4414
  890MOL0     H20122  -2.494   1.640   7.606 -0.8187  0.9005  0.6553
  890MOL0     H20123  -2.535   1.483   7.625  2.9862 -1.2385 -0.1833
  890MOL0     H20124  -2.553   1.528   7.885  3.4616 -2.5706 -2.0095
  890MOL0     H20125  -2.676   1.606   7.786  0.0193 -0.8217  2.6293
  890MOL0     H20126  -2.475   1.743   7.935  2.0845  0.6852 -1.7389
  890MOL0     H20127  -2.487   1.801   7.773  0.6251  1.4951  1.6227
  890MOL0     H20128  -2.715   1.798   7.967 -0.6305 -0.6045 -0.8615
  890MOL0     H20129  -2.746   1.792   7.799  0.8479 -0.1814 -0.3778
  890MOL0     H20130  -2.759   2.029   7.865  0.2870  1.1081  2.2996
  890MOL0     H20131  -2.626   2.011   7.753  2.5404  2.1453  1.7308
  890MOL0     H20132  -2.053   1.288   7.565 -0.7366  0.9361 -1.6457
  890MOL0     H20133  -1.843   1.159   7.562 -0.5949  1.1497 -2.0959
  890MOL0     H20134  -1.272   1.288   7.499 -0.6994  0.9772  1.7426
  890MOL0     H20135  -1.059   1.183   7.526 -1.1201  1.9939  1.7339
  890MOL0     H20136   0.512   1.475   7.091  0.7517 -1.3463  0.9925
  890MOL0     H20137   0.745   1.517   7.006 -2.2635  0.8890 -1.7048
  890MOL0     H20138   1.117   2.021   7.126 -2.5768 -1.3433 -0.8280
  890MOL0     H20139   1.369   2.034   7.059  0.7977 -1.0592  0.9093
  890MOL0     H20140   1.531   1.705   6.781 -1.4221  0.2177 -1.0526
  890MOL0     H20141   1.453   1.841   6.697  0.2607  2.3415 -0.4084
  890MOL0     H20142   1.743   1.815   6.801  1.2518  0.0058 -1.4390
  890MOL0     H20143   1.669   1.966   6.749 -3.2675  0.3133  0.8638
  890MOL0     H20144   1.610   1.871   6.534 -0.4444 -0.3306  0.9100
  890MOL0     H20145   1.669   1.707   6.578  0.8914 -0.9196  0.6620
  890MOL0     H20146   1.835   1.966   6.565 -2.1038  0.6899 -0.4724
  890MOL0     H20147   1.826   1.843   6.428 -0.4794  0.6992 -0.2800
  890MOL0     H20148   2.103   1.652   6.668  1.4230  0.4192 -1.7598
  890MOL0     H20149   1.317   1.687   6.830  0.9087 -1.0924  2.5695
  890MOL0     H20150   1.095   1.660   6.906 -1.1925  1.2152 -0.9580
  891MOL0     O20151   3.028   1.716   7.155  0.0624  0.3242  0.2999
  891MOL0     C20152   3.003   1.783   7.055  0.0896 -0.1125 -0.6552
  891MOL0     O20153   3.084   1.867   6.990  0.0531  0.1998 -0.0811
  891MOL0     C20154   3.208   1.885   7.034 -0.1794  0.1103 -0.4368
  891MOL0     C20155   3.312   1.791   6.997  0.1917  0.1751 -0.4898
  891MOL0     C20156   3.443   1.818   7.022 -0.7796 -0.8692 -0.5033
  891MOL0     C20157   3.483   1.935   7.087  0.7585 -0.1552  0.3434
  891MOL0     O20158   3.611   1.931   7.112 -0.4454  0.6841 -0.3640
  891MOL0     C20159   3.672   2.015   7.207 -0.2618 -0.0018  0.3908
  891MOL0     C20160   3.812   1.966   7.234 -0.9753 -0.0396  0.6145
  891MOL0     C20161   3.917   2.016   7.126  0.2732 -0.5545 -0.3791
  891MOL0     C20162   4.055   1.966   7.153 -0.0948 -0.0625  0.2804
  891MOL0     C20163   4.157   2.045   7.075 -0.1836 -0.5364  0.1744
  891MOL0     C20164   4.302   2.030   7.110  0.3077 -0.2372  0.6514
  891MOL0     C20165   4.352   1.885   7.107 -0.1897 -0.8812  0.5676
  891MOL0     C20166   4.508   1.873   7.124  0.1349  0.0110  0.1225
  891MOL0     N20167   4.576   1.895   6.996 -0.1560  0.0447  0.5326
  891MOL0     C20168   4.520   1.891   6.862 -0.4875 -0.1842  0.5501
  891MOL0     C20169   4.635   1.895   6.785 -0.0795 -0.6266 -0.3609
  891MOL0     C20170   4.662   1.867   6.639  0.0225  0.1746 -0.5339
  891MOL0     C20171   4.676   1.978   6.533 -0.3249  0.1428 -0.0875
  891MOL0     C20172   4.718   1.941   6.393 -0.2518  0.8101 -0.7879
  891MOL0     C20173   4.765   2.074   6.316  0.2240 -0.4756  0.3023
  891MOL0     O20174   4.786   2.046   6.175 -1.4275  0.3752 -1.0463
  891MOL0     C20175   4.892   1.960   6.141  0.2981 -0.0340  0.7764
  891MOL0     C20176   5.002   1.944   6.224 -0.1986 -0.0088 -0.5609
  891MOL0     C20177   5.113   1.863   6.192 -0.0232 -0.2877 -0.3815
  891MOL0     C20178   5.230   1.857   6.286  0.2024 -0.2591 -0.7918
  891MOL0     C20179   5.111   1.798   6.065  0.0519  0.2208 -0.7189
  891MOL0     C20180   5.220   1.724   6.007  0.2670  0.0806  0.4670
  891MOL0     O20181   5.190   1.607   5.942  0.5952  0.5678 -0.0098
  891MOL0     C20182   5.297   1.545   5.884 -0.2624  1.0654  0.3948
  891MOL0     C20183   5.308   1.546   5.747 -0.0532  0.1428  0.1247
  891MOL0     C20184   5.413   1.480   5.681 -0.4868  0.1522 -0.6301
  891MOL0     C20185   5.511   1.402   5.753  0.8760 -0.4123 -0.3534
  891MOL0     O20186   5.619   1.343   5.676 -0.1357  0.1417 -1.0570
  891MOL0     C20187   5.706   1.242   5.729  0.7214  0.1706  0.2542
  891MOL0     C20188   5.808   1.201   5.617  0.5690  0.1030 -0.1135
  891MOL0     C20189   5.930   1.145   5.684  0.0917 -0.3690 -0.5115
  891MOL0     C20190   6.049   1.123   5.578  0.3645 -0.2340  0.0756
  891MOL0     C20191   6.194   1.094   5.636  0.7047 -0.2746 -0.3030
  891MOL0     C20192   6.279   0.990   5.548 -0.0366 -0.3264 -0.9800
  891MOL0     C20193   6.407   0.965   5.623 -0.0760 -0.4569 -0.8348
  891MOL0     C20194   6.487   0.850   5.570 -0.0838  0.2352 -0.5795
  891MOL0    Cl20195   6.624   0.810   5.677 -0.0799 -0.3533  0.1453
  891MOL0     C20196   5.487   1.389   5.887  0.2007  0.7572  0.4848
  891MOL0     C20197   5.382   1.461   5.958  0.4961 -0.0810  0.1778
  891MOL0     O20198   5.337   1.778   6.006  0.5115  1.0508  0.6236
  891MOL0     C20199   4.995   1.803   5.988 -1.1314  0.8926 -0.3211
  891MOL0     C20200   4.888   1.881   6.027 -0.2693  0.5629  0.2991
  891MOL0     N20201   4.742   1.909   6.863 -0.2491 -0.4057  0.1400
  891MOL0     N20202   4.713   1.911   6.989 -0.3332  0.1841  0.4231
  891MOL0     C20203   3.385   2.021   7.135  0.4773  0.0022 -0.0618
  891MOL0     C20204   3.248   1.992   7.113  0.2253 -0.0442 -0.1861
  891MOL0     C20205   2.866   1.779   7.004 -0.1353 -0.0025  0.2817
  891MOL0     C20206   2.792   1.662   7.041 -0.4357  0.7192 -1.2872
  891MOL0     C20207   2.664   1.643   7.004  0.1243 -0.1801 -0.4033
  891MOL0     C20208   2.597   1.744   6.930  0.8877 -0.1710 -0.2579
  891MOL0     O20209   2.459   1.741   6.896 -0.6730  0.0867 -0.0284
  891MOL0     C20210   2.375   1.629   6.930 -0.2945  0.3417  0.4463
  891MOL0     C20211   2.321   1.627   7.078  0.0510 -0.3523  0.4050
  891MOL0     C20212   2.293   1.776   7.119  0.6692 -0.2796 -0.2669
  891MOL0     C20213   2.192   1.844   7.042 -0.4393  0.0766  0.4472
  891MOL0     C20214   2.074   1.758   7.014 -0.2818  0.2455  0.2801
  891MOL0     C20215   1.975   1.703   6.966 -0.4619  0.1297  0.7734
  891MOL0     C20216   2.677   1.853   6.885 -0.5695 -0.6606 -0.0310
  891MOL0     C20217   2.814   1.876   6.924  0.0204  0.7665  0.6443
  891MOL0     H20218   3.294   1.696   6.948 -1.3245  0.2250 -0.0854
  891MOL0     H20219   3.517   1.746   6.987  1.2106  1.0357 -0.4154
  891MOL0     H20220   3.676   2.121   7.180  2.6446  1.1511  4.4132
  891MOL0     H20221   3.610   2.009   7.297 -2.2712 -2.0441 -0.9993
  891MOL0     H20222   3.840   1.998   7.335 -1.4915 -1.3219  1.1880
  891MOL0     H20223   3.825   1.858   7.237  1.0763  0.1811  1.6533
  891MOL0     H20224   3.901   1.981   7.024  2.5890  4.0428 -2.6624
  891MOL0     H20225   3.920   2.125   7.138  1.2149 -0.6775  0.6710
  891MOL0     H20226   4.076   1.977   7.260  0.6908  4.3780 -0.1560
  891MOL0     H20227   4.070   1.862   7.123  3.2434  1.1064 -2.7851
  891MOL0     H20228   4.144   2.015   6.970 -3.2533  0.1827  0.2647
  891MOL0     H20229   4.138   2.152   7.078  1.6883 -0.1674  2.7418
  891MOL0     H20230   4.365   2.081   7.036 -2.3190 -0.7594 -2.1351
  891MOL0     H20231   4.321   2.074   7.208  0.0822  0.0630  0.5614
  891MOL0     H20232   4.302   1.831   7.188 -2.1586 -1.3017 -0.8659
  891MOL0     H20233   4.325   1.840   7.011  3.5542  0.5583 -1.3664
  891MOL0     H20234   4.540   1.776   7.163 -2.1966 -0.3498  1.3377
  891MOL0     H20235   4.555   1.946   7.191  2.3870 -2.5623  1.5155
  891MOL0     H20236   4.416   1.871   6.838 -0.5595  0.3350  0.4366
  891MOL0     H20237   4.751   1.804   6.635  1.8404  2.6348 -1.7895
  891MOL0     H20238   4.576   1.804   6.615 -1.1453  0.0178  3.3920
  891MOL0     H20239   4.757   2.038   6.576  1.2316 -1.3888 -0.7403
  891MOL0     H20240   4.585   2.038   6.534  0.1594  0.9610 -1.8771
  891MOL0     H20241   4.634   1.897   6.338  0.4240 -0.8464 -0.5234
  891MOL0     H20242   4.793   1.863   6.401 -0.7401  0.4448  0.4112
  891MOL0     H20243   4.848   2.122   6.368 -0.2275  0.2359  0.3876
  891MOL0     H20244   4.694   2.157   6.324  0.5957  0.1081 -1.8158
  891MOL0     H20245   5.010   2.004   6.315 -0.2837  0.1186 -0.6365
  891MOL0     H20246   5.235   1.763   6.342  0.7031 -0.4744 -1.1812
  891MOL0     H20247   5.323   1.858   6.229  0.4404  2.1213 -0.4565
  891MOL0     H20248   5.228   1.943   6.353  1.5465  0.2162 -1.3362
  891MOL0     H20249   5.239   1.605   5.689  1.7149  0.7885 -1.4231
  891MOL0     H20250   5.438   1.486   5.575  4.4897 -1.5036  0.1593
  891MOL0     H20251   5.760   1.298   5.807 -0.5346  3.6259 -1.1334
  891MOL0     H20252   5.649   1.157   5.767  1.2871  0.6900  2.4776
  891MOL0     H20253   5.768   1.135   5.540  0.7459  1.6939 -1.6302
  891MOL0     H20254   5.835   1.297   5.573 -2.8678  1.7299  0.9843
  891MOL0     H20255   5.902   1.049   5.728  1.5891 -1.4152 -1.7266
  891MOL0     H20256   5.964   1.219   5.756  2.2271 -0.5042 -1.2997
  891MOL0     H20257   6.014   1.041   5.514  2.0628  1.2703 -3.0414
  891MOL0     H20258   6.057   1.202   5.503 -0.9926 -0.9877 -0.9212
  891MOL0     H20259   6.168   1.054   5.734 -0.4657  0.5781 -0.2429
  891MOL0     H20260   6.244   1.191   5.646  2.1196 -0.8471 -1.5354
  891MOL0     H20261   6.234   0.891   5.543 -0.3822 -0.3281  1.1740
  891MOL0     H20262   6.283   1.019   5.442 -0.3086 -0.7440 -1.1061
  891MOL0     H20263   6.392   0.951   5.730  5.3390 -2.7526 -0.0109
  891MOL0     H20264   6.473   1.052   5.620  1.5939 -1.6384 -0.1475
  891MOL0     H20265   6.514   0.882   5.469 -0.1508  2.4477  0.0608
  891MOL0     H20266   6.420   0.763   5.580  2.2675 -1.5164  0.8745
  891MOL0     H20267   5.568   1.333   5.933  0.7542  1.3155  0.2051
  891MOL0     H20268   5.368   1.460   6.066 -2.6133  1.2010 -0.1097
  891MOL0     H20269   4.983   1.742   5.899 -0.3297 -0.4344  0.4538
  891MOL0     H20270   4.805   1.894   5.959  0.1115 -0.0372 -0.2865
  891MOL0     H20271   3.414   2.102   7.201 -0.0471 -0.8836  1.3085
  891MOL0     H20272   3.175   2.067   7.144  1.3086  1.4938 -1.1991
  891MOL0     H20273   2.829   1.583   7.105 -0.4785 -0.7779 -3.0292
  891MOL0     H20274   2.609   1.553   7.030 -1.5045  0.4520 -1.4932
  891MOL0     H20275   2.289   1.627   6.864 -0.2109  1.9153  0.2446
  891MOL0     H20276   2.436   1.539   6.914 -1.5351 -1.0632  3.0188
  891MOL0     H20277   2.398   1.566   7.126 -0.1519 -0.6129  0.3958
  891MOL0     H20278   2.231   1.566   7.079  1.5363 -2.6862  1.6811
  891MOL0     H20279   2.382   1.840   7.119 -1.0052  2.1944  1.4180
  891MOL0     H20280   2.266   1.786   7.224  0.8473  0.4259 -0.2817
  891MOL0     H20281   2.240   1.870   6.947  1.4071 -0.2245  1.2638
  891MOL0     H20282   2.163   1.939   7.088 -1.8517  1.7530 -3.4285
  891MOL0     H20283   1.879   1.666   6.935 -0.9742  2.6068 -0.9606
  891MOL0     H20284   2.625   1.921   6.818  0.3362  2.2574  2.0177
  891MOL0     H20285   2.870   1.957   6.879  1.9277 -0.9108 -0.1678
  892MOL0     O20286   5.314   0.385   5.066  0.8364  0.1757 -0.2516
  892MOL0     C20287   5.299   0.424   4.952  0.2577 -0.8723 -0.2256
  892MOL0     O20288   5.190   0.491   4.901 -0.5819  0.0673  0.4365
  892MOL0     C20289   5.068   0.491   4.975 -0.3864  0.9344 -0.4637
  892MOL0     C20290   5.053   0.576   5.079  0.4041 -0.0203 -0.2179
  892MOL0     C20291   4.930   0.601   5.140 -0.7527  0.7669  0.0919
  892MOL0     C20292   4.822   0.528   5.093  0.0479 -1.2784  0.4147
  892MOL0     O20293   4.710   0.546   5.181  0.0226  0.4373 -0.6840
  892MOL0     C20294   4.581   0.496   5.137 -0.5775 -0.1811 -0.6918
  892MOL0     C20295   4.474   0.559   5.223  0.0090  0.1399 -0.1702
  892MOL0     C20296   4.336   0.496   5.183 -0.4661 -0.2099 -0.5544
  892MOL0     C20297   4.230   0.588   5.237 -0.6588  0.2440  0.3402
  892MOL0     C20298   4.099   0.506   5.243 -0.5221  0.4886  0.0474
  892MOL0     C20299   3.973   0.589   5.265 -0.1506  0.3642 -0.9170
  892MOL0     C20300   3.849   0.505   5.221 -0.4321 -0.4134  1.0459
  892MOL0     C20301   3.731   0.579   5.273 -0.2784 -0.5619  0.0633
  892MOL0     N20302   3.605   0.509   5.241 -0.6854 -0.8152  0.0979
  892MOL0     C20303   3.498   0.505   5.322  0.5145  0.5983  0.2378
  892MOL0     C20304   3.399   0.435   5.254 -0.4347  0.3478  0.2839
  892MOL0     C20305   3.263   0.410   5.296  0.1529  0.3340 -0.5232
  892MOL0     C20306   3.244   0.275   5.373 -0.3084  0.2522  0.4786
  892MOL0     C20307   3.100   0.235   5.373 -0.1102 -0.1664  0.7560
  892MOL0     C20308   3.072   0.117   5.467  0.3538  0.0061  0.2339
  892MOL0     O20309   2.940   0.067   5.433  0.1292  0.4883  0.0582
  892MOL0     C20310   2.920  -0.006   5.319 -0.4205 -0.3689 -0.2854
  892MOL0     C20311   2.788  -0.037   5.302 -0.5810 -0.6098 -0.2120
  892MOL0     C20312   2.749  -0.117   5.191 -0.1279  0.0151 -0.9419
  892MOL0     C20313   2.607  -0.155   5.183  0.7819  0.3591  0.7718
  892MOL0     C20314   2.849  -0.164   5.092  0.1473 -0.4573 -0.3481
  892MOL0     C20315   2.821  -0.233   4.965  0.0463  0.4978 -0.0242
  892MOL0     O20316   2.919  -0.232   4.876  0.3640 -0.1289  0.6010
  892MOL0     C20317   2.909  -0.332   4.778  0.0180 -0.5941 -0.5415
  892MOL0     C20318   3.038  -0.376   4.740  0.1047  0.3087  0.0416
  892MOL0     C20319   3.054  -0.476   4.640 -0.1832  1.3664 -0.5120
  892MOL0     C20320   2.941  -0.524   4.565 -0.4894 -0.8910  0.0138
  892MOL0     O20321   2.934  -0.625   4.465 -0.0055  0.4401 -0.3012
  892MOL0     C20322   3.051  -0.690   4.418  0.0687 -0.2363 -1.0308
  892MOL0     C20323   3.074  -0.621   4.286 -0.1730 -0.1100 -0.2896
  892MOL0     C20324   3.195  -0.685   4.206 -0.3207  0.5020  0.0037
  892MOL0     C20325   3.328  -0.608   4.198  0.0957 -1.0923  0.9655
  892MOL0     C20326   3.438  -0.693   4.127  0.5394  0.4578  0.0626
  892MOL0     C20327   3.392  -0.763   3.994  0.2470 -0.1898  0.8543
  892MOL0     C20328   3.494  -0.827   3.898  0.2185 -0.0707  0.7210
  892MOL0     C20329   3.434  -0.896   3.773  0.9407  0.5875  0.1349
  892MOL0    Cl20330   3.373  -0.774   3.650  0.1049  0.1880 -0.7621
  892MOL0     C20331   2.809  -0.465   4.598  0.5745 -0.5929  0.9013
  892MOL0     C20332   2.797  -0.381   4.709 -0.5110 -0.1797 -0.6054
  892MOL0     O20333   2.714  -0.296   4.954  0.0834 -0.5876 -0.5908
  892MOL0     C20334   2.984  -0.129   5.117  0.2085 -0.3339 -0.3576
  892MOL0     C20335   3.022  -0.053   5.230  0.9656 -0.1422 -0.8771
  892MOL0     N20336   3.461   0.404   5.135  0.2990  0.8149 -0.8513
  892MOL0     N20337   3.576   0.449   5.120  0.7110  0.1945  0.2501
  892MOL0     C20338   4.830   0.439   4.991  0.0233 -0.6346  1.0040
  892MOL0     C20339   4.955   0.426   4.924 -0.6261  0.1556 -0.3765
  892MOL0     C20340   5.408   0.400   4.850  0.4032  0.6180 -0.5276
  892MOL0     C20341   5.375   0.410   4.717  0.4620 -0.0603  0.2434
  892MOL0     C20342   5.469   0.410   4.620 -0.3891  0.5104 -0.1143
  892MOL0     C20343   5.605   0.385   4.654 -0.4557 -0.0849  0.8323
  892MOL0     O20344   5.703   0.377   4.556 -0.1773 -0.3820  0.6146
  892MOL0     C20345   5.670   0.411   4.425  0.4616  0.9559  0.2975
  892MOL0     C20346   5.793   0.416   4.339 -0.4563  0.2091  0.3330
  892MOL0     C20347   5.841   0.559   4.332 -0.9802 -0.5873  0.4078
  892MOL0     C20348   5.949   0.568   4.233  0.3369 -0.9560 -0.7166
  892MOL0     C20349   6.009   0.702   4.227 -0.4995  0.3289 -1.1372
  892MOL0     C20350   6.063   0.809   4.218 -0.3969 -0.3624 -0.0588
  892MOL0     C20351   5.643   0.364   4.786 -0.8780 -0.1730 -0.7608
  892MOL0     C20352   5.541   0.372   4.888  0.6744 -0.2527 -0.4514
  892MOL0     H20353   5.138   0.637   5.107 -0.5672  1.7193 -0.8948
  892MOL0     H20354   4.922   0.680   5.213  1.3898  1.8619 -0.7633
  892MOL0     H20355   4.557   0.541   5.040 -0.6346  1.1965 -0.0525
  892MOL0     H20356   4.580   0.387   5.137  2.1204 -0.3593  2.6668
  892MOL0     H20357   4.494   0.542   5.329 -1.9270  1.5998  0.4899
  892MOL0     H20358   4.463   0.662   5.186 -1.6836 -0.5601 -1.8125
  892MOL0     H20359   4.320   0.465   5.080  0.1479  0.8135 -0.9678
  892MOL0     H20360   4.340   0.406   5.246  1.6739  1.3422  1.7298
  892MOL0     H20361   4.257   0.630   5.334  3.8355  0.7189 -0.8923
  892MOL0     H20362   4.227   0.669   5.163  1.8592 -0.4244 -0.6229
  892MOL0     H20363   4.087   0.459   5.145 -1.5532  2.6921 -0.9498
  892MOL0     H20364   4.103   0.434   5.325 -1.4760  1.0232  0.5779
  892MOL0     H20365   3.959   0.616   5.370 -2.3104 -0.8713 -0.8248
  892MOL0     H20366   3.966   0.681   5.206 -2.1303  0.6991 -0.2257
  892MOL0     H20367   3.843   0.491   5.112  0.6527 -2.8061  1.2186
  892MOL0     H20368   3.854   0.402   5.257  2.1684 -0.3151  1.1184
  892MOL0     H20369   3.736   0.685   5.245  3.2474 -0.4986  0.4907
  892MOL0     H20370   3.737   0.593   5.381 -1.5445 -0.1314  0.0995
  892MOL0     H20371   3.483   0.541   5.423  0.0466 -0.3785  0.5254
  892MOL0     H20372   3.241   0.491   5.366  2.8103 -0.3542  1.2796
  892MOL0     H20373   3.192   0.419   5.214 -0.0007 -2.3657 -0.7878
  892MOL0     H20374   3.274   0.284   5.478  0.9254 -2.2214  0.3915
  892MOL0     H20375   3.304   0.196   5.328  1.0618  1.1311  0.6963
  892MOL0     H20376   3.045   0.227   5.279 -0.8879 -0.3721  1.2129
  892MOL0     H20377   3.045   0.316   5.422 -0.8716  0.9674 -1.8130
  892MOL0     H20378   3.074   0.144   5.573 -0.8072 -1.0841  0.5589
  892MOL0     H20379   3.140   0.034   5.448 -1.6853 -1.9300  0.9392
  892MOL0     H20380   2.708   0.001   5.365 -0.2933 -1.2053  0.5313
  892MOL0     H20381   2.600  -0.264   5.179  0.5399  0.3919 -2.3590
  892MOL0     H20382   2.547  -0.105   5.260 -0.6078 -1.4859  0.9612
  892MOL0     H20383   2.566  -0.119   5.088 -2.8261 -0.8858  1.7017
  892MOL0     H20384   3.124  -0.346   4.798 -0.3676  0.1251  0.8488
  892MOL0     H20385   3.152  -0.522   4.633 -0.3311  1.1006 -0.8758
  892MOL0     H20386   3.138  -0.675   4.482  1.4825 -0.3940 -2.8289
  892MOL0     H20387   3.039  -0.797   4.400 -1.6561  0.0980 -2.0138
  892MOL0     H20388   2.983  -0.633   4.225 -2.9098 -0.2617  3.4538
  892MOL0     H20389   3.090  -0.515   4.305  1.9833 -0.4308 -0.1381
  892MOL0     H20390   3.161  -0.706   4.104  1.0765  1.2484 -0.6531
  892MOL0     H20391   3.220  -0.784   4.244  1.2427  1.8325  2.7647
  892MOL0     H20392   3.307  -0.512   4.150  3.4872 -0.7161 -0.0069
  892MOL0     H20393   3.355  -0.582   4.301  0.4212 -1.3106  0.9376
  892MOL0     H20394   3.486  -0.767   4.191  0.0068 -0.4200 -0.5395
  892MOL0     H20395   3.524  -0.626   4.119 -0.1860  1.4554  0.2820
  892MOL0     H20396   3.324  -0.842   4.025 -1.6246  0.0956 -2.1652
  892MOL0     H20397   3.345  -0.682   3.937 -0.5365 -1.0304  0.2882
  892MOL0     H20398   3.564  -0.884   3.959  1.2181 -1.2087 -1.3797
  892MOL0     H20399   3.548  -0.748   3.845 -0.1966  1.1715  2.0917
  892MOL0     H20400   3.347  -0.957   3.798 -0.7531  1.6857 -2.6246
  892MOL0     H20401   3.503  -0.957   3.715 -1.1721 -1.1290 -0.7151
  892MOL0     H20402   2.716  -0.500   4.554  0.5804 -0.6343  0.9204
  892MOL0     H20403   2.698  -0.347   4.737 -0.5212 -0.3575 -0.4268
  892MOL0     H20404   3.072  -0.176   5.073  1.7509  0.2330  1.9524
  892MOL0     H20405   3.127  -0.040   5.255  1.8787 -3.6088 -2.3031
  892MOL0     H20406   4.749   0.381   4.949 -0.1517  1.1833 -1.3294
  892MOL0     H20407   4.972   0.367   4.835  3.4084  4.2215 -2.7554
  892MOL0     H20408   5.269   0.414   4.694  0.6701 -2.1459 -1.4148
  892MOL0     H20409   5.442   0.415   4.515  0.0712 -0.3173 -0.2870
  892MOL0     H20410   5.604   0.336   4.381  0.5381  0.9105  0.2587
  892MOL0     H20411   5.612   0.503   4.429  1.1364  1.3536  1.5853
  892MOL0     H20412   5.758   0.375   4.244  1.1181  0.0104 -0.1938
  892MOL0     H20413   5.873   0.353   4.379  0.2792  0.5523 -0.5486
  892MOL0     H20414   5.872   0.604   4.427  1.6732  1.5992 -1.3257
  892MOL0     H20415   5.766   0.625   4.288 -0.2756  1.1505  1.7050
  892MOL0     H20416   5.900   0.550   4.137 -1.9951  0.2519  0.1623
  892MOL0     H20417   6.026   0.496   4.261  0.0472 -0.4671  1.5627
  892MOL0     H20418   6.101   0.908   4.202  1.8562 -0.5900  2.9845
  892MOL0     H20419   5.742   0.339   4.823  0.2186 -0.0528 -3.4309
  892MOL0     H20420   5.574   0.382   4.991 -1.1242  0.7251  0.0799
  893MOL0     O20421   5.114   5.687   6.304 -0.0487 -0.7401 -0.3701
  893MOL0     C20422   5.089   5.802   6.346 -1.3860 -0.2777 -0.7200
  893MOL0     O20423   5.179   5.898   6.365 -0.0543 -0.0973 -0.5114
  893MOL0     C20424   5.312   5.860   6.359 -0.1960  0.0623 -0.3440
  893MOL0     C20425   5.365   5.765   6.447  1.0560  0.0293  0.6701
  893MOL0     C20426   5.494   5.722   6.424  0.7979  0.1425 -0.2276
  893MOL0     C20427   5.580   5.771   6.332 -0.2771  0.1398  0.0362
  893MOL0     O20428   5.710   5.741   6.312 -0.6016  0.4414 -0.1595
  893MOL0     C20429   5.758   5.623   6.374  0.4913 -0.3174 -0.7458
  893MOL0     C20430   5.903   5.616   6.341  0.1918 -0.0253  0.4031
  893MOL0     C20431   5.975   5.738   6.383 -0.3443  0.5245  0.2411
  893MOL0     C20432   6.123   5.715   6.353  0.3937  0.7514  0.5298
  893MOL0     C20433   6.203   5.830   6.404  0.2493 -0.0011 -0.0816
  893MOL0     C20434   6.350   5.816   6.379  0.3402 -0.4935 -0.5319
  893MOL0     C20435   6.408   5.948   6.415 -0.9931  0.1766 -0.8086
  893MOL0     C20436   6.409   5.985   6.565 -0.2871  0.0881 -0.8253
  893MOL0     N20437   6.465   5.877   6.655 -0.4049  0.2843  0.0270
  893MOL0     C20438   6.388   5.782   6.718 -0.3661 -0.2084  0.1384
  893MOL0     C20439   6.476   5.707   6.787  0.0506  0.4073 -0.4341
  893MOL0     C20440   6.435   5.595   6.884  0.6145  0.0231  1.3895
  893MOL0     C20441   6.512   5.466   6.869  1.1751 -0.5093  0.7070
  893MOL0     C20442   6.506   5.393   6.732  0.0458  0.0602  0.4528
  893MOL0     C20443   6.361   5.347   6.703 -0.3960 -0.9770  0.0072
  893MOL0     O20444   6.284   5.459   6.649 -0.7069  0.9204 -0.2590
  893MOL0     C20445   6.146   5.447   6.668 -0.5193 -0.3565  0.9157
  893MOL0     C20446   6.061   5.350   6.605  0.3181  0.5413 -0.4092
  893MOL0     C20447   5.916   5.344   6.626 -0.7874 -0.0856 -0.0305
  893MOL0     C20448   5.837   5.239   6.558  0.1237 -0.4867  0.3972
  893MOL0     C20449   5.859   5.448   6.700 -1.0782 -0.1742  0.2820
  893MOL0     C20450   5.714   5.470   6.710  0.5004  0.1280  0.0452
  893MOL0     O20451   5.678   5.561   6.803  0.4360 -0.1971  0.1167
  893MOL0     C20452   5.553   5.621   6.806 -0.8022 -0.0236  0.6260
  893MOL0     C20453   5.558   5.758   6.817  0.8582  0.1353 -0.3479
  893MOL0     C20454   5.437   5.831   6.823 -0.6262 -0.8205 -0.3268
  893MOL0     C20455   5.317   5.774   6.844 -0.3054  0.2293  0.5581
  893MOL0     O20456   5.202   5.846   6.866 -0.0808  0.1743 -0.2387
  893MOL0     C20457   5.112   5.848   6.751  0.6744 -0.7829  0.3467
  893MOL0     C20458   4.964   5.874   6.793  0.7345 -0.6205  0.0332
  893MOL0     C20459   4.903   5.755   6.876 -0.1760  0.5636  0.7570
  893MOL0     C20460   4.777   5.698   6.828 -0.1830  0.1135  0.5357
  893MOL0     C20461   4.671   5.675   6.936 -0.3010  0.5222  0.1611
  893MOL0     C20462   4.526   5.645   6.892  0.3746 -0.2230 -0.8058
  893MOL0     C20463   4.519   5.533   6.788 -0.2544  0.3348 -0.4594
  893MOL0     C20464   4.380   5.486   6.738  0.8147  0.1142 -0.1753
  893MOL0    Cl20465   4.309   5.384   6.857 -0.0246  0.4866 -0.0020
  893MOL0     C20466   5.308   5.633   6.832  0.0964  0.4760 -0.2054
  893MOL0     C20467   5.426   5.563   6.802  0.6738 -0.2727  0.7227
  893MOL0     O20468   5.643   5.440   6.614  0.6710 -0.4338 -0.2190
  893MOL0     C20469   5.942   5.557   6.754  0.0466  0.1374 -0.0213
  893MOL0     C20470   6.083   5.551   6.738  0.5081  0.4318 -0.3864
  893MOL0     N20471   6.604   5.754   6.765 -0.0733 -0.3088  0.5701
  893MOL0     N20472   6.592   5.867   6.694 -0.5962 -0.4870  0.2678
  893MOL0     C20473   5.520   5.874   6.250  0.5276  0.7439  0.0897
  893MOL0     C20474   5.385   5.911   6.260 -0.0272  0.4558  1.9072
  893MOL0     C20475   4.953   5.821   6.392 -0.2597 -0.4410 -0.5185
  893MOL0     C20476   4.903   5.948   6.407 -1.2253 -0.4843  0.1117
  893MOL0     C20477   4.771   5.974   6.443 -0.3707  0.1904 -0.5870
  893MOL0     C20478   4.688   5.867   6.478  0.1624  0.3454  0.3770
  893MOL0     O20479   4.555   5.881   6.500  0.3093  0.4779 -0.5825
  893MOL0     C20480   4.480   5.977   6.425  0.7059 -0.3324 -0.4282
  893MOL0     C20481   4.339   5.917   6.398 -0.5819 -0.3027 -0.1268
  893MOL0     C20482   4.252   5.914   6.521 -0.1771 -0.1978  0.0512
  893MOL0     C20483   4.108   5.891   6.502  0.7541 -0.0128 -0.2455
  893MOL0     C20484   4.044   5.994   6.430 -0.2531 -0.0425  0.3513
  893MOL0     C20485   3.998   6.084   6.359  0.3358  1.3047  0.6844
  893MOL0     C20486   4.736   5.734   6.461 -0.2223  0.4669 -0.5053
  893MOL0     C20487   4.869   5.714   6.408 -1.0773  0.3394 -0.3331
  893MOL0     H20488   5.304   5.719   6.524 -1.8608  0.9795 -0.9288
  893MOL0     H20489   5.526   5.652   6.501  0.1863 -1.6594 -1.5261
  893MOL0     H20490   5.750   5.627   6.483 -1.0182 -2.7225 -0.6768
  893MOL0     H20491   5.710   5.530   6.342 -0.3408  0.1957 -1.0359
  893MOL0     H20492   5.949   5.529   6.389  0.3799  0.8044  1.8064
  893MOL0     H20493   5.912   5.595   6.234  2.4035 -2.3211  0.9453
  893MOL0     H20494   5.935   5.825   6.331  0.1843  1.5037  1.4261
  893MOL0     H20495   5.950   5.760   6.487 -3.3349  1.2220 -0.5221
  893MOL0     H20496   6.167   5.622   6.390  3.2944  1.0759 -1.7523
  893MOL0     H20497   6.133   5.708   6.244 -3.2908 -2.9031  0.1739
  893MOL0     H20498   6.163   5.931   6.388 -1.4051 -0.8232 -1.5536
  893MOL0     H20499   6.195   5.833   6.513 -0.0587 -1.0549 -0.0670
  893MOL0     H20500   6.398   5.726   6.420 -0.0637 -0.4248  0.1093
  893MOL0     H20501   6.370   5.805   6.272  2.5768  0.4032 -0.2692
  893MOL0     H20502   6.514   5.941   6.391 -0.6660  0.9965  0.2900
  893MOL0     H20503   6.372   6.022   6.343 -0.8639  0.4720 -0.5724
  893MOL0     H20504   6.306   6.008   6.591 -1.2303 -0.9440 -3.3787
  893MOL0     H20505   6.462   6.080   6.580 -2.7233  1.0519  2.8576
  893MOL0     H20506   6.280   5.775   6.714 -0.3256 -0.2664 -2.6162
  893MOL0     H20507   6.439   5.634   6.986 -1.2200 -0.6979  1.7784
  893MOL0     H20508   6.330   5.570   6.869  0.4187  1.5023  0.0485
  893MOL0     H20509   6.486   5.396   6.949  1.5913 -2.5363 -0.8517
  893MOL0     H20510   6.619   5.489   6.870  0.9299  0.6978  0.3080
  893MOL0     H20511   6.562   5.299   6.741 -1.9344 -1.5378 -2.3259
  893MOL0     H20512   6.546   5.454   6.650 -0.8572  0.0518 -0.0053
  893MOL0     H20513   6.314   5.308   6.794 -0.0599 -3.7466 -0.9087
  893MOL0     H20514   6.361   5.263   6.632  0.7702 -1.8427  0.9845
  893MOL0     H20515   6.117   5.276   6.549  0.3906  2.2659 -2.8012
  893MOL0     H20516   5.769   5.194   6.630  0.4222 -1.8549 -0.1494
  893MOL0     H20517   5.782   5.282   6.474  0.6483 -1.6072 -0.5485
  893MOL0     H20518   5.911   5.172   6.514  0.5399 -0.5603  1.1876
  893MOL0     H20519   5.651   5.813   6.829  1.8633 -1.9594  2.4351
  893MOL0     H20520   5.438   5.938   6.842  1.4057 -0.9813  0.7700
  893MOL0     H20521   5.147   5.940   6.703  2.8248 -2.2940 -1.1337
  893MOL0     H20522   5.115   5.770   6.675  0.4010 -1.2460  0.8047
  893MOL0     H20523   4.967   5.961   6.860 -3.3838 -0.8604  0.7604
  893MOL0     H20524   4.892   5.909   6.719 -0.7713  1.4202  2.2999
  893MOL0     H20525   4.891   5.792   6.979  0.5084  0.8776  0.7266
  893MOL0     H20526   4.964   5.665   6.883 -1.2029 -0.0757  2.1599
  893MOL0     H20527   4.732   5.773   6.762  0.3642  1.8565  2.0393
  893MOL0     H20528   4.802   5.616   6.760 -0.8856  1.5583 -1.6013
  893MOL0     H20529   4.662   5.766   6.996  2.7915  0.6535  0.5917
  893MOL0     H20530   4.720   5.595   6.992  0.2231  2.3697  2.5314
  893MOL0     H20531   4.468   5.620   6.982  0.5827  0.6002 -0.4323
  893MOL0     H20532   4.476   5.730   6.845  2.7874  1.4064 -0.5865
  893MOL0     H20533   4.580   5.447   6.816 -1.6329  0.2688  2.8258
  893MOL0     H20534   4.571   5.565   6.697 -0.2408 -3.3374 -1.9054
  893MOL0     H20535   4.392   5.438   6.641  1.8097 -1.0860  0.5128
  893MOL0     H20536   4.310   5.571   6.728 -0.6670 -0.8434  1.4209
  893MOL0     H20537   5.216   5.576   6.839  0.6779 -0.3348  1.1818
  893MOL0     H20538   5.414   5.457   6.784 -1.4269  0.0713 -0.2736
  893MOL0     H20539   5.908   5.642   6.813  0.7612  0.7700 -0.4925
  893MOL0     H20540   6.138   5.629   6.790 -0.0760 -0.9273  2.4929
  893MOL0     H20541   5.576   5.924   6.171 -0.8163  2.3384  0.1018
  893MOL0     H20542   5.336   5.971   6.183  2.8049 -0.6485 -0.9621
  893MOL0     H20543   4.955   6.043   6.398 -3.5963  0.8879 -0.0742
  893MOL0     H20544   4.741   6.077   6.457  2.9196  1.5959 -2.6824
  893MOL0     H20545   4.475   6.071   6.480  0.9844 -0.1960 -0.6327
  893MOL0     H20546   4.535   5.994   6.332 -0.0686  0.0308 -0.8320
  893MOL0     H20547   4.341   5.815   6.358  2.0820  0.1944 -1.5283
  893MOL0     H20548   4.286   5.979   6.325 -0.4165  0.0137  0.0195
  893MOL0     H20549   4.259   6.005   6.581 -1.4970  0.5682 -0.8914
  893MOL0     H20550   4.293   5.825   6.569 -0.5019 -0.5831 -0.3645
  893MOL0     H20551   4.051   5.873   6.593 -0.5573  0.8928 -0.8510
  893MOL0     H20552   4.103   5.806   6.434  1.5280 -1.1779  1.0997
  893MOL0     H20553   3.965   6.167   6.300 -0.3370  0.0381 -0.7925
  893MOL0     H20554   4.674   5.645   6.472  1.3452 -0.6640 -0.5622
  893MOL0     H20555   4.907   5.614   6.389 -1.5799 -0.0250  0.5110
  894MOL0     O20556   1.102   0.998   0.614 -0.2163 -0.2328 -0.3213
  894MOL0     C20557   1.154   1.076   0.696  0.5282 -0.2791  0.9493
  894MOL0     O20558   1.091   1.158   0.787  0.1345  0.8355  0.7314
  894MOL0     C20559   0.959   1.138   0.814 -0.1874 -0.7536  1.0325
  894MOL0     C20560   0.909   1.082   0.933  0.6833  0.2214 -0.5014
  894MOL0     C20561   0.768   1.079   0.959 -0.3485 -0.1382 -0.5361
  894MOL0     C20562   0.678   1.134   0.862  0.5005  0.9011 -0.2426
  894MOL0     O20563   0.542   1.144   0.867  0.0742 -0.2683  0.4864
  894MOL0     C20564   0.491   1.248   0.954 -0.8296  0.5370  0.7425
  894MOL0     C20565   0.343   1.209   1.002 -0.6930  0.3009  0.7232
  894MOL0     C20566   0.245   1.241   0.899 -1.2994  0.4311  0.1843
  894MOL0     C20567   0.106   1.197   0.944  0.5563 -1.2065  0.2073
  894MOL0     C20568   0.019   1.200   0.816 -0.3527  0.9584  0.2344
  894MOL0     C20569  -0.125   1.160   0.862 -0.3135 -0.0125 -0.0344
  894MOL0     C20570  -0.230   1.128   0.750  0.0383  0.0177  0.0302
  894MOL0     C20571  -0.356   1.062   0.814  0.1129  0.4363 -0.1864
  894MOL0     N20572  -0.458   1.033   0.710  0.5288 -0.5925 -0.6998
  894MOL0     C20573  -0.533   1.116   0.630  1.2381  0.1097 -0.3905
  894MOL0     C20574  -0.612   1.041   0.562 -0.0052 -0.0372 -0.5201
  894MOL0     C20575  -0.706   1.078   0.453 -0.2847 -0.0392 -0.1746
  894MOL0     C20576  -0.853   1.071   0.504 -0.2498  0.5050 -0.9804
  894MOL0     C20577  -0.954   1.072   0.395  0.9436  0.7030 -0.2151
  894MOL0     C20578  -1.096   1.065   0.449 -0.3872 -0.3821 -0.3128
  894MOL0     O20579  -1.200   1.035   0.350  0.5568  0.0749  0.0491
  894MOL0     C20580  -1.289   1.142   0.329 -0.9187  0.3273  0.5681
  894MOL0     C20581  -1.285   1.275   0.383 -1.9244  0.6131  0.2876
  894MOL0     C20582  -1.393   1.362   0.349  0.3914 -0.5929 -0.4182
  894MOL0     C20583  -1.385   1.491   0.419 -0.0859  0.7987  0.0880
  894MOL0     C20584  -1.498   1.326   0.265 -0.3182 -0.1535 -0.3641
  894MOL0     C20585  -1.610   1.412   0.235  0.9242  1.1834  0.2617
  894MOL0     O20586  -1.725   1.341   0.204 -0.1244 -0.5406 -0.2235
  894MOL0     C20587  -1.838   1.413   0.165 -0.3282  0.3230 -0.7244
  894MOL0     C20588  -1.846   1.471   0.041  0.2752 -0.1684 -0.5221
  894MOL0     C20589  -1.964   1.524  -0.010  0.8820 -0.3107 -0.4414
  894MOL0     C20590  -2.069   1.551   0.079 -0.1044 -0.3219  0.3431
  894MOL0     O20591  -2.185   1.608   0.030 -0.4959 -0.6925  0.0560
  894MOL0     C20592  -2.310   1.545   0.054 -1.0672 -0.3342  0.3988
  894MOL0     C20593  -2.419   1.615  -0.032  0.0282  0.1734  1.1617
  894MOL0     C20594  -2.556   1.564   0.004  0.5372  0.0570 -0.3629
  894MOL0     C20595  -2.663   1.622  -0.097 -0.4955  0.3645 -0.9587
  894MOL0     C20596  -2.718   1.761  -0.062 -0.3981  0.3483  0.8473
  894MOL0     C20597  -2.828   1.760   0.042 -0.1004  0.5296 -0.3746
  894MOL0     C20598  -2.883   1.904   0.062 -0.9531 -0.2385 -0.2649
  894MOL0     C20599  -3.017   1.895   0.132 -0.1662  0.6631 -0.3133
  894MOL0    Cl20600  -3.011   1.843   0.301 -0.0925 -0.1086  0.1105
  894MOL0     C20601  -2.053   1.507   0.211 -0.2547  0.3960  0.7136
  894MOL0     C20602  -1.941   1.438   0.245  1.3589  0.1510 -0.0724
  894MOL0     O20603  -1.604   1.536   0.246  0.0297 -0.2618  0.0167
  894MOL0     C20604  -1.493   1.196   0.208  0.4557  0.3121  0.2479
  894MOL0     C20605  -1.392   1.110   0.236 -0.7597 -0.3016 -0.1275
  894MOL0     N20606  -0.582   0.905   0.589  0.1117 -0.4209  0.5271
  894MOL0     N20607  -0.501   0.905   0.694  0.1628  0.2244 -1.0263
  894MOL0     C20608   0.732   1.187   0.743  0.0915 -0.7327  0.5450
  894MOL0     C20609   0.870   1.187   0.719 -0.0960  0.7996 -1.1988
  894MOL0     C20610   1.301   1.077   0.704 -0.3789 -0.4954 -0.0293
  894MOL0     C20611   1.368   1.088   0.824  0.1255 -0.6946 -0.1536
  894MOL0     C20612   1.512   1.093   0.837 -0.2974  0.5599 -0.7088
  894MOL0     C20613   1.585   1.094   0.719 -0.2532 -0.5068 -0.0684
  894MOL0     O20614   1.725   1.099   0.701  0.0084  0.1546  0.1764
  894MOL0     C20615   1.804   1.153   0.805 -0.0389  0.0963  0.1203
  894MOL0     C20616   1.955   1.140   0.769 -0.1883  0.0493 -0.2513
  894MOL0     C20617   2.047   1.178   0.891  0.9098 -0.4705  0.4418
  894MOL0     C20618   2.111   1.038   0.925 -0.2389  0.5281  0.1043
  894MOL0     C20619   2.157   1.048   1.064 -1.6032 -0.3038  0.5096
  894MOL0     C20620   2.205   1.054   1.180 -0.8333 -0.3375  1.2186
  894MOL0     C20621   1.520   1.094   0.599  0.0680 -0.1501  0.0999
  894MOL0     C20622   1.378   1.076   0.587  0.3682  0.1825 -0.2602
  894MOL0     H20623   0.976   1.031   1.002  1.8932 -1.0130 -2.4944
  894MOL0     H20624   0.731   1.025   1.045  1.3365 -3.0942 -1.4752
  894MOL0     H20625   0.541   1.247   1.051  0.1900 -0.7978  0.2369
  894MOL0     H20626   0.499   1.346   0.906  2.8307  0.8281  1.6478
  894MOL0     H20627   0.345   1.101   1.022 -0.8447  0.0503 -0.5386
  894MOL0     H20628   0.304   1.259   1.091 -0.5544  1.3725  0.1850
  894MOL0     H20629   0.236   1.350   0.900  0.2950  0.5769  1.0857
  894MOL0     H20630   0.282   1.198   0.805  0.0727  1.3538  0.2591
  894MOL0     H20631   0.114   1.098   0.990 -2.1756 -0.2224  3.1520
  894MOL0     H20632   0.065   1.264   1.020 -1.8483 -1.4400 -0.7940
  894MOL0     H20633   0.016   1.302   0.777  0.9963  1.9282  2.4347
  894MOL0     H20634   0.052   1.128   0.740 -1.6870  3.0180 -2.4167
  894MOL0     H20635  -0.116   1.067   0.918  1.9537  2.5057  4.3781
  894MOL0     H20636  -0.171   1.237   0.924 -0.0722  1.1428 -1.2238
  894MOL0     H20637  -0.255   1.214   0.688 -2.0992  1.0654  2.1842
  894MOL0     H20638  -0.179   1.056   0.686  0.3016 -1.0052  1.3412
  894MOL0     H20639  -0.401   1.136   0.881 -0.1258  1.8853 -1.8568
  894MOL0     H20640  -0.328   0.979   0.879 -2.7123  1.1089  2.0979
  894MOL0     H20641  -0.528   1.224   0.625 -2.9614  0.4567 -0.5616
  894MOL0     H20642  -0.681   1.180   0.422 -1.2727  0.1542 -0.3753
  894MOL0     H20643  -0.693   1.007   0.371 -2.2235 -0.9182  0.2297
  894MOL0     H20644  -0.869   1.156   0.570 -1.4651  0.7388 -1.5517
  894MOL0     H20645  -0.859   0.978   0.563 -0.9117  0.2390 -1.4607
  894MOL0     H20646  -0.954   0.981   0.335 -2.1088 -0.1566  0.9376
  894MOL0     H20647  -0.956   1.158   0.327 -1.3281  0.4897 -0.4928
  894MOL0     H20648  -1.106   1.157   0.506  0.2453 -2.5254  3.5631
  894MOL0     H20649  -1.098   0.980   0.518  0.3704 -1.2557 -1.3195
  894MOL0     H20650  -1.211   1.306   0.456 -0.2951 -2.2669 -0.0183
  894MOL0     H20651  -1.368   1.570   0.344 -1.8138  0.5351 -0.6224
  894MOL0     H20652  -1.471   1.505   0.484 -0.1097 -2.5851  0.9391
  894MOL0     H20653  -1.297   1.496   0.485  0.2221 -0.6162 -0.1806
  894MOL0     H20654  -1.763   1.442  -0.022  0.2473 -1.9008  0.1600
  894MOL0     H20655  -1.970   1.552  -0.115 -0.8348 -3.6749 -1.4199
  894MOL0     H20656  -2.304   1.440   0.022  1.7976 -0.0587 -0.2283
  894MOL0     H20657  -2.340   1.554   0.158  0.0343  0.6752  0.6484
  894MOL0     H20658  -2.419   1.723  -0.015 -0.1071 -0.1735  3.6288
  894MOL0     H20659  -2.392   1.599  -0.137  2.7635 -0.6205  1.9030
  894MOL0     H20660  -2.575   1.591   0.108  0.8290 -2.1872  0.3339
  894MOL0     H20661  -2.558   1.456   0.021  1.7834  0.4581  2.9365
  894MOL0     H20662  -2.615   1.637  -0.194  3.0642  3.0116  1.0020
  894MOL0     H20663  -2.737   1.544  -0.115  0.5919 -0.9361  0.0112
  894MOL0     H20664  -2.768   1.796  -0.153 -2.9848 -2.6852  0.9324
  894MOL0     H20665  -2.637   1.833  -0.044  1.9757 -1.5160 -1.5152
  894MOL0     H20666  -2.910   1.693   0.015  0.5707  0.4250 -2.3711
  894MOL0     H20667  -2.791   1.736   0.142 -1.0297 -0.0927 -0.1678
  894MOL0     H20668  -2.896   1.960  -0.030 -2.0700 -0.6880 -0.4068
  894MOL0     H20669  -2.816   1.954   0.133  0.0473 -0.8809 -0.7329
  894MOL0     H20670  -3.088   1.836   0.073  0.0896  1.0298 -1.0006
  894MOL0     H20671  -3.055   1.997   0.124 -4.4087 -0.5589  1.5441
  894MOL0     H20672  -2.143   1.517   0.270 -0.8620  1.6935 -0.3961
  894MOL0     H20673  -1.911   1.415   0.346  0.6234 -2.2446 -0.3347
  894MOL0     H20674  -1.563   1.164   0.132  0.6079 -1.5079  0.8315
  894MOL0     H20675  -1.394   1.013   0.188 -0.3474 -1.5836  2.3341
  894MOL0     H20676   0.667   1.228   0.666 -1.1320 -2.4215  0.6148
  894MOL0     H20677   0.902   1.230   0.625  0.0830  3.0810 -0.1670
  894MOL0     H20678   1.306   1.088   0.914  1.9624 -1.7827  1.1849
  894MOL0     H20679   1.554   1.105   0.937 -0.9913  2.7962 -0.6420
  894MOL0     H20680   1.796   1.257   0.838  1.0140  0.0404  0.6201
  894MOL0     H20681   1.779   1.097   0.896 -0.1142  0.4623  0.3269
  894MOL0     H20682   1.986   1.205   0.686  2.6358 -1.0697 -0.1805
  894MOL0     H20683   1.982   1.042   0.729 -0.8349  0.0360 -0.6636
  894MOL0     H20684   1.985   1.219   0.971  1.5406 -1.7955  1.6671
  894MOL0     H20685   2.123   1.251   0.862 -1.0921  1.3810 -0.4403
  894MOL0     H20686   2.190   1.011   0.854 -0.0010  0.0480  0.5410
  894MOL0     H20687   2.029   0.967   0.913 -0.7085  1.2960 -1.5204
  894MOL0     H20688   2.247   1.037   1.277  0.1906 -1.7004  0.5684
  894MOL0     H20689   1.570   1.085   0.503 -0.7765 -0.3972 -0.3298
  894MOL0     H20690   1.328   1.092   0.492 -2.7625  2.4762  1.6120
  895MOL0     O20691  10.735   3.449   1.020  0.0851 -0.0665 -0.1447
  895MOL0     C20692  10.818   3.443   0.933 -0.7488 -0.7144 -0.1747
  895MOL0     O20693  10.807   3.498   0.810 -0.3792  0.4495 -0.0114
  895MOL0     C20694  10.678   3.541   0.761 -0.5472  0.7602 -0.1479
  895MOL0     C20695  10.583   3.604   0.843  0.4482 -1.0231  0.0164
  895MOL0     C20696  10.456   3.644   0.797  0.0641 -0.6955  0.4704
  895MOL0     C20697  10.421   3.622   0.659 -0.5891 -0.4011  0.0070
  895MOL0     O20698  10.307   3.673   0.601 -0.7368  0.4549  0.1498
  895MOL0     C20699  10.212   3.748   0.677 -1.0578 -1.1222 -0.5058
  895MOL0     C20700  10.085   3.776   0.592 -0.2135 -0.6088  0.3096
  895MOL0     C20701  10.125   3.882   0.488 -0.7625 -0.1181  0.1656
  895MOL0     C20702   9.999   3.927   0.408 -0.1546 -0.3226 -0.1083
  895MOL0     C20703   9.961   4.074   0.430  0.1252  0.4740  0.3765
  895MOL0     C20704   9.870   4.111   0.547  0.3689 -0.7920 -0.4052
  895MOL0     C20705   9.780   4.228   0.523 -0.0946  0.1863  0.0230
  895MOL0     C20706   9.856   4.359   0.477 -0.1267 -0.6750  0.1414
  895MOL0     N20707   9.942   4.398   0.586  0.1148 -0.7697  0.1309
  895MOL0     C20708   9.906   4.484   0.689  0.7498  0.0459 -0.3275
  895MOL0     C20709  10.021   4.507   0.752 -0.4647 -0.2737 -0.1347
  895MOL0     C20710  10.044   4.592   0.878 -0.0795  0.4104  0.8872
  895MOL0     C20711  10.001   4.740   0.867  0.0282  0.1684 -0.5066
  895MOL0     C20712  10.073   4.837   0.956  0.1957 -0.1132  0.2977
  895MOL0     C20713  10.013   4.978   0.948  0.8203 -0.2888  0.2375
  895MOL0     O20714  10.033   5.034   0.813 -0.4126  0.3137 -0.0390
  895MOL0     C20715   9.920   5.071   0.737  0.2106 -0.3259  1.0607
  895MOL0     C20716   9.928   5.189   0.668  0.2480  0.0326 -0.5895
  895MOL0     C20717   9.819   5.256   0.603  1.1020 -0.4893 -0.4558
  895MOL0     C20718   9.856   5.397   0.547  0.1848 -0.5491 -0.2807
  895MOL0     C20719   9.690   5.189   0.606  0.0144  0.2719 -0.4632
  895MOL0     C20720   9.569   5.244   0.532  0.0239  0.0605  0.4272
  895MOL0     O20721   9.488   5.158   0.478  0.6953  0.3848  0.6455
  895MOL0     C20722   9.371   5.211   0.420  0.1855  0.6601 -0.6226
  895MOL0     C20723   9.345   5.174   0.291 -0.7991 -0.6069  0.4707
  895MOL0     C20724   9.226   5.208   0.239  0.4164 -0.8975  0.1758
  895MOL0     C20725   9.126   5.276   0.317 -0.7257  0.4504  0.0563
  895MOL0     O20726   9.025   5.319   0.242 -0.2083 -0.5068  0.1953
  895MOL0     C20727   8.921   5.407   0.305 -0.2643  0.6509 -0.5908
  895MOL0     C20728   8.799   5.434   0.215 -0.9399 -0.6664  0.1208
  895MOL0     C20729   8.685   5.505   0.291  0.2172 -1.0453 -0.0387
  895MOL0     C20730   8.571   5.533   0.188 -0.2987  0.4145  0.3483
  895MOL0     C20731   8.447   5.605   0.244  0.0564  0.5874 -0.7589
  895MOL0     C20732   8.325   5.601   0.156  0.4856 -0.4091 -0.1737
  895MOL0     C20733   8.197   5.657   0.226  0.4429 -0.3166  0.9299
  895MOL0     C20734   8.077   5.637   0.127 -0.3567 -0.2989 -0.0605
  895MOL0    Cl20735   7.928   5.669   0.222 -0.3671 -0.0683 -0.0078
  895MOL0     C20736   9.148   5.297   0.453 -0.2878 -0.6766  0.1447
  895MOL0     C20737   9.274   5.264   0.502  0.1753 -0.4141  0.1920
  895MOL0     O20738   9.561   5.362   0.519  0.7525 -0.1424 -0.6485
  895MOL0     C20739   9.676   5.071   0.690  0.1806  0.6465  0.3462
  895MOL0     C20740   9.788   5.020   0.757  1.2706  0.5767  0.3558
  895MOL0     N20741  10.122   4.425   0.703 -0.0026  0.3841  0.2092
  895MOL0     N20742  10.073   4.367   0.592 -0.1101 -0.5651 -1.4153
  895MOL0     C20743  10.508   3.544   0.590  0.2226 -0.0252 -0.3132
  895MOL0     C20744  10.636   3.508   0.636  0.3427  0.0034 -0.0182
  895MOL0     C20745  10.949   3.389   0.962 -0.8013 -0.3829  1.6327
  895MOL0     C20746  10.999   3.383   1.090 -0.6519  0.0736 -0.5006
  895MOL0     C20747  11.130   3.328   1.118  0.3757 -0.8877  0.4010
  895MOL0     C20748  11.210   3.289   1.012 -0.0987 -0.0342  0.3370
  895MOL0     O20749  11.326   3.236   1.048 -0.4024  0.1448 -0.3762
  895MOL0     C20750  11.436   3.241   0.955 -0.5853 -0.0338  0.6615
  895MOL0     C20751  11.558   3.178   1.028  0.0451 -0.0414  0.2839
  895MOL0     C20752  11.535   3.037   1.082  0.2580 -0.0583 -0.8772
  895MOL0     C20753  11.659   2.991   1.159 -0.2538  1.1355 -0.9057
  895MOL0     C20754  11.673   3.069   1.289 -0.5598 -0.1791 -0.3600
  895MOL0     C20755  11.692   3.114   1.402 -0.2042  0.4625  0.4404
  895MOL0     C20756  11.166   3.307   0.876 -0.3959  0.7829 -0.2013
  895MOL0     C20757  11.037   3.360   0.848  0.1870 -0.1992  1.1369
  895MOL0     H20758  10.604   3.621   0.949 -2.0400 -0.9390  0.5525
  895MOL0     H20759  10.389   3.695   0.865  2.7961 -0.3390  3.1126
  895MOL0     H20760  10.181   3.695   0.767 -1.4678 -1.3579 -0.7794
  895MOL0     H20761  10.261   3.838   0.715  1.4913 -2.3181 -0.7229
  895MOL0     H20762  10.064   3.680   0.543  0.0895 -0.7488  0.4499
  895MOL0     H20763  10.007   3.822   0.653  0.1666  1.4384 -0.6412
  895MOL0     H20764  10.171   3.964   0.544  0.4913 -1.0083  0.4938
  895MOL0     H20765  10.203   3.837   0.425 -1.6914 -1.5898  0.0038
  895MOL0     H20766  10.019   3.905   0.303  0.4818 -0.0703 -0.0436
  895MOL0     H20767   9.914   3.865   0.437  0.0925 -1.6130 -1.9813
  895MOL0     H20768  10.051   4.136   0.430  0.6590 -0.2569  1.8658
  895MOL0     H20769   9.905   4.093   0.338  0.7786  0.1680 -0.0996
  895MOL0     H20770   9.797   4.033   0.568 -1.5355  1.0176  0.0691
  895MOL0     H20771   9.941   4.128   0.629  1.3880 -1.8284 -1.0336
  895MOL0     H20772   9.698   4.205   0.455 -2.8725  0.4426  3.0580
  895MOL0     H20773   9.733   4.249   0.620 -0.1468 -0.8737  0.2415
  895MOL0     H20774   9.788   4.439   0.448 -1.0782 -0.4923  2.6532
  895MOL0     H20775   9.908   4.340   0.383 -2.6660  2.4921 -2.1284
  895MOL0     H20776   9.806   4.521   0.709  1.3651  1.6239  0.0069
  895MOL0     H20777   9.991   4.533   0.954 -0.6446  0.1205  0.2823
  895MOL0     H20778  10.152   4.589   0.893 -0.1753  1.0417  1.7091
  895MOL0     H20779   9.898   4.748   0.903 -0.2871  2.3455 -1.7002
  895MOL0     H20780  10.002   4.764   0.760 -2.4862 -4.5047 -1.8840
  895MOL0     H20781  10.180   4.841   0.938  0.3385  1.6351  1.2346
  895MOL0     H20782  10.049   4.805   1.058 -0.6274  1.5469  0.6776
  895MOL0     H20783  10.067   5.042   1.017 -0.0817  1.4052 -0.5722
  895MOL0     H20784   9.906   4.976   0.971  0.4913  1.4718 -0.9529
  895MOL0     H20785  10.021   5.244   0.655 -0.3580  0.5763 -3.1210
  895MOL0     H20786   9.874   5.383   0.440 -0.8759 -0.7357 -0.4372
  895MOL0     H20787   9.780   5.474   0.563 -0.1289 -1.0006  0.4040
  895MOL0     H20788   9.950   5.431   0.592  1.2294 -0.7706 -2.1617
  895MOL0     H20789   9.423   5.132   0.228 -0.1166  0.7272  0.3986
  895MOL0     H20790   9.198   5.201   0.134 -3.4082  0.3785  0.9325
  895MOL0     H20791   8.892   5.359   0.399  0.9552  0.0444 -0.5136
  895MOL0     H20792   8.966   5.502   0.337 -1.3021  0.5903  1.2381
  895MOL0     H20793   8.829   5.500   0.133  0.6569 -1.2707  0.1868
  895MOL0     H20794   8.768   5.337   0.174  0.4547 -0.6278 -1.1307
  895MOL0     H20795   8.715   5.595   0.345  0.0523  0.2670 -2.0180
  895MOL0     H20796   8.652   5.442   0.374 -0.1667  0.0929  0.7021
  895MOL0     H20797   8.622   5.596   0.115  2.8275 -1.0545  1.0982
  895MOL0     H20798   8.530   5.437   0.156 -0.5891  0.0639  1.6915
  895MOL0     H20799   8.475   5.704   0.279  0.7943  0.3268 -0.6004
  895MOL0     H20800   8.411   5.532   0.317 -0.8470 -0.5305 -2.2467
  895MOL0     H20801   8.348   5.660   0.066  1.6227  0.9662  0.9734
  895MOL0     H20802   8.313   5.497   0.127 -3.1649 -0.9217  2.4371
  895MOL0     H20803   8.207   5.758   0.266  2.1636 -0.3662  0.6851
  895MOL0     H20804   8.187   5.591   0.312 -3.6258 -1.2284 -0.0186
  895MOL0     H20805   8.064   5.539   0.079 -0.1385 -0.8767  1.0281
  895MOL0     H20806   8.074   5.699   0.037  0.3033  0.6734  0.5787
  895MOL0     H20807   9.092   5.364   0.518  1.9146  2.2926 -0.7559
  895MOL0     H20808   9.299   5.292   0.604 -2.9836 -3.4986  2.0426
  895MOL0     H20809   9.581   5.026   0.719 -0.0947  1.0127  0.0216
  895MOL0     H20810   9.770   4.929   0.814  0.2394  1.1591  0.9740
  895MOL0     H20811  10.484   3.510   0.491 -3.4653 -0.9054  0.7568
  895MOL0     H20812  10.709   3.451   0.580 -0.4330 -0.0360 -1.0148
  895MOL0     H20813  10.932   3.401   1.173 -0.7283  1.2657 -0.7941
  895MOL0     H20814  11.171   3.314   1.218  1.3327 -1.1252 -0.0106
  895MOL0     H20815  11.403   3.187   0.866  0.7377  1.0439 -0.5275
  895MOL0     H20816  11.470   3.341   0.925  0.1608  0.1709  2.1191
  895MOL0     H20817  11.588   3.239   1.113  1.2648 -2.4472  1.6928
  895MOL0     H20818  11.642   3.168   0.958  0.4710 -2.4282  1.0200
  895MOL0     H20819  11.511   2.969   0.999 -1.9008 -0.0617 -0.3059
  895MOL0     H20820  11.447   3.038   1.148  1.8754 -0.4583  1.4124
  895MOL0     H20821  11.752   3.005   1.104  0.7117  0.9588  0.6381
  895MOL0     H20822  11.650   2.884   1.180 -1.3530  1.2462 -0.7398
  895MOL0     H20823  11.707   3.157   1.499 -0.3702  1.2756  0.1070
  895MOL0     H20824  11.226   3.279   0.791  0.5509  0.5551  0.5264
  895MOL0     H20825  11.002   3.377   0.747 -0.5665  1.0253  1.5689
  896MOL0     O20826   5.770   8.158   4.912  0.6926 -0.0822  0.0596
  896MOL0     C20827   5.780   8.270   4.971 -0.1739  0.7564  0.7495
  896MOL0     O20828   5.693   8.366   4.969 -0.8748  0.0509 -0.7798
  896MOL0     C20829   5.570   8.359   4.914  0.5884  0.4977  0.3569
  896MOL0     C20830   5.540   8.293   4.797 -0.1366 -0.1808 -0.2620
  896MOL0     C20831   5.400   8.286   4.757 -0.6645  1.2059  0.4916
  896MOL0     C20832   5.303   8.338   4.844  0.9522 -0.4168 -0.3504
  896MOL0     O20833   5.167   8.333   4.825 -0.2106  0.5052  0.5478
  896MOL0     C20834   5.119   8.225   4.741 -0.2874  0.2820 -0.2454
  896MOL0     C20835   4.969   8.229   4.717 -0.5241 -0.1207  0.6637
  896MOL0     C20836   4.916   8.091   4.708  0.2781  0.4359  0.1985
  896MOL0     C20837   4.761   8.090   4.715  0.2386  0.3407  0.0944
  896MOL0     C20838   4.703   8.130   4.854 -0.1200 -0.3492 -0.2831
  896MOL0     C20839   4.569   8.075   4.890 -0.5648 -0.1257  1.0634
  896MOL0     C20840   4.455   8.119   4.796  0.0964  0.0457 -0.5865
  896MOL0     C20841   4.317   8.081   4.860  0.0278  0.1423  0.3731
  896MOL0     N20842   4.200   8.128   4.789 -0.2817 -1.5190 -0.4294
  896MOL0     C20843   4.074   8.067   4.777 -0.0155  1.1856 -0.4486
  896MOL0     C20844   3.997   8.147   4.697 -0.5707  0.0047 -0.2632
  896MOL0     C20845   3.860   8.108   4.647  0.4017  0.3059  0.6269
  896MOL0     C20846   3.759   8.214   4.705  0.4519  0.1031 -0.3233
  896MOL0     C20847   3.621   8.208   4.632 -0.0810 -0.7625 -0.2641
  896MOL0     C20848   3.502   8.263   4.715  0.4935 -0.3397  0.8514
  896MOL0     O20849   3.374   8.207   4.679  0.8408 -0.5333  0.0129
  896MOL0     C20850   3.275   8.298   4.679  0.3975  0.0524  0.0588
  896MOL0     C20851   3.267   8.399   4.583  0.3301 -0.5420 -0.2797
  896MOL0     C20852   3.145   8.475   4.561  0.0598 -0.3495 -0.0004
  896MOL0     C20853   3.131   8.577   4.454 -0.5215 -0.3522  0.7449
  896MOL0     C20854   3.033   8.439   4.638 -1.1068 -0.7598  0.0099
  896MOL0     C20855   2.904   8.506   4.628  0.7708  0.4427 -0.3541
  896MOL0     O20856   2.799   8.423   4.619 -0.3177  0.7419 -0.4791
  896MOL0     C20857   2.679   8.483   4.612 -0.4847 -0.4646 -0.2067
  896MOL0     C20858   2.645   8.554   4.493  0.3981  0.0702 -0.9993
  896MOL0     C20859   2.507   8.597   4.490 -0.7607  0.0764  0.7403
  896MOL0     C20860   2.415   8.577   4.588  0.4347 -0.0069 -0.0067
  896MOL0     O20861   2.289   8.638   4.566 -0.3534  0.2971  0.0082
  896MOL0     C20862   2.184   8.609   4.658 -1.0962 -0.6983 -0.8710
  896MOL0     C20863   2.086   8.494   4.607 -0.6288  0.8610 -0.1245
  896MOL0     C20864   1.949   8.480   4.677 -0.2947 -1.1604 -0.7611
  896MOL0     C20865   1.849   8.602   4.649  0.7547  0.7810 -0.3008
  896MOL0     C20866   1.692   8.578   4.687  0.0925 -0.6630  0.4372
  896MOL0     C20867   1.620   8.702   4.684  0.6026  0.0962  0.3700
  896MOL0     C20868   1.465   8.673   4.702  0.1494  0.5638  0.1968
  896MOL0     C20869   1.389   8.805   4.722 -0.0069 -0.2392  0.8838
  896MOL0    Cl20870   1.223   8.778   4.792 -0.0378  0.4239 -0.8653
  896MOL0     C20871   2.464   8.525   4.714  0.3000  1.2357  0.9689
  896MOL0     C20872   2.589   8.462   4.715 -0.1485 -0.2107  1.0104
  896MOL0     O20873   2.897   8.627   4.641 -0.1357 -0.0002 -0.4756
  896MOL0     C20874   3.038   8.317   4.725 -0.7117  0.1583 -0.0072
  896MOL0     C20875   3.159   8.254   4.739 -0.5270 -0.5664 -0.6712
  896MOL0     N20876   4.075   8.249   4.657 -0.5366  0.0666  0.0740
  896MOL0     N20877   4.195   8.237   4.710 -0.5382 -0.1648 -0.7451
  896MOL0     C20878   5.342   8.403   4.964 -0.4233  0.4121 -0.1754
  896MOL0     C20879   5.478   8.418   4.998  0.2556 -0.3420 -0.2109
  896MOL0     C20880   5.899   8.286   5.060 -0.1406  0.0138  0.1928
  896MOL0     C20881   5.914   8.398   5.139  1.0988 -0.7306  0.6366
  896MOL0     C20882   6.021   8.420   5.219 -0.5591  0.6388  0.4766
  896MOL0     C20883   6.130   8.331   5.203  0.5384 -0.4913 -0.1733
  896MOL0     O20884   6.247   8.344   5.275  0.6376 -0.3232 -0.3938
  896MOL0     C20885   6.272   8.475   5.323  0.1322 -0.8638 -0.4443
  896MOL0     C20886   6.393   8.447   5.415 -0.4025  0.5283  0.0274
  896MOL0     C20887   6.538   8.435   5.349 -0.2679 -0.7927 -0.7404
  896MOL0     C20888   6.654   8.418   5.454 -0.4271 -0.0955 -0.1177
  896MOL0     C20889   6.639   8.276   5.513  0.0792 -0.0636  0.1631
  896MOL0     C20890   6.625   8.165   5.571 -0.0666  0.0524 -0.0908
  896MOL0     C20891   6.114   8.208   5.137  0.1683 -0.0163  0.0398
  896MOL0     C20892   5.998   8.185   5.065  0.4637  0.5893 -0.5758
  896MOL0     H20893   5.611   8.234   4.740 -2.5836 -1.7773 -1.8842
  896MOL0     H20894   5.380   8.235   4.663  3.2776  0.4379 -0.0852
  896MOL0     H20895   5.172   8.224   4.645  3.0320 -0.1630  1.4508
  896MOL0     H20896   5.146   8.128   4.785 -1.3675  0.4095  0.7421
  896MOL0     H20897   4.928   8.281   4.804  2.7416  1.1459  1.6131
  896MOL0     H20898   4.937   8.289   4.632 -0.7538  0.0462  0.8658
  896MOL0     H20899   4.947   8.035   4.619 -2.3153  1.4405 -1.4661
  896MOL0     H20900   4.940   8.033   4.798  0.0605 -3.3560 -1.9624
  896MOL0     H20901   4.724   8.160   4.640  2.0639  0.4055 -0.8249
  896MOL0     H20902   4.717   7.996   4.681 -1.5670  2.2280 -3.2011
  896MOL0     H20903   4.764   8.086   4.933 -2.9117 -0.5168  1.9187
  896MOL0     H20904   4.712   8.238   4.872  1.2839 -0.2732 -1.2263
  896MOL0     H20905   4.573   7.966   4.889 -2.3136 -0.2502  2.3050
  896MOL0     H20906   4.547   8.113   4.991 -1.7994  2.6060 -0.1324
  896MOL0     H20907   4.453   8.227   4.779 -2.5097  0.1258 -0.2224
  896MOL0     H20908   4.474   8.082   4.695 -0.0478  5.4597 -2.9373
  896MOL0     H20909   4.315   8.123   4.961  1.5404 -0.0973  0.5267
  896MOL0     H20910   4.315   7.973   4.873  2.0998  0.0226  0.1620
  896MOL0     H20911   4.048   7.966   4.805  1.2651  0.5179 -1.5650
  896MOL0     H20912   3.865   8.104   4.537 -1.4272  1.3504  0.4633
  896MOL0     H20913   3.833   8.009   4.685 -1.8103  1.2002  1.5876
  896MOL0     H20914   3.801   8.311   4.678 -0.6676  0.0358 -2.5707
  896MOL0     H20915   3.756   8.191   4.812  1.7598 -0.1683 -0.3203
  896MOL0     H20916   3.597   8.103   4.614 -1.0405 -0.6922  0.5731
  896MOL0     H20917   3.633   8.261   4.537 -0.6372 -2.6208 -1.4367
  896MOL0     H20918   3.504   8.372   4.708 -0.6003 -0.2583  1.6052
  896MOL0     H20919   3.523   8.225   4.815  2.4231  1.1391  1.0652
  896MOL0     H20920   3.349   8.405   4.513 -0.2292 -2.3430 -1.1792
  896MOL0     H20921   3.056   8.539   4.384  0.1889 -0.4020 -0.0034
  896MOL0     H20922   3.107   8.678   4.490  2.5740  0.4116  0.9205
  896MOL0     H20923   3.222   8.600   4.397 -2.2316  3.0630 -0.9438
  896MOL0     H20924   2.710   8.571   4.407 -0.2773  0.7589 -1.3862
  896MOL0     H20925   2.470   8.636   4.396 -2.1346 -3.0557 -0.1441
  896MOL0     H20926   2.214   8.572   4.756  0.3186  0.7378 -0.7278
  896MOL0     H20927   2.125   8.699   4.679  0.4806 -0.4391  3.5850
  896MOL0     H20928   2.071   8.518   4.501 -0.1597  0.4538 -0.2826
  896MOL0     H20929   2.139   8.402   4.632 -1.9476  0.5429  1.7513
  896MOL0     H20930   1.957   8.473   4.786  0.3996 -0.8445 -0.7870
  896MOL0     H20931   1.907   8.385   4.643  2.5046 -2.1426 -1.7493
  896MOL0     H20932   1.880   8.692   4.702 -0.7428  0.2838  1.5189
  896MOL0     H20933   1.859   8.623   4.542  1.0431  1.6657 -0.1055
  896MOL0     H20934   1.693   8.541   4.790 -0.1557 -2.7083 -0.2478
  896MOL0     H20935   1.650   8.512   4.611  2.5189  0.0737 -1.6997
  896MOL0     H20936   1.651   8.777   4.758  2.4336  2.9844 -2.9964
  896MOL0     H20937   1.642   8.739   4.583  1.0573  0.6245  0.6547
  896MOL0     H20938   1.460   8.609   4.791  0.3891 -1.6787 -1.3142
  896MOL0     H20939   1.417   8.615   4.622 -0.6588  0.6412  0.6104
  896MOL0     H20940   1.392   8.856   4.625  0.1818 -4.2400 -1.4475
  896MOL0     H20941   1.446   8.860   4.797  0.5839  1.3447 -0.6738
  896MOL0     H20942   2.422   8.535   4.813 -0.2567 -2.5942  1.2580
  896MOL0     H20943   2.646   8.418   4.797  1.5421  0.4049  0.2130
  896MOL0     H20944   2.946   8.279   4.769 -0.5359 -0.6196 -0.2881
  896MOL0     H20945   3.177   8.171   4.806  1.2470  0.9168  0.8042
  896MOL0     H20946   5.283   8.457   5.037  1.3144  0.8239  0.9985
  896MOL0     H20947   5.522   8.470   5.082 -3.6771 -1.2042  2.7097
  896MOL0     H20948   5.835   8.472   5.127  1.5665 -0.3325 -0.0031
  896MOL0     H20949   6.023   8.507   5.284  1.0444 -0.0358  1.3747
  896MOL0     H20950   6.294   8.539   5.238  2.4918 -0.8025  0.1321
  896MOL0     H20951   6.191   8.514   5.385  2.7742  1.4253  1.8039
  896MOL0     H20952   6.369   8.355   5.469 -2.3541  1.4251  0.8174
  896MOL0     H20953   6.394   8.520   5.496 -2.0708  0.2928  0.3109
  896MOL0     H20954   6.555   8.530   5.297  1.2758 -0.6463 -0.0109
  896MOL0     H20955   6.536   8.349   5.282 -0.1164 -2.5372  1.3985
  896MOL0     H20956   6.644   8.484   5.541 -0.1661 -3.7561  2.9602
  896MOL0     H20957   6.749   8.431   5.402  0.5329  1.9355  1.9469
  896MOL0     H20958   6.603   8.075   5.626 -1.5612 -0.4812 -1.4716
  896MOL0     H20959   6.198   8.140   5.147 -1.0155 -1.4266  0.8338
  896MOL0     H20960   5.995   8.095   5.003 -0.2345  1.6654 -2.1660
  897MOL0     O20961   9.549   8.447   2.768  0.2282  0.1790  0.3153
  897MOL0     C20962   9.610   8.551   2.772  0.4525 -0.9157  0.3514
  897MOL0     O20963   9.553   8.679   2.796  0.1978  0.4031  0.3324
  897MOL0     C20964   9.419   8.686   2.827 -0.3637  0.4081  0.4430
  897MOL0     C20965   9.380   8.740   2.950 -0.4428 -0.1977  0.1336
  897MOL0     C20966   9.241   8.731   2.981  0.0993  0.2814 -0.8763
  897MOL0     C20967   9.138   8.696   2.888 -0.1055  0.2081 -0.3161
  897MOL0     O20968   9.003   8.697   2.920 -0.4389  0.2908 -0.1359
  897MOL0     C20969   8.918   8.602   2.852 -0.8397 -0.4587 -0.5409
  897MOL0     C20970   8.785   8.618   2.930  0.2368  0.4161  0.3510
  897MOL0     C20971   8.671   8.550   2.843 -0.3294 -0.3575 -0.3796
  897MOL0     C20972   8.549   8.507   2.923 -0.0383  0.3831 -0.2783
  897MOL0     C20973   8.464   8.398   2.865 -0.4305  0.3631  0.1268
  897MOL0     C20974   8.375   8.333   2.973 -0.1196 -0.9120 -0.2119
  897MOL0     C20975   8.274   8.248   2.896 -0.2450  0.0579 -0.3619
  897MOL0     C20976   8.163   8.196   2.997  1.0953  0.2818  0.0155
  897MOL0     N20977   8.051   8.116   2.942 -0.1191 -0.3260 -0.1353
  897MOL0     C20978   8.066   7.986   2.907  0.1672  0.3911  0.7664
  897MOL0     C20979   7.964   7.954   2.822 -0.3341 -0.0189 -0.1543
  897MOL0     C20980   7.957   7.831   2.749  0.0740 -0.4409  1.0251
  897MOL0     C20981   7.885   7.718   2.810 -0.2226 -0.1738  1.4015
  897MOL0     C20982   7.962   7.593   2.783  0.1940 -0.1523 -0.0378
  897MOL0     C20983   7.880   7.470   2.826 -0.5008 -0.2244  0.4790
  897MOL0     O20984   7.753   7.456   2.764 -0.5581 -0.0491 -0.3348
  897MOL0     C20985   7.670   7.351   2.793  0.4119  0.6126 -0.6453
  897MOL0     C20986   7.709   7.219   2.838 -1.2206 -0.7611  0.4827
  897MOL0     C20987   7.617   7.110   2.833 -0.2783  0.5745 -0.2083
  897MOL0     C20988   7.664   6.975   2.883 -0.4655 -0.0842 -0.1336
  897MOL0     C20989   7.487   7.130   2.780 -0.1115 -0.0584 -0.6114
  897MOL0     C20990   7.379   7.025   2.762  0.0315  0.7139 -0.2052
  897MOL0     O20991   7.255   7.061   2.712  0.1266 -0.2118 -0.0670
  897MOL0     C20992   7.145   6.976   2.694 -0.4017 -0.1375 -0.2159
  897MOL0     C20993   7.039   7.038   2.629 -0.4301  0.5183 -0.3337
  897MOL0     C20994   6.921   6.970   2.597  0.4108 -0.0310 -1.0536
  897MOL0     C20995   6.895   6.846   2.656  0.0238  0.1298  0.1790
  897MOL0     O20996   6.782   6.775   2.643 -0.6823 -0.3755  0.3656
  897MOL0     C20997   6.653   6.841   2.621 -0.0287 -0.4673  0.7297
  897MOL0     C20998   6.611   6.937   2.737 -0.8842  0.2861  0.8582
  897MOL0     C20999   6.468   6.974   2.747 -0.3643  0.7521 -0.0872
  897MOL0     C21000   6.423   7.097   2.659  0.5360  0.5897  0.1944
  897MOL0     C21001   6.275   7.121   2.674  0.1165  0.0912  0.0631
  897MOL0     C21002   6.236   7.200   2.808 -1.0270  1.2815 -0.2423
  897MOL0     C21003   6.269   7.343   2.808  0.7957  0.7590 -0.0557
  897MOL0     C21004   6.207   7.422   2.922 -0.2561 -0.0084  0.5035
  897MOL0    Cl21005   6.043   7.480   2.886  0.0513 -0.0989 -0.1829
  897MOL0     C21006   7.001   6.779   2.721 -0.2404 -0.7096 -0.5228
  897MOL0     C21007   7.122   6.845   2.744  0.7668 -0.0890  0.1858
  897MOL0     O21008   7.409   6.914   2.814  0.3231 -0.0605  0.4506
  897MOL0     C21009   7.458   7.258   2.724 -0.0834  0.2123 -0.5318
  897MOL0     C21010   7.543   7.365   2.735 -0.3095 -0.1011 -1.3373
  897MOL0     N21011   7.882   8.071   2.811  0.1108 -0.0770  0.2519
  897MOL0     N21012   7.931   8.161   2.898  0.2268  0.1150  0.6507
  897MOL0     C21013   9.189   8.638   2.766 -0.7247  0.9698  0.1147
  897MOL0     C21014   9.325   8.632   2.736 -0.3707 -0.2133 -1.3559
  897MOL0     C21015   9.758   8.536   2.751 -0.5490 -0.6345  0.4253
  897MOL0     C21016   9.824   8.421   2.712  0.8419  0.0464 -0.6817
  897MOL0     C21017   9.966   8.407   2.701  0.2585 -0.2143  0.3973
  897MOL0     C21018  10.046   8.512   2.716 -0.0548  0.4412  0.6306
  897MOL0     O21019  10.181   8.494   2.718 -0.2616 -0.0648 -0.3197
  897MOL0     C21020  10.280   8.601   2.687 -0.7384  0.0603 -0.4728
  897MOL0     C21021  10.293   8.616   2.536 -0.3862 -0.1385 -0.0226
  897MOL0     C21022  10.328   8.487   2.469  0.5584  0.2395 -0.4734
  897MOL0     C21023  10.365   8.508   2.323  0.2780 -0.6788  0.1783
  897MOL0     C21024  10.338   8.389   2.245  0.0341 -1.3124  0.4885
  897MOL0     C21025  10.319   8.295   2.179 -0.5193  0.5817  0.0095
  897MOL0     C21026   9.989   8.633   2.760 -0.3290 -0.1259 -0.6003
  897MOL0     C21027   9.849   8.647   2.771  0.3791 -0.6445 -0.0264
  897MOL0     H21028   9.457   8.762   3.023 -0.4151 -1.5052  0.5355
  897MOL0     H21029   9.202   8.766   3.076  0.6027  1.8274 -1.2084
  897MOL0     H21030   8.908   8.638   2.749  2.6561  0.9316 -0.5463
  897MOL0     H21031   8.950   8.498   2.858  0.6354  0.0378  0.7028
  897MOL0     H21032   8.798   8.578   3.031  2.3388  2.0720  0.7989
  897MOL0     H21033   8.759   8.724   2.939  2.1593  0.7876  2.1212
  897MOL0     H21034   8.641   8.611   2.758 -1.2187 -1.3308 -0.7887
  897MOL0     H21035   8.723   8.459   2.811  0.8948 -0.2962  1.2794
  897MOL0     H21036   8.585   8.460   3.015 -0.6562  1.0698  0.3283
  897MOL0     H21037   8.492   8.596   2.953  0.7634  0.1406  2.1927
  897MOL0     H21038   8.407   8.436   2.779 -0.7170  1.5764  0.8342
  897MOL0     H21039   8.529   8.321   2.823 -1.3002 -0.2653 -0.1093
  897MOL0     H21040   8.425   8.272   3.049  0.5090  3.3463  3.1287
  897MOL0     H21041   8.329   8.412   3.033 -1.3680 -0.2565 -1.9574
  897MOL0     H21042   8.222   8.315   2.827 -1.7020 -0.8456 -0.1901
  897MOL0     H21043   8.320   8.158   2.852  1.0364  0.2891  0.4408
  897MOL0     H21044   8.123   8.279   3.056  2.3855 -0.8803  2.6804
  897MOL0     H21045   8.213   8.135   3.073  1.5079 -0.9485 -1.1985
  897MOL0     H21046   8.157   7.930   2.923  0.1507  0.1230 -0.0489
  897MOL0     H21047   7.918   7.853   2.649  1.2267  1.2802  0.9063
  897MOL0     H21048   8.061   7.799   2.735 -0.4054 -1.5539 -0.1183
  897MOL0     H21049   7.783   7.715   2.771  0.0477  1.6717  0.4379
  897MOL0     H21050   7.868   7.722   2.918 -2.2019  0.2250  1.1138
  897MOL0     H21051   8.053   7.586   2.843  0.6571 -0.5225 -0.7764
  897MOL0     H21052   7.990   7.585   2.678  2.9678 -1.4990  0.7119
  897MOL0     H21053   7.864   7.472   2.934 -1.4014  2.5193  0.3726
  897MOL0     H21054   7.943   7.387   2.793  0.4587  0.5157  0.4093
  897MOL0     H21055   7.808   7.216   2.883 -1.9177  0.0896  2.1572
  897MOL0     H21056   7.622   6.953   2.982 -1.4553 -0.4407 -0.6277
  897MOL0     H21057   7.639   6.898   2.810  1.2546 -0.8283  0.0086
  897MOL0     H21058   7.773   6.971   2.891 -0.4662 -0.5373 -0.3212
  897MOL0     H21059   7.059   7.141   2.600 -0.3744  1.1440  1.7791
  897MOL0     H21060   6.846   7.027   2.543  0.0098 -0.2406 -0.7188
  897MOL0     H21061   6.651   6.899   2.528  1.1775 -1.5532 -0.0188
  897MOL0     H21062   6.585   6.756   2.612 -1.2915  0.5419  0.4397
  897MOL0     H21063   6.642   6.893   2.832  0.5670 -3.0561 -0.9438
  897MOL0     H21064   6.663   7.032   2.723 -0.1111  0.1377  2.5138
  897MOL0     H21065   6.452   6.997   2.852  1.1758  1.7276 -0.0454
  897MOL0     H21066   6.413   6.880   2.737 -0.9281  0.8922  1.4095
  897MOL0     H21067   6.473   7.192   2.681  2.0384 -0.0649 -0.2682
  897MOL0     H21068   6.439   7.072   2.554  0.2547 -2.4153  0.7768
  897MOL0     H21069   6.227   7.023   2.661  2.1438 -0.8215 -1.0215
  897MOL0     H21070   6.235   7.187   2.597  1.3569 -0.0598 -0.7368
  897MOL0     H21071   6.128   7.186   2.822 -0.7296 -0.3349  0.7257
  897MOL0     H21072   6.273   7.149   2.898  0.6643  0.0116 -1.5844
  897MOL0     H21073   6.234   7.386   2.714 -3.6096 -2.4371 -0.1657
  897MOL0     H21074   6.377   7.354   2.821  0.7895 -0.1522  0.8782
  897MOL0     H21075   6.251   7.521   2.918 -4.5570  2.2107  1.5385
  897MOL0     H21076   6.221   7.383   3.023  1.4560 -1.5033 -0.2550
  897MOL0     H21077   6.994   6.679   2.762  2.0855 -0.9309 -0.5064
  897MOL0     H21078   7.200   6.796   2.801  2.7456  2.0611 -0.5208
  897MOL0     H21079   7.363   7.289   2.682  0.6275  1.3845 -1.3230
  897MOL0     H21080   7.503   7.462   2.704 -1.0873  1.3802  3.5347
  897MOL0     H21081   9.126   8.598   2.688  1.3845  1.3184 -1.8666
  897MOL0     H21082   9.365   8.599   2.642  1.5368  1.0742 -1.0644
  897MOL0     H21083   9.764   8.332   2.697 -0.5672  0.8068  0.1845
  897MOL0     H21084  10.010   8.311   2.675  1.0907  0.2750 -0.0454
  897MOL0     H21085  10.249   8.698   2.729  0.0249 -0.4646  1.4041
  897MOL0     H21086  10.376   8.576   2.732  0.5420  1.0278 -2.5066
  897MOL0     H21087  10.369   8.693   2.520  2.7875 -2.9554  0.2312
  897MOL0     H21088  10.206   8.653   2.481 -1.1476  0.8197  1.7424
  897MOL0     H21089  10.249   8.411   2.474  0.8659 -0.0355  0.2866
  897MOL0     H21090  10.414   8.436   2.514 -0.1545 -0.6280 -0.0603
  897MOL0     H21091  10.472   8.532   2.315  0.3202 -1.3044 -1.6748
  897MOL0     H21092  10.314   8.594   2.278  1.9023  0.2274 -0.0269
  897MOL0     H21093  10.310   8.219   2.103  0.9110  0.9226 -0.5288
  897MOL0     H21094  10.041   8.726   2.784 -3.2498  1.2471  0.8921
  897MOL0     H21095   9.813   8.747   2.795  0.7433 -0.5127 -0.0303
  898MOL0     O21096   9.248   9.124   6.055  0.3325  0.8328 -0.2793
  898MOL0     C21097   9.340   9.110   6.137 -0.6472 -0.4071  0.4653
  898MOL0     O21098   9.332   9.087   6.271 -0.4927 -0.5307  0.6819
  898MOL0     C21099   9.208   9.087   6.323  0.6881 -0.7907  0.6745
  898MOL0     C21100   9.144   8.967   6.355  0.7133  0.1380  0.8974
  898MOL0     C21101   9.019   8.970   6.414 -0.0307  0.0509 -0.7662
  898MOL0     C21102   8.953   9.096   6.446  0.8833 -0.5787 -0.6089
  898MOL0     O21103   8.830   9.091   6.511  0.0357  0.0881  0.1967
  898MOL0     C21104   8.756   9.212   6.548  0.2924  0.5643 -0.5047
  898MOL0     C21105   8.622   9.165   6.591 -0.5417 -0.3376 -0.3148
  898MOL0     C21106   8.527   9.103   6.494 -0.3587 -1.1149  0.0370
  898MOL0     C21107   8.457   9.200   6.397  0.5858  0.2531  0.3163
  898MOL0     C21108   8.355   9.117   6.314  0.3158 -0.5975  0.3499
  898MOL0     C21109   8.241   9.204   6.265 -0.2042  0.0082  0.5664
  898MOL0     C21110   8.122   9.117   6.200  0.1663 -0.0306  0.5425
  898MOL0     C21111   8.014   9.214   6.158 -0.1887 -0.0546 -0.3885
  898MOL0     N21112   7.898   9.143   6.119  0.5303  1.2760 -0.6244
  898MOL0     C21113   7.811   9.196   6.022  1.0891  0.2513  0.3374
  898MOL0     C21114   7.684   9.142   6.044 -0.5390  0.5099 -0.8901
  898MOL0     C21115   7.555   9.177   5.973  0.3806 -0.0434  0.3033
  898MOL0     C21116   7.523   9.319   5.948 -0.6777  0.0490 -0.0350
  898MOL0     C21117   7.388   9.343   5.884 -0.0979 -0.3360  0.6438
  898MOL0     C21118   7.354   9.493   5.890 -0.2458 -0.4658 -0.2101
  898MOL0     O21119   7.252   9.524   5.792  0.2676  0.1039  0.5785
  898MOL0     C21120   7.154   9.614   5.810  0.0153  0.1636  0.6276
  898MOL0     C21121   7.148   9.704   5.912  0.2254 -0.1870 -0.1620
  898MOL0     C21122   7.052   9.805   5.919 -0.1634  0.7908 -0.4311
  898MOL0     C21123   7.086   9.915   6.023  0.6752 -0.9826  0.0410
  898MOL0     C21124   6.942   9.809   5.831  0.4755 -0.0223 -0.4628
  898MOL0     C21125   6.835   9.913   5.830 -0.5814 -0.1143  0.2274
  898MOL0     O21126   6.857  10.027   5.895  0.0636  0.2378  0.0961
  898MOL0     C21127   6.765  10.123   5.874  0.7013 -1.6409 -0.5382
  898MOL0     C21128   6.767  10.226   5.783 -1.2411  0.2566 -0.0678
  898MOL0     C21129   6.663  10.326   5.782 -0.8730  0.0817 -0.7032
  898MOL0     C21130   6.550  10.301   5.867  0.5598 -0.5740 -0.5182
  898MOL0     O21131   6.440  10.392   5.847  0.1718 -0.0272 -0.1067
  898MOL0     C21132   6.322  10.377   5.929  0.3902  1.0238 -0.1031
  898MOL0     C21133   6.218  10.487   5.897 -0.2647  0.3110 -0.0887
  898MOL0     C21134   6.103  10.483   5.993 -1.1754  0.3099  0.0381
  898MOL0     C21135   6.012  10.604   5.970  0.4657  0.5033  0.2495
  898MOL0     C21136   5.892  10.601   6.059  0.1919  0.4495 -0.2269
  898MOL0     C21137   5.813  10.729   6.047 -0.1558 -0.1977 -0.2210
  898MOL0     C21138   5.687  10.727   6.141  0.0314  0.3360  0.0568
  898MOL0     C21139   5.575  10.671   6.055  0.6248 -0.2520 -0.3945
  898MOL0    Cl21140   5.426  10.714   6.152 -0.1397 -0.0939 -0.1795
  898MOL0     C21141   6.545  10.197   5.969  0.5206  0.6864 -0.2268
  898MOL0     C21142   6.654  10.110   5.962  0.2806  1.0099  0.8775
  898MOL0     O21143   6.750   9.901   5.739  0.1780  1.0528 -0.5401
  898MOL0     C21144   6.936   9.699   5.740 -0.6281  0.0251  0.0426
  898MOL0     C21145   7.046   9.607   5.729 -0.0452  0.2842  0.3144
  898MOL0     N21146   7.702   9.063   6.156 -0.2447 -0.5137  0.5531
  898MOL0     N21147   7.827   9.058   6.201  0.2484  0.6848 -0.8900
  898MOL0     C21148   9.021   9.215   6.418  1.0329  0.5507 -0.3591
  898MOL0     C21149   9.150   9.212   6.365  0.0942  0.1030 -1.1156
  898MOL0     C21150   9.473   9.107   6.072  0.6191  0.1275 -0.5258
  898MOL0     C21151   9.482   9.054   5.943 -0.2599  0.1825  0.2828
  898MOL0     C21152   9.606   9.011   5.893  0.1955 -0.1595  0.4375
  898MOL0     C21153   9.722   9.022   5.967  0.1664 -1.4399  0.2994
  898MOL0     O21154   9.851   9.006   5.912 -0.2970  0.3013 -0.1432
  898MOL0     C21155   9.890   8.875   5.872  0.1005  1.1121 -0.6074
  898MOL0     C21156  10.035   8.841   5.922  0.4786  0.5134  0.0818
  898MOL0     C21157  10.033   8.813   6.072  0.5026  0.0278 -0.1419
  898MOL0     C21158   9.979   8.673   6.111  0.0490  0.2929 -0.1053
  898MOL0     C21159  10.057   8.551   6.091 -0.6036 -0.0038  0.2903
  898MOL0     C21160  10.121   8.448   6.067 -0.0056 -0.3732  0.4732
  898MOL0     C21161   9.711   9.108   6.080 -0.2513 -0.2731  0.1639
  898MOL0     C21162   9.588   9.140   6.139  0.5089 -0.1760  0.6932
  898MOL0     H21163   9.184   8.868   6.337 -0.3616  0.0966 -1.8818
  898MOL0     H21164   8.972   8.873   6.424  0.2668 -0.0004  0.3566
  898MOL0     H21165   8.817   9.259   6.626 -0.2846  0.5221 -0.0212
  898MOL0     H21166   8.733   9.286   6.470  0.2725  1.4413  0.3111
  898MOL0     H21167   8.629   9.099   6.678 -0.7701  1.2727  0.9740
  898MOL0     H21168   8.563   9.252   6.624 -0.0763  0.0471 -0.4903
  898MOL0     H21169   8.586   9.034   6.433  0.7568  0.6815 -1.0130
  898MOL0     H21170   8.461   9.044   6.558  1.4272 -0.9770  2.1207
  898MOL0     H21171   8.407   9.286   6.442 -2.7170  0.3028 -2.9211
  898MOL0     H21172   8.523   9.246   6.322 -0.4355 -0.9528 -1.4132
  898MOL0     H21173   8.400   9.076   6.223  0.9195  2.0645 -0.6423
  898MOL0     H21174   8.314   9.033   6.371  1.6560 -0.5787  1.3972
  898MOL0     H21175   8.194   9.259   6.347 -0.8218 -0.0070  0.2298
  898MOL0     H21176   8.280   9.273   6.191 -0.1445 -0.5346  0.0812
  898MOL0     H21177   8.165   9.079   6.107  0.2609  0.9215  0.1801
  898MOL0     H21178   8.091   9.030   6.258  1.9021 -0.3634  1.0308
  898MOL0     H21179   8.050   9.280   6.079 -1.8810 -0.1984 -1.3125
  898MOL0     H21180   7.982   9.282   6.238 -0.1220 -0.4452 -0.0219
  898MOL0     H21181   7.840   9.269   5.947  4.0784  0.7505  1.8323
  898MOL0     H21182   7.540   9.119   5.881 -2.7560  1.7016 -0.4115
  898MOL0     H21183   7.478   9.137   6.039  1.0456 -4.1061 -1.0806
  898MOL0     H21184   7.599   9.358   5.880  0.9083 -0.7991  1.1734
  898MOL0     H21185   7.539   9.370   6.044  1.8624  0.7498 -0.7344
  898MOL0     H21186   7.307   9.281   5.923 -0.7292  1.8645  3.1310
  898MOL0     H21187   7.406   9.313   5.780  3.5426 -1.4597  1.4689
  898MOL0     H21188   7.440   9.557   5.867  0.9856 -0.9046  2.7400
  898MOL0     H21189   7.318   9.524   5.988  1.5467 -0.0439  0.3649
  898MOL0     H21190   7.228   9.718   5.984  0.4981  0.3277 -0.5614
  898MOL0     H21191   7.001   9.948   6.084  1.3586 -0.4253  0.7212
  898MOL0     H21192   7.167   9.889   6.092 -0.5547  2.7622  3.2519
  898MOL0     H21193   7.130  10.007   5.983  2.5288 -1.8757 -0.0439
  898MOL0     H21194   6.851  10.238   5.716  0.6076  3.0239  2.4525
  898MOL0     H21195   6.684  10.416   5.724  1.6235 -0.6083 -0.9629
  898MOL0     H21196   6.271  10.283   5.906 -1.0980  1.9276 -0.6276
  898MOL0     H21197   6.352  10.379   6.034  0.0365 -0.2491  0.0260
  898MOL0     H21198   6.264  10.584   5.917 -0.4556  0.6269 -1.1474
  898MOL0     H21199   6.195  10.495   5.791  1.9270  0.1794 -0.6273
  898MOL0     H21200   6.142  10.481   6.095  0.7861  2.0838 -0.5976
  898MOL0     H21201   6.052  10.386   5.986  1.2983 -1.2144  1.7358
  898MOL0     H21202   6.063  10.698   5.990  2.3247 -0.2862 -0.5568
  898MOL0     H21203   5.986  10.595   5.864  0.6309 -3.0573  0.3994
  898MOL0     H21204   5.912  10.591   6.166 -2.6483 -1.1705  0.2573
  898MOL0     H21205   5.828  10.515   6.040  0.6649  0.1779 -0.5878
  898MOL0     H21206   5.871  10.813   6.087 -3.6060  2.1716  0.2313
  898MOL0     H21207   5.784  10.755   5.945 -1.3263  0.9206  0.3614
  898MOL0     H21208   5.649  10.825   6.174 -0.0693  0.4164 -0.2942
  898MOL0     H21209   5.697  10.663   6.229  0.1183 -1.0373 -0.9277
  898MOL0     H21210   5.578  10.564   6.035 -1.2006 -0.9273  2.4131
  898MOL0     H21211   5.568  10.731   5.963  1.3629  0.0770 -0.2475
  898MOL0     H21212   6.450  10.192   6.022  0.0452  1.2716 -1.0065
  898MOL0     H21213   6.652  10.035   6.040 -0.0326  2.1256  1.9859
  898MOL0     H21214   6.855   9.681   5.670  0.6562  0.9249 -1.7622
  898MOL0     H21215   7.040   9.525   5.658  2.5326  0.7306 -0.5170
  898MOL0     H21216   8.970   9.307   6.448 -1.6850  0.1715 -3.2465
  898MOL0     H21217   9.201   9.308   6.361  0.5453  0.1764  2.9347
  898MOL0     H21218   9.399   9.025   5.880  1.7915 -1.2207 -1.9779
  898MOL0     H21219   9.620   8.978   5.791 -1.1381  1.6962 -0.4001
  898MOL0     H21220   9.815   8.802   5.903  0.8306  1.0322  1.1128
  898MOL0     H21221   9.893   8.869   5.763  0.5792 -1.4454 -0.5165
  898MOL0     H21222  10.102   8.926   5.910  2.2411 -0.4886  2.1335
  898MOL0     H21223  10.087   8.757   5.875 -1.1816  1.1467 -3.1403
  898MOL0     H21224   9.983   8.889   6.134 -1.7385 -0.8384 -0.7725
  898MOL0     H21225  10.137   8.821   6.106  0.3636  2.0831 -0.0989
  898MOL0     H21226   9.877   8.658   6.074 -0.4215  0.7149  0.9606
  898MOL0     H21227   9.974   8.672   6.221  0.3548  1.5475 -0.0562
  898MOL0     H21228  10.188   8.367   6.044  2.1123  1.4513 -0.0455
  898MOL0     H21229   9.802   9.136   6.133  0.3555 -2.7365  0.5844
  898MOL0     H21230   9.582   9.185   6.238  1.2523 -1.3156  1.2807
  899MOL0     O21231   0.784   1.474   4.976  1.2444 -0.2699 -0.0653
  899MOL0     C21232   0.817   1.596   4.977 -0.3969  0.3092 -0.1004
  899MOL0     O21233   0.747   1.698   4.936  0.8019  0.0334  0.8017
  899MOL0     C21234   0.642   1.677   4.848 -0.2680 -0.2542  0.7485
  899MOL0     C21235   0.640   1.596   4.735  0.1299  0.2775  0.3288
  899MOL0     C21236   0.517   1.590   4.660 -0.6915  0.7654 -0.6764
  899MOL0     C21237   0.404   1.661   4.693  0.1777 -0.0419  0.2467
  899MOL0     O21238   0.284   1.640   4.623 -0.0805  0.5070 -0.5632
  899MOL0     C21239   0.229   1.744   4.545  0.5513 -0.2307  0.1740
  899MOL0     C21240   0.091   1.703   4.512 -0.3567 -0.7207  0.4640
  899MOL0     C21241   0.015   1.818   4.430  0.1011 -0.4556 -0.1455
  899MOL0     C21242  -0.138   1.817   4.470 -0.2109  0.6433 -0.4180
  899MOL0     C21243  -0.222   1.915   4.379 -0.2109  0.1858 -0.0125
  899MOL0     C21244  -0.361   1.923   4.442 -0.0031  0.2161 -0.4889
  899MOL0     C21245  -0.434   2.020   4.361  1.0932  0.1930  0.6357
  899MOL0     C21246  -0.586   2.010   4.389 -0.7303 -0.2319  0.5348
  899MOL0     N21247  -0.647   1.893   4.322  0.0081  0.4690  0.4277
  899MOL0     C21248  -0.701   1.894   4.190 -0.1109  0.0603 -0.3254
  899MOL0     C21249  -0.788   1.783   4.192 -0.3775 -0.7491  0.0750
  899MOL0     C21250  -0.865   1.752   4.076 -1.3693 -0.5216  0.4575
  899MOL0     C21251  -0.966   1.858   4.053  0.2865 -0.6450 -0.0396
  899MOL0     C21252  -1.083   1.815   3.975 -0.0324  0.8450 -0.6664
  899MOL0     C21253  -1.180   1.926   3.934 -0.4861 -0.3544 -0.4063
  899MOL0     O21254  -1.123   2.014   3.844 -0.1377  0.1483 -0.5483
  899MOL0     C21255  -1.199   2.121   3.801  0.1327 -0.6046  0.0818
  899MOL0     C21256  -1.135   2.224   3.725 -0.4514 -0.1070  0.1562
  899MOL0     C21257  -1.205   2.336   3.675 -0.1716 -0.2364  0.0169
  899MOL0     C21258  -1.131   2.425   3.573  0.9299  0.4403 -0.2669
  899MOL0     C21259  -1.343   2.345   3.701 -0.2631 -0.3341 -0.6683
  899MOL0     C21260  -1.423   2.459   3.651 -0.3005 -0.8665  0.5008
  899MOL0     O21261  -1.530   2.409   3.576  0.2913 -0.7326  0.1842
  899MOL0     C21262  -1.592   2.498   3.500  0.5266  0.5560  0.5340
  899MOL0     C21263  -1.545   2.528   3.373 -0.1858  0.1606 -0.8807
  899MOL0     C21264  -1.616   2.607   3.283 -1.2579 -0.0363 -0.0690
  899MOL0     C21265  -1.745   2.653   3.323  0.2201  0.2486  0.0397
  899MOL0     O21266  -1.823   2.741   3.240  0.5669 -0.3606  0.1851
  899MOL0     C21267  -1.771   2.851   3.170  0.4186  0.0386  0.0089
  899MOL0     C21268  -1.864   2.966   3.126  0.1672 -0.4667 -0.3124
  899MOL0     C21269  -1.912   3.048   3.253 -0.1867  0.2158  0.1978
  899MOL0     C21270  -2.037   3.136   3.221 -0.8127 -0.1884 -0.6250
  899MOL0     C21271  -2.100   3.197   3.350 -0.7645 -0.0190  0.2123
  899MOL0     C21272  -2.009   3.302   3.423 -0.0652  0.1836  0.4627
  899MOL0     C21273  -1.973   3.419   3.339 -0.3049 -0.9900  0.7589
  899MOL0     C21274  -1.904   3.524   3.412 -0.1711  0.1354  0.4979
  899MOL0    Cl21275  -1.764   3.478   3.512 -0.0470 -0.5710 -0.3458
  899MOL0     C21276  -1.794   2.619   3.447  0.0615  0.4546  0.3078
  899MOL0     C21277  -1.716   2.544   3.543  0.1367 -0.0592  0.2227
  899MOL0     O21278  -1.389   2.576   3.662  0.7064  0.0748  0.2243
  899MOL0     C21279  -1.408   2.251   3.780 -0.1406 -0.2890  0.1714
  899MOL0     C21280  -1.339   2.134   3.816 -0.1890 -0.6428  0.4515
  899MOL0     N21281  -0.794   1.732   4.320 -1.0345  0.3394 -0.5112
  899MOL0     N21282  -0.709   1.797   4.393  0.0513 -0.3154 -0.3692
  899MOL0     C21283   0.411   1.740   4.811 -1.2220 -0.5689  0.6240
  899MOL0     C21284   0.526   1.750   4.885 -0.0851 -0.2040 -0.1739
  899MOL0     C21285   0.955   1.617   5.025  0.1525  0.6797  0.5813
  899MOL0     C21286   0.995   1.735   5.088 -0.2443  0.4948 -0.8470
  899MOL0     C21287   1.118   1.748   5.157  0.3899  0.6151 -0.1142
  899MOL0     C21288   1.209   1.644   5.143  0.0491 -0.1730 -0.2496
  899MOL0     O21289   1.339   1.632   5.198  0.1128 -0.1012  0.3267
  899MOL0     C21290   1.377   1.723   5.310  0.3473 -0.1542  0.9886
  899MOL0     C21291   1.467   1.832   5.249 -0.6657  0.6033 -0.3290
  899MOL0     C21292   1.482   1.952   5.344 -0.4175 -0.2683  0.1687
  899MOL0     C21293   1.602   2.044   5.292  0.5411 -0.6365 -0.2805
  899MOL0     C21294   1.677   2.109   5.400 -0.0759  1.6318  0.4347
  899MOL0     C21295   1.749   2.163   5.482  0.9062 -0.4074  0.6541
  899MOL0     C21296   1.183   1.540   5.051  0.5419 -0.1987 -0.0996
  899MOL0     C21297   1.054   1.521   4.994  0.4026  0.7752  0.3803
  899MOL0     H21298   0.729   1.536   4.722  1.0778  2.1559 -2.9524
  899MOL0     H21299   0.490   1.519   4.582 -3.5535  0.3134  0.5998
  899MOL0     H21300   0.228   1.843   4.591 -0.6694  0.6186 -1.5466
  899MOL0     H21301   0.284   1.761   4.451 -2.9825  1.6827 -1.7588
  899MOL0     H21302   0.099   1.612   4.452 -1.7014 -0.5009 -0.0818
  899MOL0     H21303   0.039   1.678   4.605 -1.8521 -1.4363 -0.5093
  899MOL0     H21304   0.038   1.912   4.480 -1.5336 -0.3277  0.4259
  899MOL0     H21305   0.041   1.813   4.324 -0.4338 -1.6306 -0.2440
  899MOL0     H21306  -0.165   1.713   4.451  0.6405  0.7948 -2.7413
  899MOL0     H21307  -0.158   1.838   4.575  0.9495 -0.0585 -0.0371
  899MOL0     H21308  -0.178   2.015   4.378  0.9609 -0.2750 -2.8574
  899MOL0     H21309  -0.229   1.880   4.276 -0.3767 -0.3237  0.1688
  899MOL0     H21310  -0.404   1.823   4.435  0.3054  0.2221 -3.8143
  899MOL0     H21311  -0.356   1.968   4.542  1.7719  0.9811 -0.8774
  899MOL0     H21312  -0.398   2.123   4.360 -0.0943  0.6559  1.9364
  899MOL0     H21313  -0.423   1.999   4.254 -0.1248 -0.4961  0.6239
  899MOL0     H21314  -0.639   2.103   4.366  2.6756  1.3693 -1.6554
  899MOL0     H21315  -0.599   1.995   4.497 -1.5395 -0.8497  0.3587
  899MOL0     H21316  -0.688   1.964   4.107 -3.0083  1.0392 -0.0731
  899MOL0     H21317  -0.799   1.747   3.990 -2.1701 -1.1821 -0.1319
  899MOL0     H21318  -0.910   1.653   4.087 -0.9379 -0.6288  1.3564
  899MOL0     H21319  -0.919   1.941   4.001 -1.3444  0.6149  0.4165
  899MOL0     H21320  -1.004   1.891   4.150  0.7090 -0.1005 -0.0546
  899MOL0     H21321  -1.139   1.743   4.034  0.0916  2.8293  2.0627
  899MOL0     H21322  -1.051   1.749   3.893 -0.6235 -1.3005  0.7599
  899MOL0     H21323  -1.215   1.987   4.018  2.5664  1.0684 -0.0254
  899MOL0     H21324  -1.264   1.873   3.889 -0.2818 -1.1583  0.1204
  899MOL0     H21325  -1.035   2.211   3.685 -0.7511 -0.2869 -0.5592
  899MOL0     H21326  -1.201   2.444   3.491  1.8235  1.1261 -0.9009
  899MOL0     H21327  -1.109   2.521   3.621  1.7632  0.1785 -0.1048
  899MOL0     H21328  -1.036   2.381   3.540  1.7224  0.2466  2.0901
  899MOL0     H21329  -1.445   2.494   3.345  0.0302  0.5920 -0.6357
  899MOL0     H21330  -1.574   2.632   3.186 -0.3154  1.0628  0.5996
  899MOL0     H21331  -1.694   2.901   3.230  1.2195  0.4453 -1.2909
  899MOL0     H21332  -1.727   2.817   3.076  0.4934  0.5405 -0.1413
  899MOL0     H21333  -1.807   3.021   3.051  0.2276  0.9630  0.7506
  899MOL0     H21334  -1.957   2.928   3.082 -0.4896  0.4093  0.2723
  899MOL0     H21335  -1.826   3.095   3.302 -1.1744 -0.1328  2.3708
  899MOL0     H21336  -1.949   2.981   3.331 -0.4871  0.6772  0.4543
  899MOL0     H21337  -1.996   3.209   3.151 -0.8775  1.3032  0.8117
  899MOL0     H21338  -2.112   3.071   3.175  0.7354 -3.5098  1.2128
  899MOL0     H21339  -2.111   3.119   3.425 -0.0544  1.4395  1.9173
  899MOL0     H21340  -2.193   3.243   3.315 -1.1488 -1.3840 -0.6414
  899MOL0     H21341  -2.059   3.328   3.517 -1.3946 -1.3314  0.2018
  899MOL0     H21342  -1.919   3.244   3.448  0.6039  0.6046 -0.8732
  899MOL0     H21343  -2.060   3.464   3.291 -0.2759 -2.0225 -0.3105
  899MOL0     H21344  -1.903   3.382   3.263  0.5964  1.3345  0.3951
  899MOL0     H21345  -1.969   3.580   3.481  2.2402  0.2405  2.8358
  899MOL0     H21346  -1.870   3.593   3.334 -3.2697 -0.8713 -1.9653
  899MOL0     H21347  -1.886   2.665   3.483  0.1769 -0.9626  2.6209
  899MOL0     H21348  -1.752   2.510   3.639 -0.5873 -2.9824 -0.9909
  899MOL0     H21349  -1.513   2.249   3.806  0.1201  2.9138  1.9903
  899MOL0     H21350  -1.397   2.053   3.857 -0.7927 -1.7814 -2.3809
  899MOL0     H21351   0.320   1.790   4.841 -2.3811 -2.8892  1.2488
  899MOL0     H21352   0.527   1.822   4.966  1.0629 -0.4798  0.0700
  899MOL0     H21353   0.927   1.818   5.103 -0.9877  0.0451 -1.6039
  899MOL0     H21354   1.139   1.839   5.211 -2.4392  3.3204 -3.1210
  899MOL0     H21355   1.285   1.773   5.342 -0.4391  0.6120 -2.1653
  899MOL0     H21356   1.427   1.664   5.388 -1.1424 -0.7698  1.5174
  899MOL0     H21357   1.417   1.868   5.159 -0.6929  1.7624  0.1375
  899MOL0     H21358   1.553   1.768   5.227 -1.2973 -1.9498  3.5662
  899MOL0     H21359   1.497   1.908   5.443  0.8367 -0.1312  0.0613
  899MOL0     H21360   1.392   2.012   5.330 -0.0358 -0.1695 -2.4724
  899MOL0     H21361   1.570   2.114   5.215  1.4200  1.2407  0.9726
  899MOL0     H21362   1.687   1.984   5.261  0.3759 -2.5974  2.6393
  899MOL0     H21363   1.796   2.211   5.565 -1.4660  0.9435  1.3270
  899MOL0     H21364   1.256   1.461   5.037  0.0811 -0.7982  0.7803
  899MOL0     H21365   1.030   1.430   4.941 -0.6608  0.4864  1.3105
  900MOL0     O21366   5.487   0.339  10.226 -0.4001  0.5177 -0.1920
  900MOL0     C21367   5.433   0.335  10.338  0.6028  0.0003  0.7636
  900MOL0     O21368   5.490   0.273  10.446  0.2050 -0.4640  0.1290
  900MOL0     C21369   5.623   0.237  10.435 -0.3075  0.3090  0.1654
  900MOL0     C21370   5.686   0.275  10.550  0.2069 -0.1409 -0.0891
  900MOL0     C21371   5.821   0.226  10.566  0.3395 -0.3046 -0.2556
  900MOL0     C21372   5.886   0.154  10.470 -1.1938  0.4574  0.3234
  900MOL0     O21373   6.011   0.096  10.484 -0.2607  0.0942 -0.3129
  900MOL0     C21374   6.016  -0.040  10.515  0.3713 -0.6244  0.1410
  900MOL0     C21375   6.096  -0.138  10.419  0.1447 -0.6082  0.1389
  900MOL0     C21376   6.103  -0.292  10.433  0.6036 -0.2128  0.4004
  900MOL0     C21377   6.148  -0.337  10.577  0.3324  0.1362  1.3026
  900MOL0     C21378   6.095  -0.472  10.614 -0.5441  0.7821  0.4739
  900MOL0     C21379   6.159  -0.526  10.745 -0.4475 -0.1564 -0.1114
  900MOL0     C21380   6.102  -0.669  10.785 -0.8901  0.0023  0.4764
  900MOL0     C21381   6.136  -0.780  10.685 -0.1964 -0.1261  0.4606
  900MOL0     N21382   6.274  -0.775  10.645  0.5968  0.5221  0.4039
  900MOL0     C21383   6.312  -0.799  10.522  0.8367  0.1708  0.4342
  900MOL0     C21384   6.434  -0.839  10.529  0.2099 -0.1823  0.2880
  900MOL0     C21385   6.525  -0.872  10.416  0.1027  0.0598  0.0894
  900MOL0     C21386   6.473  -0.825  10.276  0.1151 -0.4868 -0.1571
  900MOL0     C21387   6.574  -0.877  10.176  0.6983 -0.3082 -0.1869
  900MOL0     C21388   6.529  -0.858  10.032 -0.2396  0.0070  0.0921
  900MOL0     O21389   6.491  -0.719  10.008  0.1420  0.3053 -0.4985
  900MOL0     C21390   6.370  -0.674   9.970  0.3615 -0.1020 -0.2233
  900MOL0     C21391   6.325  -0.550  10.007 -0.6129  0.7658  0.4904
  900MOL0     C21392   6.185  -0.517  10.004 -0.6844 -0.0575 -0.6146
  900MOL0     C21393   6.151  -0.373  10.039 -0.1080 -0.0580 -0.4852
  900MOL0     C21394   6.093  -0.606   9.951 -0.1645  0.1412  0.9116
  900MOL0     C21395   5.951  -0.571   9.951  0.7526  0.3008 -0.4052
  900MOL0     O21396   5.897  -0.525  10.067 -0.0214  0.5373 -0.4334
  900MOL0     C21397   5.756  -0.541  10.090  0.2006 -0.6761  1.0302
  900MOL0     C21398   5.683  -0.663  10.071 -0.2305  0.4502 -0.4940
  900MOL0     C21399   5.542  -0.663  10.083 -0.1210  0.3862 -0.5870
  900MOL0     C21400   5.467  -0.551  10.104  0.3821  0.2617 -0.5292
  900MOL0     O21401   5.328  -0.557  10.094 -0.5814 -0.4091  0.6569
  900MOL0     C21402   5.246  -0.444  10.106  0.6029 -0.6186 -0.8355
  900MOL0     C21403   5.100  -0.482  10.112 -0.8422 -0.3637 -0.4341
  900MOL0     C21404   5.009  -0.359  10.140  0.3881  1.5567 -0.8942
  900MOL0     C21405   4.873  -0.367  10.058  0.0887 -0.0548 -0.0453
  900MOL0     C21406   4.793  -0.243  10.066  0.4070 -0.0985  0.0753
  900MOL0     C21407   4.675  -0.226   9.962 -0.3762  0.0819 -0.1474
  900MOL0     C21408   4.633  -0.080   9.952  0.1561 -0.5898 -0.1316
  900MOL0     C21409   4.512  -0.053   9.864  0.0724  0.6517 -0.3039
  900MOL0    Cl21410   4.362  -0.117   9.930  0.0167  0.2867  0.5406
  900MOL0     C21411   5.538  -0.430  10.123  0.7393 -0.1154 -0.1441
  900MOL0     C21412   5.679  -0.426  10.122  0.4546 -0.4920 -0.7796
  900MOL0     O21413   5.886  -0.598   9.846 -0.0838  0.3051  0.0350
  900MOL0     C21414   6.143  -0.735   9.905  0.1472 -0.5466  0.1473
  900MOL0     C21415   6.281  -0.761   9.916  0.0513  0.4262 -0.5989
  900MOL0     N21416   6.476  -0.826  10.664 -0.2744  0.0985  0.0173
  900MOL0     N21417   6.380  -0.791  10.732 -0.0587 -0.0520  0.6661
  900MOL0     C21418   5.819   0.129  10.350 -0.6531 -0.0204  0.1228
  900MOL0     C21419   5.683   0.160  10.337 -0.1290 -0.0897  0.2498
  900MOL0     C21420   5.289   0.374  10.350 -0.3811  0.3163  0.3240
  900MOL0     C21421   5.216   0.355  10.472  0.9570  0.1859  0.6413
  900MOL0     C21422   5.076   0.381  10.483  1.3029 -0.0581  0.0468
  900MOL0     C21423   5.019   0.451  10.381  0.8737  0.7273 -0.7605
  900MOL0     O21424   4.890   0.471  10.419  1.2100 -0.0283  0.4421
  900MOL0     C21425   4.864   0.616  10.422 -0.3480  0.1186 -0.1386
  900MOL0     C21426   4.733   0.641  10.493  0.4999  0.3162  0.0474
  900MOL0     C21427   4.607   0.574  10.428 -0.5304 -0.2356 -0.0129
  900MOL0     C21428   4.480   0.592  10.508 -0.5577 -0.7089 -1.0784
  900MOL0     C21429   4.438   0.725  10.530  0.1900  0.1882  0.0200
  900MOL0     C21430   4.385   0.838  10.534  0.0251  0.0748  0.1472
  900MOL0     C21431   5.094   0.485  10.264 -1.2261  0.8594  0.2856
  900MOL0     C21432   5.230   0.450  10.247  0.5154  0.7893  0.4261
  900MOL0     H21433   5.626   0.321  10.629 -0.7992 -0.5966 -0.5687
  900MOL0     H21434   5.879   0.233  10.658 -3.1968 -0.8463  2.2094
  900MOL0     H21435   6.067  -0.036  10.612 -0.4106  1.1909  0.5246
  900MOL0     H21436   5.912  -0.072  10.530 -0.7810  1.7081 -2.1809
  900MOL0     H21437   6.055  -0.118  10.319  0.7459  1.0615  0.2081
  900MOL0     H21438   6.201  -0.109  10.410 -0.2536  0.4207 -2.1674
  900MOL0     H21439   6.002  -0.326  10.406 -0.6136  1.9048  1.9709
  900MOL0     H21440   6.174  -0.328  10.359 -1.6966 -0.3600 -1.8884
  900MOL0     H21441   6.257  -0.333  10.583  0.4972 -0.0000 -0.8629
  900MOL0     H21442   6.106  -0.271  10.654 -1.1692 -0.6763  1.2242
  900MOL0     H21443   5.990  -0.444  10.621 -0.7745  1.1266 -2.8138
  900MOL0     H21444   6.112  -0.536  10.527  0.4127  3.7148 -1.6795
  900MOL0     H21445   6.268  -0.531  10.732 -0.5832  0.9538 -1.8619
  900MOL0     H21446   6.150  -0.448  10.821  0.0010  2.1736 -2.3499
  900MOL0     H21447   6.134  -0.696  10.887 -0.6180 -1.2440  0.0747
  900MOL0     H21448   5.994  -0.655  10.794 -0.8752  0.7704 -0.3903
  900MOL0     H21449   6.077  -0.754  10.597  1.0928  2.5328  0.2839
  900MOL0     H21450   6.111  -0.879  10.725  0.3246 -0.1756  0.6782
  900MOL0     H21451   6.256  -0.791  10.429  2.6865 -0.5367 -0.8082
  900MOL0     H21452   6.628  -0.840  10.436 -0.1364  0.9165 -0.0283
  900MOL0     H21453   6.523  -0.981  10.414 -0.2687  0.0580 -1.9498
  900MOL0     H21454   6.457  -0.718  10.262  1.5531 -0.2520 -0.2346
  900MOL0     H21455   6.383  -0.880  10.248 -0.3336  0.5782 -0.8549
  900MOL0     H21456   6.594  -0.982  10.197 -0.3595 -0.1315  2.0052
  900MOL0     H21457   6.672  -0.830  10.190  1.7704 -3.0860  2.7877
  900MOL0     H21458   6.444  -0.921  10.006 -0.6336  0.5461  0.0605
  900MOL0     H21459   6.614  -0.877   9.965  1.3632 -0.1171  2.0356
  900MOL0     H21460   6.392  -0.473  10.045  0.6149  0.4163 -0.8663
  900MOL0     H21461   6.236  -0.308  10.015  1.1647 -0.9376  1.3964
  900MOL0     H21462   6.073  -0.333   9.973  1.6979  2.3330 -1.3287
  900MOL0     H21463   6.138  -0.347  10.145 -0.1895 -0.2033 -0.4605
  900MOL0     H21464   5.736  -0.754  10.043  0.5718  0.5516  0.6451
  900MOL0     H21465   5.496  -0.762  10.078 -2.0835  1.1853  0.4608
  900MOL0     H21466   5.280  -0.392  10.197  1.0895 -2.3492  0.0058
  900MOL0     H21467   5.253  -0.381  10.017 -0.6503  0.1591 -0.4112
  900MOL0     H21468   5.073  -0.517  10.012 -0.8509  0.7783 -0.8394
  900MOL0     H21469   5.091  -0.556  10.192  1.6723  1.4206  1.6618
  900MOL0     H21470   5.059  -0.264  10.119 -0.1266  2.1753  0.5734
  900MOL0     H21471   4.992  -0.352  10.248 -0.5462 -3.1148 -0.5095
  900MOL0     H21472   4.888  -0.391   9.952 -2.3178 -3.4937  0.2261
  900MOL0     H21473   4.808  -0.446  10.096 -1.2895  0.5960 -0.9475
  900MOL0     H21474   4.863  -0.161  10.046 -0.7144  1.1907  1.2559
  900MOL0     H21475   4.760  -0.218  10.167 -0.0829  0.7898 -0.2961
  900MOL0     H21476   4.690  -0.274   9.865  3.5000  0.3190  0.1930
  900MOL0     H21477   4.592  -0.284  10.004  1.5747 -3.6925 -1.0192
  900MOL0     H21478   4.719  -0.028   9.908  0.6927 -0.8903  0.5271
  900MOL0     H21479   4.603  -0.038  10.049  0.0484  1.4182 -0.9889
  900MOL0     H21480   4.515  -0.117   9.775 -1.4923  0.1084 -0.0026
  900MOL0     H21481   4.505   0.054   9.844  0.7032  0.6344 -0.6601
  900MOL0     H21482   5.488  -0.336  10.143  0.0816 -0.6263  0.6975
  900MOL0     H21483   5.739  -0.339  10.146  0.3656 -1.3913  3.5547
  900MOL0     H21484   6.069  -0.808   9.875  0.4665 -1.0568  0.5772
  900MOL0     H21485   6.305  -0.860   9.881 -2.4431 -1.1431  1.7710
  900MOL0     H21486   5.871   0.088  10.264 -0.7149  0.3604 -0.0991
  900MOL0     H21487   5.619   0.139  10.252 -0.2757  1.4536 -0.0665
  900MOL0     H21488   5.265   0.311  10.559 -0.6072 -1.2072  0.8599
  900MOL0     H21489   5.018   0.345  10.567  0.9264  1.5140  0.4961
  900MOL0     H21490   4.946   0.673  10.468 -2.2527  0.6985  2.7604
  900MOL0     H21491   4.852   0.651  10.319 -1.9961  1.6779  0.5304
  900MOL0     H21492   4.717   0.749  10.491 -0.3632  0.2033  0.3554
  900MOL0     H21493   4.739   0.612  10.598 -0.9289  1.1851  0.4050
  900MOL0     H21494   4.619   0.465  10.419 -4.0521 -0.9347  2.1760
  900MOL0     H21495   4.595   0.609  10.325  2.0384  3.3183  0.6829
  900MOL0     H21496   4.498   0.552  10.608  2.2688 -0.1135 -1.2635
  900MOL0     H21497   4.394   0.538  10.467 -1.0201 -0.3281 -0.6157
  900MOL0     H21498   4.349   0.937  10.553  2.0675  1.3545 -2.1609
  900MOL0     H21499   5.047   0.526  10.175  1.9539 -1.6428 -2.8493
  900MOL0     H21500   5.277   0.476  10.152  3.3955 -1.4932  1.0697
  901MOL0     O21501   7.443   9.287   4.113  0.4254  0.6168 -0.8738
  901MOL0     C21502   7.390   9.201   4.184  0.0851 -0.9998  0.6589
  901MOL0     O21503   7.265   9.165   4.172  0.1426 -0.2378 -0.5789
  901MOL0     C21504   7.182   9.220   4.076  1.6117 -0.2663 -0.0886
  901MOL0     C21505   7.200   9.232   3.934 -0.0574  0.2331  0.4801
  901MOL0     C21506   7.112   9.279   3.849 -0.0146 -0.2677  0.4268
  901MOL0     C21507   6.979   9.290   3.887 -0.6984 -0.2974  0.7391
  901MOL0     O21508   6.885   9.329   3.787 -0.2412 -0.4776  0.0651
  901MOL0     C21509   6.752   9.287   3.815  0.2475 -0.0280  0.3728
  901MOL0     C21510   6.725   9.136   3.831 -0.1197 -0.4524 -0.0532
  901MOL0     C21511   6.758   9.050   3.704  0.0868 -1.1211 -0.0214
  901MOL0     C21512   6.636   9.063   3.604 -0.8945  1.1897 -0.5608
  901MOL0     C21513   6.662   8.970   3.488 -0.1106 -0.2438 -0.3598
  901MOL0     C21514   6.601   9.010   3.346 -0.1053  0.5359 -0.7257
  901MOL0     C21515   6.660   8.912   3.248 -0.4538  1.1958 -0.1560
  901MOL0     C21516   6.630   8.928   3.109  0.2749 -1.1039  0.1245
  901MOL0     N21517   6.485   8.948   3.080  0.1647  0.6817 -0.2366
  901MOL0     C21518   6.404   8.838   3.076 -0.2315 -0.4705 -0.3835
  901MOL0     C21519   6.274   8.889   3.079  0.3604 -0.0261  0.1857
  901MOL0     C21520   6.141   8.810   3.080 -0.3209 -0.4296  0.2660
  901MOL0     C21521   6.106   8.765   3.220  0.4661 -0.3485  0.3366
  901MOL0     C21522   6.100   8.886   3.315 -0.2164 -0.5359  0.3837
  901MOL0     C21523   5.978   8.971   3.302 -0.2950 -0.2006 -0.5989
  901MOL0     O21524   5.866   8.882   3.309 -0.3280 -0.1585  0.5200
  901MOL0     C21525   5.747   8.949   3.285 -0.2780 -0.2534 -0.2013
  901MOL0     C21526   5.702   9.068   3.343 -0.4509 -0.2291 -0.2473
  901MOL0     C21527   5.588   9.135   3.310 -0.6161  0.1531  0.1877
  901MOL0     C21528   5.568   9.270   3.374  0.1012 -0.8638  0.4908
  901MOL0     C21529   5.491   9.074   3.226  0.2317 -0.9571  0.5397
  901MOL0     C21530   5.357   9.134   3.202 -0.1970  0.5530  0.1851
  901MOL0     O21531   5.270   9.031   3.167  0.3941  1.1377 -0.4109
  901MOL0     C21532   5.151   9.078   3.122 -0.0070  1.3007  0.0457
  901MOL0     C21533   5.122   9.123   2.990  1.1308 -0.4794 -0.1606
  901MOL0     C21534   4.990   9.172   2.967  0.2508 -0.2237 -0.5074
  901MOL0     C21535   4.890   9.170   3.064  0.2519 -0.3717 -0.4444
  901MOL0     O21536   4.757   9.209   3.048 -0.8570  0.1389  0.2726
  901MOL0     C21537   4.701   9.210   2.912 -0.2637  0.7001  0.2775
  901MOL0     C21538   4.557   9.259   2.923  0.0633 -0.0079 -0.4068
  901MOL0     C21539   4.508   9.275   2.787  0.8477  0.1031 -0.1133
  901MOL0     C21540   4.361   9.313   2.796 -0.2192  0.3225  0.0996
  901MOL0     C21541   4.303   9.333   2.660  0.6357  0.0983 -0.4700
  901MOL0     C21542   4.151   9.315   2.654  1.3111  0.1882  0.5456
  901MOL0     C21543   4.106   9.303   2.505 -0.2108  0.4961 -0.8005
  901MOL0     C21544   3.955   9.307   2.490  1.1431 -0.0334 -0.0089
  901MOL0    Cl21545   3.880   9.185   2.595 -0.5381 -0.0354 -0.6844
  901MOL0     C21546   4.928   9.138   3.199 -0.3637 -0.3932  0.2589
  901MOL0     C21547   5.060   9.104   3.220 -0.6164  0.0033  0.2875
  901MOL0     O21548   5.343   9.251   3.166 -0.1185  0.4391 -0.1845
  901MOL0     C21549   5.524   8.950   3.164  0.2259  0.2517 -0.6001
  901MOL0     C21550   5.650   8.882   3.200 -1.4661  0.0105 -0.8360
  901MOL0     N21551   6.283   9.026   3.086  1.1452 -0.2723  0.1806
  901MOL0     N21552   6.405   9.062   3.086 -0.0447  0.5202  0.6338
  901MOL0     C21553   6.951   9.272   4.023  0.4441  0.4055 -0.7532
  901MOL0     C21554   7.055   9.244   4.114 -0.0104 -0.3181 -0.3577
  901MOL0     C21555   7.475   9.133   4.288 -0.1591  0.4213  0.3034
  901MOL0     C21556   7.418   9.019   4.358  0.2791  1.0337 -0.0032
  901MOL0     C21557   7.489   8.938   4.438 -0.1591  0.6064  0.2106
  901MOL0     C21558   7.627   8.963   4.457  0.6434 -0.6914 -0.4316
  901MOL0     O21559   7.705   8.907   4.558 -0.2502 -0.4684 -0.1080
  901MOL0     C21560   7.657   8.794   4.627  0.6377 -0.0234 -0.1509
  901MOL0     C21561   7.774   8.736   4.724 -0.0141 -0.1965  0.1732
  901MOL0     C21562   7.875   8.660   4.639  0.2516 -0.0007  1.0867
  901MOL0     C21563   8.006   8.616   4.716  1.0050 -0.3539  0.3069
  901MOL0     C21564   8.097   8.726   4.767 -0.3588 -0.2465 -0.0362
  901MOL0     C21565   8.148   8.823   4.814 -0.0260 -0.8314 -0.1719
  901MOL0     C21566   7.680   9.081   4.400 -0.6693 -0.0283 -0.7660
  901MOL0     C21567   7.609   9.165   4.315 -0.7470 -0.3134 -0.5871
  901MOL0     H21568   7.301   9.210   3.902 -1.3292 -0.7572 -3.3624
  901MOL0     H21569   7.142   9.297   3.746 -0.0998 -3.8109 -0.3440
  901MOL0     H21570   6.713   9.337   3.904 -1.8916 -2.8122  1.1473
  901MOL0     H21571   6.685   9.319   3.735  0.1565 -3.5585 -1.1511
  901MOL0     H21572   6.783   9.102   3.918  0.7918 -0.3243 -0.6012
  901MOL0     H21573   6.617   9.123   3.839 -0.4228 -0.3907 -2.9593
  901MOL0     H21574   6.839   9.088   3.641 -1.1070  0.6518 -0.5440
  901MOL0     H21575   6.769   8.943   3.724 -2.0362 -2.2458 -3.8459
  901MOL0     H21576   6.543   9.039   3.656 -0.8848 -1.0560 -1.4469
  901MOL0     H21577   6.622   9.164   3.563 -0.7388  0.8135 -1.5676
  901MOL0     H21578   6.770   8.968   3.471 -0.0642 -0.1754 -0.0740
  901MOL0     H21579   6.645   8.866   3.517  2.2012 -1.0129 -1.5508
  901MOL0     H21580   6.492   9.015   3.355 -0.3757 -0.4167 -3.0068
  901MOL0     H21581   6.635   9.107   3.307  0.5179  0.3217 -0.7285
  901MOL0     H21582   6.762   8.880   3.270 -1.8752 -5.3950 -0.8509
  901MOL0     H21583   6.608   8.817   3.267 -1.6518  1.6737 -0.9144
  901MOL0     H21584   6.663   8.847   3.043  1.8959 -1.5955  1.4756
  901MOL0     H21585   6.693   9.012   3.077  1.9648 -2.7347 -1.1412
  901MOL0     H21586   6.438   8.735   3.067 -1.2148 -0.6747 -2.1588
  901MOL0     H21587   6.070   8.875   3.028  0.6191 -0.4434 -1.0723
  901MOL0     H21588   6.157   8.728   3.010 -1.6049  0.0163 -0.5863
  901MOL0     H21589   6.181   8.695   3.257 -0.8258 -1.3502  1.1144
  901MOL0     H21590   6.008   8.717   3.213  0.4545 -0.2499 -0.2922
  901MOL0     H21591   6.190   8.947   3.305  0.2792 -1.1921  0.7527
  901MOL0     H21592   6.102   8.837   3.413 -0.0749 -1.0042  0.1517
  901MOL0     H21593   5.988   9.035   3.214  1.7196  0.8410  0.3200
  901MOL0     H21594   5.971   9.034   3.391 -0.7471  0.0519 -0.8164
  901MOL0     H21595   5.770   9.121   3.408  0.9059  0.0368 -1.8177
  901MOL0     H21596   5.463   9.276   3.404 -0.3920  0.0958 -1.3047
  901MOL0     H21597   5.638   9.299   3.453  1.6223  0.4024 -1.2204
  901MOL0     H21598   5.587   9.344   3.296  0.3081  0.5040  1.7955
  901MOL0     H21599   5.203   9.123   2.917  1.8732 -1.1754  0.6369
  901MOL0     H21600   4.965   9.211   2.869 -3.0011 -1.8934 -0.4953
  901MOL0     H21601   4.756   9.279   2.848 -0.2585 -1.3631 -2.1470
  901MOL0     H21602   4.705   9.117   2.854 -0.8644  0.9387 -0.1608
  901MOL0     H21603   4.491   9.188   2.973  0.0484 -0.1910 -0.6804
  901MOL0     H21604   4.565   9.351   2.981 -0.4953 -0.3141  0.1730
  901MOL0     H21605   4.529   9.184   2.730  0.9386  0.0529  0.0013
  901MOL0     H21606   4.568   9.355   2.743  1.6182 -0.7076 -0.5743
  901MOL0     H21607   4.311   9.224   2.836 -2.0743  0.1843 -2.2944
  901MOL0     H21608   4.344   9.391   2.871  1.6077  0.5307  0.3295
  901MOL0     H21609   4.341   9.251   2.600 -0.6605 -0.0737 -1.1052
  901MOL0     H21610   4.335   9.429   2.620 -1.5078  1.5899  1.1209
  901MOL0     H21611   4.126   9.219   2.700  1.3116 -0.9181 -1.6263
  901MOL0     H21612   4.102   9.400   2.704 -0.7267 -0.8787  0.4855
  901MOL0     H21613   4.151   9.209   2.474  0.1242 -0.8465  3.2287
  901MOL0     H21614   4.142   9.386   2.443 -3.3266  0.7928 -2.4277
  901MOL0     H21615   3.930   9.291   2.385 -2.5075  1.1928  0.5624
  901MOL0     H21616   3.908   9.400   2.522  0.9533 -0.3917  0.7960
  901MOL0     H21617   4.859   9.142   3.282 -2.4570 -0.9501 -1.3560
  901MOL0     H21618   5.087   9.083   3.323 -0.5872 -1.0971  0.0742
  901MOL0     H21619   5.453   8.907   3.093 -3.2435  1.3162  1.9641
  901MOL0     H21620   5.677   8.787   3.155  0.5995 -0.9987  2.2201
  901MOL0     H21621   6.851   9.301   4.053 -0.9170 -3.2993 -1.1573
  901MOL0     H21622   7.039   9.245   4.221  0.7305  3.0133 -0.1890
  901MOL0     H21623   7.319   8.977   4.342  0.5557  0.8721 -1.3858
  901MOL0     H21624   7.444   8.853   4.489  0.4572  1.4484  2.2666
  901MOL0     H21625   7.572   8.823   4.688  1.5443  1.4491  0.4724
  901MOL0     H21626   7.623   8.715   4.559 -0.8859 -0.9566  1.6275
  901MOL0     H21627   7.714   8.677   4.793  0.5533 -1.1981 -0.1760
  901MOL0     H21628   7.829   8.812   4.781  0.6631 -0.4654 -0.1120
  901MOL0     H21629   7.916   8.724   4.561 -0.0195 -0.0976  0.8638
  901MOL0     H21630   7.830   8.572   4.593  0.6213  0.0579  0.6092
  901MOL0     H21631   8.051   8.549   4.641 -0.3727  0.7205 -1.5686
  901MOL0     H21632   7.976   8.560   4.805 -3.0270  0.4965 -0.3025
  901MOL0     H21633   8.200   8.899   4.869 -1.2963  1.5457 -2.0859
  901MOL0     H21634   7.784   9.111   4.412 -1.0441  0.2326  2.9570
  901MOL0     H21635   7.658   9.247   4.264 -1.1477  0.0884 -0.3398
  902MOL0     O21636   2.394   6.864  11.108  0.1299  0.0838  0.2651
  902MOL0     C21637   2.399   6.809  11.220 -0.2586 -0.2060 -0.0603
  902MOL0     O21638   2.295   6.780  11.304  0.3318  0.3365  0.2437
  902MOL0     C21639   2.162   6.781  11.269  0.9777  0.6780 -0.3899
  902MOL0     C21640   2.113   6.723  11.150 -0.1376 -0.6316  0.0728
  902MOL0     C21641   1.974   6.734  11.124  0.0727  0.5770 -0.3036
  902MOL0     C21642   1.881   6.778  11.219 -0.2791  0.3212 -0.0934
  902MOL0     O21643   1.755   6.791  11.174  0.8194  0.6065  0.0163
  902MOL0     C21644   1.681   6.906  11.224 -0.6184  0.0092 -0.0726
  902MOL0     C21645   1.579   6.944  11.113 -0.4387 -0.2734 -0.4615
  902MOL0     C21646   1.474   7.046  11.155  0.6428 -0.0161 -0.1787
  902MOL0     C21647   1.379   7.068  11.035 -0.5914 -0.8594 -0.8214
  902MOL0     C21648   1.303   7.201  11.045  0.3877  0.6587 -0.0116
  902MOL0     C21649   1.209   7.219  10.919  0.8358  0.0393  0.3474
  902MOL0     C21650   1.078   7.298  10.936  0.0242  0.0212  0.5963
  902MOL0     C21651   0.974   7.229  11.027 -0.2081 -0.1069  0.1036
  902MOL0     N21652   0.849   7.307  11.044  0.4870  0.9298  0.5133
  902MOL0     C21653   0.721   7.266  10.996 -0.1422  0.1797 -0.2111
  902MOL0     C21654   0.638   7.361  11.040  1.1206  0.3205  0.4314
  902MOL0     C21655   0.493   7.383  11.021  0.9230 -0.4201 -0.1102
  902MOL0     C21656   0.444   7.417  10.877 -0.2399  0.0551  0.4187
  902MOL0     C21657   0.507   7.525  10.789  0.9778  0.3683 -0.8066
  902MOL0     C21658   0.500   7.660  10.865  0.4982 -0.1372 -0.1838
  902MOL0     O21659   0.575   7.762  10.797  0.0896  0.6958  0.7188
  902MOL0     C21660   0.712   7.752  10.778  0.5495  0.4377  0.9541
  902MOL0     C21661   0.769   7.842  10.693  0.4508  0.3895 -0.3937
  902MOL0     C21662   0.907   7.836  10.660 -0.0062  0.0247 -0.9036
  902MOL0     C21663   0.958   7.931  10.559 -1.2611  0.9755  0.1304
  902MOL0     C21664   0.989   7.740  10.733 -0.2587 -0.4511  1.6937
  902MOL0     C21665   1.132   7.743  10.723 -0.6142  0.8239 -0.3555
  902MOL0     O21666   1.187   7.867  10.734 -0.5156  0.9722 -0.0413
  902MOL0     C21667   1.324   7.866  10.737 -0.1102  0.2561 -0.1847
  902MOL0     C21668   1.400   7.859  10.861 -0.6293 -0.8052  0.4878
  902MOL0     C21669   1.539   7.868  10.848 -0.4086 -1.1383  0.0753
  902MOL0     C21670   1.605   7.876  10.722 -0.4690 -1.5778  0.2676
  902MOL0     O21671   1.742   7.873  10.707 -0.1641  0.0462 -0.0237
  902MOL0     C21672   1.814   7.783  10.794 -0.6643 -0.2596 -0.5139
  902MOL0     C21673   1.952   7.749  10.749  0.2524 -0.4872  0.8504
  902MOL0     C21674   2.045   7.878  10.741  0.0533  0.7425 -0.1373
  902MOL0     C21675   2.195   7.854  10.697  0.5474 -0.1902  0.0602
  902MOL0     C21676   2.276   7.750  10.775 -0.3856  0.4347  0.7736
  902MOL0     C21677   2.427   7.784  10.783 -0.1887 -0.3598  0.2189
  902MOL0     C21678   2.507   7.656  10.821 -0.2789 -0.6004  0.0011
  902MOL0     C21679   2.652   7.674  10.864 -0.2133  0.6747 -0.8572
  902MOL0    Cl21680   2.664   7.791  10.989 -0.1746 -0.1421  0.2667
  902MOL0     C21681   1.533   7.885  10.606 -0.1058  0.6819 -0.1902
  902MOL0     C21682   1.388   7.888  10.616 -0.6051  0.0159 -0.4421
  902MOL0     O21683   1.197   7.633  10.707 -0.0709  0.2717  0.8430
  902MOL0     C21684   0.927   7.653  10.816 -0.0867  0.8300  0.0234
  902MOL0     C21685   0.791   7.661  10.845 -0.3266  0.5046  0.0030
  902MOL0     N21686   0.701   7.453  11.116  0.0655  0.4377  0.1361
  902MOL0     N21687   0.826   7.419  11.114  0.0820 -0.3623 -0.4694
  902MOL0     C21688   1.934   6.812  11.347 -0.0753  0.5399  0.3890
  902MOL0     C21689   2.069   6.815  11.372 -0.4319 -0.4415 -0.1771
  902MOL0     C21690   2.535   6.802  11.279 -0.7186  0.2975 -0.0156
  902MOL0     C21691   2.649   6.808  11.201 -0.9081 -0.4206  0.0571
  902MOL0     C21692   2.772   6.818  11.274 -0.2489  0.8154 -0.2641
  902MOL0     C21693   2.785   6.783  11.414  0.6390 -0.5100  0.0949
  902MOL0     O21694   2.902   6.759  11.488  0.2553  0.1137 -0.2396
  902MOL0     C21695   3.021   6.829  11.444 -0.2431  0.1175 -0.7616
  902MOL0     C21696   3.067   6.913  11.568  0.4009 -0.2248  0.3353
  902MOL0     C21697   3.206   6.862  11.615 -1.1543 -0.4571  0.1196
  902MOL0     C21698   3.309   6.933  11.527 -0.2871 -0.7721  0.4967
  902MOL0     C21699   3.437   6.886  11.561 -0.8250  0.0435 -0.6347
  902MOL0     C21700   3.544   6.836  11.585  0.2849 -0.0166  0.1177
  902MOL0     C21701   2.667   6.771  11.488  0.7190  0.2235 -0.1742
  902MOL0     C21702   2.541   6.792  11.422 -0.0876  0.4763  0.5526
  902MOL0     H21703   2.173   6.690  11.066 -1.2340  0.6535 -1.2878
  902MOL0     H21704   1.937   6.722  11.023 -0.4943  0.9334 -0.1422
  902MOL0     H21705   1.638   6.888  11.323 -2.0217 -0.6923 -0.7762
  902MOL0     H21706   1.751   6.990  11.237  0.8560 -1.0868 -0.7039
  902MOL0     H21707   1.639   6.981  11.030 -1.0532 -1.1490 -1.3045
  902MOL0     H21708   1.523   6.855  11.084 -0.4505  0.0644 -1.4825
  902MOL0     H21709   1.417   6.998  11.235  2.1191 -0.2682  0.7602
  902MOL0     H21710   1.509   7.143  11.191 -1.0378  0.0517  1.4407
  902MOL0     H21711   1.441   7.078  10.945  1.6272  1.4170  0.8285
  902MOL0     H21712   1.313   6.981  11.028  0.8149 -1.9972 -0.5583
  902MOL0     H21713   1.252   7.220  11.140 -2.6310  0.1929 -1.4031
  902MOL0     H21714   1.381   7.277  11.058  1.3939 -0.4535  0.5582
  902MOL0     H21715   1.272   7.282  10.856  0.9856 -1.9894 -1.6502
  902MOL0     H21716   1.197   7.121  10.871 -1.4132  1.1047 -1.4361
  902MOL0     H21717   1.092   7.399  10.977 -0.1877 -0.6078  2.3082
  902MOL0     H21718   1.035   7.311  10.837  0.2208  0.4742  0.5663
  902MOL0     H21719   1.024   7.210  11.123  2.1647 -3.2846 -1.5623
  902MOL0     H21720   0.954   7.135  10.974  2.2247 -0.4687 -0.3082
  902MOL0     H21721   0.701   7.182  10.930 -2.1955 -0.5744  1.2552
  902MOL0     H21722   0.444   7.291  11.052  1.0403  0.1935  2.0669
  902MOL0     H21723   0.444   7.462  11.079  3.1602  3.7720 -3.3619
  902MOL0     H21724   0.336   7.431  10.875 -0.3642 -0.9319 -1.2779
  902MOL0     H21725   0.449   7.326  10.818  0.8969 -0.5754  1.4282
  902MOL0     H21726   0.458   7.521  10.691  0.4337  0.3656 -0.5399
  902MOL0     H21727   0.608   7.486  10.774  1.3126 -0.0065  1.8398
  902MOL0     H21728   0.539   7.657  10.967  0.9120  0.5342 -0.3152
  902MOL0     H21729   0.397   7.695  10.876  0.8998  1.8972 -2.0117
  902MOL0     H21730   0.707   7.916  10.643 -1.5803 -1.5405 -0.8722
  902MOL0     H21731   1.044   7.894  10.503 -0.6801  3.4632 -0.7244
  902MOL0     H21732   0.880   7.941  10.484  0.3142  0.5577 -1.6267
  902MOL0     H21733   0.984   8.028  10.601  0.8191  0.8447 -0.7423
  902MOL0     H21734   1.362   7.861  10.963  1.3747  1.3163  1.2869
  902MOL0     H21735   1.595   7.872  10.941 -1.3381  0.4008  0.6099
  902MOL0     H21736   1.823   7.838  10.888 -0.3173 -0.4585 -0.4268
  902MOL0     H21737   1.761   7.689  10.809  1.4853 -1.2041  1.9333
  902MOL0     H21738   1.999   7.679  10.819 -0.6652 -2.1320 -0.1110
  902MOL0     H21739   1.952   7.696  10.653  2.3445 -1.6281  1.3998
  902MOL0     H21740   2.038   7.930  10.837  1.7288  0.0255  0.4072
  902MOL0     H21741   2.005   7.946  10.664 -3.7129 -2.1653 -1.0846
  902MOL0     H21742   2.184   7.822  10.593 -1.5692 -2.0602  0.7767
  902MOL0     H21743   2.242   7.953  10.699 -0.9733  0.5415  1.2754
  902MOL0     H21744   2.262   7.660  10.714  2.6771  1.8494 -2.3615
  902MOL0     H21745   2.245   7.742  10.880 -2.5155 -0.3017  0.1442
  902MOL0     H21746   2.464   7.820  10.686  0.7225 -2.8687 -0.4566
  902MOL0     H21747   2.450   7.866  10.852 -1.6270 -1.1279  1.6656
  902MOL0     H21748   2.497   7.585  10.739 -2.1016  1.0215 -1.2783
  902MOL0     H21749   2.467   7.618  10.915 -0.3470  0.6373  0.4994
  902MOL0     H21750   2.717   7.702  10.780 -0.3330  1.8629 -0.5823
  902MOL0     H21751   2.687   7.584  10.915  0.5067  1.0631 -0.6515
  902MOL0     H21752   1.581   7.905  10.510  2.3700  1.6767  1.1419
  902MOL0     H21753   1.336   7.889  10.520 -2.3519 -1.6914  0.4163
  902MOL0     H21754   0.998   7.580  10.855 -0.3522 -0.2657 -1.4887
  902MOL0     H21755   0.752   7.604  10.929 -1.1530  0.3264 -0.4972
  902MOL0     H21756   1.855   6.831  11.418 -2.4004 -0.7633 -1.6998
  902MOL0     H21757   2.104   6.840  11.472 -0.3404  1.1829 -0.5844
  902MOL0     H21758   2.645   6.835  11.096 -2.1776 -1.6452 -0.2434
  902MOL0     H21759   2.867   6.834  11.222  2.5500 -1.6160  3.5730
  902MOL0     H21760   3.096   6.755  11.416  0.3684  1.0552 -1.6559
  902MOL0     H21761   3.002   6.895  11.359 -0.3701  0.8772 -0.1613
  902MOL0     H21762   2.995   6.886  11.646 -1.0259  0.7052 -0.6034
  902MOL0     H21763   3.062   7.022  11.568 -1.5833 -0.2595  2.1117
  902MOL0     H21764   3.214   6.753  11.607  0.5169 -0.2215 -2.8810
  902MOL0     H21765   3.224   6.885  11.720 -1.3410  2.1099 -0.3516
  902MOL0     H21766   3.314   7.041  11.548  2.1073 -0.3638 -1.6884
  902MOL0     H21767   3.287   6.917  11.421  0.8322 -0.9652  0.2808
  902MOL0     H21768   3.640   6.794  11.606 -0.2277 -1.0825  0.4218
  902MOL0     H21769   2.675   6.758  11.596 -2.3457 -0.5238  0.0563
  902MOL0     H21770   2.455   6.783  11.488 -1.0091 -0.6452 -0.7381
  903MOL0     O21771   3.687   8.115   9.732  0.4372  0.3641  0.0043
  903MOL0     C21772   3.778   8.037   9.702 -0.0816 -0.0651 -0.0564
  903MOL0     O21773   3.765   7.906   9.672 -0.3508  0.5682 -0.3316
  903MOL0     C21774   3.634   7.866   9.639  0.1851  0.5751 -0.2383
  903MOL0     C21775   3.597   7.738   9.696  0.9372 -0.1582  0.2189
  903MOL0     C21776   3.479   7.677   9.671  0.0285  0.3847  0.3649
  903MOL0     C21777   3.385   7.733   9.589  0.9831 -0.0166 -0.5072
  903MOL0     O21778   3.263   7.669   9.553  0.1626 -0.1294 -0.0385
  903MOL0     C21779   3.197   7.585   9.640 -0.2505  0.0977 -0.0761
  903MOL0     C21780   3.064   7.547   9.576  0.3654  0.3625 -0.5230
  903MOL0     C21781   2.981   7.437   9.655  0.3465 -0.1659  0.1362
  903MOL0     C21782   2.865   7.397   9.568  0.3713  0.1737 -0.1249
  903MOL0     C21783   2.780   7.277   9.618 -0.5312  0.2174 -0.5820
  903MOL0     C21784   2.668   7.310   9.711  0.4392  0.3031 -0.9449
  903MOL0     C21785   2.579   7.418   9.646  0.7617  0.3706  0.0240
  903MOL0     C21786   2.442   7.433   9.728 -0.0243 -0.1773 -0.0188
  903MOL0     N21787   2.461   7.501   9.856  0.0725  0.3768  0.4324
  903MOL0     C21788   2.500   7.631   9.879  0.7547  0.0388 -0.2866
  903MOL0     C21789   2.482   7.654  10.011 -1.0450 -0.0496 -1.0038
  903MOL0     C21790   2.534   7.769  10.097  0.9340 -0.1662 -1.3898
  903MOL0     C21791   2.434   7.888  10.121  0.7023  0.4854 -0.4905
  903MOL0     C21792   2.320   7.854  10.224 -0.8582 -0.0319 -0.0068
  903MOL0     C21793   2.196   7.941  10.222  1.6038 -0.3384 -0.2444
  903MOL0     O21794   2.098   7.894  10.321  0.8228  0.6071  0.5866
  903MOL0     C21795   1.966   7.895  10.295  0.0305 -0.6197 -0.2571
  903MOL0     C21796   1.897   7.960  10.195  0.4181  0.3943 -1.0844
  903MOL0     C21797   1.758   7.941  10.177  0.8942  0.4064 -1.5081
  903MOL0     C21798   1.689   8.036  10.081 -0.1436 -0.1114 -0.1616
  903MOL0     C21799   1.684   7.850  10.257  0.6833  0.0452 -0.8517
  903MOL0     C21800   1.533   7.821  10.257  0.1319 -0.8020 -0.3304
  903MOL0     O21801   1.454   7.920  10.228 -0.0603 -0.1727  0.4678
  903MOL0     C21802   1.326   7.907  10.194  0.2970 -0.3928  0.0649
  903MOL0     C21803   1.276   7.991  10.089  0.2249 -0.2755  0.0193
  903MOL0     C21804   1.149   7.983  10.046  0.2090  0.3304  0.1803
  903MOL0     C21805   1.067   7.899  10.114  0.4246 -0.9462  0.3665
  903MOL0     O21806   0.940   7.889  10.064  0.6204  0.1495 -0.1629
  903MOL0     C21807   0.880   7.996   9.989  0.0424 -0.6174  0.1638
  903MOL0     C21808   0.726   7.992  10.007  0.1039  2.1128  0.7196
  903MOL0     C21809   0.661   7.982  10.154 -0.9055  0.4665  0.3713
  903MOL0     C21810   0.523   7.939  10.143 -0.0047 -0.3255  0.3388
  903MOL0     C21811   0.452   7.936  10.279 -0.0852  0.2089  0.0214
  903MOL0     C21812   0.505   7.821  10.365  0.5346 -1.2669 -0.2147
  903MOL0     C21813   0.417   7.787  10.485  0.5097 -0.3408 -0.0618
  903MOL0     C21814   0.284   7.721  10.443  1.1187 -0.1367 -0.3226
  903MOL0    Cl21815   0.198   7.648  10.591  0.4149  0.1619  0.2156
  903MOL0     C21816   1.103   7.834  10.231  0.3068  0.8337 -0.0320
  903MOL0     C21817   1.235   7.829  10.275 -0.4736 -0.3883 -0.0154
  903MOL0     O21818   1.500   7.703  10.293  0.2023  0.4869 -0.3357
  903MOL0     C21819   1.766   7.772  10.349  1.0404 -0.2197 -0.7742
  903MOL0     C21820   1.898   7.801  10.369 -0.6829  0.1746 -0.2480
  903MOL0     N21821   2.437   7.531  10.070  1.1832 -0.4681 -0.8272
  903MOL0     N21822   2.416   7.449   9.971 -0.2800  0.8779  0.1517
  903MOL0     C21823   3.414   7.858   9.532  0.4523  0.1488  0.8304
  903MOL0     C21824   3.540   7.922   9.545  0.0102 -0.2417 -0.9754
  903MOL0     C21825   3.918   8.087   9.714 -0.0715  0.1362  0.2801
  903MOL0     C21826   4.018   8.029   9.632  0.5123 -0.0453 -0.2696
  903MOL0     C21827   4.150   8.084   9.635  0.3348 -0.5621 -0.2124
  903MOL0     C21828   4.180   8.188   9.728  0.1840  0.2798 -0.5180
  903MOL0     O21829   4.309   8.241   9.746  0.6630  0.4776 -0.0422
  903MOL0     C21830   4.418   8.198   9.659 -0.4629  0.2690  0.9735
  903MOL0     C21831   4.523   8.110   9.734  0.4034  0.5298 -0.2710
  903MOL0     C21832   4.626   8.060   9.638  0.4522  0.2215  0.2540
  903MOL0     C21833   4.740   8.013   9.721  0.4777 -0.2211  0.0323
  903MOL0     C21834   4.865   7.993   9.652 -0.3316 -0.5224 -0.4525
  903MOL0     C21835   4.975   7.973   9.607  0.2689  0.4137 -0.0155
  903MOL0     C21836   4.079   8.242   9.807 -0.2813  0.0942 -0.2045
  903MOL0     C21837   3.945   8.199   9.794 -0.8782 -0.9088 -0.7851
  903MOL0     H21838   3.661   7.692   9.772  0.1030 -0.6744  0.6299
  903MOL0     H21839   3.473   7.579   9.716  2.3592  0.9574  2.1178
  903MOL0     H21840   3.249   7.490   9.652  2.8209  1.8835  1.9456
  903MOL0     H21841   3.184   7.639   9.734 -0.1819  0.3533 -0.2150
  903MOL0     H21842   3.017   7.646   9.575  0.7342  0.5779  0.9553
  903MOL0     H21843   3.072   7.504   9.476 -0.1879 -1.2928  0.1045
  903MOL0     H21844   3.038   7.351   9.691  2.2263  1.0960  0.2562
  903MOL0     H21845   2.941   7.477   9.749 -0.7991 -0.0023 -0.4000
  903MOL0     H21846   2.803   7.478   9.528 -1.1073  0.8735  3.2528
  903MOL0     H21847   2.907   7.360   9.474 -4.6328  2.4902 -3.6845
  903MOL0     H21848   2.739   7.231   9.528 -2.4843 -0.2343  0.4809
  903MOL0     H21849   2.850   7.210   9.669  0.0587  0.2597 -1.3108
  903MOL0     H21850   2.601   7.227   9.733 -1.0499  1.7535  0.2032
  903MOL0     H21851   2.705   7.345   9.808 -1.8313 -1.1771  0.5509
  903MOL0     H21852   2.637   7.510   9.639  1.1159  0.9098  5.8063
  903MOL0     H21853   2.566   7.373   9.547  3.5299  1.7507 -1.0632
  903MOL0     H21854   2.407   7.330   9.740 -3.0281  0.6928 -0.5452
  903MOL0     H21855   2.366   7.481   9.666 -0.1272 -0.7911 -0.3750
  903MOL0     H21856   2.527   7.697   9.797  1.7369 -0.1538 -0.1329
  903MOL0     H21857   2.577   7.737  10.193 -2.8708  1.5668  1.1010
  903MOL0     H21858   2.627   7.806  10.051  2.8341  1.0211  2.8840
  903MOL0     H21859   2.393   7.919  10.024  1.9568  0.9350 -0.8915
  903MOL0     H21860   2.502   7.963  10.163  1.7947  0.5703 -2.3031
  903MOL0     H21861   2.368   7.855  10.322 -0.5326 -1.7368 -0.1280
  903MOL0     H21862   2.287   7.754  10.194  0.9605 -1.5323  2.6143
  903MOL0     H21863   2.164   7.943  10.117  1.5370 -0.0395 -0.2203
  903MOL0     H21864   2.226   8.042  10.252 -0.4295 -0.0414  0.9902
  903MOL0     H21865   1.943   8.035  10.132 -0.0861  0.8654 -0.9030
  903MOL0     H21866   1.763   8.104  10.040 -1.2144  0.4418 -1.2362
  903MOL0     H21867   1.655   7.969  10.001  0.9617 -1.2083  0.2503
  903MOL0     H21868   1.600   8.090  10.114 -0.5996  1.0829 -3.0790
  903MOL0     H21869   1.353   8.056  10.050  0.4543 -0.4098  0.2490
  903MOL0     H21870   1.132   8.035   9.951  0.8254  1.8433  0.8627
  903MOL0     H21871   0.905   8.093  10.033 -0.2580 -0.5388  0.1585
  903MOL0     H21872   0.909   8.005   9.884 -3.2357  1.0950 -0.7386
  903MOL0     H21873   0.682   8.084   9.967 -2.7600 -0.2407 -2.0209
  903MOL0     H21874   0.688   7.912   9.942  1.5470 -0.7372  3.1231
  903MOL0     H21875   0.666   8.067  10.223 -1.3646  3.6510 -3.1983
  903MOL0     H21876   0.721   7.908  10.207 -0.7337  1.2433  1.2930
  903MOL0     H21877   0.462   7.999  10.075  0.4108 -0.4437 -0.1462
  903MOL0     H21878   0.511   7.835  10.109 -1.4467 -0.5769  1.4998
  903MOL0     H21879   0.345   7.922  10.260  0.0569  0.6239 -1.2005
  903MOL0     H21880   0.456   8.031  10.333  5.0173 -0.2158  0.8698
  903MOL0     H21881   0.528   7.732  10.306 -1.4505 -2.1861  0.3292
  903MOL0     H21882   0.600   7.868  10.395  0.8332  0.3283 -3.2647
  903MOL0     H21883   0.398   7.874  10.548 -0.8209 -0.1195 -0.7133
  903MOL0     H21884   0.478   7.717  10.542  1.1482 -0.3293 -0.7211
  903MOL0     H21885   0.301   7.646  10.366 -2.0649 -1.3978  0.0205
  903MOL0     H21886   0.226   7.799  10.394  0.1030 -0.5683  0.1590
  903MOL0     H21887   1.027   7.779  10.285 -0.3997 -1.6502 -3.2653
  903MOL0     H21888   1.268   7.774  10.363 -0.6901 -1.1418 -0.3958
  903MOL0     H21889   1.727   7.696  10.416  0.4405  1.2749  0.6537
  903MOL0     H21890   1.942   7.735  10.442 -3.0144  0.8355  1.8900
  903MOL0     H21891   3.340   7.893   9.461  0.8509 -0.6476 -0.0069
  903MOL0     H21892   3.562   8.011   9.487 -1.9211 -0.2304 -1.7827
  903MOL0     H21893   3.990   7.956   9.556  1.5256  0.5984 -1.2853
  903MOL0     H21894   4.227   8.035   9.577  1.0966  0.9218 -0.4918
  903MOL0     H21895   4.387   8.156   9.563  1.9007  1.5968 -0.4869
  903MOL0     H21896   4.462   8.296   9.636 -2.6323  0.9782 -0.3978
  903MOL0     H21897   4.475   8.024   9.782  0.6968  0.3194 -0.3547
  903MOL0     H21898   4.557   8.175   9.815 -4.1115  0.6962  1.8112
  903MOL0     H21899   4.670   8.129   9.566 -0.0182 -1.2401 -1.5414
  903MOL0     H21900   4.585   7.981   9.573  2.8013  0.3661 -1.5526
  903MOL0     H21901   4.721   7.921   9.776 -3.5866 -0.1331 -0.8685
  903MOL0     H21902   4.753   8.087   9.800  2.4679 -0.4635 -0.0161
  903MOL0     H21903   5.073   7.964   9.563  0.2466 -0.8099  0.1325
  903MOL0     H21904   4.088   8.323   9.878  0.5260 -1.0231  1.0019
  903MOL0     H21905   3.871   8.253   9.851 -1.2269 -0.5474 -1.5600
  904MOL0     O21906   1.841   3.484   7.226  0.2342  0.1121 -0.7222
  904MOL0     C21907   1.727   3.468   7.194  0.3594  0.5583  0.2167
  904MOL0     O21908   1.681   3.390   7.093 -0.0603 -0.3191  0.4644
  904MOL0     C21909   1.779   3.328   7.017  0.1641  0.4216  1.0290
  904MOL0     C21910   1.850   3.226   7.070 -0.3603 -0.0064  1.0708
  904MOL0     C21911   1.959   3.161   7.009 -0.1133  0.1312 -0.4474
  904MOL0     C21912   1.993   3.206   6.884  0.4643 -0.4930  0.3395
  904MOL0     O21913   2.087   3.146   6.805  0.0255  0.5565  0.1931
  904MOL0     C21914   2.087   3.004   6.806  0.2647  0.8309 -0.0941
  904MOL0     C21915   2.211   2.945   6.743 -0.0299  0.0238 -0.1665
  904MOL0     C21916   2.343   2.979   6.818  0.3914 -0.4615 -0.3825
  904MOL0     C21917   2.453   2.957   6.709  0.3301 -0.8988  0.2839
  904MOL0     C21918   2.595   2.958   6.782 -0.3780  0.3624  0.8529
  904MOL0     C21919   2.631   2.827   6.848  0.8894 -0.6139 -0.8892
  904MOL0     C21920   2.770   2.826   6.928  0.7189 -0.1690  0.4519
  904MOL0     C21921   2.889   2.818   6.832  0.1743 -0.6222 -0.8066
  904MOL0     N21922   2.872   2.689   6.757 -0.3033 -0.6713  0.0456
  904MOL0     C21923   2.829   2.682   6.632  1.3686  1.2148  0.9882
  904MOL0     C21924   2.854   2.555   6.585  0.2793 -0.2769  0.0424
  904MOL0     C21925   2.803   2.500   6.455 -0.2699  0.1107 -0.0905
  904MOL0     C21926   2.663   2.443   6.459 -1.2701  0.1848  0.4109
  904MOL0     C21927   2.622   2.393   6.317  0.4179  0.0809 -0.2502
  904MOL0     C21928   2.475   2.349   6.325 -0.1475 -0.4206  0.1451
  904MOL0     O21929   2.389   2.457   6.364 -0.0121  0.0072  0.0892
  904MOL0     C21930   2.257   2.434   6.393  1.1452 -0.3759 -0.5879
  904MOL0     C21931   2.178   2.534   6.463 -0.4938 -0.2773  0.1042
  904MOL0     C21932   2.048   2.509   6.506 -0.1930  0.4968 -0.4247
  904MOL0     C21933   1.999   2.622   6.596 -0.6497 -0.0636  0.3774
  904MOL0     C21934   1.977   2.392   6.466 -0.1698  0.0361 -0.4623
  904MOL0     C21935   1.835   2.367   6.486  0.1569 -0.0832 -0.9587
  904MOL0     O21936   1.778   2.262   6.418  0.9242  0.5378 -0.0633
  904MOL0     C21937   1.643   2.237   6.457  0.1864  0.0541 -0.0118
  904MOL0     C21938   1.602   2.177   6.577 -0.0849 -0.3557  0.2456
  904MOL0     C21939   1.465   2.147   6.605  0.7114 -0.0328  0.1501
  904MOL0     C21940   1.368   2.172   6.502 -0.5101  0.6275  0.1813
  904MOL0     O21941   1.229   2.152   6.504  0.8630  0.3022 -0.5526
  904MOL0     C21942   1.161   2.125   6.619 -0.5827  0.0304 -0.7779
  904MOL0     C21943   1.011   2.146   6.615  0.0950  0.3366 -0.5401
  904MOL0     C21944   0.946   2.102   6.743  0.4388 -0.3250 -0.4232
  904MOL0     C21945   0.797   2.104   6.722  0.4158  0.3139 -0.3034
  904MOL0     C21946   0.731   2.238   6.750  0.1310  0.3606  0.3089
  904MOL0     C21947   0.575   2.228   6.733 -0.7237  0.4041  0.2607
  904MOL0     C21948   0.547   2.198   6.588 -0.0516  0.3470 -0.0770
  904MOL0     C21949   0.405   2.243   6.556 -0.2105 -0.1740 -0.3663
  904MOL0    Cl21950   0.377   2.420   6.551 -0.1381  0.1182 -0.0327
  904MOL0     C21951   1.416   2.226   6.382 -0.0065 -0.2264 -0.9363
  904MOL0     C21952   1.546   2.273   6.365  0.4864 -0.1381 -0.0363
  904MOL0     O21953   1.772   2.440   6.564  0.5745  0.3378  0.0170
  904MOL0     C21954   2.051   2.296   6.395  0.0576 -0.1673 -0.6321
  904MOL0     C21955   2.189   2.312   6.366  0.0881 -0.2956 -0.1230
  904MOL0     N21956   2.935   2.497   6.677  0.3041  0.6763  0.2693
  904MOL0     N21957   2.946   2.580   6.777 -1.2012  0.1060 -0.3057
  904MOL0     C21958   1.929   3.316   6.829  0.2905  0.0000 -0.8166
  904MOL0     C21959   1.824   3.378   6.896  1.0547  1.3998  0.6952
  904MOL0     C21960   1.626   3.527   7.281 -0.4898  0.6116  0.3372
  904MOL0     C21961   1.492   3.479   7.265 -0.4225  0.1187 -0.2975
  904MOL0     C21962   1.397   3.512   7.355  0.1768  0.1149 -1.5465
  904MOL0     C21963   1.430   3.588   7.471  0.7190  0.8004  0.3049
  904MOL0     O21964   1.330   3.607   7.564 -0.4473 -1.0544  0.0417
  904MOL0     C21965   1.352   3.697   7.674 -0.8111  0.4232 -0.1328
  904MOL0     C21966   1.218   3.705   7.754 -0.1936  0.1442 -0.1981
  904MOL0     C21967   1.160   3.572   7.782 -0.2995 -0.9830 -1.0359
  904MOL0     C21968   1.037   3.597   7.879 -0.0280  0.0588  0.2211
  904MOL0     C21969   1.056   3.625   8.021 -0.9046  0.0661  0.3849
  904MOL0     C21970   1.070   3.660   8.139  0.4100  0.6726 -0.3162
  904MOL0     C21971   1.563   3.627   7.495  0.6192 -0.2401 -0.0454
  904MOL0     C21972   1.660   3.610   7.392  0.0410  0.7851 -0.1354
  904MOL0     H21973   1.824   3.194   7.171 -3.4175  1.9230  1.0141
  904MOL0     H21974   2.001   3.082   7.071 -0.1186  1.5356  1.4350
  904MOL0     H21975   2.093   2.966   6.908  1.7954 -1.2274 -0.8928
  904MOL0     H21976   2.001   2.967   6.749  0.3498  0.6436 -0.1032
  904MOL0     H21977   2.198   2.836   6.736 -1.1229 -0.0646  2.2995
  904MOL0     H21978   2.218   2.976   6.638  1.2880 -0.6201 -0.2930
  904MOL0     H21979   2.342   3.083   6.852 -0.3205 -0.1747 -1.2474
  904MOL0     H21980   2.343   2.907   6.900 -0.7398 -1.8782 -1.5711
  904MOL0     H21981   2.435   2.860   6.662  0.6967 -0.9291  0.1997
  904MOL0     H21982   2.448   3.039   6.636 -4.0193 -0.9435  0.2603
  904MOL0     H21983   2.668   2.983   6.704 -2.2434  2.8781 -0.2646
  904MOL0     H21984   2.583   3.044   6.849 -3.8417  1.2605 -0.6821
  904MOL0     H21985   2.559   2.800   6.927  0.2053  1.1906 -0.8578
  904MOL0     H21986   2.619   2.746   6.776  0.2345 -3.6271  2.3100
  904MOL0     H21987   2.779   2.919   6.984 -2.2801  0.1509  0.5781
  904MOL0     H21988   2.774   2.743   6.999  1.3158  1.3448  2.2634
  904MOL0     H21989   2.985   2.813   6.885 -1.6214 -0.4723  2.7520
  904MOL0     H21990   2.890   2.901   6.762 -0.5560  0.7456  0.7427
  904MOL0     H21991   2.771   2.751   6.572  2.6854  0.3046 -1.4858
  904MOL0     H21992   2.801   2.578   6.379  0.3723  0.6431  0.4335
  904MOL0     H21993   2.874   2.420   6.431 -1.0554 -0.4490 -0.6362
  904MOL0     H21994   2.602   2.526   6.496  1.7590  1.2755  3.5241
  904MOL0     H21995   2.663   2.364   6.534  0.3207  0.0514  0.3175
  904MOL0     H21996   2.688   2.312   6.285 -1.3441 -1.0641 -1.1312
  904MOL0     H21997   2.619   2.473   6.242 -1.9565  1.2590  0.9486
  904MOL0     H21998   2.457   2.272   6.401 -1.3943 -0.4743 -0.1919
  904MOL0     H21999   2.464   2.312   6.223  3.4432 -2.0690  0.1952
  904MOL0     H22000   2.222   2.627   6.499 -1.3084 -1.1328  3.6799
  904MOL0     H22001   2.074   2.696   6.623 -2.0911  1.3136  0.7435
  904MOL0     H22002   1.912   2.679   6.563 -1.3963 -0.1460  2.0777
  904MOL0     H22003   1.970   2.583   6.694 -1.4832  3.9817  1.9429
  904MOL0     H22004   1.680   2.168   6.652  2.8750  2.0902 -2.2870
  904MOL0     H22005   1.437   2.102   6.700 -0.8704 -1.2797 -0.8603
  904MOL0     H22006   1.176   2.021   6.649  1.9685 -0.0565 -2.0495
  904MOL0     H22007   1.209   2.193   6.690  1.3095 -1.4098 -0.6194
  904MOL0     H22008   0.988   2.249   6.586  2.5990  1.3410  0.7470
  904MOL0     H22009   0.979   2.082   6.532  2.4677 -1.0548 -0.4671
  904MOL0     H22010   0.969   2.178   6.818 -0.5652 -0.6122  0.1929
  904MOL0     H22011   0.980   2.003   6.775 -0.4270  0.1945  2.3791
  904MOL0     H22012   0.780   2.057   6.625 -0.4367 -4.2989  1.8299
  904MOL0     H22013   0.763   2.032   6.797  1.0927 -0.6224 -0.8792
  904MOL0     H22014   0.772   2.302   6.671 -0.3202  0.1672 -0.0889
  904MOL0     H22015   0.758   2.280   6.847  2.3387  0.1011 -0.1230
  904MOL0     H22016   0.529   2.151   6.796  0.9201  1.2143  2.6032
  904MOL0     H22017   0.528   2.324   6.755 -1.2779  0.1715  0.1256
  904MOL0     H22018   0.565   2.092   6.564 -2.3038 -0.2612  0.6645
  904MOL0     H22019   0.608   2.259   6.521 -0.9133 -1.1610 -2.3735
  904MOL0     H22020   0.327   2.197   6.619 -1.1474 -0.5186 -1.7222
  904MOL0     H22021   0.389   2.205   6.454  1.1130 -0.2711 -0.5489
  904MOL0     H22022   1.336   2.250   6.313 -1.5708 -1.4854  0.3756
  904MOL0     H22023   1.573   2.318   6.270 -0.8287 -2.5478 -1.6559
  904MOL0     H22024   2.000   2.218   6.340  2.9728 -2.6475 -0.1190
  904MOL0     H22025   2.236   2.241   6.298  2.6356 -2.0114  3.1209
  904MOL0     H22026   1.961   3.348   6.731  0.7468  0.1945 -0.6067
  904MOL0     H22027   1.773   3.466   6.858 -1.7596  0.7377  2.6568
  904MOL0     H22028   1.470   3.408   7.186  1.4271 -3.7122  2.3206
  904MOL0     H22029   1.294   3.480   7.346 -0.3647  0.6609  1.5777
  904MOL0     H22030   1.428   3.654   7.739  1.6650  0.6636 -2.6642
  904MOL0     H22031   1.390   3.795   7.642  0.2710  1.1847  3.1600
  904MOL0     H22032   1.149   3.768   7.697 -0.2196  0.5355  0.2593
  904MOL0     H22033   1.238   3.751   7.851 -1.4077 -1.5116  0.8822
  904MOL0     H22034   1.234   3.506   7.829 -1.2961 -1.5121 -0.1918
  904MOL0     H22035   1.131   3.509   7.697 -2.0076 -2.6013  0.6469
  904MOL0     H22036   0.970   3.512   7.868  1.6957 -1.2115 -0.8709
  904MOL0     H22037   0.983   3.685   7.843  1.7939  2.2518  2.4242
  904MOL0     H22038   1.067   3.703   8.237 -4.0385  1.4873 -0.5931
  904MOL0     H22039   1.590   3.682   7.584  3.0804  0.6976 -1.2750
  904MOL0     H22040   1.758   3.656   7.399 -0.0240  0.8513  0.3394
  905MOL0     O22041   4.855   7.528   2.203 -0.6712 -0.0258 -0.7857
  905MOL0     C22042   4.813   7.421   2.164  0.1300 -0.7409 -0.4923
  905MOL0     O22043   4.709   7.352   2.214  0.3854  0.0515  0.2214
  905MOL0     C22044   4.652   7.375   2.339 -0.8053  0.0557  0.5039
  905MOL0     C22045   4.551   7.284   2.382 -0.5979 -0.3056 -0.2553
  905MOL0     C22046   4.494   7.290   2.508  0.5309  0.0482 -0.0327
  905MOL0     C22047   4.525   7.378   2.606 -0.6629 -0.6173  0.4360
  905MOL0     O22048   4.471   7.380   2.731 -0.2669 -0.4079 -0.3110
  905MOL0     C22049   4.331   7.342   2.744 -0.1212 -0.6290 -0.4075
  905MOL0     C22050   4.287   7.396   2.874  0.8882 -0.6596 -0.3158
  905MOL0     C22051   4.133   7.375   2.896 -0.3964 -0.2110 -0.3996
  905MOL0     C22052   4.080   7.440   3.027 -0.8847  0.1619  0.3583
  905MOL0     C22053   3.937   7.399   3.055 -1.2596 -0.3136 -0.5752
  905MOL0     C22054   3.898   7.415   3.203 -0.1247 -0.0882  0.0723
  905MOL0     C22055   3.756   7.385   3.235 -0.0360 -0.0143  0.1968
  905MOL0     C22056   3.660   7.480   3.160 -0.0295  0.3152 -0.6764
  905MOL0     N22057   3.525   7.439   3.198  0.8202  0.5205 -0.0023
  905MOL0     C22058   3.476   7.318   3.226 -0.8161 -0.2721 -1.1158
  905MOL0     C22059   3.364   7.333   3.297  0.2949  0.1399  0.6101
  905MOL0     C22060   3.282   7.227   3.364  0.0529  0.2297 -0.3636
  905MOL0     C22061   3.163   7.184   3.266 -0.8886 -0.6527 -0.1853
  905MOL0     C22062   3.075   7.069   3.333  1.2397 -0.3348  0.9201
  905MOL0     C22063   3.145   6.934   3.361  0.5005 -0.2142  0.2442
  905MOL0     O22064   3.061   6.837   3.441 -0.1071  0.4700  0.4333
  905MOL0     C22065   2.970   6.754   3.386  0.0678 -0.1234  0.2064
  905MOL0     C22066   2.953   6.734   3.246  0.2392  0.6954  0.5848
  905MOL0     C22067   2.858   6.643   3.201  0.6732  0.3867  0.8042
  905MOL0     C22068   2.847   6.632   3.049 -0.4059 -0.8403  0.2293
  905MOL0     C22069   2.763   6.579   3.286 -0.1537  0.3789 -0.9818
  905MOL0     C22070   2.643   6.496   3.236 -1.0999  0.2101 -0.0465
  905MOL0     O22071   2.617   6.481   3.108 -0.0497  0.9131 -0.5012
  905MOL0     C22072   2.497   6.421   3.076 -0.7572  0.6784  0.2844
  905MOL0     C22073   2.504   6.286   3.044 -0.0214 -0.0648  0.4445
  905MOL0     C22074   2.389   6.214   3.007  0.3090 -0.3753  0.2253
  905MOL0     C22075   2.264   6.281   2.996  0.6766  0.7427 -0.0257
  905MOL0     O22076   2.141   6.219   2.955 -0.8717  0.0573  0.2027
  905MOL0     C22077   2.140   6.094   2.884  0.4077 -0.5339 -0.3792
  905MOL0     C22078   2.114   5.977   2.982  0.4923  1.0034 -0.1615
  905MOL0     C22079   1.969   5.981   3.046  0.2105 -0.0317  0.2017
  905MOL0     C22080   1.868   5.913   2.961 -0.2987  0.2579  1.0171
  905MOL0     C22081   1.736   5.902   3.045  0.3413 -0.5196  0.2047
  905MOL0     C22082   1.613   5.865   2.953  0.2658  0.0137  0.2090
  905MOL0     C22083   1.479   5.873   3.018 -0.4179 -0.8817 -0.2241
  905MOL0     C22084   1.375   5.769   2.966  0.1045  0.1019 -0.7415
  905MOL0    Cl22085   1.294   5.685   3.099  0.3430 -0.0416  0.1379
  905MOL0     C22086   2.264   6.420   3.017 -0.5158  0.5443 -0.1119
  905MOL0     C22087   2.377   6.489   3.065 -0.1408  0.4077 -0.5372
  905MOL0     O22088   2.584   6.443   3.326  0.5871  0.5516  0.6894
  905MOL0     C22089   2.779   6.608   3.422  0.1519 -0.6054 -0.6111
  905MOL0     C22090   2.871   6.700   3.474 -0.9314  0.4114 -0.2574
  905MOL0     N22091   3.334   7.466   3.299  0.1365  0.2206 -0.0608
  905MOL0     N22092   3.438   7.532   3.253  0.3657 -0.6890  0.1633
  905MOL0     C22093   4.633   7.454   2.577 -0.2638 -0.1878 -0.1050
  905MOL0     C22094   4.691   7.461   2.443 -0.7847 -0.0239 -0.6063
  905MOL0     C22095   4.874   7.364   2.041  0.4324 -0.1142 -0.0269
  905MOL0     C22096   4.991   7.422   1.987 -0.1732 -0.2496  0.2231
  905MOL0     C22097   5.039   7.375   1.865 -0.2355  0.2907 -0.2656
  905MOL0     C22098   4.994   7.254   1.806  0.3952 -0.0230 -0.7309
  905MOL0     O22099   5.037   7.189   1.694 -0.3570  0.7630  0.3095
  905MOL0     C22100   5.156   7.235   1.628  0.1543  0.4013  0.3550
  905MOL0     C22101   5.251   7.124   1.569  0.0464 -0.5796  0.8736
  905MOL0     C22102   5.386   7.188   1.512 -0.3838 -0.4446  0.0885
  905MOL0     C22103   5.491   7.079   1.521  0.1861 -0.4014  0.7602
  905MOL0     C22104   5.629   7.134   1.533 -0.0702  0.1084  0.4894
  905MOL0     C22105   5.738   7.189   1.552  0.1097  0.6683 -0.1204
  905MOL0     C22106   4.880   7.198   1.864  0.7546 -0.1322  0.6849
  905MOL0     C22107   4.824   7.255   1.973 -0.2317 -1.0309 -0.7856
  905MOL0     H22108   4.508   7.217   2.308 -0.2358  0.2263 -0.9619
  905MOL0     H22109   4.426   7.208   2.529 -0.8908  1.5302  1.4701
  905MOL0     H22110   4.267   7.393   2.672 -0.9310 -1.2441 -0.1432
  905MOL0     H22111   4.321   7.233   2.734  0.3643 -0.6980 -0.2251
  905MOL0     H22112   4.332   7.336   2.953 -1.2208 -2.3299 -0.2977
  905MOL0     H22113   4.318   7.496   2.907 -1.9488 -0.2691  1.4703
  905MOL0     H22114   4.069   7.417   2.818 -0.2814 -0.1634 -0.4678
  905MOL0     H22115   4.111   7.267   2.896  1.1988 -0.5596 -1.3346
  905MOL0     H22116   4.146   7.405   3.107  0.4580  1.6312 -0.0515
  905MOL0     H22117   4.094   7.548   3.028  1.0849  0.0471 -2.2515
  905MOL0     H22118   3.876   7.463   2.991 -0.0743 -1.0799 -2.5770
  905MOL0     H22119   3.914   7.295   3.033  0.6148 -0.6229 -1.2902
  905MOL0     H22120   3.962   7.351   3.264  0.0760 -0.6625 -0.7327
  905MOL0     H22121   3.922   7.520   3.222  1.5693 -0.6210  1.0700
  905MOL0     H22122   3.740   7.278   3.214 -1.8503  0.2156  0.2719
  905MOL0     H22123   3.732   7.388   3.342 -0.4408 -0.2771  0.1172
  905MOL0     H22124   3.664   7.464   3.052  3.5782 -0.9425 -0.5069
  905MOL0     H22125   3.681   7.585   3.186  2.1088  0.1706 -1.5928
  905MOL0     H22126   3.524   7.224   3.201  1.0322  0.7480 -1.5370
  905MOL0     H22127   3.342   7.139   3.388 -3.2937 -1.8812  0.9155
  905MOL0     H22128   3.243   7.264   3.459  2.6459  0.2546  0.7661
  905MOL0     H22129   3.200   7.136   3.175  1.0215  0.4454 -0.0367
  905MOL0     H22130   3.101   7.272   3.246 -0.3044 -0.7466 -2.7032
  905MOL0     H22131   2.983   7.068   3.273  0.4853  2.4016  1.8899
  905MOL0     H22132   3.032   7.105   3.427 -0.5468 -2.1231  0.8480
  905MOL0     H22133   3.231   6.935   3.429  0.1488 -0.1988  0.6942
  905MOL0     H22134   3.188   6.889   3.271 -1.6754 -2.8046  0.3892
  905MOL0     H22135   3.018   6.778   3.172 -0.5221 -1.4721 -1.4970
  905MOL0     H22136   2.756   6.676   3.007 -0.8920 -3.9503 -2.3978
  905MOL0     H22137   2.922   6.687   2.991 -2.2499  1.6694  0.0654
  905MOL0     H22138   2.846   6.526   3.021  2.3342 -0.7701 -0.4143
  905MOL0     H22139   2.594   6.227   3.052 -0.3177 -0.4544  0.9885
  905MOL0     H22140   2.403   6.114   2.967  1.8393  0.2218 -0.8341
  905MOL0     H22141   2.063   6.093   2.806 -2.1462 -2.3379  1.9777
  905MOL0     H22142   2.238   6.077   2.839 -0.3617 -1.9918 -1.5822
  905MOL0     H22143   2.143   5.883   2.934  0.4252 -0.1010  1.8647
  905MOL0     H22144   2.184   5.983   3.066  1.2266  1.6043 -0.8003
  905MOL0     H22145   1.933   6.083   3.062 -3.2954 -0.9158 -1.3638
  905MOL0     H22146   1.965   5.937   3.147 -2.0065  2.4941  1.3239
  905MOL0     H22147   1.845   5.968   2.869 -0.3432 -2.6309 -0.8419
  905MOL0     H22148   1.901   5.813   2.930 -2.7010  0.3196 -2.3114
  905MOL0     H22149   1.712   6.001   3.085 -1.1883 -0.4625 -0.7691
  905MOL0     H22150   1.732   5.833   3.130 -3.5543  1.3603  1.7986
  905MOL0     H22151   1.617   5.922   2.860  0.4985 -3.8069 -2.3733
  905MOL0     H22152   1.628   5.762   2.919  1.5786  0.4748 -0.6922
  905MOL0     H22153   1.434   5.971   3.002  1.0097  0.0403  1.0588
  905MOL0     H22154   1.484   5.866   3.127  0.2245 -1.2327 -0.2715
  905MOL0     H22155   1.429   5.701   2.899 -2.3389 -1.2687 -1.4193
  905MOL0     H22156   1.293   5.811   2.906 -3.9273  0.2186  4.2153
  905MOL0     H22157   2.176   6.473   2.979  0.1198  0.3519 -1.9574
  905MOL0     H22158   2.381   6.596   3.085  1.1766  0.3112 -0.1826
  905MOL0     H22159   2.698   6.585   3.492  0.4828 -0.4461 -0.1712
  905MOL0     H22160   2.867   6.707   3.582 -3.3040 -1.5377 -0.1312
  905MOL0     H22161   4.672   7.523   2.651  1.3154  0.0922 -1.1406
  905MOL0     H22162   4.780   7.519   2.419  0.4358 -2.6561 -2.9720
  905MOL0     H22163   5.034   7.514   2.027  2.0405 -1.4401  0.7636
  905MOL0     H22164   5.119   7.433   1.819  0.3803  0.3846  0.8969
  905MOL0     H22165   5.125   7.302   1.547 -1.2732 -0.0348  0.5005
  905MOL0     H22166   5.220   7.289   1.698  2.9922  1.9575 -3.1171
  905MOL0     H22167   5.207   7.071   1.484  1.2104 -1.4982  0.8206
  905MOL0     H22168   5.271   7.055   1.651 -0.5928 -1.9763 -0.0963
  905MOL0     H22169   5.424   7.263   1.582 -0.8624  0.5130 -0.6656
  905MOL0     H22170   5.374   7.225   1.410 -1.8845 -1.2167 -0.0415
  905MOL0     H22171   5.492   7.019   1.430 -0.7044 -0.4220  0.7629
  905MOL0     H22172   5.470   7.012   1.604 -1.0270  0.5946  1.2898
  905MOL0     H22173   5.839   7.214   1.578  0.4465 -3.1410  3.3663
  905MOL0     H22174   4.843   7.102   1.830 -0.3613 -0.0333  1.5264
  905MOL0     H22175   4.735   7.211   2.016 -0.1864 -1.8683 -1.5425
  906MOL0     O22176   3.885   9.196  10.266  0.4420  0.6716 -0.3785
  906MOL0     C22177   3.862   9.227  10.386  0.0037 -0.5107  0.3308
  906MOL0     O22178   3.749   9.301  10.434  0.4973  0.2900  0.3112
  906MOL0     C22179   3.652   9.344  10.353 -1.1632  0.6865  0.6274
  906MOL0     C22180   3.618   9.478  10.354  0.4213  0.2580  0.6082
  906MOL0     C22181   3.532   9.526  10.260  0.1804 -0.3235 -0.1206
  906MOL0     C22182   3.456   9.447  10.173  0.0263 -0.4793  0.0233
  906MOL0     O22183   3.357   9.489  10.090  0.1839  0.2413  0.0438
  906MOL0     C22184   3.339   9.628  10.044 -0.3409 -0.0803 -0.8999
  906MOL0     C22185   3.209   9.637   9.956 -0.1867  0.3779  0.5421
  906MOL0     C22186   3.085   9.596  10.029  0.7396  0.8532 -0.6683
  906MOL0     C22187   2.954   9.649   9.961 -0.0228 -0.1642 -0.3563
  906MOL0     C22188   2.844   9.639  10.068 -0.5391  0.5134  0.4704
  906MOL0     C22189   2.709   9.674  10.008  0.3868  0.6407 -0.6186
  906MOL0     C22190   2.577   9.636  10.081 -1.1396  0.3183 -0.6940
  906MOL0     C22191   2.576   9.716  10.219  0.1817 -0.4368 -0.3797
  906MOL0     N22192   2.456   9.673  10.289  0.7386  0.2857  0.6267
  906MOL0     C22193   2.324   9.688  10.247  0.0048 -0.0161  0.1857
  906MOL0     C22194   2.241   9.663  10.349 -0.5076 -0.0484 -0.3353
  906MOL0     C22195   2.090   9.633  10.342 -0.0801 -0.3709 -1.1006
  906MOL0     C22196   2.010   9.758  10.380  0.2445 -0.0855 -1.1658
  906MOL0     C22197   2.012   9.773  10.534  0.2315  0.4753  1.1415
  906MOL0     C22198   1.930   9.893  10.579 -0.5027  0.0440  0.7464
  906MOL0     O22199   2.000  10.011  10.546 -0.1721 -0.2721 -0.1433
  906MOL0     C22200   1.935  10.132  10.538  0.0672  0.7554  0.0757
  906MOL0     C22201   2.005  10.245  10.514 -0.7224  0.0565  0.2395
  906MOL0     C22202   1.948  10.375  10.486 -0.1711  0.8312 -0.3355
  906MOL0     C22203   2.042  10.498  10.446 -0.8511  0.1066  0.4036
  906MOL0     C22204   1.805  10.377  10.493 -0.7500 -0.1650 -0.4554
  906MOL0     C22205   1.721  10.504  10.485  0.3878  0.4361  0.3341
  906MOL0     O22206   1.586  10.487  10.517  0.8242  0.5327 -0.3434
  906MOL0     C22207   1.497  10.589  10.531 -0.0755  0.9288 -0.4246
  906MOL0     C22208   1.374  10.590  10.462 -0.3257 -0.3410  0.3679
  906MOL0     C22209   1.286  10.705  10.479 -1.1816 -0.1598  1.3403
  906MOL0     C22210   1.317  10.805  10.579  0.3557  0.7426 -0.6505
  906MOL0     O22211   1.222  10.892  10.622  0.1078  0.3030 -0.0290
  906MOL0     C22212   1.113  10.825  10.696  0.4358  0.3516  1.6028
  906MOL0     C22213   1.024  10.921  10.765 -0.0135 -0.8852 -0.3387
  906MOL0     C22214   0.929  10.993  10.674  0.2098 -0.6047  0.3396
  906MOL0     C22215   0.972  11.135  10.654 -0.2443  0.8758 -0.2022
  906MOL0     C22216   0.875  11.233  10.580 -0.0181  0.1286 -0.2230
  906MOL0     C22217   0.755  11.281  10.662 -0.6170  0.4641  0.4428
  906MOL0     C22218   0.787  11.399  10.740  0.6696  0.2300  0.5849
  906MOL0     C22219   0.671  11.454  10.814 -0.0212 -0.3143  0.1844
  906MOL0    Cl22220   0.591  11.331  10.920  0.3708 -0.1409  0.0960
  906MOL0     C22221   1.428  10.782  10.659  0.4106  0.0066  0.0510
  906MOL0     C22222   1.525  10.685  10.630  0.3075 -0.0190  0.0176
  906MOL0     O22223   1.771  10.611  10.452  0.2289 -0.3669  0.1193
  906MOL0     C22224   1.734  10.262  10.549 -0.2276 -0.9876  0.4787
  906MOL0     C22225   1.795  10.139  10.558 -0.2635  0.4241 -0.8169
  906MOL0     N22226   2.323   9.628  10.452  0.0211 -0.4802 -0.4340
  906MOL0     N22227   2.454   9.639  10.423  0.9244 -0.2896  0.2841
  906MOL0     C22228   3.488   9.312  10.180  0.3039  0.3771  0.3226
  906MOL0     C22229   3.586   9.258  10.262 -0.0437 -0.4319 -0.0111
  906MOL0     C22230   3.981   9.214  10.477 -0.0694  0.0225 -0.3861
  906MOL0     C22231   3.971   9.251  10.610  0.4535 -0.1781  0.0457
  906MOL0     C22232   4.084   9.269  10.692  0.2674 -0.4173  0.1903
  906MOL0     C22233   4.203   9.223  10.662 -0.6979 -0.0801  0.4038
  906MOL0     O22234   4.314   9.212  10.743 -0.1228 -0.7384  0.2564
  906MOL0     C22235   4.321   9.290  10.868  0.6211  0.6714  0.3932
  906MOL0     C22236   4.452   9.255  10.948  0.1339 -0.5243  0.0416
  906MOL0     C22237   4.485   9.362  11.057  0.2275 -0.8047  0.6212
  906MOL0     C22238   4.632   9.354  11.115  0.7909 -0.3443  0.1252
  906MOL0     C22239   4.654   9.472  11.201  0.7909 -0.6682  0.0197
  906MOL0     C22240   4.671   9.557  11.287  0.7122  1.1004  0.9261
  906MOL0     C22241   4.215   9.172  10.538 -0.3705 -0.5181 -0.3979
  906MOL0     C22242   4.109   9.162  10.445  0.5812  0.0381 -0.5752
  906MOL0     H22243   3.675   9.544  10.419  3.1957  0.3211 -1.6924
  906MOL0     H22244   3.533   9.634  10.277  2.8505 -0.5468  1.7465
  906MOL0     H22245   3.350   9.711  10.114 -0.6319 -0.7839  0.0130
  906MOL0     H22246   3.423   9.628   9.975 -0.9851  1.9496 -1.7409
  906MOL0     H22247   3.206   9.741   9.922  0.2033 -0.6577 -2.9688
  906MOL0     H22248   3.215   9.582   9.862 -0.9670  1.2039 -0.0012
  906MOL0     H22249   3.080   9.487  10.033  0.7896  0.8628 -0.1953
  906MOL0     H22250   3.082   9.632  10.133  1.0714 -1.4675  0.2074
  906MOL0     H22251   2.976   9.753   9.937  3.5267 -0.6851  0.1314
  906MOL0     H22252   2.927   9.595   9.870  0.0185  2.5908 -2.1227
  906MOL0     H22253   2.844   9.535  10.104  0.2927 -0.5139 -2.2269
  906MOL0     H22254   2.862   9.690  10.163 -1.2032  0.1114  0.8196
  906MOL0     H22255   2.706   9.782   9.990  0.5893  0.4192 -2.0774
  906MOL0     H22256   2.705   9.632   9.908 -1.8271  1.7634 -1.0674
  906MOL0     H22257   2.492   9.669  10.020 -0.6061  0.0984 -1.5860
  906MOL0     H22258   2.568   9.527  10.079  1.3459  0.0326  0.3454
  906MOL0     H22259   2.568   9.825  10.208  0.1654 -0.1563  1.8683
  906MOL0     H22260   2.672   9.699  10.267  0.2481  1.1892  0.1374
  906MOL0     H22261   2.291   9.699  10.144 -2.2254  2.5200  1.0507
  906MOL0     H22262   2.064   9.612  10.238  1.5160 -1.5784 -1.2954
  906MOL0     H22263   2.059   9.546  10.400  0.0014  0.4037  0.1476
  906MOL0     H22264   1.912   9.746  10.334  0.8182 -1.5002 -2.0919
  906MOL0     H22265   2.056   9.852  10.348  1.9850 -0.4097  0.1812
  906MOL0     H22266   2.115   9.791  10.566 -0.0524  2.8525  0.8661
  906MOL0     H22267   1.973   9.681  10.580  2.8776 -0.4821  1.6471
  906MOL0     H22268   1.902   9.894  10.685  0.7680 -0.7998  1.1184
  906MOL0     H22269   1.839   9.886  10.519  1.0397 -2.0317 -1.5305
  906MOL0     H22270   2.113  10.240  10.507 -0.8210  0.3514 -3.1920
  906MOL0     H22271   2.017  10.535  10.346  1.8634 -3.2992 -1.7974
  906MOL0     H22272   2.028  10.580  10.516  1.6362  0.7485  0.2458
  906MOL0     H22273   2.145  10.461  10.447 -0.5191  0.9965  1.5214
  906MOL0     H22274   1.341  10.516  10.390 -1.5252  1.0349 -0.5562
  906MOL0     H22275   1.186  10.707  10.436 -0.6522  2.1644  0.0547
  906MOL0     H22276   1.047  10.768  10.631  0.0639 -0.2564  2.4965
  906MOL0     H22277   1.156  10.754  10.767  2.5407  1.6051  1.6655
  906MOL0     H22278   0.966  10.862  10.836  0.3344 -0.2135  0.5258
  906MOL0     H22279   1.087  10.996  10.815 -0.0082 -0.8608 -0.3816
  906MOL0     H22280   0.831  10.995  10.723  0.4217  0.9475  0.7463
  906MOL0     H22281   0.910  10.928  10.588 -1.4431 -1.2660  1.1382
  906MOL0     H22282   0.988  11.176  10.754  0.9053 -1.5730  0.6963
  906MOL0     H22283   1.073  11.140  10.610 -0.6428  4.1241 -1.0344
  906MOL0     H22284   0.831  11.171  10.502 -2.8522 -1.8948  2.6899
  906MOL0     H22285   0.926  11.323  10.544  1.7168 -1.5160 -2.1119
  906MOL0     H22286   0.678  11.305  10.589 -1.0739 -2.3795 -0.1354
  906MOL0     H22287   0.717  11.203  10.728  0.6808  0.8381  1.6690
  906MOL0     H22288   0.846  11.466  10.677  1.8043 -1.5922 -0.3769
  906MOL0     H22289   0.852  11.370  10.823 -2.0541 -2.7283  1.8971
  906MOL0     H22290   0.599  11.509  10.753 -1.0069 -0.8870  0.7967
  906MOL0     H22291   0.719  11.528  10.878 -0.2300 -1.6141  1.9084
  906MOL0     H22292   1.439  10.859  10.735 -0.7384  0.0801  0.1632
  906MOL0     H22293   1.619  10.671  10.682 -0.2967 -3.0625  0.4890
  906MOL0     H22294   1.626  10.261  10.561 -0.1390 -1.0303  1.3769
  906MOL0     H22295   1.739  10.054  10.596  2.6404 -1.7468 -1.0405
  906MOL0     H22296   3.434   9.247  10.111  0.9474  1.7116 -1.5378
  906MOL0     H22297   3.609   9.152  10.254  0.8482 -0.4301  1.9630
  906MOL0     H22298   3.875   9.283  10.648 -0.3618  0.2055 -2.1714
  906MOL0     H22299   4.079   9.316  10.789  0.8745 -1.1333  0.5850
  906MOL0     H22300   4.332   9.396  10.841 -1.0874  0.2604 -2.2784
  906MOL0     H22301   4.229   9.284  10.926  0.7736 -0.6170  0.5103
  906MOL0     H22302   4.531   9.277  10.876 -1.3172  1.1222 -1.1387
  906MOL0     H22303   4.454   9.150  10.976  4.2371 -1.2738 -2.3334
  906MOL0     H22304   4.416   9.360  11.143  0.8437  3.0828  1.3855
  906MOL0     H22305   4.468   9.463  11.019 -2.0134 -1.2223  0.3343
  906MOL0     H22306   4.705   9.345  11.035  0.7372 -1.3575  0.1813
  906MOL0     H22307   4.641   9.259  11.170 -1.4639 -1.0194 -0.5707
  906MOL0     H22308   4.704   9.629  11.359  0.9026  1.4871  0.4522
  906MOL0     H22309   4.317   9.138  10.525 -0.4143 -0.2065 -1.6301
  906MOL0     H22310   4.124   9.111  10.351  1.9610 -1.1966  0.2768
  907MOL0     O22311   1.714  11.003   4.858  0.9316  0.4790 -0.1180
  907MOL0     C22312   1.740  11.118   4.834  0.4973 -0.6875 -0.3427
  907MOL0     O22313   1.651  11.213   4.794 -0.6712  0.2376 -0.5379
  907MOL0     C22314   1.523  11.173   4.757  0.1058 -0.4867 -0.2259
  907MOL0     C22315   1.411  11.233   4.821 -0.7384 -0.5406  0.5051
  907MOL0     C22316   1.279  11.189   4.790  0.0355 -0.0857  0.7988
  907MOL0     C22317   1.263  11.087   4.698  0.6102  0.4076 -0.3132
  907MOL0     O22318   1.133  11.044   4.673 -0.9608  0.0003 -0.6572
  907MOL0     C22319   1.123  10.927   4.593 -0.3311 -0.5858  0.5535
  907MOL0     C22320   0.974  10.928   4.561  0.3842 -0.4774 -0.5091
  907MOL0     C22321   0.931  10.804   4.480  0.8251  0.1647  0.2624
  907MOL0     C22322   0.969  10.809   4.333  0.4338  0.3763  0.0057
  907MOL0     C22323   0.897  10.707   4.244  0.3557  0.3599 -0.0365
  907MOL0     C22324   0.945  10.687   4.098 -0.1023  0.7110 -0.6788
  907MOL0     C22325   0.869  10.573   4.026  0.2533 -0.3196 -0.1934
  907MOL0     C22326   0.891  10.596   3.877  0.2390  0.1887 -1.4628
  907MOL0     N22327   0.788  10.678   3.822 -0.1738  0.8920  0.1016
  907MOL0     C22328   0.742  10.661   3.694 -0.3543 -0.7432  0.1131
  907MOL0     C22329   0.648  10.762   3.673 -0.2647 -0.7720 -0.4924
  907MOL0     C22330   0.571  10.789   3.547  0.9037 -0.2153 -0.9110
  907MOL0     C22331   0.411  10.777   3.580  0.1721 -1.5379  0.3991
  907MOL0     C22332   0.360  10.892   3.659 -0.4396  0.3527  0.0001
  907MOL0     C22333   0.214  10.907   3.645  0.3878  0.0032  0.6747
  907MOL0     O22334   0.183  11.022   3.717 -0.5473  0.4274  0.0173
  907MOL0     C22335   0.060  11.088   3.703  0.3605 -0.1213  0.0749
  907MOL0     C22336   0.060  11.224   3.748  0.5821  0.3908 -0.5651
  907MOL0     C22337  -0.068  11.286   3.756 -0.2424  0.3726  1.1465
  907MOL0     C22338  -0.073  11.424   3.834 -0.1289  0.5157  0.2964
  907MOL0     C22339  -0.178  11.232   3.684 -0.8088 -0.6859 -0.7188
  907MOL0     C22340  -0.308  11.304   3.683 -0.7281  0.1583 -0.4599
  907MOL0     O22341  -0.374  11.280   3.569 -0.2391 -0.0335  0.3054
  907MOL0     C22342  -0.484  11.355   3.542  0.0749 -0.4584  0.7936
  907MOL0     C22343  -0.477  11.433   3.426 -0.1797  0.0852 -0.4434
  907MOL0     C22344  -0.586  11.518   3.385  0.2635 -0.2906 -0.1301
  907MOL0     C22345  -0.705  11.516   3.462 -0.5564 -1.2982  0.8334
  907MOL0     O22346  -0.812  11.599   3.439  0.6617 -0.1315  0.0801
  907MOL0     C22347  -0.796  11.722   3.373 -0.0831 -0.6361  0.3126
  907MOL0     C22348  -0.928  11.785   3.337 -0.7364 -0.5387 -0.4160
  907MOL0     C22349  -1.009  11.811   3.471  0.0865  0.7565 -0.1348
  907MOL0     C22350  -1.151  11.872   3.443 -0.3888  0.9621  0.6694
  907MOL0     C22351  -1.234  11.879   3.572  0.1066  0.2022  0.0144
  907MOL0     C22352  -1.374  11.940   3.542 -0.3104 -0.0872 -0.6236
  907MOL0     C22353  -1.442  12.018   3.664 -0.1108  0.3233  0.0668
  907MOL0     C22354  -1.580  12.073   3.629 -0.6633  0.6236  0.4228
  907MOL0    Cl22355  -1.710  11.955   3.593  0.0237 -0.2345  0.1679
  907MOL0     C22356  -0.712  11.437   3.575 -0.0767 -0.9700 -0.0660
  907MOL0     C22357  -0.605  11.354   3.618  0.0717 -0.8087  0.4271
  907MOL0     O22358  -0.350  11.382   3.770 -0.2758 -0.1168  0.7094
  907MOL0     C22359  -0.163  11.103   3.625  0.8988  0.9623  0.3587
  907MOL0     C22360  -0.047  11.037   3.638 -0.0070 -0.1823  0.2457
  907MOL0     N22361   0.630  10.826   3.796  0.3571  0.5852 -0.0014
  907MOL0     N22362   0.719  10.776   3.880  0.0440 -0.9204 -0.4214
  907MOL0     C22363   1.374  11.032   4.640 -0.1502  0.8301  1.0985
  907MOL0     C22364   1.504  11.076   4.658  0.1592  0.4875  0.3099
  907MOL0     C22365   1.876  11.169   4.832  0.7212 -0.1403 -0.0818
  907MOL0     C22366   1.909  11.297   4.782 -0.4463  0.5086 -0.2861
  907MOL0     C22367   2.044  11.338   4.774  0.3027  0.1921 -0.2364
  907MOL0     C22368   2.149  11.261   4.816 -0.0107  0.1791 -0.3595
  907MOL0     O22369   2.275  11.315   4.823 -0.8395 -0.9666  0.8062
  907MOL0     C22370   2.389  11.232   4.827 -0.2973  0.3101  1.1099
  907MOL0     C22371   2.515  11.299   4.777  0.2462 -0.0142 -0.0880
  907MOL0     C22372   2.498  11.353   4.635  0.2137  0.1321  0.1493
  907MOL0     C22373   2.618  11.441   4.596 -0.0561 -0.1017 -0.8869
  907MOL0     C22374   2.743  11.374   4.595 -0.2800  0.3957  0.1859
  907MOL0     C22375   2.846  11.315   4.608 -0.1454 -0.2339  0.4690
  907MOL0     C22376   2.120  11.126   4.857  0.0399  0.4372  0.0250
  907MOL0     C22377   1.982  11.080   4.863 -0.3355 -0.1363  0.3571
  907MOL0     H22378   1.426  11.311   4.894  3.0105  0.3852 -1.0200
  907MOL0     H22379   1.201  11.234   4.851 -0.8065  0.9548 -0.9752
  907MOL0     H22380   1.178  10.917   4.499 -0.8317  1.2548  0.0295
  907MOL0     H22381   1.154  10.841   4.652  0.2948  0.1326  1.2929
  907MOL0     H22382   0.916  10.911   4.652 -0.4541 -3.0689 -1.4431
  907MOL0     H22383   0.941  11.022   4.515 -0.9443 -1.5403 -1.8242
  907MOL0     H22384   0.972  10.715   4.529  0.6061  1.2103  2.4589
  907MOL0     H22385   0.822  10.788   4.474  1.2821 -3.8357 -0.7901
  907MOL0     H22386   0.945  10.910   4.299 -2.4620 -0.4893 -0.7849
  907MOL0     H22387   1.076  10.786   4.328  0.5984  1.0554  0.4423
  907MOL0     H22388   0.911  10.617   4.304 -0.9069  0.4786  0.4761
  907MOL0     H22389   0.793  10.739   4.250  0.4114  0.2779  1.8302
  907MOL0     H22390   0.923  10.779   4.043  2.4586  1.1606 -1.0554
  907MOL0     H22391   1.053  10.667   4.097 -0.2444 -0.2070 -2.7352
  907MOL0     H22392   0.916  10.480   4.057  0.3920  0.2375  1.3755
  907MOL0     H22393   0.764  10.569   4.056  0.3624 -0.7611  0.1408
  907MOL0     H22394   0.884  10.494   3.838  0.0260 -0.2985 -0.2071
  907MOL0     H22395   0.987  10.639   3.847  0.1323  1.3382 -0.2513
  907MOL0     H22396   0.791  10.599   3.620  4.8253  1.6381  1.0904
  907MOL0     H22397   0.599  10.883   3.498  1.6793 -1.0206 -2.0772
  907MOL0     H22398   0.597  10.713   3.474 -1.8547 -1.5812 -0.5681
  907MOL0     H22399   0.403  10.683   3.635  1.8149 -1.6291  0.5579
  907MOL0     H22400   0.356  10.781   3.485 -0.2064 -2.5851  0.5725
  907MOL0     H22401   0.414  10.980   3.626  0.1124  0.6840  1.7065
  907MOL0     H22402   0.388  10.865   3.761 -1.0949 -2.5115 -0.4770
  907MOL0     H22403   0.157  10.817   3.671 -2.1385  1.5392  0.7554
  907MOL0     H22404   0.184  10.926   3.542 -0.8846 -0.3260  0.9597
  907MOL0     H22405   0.148  11.258   3.802  0.7980 -1.0302  0.0334
  907MOL0     H22406   0.023  11.449   3.878 -1.4574  0.6467  3.4103
  907MOL0     H22407  -0.105  11.495   3.757  1.1510  0.0750 -0.6749
  907MOL0     H22408  -0.145  11.418   3.916  0.4125  2.0449  0.9019
  907MOL0     H22409  -0.398  11.423   3.352 -0.9917 -1.5739 -1.1258
  907MOL0     H22410  -0.549  11.591   3.313  3.7384 -2.4170 -0.7684
  907MOL0     H22411  -0.743  11.792   3.438  0.1690  1.1976 -1.7471
  907MOL0     H22412  -0.733  11.724   3.284  2.4616  1.0407  2.0321
  907MOL0     H22413  -0.908  11.880   3.287  0.5058 -0.4910  0.1518
  907MOL0     H22414  -0.987  11.724   3.268  0.2833  0.3813 -2.1518
  907MOL0     H22415  -0.953  11.871   3.543  0.8370  0.6550 -0.6165
  907MOL0     H22416  -1.023  11.714   3.520  0.0617  0.9430  0.2297
  907MOL0     H22417  -1.150  11.974   3.402 -0.5369 -0.2338 -2.5986
  907MOL0     H22418  -1.200  11.808   3.369  2.4312  0.6314 -1.0972
  907MOL0     H22419  -1.168  11.935   3.639  1.6367 -0.0137 -1.2642
  907MOL0     H22420  -1.245  11.777   3.611  0.4672 -0.9840 -2.7768
  907MOL0     H22421  -1.355  12.016   3.466  2.1563  0.0313  0.0181
  907MOL0     H22422  -1.453  11.874   3.505 -1.4726  0.8477  0.1293
  907MOL0     H22423  -1.376  12.096   3.702 -0.5721  0.5586  0.3980
  907MOL0     H22424  -1.458  11.940   3.739  0.3974 -2.0027 -2.1360
  907MOL0     H22425  -1.565  12.135   3.540  1.6633 -1.4627 -0.7313
  907MOL0     H22426  -1.617  12.131   3.715 -1.0339  1.1342 -0.0706
  907MOL0     H22427  -0.800  11.434   3.638 -1.4115 -1.8529 -1.8884
  907MOL0     H22428  -0.609  11.296   3.710 -3.5891 -0.6815  0.4943
  907MOL0     H22429  -0.240  11.059   3.563 -0.2525  1.2603  1.5371
  907MOL0     H22430  -0.031  10.932   3.618  2.0044  0.3953 -1.7018
  907MOL0     H22431   1.357  10.961   4.560 -1.0185 -0.9566  2.7813
  907MOL0     H22432   1.586  11.028   4.606 -0.8311 -1.6865  0.6222
  907MOL0     H22433   1.832  11.365   4.746  1.0110  2.7839  0.6731
  907MOL0     H22434   2.072  11.440   4.749  0.8200  0.0459 -0.2786
  907MOL0     H22435   2.407  11.201   4.930  0.5818 -0.5297  0.7226
  907MOL0     H22436   2.373  11.144   4.764  0.9981 -0.1115  1.3387
  907MOL0     H22437   2.603  11.234   4.783  2.3417  2.5871 -0.3300
  907MOL0     H22438   2.541  11.386   4.838  1.9706 -0.1920 -0.5098
  907MOL0     H22439   2.415  11.423   4.644 -0.3986 -0.8032  2.6063
  907MOL0     H22440   2.491  11.274   4.560  0.1675  0.8323 -0.5962
  907MOL0     H22441   2.620  11.532   4.658 -1.9890 -0.1649 -0.6569
  907MOL0     H22442   2.602  11.471   4.492 -0.5356  0.7215 -0.5917
  907MOL0     H22443   2.937  11.259   4.612  1.1772  1.8679  0.8924
  907MOL0     H22444   2.189  11.049   4.889 -0.2314 -1.4638 -3.4811
  907MOL0     H22445   1.972  10.980   4.905 -0.0869  0.3603  1.6204
  908MOL0     O22446   6.171   3.264  10.842 -0.1920 -0.0469  0.5120
  908MOL0     C22447   6.234   3.331  10.928 -0.6442  0.1603  0.3441
  908MOL0     O22448   6.176   3.388  11.044 -0.7843  0.4597  0.5762
  908MOL0     C22449   6.043   3.355  11.054 -0.8440 -0.1464 -0.6761
  908MOL0     C22450   5.956   3.454  11.019  0.7415  0.2783  0.1834
  908MOL0     C22451   5.817   3.424  11.048 -0.5192  0.5890  0.7523
  908MOL0     C22452   5.774   3.300  11.098 -0.1408  0.6764  0.7534
  908MOL0     O22453   5.641   3.277  11.118  0.1878  0.5816  0.5530
  908MOL0     C22454   5.601   3.139  11.136 -0.2052  0.2521 -0.6762
  908MOL0     C22455   5.459   3.111  11.108 -0.3772 -0.8090  1.1171
  908MOL0     C22456   5.377   3.185  11.214  1.1504  0.0406 -1.2747
  908MOL0     C22457   5.223   3.158  11.197 -1.2457  0.8824 -0.1418
  908MOL0     C22458   5.152   3.225  11.309  0.1109 -0.5291 -0.1521
  908MOL0     C22459   5.008   3.252  11.266 -0.1624  0.3200  0.8517
  908MOL0     C22460   4.935   3.318  11.382  0.0242  0.1343  0.4157
  908MOL0     C22461   4.777   3.291  11.384 -0.1382 -0.3662 -0.0808
  908MOL0     N22462   4.760   3.148  11.414 -0.5414 -0.0653 -0.1276
  908MOL0     C22463   4.698   3.054  11.344  0.5258  0.4410 -0.0967
  908MOL0     C22464   4.723   2.939  11.409 -0.3980 -0.2278  0.9813
  908MOL0     C22465   4.667   2.809  11.370 -0.0650 -0.5381  0.6251
  908MOL0     C22466   4.569   2.767  11.485 -1.3968  0.0804  1.0531
  908MOL0     C22467   4.526   2.616  11.472 -0.0161  0.4375 -0.3281
  908MOL0     C22468   4.506   2.550  11.611 -0.1455  0.3300  0.5049
  908MOL0     O22469   4.468   2.639  11.717  0.3615 -0.0933  0.0899
  908MOL0     C22470   4.341   2.699  11.727  0.2516 -0.2722 -0.4451
  908MOL0     C22471   4.231   2.660  11.655  0.5786 -0.0172  1.0219
  908MOL0     C22472   4.098   2.709  11.674  0.9386  0.2713  0.2911
  908MOL0     C22473   3.985   2.632  11.603 -0.1895  0.1121 -0.1297
  908MOL0     C22474   4.071   2.813  11.773 -0.6205 -0.1398 -0.8583
  908MOL0     C22475   3.938   2.877  11.800  0.0248 -0.3353 -0.1917
  908MOL0     O22476   3.936   2.965  11.909  0.1412  0.5180 -0.1844
  908MOL0     C22477   3.815   3.038  11.916  0.1575  0.2547  0.0006
  908MOL0     C22478   3.785   3.143  11.824  0.5385  0.6908 -0.2363
  908MOL0     C22479   3.650   3.194  11.833  0.0431 -0.1208 -0.2855
  908MOL0     C22480   3.558   3.155  11.930  0.2987 -0.1849  0.4114
  908MOL0     O22481   3.430   3.210  11.935  0.6002  0.0914  0.8923
  908MOL0     C22482   3.319   3.166  12.021 -0.4087  0.8728 -0.7233
  908MOL0     C22483   3.218   3.078  11.949  0.6954 -0.1850  0.4411
  908MOL0     C22484   3.269   2.930  11.943  0.8802  0.1404  0.4424
  908MOL0     C22485   3.170   2.835  11.896 -0.1131  1.0654  0.9818
  908MOL0     C22486   3.230   2.698  11.849  0.3064 -0.8981  0.3457
  908MOL0     C22487   3.132   2.605  11.772 -0.5288 -0.3181 -0.6865
  908MOL0     C22488   3.008   2.581  11.853 -0.5498 -0.4605 -0.5130
  908MOL0     C22489   2.923   2.465  11.802 -1.0361 -0.0342  0.2736
  908MOL0    Cl22490   2.820   2.504  11.673  0.2883  0.3697 -0.0548
  908MOL0     C22491   3.597   3.051  12.019 -0.5029  0.6753 -0.2221
  908MOL0     C22492   3.720   2.997  12.007 -0.8320 -0.4038  0.1945
  908MOL0     O22493   3.857   2.870  11.713  0.1958 -0.4022  0.4137
  908MOL0     C22494   4.185   2.857  11.850  0.6202 -0.3079 -0.7283
  908MOL0     C22495   4.308   2.800  11.825 -1.2338 -0.0801  0.2362
  908MOL0     N22496   4.803   2.964  11.518 -0.3933  0.7962  0.0120
  908MOL0     N22497   4.818   3.089  11.523 -0.8085 -0.2101  0.7834
  908MOL0     C22498   5.868   3.208  11.142  0.0944 -0.2432  0.2181
  908MOL0     C22499   6.001   3.233  11.111 -0.1361  0.0562  0.4800
  908MOL0     C22500   6.381   3.327  10.909 -0.5430  0.4231 -0.2812
  908MOL0     C22501   6.446   3.239  10.817  0.4204  1.2675 -0.3555
  908MOL0     C22502   6.583   3.234  10.800  0.4311 -0.4806 -0.7631
  908MOL0     C22503   6.665   3.319  10.881  0.2129 -0.3433 -0.2797
  908MOL0     O22504   6.801   3.345  10.863  0.5228 -0.1005 -0.0861
  908MOL0     C22505   6.857   3.285  10.743  0.1609  0.5302 -0.5356
  908MOL0     C22506   6.901   3.140  10.771 -0.0627 -0.4815  0.2794
  908MOL0     C22507   7.052   3.115  10.814  0.3897  0.0123  0.0457
  908MOL0     C22508   7.099   2.972  10.798  0.1831 -0.3971 -0.7020
  908MOL0     C22509   7.241   2.970  10.827  0.1629  0.3977  0.1693
  908MOL0     C22510   7.365   2.963  10.835  0.6470  0.4745  0.0291
  908MOL0     C22511   6.593   3.408  10.968 -0.2060 -0.4286 -0.3936
  908MOL0     C22512   6.456   3.406  10.994  0.1589  0.5123 -0.2973
  908MOL0     H22513   5.987   3.552  10.983  1.0903 -0.3799 -1.3985
  908MOL0     H22514   5.738   3.496  11.028 -0.4155 -0.0253 -2.5263
  908MOL0     H22515   5.657   3.074  11.068  2.9682 -0.3759  2.2622
  908MOL0     H22516   5.620   3.108  11.239  1.8210  2.2618 -0.3809
  908MOL0     H22517   5.432   3.143  11.007 -0.2954  0.7098  1.5579
  908MOL0     H22518   5.440   3.003  11.115  4.2071 -1.6967  5.5632
  908MOL0     H22519   5.398   3.149  11.315  0.0643  0.7201 -0.7923
  908MOL0     H22520   5.386   3.293  11.221  2.6260 -0.1657  2.6006
  908MOL0     H22521   5.193   3.186  11.096  0.4257  0.6705 -0.7181
  908MOL0     H22522   5.206   3.051  11.189 -0.5875  0.8503 -1.2924
  908MOL0     H22523   5.141   3.173  11.404 -0.7204  2.4161  1.4915
  908MOL0     H22524   5.193   3.321  11.340 -0.9838 -0.0912  0.0047
  908MOL0     H22525   5.016   3.330  11.190 -0.9459 -0.8250 -0.4691
  908MOL0     H22526   4.958   3.161  11.232 -0.6815  1.6140 -2.1440
  908MOL0     H22527   4.971   3.276  11.476  2.7299 -3.4004 -1.9404
  908MOL0     H22528   4.958   3.425  11.380 -1.4197  0.4659 -0.5562
  908MOL0     H22529   4.730   3.324  11.290  3.4436  1.5615 -1.3854
  908MOL0     H22530   4.737   3.342  11.473 -0.4097 -1.9649  0.7435
  908MOL0     H22531   4.631   3.066  11.260  0.3573  2.7408  0.3098
  908MOL0     H22532   4.615   2.817  11.274  1.1164  2.1781  0.1236
  908MOL0     H22533   4.753   2.741  11.363  0.7300  0.5114 -0.1856
  908MOL0     H22534   4.478   2.825  11.470 -0.7534  0.5050 -1.8258
  908MOL0     H22535   4.609   2.801  11.581 -0.6601 -0.0352  0.7985
  908MOL0     H22536   4.605   2.554  11.427 -1.8619 -0.9651 -1.7713
  908MOL0     H22537   4.435   2.612  11.413 -0.6566 -3.2986  0.6152
  908MOL0     H22538   4.592   2.489  11.637 -2.3688 -3.4004 -0.1936
  908MOL0     H22539   4.435   2.468  11.599 -0.0692  0.5700 -2.0306
  908MOL0     H22540   4.249   2.571  11.596  0.0671  0.8885 -0.5707
  908MOL0     H22541   3.917   2.692  11.543  0.4234 -0.2675 -1.2329
  908MOL0     H22542   4.016   2.550  11.537  0.3867 -0.5089  0.8768
  908MOL0     H22543   3.935   2.582  11.687  0.0345  1.4804  0.8448
  908MOL0     H22544   3.855   3.172  11.747  0.8510  0.0046 -0.2252
  908MOL0     H22545   3.616   3.261  11.755 -0.8607 -0.1216  0.0962
  908MOL0     H22546   3.352   3.123  12.116 -1.2425 -0.0360 -0.8324
  908MOL0     H22547   3.263   3.254  12.054 -0.3556  0.4209  0.6252
  908MOL0     H22548   3.119   3.088  11.996 -0.2556 -2.5573 -0.8664
  908MOL0     H22549   3.205   3.123  11.850  1.7323  3.7984  1.9125
  908MOL0     H22550   3.315   2.886  12.032  3.5073 -3.8919 -2.5816
  908MOL0     H22551   3.356   2.936  11.877  0.7987  0.0265  0.3239
  908MOL0     H22552   3.091   2.824  11.972  0.1564  0.6325  1.2054
  908MOL0     H22553   3.124   2.877  11.806  1.0621 -0.9486 -0.6504
  908MOL0     H22554   3.259   2.646  11.941 -2.4498 -2.2715  0.5377
  908MOL0     H22555   3.317   2.717  11.785 -0.0513 -1.1676 -0.2320
  908MOL0     H22556   3.098   2.650  11.678 -2.1907  0.2546  0.1438
  908MOL0     H22557   3.186   2.513  11.750  0.6011  0.2632 -0.4166
  908MOL0     H22558   2.952   2.675  11.850 -0.9734 -0.7232 -3.0108
  908MOL0     H22559   3.044   2.551  11.952  1.6440  2.5680 -0.2389
  908MOL0     H22560   2.863   2.434  11.888 -1.0364 -0.3686  0.1562
  908MOL0     H22561   2.992   2.382  11.781 -0.9133  0.0612  0.3006
  908MOL0     H22562   3.518   3.004  12.077 -1.1621 -1.1281 -2.4371
  908MOL0     H22563   3.752   2.922  12.078 -2.2199 -1.2598 -0.0486
  908MOL0     H22564   4.170   2.936  11.923  0.0669 -0.6066 -0.5142
  908MOL0     H22565   4.393   2.831  11.885  0.7612  0.7673 -2.7887
  908MOL0     H22566   5.845   3.121  11.202 -0.4236  0.1061  0.5314
  908MOL0     H22567   6.064   3.147  11.133 -2.2099 -1.4490  0.8021
  908MOL0     H22568   6.380   3.178  10.756  0.6131 -1.1980  1.7231
  908MOL0     H22569   6.623   3.174  10.718  1.5291 -0.5491 -0.2013
  908MOL0     H22570   6.784   3.290  10.662  0.3902 -0.9897 -0.8653
  908MOL0     H22571   6.940   3.340  10.698 -1.5429  1.1835 -3.0841
  908MOL0     H22572   6.882   3.086  10.678  0.1531 -1.6421  0.8805
  908MOL0     H22573   6.836   3.100  10.850 -0.2811 -1.3952 -0.3476
  908MOL0     H22574   7.061   3.157  10.915  0.7346  0.7290 -0.2733
  908MOL0     H22575   7.113   3.177  10.748  0.4287  1.0062  0.9765
  908MOL0     H22576   7.087   2.933  10.696 -0.8800  0.8971 -1.1093
  908MOL0     H22577   7.047   2.907  10.869  1.8535 -0.6616  0.3216
  908MOL0     H22578   7.469   2.938  10.836  0.3253 -1.2440  3.1370
  908MOL0     H22579   6.646   3.481  11.029 -1.2491  2.6363 -2.8929
  908MOL0     H22580   6.423   3.474  11.073  0.7397 -0.3111  0.6836
  909MOL0     O22581   3.174   6.843   8.051  1.0702 -0.4026  0.6127
  909MOL0     C22582   3.196   6.822   8.173 -0.3358  0.5244  0.1814
  909MOL0     O22583   3.118   6.746   8.252 -0.2006 -0.6625  0.0564
  909MOL0     C22584   3.041   6.648   8.191  0.0515 -0.5129  0.1884
  909MOL0     C22585   2.907   6.664   8.186 -0.0548  0.5140 -0.5333
  909MOL0     C22586   2.830   6.585   8.097 -0.5720  0.6012 -0.1759
  909MOL0     C22587   2.890   6.475   8.030  0.5568  0.3293  0.2236
  909MOL0     O22588   2.807   6.393   7.958 -0.5105  0.5928  0.7188
  909MOL0     C22589   2.856   6.275   7.883 -0.8299  0.7339  0.4186
  909MOL0     C22590   2.735   6.221   7.803  0.0904 -0.8904 -0.2577
  909MOL0     C22591   2.792   6.117   7.708 -0.1446  0.1270  0.4998
  909MOL0     C22592   2.682   6.057   7.606  0.1119 -0.2840  0.2166
  909MOL0     C22593   2.644   6.154   7.483  0.0713 -0.9366  0.2547
  909MOL0     C22594   2.512   6.108   7.426 -0.6271 -0.7888 -0.7785
  909MOL0     C22595   2.471   6.190   7.309 -0.3985  0.5697  0.0899
  909MOL0     C22596   2.315   6.226   7.312  0.1438 -0.0465  0.2574
  909MOL0     N22597   2.227   6.106   7.312  0.4158  0.1463  0.0595
  909MOL0     C22598   2.135   6.080   7.414  0.0919  0.3375  1.1526
  909MOL0     C22599   2.074   5.965   7.390 -0.1201 -0.0564  0.5237
  909MOL0     C22600   1.955   5.904   7.472 -0.0809  0.0117  0.4041
  909MOL0     C22601   1.813   5.899   7.418 -0.0778 -0.6228  0.6176
  909MOL0     C22602   1.706   5.820   7.505 -0.9767 -0.8932  0.4860
  909MOL0     C22603   1.703   5.857   7.652 -1.1109  1.0205  0.1371
  909MOL0     O22604   1.688   6.000   7.659 -0.1352  0.3573  0.1115
  909MOL0     C22605   1.574   6.058   7.632 -0.1753 -0.5306  0.2990
  909MOL0     C22606   1.448   6.017   7.669 -1.0734  1.1131  0.7254
  909MOL0     C22607   1.339   6.103   7.648  0.1123  0.3551  0.5734
  909MOL0     C22608   1.206   6.048   7.698 -0.1950  0.5333  0.1192
  909MOL0     C22609   1.356   6.239   7.609 -0.4490  0.7086  0.1335
  909MOL0     C22610   1.250   6.333   7.587 -0.1695 -0.2406 -0.2462
  909MOL0     O22611   1.136   6.286   7.540 -1.0776  0.6311 -0.9680
  909MOL0     C22612   1.024   6.365   7.543  0.0189  0.3403 -0.0243
  909MOL0     C22613   0.922   6.349   7.638 -0.0562  0.2934  0.2420
  909MOL0     C22614   0.803   6.424   7.635  0.1577 -0.0461  1.0585
  909MOL0     C22615   0.778   6.509   7.518 -0.8888  1.2895  0.3456
  909MOL0     O22616   0.663   6.580   7.497 -0.3484 -0.3547  0.3001
  909MOL0     C22617   0.563   6.498   7.443 -0.3401 -0.5547 -0.2535
  909MOL0     C22618   0.452   6.580   7.416 -0.3381 -0.0890 -0.3542
  909MOL0     C22619   0.333   6.495   7.361  0.1244 -0.2732 -0.0266
  909MOL0     C22620   0.205   6.567   7.317  0.0428 -0.4688 -0.9215
  909MOL0     C22621   0.134   6.618   7.446 -0.1345 -0.5923  0.1007
  909MOL0     C22622  -0.001   6.672   7.405  0.0632 -0.5188 -0.6779
  909MOL0     C22623  -0.078   6.714   7.524 -0.6147  0.6247 -0.3183
  909MOL0     C22624  -0.232   6.724   7.489  0.2000  1.2079  0.0822
  909MOL0    Cl22625  -0.294   6.572   7.438  0.4145  0.2176 -0.4787
  909MOL0     C22626   0.877   6.510   7.411 -0.4147  0.2344 -0.6277
  909MOL0     C22627   0.995   6.444   7.430  0.2181 -0.5659  0.3797
  909MOL0     O22628   1.276   6.451   7.611  0.3975  0.0503 -0.2351
  909MOL0     C22629   1.487   6.274   7.570  0.1676 -0.2261 -0.9288
  909MOL0     C22630   1.588   6.183   7.572 -0.1060 -0.4992 -0.1672
  909MOL0     N22631   2.135   5.909   7.275  0.1955 -0.8536  0.3233
  909MOL0     N22632   2.222   5.996   7.230  0.5363  0.3338 -1.0716
  909MOL0     C22633   3.025   6.452   8.053  0.1186 -0.2881  0.5208
  909MOL0     C22634   3.102   6.541   8.128 -0.4163  0.0176 -0.7371
  909MOL0     C22635   3.307   6.889   8.249  0.1512 -0.4569 -0.2524
  909MOL0     C22636   3.343   6.852   8.378  0.0404 -0.2884  0.8973
  909MOL0     C22637   3.449   6.908   8.445 -0.9712 -0.1003 -0.3305
  909MOL0     C22638   3.520   7.014   8.389  0.1042  0.6778 -0.7613
  909MOL0     O22639   3.622   7.084   8.450  0.1587  0.4956  0.1736
  909MOL0     C22640   3.637   7.071   8.590 -0.3144  0.1565 -0.3006
  909MOL0     C22641   3.756   7.149   8.642  0.6659  0.8421  0.1283
  909MOL0     C22642   3.719   7.295   8.661 -0.6462  0.4454 -0.0376
  909MOL0     C22643   3.767   7.384   8.550  0.3399  0.6220 -0.1875
  909MOL0     C22644   3.916   7.399   8.532 -0.1411  0.3197  0.2231
  909MOL0     C22645   4.034   7.407   8.499  0.4321  0.4764  0.3622
  909MOL0     C22646   3.491   7.053   8.259  1.0148  0.8729  0.3713
  909MOL0     C22647   3.385   6.990   8.188 -0.3716 -0.7623 -0.0999
  909MOL0     H22648   2.852   6.750   8.225 -0.8307 -0.7582  1.2935
  909MOL0     H22649   2.724   6.604   8.082 -0.9561 -1.3381 -0.0617
  909MOL0     H22650   2.926   6.314   7.809 -1.3515  1.4028  0.2685
  909MOL0     H22651   2.917   6.201   7.936  2.2559  1.3104 -2.0220
  909MOL0     H22652   2.665   6.170   7.871  0.6636 -0.6726  0.5188
  909MOL0     H22653   2.689   6.290   7.733  0.7424 -0.4286 -0.2393
  909MOL0     H22654   2.863   6.173   7.646 -0.7399  0.8249  0.4251
  909MOL0     H22655   2.842   6.034   7.759 -2.0109 -2.4516 -1.5853
  909MOL0     H22656   2.730   5.967   7.565 -2.6076 -1.3168 -0.8878
  909MOL0     H22657   2.589   6.024   7.652 -2.0047  0.8204 -2.9494
  909MOL0     H22658   2.631   6.256   7.520 -4.1979 -0.6606 -1.4963
  909MOL0     H22659   2.723   6.158   7.407 -0.0605  0.0933  0.1643
  909MOL0     H22660   2.531   6.004   7.397  0.7965 -0.5516 -0.7205
  909MOL0     H22661   2.441   6.127   7.507 -0.8638 -4.1662 -0.0409
  909MOL0     H22662   2.511   6.291   7.319 -2.1922  1.2896  0.2165
  909MOL0     H22663   2.497   6.142   7.214 -3.6791  1.5862 -1.4923
  909MOL0     H22664   2.296   6.276   7.217  1.7841  0.3077  0.0946
  909MOL0     H22665   2.284   6.284   7.400 -1.8067 -1.1016  0.3338
  909MOL0     H22666   2.123   6.136   7.506  1.3475  0.2080  1.4218
  909MOL0     H22667   1.980   5.802   7.501 -0.4688 -0.3229 -0.4295
  909MOL0     H22668   1.948   5.957   7.568 -3.7799  0.7338 -0.1111
  909MOL0     H22669   1.812   5.855   7.318 -2.0363  2.3982 -0.8463
  909MOL0     H22670   1.777   6.002   7.404  0.9671 -0.1999  0.9490
  909MOL0     H22671   1.740   5.716   7.497 -0.5725 -0.6802 -1.0677
  909MOL0     H22672   1.609   5.828   7.455 -0.1957 -0.7983 -1.0972
  909MOL0     H22673   1.789   5.818   7.708 -0.3631  2.9157  0.3702
  909MOL0     H22674   1.620   5.802   7.697  2.2878 -2.1994  3.2855
  909MOL0     H22675   1.426   5.928   7.728 -3.7327  0.0347 -1.6450
  909MOL0     H22676   1.156   5.997   7.616  0.6718 -2.9009  1.5640
  909MOL0     H22677   1.230   5.970   7.770  3.5609 -0.2678 -1.7824
  909MOL0     H22678   1.138   6.129   7.728 -2.8852 -1.6850  0.4130
  909MOL0     H22679   0.931   6.274   7.715 -1.0852  0.7335  0.8055
  909MOL0     H22680   0.718   6.412   7.701 -0.2661 -1.9282  0.2283
  909MOL0     H22681   0.608   6.458   7.351  1.5492 -0.8057  0.7148
  909MOL0     H22682   0.537   6.427   7.522  0.4319  0.0273  0.5465
  909MOL0     H22683   0.418   6.632   7.506  1.4991 -0.3789  0.5506
  909MOL0     H22684   0.478   6.657   7.343  0.3132 -1.2179 -1.3545
  909MOL0     H22685   0.301   6.415   7.428  2.3265 -1.0012  0.2218
  909MOL0     H22686   0.375   6.447   7.273  4.3949  1.0558  1.0303
  909MOL0     H22687   0.231   6.655   7.257  2.4098 -1.4944 -1.4991
  909MOL0     H22688   0.141   6.492   7.270  0.7198 -3.1913  2.1331
  909MOL0     H22689   0.194   6.689   7.502  0.1513 -1.8384  1.4479
  909MOL0     H22690   0.106   6.537   7.514 -3.2246  0.6670  0.4880
  909MOL0     H22691   0.015   6.756   7.336  3.2230 -2.5076 -2.6320
  909MOL0     H22692  -0.046   6.594   7.344 -0.0643 -0.8339 -0.1850
  909MOL0     H22693  -0.040   6.808   7.563  1.2311 -1.7766  4.5546
  909MOL0     H22694  -0.063   6.637   7.601  2.0885  2.6987  1.4116
  909MOL0     H22695  -0.240   6.794   7.405  0.9168  1.1585 -0.0270
  909MOL0     H22696  -0.287   6.764   7.575 -1.4037  0.5381 -0.5828
  909MOL0     H22697   0.843   6.568   7.325 -4.4509 -2.0701 -0.8423
  909MOL0     H22698   1.070   6.454   7.353 -0.2850 -1.7620 -0.2866
  909MOL0     H22699   1.518   6.374   7.541 -1.8736  1.4731  2.0682
  909MOL0     H22700   1.687   6.208   7.535 -0.4057 -0.5004 -0.9952
  909MOL0     H22701   3.079   6.367   8.011  0.7133 -0.4985  1.6719
  909MOL0     H22702   3.208   6.520   8.129  0.0846  2.2736 -0.0980
  909MOL0     H22703   3.285   6.773   8.424 -0.5859  1.6684  3.7368
  909MOL0     H22704   3.453   6.875   8.549 -0.6962 -3.8754 -1.3704
  909MOL0     H22705   3.553   7.106   8.649 -2.0980 -1.7451 -1.5567
  909MOL0     H22706   3.644   6.963   8.605  2.2768  0.1237 -1.2236
  909MOL0     H22707   3.833   7.132   8.565  2.0016 -1.3841  1.8121
  909MOL0     H22708   3.794   7.106   8.735 -0.5993 -0.7423 -0.0526
  909MOL0     H22709   3.759   7.331   8.756  0.4524 -2.4522  0.6749
  909MOL0     H22710   3.611   7.311   8.673 -0.7675  0.0833 -0.6355
  909MOL0     H22711   3.716   7.479   8.564 -1.2163  0.0296 -1.4973
  909MOL0     H22712   3.729   7.336   8.458 -3.8425  0.2059  1.5228
  909MOL0     H22713   4.137   7.421   8.477  0.5742  1.7859  1.7158
  909MOL0     H22714   3.562   7.121   8.213  0.0875  1.0002 -0.9162
  909MOL0     H22715   3.370   7.014   8.083 -2.0923 -0.4749  0.1751
  910MOL0     O22716  10.818   1.455   4.460  0.8315  0.2999  0.4761
  910MOL0     C22717  10.794   1.355   4.532 -0.0095  0.4576 -0.9933
  910MOL0     O22718  10.887   1.255   4.571  0.0680  0.4647 -0.2590
  910MOL0     C22719  11.013   1.266   4.517  0.1383  0.3817 -0.0005
  910MOL0     C22720  11.089   1.373   4.518  0.1981 -0.9851 -0.8680
  910MOL0     C22721  11.229   1.372   4.478 -0.0161  0.0004 -0.2589
  910MOL0     C22722  11.290   1.260   4.423  0.8453  0.0873 -0.7137
  910MOL0     O22723  11.412   1.267   4.354  0.5335  0.0256 -0.1814
  910MOL0     C22724  11.417   1.191   4.240  0.2754  0.3377 -0.6173
  910MOL0     C22725  11.545   1.230   4.166  0.1539  0.1768 -0.3217
  910MOL0     C22726  11.682   1.246   4.248  0.6761 -0.6732 -0.4244
  910MOL0     C22727  11.696   1.137   4.348  0.3825 -0.2526  0.2612
  910MOL0     C22728  11.808   1.143   4.449 -0.0479 -0.6243  1.0356
  910MOL0     C22729  11.772   1.247   4.557  0.5113 -0.1859  0.2246
  910MOL0     C22730  11.671   1.182   4.656 -0.3537  0.4318 -0.8127
  910MOL0     C22731  11.635   1.286   4.770  0.5833  0.1000 -0.2334
  910MOL0     N22732  11.526   1.232   4.851 -0.2291  1.0199 -0.5546
  910MOL0     C22733  11.401   1.218   4.802  1.4581 -0.4898  0.1524
  910MOL0     C22734  11.334   1.149   4.902  0.3328 -0.1828 -1.7067
  910MOL0     C22735  11.198   1.085   4.908  0.6960 -0.0206  0.8682
  910MOL0     C22736  11.168   0.998   5.041  0.1471 -0.0450  0.4317
  910MOL0     C22737  11.060   0.887   5.023  0.1875  0.2624 -0.8182
  910MOL0     C22738  11.046   0.813   5.159 -1.2387 -0.5380 -0.4000
  910MOL0     O22739  10.962   0.887   5.253 -0.7370  0.5501 -0.5079
  910MOL0     C22740  10.832   0.920   5.223  1.4056 -0.1793  0.1954
  910MOL0     C22741  10.799   1.052   5.242  0.8493 -0.9257 -0.8342
  910MOL0     C22742  10.672   1.104   5.206 -0.3937 -0.9544  0.2206
  910MOL0     C22743  10.657   1.251   5.219 -0.1043  0.7236  0.9973
  910MOL0     C22744  10.570   1.017   5.155  0.4869 -0.3599 -0.1132
  910MOL0     C22745  10.440   1.063   5.105  0.4128  0.5819  0.9926
  910MOL0     O22746  10.375   0.968   5.038  0.2184 -0.4725 -0.9600
  910MOL0     C22747  10.240   0.962   5.003  0.1775  0.1249  0.0725
  910MOL0     C22748  10.144   1.008   5.098 -0.2049  0.5507  0.4858
  910MOL0     C22749  10.004   0.993   5.060 -0.2707  0.7868 -0.4360
  910MOL0     C22750   9.958   0.927   4.946 -0.1050  0.5330 -0.6508
  910MOL0     O22751   9.820   0.918   4.930  0.2906 -0.3591  0.5732
  910MOL0     C22752   9.756   0.797   4.894 -0.7838  0.3255 -0.0619
  910MOL0     C22753   9.612   0.813   4.866  0.0239  0.3466 -0.5988
  910MOL0     C22754   9.528   0.685   4.848 -0.2882 -0.8898 -0.4482
  910MOL0     C22755   9.382   0.739   4.864  0.0123 -0.1728  0.2076
  910MOL0     C22756   9.292   0.636   4.798  0.2500  0.1698 -0.0406
  910MOL0     C22757   9.152   0.681   4.800  0.4708 -0.1130 -0.4150
  910MOL0     C22758   9.059   0.567   4.762  0.4450 -0.9674 -0.6108
  910MOL0     C22759   8.911   0.584   4.798 -0.1964 -0.3499 -0.3105
  910MOL0    Cl22760   8.907   0.589   4.981 -0.2382 -0.1005  0.0322
  910MOL0     C22761  10.055   0.863   4.868 -0.3789  0.6479  0.2194
  910MOL0     C22762  10.196   0.888   4.895 -0.1977 -0.2391 -0.2673
  910MOL0     O22763  10.413   1.183   5.114 -0.3374  0.3261  0.0203
  910MOL0     C22764  10.606   0.875   5.156 -1.7269  0.3204  0.6867
  910MOL0     C22765  10.732   0.831   5.193 -0.2794 -1.0579 -0.1926
  910MOL0     N22766  11.418   1.152   5.022 -0.2078 -0.2294  0.2773
  910MOL0     N22767  11.539   1.184   4.981  0.1693 -0.2259  0.3353
  910MOL0     C22768  11.211   1.140   4.436  0.3223  0.0400 -0.0406
  910MOL0     C22769  11.081   1.142   4.489 -0.1156  0.0744  0.0119
  910MOL0     C22770  10.651   1.339   4.571  0.6060 -0.7883  0.0447
  910MOL0     C22771  10.541   1.399   4.500  0.9309  0.9571  0.3851
  910MOL0     C22772  10.408   1.378   4.534 -0.1711  0.3281 -0.2620
  910MOL0     C22773  10.375   1.283   4.627  0.4674 -1.0827 -0.7538
  910MOL0     O22774  10.246   1.262   4.651  0.1992 -0.0510  0.9892
  910MOL0     C22775  10.181   1.310   4.775  0.0374  0.4135 -0.3284
  910MOL0     C22776  10.079   1.428   4.749 -0.0524 -0.0849  0.4425
  910MOL0     C22777   9.954   1.380   4.655 -0.2495 -0.0669 -0.1382
  910MOL0     C22778   9.887   1.507   4.605 -1.4668 -0.3649 -0.2118
  910MOL0     C22779   9.761   1.472   4.544 -0.6941 -0.2754  0.7793
  910MOL0     C22780   9.658   1.452   4.490 -0.7851  0.3449  0.9954
  910MOL0     C22781  10.478   1.219   4.700  0.2919 -0.8947 -0.1110
  910MOL0     C22782  10.616   1.250   4.673 -0.4291  0.0169 -0.1169
  910MOL0     H22783  11.054   1.469   4.553 -0.1218 -0.9729 -1.2151
  910MOL0     H22784  11.283   1.466   4.481 -1.3758  0.8175  3.1260
  910MOL0     H22785  11.426   1.084   4.257 -1.4989  0.4919  1.9991
  910MOL0     H22786  11.334   1.209   4.171  0.4919  2.1069 -0.4682
  910MOL0     H22787  11.563   1.157   4.086 -0.7439  0.9743 -1.2815
  910MOL0     H22788  11.522   1.328   4.123 -0.9947 -1.1668 -3.0366
  910MOL0     H22789  11.759   1.241   4.170  1.4875  3.3962 -0.0961
  910MOL0     H22790  11.699   1.346   4.287 -1.7569 -0.1062 -0.6409
  910MOL0     H22791  11.600   1.125   4.400 -1.2158  3.9794 -1.2486
  910MOL0     H22792  11.700   1.043   4.293  1.5986 -0.0134 -0.0773
  910MOL0     H22793  11.830   1.049   4.501  2.3974 -0.5496  0.2629
  910MOL0     H22794  11.900   1.171   4.397  1.5207  0.4973  4.1644
  910MOL0     H22795  11.862   1.273   4.613 -0.7557  2.7211  1.1192
  910MOL0     H22796  11.725   1.340   4.523 -0.4588  0.7107  3.6483
  910MOL0     H22797  11.577   1.152   4.608 -0.4001  1.2517 -1.2675
  910MOL0     H22798  11.708   1.089   4.699 -1.3400  0.0480 -0.7629
  910MOL0     H22799  11.613   1.384   4.727 -0.1511  0.9397  1.9327
  910MOL0     H22800  11.717   1.302   4.841 -0.5381  0.5245  0.9998
  910MOL0     H22801  11.364   1.248   4.704  0.2398 -0.5348  0.5713
  910MOL0     H22802  11.124   1.165   4.904 -0.1424 -0.8270 -0.5655
  910MOL0     H22803  11.189   1.022   4.819  1.0182 -0.4240  1.1152
  910MOL0     H22804  11.135   1.068   5.119  0.5960  1.6233 -0.8347
  910MOL0     H22805  11.259   0.941   5.063 -0.0723 -0.7366 -0.4205
  910MOL0     H22806  11.094   0.810   4.953  0.0451 -1.2866  0.7406
  910MOL0     H22807  10.961   0.923   4.995  0.5550  0.0768 -2.4396
  910MOL0     H22808  11.143   0.814   5.209 -1.8478  2.0584  0.9131
  910MOL0     H22809  11.016   0.709   5.144 -0.1353 -0.8892 -0.2384
  910MOL0     H22810  10.878   1.109   5.289  0.1595 -2.3601  2.3294
  910MOL0     H22811  10.578   1.274   5.290  0.1264 -1.1439  1.9074
  910MOL0     H22812  10.739   1.311   5.259  0.2786  0.1133  1.1383
  910MOL0     H22813  10.651   1.297   5.119  1.1069 -0.4951  0.3349
  910MOL0     H22814  10.171   1.031   5.200  0.1700  3.9088 -0.2422
  910MOL0     H22815   9.931   1.026   5.133 -0.1889 -1.0922  0.5665
  910MOL0     H22816   9.808   0.742   4.815  0.2658  0.5733  0.4476
  910MOL0     H22817   9.763   0.731   4.981 -2.2907 -0.2163 -0.3118
  910MOL0     H22818   9.562   0.882   4.934 -1.7328 -0.6133 -0.8663
  910MOL0     H22819   9.595   0.865   4.772  0.9545 -0.7426 -1.4049
  910MOL0     H22820   9.563   0.623   4.931  1.4826 -0.4027 -0.8084
  910MOL0     H22821   9.533   0.638   4.750 -1.5820 -0.5631 -0.6923
  910MOL0     H22822   9.357   0.745   4.971  1.4992 -1.8420  0.6965
  910MOL0     H22823   9.373   0.838   4.819  1.9541  0.3267  0.8301
  910MOL0     H22824   9.313   0.544   4.853 -0.5653  0.7285  1.2404
  910MOL0     H22825   9.319   0.631   4.692  0.9631  2.5964 -0.0375
  910MOL0     H22826   9.135   0.701   4.906  1.2362  0.0285 -0.3161
  910MOL0     H22827   9.136   0.771   4.740  0.3443 -0.2604 -0.6059
  910MOL0     H22828   9.091   0.477   4.815 -0.0220  0.4665  2.3213
  910MOL0     H22829   9.073   0.548   4.656  0.6793  0.2289 -0.8048
  910MOL0     H22830   8.848   0.507   4.751 -1.1265 -0.0416  0.3990
  910MOL0     H22831   8.870   0.677   4.758  1.2999  0.4038 -0.1286
  910MOL0     H22832  10.044   0.794   4.786  0.2809  1.1106 -0.2755
  910MOL0     H22833  10.274   0.846   4.832  0.8125  2.9174 -1.2781
  910MOL0     H22834  10.542   0.790   5.132  0.2112 -0.6035 -1.6797
  910MOL0     H22835  10.759   0.726   5.196 -0.5753 -1.1821 -1.2958
  910MOL0     H22836  11.246   1.046   4.395 -0.4201  0.4617 -1.7373
  910MOL0     H22837  11.029   1.048   4.497 -1.2868  0.8525  2.5736
  910MOL0     H22838  10.562   1.465   4.416  0.7171  0.1823 -0.2987
  910MOL0     H22839  10.334   1.427   4.471 -0.5055 -3.0510 -2.7870
  910MOL0     H22840  10.127   1.226   4.819  0.1268 -0.5099 -1.9066
  910MOL0     H22841  10.254   1.342   4.850 -1.3865  1.7504  0.5241
  910MOL0     H22842  10.127   1.514   4.701 -1.0453 -0.7368 -1.8444
  910MOL0     H22843  10.052   1.457   4.851  1.6616 -1.7318  1.4336
  910MOL0     H22844   9.888   1.315   4.713  0.1035 -1.1785 -0.9570
  910MOL0     H22845  10.003   1.328   4.572  0.6862 -1.5352  1.2690
  910MOL0     H22846   9.948   1.554   4.528 -1.6404 -1.2926 -0.9358
  910MOL0     H22847   9.879   1.590   4.676 -3.2852  0.1408 -0.9478
  910MOL0     H22848   9.568   1.431   4.437 -0.0252  0.1057 -0.2402
  910MOL0     H22849  10.449   1.142   4.771 -1.0360 -1.0177 -0.7632
  910MOL0     H22850  10.686   1.185   4.726 -0.0682 -0.1693 -0.8106
  911MOL0     O22851   3.375   3.817   0.708  0.2677  0.2339  0.2941
  911MOL0     C22852   3.417   3.769   0.600  1.0202  0.8569  0.6242
  911MOL0     O22853   3.351   3.772   0.484 -0.3972 -0.2881 -0.2187
  911MOL0     C22854   3.228   3.825   0.480  0.0343  0.2979 -0.1121
  911MOL0     C22855   3.121   3.764   0.547  0.0113  0.3528 -0.4413
  911MOL0     C22856   2.991   3.807   0.532  0.2100  0.3557  0.1201
  911MOL0     C22857   2.972   3.918   0.451 -0.2855  1.2246  0.3064
  911MOL0     O22858   2.838   3.964   0.448  0.7131 -0.0558 -0.3066
  911MOL0     C22859   2.822   4.108   0.447  0.5314 -0.5682  0.2558
  911MOL0     C22860   2.689   4.137   0.520 -0.3417 -0.3741  0.3116
  911MOL0     C22861   2.649   4.284   0.523 -1.0796  1.0366  0.4494
  911MOL0     C22862   2.656   4.368   0.391 -0.5294  0.1642  0.2755
  911MOL0     C22863   2.531   4.459   0.369  0.0462  0.2538 -0.4500
  911MOL0     C22864   2.529   4.583   0.463 -0.2513 -0.3742  0.4407
  911MOL0     C22865   2.417   4.690   0.438  0.2721  0.3300 -0.1053
  911MOL0     C22866   2.476   4.827   0.474  0.6188 -0.2122 -0.4499
  911MOL0     N22867   2.364   4.922   0.480 -0.3532  0.1136  0.3697
  911MOL0     C22868   2.249   4.924   0.389 -0.6616  0.0278 -0.1573
  911MOL0     C22869   2.180   5.031   0.432  0.5924  0.5613 -0.2543
  911MOL0     C22870   2.043   5.084   0.379  0.1370  0.3571  0.6169
  911MOL0     C22871   1.945   4.970   0.358 -0.8289 -0.1637  0.9506
  911MOL0     C22872   1.885   4.900   0.485  0.3944  0.2358  0.8215
  911MOL0     C22873   1.754   4.825   0.471 -0.4150 -0.0989  0.2453
  911MOL0     O22874   1.693   4.782   0.595 -0.6908 -0.1102  0.2511
  911MOL0     C22875   1.575   4.711   0.602 -0.3178 -0.1467  0.4912
  911MOL0     C22876   1.520   4.693   0.730 -0.3784 -0.2515  0.4999
  911MOL0     C22877   1.394   4.638   0.749 -0.7842 -0.2207 -0.4341
  911MOL0     C22878   1.356   4.627   0.896  0.2804 -0.2179  0.4402
  911MOL0     C22879   1.315   4.606   0.637 -0.2577  0.1731 -0.3246
  911MOL0     C22880   1.173   4.567   0.631 -0.1230  0.4507  0.7828
  911MOL0     O22881   1.102   4.615   0.522 -0.2089 -0.0493 -0.5284
  911MOL0     C22882   0.962   4.594   0.515 -0.2937 -0.6212 -0.0823
  911MOL0     C22883   0.909   4.501   0.426  0.5217 -1.0952  0.3086
  911MOL0     C22884   0.770   4.482   0.411  0.5985  0.0390  0.3927
  911MOL0     C22885   0.679   4.563   0.484 -0.3917 -0.5519 -0.1764
  911MOL0     O22886   0.542   4.557   0.472  0.1837 -0.3251 -0.0622
  911MOL0     C22887   0.485   4.435   0.442  0.3608  0.1931  0.3390
  911MOL0     C22888   0.337   4.460   0.452  0.1186 -0.6803 -0.4381
  911MOL0     C22889   0.262   4.518   0.332  0.1291  0.3946  0.1059
  911MOL0     C22890   0.267   4.444   0.195  0.2008  0.0352 -0.1323
  911MOL0     C22891   0.147   4.458   0.108 -0.3168 -0.4903 -0.0503
  911MOL0     C22892   0.146   4.607   0.054 -0.1817  1.0898  0.4512
  911MOL0     C22893   0.011   4.631  -0.017  0.3577 -0.4214 -0.9271
  911MOL0     C22894   0.039   4.770  -0.092  0.2258 -0.6662  0.0866
  911MOL0    Cl22895  -0.106   4.839  -0.171  0.2304 -0.0117  0.1211
  911MOL0     C22896   0.727   4.648   0.579  0.4205  0.6162  0.0079
  911MOL0     C22897   0.865   4.656   0.601 -0.5506  0.6419 -0.2954
  911MOL0     O22898   1.121   4.494   0.719  0.1234  0.0699  0.0362
  911MOL0     C22899   1.379   4.618   0.511 -0.2062  0.0814  0.3468
  911MOL0     C22900   1.504   4.665   0.494 -0.1403  0.0781  0.4617
  911MOL0     N22901   2.242   5.089   0.540  0.5811 -0.4798 -0.7889
  911MOL0     N22902   2.355   5.028   0.567 -0.2952 -0.5792 -0.8084
  911MOL0     C22903   3.059   3.980   0.377  0.4379  0.7090  0.8427
  911MOL0     C22904   3.190   3.926   0.384  1.0709  0.7881 -0.5316
  911MOL0     C22905   3.552   3.710   0.605  0.2353  0.3785  0.3257
  911MOL0     C22906   3.612   3.674   0.725 -0.0411  0.2039  0.4387
  911MOL0     C22907   3.735   3.605   0.717 -0.2238 -0.2527 -0.3131
  911MOL0     C22908   3.801   3.573   0.598  0.5684 -0.3828 -0.7356
  911MOL0     O22909   3.917   3.510   0.603  0.0205  0.9311 -0.4863
  911MOL0     C22910   3.983   3.471   0.480  0.5223  0.7894 -0.0294
  911MOL0     C22911   4.124   3.422   0.500  0.1375 -0.0944  0.4059
  911MOL0     C22912   4.119   3.287   0.563 -0.4081  0.3767  0.1795
  911MOL0     C22913   4.091   3.297   0.716 -0.3488  0.5736 -0.6149
  911MOL0     C22914   4.166   3.194   0.785 -0.3457 -0.7884  0.6256
  911MOL0     C22915   4.231   3.102   0.826 -0.4338  0.3447 -0.1166
  911MOL0     C22916   3.734   3.608   0.474 -0.1952 -0.1639  0.8672
  911MOL0     C22917   3.610   3.674   0.479 -0.2746  0.8663 -0.9519
  911MOL0     H22918   3.132   3.675   0.608 -1.2873 -0.8271 -1.8368
  911MOL0     H22919   2.908   3.765   0.588  1.9903  0.0028  2.6354
  911MOL0     H22920   2.902   4.166   0.493 -0.7172 -1.5683  4.0492
  911MOL0     H22921   2.808   4.127   0.340 -1.2452  0.5480  0.6469
  911MOL0     H22922   2.609   4.075   0.478 -1.1461  0.9670 -0.2191
  911MOL0     H22923   2.704   4.100   0.622 -0.9466  0.2722  0.6485
  911MOL0     H22924   2.546   4.271   0.559 -0.4674  0.6926  2.1589
  911MOL0     H22925   2.691   4.351   0.598 -0.1115  1.8653 -0.7958
  911MOL0     H22926   2.747   4.428   0.399  0.4438 -0.9917 -1.6012
  911MOL0     H22927   2.679   4.305   0.305  3.5408  1.5618  0.1509
  911MOL0     H22928   2.527   4.505   0.269 -2.7303  3.6265  1.0015
  911MOL0     H22929   2.436   4.406   0.382 -0.2678  0.1148 -2.8552
  911MOL0     H22930   2.528   4.553   0.568  1.5225 -1.9573  0.0601
  911MOL0     H22931   2.626   4.632   0.450 -0.9779  1.0979  0.2979
  911MOL0     H22932   2.398   4.692   0.331 -2.3692 -3.5710  0.0990
  911MOL0     H22933   2.321   4.665   0.484 -0.9187  2.4572 -1.2529
  911MOL0     H22934   2.542   4.855   0.391 -0.9677  0.7118 -1.4541
  911MOL0     H22935   2.543   4.827   0.561  0.9627 -1.6528 -0.6834
  911MOL0     H22936   2.232   4.869   0.297  2.2686  0.5809 -1.1415
  911MOL0     H22937   2.004   5.157   0.450 -1.2929  0.0013  0.2361
  911MOL0     H22938   2.064   5.128   0.281 -0.4369  1.6867  1.0729
  911MOL0     H22939   1.997   4.899   0.293 -1.5915  2.1130 -2.4159
  911MOL0     H22940   1.864   5.013   0.298  1.1632  0.3340 -1.5361
  911MOL0     H22941   1.875   4.973   0.566  1.0451  1.4754 -0.1759
  911MOL0     H22942   1.962   4.829   0.515  0.2837  0.6054  2.0272
  911MOL0     H22943   1.766   4.735   0.411  0.2701 -0.0764  0.3386
  911MOL0     H22944   1.690   4.897   0.419  2.2158  1.0707 -1.5389
  911MOL0     H22945   1.586   4.724   0.810 -0.8257 -1.8696  1.5496
  911MOL0     H22946   1.288   4.706   0.929 -0.7711 -1.6975  1.9754
  911MOL0     H22947   1.300   4.534   0.910  1.8499 -0.9292  2.6190
  911MOL0     H22948   1.446   4.626   0.958  0.4681  1.3209  0.2218
  911MOL0     H22949   0.971   4.448   0.354 -1.2382 -2.2868 -0.3919
  911MOL0     H22950   0.731   4.412   0.338 -3.3054 -1.4493  3.5451
  911MOL0     H22951   0.515   4.420   0.338  1.4307  0.7534  0.5521
  911MOL0     H22952   0.517   4.344   0.495 -0.8786 -1.2699 -1.3205
  911MOL0     H22953   0.288   4.364   0.472  1.0220 -2.0098 -3.8759
  911MOL0     H22954   0.322   4.533   0.532  0.2298  0.6346 -1.5826
  911MOL0     H22955   0.290   4.624   0.321  0.2328  0.4582  0.8881
  911MOL0     H22956   0.156   4.507   0.355  0.0399 -2.4530 -1.3148
  911MOL0     H22957   0.361   4.476   0.149  1.8977 -0.3547  2.7838
  911MOL0     H22958   0.286   4.338   0.215 -0.2704  0.0584  0.4929
  911MOL0     H22959   0.064   4.428   0.173 -0.2170 -0.2924  0.1710
  911MOL0     H22960   0.148   4.386   0.026 -3.1193 -0.4239 -0.2343
  911MOL0     H22961   0.179   4.684   0.124 -1.1877  1.7186  0.2513
  911MOL0     H22962   0.225   4.601  -0.021  1.7014  0.9846  2.3490
  911MOL0     H22963  -0.077   4.646   0.046  1.4040  1.2470  0.1970
  911MOL0     H22964  -0.012   4.557  -0.095 -1.3449 -0.4440 -0.4367
  911MOL0     H22965   0.127   4.753  -0.154  1.5673 -3.6230  2.5158
  911MOL0     H22966   0.074   4.842  -0.017  5.2647 -1.3023 -1.2553
  911MOL0     H22967   0.657   4.722   0.617 -2.9443 -0.1668 -3.9009
  911MOL0     H22968   0.903   4.738   0.661  0.1082  0.4590 -0.4534
  911MOL0     H22969   1.320   4.588   0.425 -0.4271 -4.0015  1.6892
  911MOL0     H22970   1.540   4.665   0.392 -2.7815 -1.2008 -0.5652
  911MOL0     H22971   3.040   4.068   0.317  0.1924  1.0075  1.3470
  911MOL0     H22972   3.268   3.979   0.331  2.0281  0.7292  0.7680
  911MOL0     H22973   3.562   3.708   0.816 -2.7388 -0.8978 -0.5092
  911MOL0     H22974   3.797   3.581   0.803  0.7855  2.4279 -0.2008
  911MOL0     H22975   3.929   3.392   0.428  1.7786  0.7898 -1.3910
  911MOL0     H22976   3.989   3.552   0.407 -1.5450  0.8052 -0.2497
  911MOL0     H22977   4.175   3.503   0.553 -1.0557  0.1539  1.2333
  911MOL0     H22978   4.173   3.401   0.405  3.4300  0.4027  1.8559
  911MOL0     H22979   4.219   3.246   0.545  0.4748  2.5788 -0.2658
  911MOL0     H22980   4.042   3.224   0.518 -0.3312  0.0302  0.5264
  911MOL0     H22981   3.989   3.280   0.751 -0.9949  1.5386 -1.9287
  911MOL0     H22982   4.122   3.392   0.761 -2.8578  0.8881  0.6531
  911MOL0     H22983   4.282   3.013   0.856 -1.1707 -0.9411 -2.4427
  911MOL0     H22984   3.775   3.574   0.379  0.2644  0.0213  0.9956
  911MOL0     H22985   3.569   3.706   0.383  0.5388  0.0932 -1.5758
  912MOL0     O22986   1.351   3.076   4.139  0.0331 -0.3615 -0.5275
  912MOL0     C22987   1.388   3.193   4.106  0.1413  0.2471  0.1678
  912MOL0     O22988   1.308   3.279   4.035  0.4324 -0.5227 -0.4614
  912MOL0     C22989   1.188   3.226   4.001  0.1540  0.6317 -1.1030
  912MOL0     C22990   1.095   3.181   4.099 -0.6138  0.0886  0.1529
  912MOL0     C22991   0.964   3.143   4.057 -0.3237  0.2116  0.6774
  912MOL0     C22992   0.931   3.135   3.923 -0.2656 -0.1321  0.7135
  912MOL0     O22993   0.802   3.102   3.893  0.0648 -0.4158 -0.0977
  912MOL0     C22994   0.752   3.130   3.760 -0.6278  0.4355 -0.6003
  912MOL0     C22995   0.602   3.084   3.759 -0.9937 -0.0032  0.5133
  912MOL0     C22996   0.519   3.157   3.860 -0.1016  0.4300 -0.5257
  912MOL0     C22997   0.373   3.118   3.839 -0.6895 -0.2084  0.3400
  912MOL0     C22998   0.293   3.201   3.940  0.0510  0.5856  0.5736
  912MOL0     C22999   0.140   3.186   3.913 -0.1729  0.1518  0.7083
  912MOL0     C23000   0.055   3.228   4.037 -0.1180 -0.0079 -0.4393
  912MOL0     C23001   0.054   3.381   4.045  0.3450  0.2367  0.6647
  912MOL0     N23002  -0.021   3.416   4.168 -0.3077 -0.5142 -0.1598
  912MOL0     C23003   0.042   3.466   4.280  0.1145  0.0249 -1.1391
  912MOL0     C23004  -0.056   3.474   4.366  0.0175  0.6928 -0.2159
  912MOL0     C23005  -0.031   3.540   4.503 -0.5167 -0.1120  0.0454
  912MOL0     C23006  -0.146   3.567   4.595 -0.1256 -0.0798 -0.4162
  912MOL0     C23007  -0.246   3.671   4.543  0.4408 -0.4863  0.0303
  912MOL0     C23008  -0.186   3.817   4.565  0.9733 -0.8297  0.4104
  912MOL0     O23009  -0.265   3.910   4.490  1.0524  0.4000  0.2170
  912MOL0     C23010  -0.400   3.893   4.486  0.5889  1.0407 -0.3626
  912MOL0     C23011  -0.461   3.879   4.361 -0.2864  1.0033  0.1007
  912MOL0     C23012  -0.600   3.856   4.352  0.2828  0.2699  0.0256
  912MOL0     C23013  -0.656   3.809   4.221  0.0437 -0.3150 -0.0221
  912MOL0     C23014  -0.676   3.870   4.470 -0.2873 -0.1795 -0.8321
  912MOL0     C23015  -0.825   3.856   4.474 -0.2960  0.6306 -0.0509
  912MOL0     O23016  -0.887   3.821   4.593 -0.5532 -0.4597  1.2310
  912MOL0     C23017  -1.019   3.830   4.599  0.1075  0.5422  0.1238
  912MOL0     C23018  -1.111   3.726   4.624  0.2313  0.3957  0.5342
  912MOL0     C23019  -1.249   3.750   4.647  0.3666 -0.3226  0.2431
  912MOL0     C23020  -1.303   3.880   4.650 -0.8004 -0.2373 -0.0496
  912MOL0     O23021  -1.438   3.904   4.667 -0.0261  0.4696  0.4668
  912MOL0     C23022  -1.497   4.036   4.660 -0.0783  0.8292  0.3148
  912MOL0     C23023  -1.651   4.013   4.673 -0.0288 -0.0848  0.0733
  912MOL0     C23024  -1.732   4.135   4.656  0.2049 -0.5333 -0.3579
  912MOL0     C23025  -1.880   4.095   4.654 -0.1964 -0.3521 -0.1390
  912MOL0     C23026  -1.973   4.217   4.641  0.1856  0.1812 -0.1088
  912MOL0     C23027  -1.979   4.275   4.496  0.6200 -0.6631 -0.0046
  912MOL0     C23028  -2.081   4.383   4.473 -0.7046  0.0188  0.3627
  912MOL0     C23029  -2.087   4.420   4.321 -0.0777  0.3134 -0.0570
  912MOL0    Cl23030  -2.244   4.506   4.300  0.1832 -0.2502  0.3970
  912MOL0     C23031  -1.209   3.981   4.628 -0.7165 -0.6800 -0.6568
  912MOL0     C23032  -1.074   3.962   4.598  0.1976  0.2274 -0.0982
  912MOL0     O23033  -0.885   3.881   4.367 -0.1713  0.1068 -0.0661
  912MOL0     C23034  -0.610   3.893   4.595  0.7269  0.6962  0.6368
  912MOL0     C23035  -0.473   3.897   4.606 -1.0833  0.5750 -0.3501
  912MOL0     N23036  -0.173   3.426   4.303 -0.4466  0.2784 -0.5936
  912MOL0     N23037  -0.149   3.403   4.184  0.7606  0.6536  0.0762
  912MOL0     C23038   1.032   3.168   3.823 -0.3605 -0.1966 -0.2849
  912MOL0     C23039   1.158   3.217   3.868  1.1881 -0.0631  0.0577
  912MOL0     C23040   1.518   3.239   4.148 -0.3552 -0.2360 -0.2145
  912MOL0     C23041   1.561   3.376   4.126  0.7552  0.2909  0.3396
  912MOL0     C23042   1.677   3.427   4.178 -0.3293 -0.3367  0.2526
  912MOL0     C23043   1.756   3.346   4.254  0.2775 -0.1487 -1.0652
  912MOL0     O23044   1.863   3.408   4.317  0.3737  0.2799 -0.6339
  912MOL0     C23045   1.926   3.328   4.418 -0.5648 -0.6267  0.0508
  912MOL0     C23046   2.056   3.395   4.457 -0.2808 -0.2308 -0.3269
  912MOL0     C23047   2.045   3.500   4.579  0.2691  0.0111 -0.7649
  912MOL0     C23048   2.144   3.617   4.560 -0.2632 -0.1412  0.9464
  912MOL0     C23049   2.276   3.553   4.584 -0.5727 -1.3894 -0.0165
  912MOL0     C23050   2.370   3.487   4.614  0.4619  0.0490  0.3878
  912MOL0     C23051   1.728   3.214   4.266 -0.8980  0.5603 -0.8352
  912MOL0     C23052   1.611   3.159   4.209  0.7891  0.4310 -0.8476
  912MOL0     H23053   1.119   3.180   4.205  0.5984 -3.3244 -0.0346
  912MOL0     H23054   0.899   3.103   4.135 -0.5629 -0.8760 -0.0627
  912MOL0     H23055   0.750   3.239   3.749  3.4927  0.8455  0.9584
  912MOL0     H23056   0.815   3.086   3.682 -0.7010  1.0051 -0.9909
  912MOL0     H23057   0.568   3.107   3.658  1.9539  1.0126 -0.3525
  912MOL0     H23058   0.593   2.975   3.772  1.0304 -1.2263 -5.4688
  912MOL0     H23059   0.563   3.132   3.957  2.6843  0.4237 -1.7254
  912MOL0     H23060   0.518   3.267   3.856 -0.0233  0.8139  4.2375
  912MOL0     H23061   0.335   3.150   3.741 -1.6069  0.2270  0.8250
  912MOL0     H23062   0.367   3.011   3.858  1.2038 -0.3530  0.2739
  912MOL0     H23063   0.305   3.167   4.043 -1.9013  3.8818  2.0893
  912MOL0     H23064   0.323   3.306   3.950  0.3987  0.4180  1.4128
  912MOL0     H23065   0.120   3.250   3.827  0.4142 -3.0356 -1.9936
  912MOL0     H23066   0.110   3.083   3.892 -1.7273  0.5831  0.6943
  912MOL0     H23067  -0.047   3.191   4.038 -0.8900  1.9547  0.8675
  912MOL0     H23068   0.104   3.191   4.128 -0.0606 -1.2983 -0.9818
  912MOL0     H23069   0.017   3.430   3.955 -0.0633  1.5926  1.5353
  912MOL0     H23070   0.154   3.419   4.065 -0.3317  0.5952  3.9316
  912MOL0     H23071   0.144   3.497   4.301 -0.6851  1.4637  0.9145
  912MOL0     H23072   0.035   3.474   4.561  0.3699  1.0191  0.3639
  912MOL0     H23073   0.019   3.635   4.483 -1.1177 -0.1735 -1.9998
  912MOL0     H23074  -0.101   3.592   4.692  0.0943 -1.2266 -0.1965
  912MOL0     H23075  -0.205   3.478   4.620  1.2572 -0.9194  0.0292
  912MOL0     H23076  -0.338   3.659   4.602  0.0172 -1.7163 -0.8320
  912MOL0     H23077  -0.275   3.656   4.438 -2.2511  4.1266 -0.1607
  912MOL0     H23078  -0.081   3.818   4.534  0.3322  2.7006 -2.1326
  912MOL0     H23079  -0.187   3.848   4.670 -2.5496 -2.2543  0.9618
  912MOL0     H23080  -0.394   3.881   4.276  2.8423  2.7745  2.3993
  912MOL0     H23081  -0.720   3.722   4.236 -1.7285  1.2257  1.8870
  912MOL0     H23082  -0.712   3.891   4.176 -0.3702 -0.8700 -0.5178
  912MOL0     H23083  -0.565   3.788   4.164 -0.1814 -1.6302  0.0838
  912MOL0     H23084  -1.081   3.622   4.611 -1.6742 -0.0313 -0.7540
  912MOL0     H23085  -1.310   3.661   4.660  0.8306 -0.3861  2.5546
  912MOL0     H23086  -1.470   4.106   4.740  0.6147  3.4675 -2.0438
  912MOL0     H23087  -1.485   4.077   4.559 -1.0506  0.7895  0.1789
  912MOL0     H23088  -1.679   3.943   4.593 -2.0235  0.0548  0.6064
  912MOL0     H23089  -1.678   3.957   4.763  0.5689 -2.2951 -1.0408
  912MOL0     H23090  -1.716   4.188   4.562  1.0715  0.8943  0.5685
  912MOL0     H23091  -1.723   4.212   4.732 -3.0049 -0.8107  0.4673
  912MOL0     H23092  -1.902   4.028   4.570  1.6840 -0.0655 -0.8996
  912MOL0     H23093  -1.909   4.033   4.740 -3.5386 -1.5323 -1.9463
  912MOL0     H23094  -1.949   4.298   4.711 -1.3450  0.3197  0.2826
  912MOL0     H23095  -2.072   4.177   4.662 -0.8790  1.3493 -2.5180
  912MOL0     H23096  -1.876   4.302   4.468  0.3319 -1.2937 -1.8294
  912MOL0     H23097  -2.005   4.192   4.430  1.5577 -0.4527 -0.6654
  912MOL0     H23098  -2.059   4.474   4.530 -1.1199 -0.2076  0.8907
  912MOL0     H23099  -2.181   4.342   4.488 -1.4284  0.7778 -1.9811
  912MOL0     H23100  -2.087   4.326   4.264 -0.3162 -0.3897  1.0617
  912MOL0     H23101  -2.004   4.486   4.294  0.3906 -0.5262 -0.7465
  912MOL0     H23102  -1.228   4.087   4.637  4.3023  0.4598 -0.4479
  912MOL0     H23103  -1.004   4.045   4.597  0.0919  0.5578  3.6399
  912MOL0     H23104  -0.670   3.913   4.683  2.2154  1.7127  1.4653
  912MOL0     H23105  -0.414   3.919   4.695  1.0085  0.8535 -1.7455
  912MOL0     H23106   1.009   3.171   3.717  0.5628  2.6053 -0.4739
  912MOL0     H23107   1.229   3.259   3.798 -1.2162  3.0526 -0.7254
  912MOL0     H23108   1.479   3.429   4.078 -2.3708 -3.6153  0.8333
  912MOL0     H23109   1.699   3.532   4.161  1.5401 -1.1384 -3.1263
  912MOL0     H23110   1.870   3.308   4.510  0.4012  1.5197  1.1714
  912MOL0     H23111   1.970   3.238   4.373  0.8212  1.0421 -2.1040
  912MOL0     H23112   2.087   3.450   4.368  2.3067 -0.2460  0.4727
  912MOL0     H23113   2.141   3.328   4.475 -0.2087 -0.5284 -1.6618
  912MOL0     H23114   2.056   3.449   4.674 -0.8898 -0.1681 -0.7071
  912MOL0     H23115   1.944   3.543   4.576  0.1517 -0.2520 -3.3434
  912MOL0     H23116   2.118   3.695   4.631 -2.4298 -1.4853  1.7289
  912MOL0     H23117   2.139   3.656   4.458 -0.3102 -1.2436  0.5128
  912MOL0     H23118   2.447   3.417   4.635  1.8636  1.3470 -0.2325
  912MOL0     H23119   1.784   3.134   4.314  0.8475  1.4345 -1.3270
  912MOL0     H23120   1.595   3.053   4.222  0.6924  0.5932  0.5030
  913MOL0     O23121   9.085   8.547  11.192  0.4271 -0.4331 -0.2774
  913MOL0     C23122   9.178   8.571  11.268  0.4106 -0.3053  0.3828
  913MOL0     O23123   9.224   8.486  11.365  0.2082 -0.8476 -0.5498
  913MOL0     C23124   9.137   8.402  11.430  0.6594  0.6175 -0.7585
  913MOL0     C23125   9.000   8.434  11.457 -0.5264  1.2288 -0.1123
  913MOL0     C23126   8.927   8.345  11.529  0.1742 -0.0944 -0.1062
  913MOL0     C23127   8.969   8.221  11.581  0.5973 -0.4141  0.0857
  913MOL0     O23128   8.873   8.141  11.637  0.2520  0.1598 -0.9017
  913MOL0     C23129   8.907   8.001  11.657  0.3615  0.0272 -0.0599
  913MOL0     C23130   8.770   7.932  11.684 -0.2017  0.6103 -1.2750
  913MOL0     C23131   8.690   7.910  11.565  0.4081  0.3514 -0.2865
  913MOL0     C23132   8.548   7.864  11.606  0.0880 -0.1375  0.7756
  913MOL0     C23133   8.460   7.843  11.479  0.4671 -0.6228 -0.1473
  913MOL0     C23134   8.320   7.791  11.527  0.0731 -0.5100 -0.5577
  913MOL0     C23135   8.229   7.758  11.407  0.0437 -0.8113  0.5717
  913MOL0     C23136   8.190   7.882  11.324  0.7180  0.3350 -0.2714
  913MOL0     N23137   8.079   7.839  11.235  0.3361  0.1427 -1.0024
  913MOL0     C23138   7.945   7.855  11.268 -0.3623  0.1822  0.0922
  913MOL0     C23139   7.884   7.782  11.173 -0.6124 -0.6577  0.2478
  913MOL0     C23140   7.737   7.736  11.160  0.6627 -0.5532 -0.2014
  913MOL0     C23141   7.663   7.793  11.041  0.7858 -0.2461  0.6005
  913MOL0     C23142   7.592   7.922  11.085 -0.6611  0.0597  0.8297
  913MOL0     C23143   7.507   7.960  10.970 -0.1316 -0.0391  0.1435
  913MOL0     O23144   7.425   8.060  11.026  0.0493 -0.1765  0.3680
  913MOL0     C23145   7.293   8.042  11.059 -0.6715 -1.1954 -0.3014
  913MOL0     C23146   7.211   7.952  11.009 -0.3145 -0.1168 -0.9060
  913MOL0     C23147   7.078   7.945  11.054 -0.2054 -0.1579 -0.1953
  913MOL0     C23148   6.979   7.856  10.979  0.3770 -0.0333 -0.6815
  913MOL0     C23149   7.031   8.030  11.158  0.6085 -0.0064 -0.0759
  913MOL0     C23150   6.891   8.041  11.195  0.1441 -0.1895 -0.1078
  913MOL0     O23151   6.848   8.173  11.216  0.5769  0.1042  0.1680
  913MOL0     C23152   6.716   8.211  11.219  1.1549 -0.2598 -0.1479
  913MOL0     C23153   6.604   8.127  11.192 -1.1296 -0.3062  0.4661
  913MOL0     C23154   6.476   8.177  11.205 -0.0121 -0.2098 -0.0027
  913MOL0     C23155   6.459   8.305  11.260  0.3018  0.4260 -0.2618
  913MOL0     O23156   6.340   8.372  11.279 -0.1880 -0.2128 -0.3331
  913MOL0     C23157   6.217   8.299  11.260 -0.4509 -0.2990  0.7540
  913MOL0     C23158   6.104   8.395  11.277  0.7368  0.7834 -0.0330
  913MOL0     C23159   6.096   8.471  11.151 -0.5686  0.1050  0.0763
  913MOL0     C23160   5.971   8.562  11.160 -0.7579  0.8444 -0.3186
  913MOL0     C23161   5.962   8.635  11.022  0.0835  0.3125 -0.4515
  913MOL0     C23162   5.823   8.699  10.996 -0.2821  0.1245  0.5135
  913MOL0     C23163   5.803   8.812  11.100 -0.2883  1.1051  0.7028
  913MOL0     C23164   5.658   8.865  11.093 -0.3347  0.2690 -0.2128
  913MOL0    Cl23165   5.658   9.041  11.118  0.1842 -0.1268 -0.0560
  913MOL0     C23166   6.571   8.388  11.290  0.2704 -0.2365 -0.6398
  913MOL0     C23167   6.695   8.346  11.254  0.1696  0.0395  0.5015
  913MOL0     O23168   6.825   7.943  11.201 -0.3997  0.1174 -0.2817
  913MOL0     C23169   7.121   8.129  11.201  0.3078  0.0024 -0.6976
  913MOL0     C23170   7.250   8.129  11.155  0.0173 -0.0916 -0.2964
  913MOL0     N23171   7.977   7.748  11.074  0.2700  1.5712 -0.3552
  913MOL0     N23172   8.095   7.776  11.119  1.2276  0.9660 -0.1645
  913MOL0     C23173   9.108   8.193  11.571 -0.0949  0.1483 -0.2766
  913MOL0     C23174   9.186   8.283  11.494 -0.7846  0.0133 -0.5008
  913MOL0     C23175   9.255   8.707  11.258 -0.3397  0.5338  0.4605
  913MOL0     C23176   9.339   8.751  11.356 -0.8166 -0.3893 -0.3547
  913MOL0     C23177   9.413   8.875  11.341 -0.2693  0.9053 -0.3526
  913MOL0     C23178   9.403   8.949  11.223 -0.0969 -0.2903  0.2213
  913MOL0     O23179   9.476   9.064  11.201 -1.3487  0.2476  0.6497
  913MOL0     C23180   9.607   9.067  11.261  0.0024 -0.0665  0.9082
  913MOL0     C23181   9.673   9.196  11.216 -0.3160  0.6592  0.1814
  913MOL0     C23182   9.670   9.209  11.064 -0.1211  0.6059 -0.0748
  913MOL0     C23183   9.763   9.318  10.995  1.0283  0.4401 -0.2287
  913MOL0     C23184   9.798   9.270  10.857  0.2302 -0.0054  0.1827
  913MOL0     C23185   9.827   9.234  10.743 -0.0859  0.4492 -0.0355
  913MOL0     C23186   9.302   8.904  11.140 -0.4614 -0.6340 -0.1374
  913MOL0     C23187   9.226   8.791  11.155  0.1652 -0.4154 -0.2915
  913MOL0     H23188   8.954   8.527  11.425  0.0894  1.0884 -1.4395
  913MOL0     H23189   8.821   8.359  11.546  0.7138  3.5275  1.2815
  913MOL0     H23190   8.949   7.968  11.561 -2.5593 -2.3009 -0.6984
  913MOL0     H23191   8.976   7.991  11.741 -1.4171  1.6116  1.6860
  913MOL0     H23192   8.793   7.838  11.735  0.2975  0.7837 -1.1702
  913MOL0     H23193   8.706   7.993  11.748 -1.7674 -2.3688  0.2235
  913MOL0     H23194   8.688   8.008  11.517  2.2049  1.5318  1.8736
  913MOL0     H23195   8.732   7.833  11.499  2.4990 -0.1952  1.5637
  913MOL0     H23196   8.557   7.775  11.669  4.2780 -0.2600  0.2791
  913MOL0     H23197   8.493   7.944  11.658 -1.1092 -0.4643  0.0636
  913MOL0     H23198   8.442   7.942  11.434 -0.4316 -1.1700 -1.0515
  913MOL0     H23199   8.510   7.786  11.400 -0.8068  0.5240 -1.8858
  913MOL0     H23200   8.335   7.707  11.596  0.8883 -0.9906 -1.2904
  913MOL0     H23201   8.266   7.870  11.579 -2.5807 -2.3774 -0.2586
  913MOL0     H23202   8.273   7.683  11.339 -0.3196  1.1542 -1.9855
  913MOL0     H23203   8.133   7.723  11.445 -0.5715 -0.6456 -0.7814
  913MOL0     H23204   8.282   7.910  11.271  1.2906  1.7805  1.4088
  913MOL0     H23205   8.152   7.957  11.393 -1.5459 -0.1983 -0.8722
  913MOL0     H23206   7.905   7.908  11.353  2.4495  1.3680  0.7835
  913MOL0     H23207   7.728   7.627  11.150 -1.0981 -0.2920 -2.4178
  913MOL0     H23208   7.680   7.764  11.249 -1.0301  1.4071 -1.7756
  913MOL0     H23209   7.586   7.723  11.006 -1.0224  0.9945  1.9342
  913MOL0     H23210   7.736   7.804  10.961  0.0802  3.6359  0.3072
  913MOL0     H23211   7.665   8.002  11.097 -0.4130  0.0597 -0.5657
  913MOL0     H23212   7.535   7.919  11.179 -0.1945  2.2531  1.2425
  913MOL0     H23213   7.449   7.871  10.943 -2.0967  0.9689  0.8808
  913MOL0     H23214   7.558   7.988  10.877 -0.8527 -3.3102 -1.3959
  913MOL0     H23215   7.255   7.885  10.935  3.3950  1.7715 -0.6671
  913MOL0     H23216   7.023   7.806  10.892  0.8775  0.0037 -0.4555
  913MOL0     H23217   6.941   7.774  11.041  1.9963 -0.1878  0.1832
  913MOL0     H23218   6.893   7.920  10.959 -1.5721 -0.6741  4.2883
  913MOL0     H23219   6.625   8.028  11.151  1.4242 -0.1093  1.0949
  913MOL0     H23220   6.396   8.109  11.178  0.4253  0.1396 -2.3056
  913MOL0     H23221   6.224   8.265  11.156  3.9727  2.8616 -0.2732
  913MOL0     H23222   6.194   8.220  11.332 -1.3563 -1.0797 -0.3353
  913MOL0     H23223   6.018   8.336  11.312  1.5882 -1.0167 -0.8506
  913MOL0     H23224   6.127   8.467  11.356  2.3910  0.4951 -0.2204
  913MOL0     H23225   6.075   8.411  11.063 -1.6976  0.4604  0.0836
  913MOL0     H23226   6.185   8.533  11.137 -1.7011  1.1381 -3.8780
  913MOL0     H23227   5.884   8.500  11.183  0.2575 -1.3193 -1.9465
  913MOL0     H23228   5.981   8.635  11.240  1.3373 -0.8392  1.0592
  913MOL0     H23229   5.986   8.565  10.942  0.2977 -0.0535 -0.0731
  913MOL0     H23230   6.037   8.715  11.025  0.6414 -0.0294 -2.9325
  913MOL0     H23231   5.829   8.745  10.897 -0.5336  2.1483  1.3926
  913MOL0     H23232   5.739   8.629  11.002 -1.9568  2.0893  1.4940
  913MOL0     H23233   5.881   8.889  11.102 -1.5866  2.4660  0.6446
  913MOL0     H23234   5.822   8.767  11.198 -1.3582  0.7802  0.7676
  913MOL0     H23235   5.602   8.805  11.165  1.8292 -1.4773  0.1168
  913MOL0     H23236   5.615   8.855  10.993 -1.6674  1.9275  0.1480
  913MOL0     H23237   6.562   8.490  11.326  2.5648 -0.7421  1.7031
  913MOL0     H23238   6.774   8.419  11.271  0.5434 -0.1115 -0.5033
  913MOL0     H23239   7.103   8.202  11.279  1.0019 -0.7020  0.1487
  913MOL0     H23240   7.324   8.198  11.195  1.6854 -2.1080  0.2715
  913MOL0     H23241   9.144   8.101  11.616 -2.3126 -1.3447 -1.3177
  913MOL0     H23242   9.289   8.256  11.476 -0.6652 -0.1931  0.4818
  913MOL0     H23243   9.353   8.711  11.456  2.9360  3.6794  1.0689
  913MOL0     H23244   9.465   8.908  11.430 -2.0690  0.9458  0.7313
  913MOL0     H23245   9.592   9.065  11.369 -0.1200 -0.3885  0.8871
  913MOL0     H23246   9.671   8.981  11.240 -1.8395 -1.1703 -0.5755
  913MOL0     H23247   9.780   9.193  11.239 -0.3692 -2.4313  0.4422
  913MOL0     H23248   9.629   9.285  11.262  0.7963  0.4293  1.7681
  913MOL0     H23249   9.566   9.229  11.036 -0.6701 -0.9038  0.7877
  913MOL0     H23250   9.700   9.113  11.022  1.1550  1.2760 -0.7346
  913MOL0     H23251   9.858   9.334  11.047  0.2126  1.6677  0.9223
  913MOL0     H23252   9.699   9.406  10.989 -2.4671 -2.0099 -4.0957
  913MOL0     H23253   9.862   9.204  10.647  0.3739 -0.7679  0.4850
  913MOL0     H23254   9.273   8.960  11.051 -1.0410 -2.0329 -0.8555
  913MOL0     H23255   9.142   8.772  11.090 -0.1952  3.9439 -1.4018
  914MOL0     O23256   4.600   8.400   7.651 -0.2826 -0.2319  0.0136
  914MOL0     C23257   4.593   8.341   7.541 -0.0522  0.5519 -0.2849
  914MOL0     O23258   4.480   8.316   7.463 -0.6186 -0.2868  0.1563
  914MOL0     C23259   4.359   8.369   7.498 -0.5517 -0.6361  0.8296
  914MOL0     C23260   4.339   8.501   7.557 -0.7266  0.7281 -0.1773
  914MOL0     C23261   4.214   8.557   7.568 -0.3910 -0.3851  1.1833
  914MOL0     C23262   4.101   8.496   7.507 -0.1370  0.0067 -0.4160
  914MOL0     O23263   3.977   8.534   7.526  0.1962 -0.3187  0.2585
  914MOL0     C23264   3.936   8.546   7.670 -0.4353  0.7253 -0.2841
  914MOL0     C23265   3.779   8.544   7.688 -0.6132  0.3994  0.6646
  914MOL0     C23266   3.705   8.435   7.611 -0.7280 -0.0667  0.6162
  914MOL0     C23267   3.561   8.456   7.621 -0.3976 -0.1677 -0.4283
  914MOL0     C23268   3.497   8.348   7.536  0.6885  0.2132 -0.0593
  914MOL0     C23269   3.347   8.360   7.554 -0.2666  0.3543 -0.6275
  914MOL0     C23270   3.263   8.291   7.447 -0.2446 -0.7059  0.4240
  914MOL0     C23271   3.115   8.302   7.477 -0.1228  0.1858 -0.7765
  914MOL0     N23272   3.047   8.203   7.392 -0.7312 -0.1497  0.2789
  914MOL0     C23273   3.022   8.221   7.259 -0.0467 -0.3280  1.1761
  914MOL0     C23274   2.955   8.106   7.226 -0.8201 -0.1761  0.1831
  914MOL0     C23275   2.914   8.063   7.088  0.6565 -1.1154  0.0349
  914MOL0     C23276   2.769   8.016   7.079  0.1779  0.2792  0.3243
  914MOL0     C23277   2.680   8.141   7.090 -0.4933  0.0995 -0.7804
  914MOL0     C23278   2.546   8.109   7.026  0.3773  0.2737 -0.5912
  914MOL0     O23279   2.442   8.193   7.081 -0.5274  0.0845  0.4462
  914MOL0     C23280   2.324   8.186   7.013 -0.7809 -0.0161 -0.2390
  914MOL0     C23281   2.294   8.145   6.885 -0.0498  0.2938  0.1469
  914MOL0     C23282   2.170   8.159   6.823  0.0721  0.0296  0.6039
  914MOL0     C23283   2.158   8.111   6.674 -0.7537  0.2536  0.1333
  914MOL0     C23284   2.070   8.225   6.897 -0.5478  0.0670 -0.1116
  914MOL0     C23285   1.938   8.255   6.846 -0.1153 -0.8515  0.0677
  914MOL0     O23286   1.852   8.305   6.937 -0.6332  0.1174 -0.0365
  914MOL0     C23287   1.726   8.326   6.908 -0.4849  0.3370 -0.0099
  914MOL0     C23288   1.635   8.226   6.858 -0.3380 -0.8125  0.3910
  914MOL0     C23289   1.497   8.248   6.851 -0.5877  0.0584 -0.5378
  914MOL0     C23290   1.443   8.368   6.904  0.4006 -0.0340 -0.1220
  914MOL0     O23291   1.305   8.378   6.890 -0.1136 -0.4072  0.0553
  914MOL0     C23292   1.254   8.493   6.831 -0.4980 -0.5729 -0.3058
  914MOL0     C23293   1.107   8.475   6.804 -0.1452  0.3206 -0.8051
  914MOL0     C23294   1.040   8.591   6.727  0.3625  0.2536  1.2694
  914MOL0     C23295   0.891   8.569   6.697  0.2953  1.3492 -0.7101
  914MOL0     C23296   0.813   8.605   6.826 -0.0464  0.9854  0.0199
  914MOL0     C23297   0.664   8.605   6.790 -0.1420 -0.3662  0.2052
  914MOL0     C23298   0.580   8.693   6.878  0.2479 -0.2189  0.1600
  914MOL0     C23299   0.531   8.617   7.002  0.4391 -0.1319 -1.3012
  914MOL0    Cl23300   0.415   8.726   7.085  0.0518 -0.4424 -0.1276
  914MOL0     C23301   1.528   8.468   6.949 -0.2043  0.8970 -0.2780
  914MOL0     C23302   1.668   8.437   6.959  0.5146 -0.1806  0.2296
  914MOL0     O23303   1.913   8.238   6.729  0.4702 -0.1560 -0.1934
  914MOL0     C23304   2.095   8.252   7.032  1.0587  0.3714  0.3744
  914MOL0     C23305   2.221   8.235   7.090  0.2697 -0.4193  0.4840
  914MOL0     N23306   2.968   8.023   7.334  0.3776  0.1871 -0.1027
  914MOL0     N23307   3.017   8.084   7.433 -0.0096  0.2364 -0.8825
  914MOL0     C23308   4.118   8.378   7.438 -0.1504 -0.8339  0.0268
  914MOL0     C23309   4.246   8.316   7.437  0.3540  0.1638  0.1581
  914MOL0     C23310   4.725   8.286   7.487  0.7048 -0.0196 -0.9546
  914MOL0     C23311   4.729   8.222   7.362 -0.0789 -0.2518  0.1410
  914MOL0     C23312   4.847   8.166   7.322 -0.2169 -0.1053  0.3064
  914MOL0     C23313   4.970   8.179   7.392  0.3181 -0.0557 -0.6166
  914MOL0     O23314   5.079   8.109   7.343 -0.0210  0.1633  0.4239
  914MOL0     C23315   5.212   8.142   7.394  0.1703  0.1088 -0.5128
  914MOL0     C23316   5.306   8.155   7.282 -0.7794 -0.2787  0.7392
  914MOL0     C23317   5.448   8.124   7.322  0.0634  0.0657  0.1020
  914MOL0     C23318   5.476   7.971   7.325  0.0610 -0.2361 -0.4896
  914MOL0     C23319   5.618   7.940   7.351  0.3243 -0.5197  0.5320
  914MOL0     C23320   5.736   7.939   7.367 -0.1012  0.3673 -1.3691
  914MOL0     C23321   4.970   8.251   7.512  1.0105  0.3994  0.1504
  914MOL0     C23322   4.848   8.302   7.562  0.2380  1.1337 -0.2113
  914MOL0     H23323   4.416   8.576   7.574  1.8827 -1.2755 -2.2372
  914MOL0     H23324   4.206   8.652   7.621 -0.4832 -0.0797  0.6225
  914MOL0     H23325   3.973   8.463   7.731 -0.2728 -0.7718 -2.3127
  914MOL0     H23326   3.967   8.635   7.723 -1.9496  0.1648  1.6618
  914MOL0     H23327   3.753   8.546   7.794 -1.9225 -1.6277  0.4523
  914MOL0     H23328   3.743   8.634   7.638  2.6604 -0.0888 -3.1023
  914MOL0     H23329   3.743   8.423   7.510  0.6347 -0.8161  1.1923
  914MOL0     H23330   3.725   8.341   7.662 -2.7801  0.1510  1.9342
  914MOL0     H23331   3.531   8.439   7.725  0.0128 -1.0848 -0.4540
  914MOL0     H23332   3.538   8.557   7.585 -0.1075  0.2146  0.4295
  914MOL0     H23333   3.530   8.357   7.432 -0.5033 -0.0998 -0.4827
  914MOL0     H23334   3.522   8.245   7.563  1.8382  0.1778 -1.1783
  914MOL0     H23335   3.323   8.325   7.655  1.5373 -0.8093 -0.5494
  914MOL0     H23336   3.323   8.466   7.553 -1.4430  0.1232  0.2692
  914MOL0     H23337   3.282   8.329   7.347  2.4837 -0.0169  1.1271
  914MOL0     H23338   3.299   8.188   7.444  0.9187 -0.3173  0.6777
  914MOL0     H23339   3.089   8.407   7.462 -2.5971 -0.6673 -3.2647
  914MOL0     H23340   3.102   8.279   7.583  1.5171  0.0637 -0.5665
  914MOL0     H23341   3.041   8.306   7.195 -3.8775  1.7671  2.5540
  914MOL0     H23342   2.925   8.147   7.018  0.0005 -0.2592  0.9250
  914MOL0     H23343   2.972   7.979   7.049 -0.0742 -2.0168  0.8465
  914MOL0     H23344   2.742   7.940   7.152  0.1545  0.6821  0.7398
  914MOL0     H23345   2.746   7.972   6.981  1.4929 -0.9733  0.5456
  914MOL0     H23346   2.730   8.229   7.048 -0.1171  0.5117  0.5015
  914MOL0     H23347   2.658   8.167   7.194 -4.0696 -2.3885 -0.7469
  914MOL0     H23348   2.523   8.003   7.039  3.7169 -0.4378  0.5318
  914MOL0     H23349   2.556   8.120   6.918 -0.9741  0.9581 -0.6696
  914MOL0     H23350   2.375   8.104   6.827  0.2471 -1.8503  1.9355
  914MOL0     H23351   2.171   8.198   6.608  0.5240 -1.0168 -1.3663
  914MOL0     H23352   2.234   8.036   6.653 -0.1044  0.6674  0.9282
  914MOL0     H23353   2.062   8.060   6.668 -1.3900  1.2247  1.4451
  914MOL0     H23354   1.666   8.125   6.831  0.9997 -0.5044  0.6762
  914MOL0     H23355   1.435   8.163   6.824  0.9525 -0.6175 -2.2072
  914MOL0     H23356   1.262   8.576   6.902  3.4395 -2.3192  1.6268
  914MOL0     H23357   1.306   8.514   6.737 -1.0435  0.1557 -0.4495
  914MOL0     H23358   1.101   8.381   6.749 -0.8015  1.5727 -3.0363
  914MOL0     H23359   1.057   8.469   6.901  1.2637  1.7476  0.0563
  914MOL0     H23360   1.090   8.597   6.630  0.7254  0.5956  1.4761
  914MOL0     H23361   1.049   8.695   6.759  0.6676  1.1830 -1.5156
  914MOL0     H23362   0.860   8.629   6.611 -2.4503  0.0513 -0.7265
  914MOL0     H23363   0.886   8.464   6.664 -0.0588  1.2331 -0.2849
  914MOL0     H23364   0.845   8.706   6.853  1.1296  0.2462  1.4771
  914MOL0     H23365   0.829   8.526   6.900 -2.8544 -1.1245 -1.4408
  914MOL0     H23366   0.676   8.658   6.695 -0.3781  0.8344  0.8279
  914MOL0     H23367   0.632   8.501   6.776 -1.3604  0.0405 -0.2352
  914MOL0     H23368   0.486   8.716   6.828  0.4357  1.0055  0.3595
  914MOL0     H23369   0.628   8.787   6.903  0.9177 -0.4118 -0.3789
  914MOL0     H23370   0.610   8.601   7.076 -0.9770 -1.1618  0.0354
  914MOL0     H23371   0.475   8.527   6.976  0.1059 -0.2068 -0.3492
  914MOL0     H23372   1.488   8.564   6.978  0.1313  1.1499 -0.6433
  914MOL0     H23373   1.728   8.511   7.012  1.0325  0.0182 -0.6270
  914MOL0     H23374   2.019   8.302   7.092 -0.6142 -0.7800 -0.7113
  914MOL0     H23375   2.243   8.274   7.189 -2.8500 -1.6802  1.8011
  914MOL0     H23376   4.030   8.333   7.392  0.3201 -3.7246  1.6695
  914MOL0     H23377   4.241   8.213   7.403 -2.5033 -0.5447  2.2999
  914MOL0     H23378   4.649   8.198   7.293  2.0113 -1.4665 -2.0040
  914MOL0     H23379   4.863   8.095   7.241  0.9342 -1.7137  1.8622
  914MOL0     H23380   5.221   8.237   7.447 -0.3290  1.4859 -2.7561
  914MOL0     H23381   5.245   8.060   7.458  0.1308  0.7649  0.3640
  914MOL0     H23382   5.308   8.262   7.261  0.0638  0.0428  2.3577
  914MOL0     H23383   5.272   8.096   7.196  0.7887 -0.2060  0.0186
  914MOL0     H23384   5.472   8.168   7.419 -1.7353 -2.8145  2.0129
  914MOL0     H23385   5.515   8.171   7.249  1.1814 -1.2301  0.2505
  914MOL0     H23386   5.465   7.924   7.227  1.4761 -2.0854  0.1820
  914MOL0     H23387   5.420   7.923   7.405  1.7260  0.1450  0.9570
  914MOL0     H23388   5.843   7.943   7.371 -0.0351 -1.4580 -0.0112
  914MOL0     H23389   5.057   8.271   7.573  1.2641  1.5687 -0.5643
  914MOL0     H23390   4.840   8.329   7.667 -2.8468  3.8808 -0.9875
  915MOL0     O23391   6.088   7.429   5.040 -0.1673  0.1489  0.5543
  915MOL0     C23392   6.023   7.415   5.153  0.5264  0.1876  0.8616
  915MOL0     O23393   6.086   7.351   5.266  0.0186  0.0650 -0.3205
  915MOL0     C23394   6.212   7.300   5.251 -0.2999 -0.7116  0.3821
  915MOL0     C23395   6.240   7.212   5.154 -0.7587  0.1651  0.1415
  915MOL0     C23396   6.370   7.165   5.124  0.7687 -0.1706  0.3843
  915MOL0     C23397   6.470   7.221   5.197 -0.5876 -0.3995 -0.4248
  915MOL0     O23398   6.604   7.204   5.175  0.7660  0.2967  0.3457
  915MOL0     C23399   6.649   7.134   5.051  1.3858  0.3271 -0.4101
  915MOL0     C23400   6.792   7.168   5.011 -0.5974  0.4922  0.3791
  915MOL0     C23401   6.891   7.112   5.110 -0.1439 -0.3160 -0.8010
  915MOL0     C23402   7.025   7.184   5.087 -0.7377 -0.8246 -0.1941
  915MOL0     C23403   7.131   7.139   5.184  0.3854  0.0753 -0.1396
  915MOL0     C23404   7.169   6.996   5.150  0.4483  0.4551  0.1328
  915MOL0     C23405   7.324   6.977   5.149  0.8017 -0.3043 -0.6606
  915MOL0     C23406   7.352   6.836   5.109 -1.2530 -0.6426 -0.1608
  915MOL0     N23407   7.501   6.821   5.102 -0.0894 -0.0839 -0.2498
  915MOL0     C23408   7.592   6.882   5.187  0.2399  0.5536  0.2218
  915MOL0     C23409   7.712   6.828   5.160  0.3033 -0.3813  0.8304
  915MOL0     C23410   7.840   6.874   5.235  0.2698  0.3224  0.4961
  915MOL0     C23411   7.923   6.761   5.288 -0.4912 -0.0063  0.7861
  915MOL0     C23412   7.986   6.672   5.179  0.1292 -0.7908  0.1557
  915MOL0     C23413   7.962   6.515   5.195 -0.3039 -0.1227  0.2994
  915MOL0     O23414   7.945   6.472   5.328 -0.2185 -0.3374  0.2012
  915MOL0     C23415   7.821   6.428   5.367 -0.0064  0.1551 -0.7487
  915MOL0     C23416   7.820   6.371   5.492 -0.4008 -0.2560  0.6716
  915MOL0     C23417   7.705   6.338   5.555 -0.2150  0.0698 -0.5032
  915MOL0     C23418   7.728   6.268   5.697  0.3282  0.5793 -0.0676
  915MOL0     C23419   7.580   6.358   5.488 -0.4021  0.1117 -0.2320
  915MOL0     C23420   7.451   6.307   5.538 -0.4715  0.0364 -0.1261
  915MOL0     O23421   7.423   6.340   5.669 -0.2956 -0.1897  0.5730
  915MOL0     C23422   7.312   6.285   5.706  0.1033  0.6699  0.4212
  915MOL0     C23423   7.309   6.145   5.720  0.2472 -0.2699 -0.0985
  915MOL0     C23424   7.188   6.069   5.751 -0.0447 -0.5918  0.2036
  915MOL0     C23425   7.073   6.150   5.777  0.2333 -0.6840 -0.9324
  915MOL0     O23426   6.954   6.090   5.798 -0.2778  0.4493  0.2206
  915MOL0     C23427   6.834   6.162   5.786 -0.9211  0.0635  0.0331
  915MOL0     C23428   6.809   6.229   5.648  0.5329  0.2131 -0.7950
  915MOL0     C23429   6.664   6.298   5.645 -0.0933  0.4054  0.3702
  915MOL0     C23430   6.547   6.200   5.652 -1.1310 -0.5194  0.0862
  915MOL0     C23431   6.412   6.258   5.609 -0.9114 -0.1323 -0.3209
  915MOL0     C23432   6.330   6.327   5.718 -0.1034  0.1206  0.2432
  915MOL0     C23433   6.180   6.340   5.684  0.0521  0.3170 -0.0677
  915MOL0     C23434   6.112   6.346   5.820  0.4416 -0.9043 -0.3203
  915MOL0    Cl23435   5.940   6.357   5.777 -0.1933 -0.4743 -0.0874
  915MOL0     C23436   7.084   6.292   5.787 -0.9647 -0.1014  0.5930
  915MOL0     C23437   7.198   6.358   5.740  1.2181  0.6539  0.1518
  915MOL0     O23438   7.369   6.270   5.461 -0.3831  0.1112  0.3168
  915MOL0     C23439   7.583   6.436   5.374  0.3967  0.2042  0.1846
  915MOL0     C23440   7.701   6.468   5.313  0.1751  0.7264  0.1123
  915MOL0     N23441   7.696   6.739   5.062  0.7848  0.1299 -0.0428
  915MOL0     N23442   7.570   6.735   5.035  0.1602  0.2590 -0.6236
  915MOL0     C23443   6.446   7.317   5.303 -0.1776  0.5808 -0.3275
  915MOL0     C23444   6.319   7.361   5.326 -0.2066 -0.0659  0.6375
  915MOL0     C23445   5.875   7.439   5.161  0.1826  0.1062  0.3994
  915MOL0     C23446   5.803   7.476   5.044  0.2254 -0.7887  0.6413
  915MOL0     C23447   5.666   7.504   5.045  0.0222 -0.6342 -0.1530
  915MOL0     C23448   5.604   7.518   5.169  0.9512  0.0028  0.4618
  915MOL0     O23449   5.473   7.559   5.174 -0.8911 -0.2267 -0.1985
  915MOL0     C23450   5.406   7.600   5.297  0.0000 -0.4972 -0.6240
  915MOL0     C23451   5.264   7.667   5.283  0.7995  0.1905 -0.2764
  915MOL0     C23452   5.194   7.595   5.171 -0.0337 -0.6825  0.1104
  915MOL0     C23453   5.052   7.652   5.156 -0.1167  0.5234  0.0901
  915MOL0     C23454   4.960   7.550   5.100 -0.6035 -0.5738  0.0820
  915MOL0     C23455   4.896   7.470   5.045 -0.1148 -0.7841 -0.0782
  915MOL0     C23456   5.675   7.478   5.284  0.6197 -0.4131 -0.2241
  915MOL0     C23457   5.813   7.435   5.283  0.4773  0.3851 -0.2505
  915MOL0     H23458   6.160   7.177   5.089 -0.2915 -0.3812 -0.1543
  915MOL0     H23459   6.385   7.086   5.050 -1.1907 -0.5049  0.2787
  915MOL0     H23460   6.645   7.026   5.069  0.6213  0.2154 -1.2193
  915MOL0     H23461   6.574   7.148   4.973 -1.4417 -1.4427  1.7605
  915MOL0     H23462   6.812   7.111   4.919  0.8965 -3.2800  2.7590
  915MOL0     H23463   6.804   7.276   5.003  0.0818  0.4422  0.6325
  915MOL0     H23464   6.843   7.153   5.199 -2.3712  0.2774 -2.1735
  915MOL0     H23465   6.897   7.003   5.105 -3.0730 -0.6644  1.1561
  915MOL0     H23466   7.069   7.175   4.988 -2.7631  1.8454 -1.4785
  915MOL0     H23467   7.010   7.292   5.099  2.2809 -0.4028  0.6685
  915MOL0     H23468   7.207   7.216   5.193 -0.2134  0.6854 -0.2699
  915MOL0     H23469   7.087   7.132   5.284 -0.0404 -0.9225 -0.3785
  915MOL0     H23470   7.127   6.926   5.223 -0.8047  1.1898  0.1443
  915MOL0     H23471   7.131   6.966   5.052  2.2292 -0.0648 -0.4440
  915MOL0     H23472   7.375   7.042   5.077 -1.1291  0.8736 -1.0392
  915MOL0     H23473   7.352   6.994   5.254 -4.7803  0.8305  0.9959
  915MOL0     H23474   7.304   6.824   5.012  0.4015 -1.1022 -0.9566
  915MOL0     H23475   7.310   6.768   5.183  0.8623 -1.9486 -0.0841
  915MOL0     H23476   7.578   6.944   5.274  1.2688 -0.8215  1.4189
  915MOL0     H23477   7.905   6.927   5.164  2.3198 -0.1893  1.9112
  915MOL0     H23478   7.803   6.941   5.313 -1.8111  2.0196 -1.7567
  915MOL0     H23479   7.850   6.701   5.342 -1.2881  0.2913  0.0562
  915MOL0     H23480   8.001   6.787   5.361 -0.3831 -1.5517  1.2558
  915MOL0     H23481   8.094   6.690   5.184 -0.1821  1.3817 -0.0875
  915MOL0     H23482   7.966   6.704   5.076  1.9165  0.0277  0.0078
  915MOL0     H23483   8.047   6.458   5.158  0.6945  1.9934 -0.8573
  915MOL0     H23484   7.880   6.492   5.126 -0.4021  3.6119 -1.0817
  915MOL0     H23485   7.913   6.340   5.539 -1.1904 -1.5545  1.4215
  915MOL0     H23486   7.791   6.331   5.761 -0.8284  0.5080  1.1535
  915MOL0     H23487   7.634   6.251   5.748  0.5133 -1.2645 -0.2774
  915MOL0     H23488   7.782   6.175   5.678 -1.3138 -0.3070 -0.5278
  915MOL0     H23489   7.401   6.089   5.711 -0.6771 -1.7538 -0.8531
  915MOL0     H23490   7.190   5.964   5.779 -0.2233 -0.0774  2.2865
  915MOL0     H23491   6.761   6.083   5.812  1.1774 -1.6474  1.0365
  915MOL0     H23492   6.834   6.237   5.865  0.7137 -0.5654  0.6671
  915MOL0     H23493   6.882   6.309   5.630  0.3972  0.5251 -0.0118
  915MOL0     H23494   6.817   6.159   5.565  0.9873  0.3680 -0.8829
  915MOL0     H23495   6.646   6.354   5.553 -3.2886 -0.5912  0.2655
  915MOL0     H23496   6.667   6.370   5.727  1.9912 -0.6870  1.3142
  915MOL0     H23497   6.575   6.125   5.577  1.0428  1.6782 -1.4824
  915MOL0     H23498   6.538   6.161   5.753 -1.0640 -1.8465 -0.3938
  915MOL0     H23499   6.348   6.181   5.567 -0.9425 -0.3028  0.0370
  915MOL0     H23500   6.434   6.334   5.533 -0.5196  1.0969  0.9763
  915MOL0     H23501   6.344   6.268   5.809 -1.9414 -0.1417  0.3934
  915MOL0     H23502   6.370   6.428   5.735  0.9413 -0.0505 -1.0606
  915MOL0     H23503   6.134   6.252   5.639  0.8428  1.0559 -2.4992
  915MOL0     H23504   6.151   6.422   5.617  0.3576  1.2500  0.9087
  915MOL0     H23505   6.151   6.434   5.872  1.9889 -0.5278 -1.9845
  915MOL0     H23506   6.135   6.259   5.881 -0.9293  0.0702  1.7178
  915MOL0     H23507   7.004   6.356   5.823 -1.2601  0.4607 -0.9936
  915MOL0     H23508   7.203   6.466   5.750 -0.2302  0.5853  2.2998
  915MOL0     H23509   7.488   6.459   5.326  0.0350  0.0765  0.8167
  915MOL0     H23510   7.690   6.521   5.219  1.0112  1.8120  0.6063
  915MOL0     H23511   6.532   7.352   5.359  0.8104 -2.3119  0.1483
  915MOL0     H23512   6.293   7.450   5.383 -3.3184 -0.2218 -0.3183
  915MOL0     H23513   5.856   7.495   4.951  0.1539  3.0450  1.1986
  915MOL0     H23514   5.608   7.533   4.959 -0.9392  3.0277  1.5118
  915MOL0     H23515   5.406   7.512   5.362 -0.6251 -0.1112 -0.0785
  915MOL0     H23516   5.471   7.673   5.345 -0.7214 -0.6809  0.6837
  915MOL0     H23517   5.267   7.773   5.256 -1.4478  0.1439 -0.9071
  915MOL0     H23518   5.205   7.650   5.374  0.1635  1.7251 -0.3646
  915MOL0     H23519   5.192   7.489   5.197  1.8326 -0.8388 -0.2221
  915MOL0     H23520   5.245   7.604   5.075  1.2168 -0.4111  0.7799
  915MOL0     H23521   5.046   7.741   5.093 -0.9419 -1.6868 -3.2589
  915MOL0     H23522   5.002   7.685   5.248 -1.3945  2.3977 -1.1972
  915MOL0     H23523   4.835   7.407   4.984 -0.6692  0.7151 -1.1270
  915MOL0     H23524   5.632   7.480   5.384  1.6183  0.3159  0.2124
  915MOL0     H23525   5.859   7.402   5.375 -0.8022 -1.1083 -0.1061
  916MOL0     O23526   7.513   8.545   4.858  0.2612 -0.2622  0.1332
  916MOL0     C23527   7.449   8.470   4.934  0.1148 -0.1201  0.2460
  916MOL0     O23528   7.314   8.451   4.927  0.1295 -0.4515 -0.5579
  916MOL0     C23529   7.237   8.536   4.851 -0.1095 -0.4624 -0.8118
  916MOL0     C23530   7.131   8.481   4.784  0.2343  1.1026 -0.0128
  916MOL0     C23531   7.032   8.564   4.727  0.2583 -0.0226 -0.6392
  916MOL0     C23532   7.042   8.703   4.739 -0.1757  0.1349 -0.3250
  916MOL0     O23533   6.971   8.795   4.667  0.2775 -0.5038 -0.1232
  916MOL0     C23534   6.831   8.778   4.660 -0.6978  0.1837 -0.3816
  916MOL0     C23535   6.758   8.896   4.709  0.3460  0.0540 -0.3706
  916MOL0     C23536   6.612   8.874   4.697 -0.3470 -0.5070 -0.4130
  916MOL0     C23537   6.521   8.994   4.746 -1.0036  0.3614 -0.0285
  916MOL0     C23538   6.369   8.984   4.708 -0.3986  0.2024 -0.2495
  916MOL0     C23539   6.300   9.110   4.760 -0.3040 -0.4148 -0.9043
  916MOL0     C23540   6.320   9.237   4.674  0.1040 -0.4629 -1.1011
  916MOL0     C23541   6.254   9.228   4.542 -0.2728 -0.1228  0.5811
  916MOL0     N23542   6.108   9.245   4.556 -0.3172  0.0768  0.8751
  916MOL0     C23543   6.032   9.354   4.516 -0.0815 -0.4569  0.3718
  916MOL0     C23544   5.910   9.307   4.505  0.0290  0.1505 -0.4299
  916MOL0     C23545   5.786   9.382   4.475  0.2867  0.2741  0.1091
  916MOL0     C23546   5.748   9.512   4.556 -0.3456  0.7156  1.0243
  916MOL0     C23547   5.714   9.485   4.696  0.1129  0.5645 -0.6538
  916MOL0     C23548   5.631   9.596   4.753  0.5008  0.6992 -0.3125
  916MOL0     O23549   5.505   9.596   4.682  0.1932  0.2105  0.1821
  916MOL0     C23550   5.391   9.577   4.751 -0.8171  1.3014  0.3001
  916MOL0     C23551   5.292   9.516   4.680  0.0656  0.4873  0.2846
  916MOL0     C23552   5.167   9.487   4.736 -0.3451  0.8076 -0.3510
  916MOL0     C23553   5.071   9.405   4.645  0.0582 -0.7890 -0.7648
  916MOL0     C23554   5.141   9.528   4.869  0.1029  0.2490 -0.3907
  916MOL0     C23555   5.001   9.542   4.929 -0.1717  0.4487  0.0318
  916MOL0     O23556   4.985   9.611   5.038 -0.1802 -0.0043  0.7055
  916MOL0     C23557   4.854   9.637   5.073  0.5946  0.7403 -0.4183
  916MOL0     C23558   4.786   9.539   5.153  0.0611 -0.5557 -1.1604
  916MOL0     C23559   4.655   9.557   5.192 -0.4902 -1.0677 -0.7547
  916MOL0     C23560   4.580   9.677   5.163 -0.2878 -0.2478 -0.5693
  916MOL0     O23561   4.449   9.714   5.190  0.5027  0.1282  0.4815
  916MOL0     C23562   4.400   9.643   5.312 -0.7788 -0.7870 -0.0053
  916MOL0     C23563   4.263   9.714   5.333  0.2344  0.0267  0.3884
  916MOL0     C23564   4.162   9.658   5.221  0.5162 -0.0203 -0.2993
  916MOL0     C23565   4.025   9.719   5.222  0.5340  0.0099 -0.1476
  916MOL0     C23566   3.947   9.703   5.362  0.1046  0.0773  0.9730
  916MOL0     C23567   3.794   9.718   5.334 -0.2943 -0.7765  0.1247
  916MOL0     C23568   3.723   9.724   5.469 -0.2505  0.2301  0.4780
  916MOL0     C23569   3.575   9.755   5.464  0.8148  0.7009 -0.3574
  916MOL0    Cl23570   3.463   9.622   5.459 -0.1794 -0.4008  0.2675
  916MOL0     C23571   4.645   9.769   5.087  0.2007 -0.2400  1.0657
  916MOL0     C23572   4.779   9.753   5.035 -0.1955 -0.5735 -0.0518
  916MOL0     O23573   4.904   9.497   4.870 -0.4423  0.2963  0.5951
  916MOL0     C23574   5.247   9.600   4.939  0.0820 -0.9803  0.7532
  916MOL0     C23575   5.367   9.622   4.880 -0.5969  0.4596  0.4263
  916MOL0     N23576   5.916   9.172   4.525  0.5518 -0.0778 -0.5229
  916MOL0     N23577   6.034   9.135   4.556 -0.1911  0.0311 -0.5773
  916MOL0     C23578   7.153   8.748   4.809  0.4339 -1.1393  0.6233
  916MOL0     C23579   7.255   8.672   4.862  0.1355 -0.3747  0.7696
  916MOL0     C23580   7.528   8.394   5.032 -0.2753  0.0837 -0.0104
  916MOL0     C23581   7.658   8.417   5.056  0.8642 -0.6200  0.4976
  916MOL0     C23582   7.725   8.350   5.164 -0.9931 -0.9208 -0.6399
  916MOL0     C23583   7.661   8.243   5.234  0.1302 -0.0822  0.2238
  916MOL0     O23584   7.739   8.173   5.318 -0.2791  0.1098  0.0223
  916MOL0     C23585   7.691   8.104   5.436 -0.0404 -0.4574 -0.6962
  916MOL0     C23586   7.778   8.125   5.567  0.1261 -0.8502  0.3053
  916MOL0     C23587   7.919   8.053   5.573  0.8370  0.5555 -0.4233
  916MOL0     C23588   7.981   8.071   5.715  0.8453  0.1567  0.0474
  916MOL0     C23589   8.107   8.002   5.724 -0.0585 -0.2089  0.5346
  916MOL0     C23590   8.223   7.971   5.748 -0.2077 -1.0576  0.2126
  916MOL0     C23591   7.526   8.225   5.204  0.6602  0.2113 -0.0497
  916MOL0     C23592   7.457   8.293   5.105 -0.3939 -0.3402  1.0925
  916MOL0     H23593   7.116   8.374   4.779 -2.1340  1.3418  0.9869
  916MOL0     H23594   6.959   8.505   4.673  1.4510  1.6579 -4.4224
  916MOL0     H23595   6.802   8.759   4.557 -1.4140 -0.3324 -0.0942
  916MOL0     H23596   6.786   8.692   4.710  0.8641 -0.1355  0.5488
  916MOL0     H23597   6.796   8.928   4.806  2.3644 -3.7953  0.3165
  916MOL0     H23598   6.777   8.975   4.636  1.4844 -0.1022 -0.2628
  916MOL0     H23599   6.584   8.854   4.593 -0.3883 -1.8885 -0.1598
  916MOL0     H23600   6.588   8.795   4.769 -2.7111  0.0791 -0.4522
  916MOL0     H23601   6.520   8.978   4.854 -3.6212  0.0988 -0.0129
  916MOL0     H23602   6.571   9.089   4.725  0.0103  0.0250  0.7561
  916MOL0     H23603   6.353   8.962   4.602 -1.3266 -2.0014  0.2845
  916MOL0     H23604   6.329   8.891   4.749 -0.4517 -0.4677 -1.7620
  916MOL0     H23605   6.197   9.078   4.777  0.4235 -2.1892  0.4211
  916MOL0     H23606   6.341   9.121   4.861 -1.0173 -0.7242 -0.5745
  916MOL0     H23607   6.279   9.327   4.721  0.8889 -0.7748  0.2486
  916MOL0     H23608   6.426   9.262   4.658 -0.4852  0.3520 -4.3799
  916MOL0     H23609   6.277   9.131   4.499  0.7848 -0.5671  2.0897
  916MOL0     H23610   6.297   9.303   4.475 -0.8996 -1.4179 -1.3733
  916MOL0     H23611   6.063   9.458   4.509 -0.6758 -0.3738 -1.5436
  916MOL0     H23612   5.800   9.425   4.376  1.9302  0.8935  0.5671
  916MOL0     H23613   5.702   9.312   4.481 -1.4006  2.2376  0.1781
  916MOL0     H23614   5.657   9.547   4.508  1.2647  1.9753 -1.2978
  916MOL0     H23615   5.833   9.579   4.537  1.8182 -1.9581  0.6875
  916MOL0     H23616   5.812   9.489   4.745  1.3587  1.1060 -3.0609
  916MOL0     H23617   5.679   9.382   4.706 -0.9499  1.0968  1.7322
  916MOL0     H23618   5.690   9.687   4.743 -0.3078  1.8868  3.7752
  916MOL0     H23619   5.620   9.576   4.860 -1.0870  1.4255 -0.3099
  916MOL0     H23620   5.315   9.476   4.582  1.3917 -0.9111  1.1330
  916MOL0     H23621   5.130   9.343   4.577 -0.4236 -0.1682 -1.7715
  916MOL0     H23622   4.995   9.351   4.703 -1.7773  1.9057 -0.4960
  916MOL0     H23623   5.012   9.469   4.579  0.2581  1.5101  1.1749
  916MOL0     H23624   4.832   9.445   5.183  2.6719  1.1470  0.6474
  916MOL0     H23625   4.597   9.478   5.240  0.2033 -1.0445  0.1551
  916MOL0     H23626   4.383   9.537   5.290  0.2614 -1.2385  1.2095
  916MOL0     H23627   4.470   9.660   5.395  1.5128 -1.0255 -1.8062
  916MOL0     H23628   4.233   9.695   5.436 -0.5451  0.3253  0.2260
  916MOL0     H23629   4.272   9.822   5.320 -0.8347  0.0166 -0.6931
  916MOL0     H23630   4.143   9.555   5.255 -1.6025  0.8791  1.5039
  916MOL0     H23631   4.190   9.674   5.117 -4.3122  1.9291 -1.5685
  916MOL0     H23632   4.032   9.826   5.199  3.1518  0.1270  0.8733
  916MOL0     H23633   3.974   9.663   5.144  2.9947 -0.3498 -1.6256
  916MOL0     H23634   3.976   9.783   5.431 -0.6026  1.5396 -0.3575
  916MOL0     H23635   3.966   9.608   5.412  1.1674 -0.1268  0.2130
  916MOL0     H23636   3.770   9.806   5.274 -1.8635 -0.3536  1.3199
  916MOL0     H23637   3.756   9.628   5.284 -1.2302 -0.3091 -0.0122
  916MOL0     H23638   3.769   9.799   5.533 -1.3614 -0.0628  1.6508
  916MOL0     H23639   3.749   9.631   5.520  3.9839  1.3732  0.8252
  916MOL0     H23640   3.561   9.819   5.377  0.4921  2.3185  0.8432
  916MOL0     H23641   3.551   9.822   5.547  0.5252  2.9054 -2.1379
  916MOL0     H23642   4.592   9.855   5.048 -0.0998 -1.1803 -0.6939
  916MOL0     H23643   4.835   9.832   4.985  0.4988  0.1558  1.7983
  916MOL0     H23644   5.228   9.636   5.040  1.4387  0.3814  0.5537
  916MOL0     H23645   5.439   9.681   4.936 -1.4313 -0.1956  2.2767
  916MOL0     H23646   7.170   8.855   4.820 -0.3891 -1.0399  1.0304
  916MOL0     H23647   7.338   8.713   4.918 -0.7608  2.6810  0.0495
  916MOL0     H23648   7.711   8.490   4.995  0.7913 -0.8431  0.1637
  916MOL0     H23649   7.825   8.373   5.198 -0.9765 -3.1960  1.0943
  916MOL0     H23650   7.586   8.130   5.448 -1.2348 -4.5956 -0.6309
  916MOL0     H23651   7.679   7.997   5.418 -1.4937  0.0524 -3.2528
  916MOL0     H23652   7.731   8.078   5.654  1.4772 -1.6729  0.6111
  916MOL0     H23653   7.778   8.231   5.593 -3.7028 -1.5495  4.5868
  916MOL0     H23654   7.980   8.087   5.489  3.5085 -0.5957  0.9523
  916MOL0     H23655   7.906   7.946   5.561  3.7970  0.1055 -0.2856
  916MOL0     H23656   7.923   8.025   5.795  2.4877 -0.1556  1.0973
  916MOL0     H23657   7.996   8.176   5.744  2.1236 -0.2268  0.8342
  916MOL0     H23658   8.326   7.944   5.762  0.3733  0.6710 -0.4725
  916MOL0     H23659   7.468   8.146   5.252  0.9483 -1.0457 -1.6807
  916MOL0     H23660   7.355   8.261   5.087  0.3354 -3.6020  2.1109
  917MOL0     O23661   2.909   7.035   1.276  0.5809  0.2651  0.8177
  917MOL0     C23662   2.969   7.060   1.175  0.3792  0.8853  0.8539
  917MOL0     O23663   2.916   7.108   1.062 -0.6732 -0.0599 -0.4960
  917MOL0     C23664   2.783   7.149   1.035 -0.5740  1.2089  0.0804
  917MOL0     C23665   2.676   7.139   1.120 -0.2450 -0.4537  0.7414
  917MOL0     C23666   2.549   7.179   1.080 -0.0428  0.6386 -0.8305
  917MOL0     C23667   2.524   7.221   0.951 -0.4451  0.1283  0.2961
  917MOL0     O23668   2.391   7.244   0.919 -0.9012  0.3031 -0.3807
  917MOL0     C23669   2.338   7.362   0.850 -1.6613 -0.3468  0.0443
  917MOL0     C23670   2.218   7.407   0.922 -0.2469 -0.3461 -0.0030
  917MOL0     C23671   2.101   7.306   0.890 -1.0470  0.3723  0.2961
  917MOL0     C23672   1.994   7.302   1.002  0.5621 -0.1178  0.6978
  917MOL0     C23673   1.855   7.280   0.939  0.0347 -0.5202 -0.7095
  917MOL0     C23674   1.839   7.159   0.862  0.9739 -0.3422  0.8173
  917MOL0     C23675   1.694   7.144   0.810 -0.1393  0.2671 -0.8044
  917MOL0     C23676   1.688   7.034   0.699 -0.7081  0.4064 -0.0211
  917MOL0     N23677   1.549   7.016   0.658 -0.4273 -0.7434 -0.0707
  917MOL0     C23678   1.463   6.921   0.707 -0.4908 -0.5022  0.4227
  917MOL0     C23679   1.349   6.931   0.635 -0.6005  0.1102 -0.2694
  917MOL0     C23680   1.232   6.848   0.668  0.1923  0.5568  1.0098
  917MOL0     C23681   1.120   6.952   0.705 -0.7414  0.9743  0.3717
  917MOL0     C23682   0.990   6.886   0.741  0.8581 -0.2734 -0.2858
  917MOL0     C23683   0.910   6.826   0.617 -1.1362 -0.7271 -0.6609
  917MOL0     O23684   0.839   6.928   0.556 -0.2766 -0.3683 -0.1991
  917MOL0     C23685   0.718   6.898   0.496  0.4690  0.2644  0.5006
  917MOL0     C23686   0.699   6.776   0.434 -0.8981 -0.7205 -0.3482
  917MOL0     C23687   0.581   6.745   0.370 -0.1783  0.0560 -0.1174
  917MOL0     C23688   0.586   6.614   0.299 -0.1031  0.3508  0.5641
  917MOL0     C23689   0.475   6.841   0.363  0.8397  0.8423 -0.3607
  917MOL0     C23690   0.343   6.824   0.288  0.2148  0.5409  1.2464
  917MOL0     O23691   0.311   6.711   0.221 -0.0842 -0.4853 -0.1979
  917MOL0     C23692   0.203   6.719   0.138 -0.0664 -0.6633  0.2288
  917MOL0     C23693   0.243   6.710   0.002  0.2556  0.0690  0.6499
  917MOL0     C23694   0.148   6.697  -0.097  0.6000 -0.5005  0.3777
  917MOL0     C23695   0.013   6.706  -0.064  0.5942  0.2331 -0.5521
  917MOL0     O23696  -0.096   6.707  -0.150 -0.2224  0.0523  1.0809
  917MOL0     C23697  -0.114   6.594  -0.234 -0.1608 -0.3518  0.2818
  917MOL0     C23698  -0.188   6.640  -0.346  0.0075 -0.1320  0.0887
  917MOL0     C23699  -0.091   6.714  -0.449  0.8773 -0.4253  0.3985
  917MOL0     C23700  -0.008   6.612  -0.537 -0.4130  0.0672  0.6721
  917MOL0     C23701   0.097   6.675  -0.638 -0.4559 -0.0396 -0.0327
  917MOL0     C23702   0.216   6.732  -0.571 -0.2532  0.5106  0.3727
  917MOL0     C23703   0.303   6.825  -0.658 -0.8038  0.4979 -0.9870
  917MOL0     C23704   0.360   6.733  -0.760 -0.1819 -0.3331 -0.6100
  917MOL0    Cl23705   0.508   6.818  -0.832  0.0826 -0.3082  0.1811
  917MOL0     C23706  -0.024   6.710   0.070  0.8890  0.2771  0.2775
  917MOL0     C23707   0.065   6.727   0.165 -0.4395  0.4481  0.5084
  917MOL0     O23708   0.274   6.925   0.295 -0.4006  0.1523 -0.0821
  917MOL0     C23709   0.493   6.960   0.438  0.4759 -0.9747  0.4713
  917MOL0     C23710   0.613   6.984   0.497 -0.7000 -0.0790 -0.2793
  917MOL0     N23711   1.360   7.024   0.535  0.2694  0.3204  0.1385
  917MOL0     N23712   1.480   7.077   0.558 -0.2000 -0.5119 -0.3695
  917MOL0     C23713   2.634   7.228   0.863  0.2364  0.5891 -0.4486
  917MOL0     C23714   2.759   7.192   0.902 -1.1126 -0.3371  0.1922
  917MOL0     C23715   3.124   7.065   1.182  0.2003  0.3181 -0.3354
  917MOL0     C23716   3.199   7.047   1.061  0.0901 -0.4208 -0.3006
  917MOL0     C23717   3.342   7.065   1.058  0.3175  0.6106 -0.1696
  917MOL0     C23718   3.411   7.086   1.180 -0.8286 -0.2522  0.6391
  917MOL0     O23719   3.549   7.114   1.170 -0.2866  0.6592 -1.5115
  917MOL0     C23720   3.625   7.091   1.296 -0.0685  0.3505  0.3377
  917MOL0     C23721   3.765   7.069   1.243  0.4667 -0.5791 -0.1338
  917MOL0     C23722   3.832   7.205   1.212 -0.1794 -0.4719 -0.1184
  917MOL0     C23723   3.965   7.182   1.145 -0.3598 -0.3423  0.3507
  917MOL0     C23724   4.012   7.312   1.086 -0.0183  0.2408 -0.1840
  917MOL0     C23725   4.055   7.415   1.050 -0.1083  0.3086  0.4509
  917MOL0     C23726   3.329   7.086   1.296 -0.0327 -0.4278 -0.2097
  917MOL0     C23727   3.187   7.082   1.301 -0.7479  0.1000  0.3392
  917MOL0     H23728   2.694   7.131   1.226  1.5219  1.8972  0.7139
  917MOL0     H23729   2.475   7.173   1.158 -0.1565 -1.6971 -1.0677
  917MOL0     H23730   2.409   7.444   0.854  1.4294 -2.8563  0.1524
  917MOL0     H23731   2.327   7.324   0.748 -1.9174  0.3662 -0.2050
  917MOL0     H23732   2.243   7.384   1.026  1.3838 -2.7853 -0.8434
  917MOL0     H23733   2.185   7.509   0.898  0.2808 -0.4467 -1.2082
  917MOL0     H23734   2.069   7.340   0.791  1.7777  3.0341  0.1791
  917MOL0     H23735   2.142   7.204   0.890 -0.1523  0.6133 -3.0191
  917MOL0     H23736   2.018   7.218   1.067 -2.4932 -0.6718  1.2402
  917MOL0     H23737   1.986   7.401   1.047 -1.5713 -0.6005  1.4896
  917MOL0     H23738   1.775   7.284   1.014  1.1165  0.2501  0.4595
  917MOL0     H23739   1.840   7.374   0.885 -2.2011  1.1839  2.4978
  917MOL0     H23740   1.911   7.161   0.780  0.5982  0.4043  0.4977
  917MOL0     H23741   1.857   7.074   0.928 -1.6165 -3.2511 -1.9243
  917MOL0     H23742   1.622   7.119   0.888 -0.4217 -1.6805 -1.6243
  917MOL0     H23743   1.666   7.239   0.762  1.4372  0.4597 -1.3987
  917MOL0     H23744   1.742   6.949   0.741 -0.0945  1.5532  1.6302
  917MOL0     H23745   1.744   7.058   0.608 -0.3604 -2.1394 -0.5556
  917MOL0     H23746   1.472   6.846   0.785  0.1975 -1.8455 -0.9025
  917MOL0     H23747   1.215   6.769   0.594  0.7821 -3.1223  4.4787
  917MOL0     H23748   1.256   6.796   0.761  1.8714  1.9193  1.3879
  917MOL0     H23749   1.097   7.026   0.628 -2.4867  1.5042  1.3517
  917MOL0     H23750   1.136   7.016   0.792  0.6875 -2.4879  2.8972
  917MOL0     H23751   0.933   6.962   0.795  2.5518 -0.1085  1.3579
  917MOL0     H23752   1.006   6.801   0.809 -1.7470 -0.1729  0.5543
  917MOL0     H23753   0.843   6.744   0.647 -0.8765 -0.1692  1.6230
  917MOL0     H23754   0.989   6.782   0.556 -0.2970 -1.7504  1.0918
  917MOL0     H23755   0.786   6.711   0.429 -0.7830 -0.5007 -1.2669
  917MOL0     H23756   0.661   6.549   0.344 -0.4087 -0.8995 -0.6335
  917MOL0     H23757   0.492   6.557   0.299  0.7636 -1.6881 -4.8701
  917MOL0     H23758   0.616   6.627   0.194 -0.5029 -0.3253  0.3578
  917MOL0     H23759   0.350   6.707  -0.011  0.8745 -0.5818  4.6238
  917MOL0     H23760   0.183   6.673  -0.197 -0.3407  1.4118 -0.4727
  917MOL0     H23761  -0.024   6.542  -0.268 -1.0794 -2.5330  0.9943
  917MOL0     H23762  -0.178   6.529  -0.173 -0.1318  0.5869  1.3477
  917MOL0     H23763  -0.242   6.556  -0.390 -2.6216  0.1616  2.4425
  917MOL0     H23764  -0.264   6.710  -0.310 -0.4197 -0.3817 -0.3232
  917MOL0     H23765  -0.032   6.792  -0.401 -1.4122  0.4365  1.9880
  917MOL0     H23766  -0.162   6.767  -0.513 -0.2542 -1.3504  0.8475
  917MOL0     H23767   0.049   6.557  -0.462  0.0559 -0.1386  0.1702
  917MOL0     H23768  -0.077   6.545  -0.590 -0.1244  1.8832 -2.2456
  917MOL0     H23769   0.051   6.757  -0.693  0.0035  0.0551 -0.2764
  917MOL0     H23770   0.129   6.601  -0.712 -0.5642  0.8082 -0.9405
  917MOL0     H23771   0.193   6.798  -0.487  1.7460  1.0625  0.5425
  917MOL0     H23772   0.277   6.648  -0.538  1.3041  0.6701 -1.8430
  917MOL0     H23773   0.383   6.873  -0.601 -0.6292  0.8386 -1.5179
  917MOL0     H23774   0.249   6.909  -0.703 -0.1350  0.8980 -1.0602
  917MOL0     H23775   0.277   6.706  -0.826 -1.0842 -2.9613  1.4650
  917MOL0     H23776   0.382   6.633  -0.723  1.6902  0.3098  0.1725
  917MOL0     H23777  -0.128   6.706   0.097  0.5927  2.6715 -0.2490
  917MOL0     H23778   0.038   6.744   0.269 -2.2042 -0.3796  0.2304
  917MOL0     H23779   0.418   7.038   0.437  0.4109 -0.9536  2.6866
  917MOL0     H23780   0.630   7.081   0.545 -0.4449  0.2501 -1.0197
  917MOL0     H23781   2.610   7.252   0.760 -1.3161  2.4426  0.2750
  917MOL0     H23782   2.841   7.198   0.831 -2.6655  1.0783 -1.5874
  917MOL0     H23783   3.136   7.028   0.975 -1.8686  0.9790  0.7513
  917MOL0     H23784   3.398   7.066   0.965 -2.5514 -0.0023 -2.0363
  917MOL0     H23785   3.624   7.183   1.356 -1.0594  0.2729  0.4661
  917MOL0     H23786   3.591   7.006   1.356  0.7492 -0.9487 -0.9790
  917MOL0     H23787   3.753   7.003   1.156 -1.9347  0.8066 -0.9421
  917MOL0     H23788   3.823   7.016   1.319 -3.1248 -3.8884  0.5848
  917MOL0     H23789   3.845   7.266   1.302  1.7965 -0.8465 -0.0840
  917MOL0     H23790   3.760   7.261   1.152 -1.8895 -0.3732  1.9186
  917MOL0     H23791   3.964   7.111   1.062  0.6732 -0.0947  0.1141
  917MOL0     H23792   4.036   7.137   1.214  1.2090  1.6842  0.1373
  917MOL0     H23793   4.083   7.517   1.038 -1.0059  0.6319  1.0442
  917MOL0     H23794   3.384   7.100   1.389 -0.4899 -4.2605  0.7906
  917MOL0     H23795   3.133   7.090   1.395 -1.2764 -4.1834  0.5798
  918MOL0     O23796   0.429   7.975   7.309  0.4183 -0.3023  0.0770
  918MOL0     C23797   0.492   7.972   7.417 -0.8923  0.1924 -0.8260
  918MOL0     O23798   0.435   7.986   7.539  0.2400  0.5340 -0.7165
  918MOL0     C23799   0.298   8.007   7.555  0.2204 -0.0160  0.5663
  918MOL0     C23800   0.228   7.902   7.602 -1.0241  0.4116 -0.3912
  918MOL0     C23801   0.097   7.915   7.622 -0.3832 -0.2425 -0.4744
  918MOL0     C23802   0.021   8.030   7.577  0.6436 -0.0120 -0.1695
  918MOL0     O23803  -0.125   8.031   7.581 -0.2553 -0.6736  0.2436
  918MOL0     C23804  -0.178   8.018   7.716 -1.7928  0.5550 -0.2126
  918MOL0     C23805  -0.312   8.088   7.722  0.0922  0.8718  0.7379
  918MOL0     C23806  -0.411   8.010   7.634  0.6995  0.0366 -0.5578
  918MOL0     C23807  -0.547   8.034   7.693  0.2691  0.2516  0.6709
  918MOL0     C23808  -0.644   7.954   7.605  0.0056  0.4854  0.2184
  918MOL0     C23809  -0.785   7.988   7.634 -0.1790 -0.0779  0.2079
  918MOL0     C23810  -0.873   7.892   7.548  0.3035 -0.1078  0.5586
  918MOL0     C23811  -1.016   7.906   7.603  0.5906  0.0790  0.8378
  918MOL0     N23812  -1.100   8.022   7.567  0.6631  0.2925  0.4234
  918MOL0     C23813  -1.191   8.036   7.457 -0.6867  0.0506  0.3985
  918MOL0     C23814  -1.228   8.163   7.469 -0.2799 -0.1046  0.0745
  918MOL0     C23815  -1.323   8.222   7.370  0.3573  0.0167 -0.3816
  918MOL0     C23816  -1.468   8.237   7.419 -0.9134 -0.2386  0.3143
  918MOL0     C23817  -1.527   8.384   7.415 -0.3562  0.3300  0.0053
  918MOL0     C23818  -1.680   8.390   7.386 -0.5623  0.1999 -0.1689
  918MOL0     O23819  -1.712   8.531   7.397  0.8124  0.5382  0.2041
  918MOL0     C23820  -1.842   8.566   7.365  0.7127  0.1690  0.5881
  918MOL0     C23821  -1.947   8.477   7.342 -0.2634  0.1500 -0.4939
  918MOL0     C23822  -2.077   8.515   7.304 -0.0579 -0.0914 -0.4772
  918MOL0     C23823  -2.167   8.391   7.267 -1.1330 -0.2714 -0.5107
  918MOL0     C23824  -2.112   8.655   7.291  0.0176  0.6208  0.7791
  918MOL0     C23825  -2.242   8.706   7.273  0.4204 -0.4480  0.1427
  918MOL0     O23826  -2.251   8.839   7.262  0.7128 -0.6993  0.5304
  918MOL0     C23827  -2.382   8.868   7.252  0.4548 -0.3104  0.1575
  918MOL0     C23828  -2.471   8.868   7.360 -1.0815 -0.0611  0.0689
  918MOL0     C23829  -2.606   8.905   7.358 -0.8116  0.4186  0.1478
  918MOL0     C23830  -2.658   8.955   7.229  0.5413  0.9673 -0.5361
  918MOL0     O23831  -2.784   9.010   7.212  0.2132 -0.2133  0.7882
  918MOL0     C23832  -2.869   9.031   7.320 -0.1212 -0.1575  0.1837
  918MOL0     C23833  -2.975   8.918   7.346 -0.2744  0.8051 -1.1576
  918MOL0     C23834  -3.086   8.914   7.239 -0.0477  0.4298 -0.1994
  918MOL0     C23835  -3.049   8.791   7.137  0.5707  1.1194  0.0728
  918MOL0     C23836  -3.161   8.766   7.034 -0.1009 -0.0379 -0.7136
  918MOL0     C23837  -3.125   8.654   6.941  0.1662 -0.3895 -0.3780
  918MOL0     C23838  -3.122   8.514   7.017  0.4051  0.0326  0.1706
  918MOL0     C23839  -3.112   8.376   6.942 -0.7449  0.4892  0.0008
  918MOL0    Cl23840  -3.265   8.351   6.858 -0.3161 -0.5295  0.5818
  918MOL0     C23841  -2.568   8.970   7.123  0.5610 -0.1548  0.8155
  918MOL0     C23842  -2.438   8.920   7.126 -0.1026  0.3792 -0.0697
  918MOL0     O23843  -2.332   8.621   7.267 -0.8498  0.5540 -0.3467
  918MOL0     C23844  -2.006   8.738   7.316 -0.4395 -0.2244  0.6888
  918MOL0     C23845  -1.878   8.699   7.357  0.4600  0.5450 -0.5741
  918MOL0     N23846  -1.172   8.228   7.571  0.6791 -0.5164 -0.3035
  918MOL0     N23847  -1.097   8.145   7.629 -1.0371 -0.0441 -0.0317
  918MOL0     C23848   0.087   8.128   7.513 -0.9662  0.3756 -0.1040
  918MOL0     C23849   0.230   8.119   7.504 -0.0003 -0.4433 -0.3720
  918MOL0     C23850   0.631   7.940   7.404 -0.5666  0.1861  0.0632
  918MOL0     C23851   0.695   7.885   7.520 -0.3266  0.7335 -0.0501
  918MOL0     C23852   0.826   7.848   7.512 -0.2355 -0.1878  0.6966
  918MOL0     C23853   0.892   7.836   7.390  0.0515 -0.5736 -0.2114
  918MOL0     O23854   1.015   7.781   7.402 -0.7451 -0.3181  0.0430
  918MOL0     C23855   1.014   7.648   7.341 -0.1330  0.1817 -0.4230
  918MOL0     C23856   1.149   7.626   7.267 -0.3468 -0.3836  0.7266
  918MOL0     C23857   1.271   7.656   7.354 -0.0480  0.2082  0.7256
  918MOL0     C23858   1.393   7.621   7.264  0.5007 -0.2184 -0.3415
  918MOL0     C23859   1.509   7.640   7.344  0.5600  0.1941  0.2574
  918MOL0     C23860   1.600   7.665   7.415  0.5113 -0.3225 -0.3270
  918MOL0     C23861   0.824   7.875   7.276  0.5767  0.4711 -0.1762
  918MOL0     C23862   0.698   7.932   7.283  0.8202 -0.3942 -1.0960
  918MOL0     H23863   0.283   7.811   7.622 -3.1367 -0.3553  2.6445
  918MOL0     H23864   0.045   7.833   7.670 -1.3454 -0.2552 -1.5042
  918MOL0     H23865  -0.181   7.911   7.738 -1.4213  0.8996  1.6941
  918MOL0     H23866  -0.110   8.073   7.781  0.6470  1.0193 -2.9354
  918MOL0     H23867  -0.351   8.086   7.824 -0.5680  0.0127  0.4798
  918MOL0     H23868  -0.301   8.191   7.687 -1.1125 -0.0092 -2.5289
  918MOL0     H23869  -0.414   8.051   7.533 -3.4047 -0.3195 -0.7312
  918MOL0     H23870  -0.388   7.903   7.636 -2.4200 -0.7213 -0.2937
  918MOL0     H23871  -0.555   8.010   7.800  0.1169  2.4936  1.2145
  918MOL0     H23872  -0.574   8.139   7.678  3.8077  1.2609  0.2885
  918MOL0     H23873  -0.628   7.970   7.498  1.0321 -6.6316 -1.1736
  918MOL0     H23874  -0.626   7.847   7.609  3.6603  0.7571 -3.1783
  918MOL0     H23875  -0.806   7.975   7.740  1.8634  1.1544  0.8149
  918MOL0     H23876  -0.815   8.091   7.613 -1.7832 -0.7633 -1.0562
  918MOL0     H23877  -0.878   7.920   7.442 -0.2466  2.8654  1.2988
  918MOL0     H23878  -0.856   7.784   7.556 -4.1837 -0.9219  1.6680
  918MOL0     H23879  -1.017   7.903   7.712 -1.0696  0.8901  0.8688
  918MOL0     H23880  -1.073   7.819   7.570 -0.4816  0.1912  2.3081
  918MOL0     H23881  -1.204   7.960   7.381  0.8875 -1.9067  1.9784
  918MOL0     H23882  -1.297   8.323   7.336 -1.1520  1.4257  2.2883
  918MOL0     H23883  -1.331   8.159   7.281  0.7052  1.3595 -1.3914
  918MOL0     H23884  -1.475   8.206   7.524  0.2497  1.9405  1.0984
  918MOL0     H23885  -1.532   8.178   7.352 -3.1243  1.2323  1.0154
  918MOL0     H23886  -1.482   8.443   7.334  0.4578 -1.6429 -1.0458
  918MOL0     H23887  -1.492   8.436   7.505  0.8410 -1.5789  0.6947
  918MOL0     H23888  -1.732   8.319   7.452  0.2984  1.6990  2.2547
  918MOL0     H23889  -1.706   8.352   7.287 -0.4875 -1.5604  0.4481
  918MOL0     H23890  -1.941   8.372   7.369 -0.9201  0.3747  0.5961
  918MOL0     H23891  -2.225   8.369   7.357  1.6826 -0.4385  1.4045
  918MOL0     H23892  -2.243   8.418   7.193 -0.5747  2.2486 -0.2681
  918MOL0     H23893  -2.105   8.308   7.232 -1.8806  0.0120 -2.6786
  918MOL0     H23894  -2.428   8.822   7.449  1.1402 -1.2806 -1.5431
  918MOL0     H23895  -2.668   8.895   7.447  0.4716 -0.8308  0.9379
  918MOL0     H23896  -2.810   9.050   7.410  0.7264 -1.2977 -0.1056
  918MOL0     H23897  -2.933   9.119   7.308 -0.2741  0.1797  2.9495
  918MOL0     H23898  -2.926   8.820   7.349 -1.2560  0.3108 -0.6432
  918MOL0     H23899  -3.018   8.932   7.446  0.8433  0.9416 -0.6798
  918MOL0     H23900  -3.091   9.014   7.195 -0.1071  0.9311  0.9051
  918MOL0     H23901  -3.182   8.894   7.287  1.1848 -2.8986  1.2286
  918MOL0     H23902  -2.958   8.805   7.079 -0.1295 -1.8122 -1.9445
  918MOL0     H23903  -3.041   8.705   7.204 -0.2344  1.4807  0.6587
  918MOL0     H23904  -3.178   8.860   6.980  0.8532  1.1255  0.9039
  918MOL0     H23905  -3.248   8.731   7.092  0.5219  0.2752  0.4549
  918MOL0     H23906  -3.197   8.648   6.858 -1.0331 -1.9884  0.7034
  918MOL0     H23907  -3.025   8.676   6.904 -0.7728 -0.6647 -3.4188
  918MOL0     H23908  -3.217   8.505   7.071 -0.1221 -1.5800 -0.9470
  918MOL0     H23909  -3.043   8.500   7.091  1.7448 -1.7239 -1.4880
  918MOL0     H23910  -3.083   8.297   7.012  0.3852 -1.1479 -2.1894
  918MOL0     H23911  -3.034   8.374   6.866 -1.3947 -2.5192 -0.7162
  918MOL0     H23912  -2.595   9.014   7.027  0.8962  1.2768  1.3475
  918MOL0     H23913  -2.374   8.926   7.038 -0.7949  0.7494 -0.5553
  918MOL0     H23914  -2.028   8.843   7.325 -0.1838 -0.1318  0.2817
  918MOL0     H23915  -1.807   8.771   7.395 -0.1661  0.2400  1.2944
  918MOL0     H23916   0.034   8.208   7.462 -1.1494  2.1529  2.6610
  918MOL0     H23917   0.279   8.204   7.459  1.4844  0.0789  2.0548
  918MOL0     H23918   0.638   7.878   7.611 -1.4955  1.3696 -0.7195
  918MOL0     H23919   0.874   7.826   7.607 -1.2791  3.2939  2.1632
  918MOL0     H23920   0.997   7.573   7.418  3.1632 -0.7385 -0.4411
  918MOL0     H23921   0.937   7.645   7.263  0.0331  0.0331 -0.5813
  918MOL0     H23922   1.147   7.693   7.181  0.1026 -1.3212 -0.0355
  918MOL0     H23923   1.151   7.522   7.234  0.0521  0.1629 -1.0635
  918MOL0     H23924   1.266   7.595   7.444 -0.0869  1.4746  1.6128
  918MOL0     H23925   1.275   7.762   7.383  0.6219  0.6143 -0.7319
  918MOL0     H23926   1.401   7.689   7.179  0.4990  0.0990 -0.0885
  918MOL0     H23927   1.381   7.518   7.227 -0.6802 -0.1225 -0.2569
  918MOL0     H23928   1.690   7.693   7.467  2.4624 -0.3060 -3.4228
  918MOL0     H23929   0.869   7.860   7.178 -0.0312 -2.2536 -0.1169
  918MOL0     H23930   0.662   7.980   7.192 -0.9286  0.5735  0.0412
  919MOL0     O23931   4.998   6.595   0.466 -0.7611  0.1436 -0.3094
  919MOL0     C23932   5.051   6.542   0.366  0.0699 -0.1789  0.0968
  919MOL0     O23933   4.988   6.470   0.275 -0.4454  0.2443  0.4438
  919MOL0     C23934   4.856   6.458   0.284  0.5750  0.3891  0.4937
  919MOL0     C23935   4.790   6.361   0.362  0.7041 -0.1645 -0.2441
  919MOL0     C23936   4.649   6.370   0.384  0.5263  1.0192 -0.2993
  919MOL0     C23937   4.571   6.469   0.328 -0.6940  1.1745  0.6529
  919MOL0     O23938   4.430   6.475   0.345 -0.1131  0.0420  0.0843
  919MOL0     C23939   4.358   6.350   0.343  0.0222 -0.0982 -0.3222
  919MOL0     C23940   4.212   6.365   0.373 -0.1288 -0.4019  0.0329
  919MOL0     C23941   4.156   6.231   0.401 -0.0135  0.7508 -0.5306
  919MOL0     C23942   4.009   6.209   0.462  0.3815 -0.1778  0.0190
  919MOL0     C23943   3.998   6.065   0.519 -0.3711  0.0440  0.9257
  919MOL0     C23944   3.857   6.024   0.541 -0.1367 -0.7430 -0.0023
  919MOL0     C23945   3.850   5.875   0.589  0.1965  0.0665 -1.1716
  919MOL0     C23946   3.726   5.794   0.568  0.3718  0.1957 -0.0613
  919MOL0     N23947   3.600   5.865   0.606  0.7253 -0.7386  0.7298
  919MOL0     C23948   3.535   5.855   0.724  0.1140  0.7931 -0.4871
  919MOL0     C23949   3.431   5.939   0.708  0.2381 -0.3164 -0.5869
  919MOL0     C23950   3.317   5.930   0.808  0.0515 -0.8527  0.4354
  919MOL0     C23951   3.340   6.040   0.908  0.2961  0.0276 -0.9018
  919MOL0     C23952   3.259   6.019   1.042 -0.6927  0.6657  0.5012
  919MOL0     C23953   3.109   6.057   1.027 -0.6553 -0.0773 -0.4676
  919MOL0     O23954   3.063   6.074   1.167 -0.0714 -0.4876  0.7273
  919MOL0     C23955   2.945   6.138   1.193 -0.2916 -0.5789 -0.1962
  919MOL0     C23956   2.918   6.185   1.316  0.9296  0.1172 -0.0745
  919MOL0     C23957   2.797   6.247   1.346  0.2172 -0.1216 -0.0394
  919MOL0     C23958   2.783   6.316   1.488 -0.1286  0.0558  1.0684
  919MOL0     C23959   2.698   6.265   1.246  0.9448 -0.1915  0.5066
  919MOL0     C23960   2.561   6.325   1.264  0.1572  0.4656  0.1633
  919MOL0     O23961   2.512   6.400   1.164 -0.3881  0.3807  0.0780
  919MOL0     C23962   2.395   6.458   1.177 -0.8835  0.3935 -0.5579
  919MOL0     C23963   2.383   6.573   1.247 -0.5682 -0.6784  0.0528
  919MOL0     C23964   2.253   6.626   1.265 -0.5534 -0.6748  0.1151
  919MOL0     C23965   2.144   6.566   1.215  0.7988 -0.1596  0.0806
  919MOL0     O23966   2.023   6.625   1.228 -0.0109 -0.3224 -0.0889
  919MOL0     C23967   1.902   6.551   1.220  0.9295 -0.5549 -1.0922
  919MOL0     C23968   1.803   6.635   1.300 -0.1455  0.2846 -0.4073
  919MOL0     C23969   1.733   6.730   1.197 -0.0528 -0.3502 -0.0528
  919MOL0     C23970   1.602   6.795   1.249 -0.5813  0.9783  0.6202
  919MOL0     C23971   1.518   6.855   1.140  0.7936  0.6449 -0.3929
  919MOL0     C23972   1.381   6.912   1.184 -0.3501 -1.2593  0.2425
  919MOL0     C23973   1.415   7.024   1.294  0.6760 -0.3135 -0.2966
  919MOL0     C23974   1.295   7.115   1.300  0.8639 -0.3393  0.8556
  919MOL0    Cl23975   1.148   7.001   1.342 -0.1707  0.3504  0.3114
  919MOL0     C23976   2.165   6.456   1.133 -0.9294 -0.1171  0.4922
  919MOL0     C23977   2.292   6.395   1.125 -0.6050 -0.4517 -0.6874
  919MOL0     O23978   2.506   6.307   1.372  0.5581  0.0515 -0.0522
  919MOL0     C23979   2.730   6.211   1.124 -0.7616  0.8564  1.3247
  919MOL0     C23980   2.851   6.145   1.091  0.0382  0.7553 -0.2582
  919MOL0     N23981   3.428   5.994   0.581 -0.4667 -0.5615 -0.0587
  919MOL0     N23982   3.544   5.960   0.532  1.2340  1.0217  0.3402
  919MOL0     C23983   4.639   6.565   0.243  0.0314  0.3714 -0.4937
  919MOL0     C23984   4.775   6.556   0.229 -0.3667 -0.1138 -0.6070
  919MOL0     C23985   5.184   6.587   0.346 -0.0784 -0.3419 -1.1076
  919MOL0     C23986   5.254   6.532   0.239  0.4711 -0.2978 -1.2136
  919MOL0     C23987   5.392   6.560   0.233  0.2222  0.7674 -0.4019
  919MOL0     C23988   5.455   6.639   0.319  1.0965  0.3045  0.4898
  919MOL0     O23989   5.584   6.665   0.313 -0.3365 -0.3218 -0.2006
  919MOL0     C23990   5.678   6.554   0.315  0.4291 -0.4034 -0.1821
  919MOL0     C23991   5.712   6.512   0.456 -0.2680  0.5013 -0.9195
  919MOL0     C23992   5.824   6.418   0.461  0.6396 -0.2057 -0.7918
  919MOL0     C23993   5.779   6.271   0.456 -0.4745 -0.7829  0.2609
  919MOL0     C23994   5.881   6.174   0.505  0.9185  0.4860 -0.5509
  919MOL0     C23995   5.963   6.099   0.551  0.4383 -0.5331 -0.5550
  919MOL0     C23996   5.378   6.701   0.420  0.3138  0.3133  0.5774
  919MOL0     C23997   5.245   6.672   0.441  0.2539  0.7048  0.2993
  919MOL0     H23998   4.853   6.285   0.407  2.4137  0.3670 -1.6254
  919MOL0     H23999   4.611   6.291   0.448  0.3390  2.7552  1.8124
  919MOL0     H24000   4.376   6.311   0.243  0.4317  1.8498 -1.0581
  919MOL0     H24001   4.400   6.287   0.422 -0.6490  2.3045  2.1481
  919MOL0     H24002   4.202   6.429   0.461 -2.1996  0.8694 -1.0278
  919MOL0     H24003   4.162   6.418   0.291 -1.0942  1.5557  1.7849
  919MOL0     H24004   4.157   6.177   0.306 -0.5565 -1.6335  0.7143
  919MOL0     H24005   4.218   6.172   0.470 -0.9636 -0.4335 -0.6504
  919MOL0     H24006   3.990   6.281   0.542  2.8510  1.0197 -0.3435
  919MOL0     H24007   3.935   6.226   0.384 -0.7810  0.7965  1.2977
  919MOL0     H24008   4.048   5.997   0.449  0.1335  2.1360 -0.8620
  919MOL0     H24009   4.054   6.057   0.612  0.4645 -2.1524  0.3028
  919MOL0     H24010   3.800   6.088   0.610 -0.6391  0.0599 -1.1351
  919MOL0     H24011   3.794   6.040   0.453 -2.2877 -0.8166  1.4327
  919MOL0     H24012   3.931   5.814   0.548 -0.9512 -1.1264 -1.7375
  919MOL0     H24013   3.851   5.876   0.698 -2.3650  0.0410 -1.0806
  919MOL0     H24014   3.735   5.707   0.633  1.6257  0.9052  0.7698
  919MOL0     H24015   3.722   5.761   0.464  1.5298 -3.1011  0.8082
  919MOL0     H24016   3.554   5.785   0.805 -3.6741 -0.7846 -0.7324
  919MOL0     H24017   3.218   5.950   0.766  1.0868 -2.3120 -3.0984
  919MOL0     H24018   3.304   5.832   0.856  0.0602 -1.4423 -0.7161
  919MOL0     H24019   3.329   6.143   0.873  3.0309  0.2505 -1.2847
  919MOL0     H24020   3.445   6.037   0.938 -0.0014  2.6059  0.7350
  919MOL0     H24021   3.301   6.088   1.115 -0.7824 -0.3000  1.5019
  919MOL0     H24022   3.275   5.914   1.070  0.5104  0.1752 -1.7628
  919MOL0     H24023   3.052   5.975   0.982  0.8665 -0.7746 -1.2242
  919MOL0     H24024   3.105   6.156   0.982  5.1195  1.8172  2.1924
  919MOL0     H24025   2.993   6.161   1.390  2.5582 -0.1090 -1.7260
  919MOL0     H24026   2.719   6.241   1.535  1.0655 -1.7040 -0.0056
  919MOL0     H24027   2.873   6.334   1.549 -1.3472  3.5974  2.0537
  919MOL0     H24028   2.740   6.416   1.477 -0.2341 -0.1077 -0.0663
  919MOL0     H24029   2.472   6.621   1.287 -2.0631 -1.0894  4.3124
  919MOL0     H24030   2.238   6.723   1.312  0.4129  1.4274 -3.4946
  919MOL0     H24031   1.863   6.531   1.120 -0.2732  1.5189 -1.1087
  919MOL0     H24032   1.914   6.450   1.259  4.8889 -0.8916 -2.7531
  919MOL0     H24033   1.725   6.571   1.342  0.2041 -1.5710 -2.4109
  919MOL0     H24034   1.847   6.697   1.378 -0.2133 -0.8730  0.5701
  919MOL0     H24035   1.700   6.669   1.112  1.9108 -2.4216  0.5805
  919MOL0     H24036   1.809   6.802   1.165  0.1544  0.4231  2.0196
  919MOL0     H24037   1.549   6.717   1.304 -0.8968  0.4997 -0.3526
  919MOL0     H24038   1.627   6.872   1.322  0.8285 -0.3099  1.5647
  919MOL0     H24039   1.487   6.790   1.058 -0.4921 -0.6418  1.0324
  919MOL0     H24040   1.583   6.928   1.092  1.4089 -1.5483 -3.1128
  919MOL0     H24041   1.323   6.955   1.102  0.0271  1.4861  1.2967
  919MOL0     H24042   1.322   6.834   1.232 -1.8416  1.4361  3.2010
  919MOL0     H24043   1.506   7.082   1.275 -0.6243  1.6462 -0.7315
  919MOL0     H24044   1.422   6.986   1.396  0.6265  0.7910  0.1306
  919MOL0     H24045   1.278   7.181   1.215 -1.2131 -0.8913  0.7862
  919MOL0     H24046   1.307   7.183   1.386 -0.7802  2.6033 -1.0951
  919MOL0     H24047   2.080   6.408   1.087 -0.2192 -1.9446  0.9629
  919MOL0     H24048   2.304   6.299   1.075 -1.2732 -1.5159  1.1221
  919MOL0     H24049   2.658   6.218   1.043 -1.1195  0.4880  1.6123
  919MOL0     H24050   2.861   6.094   0.996 -0.1337  1.6128 -0.7407
  919MOL0     H24051   4.578   6.647   0.205  1.1282  0.7372 -1.5405
  919MOL0     H24052   4.825   6.637   0.177  0.6823 -1.5713 -1.9910
  919MOL0     H24053   5.204   6.470   0.166 -0.4417  2.7258 -3.3647
  919MOL0     H24054   5.453   6.499   0.167 -1.5822 -1.0092 -0.5330
  919MOL0     H24055   5.656   6.464   0.257  1.4264 -2.9277  3.0465
  919MOL0     H24056   5.765   6.601   0.270  0.3145  1.0817  1.0832
  919MOL0     H24057   5.630   6.467   0.513  2.0532 -1.6383  0.9846
  919MOL0     H24058   5.737   6.602   0.513  1.1421 -2.1034  3.0729
  919MOL0     H24059   5.877   6.437   0.556  1.7349  0.0311 -1.4253
  919MOL0     H24060   5.890   6.448   0.379 -1.7510  3.0559 -1.6886
  919MOL0     H24061   5.769   6.243   0.351 -1.2178 -3.3986  0.9723
  919MOL0     H24062   5.689   6.251   0.514 -0.2453 -0.4948  0.7219
  919MOL0     H24063   6.027   6.038   0.611 -0.2510  0.3199  1.1195
  919MOL0     H24064   5.424   6.777   0.482 -0.3259 -0.1344  1.6425
  919MOL0     H24065   5.190   6.715   0.524  2.0679  0.4016  1.7314
  920MOL0     O24066   8.536   7.974  10.285 -0.0049  0.2004  0.8424
  920MOL0     C24067   8.531   8.078  10.346 -0.1704 -0.5481 -0.3739
  920MOL0     O24068   8.442   8.174  10.324 -0.2244  0.2201 -0.1436
  920MOL0     C24069   8.357   8.177  10.208 -0.4949 -0.7654  0.7127
  920MOL0     C24070   8.308   8.067  10.137  1.2207  0.2676 -0.8405
  920MOL0     C24071   8.227   8.072  10.024 -0.2751 -0.1802  0.7383
  920MOL0     C24072   8.206   8.198   9.968  0.0373 -0.4244 -0.0189
  920MOL0     O24073   8.125   8.212   9.857  0.4561 -0.0502  0.1014
  920MOL0     C24074   8.134   8.330   9.776 -0.5167  0.1531  0.1138
  920MOL0     C24075   8.047   8.318   9.651  0.8083 -0.1425 -0.3344
  920MOL0     C24076   7.897   8.302   9.685  0.1830  0.3293 -0.6141
  920MOL0     C24077   7.796   8.352   9.580  0.2780 -0.4701  0.2203
  920MOL0     C24078   7.712   8.470   9.634 -1.0810 -0.8298  0.3039
  920MOL0     C24079   7.604   8.520   9.521  1.0720 -0.0967 -1.4821
  920MOL0     C24080   7.505   8.628   9.578 -0.4063 -0.3651 -0.1636
  920MOL0     C24081   7.401   8.673   9.468  0.0547  0.1402  0.0745
  920MOL0     N24082   7.365   8.812   9.488  0.3836  0.1043 -0.9534
  920MOL0     C24083   7.236   8.853   9.509 -0.4930  0.5997 -0.4371
  920MOL0     C24084   7.238   8.984   9.509  0.1117  0.3248 -0.0498
  920MOL0     C24085   7.128   9.071   9.517  1.1348  0.3704 -0.2869
  920MOL0     C24086   7.066   9.100   9.658  0.3899  0.6188  0.6189
  920MOL0     C24087   6.991   9.228   9.655 -0.1172 -0.7492 -0.0814
  920MOL0     C24088   6.967   9.265   9.802  0.3086  0.2778  0.0142
  920MOL0     O24089   6.901   9.387   9.803 -0.4828  0.1513  0.2107
  920MOL0     C24090   6.829   9.424   9.919 -0.6095  0.3940  0.2327
  920MOL0     C24091   6.805   9.341  10.031 -0.2364 -0.4801 -0.7808
  920MOL0     C24092   6.761   9.399  10.160  0.2706 -0.0541  0.5717
  920MOL0     C24093   6.738   9.308  10.268  0.4569 -0.2756 -0.9946
  920MOL0     C24094   6.709   9.536  10.161  0.0666  0.0682  0.1116
  920MOL0     C24095   6.649   9.593  10.278  0.3149 -0.3671 -0.4540
  920MOL0     O24096   6.691   9.716  10.323  0.1731  0.2675 -0.0351
  920MOL0     C24097   6.620   9.801  10.412 -0.7224 -0.9224 -0.1244
  920MOL0     C24098   6.489   9.792  10.458  0.4605  0.1685 -0.4205
  920MOL0     C24099   6.442   9.880  10.552 -0.7588  0.0167 -0.6072
  920MOL0     C24100   6.528   9.980  10.605  0.2603  0.4347  0.2274
  920MOL0     O24101   6.472  10.041  10.716 -0.2478  0.5143 -0.1953
  920MOL0     C24102   6.522  10.157  10.772  0.4449  0.4861  0.0466
  920MOL0     C24103   6.426  10.221  10.864 -0.3220  0.6872 -0.2185
  920MOL0     C24104   6.319  10.127  10.928  0.2525 -0.1390 -0.0211
  920MOL0     C24105   6.222  10.204  11.023  0.3755 -0.3417 -0.1900
  920MOL0     C24106   6.070  10.159  11.019 -0.8243  0.1110  0.2494
  920MOL0     C24107   5.975  10.214  11.132  0.1103 -0.2754  0.0224
  920MOL0     C24108   5.984  10.366  11.134 -0.5363 -0.6653  0.2151
  920MOL0     C24109   5.873  10.446  11.210 -0.5279 -0.4571 -0.8785
  920MOL0    Cl24110   5.713  10.452  11.130 -0.3314  0.5646  0.2140
  920MOL0     C24111   6.653   9.984  10.560  0.8120  0.1060  0.2150
  920MOL0     C24112   6.701   9.892  10.469 -0.5487 -0.3164  0.4333
  920MOL0     O24113   6.553   9.536  10.329 -0.4994  0.2338 -0.1128
  920MOL0     C24114   6.731   9.609  10.044 -0.2586 -0.6981 -0.3073
  920MOL0     C24115   6.786   9.558   9.925 -0.7147  0.3443  0.1374
  920MOL0     N24116   7.363   9.030   9.488 -0.4486  0.4470 -0.2069
  920MOL0     N24117   7.440   8.923   9.477 -0.2251 -0.2860  0.2738
  920MOL0     C24118   8.247   8.313  10.038 -0.8233 -0.6657 -0.8876
  920MOL0     C24119   8.326   8.305  10.149  0.4206  0.2290 -0.7585
  920MOL0     C24120   8.605   8.092  10.473 -0.0312 -0.2516 -0.3617
  920MOL0     C24121   8.600   8.209  10.552 -0.8379 -0.0408  0.5523
  920MOL0     C24122   8.674   8.230  10.672 -1.1492  0.1632  0.7108
  920MOL0     C24123   8.766   8.122  10.711  0.7797 -0.1328  1.0804
  920MOL0     O24124   8.840   8.127  10.831  0.4935 -0.0404  0.1778
  920MOL0     C24125   8.840   8.242  10.915  0.8283 -0.6669 -0.0158
  920MOL0     C24126   8.954   8.233  11.021 -0.5887 -0.5301 -0.1046
  920MOL0     C24127   9.087   8.206  10.948 -0.3995  0.0364 -0.2648
  920MOL0     C24128   9.201   8.246  11.045  0.2317 -0.9305 -0.5467
  920MOL0     C24129   9.329   8.214  10.998 -0.6117 -0.1752  0.0923
  920MOL0     C24130   9.435   8.197  10.940 -0.2719  0.1944 -0.2037
  920MOL0     C24131   8.780   8.004  10.635  0.1764  0.1572 -0.0449
  920MOL0     C24132   8.701   7.984  10.514 -0.0476 -0.2899  0.0486
  920MOL0     H24133   8.325   7.969  10.180 -1.1792 -0.2108 -0.8641
  920MOL0     H24134   8.199   7.988   9.962  0.1197  0.4094 -0.2530
  920MOL0     H24135   8.111   8.425   9.826 -1.0432 -0.0041  0.1749
  920MOL0     H24136   8.234   8.350   9.737 -0.6956  1.0192  0.0911
  920MOL0     H24137   8.053   8.400   9.579 -2.8617 -2.0667 -3.1602
  920MOL0     H24138   8.077   8.222   9.607  0.7449 -0.1377 -0.3862
  920MOL0     H24139   7.891   8.193   9.688 -2.4442  0.4304  2.3549
  920MOL0     H24140   7.877   8.339   9.786 -0.4467  0.8950 -0.9358
  920MOL0     H24141   7.850   8.387   9.492 -0.8064 -1.3495 -0.8179
  920MOL0     H24142   7.729   8.269   9.553 -4.0799  2.3001  1.3525
  920MOL0     H24143   7.652   8.433   9.717 -1.4747 -0.3318  0.2465
  920MOL0     H24144   7.777   8.552   9.666 -0.8384 -0.8943 -0.0279
  920MOL0     H24145   7.649   8.571   9.435 -1.0711  4.2725 -0.2904
  920MOL0     H24146   7.544   8.440   9.479  1.8427 -1.3445 -0.2888
  920MOL0     H24147   7.452   8.602   9.670  2.0165  3.9266  2.8260
  920MOL0     H24148   7.561   8.719   9.605 -0.9176  0.1733 -0.8565
  920MOL0     H24149   7.313   8.608   9.470 -1.3434  1.9672  0.7617
  920MOL0     H24150   7.435   8.655   9.366 -0.8346 -0.4503 -0.1263
  920MOL0     H24151   7.145   8.794   9.521 -0.0437 -0.0646 -0.2569
  920MOL0     H24152   7.161   9.166   9.472 -1.2469  0.9671 -0.9458
  920MOL0     H24153   7.047   9.031   9.456 -2.0093  1.2416  2.9604
  920MOL0     H24154   7.151   9.112   9.725  2.4867 -2.1486 -1.2913
  920MOL0     H24155   7.008   9.015   9.694 -2.7192  1.6982 -1.3888
  920MOL0     H24156   6.894   9.215   9.605  0.5111 -4.4770 -0.6128
  920MOL0     H24157   7.054   9.308   9.614 -0.5548  0.5889  1.7124
  920MOL0     H24158   7.064   9.273   9.852  1.2581  0.5520 -1.7637
  920MOL0     H24159   6.905   9.188   9.849 -0.3587  1.3580  0.9227
  920MOL0     H24160   6.834   9.238  10.047  0.4627  0.1280  3.0743
  920MOL0     H24161   6.802   9.219  10.265  1.9312  0.7196 -4.7707
  920MOL0     H24162   6.771   9.355  10.361 -0.9371 -2.3066  0.6014
  920MOL0     H24163   6.632   9.280  10.275  1.1537 -3.4981 -1.4990
  920MOL0     H24164   6.426   9.705  10.441 -2.8546  2.2997 -0.0076
  920MOL0     H24165   6.360   9.859  10.620  0.0526  2.4869  1.2995
  920MOL0     H24166   6.621  10.147  10.816  0.2177  0.9315  0.6755
  920MOL0     H24167   6.543  10.214  10.681 -2.8592 -0.9750 -1.8043
  920MOL0     H24168   6.483  10.272  10.942 -1.1221  0.1135  0.7590
  920MOL0     H24169   6.369  10.291  10.803 -2.1980 -0.2434  0.4106
  920MOL0     H24170   6.367  10.041  10.976  0.1634  1.4958  3.2621
  920MOL0     H24171   6.259  10.090  10.845  2.4073  1.4610 -2.4423
  920MOL0     H24172   6.268  10.193  11.122  0.6827  0.9669 -0.1683
  920MOL0     H24173   6.233  10.308  10.991  2.3744 -0.7310 -0.9648
  920MOL0     H24174   6.065  10.050  11.019  0.5784  0.0305  1.1555
  920MOL0     H24175   6.026  10.203  10.928 -0.2367  0.4867  0.1377
  920MOL0     H24176   5.869  10.194  11.116  0.5769 -1.5627 -1.7318
  920MOL0     H24177   5.995  10.178  11.233 -0.7209 -0.8537 -0.0156
  920MOL0     H24178   5.975  10.404  11.032 -3.0806  1.3495  1.0957
  920MOL0     H24179   6.081  10.395  11.176  0.8660  0.5148 -3.4428
  920MOL0     H24180   5.904  10.550  11.214 -1.9870 -0.0376  0.6852
  920MOL0     H24181   5.870  10.399  11.308 -0.2717  1.0332 -0.1401
  920MOL0     H24182   6.728  10.048  10.605 -0.2865 -0.1216  2.5699
  920MOL0     H24183   6.802   9.890  10.431  0.4514  2.7599  2.5640
  920MOL0     H24184   6.688   9.708  10.058 -1.9101 -1.2280 -1.2460
  920MOL0     H24185   6.803   9.632   9.847 -1.4563  0.5394  0.1530
  920MOL0     H24186   8.219   8.412  10.002  0.6461 -0.0767 -0.5007
  920MOL0     H24187   8.358   8.398  10.194  0.9579  0.6127 -1.8998
  920MOL0     H24188   8.540   8.294  10.522 -1.7319  0.0527  2.5080
  920MOL0     H24189   8.673   8.321  10.730  2.2623  0.6833  0.1602
  920MOL0     H24190   8.872   8.327  10.855 -2.3755  0.8106  0.1746
  920MOL0     H24191   8.741   8.266  10.955  2.0189 -0.0513  2.8112
  920MOL0     H24192   8.932   8.149  11.087 -1.2550 -0.5240 -0.3174
  920MOL0     H24193   8.957   8.325  11.081  1.5571  1.9582 -3.6567
  920MOL0     H24194   9.086   8.268  10.857 -2.0366 -0.2708 -0.4758
  920MOL0     H24195   9.100   8.099  10.935  1.7460 -0.0126  1.7593
  920MOL0     H24196   9.195   8.192  11.140  3.7490 -1.7942 -0.6607
  920MOL0     H24197   9.193   8.353  11.069 -0.4911 -0.7134 -1.7198
  920MOL0     H24198   9.531   8.186  10.894  0.0919 -1.5493  0.9127
  920MOL0     H24199   8.850   7.926  10.663  0.4799 -0.0614 -1.3446
  920MOL0     H24200   8.709   7.891  10.458 -1.3971  0.9583 -2.3881
  921MOL0     O24201   3.285   8.898   1.113  0.0610  0.1286  0.0822
  921MOL0     C24202   3.263   8.857   0.999 -1.0126 -0.1181  1.2988
  921MOL0     O24203   3.143   8.847   0.937  0.5981  0.0741  0.1922
  921MOL0     C24204   3.030   8.881   1.007 -0.7503  0.2756 -0.2779
  921MOL0     C24205   3.021   8.990   1.104 -0.8776  0.2809  0.4020
  921MOL0     C24206   2.897   9.017   1.171 -0.2294  0.1227 -0.4966
  921MOL0     C24207   2.782   8.943   1.154 -0.4046 -0.4485 -0.3000
  921MOL0     O24208   2.669   8.971   1.229  0.0215  0.6462 -0.3568
  921MOL0     C24209   2.534   8.944   1.174  0.7165  0.0504  0.3883
  921MOL0     C24210   2.423   9.043   1.212 -0.0817 -0.0968 -0.3306
  921MOL0     C24211   2.372   9.019   1.351  0.0218 -0.2886  1.0719
  921MOL0     C24212   2.265   9.134   1.382  0.3099 -0.8008 -0.2136
  921MOL0     C24213   2.220   9.120   1.529 -0.2995  0.0510  0.3827
  921MOL0     C24214   2.163   9.262   1.576 -0.4894 -0.2562 -0.1889
  921MOL0     C24215   2.053   9.314   1.493  0.3359 -1.0803 -0.3103
  921MOL0     C24216   1.997   9.451   1.533 -0.1544  0.0929  0.2092
  921MOL0     N24217   1.877   9.497   1.444  0.4683  0.2337  0.1001
  921MOL0     C24218   1.763   9.427   1.418 -0.2704 -1.0561  0.8678
  921MOL0     C24219   1.671   9.510   1.362  0.5404 -0.1091 -0.7340
  921MOL0     C24220   1.523   9.468   1.329  0.3614  0.3383  0.0750
  921MOL0     C24221   1.494   9.528   1.187  0.2175 -0.0688  0.3795
  921MOL0     C24222   1.413   9.658   1.180 -0.1033  0.7613 -0.1607
  921MOL0     C24223   1.259   9.654   1.229  0.4529  0.2491 -0.7106
  921MOL0     O24224   1.183   9.576   1.139  0.0502  0.3574 -0.6926
  921MOL0     C24225   1.048   9.591   1.134 -0.8823  0.2750 -0.8309
  921MOL0     C24226   0.986   9.510   1.042 -0.0001  0.1278  0.1414
  921MOL0     C24227   0.851   9.505   1.016  0.4932 -0.9122  0.1953
  921MOL0     C24228   0.804   9.430   0.900  0.2357  0.3266  0.6578
  921MOL0     C24229   0.768   9.586   1.103  0.2716  0.1432  1.0777
  921MOL0     C24230   0.622   9.594   1.084  0.7613  0.4023  0.5142
  921MOL0     O24231   0.567   9.722   1.109  0.0529 -0.1241  0.5440
  921MOL0     C24232   0.431   9.744   1.076 -0.6079 -0.2451 -0.4825
  921MOL0     C24233   0.393   9.855   1.006  0.0566 -0.2654  0.7479
  921MOL0     C24234   0.254   9.882   1.002  0.2497  0.3844  0.1587
  921MOL0     C24235   0.161   9.791   1.050  0.2670 -0.5009  0.5411
  921MOL0     O24236   0.028   9.828   1.040 -0.9037  0.5274 -0.2215
  921MOL0     C24237  -0.069   9.728   1.084 -0.7079 -0.1255 -0.6115
  921MOL0     C24238  -0.212   9.789   1.085 -0.7103 -0.3862  0.1821
  921MOL0     C24239  -0.315   9.681   1.133 -0.2622  0.4672  0.3020
  921MOL0     C24240  -0.426   9.729   1.231 -0.5044 -0.0275  0.5181
  921MOL0     C24241  -0.468   9.617   1.330 -0.1091 -0.7727  0.1472
  921MOL0     C24242  -0.555   9.525   1.244  0.3882  0.2698  0.6120
  921MOL0     C24243  -0.585   9.392   1.321 -0.3106 -0.4386  0.0500
  921MOL0     C24244  -0.671   9.286   1.244  0.2711 -0.5951 -0.4187
  921MOL0    Cl24245  -0.818   9.359   1.171 -0.0139 -0.3409  0.2796
  921MOL0     C24246   0.201   9.667   1.098 -1.3325 -0.1760 -0.0475
  921MOL0     C24247   0.338   9.654   1.123 -0.3389 -0.1329 -0.2554
  921MOL0     O24248   0.564   9.499   1.023  0.5701  0.2777  0.0824
  921MOL0     C24249   0.826   9.657   1.212 -0.4417  0.2153  0.2940
  921MOL0     C24250   0.967   9.663   1.222  0.3696  0.7161 -0.9016
  921MOL0     N24251   1.729   9.633   1.341 -0.6054 -0.3048  0.0182
  921MOL0     N24252   1.851   9.625   1.385 -0.4680 -0.0931 -0.5736
  921MOL0     C24253   2.779   8.851   1.050 -1.2115 -0.0000 -0.1989
  921MOL0     C24254   2.903   8.823   0.979  0.5296 -0.1825 -0.1090
  921MOL0     C24255   3.385   8.811   0.931  0.5340  0.5716  0.2406
  921MOL0     C24256   3.514   8.857   0.961  0.7722  0.5101 -0.9572
  921MOL0     C24257   3.625   8.803   0.896  0.5039  0.2895  0.0670
  921MOL0     C24258   3.624   8.710   0.794  0.3752  0.8685 -1.0838
  921MOL0     O24259   3.740   8.666   0.744  0.1931  0.4595  1.0724
  921MOL0     C24260   3.742   8.554   0.656  0.0740 -0.2968  0.3310
  921MOL0     C24261   3.740   8.419   0.729  0.7712 -0.1819  0.5314
  921MOL0     C24262   3.866   8.398   0.824 -0.2935 -0.7139 -0.1214
  921MOL0     C24263   3.866   8.258   0.892 -1.0397  0.0247 -0.5218
  921MOL0     C24264   3.988   8.241   0.975 -0.3990  0.0739  1.0675
  921MOL0     C24265   4.088   8.226   1.041  0.7458  0.4884  0.7330
  921MOL0     C24266   3.496   8.671   0.758  0.5344  0.1878 -0.5723
  921MOL0     C24267   3.381   8.714   0.824  0.0029  0.2262  0.1050
  921MOL0     H24268   3.100   9.062   1.124 -0.7477  1.3324 -3.1954
  921MOL0     H24269   2.891   9.087   1.254 -0.5638  1.2501 -1.4547
  921MOL0     H24270   2.528   8.965   1.067 -1.8119 -0.3506  0.3820
  921MOL0     H24271   2.504   8.842   1.201  1.5157 -0.6231 -1.1710
  921MOL0     H24272   2.466   9.143   1.211  2.0743 -0.9746 -1.2064
  921MOL0     H24273   2.351   9.031   1.130  0.9937  1.3386 -1.5497
  921MOL0     H24274   2.338   8.915   1.359  1.4859 -0.6634  3.2967
  921MOL0     H24275   2.453   9.023   1.424  1.7436 -1.2761 -0.6924
  921MOL0     H24276   2.309   9.232   1.360 -1.1030 -0.5438 -2.1018
  921MOL0     H24277   2.189   9.142   1.305  0.7989 -0.0143 -0.6332
  921MOL0     H24278   2.142   9.044   1.528  1.1701 -1.5094 -0.4146
  921MOL0     H24279   2.305   9.095   1.593 -0.0689 -1.6125 -0.5213
  921MOL0     H24280   2.131   9.250   1.680  1.8720  0.5067  0.6753
  921MOL0     H24281   2.245   9.334   1.576  2.2244 -3.1353  1.3884
  921MOL0     H24282   2.082   9.321   1.388 -0.3117  1.5058 -0.3789
  921MOL0     H24283   1.970   9.243   1.504  0.9076 -1.6622  0.3614
  921MOL0     H24284   2.077   9.525   1.529 -0.2780  0.2467  0.5966
  921MOL0     H24285   1.965   9.455   1.637 -0.9016  0.6851 -0.0242
  921MOL0     H24286   1.750   9.322   1.441  0.5831 -0.9121  2.0724
  921MOL0     H24287   1.523   9.359   1.335  2.7459  0.3583  3.4337
  921MOL0     H24288   1.458   9.505   1.408 -0.3203 -1.2903  0.3161
  921MOL0     H24289   1.440   9.446   1.139 -0.1449  0.7431 -0.6491
  921MOL0     H24290   1.586   9.544   1.130 -0.3281  2.1359  0.0137
  921MOL0     H24291   1.409   9.685   1.074  2.6933  0.4445 -0.4065
  921MOL0     H24292   1.473   9.728   1.237  2.4362 -1.4651  0.0704
  921MOL0     H24293   1.216   9.754   1.227  0.4670  0.2946  0.5012
  921MOL0     H24294   1.251   9.620   1.333  0.4827 -0.5310 -0.9551
  921MOL0     H24295   1.048   9.456   0.971 -0.7256 -0.1599 -0.2846
  921MOL0     H24296   0.740   9.345   0.928 -1.4016  1.2999  0.0339
  921MOL0     H24297   0.740   9.491   0.835  1.4024  2.8229  1.7042
  921MOL0     H24298   0.895   9.401   0.848 -0.0459 -1.5634  1.1454
  921MOL0     H24299   0.463   9.924   0.958 -0.7080  0.4407  0.6238
  921MOL0     H24300   0.209   9.979   0.980 -1.7633 -0.7381 -1.0883
  921MOL0     H24301  -0.063   9.637   1.024  1.8466  1.3934 -2.9215
  921MOL0     H24302  -0.052   9.703   1.189  2.1986  0.4198 -0.8510
  921MOL0     H24303  -0.214   9.882   1.143  0.1460 -0.2044 -0.0630
  921MOL0     H24304  -0.250   9.816   0.986 -0.6575  0.3563  0.3606
  921MOL0     H24305  -0.271   9.605   1.197 -2.4229 -0.0649  1.2666
  921MOL0     H24306  -0.367   9.630   1.051 -2.4477  2.1537  0.5288
  921MOL0     H24307  -0.378   9.806   1.292  0.5727 -0.3178  0.0629
  921MOL0     H24308  -0.510   9.767   1.172  0.7275  2.0342 -0.0149
  921MOL0     H24309  -0.527   9.659   1.411  2.2287  1.3905  0.8550
  921MOL0     H24310  -0.377   9.565   1.362 -0.3195 -1.5007 -0.4104
  921MOL0     H24311  -0.649   9.576   1.220  0.6741 -1.0870 -4.5805
  921MOL0     H24312  -0.505   9.493   1.152  0.4052 -1.3931  1.1588
  921MOL0     H24313  -0.638   9.409   1.416 -1.0656  2.1606 -0.7442
  921MOL0     H24314  -0.485   9.355   1.344 -0.5442 -2.0144 -1.3307
  921MOL0     H24315  -0.685   9.203   1.314  0.6341 -0.8962 -0.6964
  921MOL0     H24316  -0.609   9.248   1.162  0.1520  1.7590 -1.6819
  921MOL0     H24317   0.126   9.591   1.116 -1.3270 -0.5462 -1.4513
  921MOL0     H24318   0.371   9.569   1.183  2.9549  0.8722 -0.4678
  921MOL0     H24319   0.768   9.714   1.284  1.4330  2.6747 -0.0102
  921MOL0     H24320   1.003   9.714   1.310 -1.3734  2.5629 -1.1970
  921MOL0     H24321   2.686   8.799   1.028 -1.6581  1.1248 -1.0386
  921MOL0     H24322   2.893   8.743   0.905 -0.8312  0.1704 -0.3458
  921MOL0     H24323   3.521   8.925   1.045 -1.2239  1.3894 -1.4292
  921MOL0     H24324   3.728   8.833   0.912  0.2513  1.4926 -0.4701
  921MOL0     H24325   3.664   8.554   0.579  1.0243  1.2580 -0.7041
  921MOL0     H24326   3.834   8.559   0.598  0.5671  0.5090  1.1384
  921MOL0     H24327   3.737   8.328   0.669 -2.0509 -0.1826  0.5476
  921MOL0     H24328   3.640   8.415   0.774 -0.6881 -3.8403 -2.4321
  921MOL0     H24329   3.858   8.473   0.903 -2.5212 -3.1062  2.1512
  921MOL0     H24330   3.953   8.402   0.758 -0.1724 -0.9101  0.0270
  921MOL0     H24331   3.883   8.176   0.821  0.2278 -0.2519  0.0658
  921MOL0     H24332   3.778   8.244   0.955 -0.2940  2.4524  1.2107
  921MOL0     H24333   4.187   8.208   1.077  0.4700  0.6612  1.6116
  921MOL0     H24334   3.485   8.597   0.679  0.9565 -1.4088  0.8083
  921MOL0     H24335   3.284   8.671   0.804 -1.0345  1.7146  1.6439
  922MOL0     O24336   9.510   2.243   1.954  0.8275 -0.0391 -0.5604
  922MOL0     C24337   9.599   2.315   1.997  0.0088 -0.2893 -0.6137
  922MOL0     O24338   9.595   2.455   1.999  0.4643 -0.0152  0.1082
  922MOL0     C24339   9.493   2.516   1.924  0.0095 -0.7318  0.2592
  922MOL0     C24340   9.511   2.539   1.785 -0.7673  0.9855  0.2041
  922MOL0     C24341   9.412   2.593   1.703 -0.0485 -0.4555  0.0351
  922MOL0     C24342   9.289   2.628   1.759  1.0619 -0.1237 -0.7004
  922MOL0     O24343   9.183   2.690   1.695 -0.1231  0.0843 -0.2359
  922MOL0     C24344   9.199   2.728   1.558  0.2339 -0.5760  0.3004
  922MOL0     C24345   9.073   2.798   1.507  0.5786  0.1903 -0.5424
  922MOL0     C24346   9.043   2.927   1.600  0.3866 -0.2953 -0.7996
  922MOL0     C24347   8.906   2.994   1.560 -0.5413  0.2553  0.6679
  922MOL0     C24348   8.906   3.139   1.626 -0.2057  0.1568 -0.1521
  922MOL0     C24349   8.771   3.200   1.595  0.9499  0.9407 -0.1186
  922MOL0     C24350   8.662   3.130   1.682 -0.7265  0.4621 -0.6773
  922MOL0     C24351   8.554   3.230   1.743  0.2367  0.1524  0.9629
  922MOL0     N24352   8.456   3.266   1.647  0.5195 -0.2938  0.0356
  922MOL0     C24353   8.433   3.395   1.610  0.3425  0.2366 -0.2247
  922MOL0     C24354   8.320   3.383   1.529 -0.5747 -0.5353 -0.9226
  922MOL0     C24355   8.255   3.506   1.468 -0.6839  0.4479  0.3036
  922MOL0     C24356   8.325   3.633   1.486 -0.3568 -0.5561 -0.1189
  922MOL0     C24357   8.267   3.757   1.431  0.2891  0.1815  0.3166
  922MOL0     C24358   8.141   3.825   1.496 -1.1404  0.6681 -1.1009
  922MOL0     O24359   8.080   3.917   1.403  0.0644  0.1755  0.0364
  922MOL0     C24360   7.963   3.980   1.434 -0.4963 -0.8625 -0.2791
  922MOL0     C24361   7.931   4.029   1.556  0.9513  1.0944 -0.2878
  922MOL0     C24362   7.806   4.087   1.590 -0.1188 -0.0095  0.1272
  922MOL0     C24363   7.778   4.109   1.737  0.3939  0.1737 -0.8056
  922MOL0     C24364   7.713   4.099   1.493 -0.1133 -0.8102 -0.1517
  922MOL0     C24365   7.570   4.138   1.514  0.5568  0.0330 -0.3687
  922MOL0     O24366   7.478   4.072   1.435 -0.7739 -0.0615 -0.6168
  922MOL0     C24367   7.355   4.130   1.423 -0.2893  0.3232 -0.8243
  922MOL0     C24368   7.322   4.214   1.320  0.7801 -0.3832  1.1132
  922MOL0     C24369   7.195   4.276   1.313 -0.6090  0.2512  0.6148
  922MOL0     C24370   7.102   4.264   1.416  0.2746  0.0691  0.0409
  922MOL0     O24371   6.974   4.324   1.423 -0.1836  0.6783  0.0827
  922MOL0     C24372   6.920   4.372   1.296  0.7540 -0.8897  0.0891
  922MOL0     C24373   6.782   4.440   1.324  0.2972  0.6267 -1.0273
  922MOL0     C24374   6.689   4.336   1.374 -0.3483 -0.2235 -0.5901
  922MOL0     C24375   6.552   4.383   1.424  0.6315 -0.2441  0.3352
  922MOL0     C24376   6.454   4.264   1.446 -0.0857 -0.3549  0.1083
  922MOL0     C24377   6.337   4.294   1.541 -0.6953  0.0907  0.0799
  922MOL0     C24378   6.225   4.190   1.527  0.1790 -0.2860 -0.6411
  922MOL0     C24379   6.158   4.184   1.391  0.1008 -0.2690 -0.4847
  922MOL0    Cl24380   6.079   4.337   1.369  0.0725 -0.1515  0.1519
  922MOL0     C24381   7.133   4.169   1.518 -0.8616 -0.3374 -0.0066
  922MOL0     C24382   7.256   4.098   1.519 -0.0199  0.2361 -0.8096
  922MOL0     O24383   7.541   4.226   1.595 -0.2906  0.4059  0.0216
  922MOL0     C24384   7.747   4.053   1.362  0.3017 -0.4132 -0.7330
  922MOL0     C24385   7.880   4.007   1.333 -0.4668 -0.5554  0.3137
  922MOL0     N24386   8.285   3.249   1.511 -0.2648 -0.0544 -0.7457
  922MOL0     N24387   8.364   3.180   1.592  0.3967  0.0256 -0.0515
  922MOL0     C24388   9.270   2.601   1.897  0.3288 -0.6918  0.1558
  922MOL0     C24389   9.369   2.549   1.976 -0.6504 -0.7502  0.2036
  922MOL0     C24390   9.728   2.259   2.059 -0.3711  0.2295 -0.5738
  922MOL0     C24391   9.831   2.334   2.114  0.2978 -0.5708  0.3239
  922MOL0     C24392   9.943   2.275   2.168 -0.7573  0.2702  0.1944
  922MOL0     C24393   9.957   2.138   2.177 -0.1720 -0.6563  0.0489
  922MOL0     O24394  10.076   2.094   2.213 -0.7569  0.7758 -0.4773
  922MOL0     C24395  10.129   1.983   2.142  1.5731  1.2330  0.4034
  922MOL0     C24396  10.267   1.938   2.190  0.0859 -0.0994  0.3110
  922MOL0     C24397  10.362   2.050   2.154 -0.0872 -0.2942 -0.0576
  922MOL0     C24398  10.506   2.015   2.187  0.2270 -0.3119  0.1023
  922MOL0     C24399  10.593   2.132   2.217  0.1033  0.2358  1.0890
  922MOL0     C24400  10.659   2.231   2.232  0.1901  0.5377 -0.7208
  922MOL0     C24401   9.850   2.069   2.130 -0.0692 -0.1444  0.0767
  922MOL0     C24402   9.737   2.120   2.066  0.3489 -0.2256 -0.5864
  922MOL0     H24403   9.604   2.496   1.749 -1.4220 -0.9653  0.7460
  922MOL0     H24404   9.428   2.618   1.598 -0.6200  2.7634  0.6101
  922MOL0     H24405   9.281   2.800   1.544 -0.0832 -0.1655  0.5309
  922MOL0     H24406   9.218   2.638   1.498 -1.5418  0.2435 -1.6225
  922MOL0     H24407   9.090   2.835   1.405  1.2138  0.1146 -0.4701
  922MOL0     H24408   8.990   2.728   1.513  1.4579 -0.9482 -1.2328
  922MOL0     H24409   9.026   2.903   1.706 -2.3790  2.0376 -0.6030
  922MOL0     H24410   9.133   2.989   1.602  1.0901 -1.2984 -0.2877
  922MOL0     H24411   8.909   2.997   1.450 -1.3333  0.0376  0.6367
  922MOL0     H24412   8.829   2.927   1.599  1.6093 -4.1504 -1.8673
  922MOL0     H24413   8.917   3.142   1.735  0.9536 -2.5261 -0.1133
  922MOL0     H24414   8.984   3.196   1.575 -2.6821  1.4152 -2.7964
  922MOL0     H24415   8.754   3.304   1.626 -4.8679 -0.2127  1.8152
  922MOL0     H24416   8.747   3.200   1.488  2.0188 -2.9076 -0.5024
  922MOL0     H24417   8.604   3.055   1.627 -1.2877 -0.1302  0.6736
  922MOL0     H24418   8.702   3.074   1.767 -0.6179 -0.3528 -1.2510
  922MOL0     H24419   8.603   3.312   1.795  0.0012  0.5610  0.5520
  922MOL0     H24420   8.490   3.178   1.815 -0.3141  1.2248  1.2711
  922MOL0     H24421   8.487   3.481   1.648 -1.2017  1.0343  0.2606
  922MOL0     H24422   8.252   3.485   1.361 -0.9206 -3.8269  0.9633
  922MOL0     H24423   8.156   3.510   1.515 -1.8441  1.6227 -2.0499
  922MOL0     H24424   8.423   3.628   1.437 -0.4707  2.3823 -0.8182
  922MOL0     H24425   8.343   3.656   1.591 -0.0791  0.6144 -0.4084
  922MOL0     H24426   8.240   3.736   1.327 -0.5179 -0.2754  0.6123
  922MOL0     H24427   8.342   3.836   1.434 -1.1477  1.5679  0.6043
  922MOL0     H24428   8.177   3.874   1.586  1.8651  0.9906 -2.3703
  922MOL0     H24429   8.066   3.750   1.522  0.1613 -0.2393  0.1977
  922MOL0     H24430   8.004   4.019   1.636 -1.6528 -2.0777  1.9663
  922MOL0     H24431   7.854   4.073   1.806 -1.3943  3.3299  3.2387
  922MOL0     H24432   7.770   4.216   1.759 -1.9097 -0.3441  1.4250
  922MOL0     H24433   7.681   4.065   1.763  2.3564 -5.2842 -1.4151
  922MOL0     H24434   7.390   4.229   1.236 -1.5928  2.1844 -0.5378
  922MOL0     H24435   7.174   4.334   1.225 -1.2762 -0.6026  0.1950
  922MOL0     H24436   6.994   4.436   1.247  0.9687  0.9551  2.5970
  922MOL0     H24437   6.896   4.288   1.230 -0.0922 -0.3036 -0.3674
  922MOL0     H24438   6.781   4.511   1.407 -1.6825 -0.2057 -0.2832
  922MOL0     H24439   6.734   4.480   1.234 -1.3792  3.3848  0.9343
  922MOL0     H24440   6.739   4.276   1.450 -0.0182  0.0161 -0.6153
  922MOL0     H24441   6.671   4.271   1.287 -0.5526  1.6482 -2.0048
  922MOL0     H24442   6.558   4.442   1.515 -4.5218  0.1388  0.7162
  922MOL0     H24443   6.515   4.457   1.353  1.2607 -1.1890 -1.0284
  922MOL0     H24444   6.491   4.171   1.490 -1.2869 -1.0790 -0.3874
  922MOL0     H24445   6.407   4.240   1.350 -2.9121  3.3029  0.3742
  922MOL0     H24446   6.366   4.304   1.646 -2.4938  0.4328  0.5750
  922MOL0     H24447   6.301   4.396   1.521  0.0016  0.4517  0.6181
  922MOL0     H24448   6.144   4.207   1.598 -2.7824 -3.1578 -3.0063
  922MOL0     H24449   6.266   4.092   1.551 -0.9630 -0.6794 -0.2537
  922MOL0     H24450   6.090   4.099   1.396  0.3272 -0.3782  1.4446
  922MOL0     H24451   6.236   4.165   1.317  0.9167 -0.3797  0.3857
  922MOL0     H24452   7.057   4.154   1.594  2.4192 -0.4671  3.5512
  922MOL0     H24453   7.276   4.028   1.599 -1.2028 -0.9169 -1.4784
  922MOL0     H24454   7.677   4.073   1.282  0.2940  2.3564 -0.1286
  922MOL0     H24455   7.909   3.986   1.231 -1.9392 -1.3026  0.0188
  922MOL0     H24456   9.179   2.613   1.955  0.9821 -0.5019  1.1770
  922MOL0     H24457   9.353   2.515   2.078  0.5845  0.0358  0.6827
  922MOL0     H24458   9.822   2.442   2.114  0.5966 -0.5241 -0.9691
  922MOL0     H24459  10.023   2.337   2.208 -0.4063 -1.6235  2.6668
  922MOL0     H24460  10.065   1.895   2.155  1.8721  0.6864 -1.5038
  922MOL0     H24461  10.126   1.999   2.034 -2.3462 -1.7053 -0.1668
  922MOL0     H24462  10.293   1.848   2.133  0.7370 -1.0921  2.0992
  922MOL0     H24463  10.267   1.919   2.298 -3.2359 -1.5829  0.1502
  922MOL0     H24464  10.330   2.144   2.200 -1.4083 -1.1146  0.7511
  922MOL0     H24465  10.363   2.059   2.045  0.5213 -0.6347 -0.0871
  922MOL0     H24466  10.547   1.940   2.118 -0.0850 -0.2769 -0.1218
  922MOL0     H24467  10.492   1.955   2.277 -1.3210  0.1448  0.1844
  922MOL0     H24468  10.700   2.323   2.268 -3.8058  1.2884  2.7761
  922MOL0     H24469   9.852   1.961   2.128  3.6605 -0.2167  0.2301
  922MOL0     H24470   9.653   2.061   2.030 -0.5353 -0.3946  1.5581
  923MOL0     O24471   2.392   7.959   2.053 -0.1728 -0.1369 -0.3176
  923MOL0     C24472   2.383   8.083   2.056  0.0603 -0.2829 -0.3785
  923MOL0     O24473   2.273   8.151   2.097 -0.4781 -0.4598  0.1583
  923MOL0     C24474   2.158   8.078   2.121 -0.0800 -0.7318  0.5941
  923MOL0     C24475   2.088   8.003   2.023 -0.4589  1.2560 -0.6308
  923MOL0     C24476   1.959   7.953   2.051 -0.0689 -1.0072 -0.0525
  923MOL0     C24477   1.895   7.972   2.179 -0.5056  0.0773 -0.6702
  923MOL0     O24478   1.759   7.922   2.184 -0.0231 -0.2227  0.7788
  923MOL0     C24479   1.685   7.952   2.307  0.6773  0.3162  1.0061
  923MOL0     C24480   1.550   7.897   2.293 -0.0517  0.0929 -0.7824
  923MOL0     C24481   1.472   7.917   2.423  0.2847 -0.7061 -0.5382
  923MOL0     C24482   1.372   7.798   2.444  0.1359 -0.2421  0.0274
  923MOL0     C24483   1.263   7.818   2.556  0.3325 -0.8901  0.3522
  923MOL0     C24484   1.184   7.693   2.583  0.9457 -0.7832 -0.2601
  923MOL0     C24485   1.064   7.717   2.688 -0.1706 -0.6667 -0.5415
  923MOL0     C24486   0.933   7.778   2.623 -0.0574 -0.1468  0.1535
  923MOL0     N24487   0.874   7.680   2.525  0.1265 -0.5765  0.6037
  923MOL0     C24488   0.784   7.583   2.558 -0.5611 -0.4859 -0.2690
  923MOL0     C24489   0.724   7.547   2.445  0.0066 -0.9979  0.2900
  923MOL0     C24490   0.611   7.448   2.425 -0.8399 -0.2597  0.1583
  923MOL0     C24491   0.495   7.507   2.343  0.3557  0.0720  0.2303
  923MOL0     C24492   0.397   7.394   2.308 -0.5299 -0.0698  0.2581
  923MOL0     C24493   0.285   7.473   2.235 -0.1653 -0.6820 -0.7477
  923MOL0     O24494   0.192   7.374   2.187 -0.0355 -0.3812 -0.1181
  923MOL0     C24495   0.059   7.410   2.174 -0.3367  0.7011 -0.5741
  923MOL0     C24496  -0.005   7.531   2.222  0.4700  0.4545 -0.0921
  923MOL0     C24497  -0.143   7.543   2.203  0.1163 -0.6541 -0.5512
  923MOL0     C24498  -0.207   7.655   2.272  0.4646  0.1843  0.2132
  923MOL0     C24499  -0.214   7.461   2.110 -0.0100 -0.2294  0.3801
  923MOL0     C24500  -0.353   7.487   2.058  0.4250  0.0314  0.6213
  923MOL0     O24501  -0.414   7.381   2.003  0.3417 -0.1662 -0.0603
  923MOL0     C24502  -0.539   7.401   1.948  0.3028  0.5239  0.9352
  923MOL0     C24503  -0.536   7.452   1.816  0.1606  0.3430 -0.3702
  923MOL0     C24504  -0.662   7.488   1.753  0.2812  0.6611  0.3729
  923MOL0     C24505  -0.777   7.468   1.831 -0.4035  0.4880  1.0013
  923MOL0     O24506  -0.900   7.495   1.777 -0.9520  0.5457 -0.6352
  923MOL0     C24507  -0.936   7.397   1.675  0.0763  0.2119  1.2513
  923MOL0     C24508  -1.084   7.427   1.651  0.0374  0.4564  0.1237
  923MOL0     C24509  -1.140   7.337   1.539 -0.0754  0.1725  1.0389
  923MOL0     C24510  -1.285   7.373   1.539 -0.3499 -0.6587  0.0327
  923MOL0     C24511  -1.350   7.275   1.439 -0.3819 -0.1691 -1.2271
  923MOL0     C24512  -1.497   7.316   1.415  1.4192 -0.4879  0.6332
  923MOL0     C24513  -1.564   7.202   1.332 -0.9842  0.3898 -0.0961
  923MOL0     C24514  -1.719   7.212   1.343 -0.6426 -0.4137  0.7175
  923MOL0    Cl24515  -1.775   7.081   1.239 -0.3847  0.2411  0.1706
  923MOL0     C24516  -0.776   7.411   1.960 -0.4104 -1.5471  0.3878
  923MOL0     C24517  -0.656   7.380   2.017 -0.8432 -0.6415 -0.5591
  923MOL0     O24518  -0.398   7.602   2.058 -0.4329  0.5739 -0.3323
  923MOL0     C24519  -0.141   7.351   2.056  0.0261 -0.4097 -0.6427
  923MOL0     C24520  -0.013   7.327   2.092  0.6427  0.1805 -0.1748
  923MOL0     N24521   0.791   7.610   2.343  0.5188  0.5764 -0.6236
  923MOL0     N24522   0.867   7.687   2.392 -0.1798 -0.4510 -0.7745
  923MOL0     C24523   1.968   8.037   2.282  0.4591 -0.5412 -0.4182
  923MOL0     C24524   2.094   8.086   2.243 -1.3273 -0.7244  0.1735
  923MOL0     C24525   2.505   8.172   2.020  0.3987  0.2403  0.1123
  923MOL0     C24526   2.496   8.306   2.051 -0.6241 -0.6992 -0.0433
  923MOL0     C24527   2.612   8.388   2.024  0.0042  0.4263  0.0920
  923MOL0     C24528   2.727   8.345   1.965 -0.0776  0.5051  0.5648
  923MOL0     O24529   2.825   8.432   1.963  0.1568  0.0401 -0.1754
  923MOL0     C24530   2.963   8.386   1.928 -0.1050  0.7948  0.0144
  923MOL0     C24531   3.055   8.503   1.958 -0.2055  0.6255  0.8376
  923MOL0     C24532   3.111   8.512   2.093 -0.6240  0.7199  0.5106
  923MOL0     C24533   3.194   8.639   2.102  0.7963  0.5345 -0.3886
  923MOL0     C24534   3.223   8.675   2.243  0.4244  0.9873  0.8522
  923MOL0     C24535   3.252   8.700   2.358  0.4424  0.8564  0.1411
  923MOL0     C24536   2.734   8.210   1.937 -0.1265 -0.9999 -0.5178
  923MOL0     C24537   2.622   8.124   1.966 -0.2004 -0.3273  0.5482
  923MOL0     H24538   2.130   7.993   1.924 -3.0712 -0.0796 -1.7065
  923MOL0     H24539   1.905   7.925   1.962  1.3088  0.0702 -1.2934
  923MOL0     H24540   1.736   7.901   2.389 -1.1498 -2.8300  0.3480
  923MOL0     H24541   1.680   8.061   2.314  1.6915  0.8816 -3.8533
  923MOL0     H24542   1.498   7.961   2.220 -0.1947  0.5629 -0.2707
  923MOL0     H24543   1.542   7.791   2.267  1.1771 -0.4185  0.8132
  923MOL0     H24544   1.548   7.908   2.501  1.1475 -0.7766 -1.3639
  923MOL0     H24545   1.423   8.015   2.422  0.5383 -0.5778 -0.5959
  923MOL0     H24546   1.315   7.774   2.354  1.6774 -0.2557 -0.9874
  923MOL0     H24547   1.425   7.714   2.490  0.7910  1.4669  2.6452
  923MOL0     H24548   1.312   7.831   2.653 -0.9958  0.0155  0.9411
  923MOL0     H24549   1.204   7.904   2.521  2.1305  1.1880  2.1016
  923MOL0     H24550   1.136   7.664   2.489 -3.1492  2.7185  0.4656
  923MOL0     H24551   1.244   7.614   2.630  1.5963  0.0412  0.3170
  923MOL0     H24552   1.052   7.624   2.744  1.3911 -0.0648  0.8913
  923MOL0     H24553   1.106   7.786   2.763 -1.3870 -0.8979  0.3806
  923MOL0     H24554   0.952   7.876   2.578 -2.7071  0.6530  0.6452
  923MOL0     H24555   0.861   7.799   2.702 -0.9355 -0.7492 -0.4653
  923MOL0     H24556   0.773   7.531   2.653 -2.0933 -0.5380 -0.4436
  923MOL0     H24557   0.657   7.362   2.376 -0.3364 -1.1079  2.0195
  923MOL0     H24558   0.579   7.405   2.521 -1.1752  1.6040  0.9318
  923MOL0     H24559   0.533   7.560   2.254 -0.9725  2.7315  1.1306
  923MOL0     H24560   0.436   7.579   2.401 -0.0117  2.2128 -2.5839
  923MOL0     H24561   0.364   7.348   2.402  1.0616  1.4935  1.6600
  923MOL0     H24562   0.458   7.327   2.248  3.1159  2.3171  0.9482
  923MOL0     H24563   0.322   7.534   2.152 -0.6038  1.2594  0.4037
  923MOL0     H24564   0.233   7.549   2.295  0.9546 -0.1520 -0.4079
  923MOL0     H24565   0.036   7.613   2.280 -1.0836  1.8699 -0.9010
  923MOL0     H24566  -0.201   7.742   2.206 -0.6150  0.2266  0.1540
  923MOL0     H24567  -0.311   7.626   2.284  0.4086 -2.6362 -4.6708
  923MOL0     H24568  -0.161   7.676   2.369  0.1288 -1.9238  0.8770
  923MOL0     H24569  -0.441   7.455   1.765 -0.0732  0.5712 -0.7972
  923MOL0     H24570  -0.657   7.526   1.651 -0.0542 -0.1957  0.0278
  923MOL0     H24571  -0.878   7.425   1.587 -2.5883  3.3295  0.3026
  923MOL0     H24572  -0.926   7.295   1.713  1.1858  0.1297  0.7641
  923MOL0     H24573  -1.126   7.407   1.749  3.4200 -2.0066  1.2709
  923MOL0     H24574  -1.090   7.531   1.616 -0.0559  0.4279  0.0549
  923MOL0     H24575  -1.125   7.231   1.560  0.7538 -0.1477 -0.9606
  923MOL0     H24576  -1.107   7.360   1.438 -0.7367 -4.3396 -0.4002
  923MOL0     H24577  -1.331   7.366   1.638 -3.2318  0.5885 -1.1161
  923MOL0     H24578  -1.304   7.472   1.498  0.6444 -0.5692 -0.2443
  923MOL0     H24579  -1.353   7.172   1.476  1.7987  0.5691  1.3736
  923MOL0     H24580  -1.296   7.288   1.345  0.5700  0.6645 -0.5995
  923MOL0     H24581  -1.545   7.317   1.513 -1.2860 -1.2427 -0.5873
  923MOL0     H24582  -1.505   7.417   1.374 -1.9847 -0.5264  0.8821
  923MOL0     H24583  -1.529   7.104   1.368 -1.7419  1.5325  4.2537
  923MOL0     H24584  -1.541   7.209   1.225 -0.9793  0.5049 -0.0875
  923MOL0     H24585  -1.755   7.310   1.311 -1.5223 -1.0747 -0.3747
  923MOL0     H24586  -1.745   7.204   1.448  2.3189 -1.4962  1.4651
  923MOL0     H24587  -0.860   7.397   2.028  1.0866 -0.6985  2.5512
  923MOL0     H24588  -0.652   7.348   2.121 -0.4096  0.7964 -0.1094
  923MOL0     H24589  -0.192   7.287   1.986  0.4345 -0.3551 -0.9943
  923MOL0     H24590   0.049   7.248   2.052  1.5045  1.9372 -2.5250
  923MOL0     H24591   1.935   8.047   2.385  1.3874  0.4942 -0.1968
  923MOL0     H24592   2.146   8.139   2.322  1.2188 -1.8326 -0.6764
  923MOL0     H24593   2.414   8.343   2.111  0.5281  0.8104  0.6730
  923MOL0     H24594   2.611   8.491   2.060 -3.6321  1.3447 -2.0413
  923MOL0     H24595   2.991   8.295   1.982  0.5702  0.6354 -0.5814
  923MOL0     H24596   2.967   8.364   1.821  0.1539  1.4055 -0.1046
  923MOL0     H24597   2.995   8.593   1.939 -1.5093 -0.3495  0.2025
  923MOL0     H24598   3.136   8.506   1.885 -0.4513 -0.6468  0.5003
  923MOL0     H24599   3.190   8.438   2.107 -1.1417  0.0885  0.1632
  923MOL0     H24600   3.030   8.512   2.166 -1.1699  1.4828 -0.0681
  923MOL0     H24601   3.143   8.724   2.056 -1.2892 -0.3613  0.1725
  923MOL0     H24602   3.281   8.619   2.038  0.0274  0.1296 -1.3322
  923MOL0     H24603   3.265   8.700   2.464 -2.2942  2.2393  0.5809
  923MOL0     H24604   2.822   8.166   1.891  1.6029  0.1105  1.5611
  923MOL0     H24605   2.626   8.024   1.924 -2.8311  0.1127 -0.9409
  924MOL0     O24606   5.374  10.116   4.129  0.7757  0.3624 -0.5793
  924MOL0     C24607   5.377  10.104   4.006  0.4577 -0.2916 -0.1125
  924MOL0     O24608   5.276  10.126   3.921  0.9681  0.0760  0.2605
  924MOL0     C24609   5.153  10.164   3.968 -0.0434 -0.2317  0.6237
  924MOL0     C24610   5.065  10.078   4.035 -0.5013  0.1691  0.2621
  924MOL0     C24611   4.948  10.118   4.080 -0.1875 -0.7035  0.1763
  924MOL0     C24612   4.901  10.244   4.043  0.3911 -0.4616 -0.3783
  924MOL0     O24613   4.779  10.283   4.097  0.2531 -0.1095 -0.1821
  924MOL0     C24614   4.719  10.407   4.055  0.1824  0.3937 -0.3268
  924MOL0     C24615   4.598  10.426   4.144 -0.4745 -0.5909 -0.5818
  924MOL0     C24616   4.533  10.552   4.104 -0.4409 -0.0082 -0.0458
  924MOL0     C24617   4.449  10.556   3.979 -0.7022  0.0587 -0.0683
  924MOL0     C24618   4.387  10.689   3.937 -1.0784  0.9933  0.1874
  924MOL0     C24619   4.305  10.764   4.042 -0.1209 -0.6948  0.6598
  924MOL0     C24620   4.200  10.669   4.107  0.7177 -0.2392 -0.3811
  924MOL0     C24621   4.091  10.634   3.994 -0.7385 -0.5784 -0.0880
  924MOL0     N24622   3.973  10.572   4.059 -0.4526 -0.5626  0.1390
  924MOL0     C24623   3.980  10.458   4.126 -0.3536  1.2177 -0.0412
  924MOL0     C24624   3.871  10.452   4.192  0.6901 -0.0397  0.1649
  924MOL0     C24625   3.849  10.354   4.296 -0.3105  0.6920  0.3500
  924MOL0     C24626   3.760  10.235   4.255 -0.5235  0.5108  0.2330
  924MOL0     C24627   3.607  10.257   4.286 -0.3454  0.1977 -0.4613
  924MOL0     C24628   3.529  10.137   4.222 -0.1728 -0.3645 -0.1901
  924MOL0     O24629   3.404  10.192   4.161 -0.8514  0.0637 -0.3381
  924MOL0     C24630   3.297  10.103   4.141 -0.6462 -1.0189  0.1797
  924MOL0     C24631   3.306   9.965   4.151 -0.1369 -0.0721 -0.1314
  924MOL0     C24632   3.204   9.878   4.109  0.5877 -0.7176 -0.3324
  924MOL0     C24633   3.224   9.729   4.117  0.2076 -0.4085 -0.0126
  924MOL0     C24634   3.078   9.935   4.070  0.4174 -0.0835 -0.1105
  924MOL0     C24635   2.951   9.860   4.030  0.0432  0.5070  0.1968
  924MOL0     O24636   2.838   9.909   4.070  0.6748 -0.2899 -0.7183
  924MOL0     C24637   2.728   9.826   4.079  0.4439 -0.4435 -0.0168
  924MOL0     C24638   2.651   9.848   4.194  0.1749  0.0713 -0.0675
  924MOL0     C24639   2.529   9.791   4.212 -0.0429  0.3857  0.0190
  924MOL0     C24640   2.472   9.706   4.116  0.1632 -0.1119  0.3687
  924MOL0     O24641   2.350   9.641   4.119  0.4504 -0.2945  0.0966
  924MOL0     C24642   2.301   9.600   4.249  0.6575  0.3057 -0.6698
  924MOL0     C24643   2.149   9.591   4.239  0.2541  0.4245 -0.5967
  924MOL0     C24644   2.109   9.506   4.367  0.0229 -0.0643  0.5366
  924MOL0     C24645   1.969   9.457   4.345 -0.1985  0.4053 -0.0375
  924MOL0     C24646   1.910   9.392   4.474  0.3966 -1.2521  0.4151
  924MOL0     C24647   1.762   9.362   4.490  0.0871  0.3983 -0.9030
  924MOL0     C24648   1.711   9.276   4.368  0.4699 -0.5510  0.2864
  924MOL0     C24649   1.568   9.237   4.399 -0.3597 -0.6757 -0.5854
  924MOL0    Cl24650   1.519   9.138   4.264 -0.0413  0.0459  0.1749
  924MOL0     C24651   2.553   9.679   4.001 -0.1860 -0.2827 -0.4315
  924MOL0     C24652   2.676   9.739   3.981 -1.4151 -0.5550 -0.2853
  924MOL0     O24653   2.966   9.757   3.964 -0.0243  0.4641  0.7461
  924MOL0     C24654   3.072  10.074   4.069  0.4191  0.4587  0.2307
  924MOL0     C24655   3.179  10.159   4.101  0.7134 -0.5715 -0.9263
  924MOL0     N24656   3.782  10.559   4.167  0.1406 -0.2492 -0.0846
  924MOL0     N24657   3.849  10.630   4.084  0.4110 -0.5411 -0.3167
  924MOL0     C24658   4.987  10.334   3.980 -0.5750  0.6734 -0.4566
  924MOL0     C24659   5.118  10.295   3.951  0.3782 -0.6076 -0.5782
  924MOL0     C24660   5.507  10.062   3.952  0.1470  0.4896  0.6908
  924MOL0     C24661   5.501  10.039   3.811 -0.5561  0.9939 -0.2521
  924MOL0     C24662   5.621   9.992   3.748 -0.2690  0.8646  0.3388
  924MOL0     C24663   5.744   9.987   3.814  0.0551 -0.1815  0.1065
  924MOL0     O24664   5.863   9.941   3.750 -0.2130 -0.6645  0.5178
  924MOL0     C24665   5.862   9.791   3.740  0.8652  0.3981 -0.5371
  924MOL0     C24666   5.878   9.761   3.591  0.5762 -0.0101 -0.8000
  924MOL0     C24667   5.892   9.608   3.565  0.6748 -0.2102  0.1482
  924MOL0     C24668   5.894   9.596   3.415 -0.4053  0.2598 -1.0497
  924MOL0     C24669   5.890   9.464   3.351 -0.3961  1.8562 -0.1090
  924MOL0     C24670   5.893   9.348   3.297  0.6651  0.5006 -0.4588
  924MOL0     C24671   5.747  10.005   3.948 -0.0934 -0.7612 -0.2308
  924MOL0     C24672   5.626  10.037   4.017  0.2230 -0.9818 -1.2343
  924MOL0     H24673   5.108   9.989   4.079 -3.1116 -0.0215  2.6556
  924MOL0     H24674   4.893  10.068   4.159  1.4425  0.6931  2.3443
  924MOL0     H24675   4.794  10.486   4.057 -1.4669  2.0057 -0.2963
  924MOL0     H24676   4.676  10.389   3.956 -0.0676  1.6588 -0.4537
  924MOL0     H24677   4.526  10.344   4.129 -2.5015  0.9510  0.2588
  924MOL0     H24678   4.625  10.423   4.250 -1.5520  0.2888 -0.2597
  924MOL0     H24679   4.461  10.575   4.183 -0.1991  0.0019  0.1720
  924MOL0     H24680   4.606  10.634   4.103  0.0151 -0.4001 -1.5663
  924MOL0     H24681   4.513  10.528   3.895  0.0582 -1.8723  1.0721
  924MOL0     H24682   4.369  10.482   3.977 -0.4813 -0.1596 -1.0954
  924MOL0     H24683   4.460  10.761   3.900 -0.3934 -0.4779 -1.4690
  924MOL0     H24684   4.322  10.674   3.850 -0.6509  2.5704 -0.4427
  924MOL0     H24685   4.366  10.809   4.120 -0.0261 -0.1551  0.2734
  924MOL0     H24686   4.252  10.840   3.985 -1.2278 -2.8065 -1.2867
  924MOL0     H24687   4.247  10.579   4.149  3.0786  1.4696  0.9211
  924MOL0     H24688   4.144  10.715   4.189 -0.7209 -0.0298 -1.4541
  924MOL0     H24689   4.139  10.557   3.932  2.2978 -0.5871  2.0872
  924MOL0     H24690   4.056  10.723   3.941  2.1573  2.1486  2.2079
  924MOL0     H24691   4.069  10.394   4.124  0.5151  2.2284 -4.5095
  924MOL0     H24692   3.948  10.312   4.316 -1.2815 -0.6738  2.5827
  924MOL0     H24693   3.804  10.394   4.387 -2.4610 -0.3663 -0.1794
  924MOL0     H24694   3.794  10.147   4.310 -2.9223 -1.4519 -1.1964
  924MOL0     H24695   3.776  10.217   4.148 -1.6404 -2.3487  0.4804
  924MOL0     H24696   3.582  10.358   4.253  0.6324  0.6588  0.1676
  924MOL0     H24697   3.588  10.254   4.394  0.4076 -0.1325 -0.3319
  924MOL0     H24698   3.496  10.073   4.305  0.6959  0.7969  1.0942
  924MOL0     H24699   3.596  10.078   4.159 -0.1680 -1.6672  0.9838
  924MOL0     H24700   3.408   9.935   4.172 -0.0543  0.0955 -0.2856
  924MOL0     H24701   3.284   9.712   4.206  1.6160  1.1761 -0.6207
  924MOL0     H24702   3.134   9.669   4.136  0.3513 -0.7957 -0.5007
  924MOL0     H24703   3.269   9.689   4.025 -2.0720  0.9931 -1.8649
  924MOL0     H24704   2.683   9.915   4.274  0.0429  1.9698 -1.5252
  924MOL0     H24705   2.488   9.816   4.309 -1.4045 -2.4377  0.2897
  924MOL0     H24706   2.334   9.499   4.275 -0.7338 -0.4579 -1.7388
  924MOL0     H24707   2.330   9.669   4.328  0.0092  0.1074 -0.2475
  924MOL0     H24708   2.107   9.692   4.243 -1.7161 -0.3637 -0.3228
  924MOL0     H24709   2.113   9.545   4.147 -0.1131  0.1068 -0.2964
  924MOL0     H24710   2.114   9.565   4.458  0.6247  0.6562  0.0430
  924MOL0     H24711   2.167   9.415   4.387  1.3656  0.4487 -0.8602
  924MOL0     H24712   1.890   9.529   4.318 -1.6176 -1.0513  0.0692
  924MOL0     H24713   1.971   9.381   4.267  1.1046 -0.9618  1.2618
  924MOL0     H24714   1.929   9.468   4.551 -2.8135  1.5630 -1.3410
  924MOL0     H24715   1.967   9.301   4.500 -1.1982 -2.3209  0.2993
  924MOL0     H24716   1.743   9.309   4.585 -0.2021  0.3045 -1.0136
  924MOL0     H24717   1.703   9.453   4.491 -3.9055 -1.9452 -1.3861
  924MOL0     H24718   1.768   9.182   4.368  0.7090 -0.4065  0.8058
  924MOL0     H24719   1.732   9.318   4.269  0.4852 -0.6657  0.2398
  924MOL0     H24720   1.523   9.336   4.394  0.9251 -0.0545 -0.3413
  924MOL0     H24721   1.560   9.180   4.493  0.7886  0.0819  0.0071
  924MOL0     H24722   2.510   9.599   3.942 -2.7321  0.9248 -0.3403
  924MOL0     H24723   2.721   9.708   3.888  1.0270  1.3038  0.1792
  924MOL0     H24724   2.980  10.122   4.037 -0.8107 -1.5461  0.5669
  924MOL0     H24725   3.183  10.267   4.112  1.2055 -0.6564 -0.2481
  924MOL0     H24726   4.955  10.431   3.944 -2.5629  0.7524  1.3796
  924MOL0     H24727   5.194  10.352   3.898 -1.1144  2.7905  0.6483
  924MOL0     H24728   5.412  10.046   3.748  0.0736  0.4459 -1.2363
  924MOL0     H24729   5.622   9.958   3.645 -1.7997  1.2821  0.1625
  924MOL0     H24730   5.938   9.743   3.802  0.0425  0.2038  0.3465
  924MOL0     H24731   5.766   9.755   3.777  1.5532  1.3575  2.4698
  924MOL0     H24732   5.958   9.826   3.555  0.2719  0.5439 -0.5013
  924MOL0     H24733   5.793   9.804   3.536  0.8346  0.8821 -0.5224
  924MOL0     H24734   5.809   9.552   3.610  1.2405 -2.6306 -1.6324
  924MOL0     H24735   5.991   9.578   3.600  1.6132 -0.0242 -2.1669
  924MOL0     H24736   5.975   9.653   3.370 -1.3221  0.9944 -1.8194
  924MOL0     H24737   5.802   9.641   3.376  0.0007  0.6684 -1.5530
  924MOL0     H24738   5.905   9.248   3.261  3.6467  0.2202  1.0100
  924MOL0     H24739   5.838   9.983   4.004 -0.3983 -2.2477 -0.2762
  924MOL0     H24740   5.633  10.050   4.124 -5.5225  0.2635 -0.6671
  925MOL0     O24741   4.780  10.362   5.295 -0.0382  0.4586 -0.1132
  925MOL0     C24742   4.843  10.423   5.377  0.3788  0.0366 -0.4975
  925MOL0     O24743   4.784  10.507   5.467  0.1849  0.4106  0.4742
  925MOL0     C24744   4.657  10.549   5.443 -0.0390  0.2062  0.2198
  925MOL0     C24745   4.626  10.653   5.352 -0.4891  0.9959 -1.1536
  925MOL0     C24746   4.495  10.688   5.337  0.4752 -0.4783 -1.0494
  925MOL0     C24747   4.386  10.624   5.401  0.3343 -0.1220 -0.2080
  925MOL0     O24748   4.260  10.665   5.362 -1.0513 -0.8402  0.7750
  925MOL0     C24749   4.148  10.618   5.434  0.1282  0.4875 -0.6440
  925MOL0     C24750   4.010  10.661   5.365 -1.2060  0.3509 -0.0465
  925MOL0     C24751   3.985  10.571   5.245 -1.0940 -0.3075  0.1764
  925MOL0     C24752   3.883  10.633   5.153  0.2204  0.3930 -0.4655
  925MOL0     C24753   3.855  10.561   5.013 -0.5055  0.5536  0.2814
  925MOL0     C24754   3.956  10.576   4.891  0.9161  0.7786 -0.8990
  925MOL0     C24755   3.911  10.507   4.759  0.0382  1.3445 -0.8179
  925MOL0     C24756   4.018  10.529   4.654 -1.6558 -0.3697  0.7169
  925MOL0     N24757   3.996  10.657   4.588  0.6482  0.4573 -0.3875
  925MOL0     C24758   3.890  10.669   4.504  0.2483  0.6613  1.1067
  925MOL0     C24759   3.885  10.801   4.484 -0.8207  0.3142  0.8166
  925MOL0     C24760   3.782  10.887   4.419  0.1489  0.5646 -0.0834
  925MOL0     C24761   3.846  10.990   4.322 -0.6043  0.2452 -0.5575
  925MOL0     C24762   3.767  11.105   4.259  0.4313  1.2354 -0.6274
  925MOL0     C24763   3.825  11.175   4.130  0.5524  0.7140  0.7895
  925MOL0     O24764   3.765  11.305   4.117  0.6499 -0.5510  0.1065
  925MOL0     C24765   3.631  11.323   4.080 -0.2281  0.5472  0.2194
  925MOL0     C24766   3.581  11.452   4.085 -0.4833  0.2788 -0.0968
  925MOL0     C24767   3.454  11.487   4.046 -0.4563 -1.2012  0.4379
  925MOL0     C24768   3.415  11.632   4.041  0.1209 -0.3776 -0.1841
  925MOL0     C24769   3.367  11.381   4.001  0.1023 -1.5613  0.5804
  925MOL0     C24770   3.226  11.404   3.954  0.3312  0.0870 -0.4714
  925MOL0     O24771   3.144  11.474   4.029  0.3519  0.5689  0.1075
  925MOL0     C24772   3.035  11.520   3.963  0.2679  0.2274 -0.0878
  925MOL0     C24773   2.909  11.467   3.990 -0.5911 -0.5875 -0.1186
  925MOL0     C24774   2.799  11.523   3.925  0.8780 -0.4360 -0.5831
  925MOL0     C24775   2.806  11.629   3.837  0.2509  0.1064  0.1980
  925MOL0     O24776   2.699  11.685   3.764 -0.0622 -0.1082 -0.5218
  925MOL0     C24777   2.571  11.623   3.789 -0.4529 -0.9381 -0.5001
  925MOL0     C24778   2.463  11.722   3.724  0.1370 -0.4122 -0.8981
  925MOL0     C24779   2.321  11.698   3.789 -0.4055 -0.1456  0.5150
  925MOL0     C24780   2.244  11.580   3.718 -0.2700  0.5713  0.0134
  925MOL0     C24781   2.121  11.541   3.805 -0.4699 -0.0334  0.2939
  925MOL0     C24782   1.998  11.505   3.721  0.5676  0.5379 -0.2067
  925MOL0     C24783   1.870  11.495   3.811  0.5853  0.0473 -0.1184
  925MOL0     C24784   1.787  11.624   3.793  0.4760 -0.0551  0.0473
  925MOL0    Cl24785   1.655  11.606   3.914 -0.3921 -0.2532 -0.0315
  925MOL0     C24786   2.932  11.686   3.815  0.9436  0.2871 -0.6860
  925MOL0     C24787   3.043  11.628   3.875  0.3765  0.1971 -0.4392
  925MOL0     O24788   3.199  11.356   3.847  0.9599  0.2854  0.1205
  925MOL0     C24789   3.417  11.248   3.987 -0.6422 -0.3474  0.5294
  925MOL0     C24790   3.552  11.220   4.027  0.9592  0.3725  0.2393
  925MOL0     N24791   3.982  10.860   4.556  0.2496  0.3490  0.2266
  925MOL0     N24792   4.067  10.771   4.599 -0.2606 -0.0271 -0.0681
  925MOL0     C24793   4.418  10.517   5.481 -0.0873 -0.2297 -0.0540
  925MOL0     C24794   4.552  10.478   5.504 -0.3859  0.0440  0.8782
  925MOL0     C24795   4.986  10.413   5.369 -0.1468  0.6508  1.0525
  925MOL0     C24796   5.045  10.291   5.338 -0.3151  0.2537  0.8505
  925MOL0     C24797   5.184  10.280   5.330 -0.4794  0.3099  0.4198
  925MOL0     C24798   5.268  10.390   5.362  0.8814  0.1759 -0.4994
  925MOL0     O24799   5.400  10.389   5.364 -0.3704  0.3930 -0.3467
  925MOL0     C24800   5.464  10.261   5.384 -0.9220  0.0956 -0.3068
  925MOL0     C24801   5.608  10.264   5.423 -0.2616 -1.0795  0.0876
  925MOL0     C24802   5.687  10.360   5.335  0.2453  0.0224  0.9434
  925MOL0     C24803   5.833  10.323   5.306  0.3276  0.1994  0.5510
  925MOL0     C24804   5.911  10.336   5.429  0.0124  0.9140  0.2303
  925MOL0     C24805   5.995  10.353   5.517 -0.1096 -0.0466 -0.2617
  925MOL0     C24806   5.209  10.506   5.404 -0.2505 -0.9033  0.1407
  925MOL0     C24807   5.071  10.517   5.407  0.6626 -0.3557 -0.2392
  925MOL0     H24808   4.703  10.719   5.312  1.2291  0.3277  0.8860
  925MOL0     H24809   4.460  10.771   5.276 -1.1092 -0.9976 -0.8812
  925MOL0     H24810   4.144  10.510   5.450 -1.1688  0.7786  1.4759
  925MOL0     H24811   4.154  10.671   5.530  3.7616 -1.3813  0.3368
  925MOL0     H24812   3.929  10.654   5.438 -0.1556  2.0188  1.3647
  925MOL0     H24813   4.020  10.764   5.330 -0.2039  0.8138  1.4927
  925MOL0     H24814   4.082  10.562   5.195 -1.1990 -1.6068  0.1716
  925MOL0     H24815   3.960  10.468   5.273  0.8613 -0.5789  1.0783
  925MOL0     H24816   3.789  10.640   5.207  0.8864  1.2832  0.6352
  925MOL0     H24817   3.918  10.736   5.138 -1.4788  0.7330 -2.4654
  925MOL0     H24818   3.843  10.452   5.017 -0.5740  0.3785 -2.6856
  925MOL0     H24819   3.764  10.603   4.969  0.4530 -0.6956 -3.1658
  925MOL0     H24820   3.984  10.681   4.889 -1.3648  2.2540  7.2172
  925MOL0     H24821   4.046  10.518   4.915  1.4525  2.4976  1.5421
  925MOL0     H24822   3.905  10.399   4.771 -0.1725  1.4732  0.4092
  925MOL0     H24823   3.808  10.543   4.746 -0.2641  0.2584 -1.5295
  925MOL0     H24824   4.000  10.446   4.586 -0.7953  0.1261 -0.1634
  925MOL0     H24825   4.117  10.529   4.701 -0.5458  0.9178 -1.3994
  925MOL0     H24826   3.839  10.594   4.445  2.2330 -0.0756  0.2453
  925MOL0     H24827   3.716  10.821   4.362 -1.1508  2.0812 -0.4061
  925MOL0     H24828   3.725  10.943   4.494 -1.3002 -2.4053  1.1640
  925MOL0     H24829   3.887  10.931   4.240 -1.6879 -0.9182 -0.2926
  925MOL0     H24830   3.928  11.038   4.377 -1.9224 -1.9168  3.7915
  925MOL0     H24831   3.769  11.181   4.338  0.6933  0.8973 -0.3064
  925MOL0     H24832   3.667  11.069   4.235  0.2290  0.2021  1.4900
  925MOL0     H24833   3.803  11.114   4.041 -1.2037  0.4539  1.3591
  925MOL0     H24834   3.933  11.186   4.139  0.5416  0.2552  1.4984
  925MOL0     H24835   3.645  11.527   4.129  1.1723 -1.5325  0.6925
  925MOL0     H24836   3.314  11.643   4.000  0.2151 -0.4923 -0.4479
  925MOL0     H24837   3.447  11.696   4.124  3.4181 -1.1848 -0.6875
  925MOL0     H24838   3.488  11.674   3.971  2.7878 -0.7413  2.2005
  925MOL0     H24839   2.891  11.382   4.054  2.3694 -0.8813  0.4912
  925MOL0     H24840   2.711  11.465   3.950  1.2705 -0.2159  1.4521
  925MOL0     H24841   2.572  11.525   3.741 -1.1467 -1.1231 -0.1655
  925MOL0     H24842   2.557  11.603   3.896  2.0693  0.2771  0.1255
  925MOL0     H24843   2.502  11.823   3.739  2.6091 -1.6951  2.4206
  925MOL0     H24844   2.455  11.720   3.615  1.6536 -0.4873 -1.0268
  925MOL0     H24845   2.266  11.793   3.784  0.3860  0.2794 -2.6949
  925MOL0     H24846   2.337  11.677   3.895  0.2841  0.8023  0.6175
  925MOL0     H24847   2.219  11.604   3.614 -0.2705  3.1424  0.5573
  925MOL0     H24848   2.318  11.499   3.717  0.0609  0.8744 -0.5183
  925MOL0     H24849   2.104  11.636   3.856 -0.8347  0.0129  0.0890
  925MOL0     H24850   2.148  11.466   3.880  0.7105 -2.4925 -2.4039
  925MOL0     H24851   1.987  11.591   3.655  0.3763 -1.3624 -2.8128
  925MOL0     H24852   2.013  11.407   3.674 -0.8100 -0.4350  1.2746
  925MOL0     H24853   1.891  11.475   3.917 -1.8028  0.4978  0.4913
  925MOL0     H24854   1.814  11.408   3.778  0.1081  0.6597 -0.9565
  925MOL0     H24855   1.737  11.626   3.696  2.4829 -3.2614 -1.1842
  925MOL0     H24856   1.846  11.713   3.819  0.8415 -0.2477 -0.1293
  925MOL0     H24857   2.941  11.776   3.755  2.2131  1.7033  1.5069
  925MOL0     H24858   3.141  11.673   3.858  1.3477 -1.7889 -0.4981
  925MOL0     H24859   3.362  11.170   3.935 -0.5760  0.3784 -0.6893
  925MOL0     H24860   3.585  11.119   4.007  0.4680  0.9112 -4.7333
  925MOL0     H24861   4.339  10.451   5.515 -1.1376  0.3334 -1.2991
  925MOL0     H24862   4.569  10.393   5.570 -0.1147  1.2081  2.3580
  925MOL0     H24863   4.974  10.210   5.325 -1.8559  1.5928  0.6191
  925MOL0     H24864   5.226  10.185   5.298 -2.7193 -0.7968  0.5882
  925MOL0     H24865   5.417  10.189   5.452  0.4170  0.4886  1.0887
  925MOL0     H24866   5.459  10.220   5.282 -1.2977  1.3619 -0.8171
  925MOL0     H24867   5.647  10.163   5.436  0.4223 -0.6685  1.4452
  925MOL0     H24868   5.628  10.298   5.525  3.0382 -0.3270 -0.6890
  925MOL0     H24869   5.678  10.463   5.371 -2.4437  0.1101  0.2637
  925MOL0     H24870   5.629  10.359   5.243  0.5917  1.7782  0.6696
  925MOL0     H24871   5.882  10.390   5.235 -0.2375 -0.2755 -0.2980
  925MOL0     H24872   5.824  10.219   5.271 -3.8120  0.4195  0.4493
  925MOL0     H24873   6.072  10.374   5.589 -0.4082 -0.3729  0.1572
  925MOL0     H24874   5.265  10.596   5.427  0.0250 -1.4367  1.6912
  925MOL0     H24875   5.028  10.613   5.431 -1.5904 -1.6820  1.4245
  926MOL0     O24876   2.634   8.120   5.396 -0.4775  0.2274 -0.1134
  926MOL0     C24877   2.627   8.163   5.279  0.2275  0.7450  0.3093
  926MOL0     O24878   2.538   8.120   5.189  0.3801 -0.1629 -0.0696
  926MOL0     C24879   2.442   8.026   5.214 -0.2298 -0.0213 -1.7320
  926MOL0     C24880   2.305   8.055   5.234 -0.4986 -0.9061 -0.0221
  926MOL0     C24881   2.224   7.951   5.269  0.3946  0.3094  0.0620
  926MOL0     C24882   2.272   7.814   5.283 -0.7983 -0.7342  0.6864
  926MOL0     O24883   2.189   7.706   5.306 -0.9196 -0.0480 -0.1219
  926MOL0     C24884   2.051   7.733   5.342  0.0245  0.0508  0.9094
  926MOL0     C24885   2.007   7.604   5.395  0.9120  1.1059 -0.9456
  926MOL0     C24886   1.872   7.622   5.463  0.1075  0.1137  0.2626
  926MOL0     C24887   1.794   7.488   5.492  0.1950  0.1074  0.3975
  926MOL0     C24888   1.662   7.500   5.575 -0.2946  0.5137  0.3016
  926MOL0     C24889   1.534   7.512   5.491 -0.7997  0.4796  0.3393
  926MOL0     C24890   1.412   7.531   5.579 -0.2596  0.7737  0.3347
  926MOL0     C24891   1.361   7.400   5.639 -0.0970  0.1805  0.5170
  926MOL0     N24892   1.256   7.414   5.737  0.4034 -0.1413 -0.2364
  926MOL0     C24893   1.137   7.463   5.695 -0.3936 -0.6453 -0.4795
  926MOL0     C24894   1.054   7.439   5.805 -0.0521  0.3979  0.4936
  926MOL0     C24895   0.907   7.459   5.820  0.4075 -0.0103 -0.1193
  926MOL0     C24896   0.863   7.602   5.825 -0.4151  0.3983 -0.3811
  926MOL0     C24897   0.830   7.638   5.960 -0.5614 -0.1543 -0.4057
  926MOL0     C24898   0.783   7.786   5.968 -1.0563  0.0384  0.4392
  926MOL0     O24899   0.656   7.805   5.896 -0.7264  0.1861  0.5524
  926MOL0     C24900   0.557   7.881   5.952 -0.1575 -0.1697  1.3208
  926MOL0     C24901   0.573   7.972   6.050  0.2549 -0.2797 -0.7789
  926MOL0     C24902   0.458   8.034   6.107  0.2340 -0.2108  0.0934
  926MOL0     C24903   0.482   8.152   6.203 -1.4012  0.1636 -0.1487
  926MOL0     C24904   0.327   8.005   6.058 -0.0978  0.0897  0.5687
  926MOL0     C24905   0.205   8.077   6.105 -0.8465 -0.1515 -0.3219
  926MOL0     O24906   0.103   8.078   6.016 -0.2718 -0.4079 -0.0783
  926MOL0     C24907  -0.031   8.087   6.058 -0.5564  0.6115  0.1858
  926MOL0     C24908  -0.080   8.021   6.174  0.7982  0.7439 -0.5212
  926MOL0     C24909  -0.208   8.045   6.220  0.2158 -0.3670 -0.8797
  926MOL0     C24910  -0.296   8.131   6.151 -0.0056  0.3410 -0.7418
  926MOL0     O24911  -0.425   8.155   6.189  0.2048  0.2806 -1.1828
  926MOL0     C24912  -0.488   8.050   6.268 -0.0086 -0.6510 -0.6876
  926MOL0     C24913  -0.638   8.084   6.293 -0.4771  0.4200  0.2170
  926MOL0     C24914  -0.722   7.963   6.345  0.5329  0.0576  0.0193
  926MOL0     C24915  -0.862   7.995   6.350  0.3923  0.0161 -0.1875
  926MOL0     C24916  -0.948   7.875   6.397  0.8084 -0.3271  0.2504
  926MOL0     C24917  -0.967   7.758   6.296 -0.4280  0.1494  0.0617
  926MOL0     C24918  -1.022   7.635   6.368 -0.3292 -0.3350 -0.1125
  926MOL0     C24919  -1.037   7.512   6.270 -0.2437  0.1181  0.1543
  926MOL0    Cl24920  -1.152   7.397   6.353 -0.1546 -0.3307  0.3176
  926MOL0     C24921  -0.244   8.193   6.034  0.1070 -0.3188 -0.1858
  926MOL0     C24922  -0.115   8.166   5.983 -0.0746  0.2519  0.7186
  926MOL0     O24923   0.205   8.149   6.205 -0.2289  0.4931 -0.5709
  926MOL0     C24924   0.313   7.917   5.949 -0.9821  0.5005 -0.3053
  926MOL0     C24925   0.430   7.850   5.910  0.9257 -0.4663  0.7563
  926MOL0     N24926   1.134   7.399   5.907 -0.3615  0.3029  0.3594
  926MOL0     N24927   1.253   7.382   5.867 -0.2836 -0.3461 -0.1275
  926MOL0     C24928   2.405   7.795   5.269 -0.1060  0.5684  0.6594
  926MOL0     C24929   2.493   7.896   5.245 -0.5920  0.6832  0.0868
  926MOL0     C24930   2.722   8.276   5.232  0.7970 -0.4097 -0.0076
  926MOL0     C24931   2.734   8.299   5.096 -0.7080 -0.3768  0.3601
  926MOL0     C24932   2.837   8.379   5.048 -0.7611 -0.4785 -0.1149
  926MOL0     C24933   2.937   8.435   5.137 -0.8369 -0.2317  0.0838
  926MOL0     O24934   3.051   8.511   5.117  0.2583  0.0234  0.6251
  926MOL0     C24935   3.042   8.584   4.993  0.8560  0.1358  0.8168
  926MOL0     C24936   3.142   8.700   4.997  0.7319  0.1641  0.7091
  926MOL0     C24937   3.220   8.718   4.862  0.5557  0.0162  0.0791
  926MOL0     C24938   3.332   8.831   4.868  0.4848 -0.5817  0.5477
  926MOL0     C24939   3.402   8.831   4.736  0.1371 -0.0869 -0.3831
  926MOL0     C24940   3.458   8.832   4.630 -0.1338  0.6718  0.5478
  926MOL0     C24941   2.921   8.412   5.278 -0.6530 -0.8113  0.6633
  926MOL0     C24942   2.805   8.341   5.321 -0.7711  0.1160 -0.5816
  926MOL0     H24943   2.271   8.158   5.234 -0.2816 -0.8198 -1.5676
  926MOL0     H24944   2.123   7.986   5.287  0.4719 -0.5633  2.6862
  926MOL0     H24945   2.049   7.812   5.417 -0.9492  0.5474  0.3809
  926MOL0     H24946   1.980   7.766   5.266 -0.6918  3.7359  2.9567
  926MOL0     H24947   1.992   7.529   5.317  3.4883  0.9443 -1.3827
  926MOL0     H24948   2.084   7.567   5.464  1.9239  1.3756 -1.9089
  926MOL0     H24949   1.905   7.673   5.553 -3.3328  1.3667  0.9240
  926MOL0     H24950   1.804   7.684   5.405  1.0796 -0.5040 -1.6435
  926MOL0     H24951   1.763   7.437   5.400 -0.1988 -0.8775  1.0625
  926MOL0     H24952   1.856   7.417   5.547 -3.4144 -2.8988  0.9366
  926MOL0     H24953   1.655   7.410   5.636 -0.3006  0.7719  0.6832
  926MOL0     H24954   1.673   7.587   5.640  1.0015  1.4726 -1.1148
  926MOL0     H24955   1.543   7.598   5.423 -0.1939 -0.8764 -1.3695
  926MOL0     H24956   1.520   7.431   5.418 -0.7022  2.5078 -2.1004
  926MOL0     H24957   1.447   7.596   5.660  0.5180 -0.3157  0.8932
  926MOL0     H24958   1.333   7.583   5.524  0.1721  0.8361 -0.2314
  926MOL0     H24959   1.442   7.340   5.681 -1.7637 -1.2096  1.8880
  926MOL0     H24960   1.321   7.337   5.559 -0.6842 -3.1780  3.2721
  926MOL0     H24961   1.107   7.499   5.597  0.7418  1.2151 -0.1838
  926MOL0     H24962   0.862   7.430   5.724  0.9103  0.6330 -0.5606
  926MOL0     H24963   0.881   7.398   5.907  0.6209  0.6079  0.3826
  926MOL0     H24964   0.778   7.611   5.757 -0.0789  0.9991 -0.7331
  926MOL0     H24965   0.937   7.668   5.778  0.5626  0.2449  0.8805
  926MOL0     H24966   0.920   7.613   6.018 -0.4612 -0.6809 -0.7798
  926MOL0     H24967   0.750   7.574   5.997 -0.0379  0.6077  2.2956
  926MOL0     H24968   0.857   7.850   5.919 -1.6963  0.0588 -0.5433
  926MOL0     H24969   0.774   7.805   6.075  1.5131 -0.7458  0.8504
  926MOL0     H24970   0.673   7.995   6.085  0.0510 -1.9507  1.0418
  926MOL0     H24971   0.452   8.244   6.152  0.6810  0.8808 -0.1776
  926MOL0     H24972   0.444   8.141   6.305 -0.7294  0.4280  0.1387
  926MOL0     H24973   0.590   8.155   6.222 -2.0127  2.2702  4.1431
  926MOL0     H24974  -0.015   7.962   6.236 -1.7089  0.0813  1.6544
  926MOL0     H24975  -0.236   7.994   6.311  0.0946 -1.0708 -1.3044
  926MOL0     H24976  -0.476   7.962   6.204  2.5671  1.0606 -2.8010
  926MOL0     H24977  -0.440   8.045   6.366  1.6637  1.2835 -1.3247
  926MOL0     H24978  -0.630   8.165   6.365  2.4906  0.9290 -0.5551
  926MOL0     H24979  -0.684   8.116   6.199  0.8399  2.1917  0.1246
  926MOL0     H24980  -0.691   7.935   6.446  2.2624  5.2174  1.2509
  926MOL0     H24981  -0.692   7.873   6.290  2.5056  0.2473  0.6964
  926MOL0     H24982  -0.878   8.083   6.414 -1.8159 -0.3267 -0.1716
  926MOL0     H24983  -0.906   8.026   6.255 -2.2682  0.8703  1.2020
  926MOL0     H24984  -1.041   7.931   6.410  1.2403  0.3638  0.3583
  926MOL0     H24985  -0.925   7.853   6.501  0.0576  0.6289  0.6391
  926MOL0     H24986  -1.024   7.784   6.206 -0.9159 -1.1377 -0.0239
  926MOL0     H24987  -0.866   7.730   6.264 -1.6155 -2.5279 -1.6987
  926MOL0     H24988  -1.122   7.654   6.409  0.2463  2.5382  0.1529
  926MOL0     H24989  -0.958   7.596   6.448 -0.3809 -1.0200 -0.3967
  926MOL0     H24990  -0.937   7.471   6.251  0.0459  0.5085  0.8149
  926MOL0     H24991  -1.076   7.540   6.172 -1.1626  0.4166  0.6004
  926MOL0     H24992  -0.320   8.257   5.991  1.5105  1.9792  0.5598
  926MOL0     H24993  -0.082   8.211   5.890 -1.4397 -1.9127 -0.8978
  926MOL0     H24994   0.214   7.901   5.908 -0.7695  2.8837 -1.9509
  926MOL0     H24995   0.408   7.778   5.833  3.9636 -0.5636 -0.1477
  926MOL0     H24996   2.455   7.699   5.279  0.5672  0.8778  0.2873
  926MOL0     H24997   2.600   7.882   5.251 -0.3803  2.3531  1.0072
  926MOL0     H24998   2.681   8.254   5.013  2.3180  0.2270 -2.1250
  926MOL0     H24999   2.844   8.381   4.940 -0.0063 -1.3930 -0.1003
  926MOL0     H25000   3.073   8.514   4.914  0.4522  0.4487  0.3720
  926MOL0     H25001   2.939   8.612   4.967  0.2023 -1.6172  1.3840
  926MOL0     H25002   3.203   8.680   5.086  0.9706 -1.8767  0.1437
  926MOL0     H25003   3.089   8.795   5.007  1.7805  0.7454  0.9113
  926MOL0     H25004   3.149   8.756   4.789  2.8013  2.5082 -0.9658
  926MOL0     H25005   3.265   8.626   4.824  0.3635  1.4017 -3.9358
  926MOL0     H25006   3.403   8.815   4.950  0.4137  1.4480  1.0465
  926MOL0     H25007   3.284   8.927   4.889 -2.0705 -1.3408 -1.2793
  926MOL0     H25008   3.516   8.833   4.540 -0.2353 -1.0564  0.4439
  926MOL0     H25009   2.980   8.454   5.359 -1.7371  1.2608  0.4224
  926MOL0     H25010   2.775   8.340   5.425  0.3754 -0.5418 -0.2356
  927MOL0     O25011   8.539   0.306   5.222 -0.0329  0.0495 -0.6414
  927MOL0     C25012   8.623   0.326   5.315 -0.3369  1.1967  0.3408
  927MOL0     O25013   8.600   0.330   5.457  0.3450  0.4971  0.1725
  927MOL0     C25014   8.470   0.349   5.506  0.3877 -0.7882  0.0970
  927MOL0     C25015   8.453   0.325   5.649 -0.2348 -0.7819  0.0399
  927MOL0     C25016   8.331   0.349   5.707 -0.3381  0.6682 -0.3409
  927MOL0     C25017   8.223   0.399   5.637 -0.3295 -0.3800  0.6409
  927MOL0     O25018   8.103   0.434   5.705  0.2003 -0.0969  0.0006
  927MOL0     C25019   7.982   0.407   5.632  0.0156 -0.3686 -0.5004
  927MOL0     C25020   7.872   0.402   5.737 -0.9417 -0.0904  0.4517
  927MOL0     C25021   7.742   0.380   5.665 -1.0742  0.0661 -0.8839
  927MOL0     C25022   7.675   0.520   5.640  0.1646 -1.3512  0.3141
  927MOL0     C25023   7.542   0.505   5.562  0.2811 -0.2432  1.4264
  927MOL0     C25024   7.428   0.452   5.652  1.0759  0.0266  0.3323
  927MOL0     C25025   7.363   0.560   5.738  0.0240 -0.6687 -0.0620
  927MOL0     C25026   7.271   0.516   5.846  0.0093  0.3080  0.3539
  927MOL0     N25027   7.143   0.465   5.785  0.0433  0.8039 -0.9016
  927MOL0     C25028   7.051   0.530   5.712 -0.1452  0.4763  0.6696
  927MOL0     C25029   6.942   0.453   5.710 -0.5501  0.2356 -0.8488
  927MOL0     C25030   6.816   0.479   5.640  0.4039  0.4480 -0.0983
  927MOL0     C25031   6.685   0.417   5.690  0.2381  1.3055  0.2511
  927MOL0     C25032   6.558   0.477   5.624  0.8740 -0.8854 -0.7348
  927MOL0     C25033   6.554   0.477   5.473 -0.1877  0.0890 -0.3067
  927MOL0     O25034   6.425   0.536   5.447  0.6470  0.3904 -0.1248
  927MOL0     C25035   6.322   0.459   5.391 -0.1083 -0.4854  0.6458
  927MOL0     C25036   6.342   0.403   5.270  0.3437 -0.2157  1.0099
  927MOL0     C25037   6.229   0.343   5.207  0.2937 -0.5104 -0.2866
  927MOL0     C25038   6.234   0.301   5.060  0.0386 -0.4813  0.1236
  927MOL0     C25039   6.110   0.319   5.285  1.0389  0.9990  0.0269
  927MOL0     C25040   5.982   0.247   5.237  0.0991  0.1784 -0.4117
  927MOL0     O25041   5.865   0.253   5.318 -0.3430  0.3123  0.3599
  927MOL0     C25042   5.741   0.193   5.286 -0.1581 -0.2878  0.3102
  927MOL0     C25043   5.661   0.155   5.395 -0.7428  0.3676 -0.1632
  927MOL0     C25044   5.532   0.099   5.369  0.2966  0.3475 -1.0209
  927MOL0     C25045   5.480   0.088   5.243  0.2952  0.0404 -0.6783
  927MOL0     O25046   5.351   0.040   5.226  0.2580  0.3585  0.1543
  927MOL0     C25047   5.249   0.116   5.298 -0.3635  1.2818 -0.2097
  927MOL0     C25048   5.127   0.114   5.207 -0.6533 -0.4478  0.4566
  927MOL0     C25049   5.005   0.187   5.265 -0.3075 -0.3054  0.1945
  927MOL0     C25050   4.943   0.113   5.386  0.2589  0.4228 -0.1447
  927MOL0     C25051   4.824   0.185   5.438  0.8506  0.3909 -0.3796
  927MOL0     C25052   4.693   0.149   5.367 -0.2237  0.5849  0.5234
  927MOL0     C25053   4.563   0.218   5.417  0.1119 -0.1935 -0.4613
  927MOL0     C25054   4.525   0.166   5.560  0.2424  0.1194 -0.5447
  927MOL0    Cl25055   4.370   0.230   5.597  0.4026  0.3498 -0.5424
  927MOL0     C25056   5.560   0.121   5.138  0.0845 -0.5859  0.0695
  927MOL0     C25057   5.689   0.177   5.158 -0.6383  0.2873  0.1188
  927MOL0     O25058   5.987   0.189   5.134 -0.4945  0.1488 -0.2465
  927MOL0     C25059   6.097   0.378   5.412 -0.4399 -0.3371  0.1487
  927MOL0     C25060   6.211   0.439   5.466 -0.5410 -0.9071  0.1333
  927MOL0     N25061   6.965   0.338   5.790 -0.3067 -0.2843 -0.1735
  927MOL0     N25062   7.092   0.345   5.840  0.4545 -0.8537  0.5393
  927MOL0     C25063   8.244   0.442   5.505  0.0729 -0.4650 -0.6139
  927MOL0     C25064   8.362   0.417   5.438  0.4595  0.1539  0.2803
  927MOL0     C25065   8.761   0.323   5.263  0.0655  1.2276 -0.3691
  927MOL0     C25066   8.864   0.362   5.354 -0.0380  0.1862 -0.1611
  927MOL0     C25067   8.997   0.366   5.313 -0.2360  0.2315 -0.3542
  927MOL0     C25068   9.026   0.309   5.190  0.3088  0.1930 -1.1223
  927MOL0     O25069   9.162   0.293   5.166 -0.0294 -0.2378 -0.6330
  927MOL0     C25070   9.246   0.413   5.168 -0.2579 -0.1899 -0.9335
  927MOL0     C25071   9.383   0.367   5.170  0.0004  0.0432 -0.1754
  927MOL0     C25072   9.483   0.487   5.205  0.3990  0.0110  0.0029
  927MOL0     C25073   9.623   0.434   5.180 -0.0002  0.2260  0.2713
  927MOL0     C25074   9.668   0.342   5.288  0.2734 -0.2108  0.0086
  927MOL0     C25075   9.717   0.262   5.370 -0.3266 -0.3947 -0.0785
  927MOL0     C25076   8.931   0.252   5.109  0.5133 -0.2845  0.5282
  927MOL0     C25077   8.794   0.272   5.134 -0.1257 -0.9379 -0.9838
  927MOL0     H25078   8.527   0.267   5.703  1.9722  0.6816 -1.2523
  927MOL0     H25079   8.329   0.319   5.811  2.2559  0.9818 -0.1382
  927MOL0     H25080   7.954   0.484   5.559  0.3748 -0.5071 -0.7849
  927MOL0     H25081   7.984   0.307   5.588  2.1662 -0.8221  0.5497
  927MOL0     H25082   7.902   0.316   5.798  1.7879 -0.8753 -1.8401
  927MOL0     H25083   7.869   0.491   5.800  2.1020  0.7735 -0.4619
  927MOL0     H25084   7.769   0.332   5.571  0.9457 -0.1059 -0.2668
  927MOL0     H25085   7.671   0.316   5.719 -0.0836 -0.6052 -0.3207
  927MOL0     H25086   7.647   0.567   5.734  1.0794  1.7924 -0.8866
  927MOL0     H25087   7.746   0.585   5.589  1.0891 -1.0719  1.9145
  927MOL0     H25088   7.502   0.592   5.509  0.9481 -1.5500 -1.4522
  927MOL0     H25089   7.560   0.435   5.480 -2.9642  1.8522 -1.3854
  927MOL0     H25090   7.347   0.411   5.591  1.1225  1.3441 -0.6486
  927MOL0     H25091   7.467   0.369   5.711 -1.5971 -0.5912  1.3495
  927MOL0     H25092   7.442   0.614   5.792  1.3559 -2.2049 -0.4015
  927MOL0     H25093   7.308   0.630   5.674  0.8508  0.0128 -0.0619
  927MOL0     H25094   7.245   0.598   5.913 -2.2144 -0.1368  0.1312
  927MOL0     H25095   7.328   0.444   5.906  1.9478  3.2507  2.2666
  927MOL0     H25096   7.065   0.624   5.659  1.7818 -1.4395 -2.5284
  927MOL0     H25097   6.801   0.587   5.641  2.6482  0.8149 -0.5921
  927MOL0     H25098   6.833   0.432   5.543  0.2872 -1.7955  0.8932
  927MOL0     H25099   6.691   0.431   5.799 -1.7587  4.0957  0.1098
  927MOL0     H25100   6.691   0.310   5.669 -0.3827  1.0047  1.4770
  927MOL0     H25101   6.536   0.577   5.661 -2.3238 -0.7023 -2.7710
  927MOL0     H25102   6.474   0.411   5.648  2.9501 -3.3743  0.3356
  927MOL0     H25103   6.562   0.378   5.428 -1.1387 -0.8420  1.4660
  927MOL0     H25104   6.635   0.538   5.432 -1.0244  1.0792 -0.5539
  927MOL0     H25105   6.431   0.395   5.209 -0.4592 -0.1130 -0.2162
  927MOL0     H25106   6.320   0.347   5.011 -0.0231 -1.7990 -1.3133
  927MOL0     H25107   6.244   0.192   5.065 -1.3275 -0.6991 -1.2899
  927MOL0     H25108   6.143   0.335   5.010  2.0308  2.9035 -1.5180
  927MOL0     H25109   5.699   0.165   5.496  1.9327 -0.7621 -0.9597
  927MOL0     H25110   5.464   0.071   5.449  1.3101  2.0588  0.5149
  927MOL0     H25111   5.220   0.077   5.395  1.3869  1.3327  0.3735
  927MOL0     H25112   5.272   0.220   5.323 -3.2940  2.0273 -0.3070
  927MOL0     H25113   5.139   0.148   5.104 -1.6805  1.3013  0.8621
  927MOL0     H25114   5.106   0.007   5.202  2.1220 -1.1290  1.4763
  927MOL0     H25115   4.928   0.196   5.188 -1.0589 -0.1050  0.9668
  927MOL0     H25116   5.027   0.290   5.294 -0.1388  0.0243 -1.0386
  927MOL0     H25117   4.915   0.009   5.366 -0.0758  1.0201 -3.1785
  927MOL0     H25118   5.019   0.107   5.465  2.8265 -0.9488 -2.5753
  927MOL0     H25119   4.830   0.295   5.436  1.0548  0.5788  3.3662
  927MOL0     H25120   4.807   0.160   5.543  0.7998 -4.2569 -1.2889
  927MOL0     H25121   4.711   0.178   5.263  1.1596 -1.9185 -0.0122
  927MOL0     H25122   4.685   0.040   5.369  5.8249 -0.1812  2.7370
  927MOL0     H25123   4.487   0.211   5.339 -0.3624  3.6200 -0.5220
  927MOL0     H25124   4.590   0.323   5.411  4.4183 -1.1683 -3.0846
  927MOL0     H25125   4.599   0.204   5.631  2.3489 -0.7925 -2.1303
  927MOL0     H25126   4.520   0.057   5.566  2.8139  0.0040  0.7697
  927MOL0     H25127   5.525   0.105   5.037 -0.9380  0.1651  0.2871
  927MOL0     H25128   5.746   0.220   5.077 -0.1969  1.6327  1.1044
  927MOL0     H25129   6.010   0.376   5.475 -1.6987  1.8019 -1.3710
  927MOL0     H25130   6.208   0.478   5.567 -0.8017 -0.3905 -0.0709
  927MOL0     H25131   8.168   0.509   5.465  0.3088  0.1416 -0.0712
  927MOL0     H25132   8.388   0.452   5.339  2.3634  0.3159  0.7848
  927MOL0     H25133   8.836   0.398   5.452  0.6948 -2.1063  0.9365
  927MOL0     H25134   9.075   0.392   5.384 -1.4216  2.1443  0.3392
  927MOL0     H25135   9.233   0.472   5.076 -1.4972 -1.4619 -1.6018
  927MOL0     H25136   9.239   0.465   5.264 -0.6444 -1.4978 -0.2371
  927MOL0     H25137   9.406   0.320   5.075 -0.8569 -1.5765  0.3768
  927MOL0     H25138   9.393   0.297   5.254  1.2725  2.4205  1.8037
  927MOL0     H25139   9.491   0.515   5.310  1.4660  2.4744 -0.6512
  927MOL0     H25140   9.464   0.574   5.140  0.9212  0.1257  0.0035
  927MOL0     H25141   9.684   0.525   5.180  3.6583 -2.0115 -0.4897
  927MOL0     H25142   9.636   0.400   5.077 -1.0213  0.8985 -0.0945
  927MOL0     H25143   9.759   0.195   5.443 -1.9191  1.2785  2.5386
  927MOL0     H25144   8.968   0.200   5.021 -1.1153 -2.0249  0.8001
  927MOL0     H25145   8.720   0.232   5.065 -2.0735 -0.4017  0.6874
  928MOL0     O25146   0.096   0.372   3.786  0.0598  0.4032  0.1570
  928MOL0     C25147   0.133   0.398   3.667  0.6625 -0.3298 -0.7135
  928MOL0     O25148   0.228   0.321   3.602  0.2417 -0.3864  0.5628
  928MOL0     C25149   0.303   0.238   3.673 -0.0648  0.0095  0.6763
  928MOL0     C25150   0.305   0.103   3.635  0.1239  0.7584 -0.3812
  928MOL0     C25151   0.382   0.008   3.701 -0.0551 -0.3668 -0.6116
  928MOL0     C25152   0.471   0.051   3.806 -0.3915  0.0994  0.9970
  928MOL0     O25153   0.562  -0.024   3.878 -0.8872  0.1101 -0.1059
  928MOL0     C25154   0.564  -0.173   3.864  0.0353  0.1151 -0.4388
  928MOL0     C25155   0.452  -0.226   3.943 -0.4093  0.3390  0.1140
  928MOL0     C25156   0.433  -0.158   4.075 -0.5242 -0.4889 -0.1410
  928MOL0     C25157   0.287  -0.171   4.110 -0.5903 -1.0545  0.1466
  928MOL0     C25158   0.260  -0.115   4.244  0.2814 -0.2021 -0.9245
  928MOL0     C25159   0.118  -0.154   4.301  0.7431 -0.8463 -0.0496
  928MOL0     C25160   0.061  -0.074   4.425  0.2751  0.7779  0.2346
  928MOL0     C25161   0.145  -0.086   4.549  0.7703 -0.1831 -0.6716
  928MOL0     N25162   0.078  -0.021   4.670 -0.2804 -0.4146 -0.1005
  928MOL0     C25163  -0.045  -0.060   4.724 -0.6797  0.1346 -0.3896
  928MOL0     C25164  -0.088   0.030   4.820  0.8459  1.1855  0.4280
  928MOL0     C25165  -0.226   0.045   4.884  0.5658  0.2191  0.4630
  928MOL0     C25166  -0.334   0.076   4.777 -0.0399  0.8605 -0.9304
  928MOL0     C25167  -0.463   0.000   4.805 -0.5075 -0.2682 -0.1497
  928MOL0     C25168  -0.577   0.053   4.728  0.1255 -0.2214  0.5607
  928MOL0     O25169  -0.706   0.012   4.783  0.5999  1.0163  0.3207
  928MOL0     C25170  -0.816   0.031   4.699 -0.2291  0.4860 -0.7520
  928MOL0     C25171  -0.840   0.157   4.651 -0.0684 -0.4668  0.2494
  928MOL0     C25172  -0.940   0.178   4.555  0.0674  0.3889  0.2497
  928MOL0     C25173  -0.948   0.318   4.496  0.5470  0.3897  0.3211
  928MOL0     C25174  -1.030   0.077   4.518  0.8421 -0.4057 -0.0695
  928MOL0     C25175  -1.141   0.085   4.419  0.1708  0.5237 -1.2378
  928MOL0     O25176  -1.216  -0.025   4.389  0.3918  0.2625  0.1568
  928MOL0     C25177  -1.322   0.004   4.312 -0.8388 -0.4374  0.3217
  928MOL0     C25178  -1.341  -0.038   4.177 -0.3152 -0.2959  0.3698
  928MOL0     C25179  -1.474  -0.019   4.113  1.8913  0.6817  1.1912
  928MOL0     C25180  -1.587   0.032   4.182 -0.2093  0.1440 -1.1278
  928MOL0     O25181  -1.708   0.055   4.116 -0.4238  0.0731 -0.4260
  928MOL0     C25182  -1.828   0.084   4.190  0.1114 -0.0998 -0.5987
  928MOL0     C25183  -1.937   0.097   4.094  0.3920  0.7921 -0.7148
  928MOL0     C25184  -1.929   0.216   4.003  0.1439 -0.0179 -0.6770
  928MOL0     C25185  -2.064   0.218   3.917 -0.3476 -1.0690 -0.3421
  928MOL0     C25186  -2.182   0.267   4.012  0.1203 -1.1106  0.0721
  928MOL0     C25187  -2.305   0.253   3.917  0.5561 -0.4402 -0.1308
  928MOL0     C25188  -2.438   0.300   3.989 -0.4247  0.2021 -0.5674
  928MOL0     C25189  -2.501   0.419   3.929  0.1313 -0.1087  0.3710
  928MOL0    Cl25190  -2.412   0.563   3.991  0.4685  0.0274  0.4775
  928MOL0     C25191  -1.560   0.066   4.318 -0.2248 -0.2286 -0.2176
  928MOL0     C25192  -1.438   0.052   4.376 -0.2227 -0.2909 -0.0686
  928MOL0     O25193  -1.172   0.200   4.383 -0.0720 -0.5471  0.2692
  928MOL0     C25194  -1.003  -0.052   4.566 -0.0965  0.0590 -0.1019
  928MOL0     C25195  -0.898  -0.070   4.659  0.0901  0.6319  0.1577
  928MOL0     N25196   0.016   0.119   4.820  0.0055  0.5979 -0.0286
  928MOL0     N25197   0.115   0.086   4.736 -0.2906  0.0830  0.2726
  928MOL0     C25198   0.473   0.185   3.832 -0.9353 -0.1186  0.3114
  928MOL0     C25199   0.402   0.282   3.756  0.7008 -0.2582 -0.0703
  928MOL0     C25200   0.087   0.524   3.604  0.1212 -0.0165 -0.0358
  928MOL0     C25201   0.099   0.549   3.468 -0.6136 -0.0536 -0.1606
  928MOL0     C25202   0.052   0.668   3.410 -0.4533 -0.2322 -0.3674
  928MOL0     C25203  -0.009   0.765   3.487  0.7117 -0.8263 -0.0777
  928MOL0     O25204  -0.054   0.878   3.424 -0.2969 -0.1525  0.5130
  928MOL0     C25205  -0.090   0.994   3.495  1.0332 -0.2048 -0.6590
  928MOL0     C25206  -0.137   1.106   3.398 -0.4366  0.5189  0.4574
  928MOL0     C25207  -0.259   1.074   3.307 -1.0591  1.7415 -0.1243
  928MOL0     C25208  -0.272   1.168   3.186 -0.0116  0.4054  0.2565
  928MOL0     C25209  -0.385   1.143   3.104  0.1678 -0.5772 -0.0304
  928MOL0     C25210  -0.479   1.117   3.030 -0.5858 -0.0231  0.1870
  928MOL0     C25211  -0.024   0.744   3.629  0.9163 -0.2403 -0.1276
  928MOL0     C25212   0.011   0.615   3.681 -0.0026 -0.7128 -0.3980
  928MOL0     H25213   0.234   0.079   3.556  0.8197  0.3396 -0.9007
  928MOL0     H25214   0.363  -0.098   3.684 -0.8255 -1.0297  3.2536
  928MOL0     H25215   0.556  -0.202   3.759 -0.9154 -1.6677  0.0885
  928MOL0     H25216   0.654  -0.225   3.898 -0.5662 -0.2081  0.7224
  928MOL0     H25217   0.360  -0.209   3.885  0.2828  0.6700 -0.9106
  928MOL0     H25218   0.460  -0.334   3.959  0.2089 -0.0353 -2.3146
  928MOL0     H25219   0.491  -0.216   4.147 -0.3385 -1.4005 -1.0049
  928MOL0     H25220   0.468  -0.054   4.079  3.9556 -1.8452  1.4645
  928MOL0     H25221   0.225  -0.108   4.046  1.6261  1.4057  0.2332
  928MOL0     H25222   0.258  -0.276   4.096 -0.5289 -0.6449 -5.0045
  928MOL0     H25223   0.329  -0.158   4.317  1.6709  1.0076 -1.4610
  928MOL0     H25224   0.280  -0.007   4.249  0.4247 -0.2443 -0.4865
  928MOL0     H25225   0.051  -0.136   4.216  2.8070 -0.5249 -1.6987
  928MOL0     H25226   0.107  -0.263   4.313  1.0063 -0.7893  0.7281
  928MOL0     H25227   0.064   0.033   4.403 -1.4842  1.4176  2.6933
  928MOL0     H25228  -0.043  -0.102   4.446  0.8692 -0.6523  1.5047
  928MOL0     H25229   0.237  -0.028   4.536  0.9034 -0.0466  0.7602
  928MOL0     H25230   0.164  -0.192   4.564 -0.8454 -0.3389  0.4616
  928MOL0     H25231  -0.107  -0.140   4.687 -1.4424  1.5152 -2.2941
  928MOL0     H25232  -0.256  -0.052   4.924  0.4981  1.1881  2.9258
  928MOL0     H25233  -0.227   0.114   4.970 -0.3819  0.7239  0.0677
  928MOL0     H25234  -0.291   0.051   4.679  1.6998  0.6569 -0.1485
  928MOL0     H25235  -0.362   0.182   4.779 -1.6799  0.5181 -2.6008
  928MOL0     H25236  -0.483   0.011   4.912  2.1626  1.0908  0.3155
  928MOL0     H25237  -0.446  -0.107   4.790 -0.1248  0.1984 -4.1205
  928MOL0     H25238  -0.572   0.007   4.629  0.9037  0.6805  0.1657
  928MOL0     H25239  -0.573   0.162   4.724  2.1568 -0.2980 -1.9284
  928MOL0     H25240  -0.782   0.244   4.681 -1.9499  1.3274 -1.0409
  928MOL0     H25241  -0.862   0.384   4.511 -1.1771  3.0002 -0.7278
  928MOL0     H25242  -0.954   0.311   4.387 -0.1152  0.4040  0.3569
  928MOL0     H25243  -1.026   0.379   4.541  0.8794  0.8114  0.3367
  928MOL0     H25244  -1.259  -0.067   4.112 -0.0034  3.1746 -0.9912
  928MOL0     H25245  -1.493  -0.060   4.015 -2.7181  2.5811  1.0520
  928MOL0     H25246  -1.853  -0.001   4.255 -1.7357  1.9148  1.5105
  928MOL0     H25247  -1.807   0.165   4.260  4.7750 -0.8901 -0.7742
  928MOL0     H25248  -1.928  -0.001   4.045  2.2535  0.7332 -0.3264
  928MOL0     H25249  -2.029   0.104   4.152  0.5635 -0.9186 -0.1693
  928MOL0     H25250  -1.849   0.190   3.933  0.1985 -0.7196 -0.3656
  928MOL0     H25251  -1.910   0.311   4.054  1.5870 -0.4551 -0.3544
  928MOL0     H25252  -2.051   0.291   3.836 -1.5939  0.1471  0.5010
  928MOL0     H25253  -2.086   0.120   3.875 -0.8311 -0.2697 -2.0321
  928MOL0     H25254  -2.169   0.370   4.046  1.3833 -0.9974 -0.6913
  928MOL0     H25255  -2.202   0.201   4.096 -0.6715 -0.4733  0.4012
  928MOL0     H25256  -2.283   0.304   3.823  0.3530 -1.1350 -0.5629
  928MOL0     H25257  -2.332   0.148   3.901 -0.6949 -0.3812  1.3480
  928MOL0     H25258  -2.426   0.313   4.097  1.7097  2.5972 -1.0127
  928MOL0     H25259  -2.511   0.218   3.988  1.6076 -1.7564 -3.7988
  928MOL0     H25260  -2.609   0.421   3.947 -0.3443  3.1557 -1.8958
  928MOL0     H25261  -2.492   0.418   3.820  2.5259 -0.9431  0.5076
  928MOL0     H25262  -1.638   0.111   4.379 -1.0136 -0.0841 -1.2978
  928MOL0     H25263  -1.414   0.085   4.477 -0.2190 -1.8467  0.4570
  928MOL0     H25264  -1.063  -0.139   4.542 -0.2849  0.6037 -1.7883
  928MOL0     H25265  -0.866  -0.168   4.691  1.5769  0.9663 -0.2374
  928MOL0     H25266   0.538   0.212   3.914 -0.4248 -1.8342  0.5104
  928MOL0     H25267   0.412   0.390   3.769 -2.3087  0.4670 -2.5293
  928MOL0     H25268   0.151   0.486   3.396  0.8295  1.1812 -0.2573
  928MOL0     H25269   0.065   0.697   3.306 -0.0834 -1.0335 -0.5510
  928MOL0     H25270  -0.174   0.965   3.559 -0.8555  4.3313 -0.7127
  928MOL0     H25271  -0.004   1.028   3.553  1.0919  1.0790 -1.4556
  928MOL0     H25272  -0.053   1.141   3.337 -2.6370  1.6383 -2.1586
  928MOL0     H25273  -0.186   1.189   3.451 -4.7416  0.4105 -2.8086
  928MOL0     H25274  -0.350   1.085   3.367 -1.0207  3.2248 -0.3027
  928MOL0     H25275  -0.253   0.971   3.271 -1.8367  1.7497 -0.2861
  928MOL0     H25276  -0.189   1.146   3.118 -0.8198  2.4750 -1.5191
  928MOL0     H25277  -0.269   1.272   3.220  0.5283  0.3473  0.3967
  928MOL0     H25278  -0.543   1.093   2.947 -0.1297  1.6770 -0.7133
  928MOL0     H25279  -0.072   0.817   3.694 -2.1313  0.0501 -2.4740
  928MOL0     H25280  -0.015   0.593   3.784 -1.2171  0.7394 -0.3466
  929MOL0     O25281   2.607   7.912   8.510  0.4364 -0.4705 -0.0099
  929MOL0     C25282   2.618   7.935   8.387 -0.1784  0.4113 -0.1560
  929MOL0     O25283   2.507   7.925   8.307 -1.1084 -0.3898  0.2233
  929MOL0     C25284   2.387   7.880   8.346  1.1232 -0.1975  0.8058
  929MOL0     C25285   2.275   7.964   8.325  0.5237  0.2918  1.0943
  929MOL0     C25286   2.148   7.919   8.371  0.0668 -0.0749 -0.2177
  929MOL0     C25287   2.136   7.799   8.439  0.5458 -0.5333  0.4783
  929MOL0     O25288   2.015   7.764   8.484  0.6306  0.1111 -0.2673
  929MOL0     C25289   1.904   7.835   8.434  0.4244 -0.2323 -0.3090
  929MOL0     C25290   1.782   7.760   8.476 -0.2469 -0.2895 -0.3786
  929MOL0     C25291   1.655   7.811   8.415 -0.2292 -1.1331 -0.2693
  929MOL0     C25292   1.546   7.728   8.469  0.5334 -0.5693  0.2230
  929MOL0     C25293   1.401   7.772   8.431 -0.2734  0.0154  0.8900
  929MOL0     C25294   1.288   7.719   8.527  0.0098  0.2435 -0.6458
  929MOL0     C25295   1.155   7.784   8.485 -0.6686  0.6132  0.5565
  929MOL0     C25296   1.042   7.727   8.576 -0.2338  0.0336 -0.5882
  929MOL0     N25297   1.021   7.592   8.545  0.7005 -0.1321  0.3571
  929MOL0     C25298   0.977   7.500   8.634 -0.8661  0.3761 -0.0608
  929MOL0     C25299   0.955   7.387   8.558 -0.3684  0.1590 -0.2905
  929MOL0     C25300   0.898   7.254   8.604  0.0481 -0.6669 -0.4411
  929MOL0     C25301   0.751   7.240   8.564  0.4077 -0.0411  0.4183
  929MOL0     C25302   0.711   7.281   8.415  0.4897  0.1128 -0.7034
  929MOL0     C25303   0.580   7.232   8.381  0.5007 -0.0655  0.0039
  929MOL0     O25304   0.489   7.252   8.490  0.8803  0.3678  0.5308
  929MOL0     C25305   0.350   7.257   8.469 -0.1775  0.2616  0.1890
  929MOL0     C25306   0.287   7.202   8.352 -0.6966 -0.4998 -0.0175
  929MOL0     C25307   0.149   7.191   8.339  0.7575  0.5181  0.3406
  929MOL0     C25308   0.094   7.130   8.210 -0.3166  0.4358 -0.8774
  929MOL0     C25309   0.072   7.229   8.446  0.0924 -0.6690 -0.5007
  929MOL0     C25310  -0.072   7.212   8.466 -0.0750  0.1084  0.2559
  929MOL0     O25311  -0.118   7.178   8.592  0.3863  0.5521  0.0047
  929MOL0     C25312  -0.242   7.113   8.589 -1.2651  0.2462 -0.0753
  929MOL0     C25313  -0.244   6.978   8.593 -0.3424  0.6232  0.6241
  929MOL0     C25314  -0.362   6.908   8.602 -0.0684 -0.4642 -0.9744
  929MOL0     C25315  -0.487   6.978   8.608  0.1803  0.2096 -0.1645
  929MOL0     O25316  -0.604   6.905   8.633  0.2349  0.0167  0.2547
  929MOL0     C25317  -0.610   6.769   8.662  0.2538  0.1505  0.1039
  929MOL0     C25318  -0.746   6.710   8.705  0.2733 -0.7461 -0.3799
  929MOL0     C25319  -0.849   6.732   8.596  0.2144 -0.5128 -0.5473
  929MOL0     C25320  -0.986   6.717   8.650 -0.7264  0.2606  0.2724
  929MOL0     C25321  -1.090   6.699   8.532  0.3884 -0.4604 -0.6715
  929MOL0     C25322  -1.170   6.826   8.506  0.6484  0.0617  0.1653
  929MOL0     C25323  -1.262   6.805   8.389  0.6217  0.6920  1.1893
  929MOL0     C25324  -1.362   6.914   8.358 -0.5597  0.2267 -0.4053
  929MOL0    Cl25325  -1.492   6.838   8.250 -0.3155 -0.2889  0.1769
  929MOL0     C25326  -0.482   7.113   8.595 -0.5573 -0.8445  0.5957
  929MOL0     C25327  -0.361   7.182   8.584 -0.3406 -0.0462  0.8164
  929MOL0     O25328  -0.147   7.225   8.366  0.3347  0.5707 -0.3123
  929MOL0     C25329   0.135   7.287   8.559 -0.2717 -0.7042  0.2064
  929MOL0     C25330   0.267   7.298   8.574 -1.7008 -0.1674 -0.1577
  929MOL0     N25331   0.995   7.412   8.423 -1.3860 -0.0305  0.1644
  929MOL0     N25332   1.029   7.538   8.420  0.3652 -0.0542 -0.1655
  929MOL0     C25333   2.245   7.714   8.448 -0.7343 -0.6946  0.2030
  929MOL0     C25334   2.373   7.753   8.398  0.1501  0.2882  0.0021
  929MOL0     C25335   2.752   7.966   8.324  0.4648 -0.5996 -1.4527
  929MOL0     C25336   2.873   8.000   8.394 -0.1400  0.3415  0.1084
  929MOL0     C25337   2.986   8.042   8.327  0.1620 -0.1237 -0.8677
  929MOL0     C25338   2.986   8.066   8.186 -0.2498 -0.3763 -0.8954
  929MOL0     O25339   3.107   8.120   8.139  0.7973  0.9635 -0.5438
  929MOL0     C25340   3.123   8.125   7.998  1.3065 -0.6969  0.0230
  929MOL0     C25341   3.270   8.134   7.964  0.3224  0.0964 -0.8162
  929MOL0     C25342   3.340   8.258   8.024 -0.1858  0.4195  0.8639
  929MOL0     C25343   3.487   8.251   7.988 -0.1061  0.7655  0.2433
  929MOL0     C25344   3.557   8.149   8.068  0.3269 -0.2127  0.9248
  929MOL0     C25345   3.618   8.074   8.139  0.7464  0.4998  1.2560
  929MOL0     C25346   2.870   8.029   8.117 -0.2014 -0.0119  0.7917
  929MOL0     C25347   2.757   7.985   8.187 -0.2423  0.1564 -0.0417
  929MOL0     H25348   2.296   8.061   8.280 -0.4329 -0.2996 -0.7251
  929MOL0     H25349   2.066   7.987   8.349  0.0491  0.2102  0.6862
  929MOL0     H25350   1.909   7.932   8.484 -0.3254 -0.3987  0.1109
  929MOL0     H25351   1.889   7.850   8.327  2.4500  1.7713 -0.3820
  929MOL0     H25352   1.790   7.656   8.445 -2.0600 -1.1162  1.6584
  929MOL0     H25353   1.777   7.764   8.586 -0.6391 -0.4499 -0.3892
  929MOL0     H25354   1.644   7.920   8.423 -0.1480 -1.2752  3.1271
  929MOL0     H25355   1.665   7.789   8.308  0.8679  1.3520 -0.7573
  929MOL0     H25356   1.560   7.629   8.426 -1.2808 -0.1151 -1.5828
  929MOL0     H25357   1.549   7.718   8.578  0.4087 -1.5638  0.1382
  929MOL0     H25358   1.403   7.881   8.425 -1.5852  0.0216  0.0348
  929MOL0     H25359   1.372   7.736   8.332  0.3624  0.9438  0.3563
  929MOL0     H25360   1.275   7.611   8.521  0.5291  0.1314  0.0719
  929MOL0     H25361   1.321   7.740   8.629  2.6941 -0.4063 -1.3007
  929MOL0     H25362   1.168   7.893   8.489 -0.1002  0.5763 -0.2069
  929MOL0     H25363   1.129   7.762   8.381 -1.5991  1.5068  0.5844
  929MOL0     H25364   0.955   7.793   8.566 -0.6649  0.1590  2.7599
  929MOL0     H25365   1.075   7.726   8.681  0.8408  0.3182 -0.9162
  929MOL0     H25366   0.971   7.523   8.740  1.2309  1.2970 -0.0725
  929MOL0     H25367   0.956   7.170   8.566  1.1871 -0.8248  1.5033
  929MOL0     H25368   0.897   7.243   8.713 -2.8283 -0.9444 -0.4088
  929MOL0     H25369   0.690   7.305   8.628 -0.2750 -0.7822  0.5244
  929MOL0     H25370   0.720   7.138   8.587 -0.9759  1.0397  4.0526
  929MOL0     H25371   0.781   7.242   8.341  0.8101  2.0687 -1.5057
  929MOL0     H25372   0.710   7.390   8.402 -1.7705  0.2337 -0.0214
  929MOL0     H25373   0.584   7.124   8.362 -2.5681 -0.4206  0.8849
  929MOL0     H25374   0.548   7.281   8.289  0.9027 -1.7692 -1.0786
  929MOL0     H25375   0.352   7.184   8.267 -0.1214 -0.3983  0.3970
  929MOL0     H25376   0.016   7.194   8.168  0.0221 -2.2164 -6.4775
  929MOL0     H25377   0.172   7.118   8.134 -0.4524 -4.2685 -0.5944
  929MOL0     H25378   0.054   7.033   8.241  2.1637  0.1336  1.8585
  929MOL0     H25379  -0.146   6.931   8.594 -0.4634  0.3160 -0.3933
  929MOL0     H25380  -0.355   6.801   8.617 -0.8974 -0.2452  1.3069
  929MOL0     H25381  -0.583   6.713   8.571 -0.3467  0.2704 -0.1526
  929MOL0     H25382  -0.540   6.744   8.742 -0.5036 -1.1001  0.3947
  929MOL0     H25383  -0.730   6.608   8.739  1.4950  0.4900  3.2135
  929MOL0     H25384  -0.775   6.777   8.787  1.3884 -2.5333  1.5854
  929MOL0     H25385  -0.832   6.660   8.515 -3.3464 -0.2753 -1.6540
  929MOL0     H25386  -0.850   6.829   8.547  2.9049 -1.0379 -1.8192
  929MOL0     H25387  -0.999   6.627   8.711 -1.3357  0.0786 -0.1233
  929MOL0     H25388  -1.014   6.807   8.707 -1.3139  0.5581 -0.4674
  929MOL0     H25389  -1.159   6.616   8.548 -0.0717 -0.1293 -0.9092
  929MOL0     H25390  -1.033   6.698   8.439  1.2065  1.8987 -0.2749
  929MOL0     H25391  -1.232   6.830   8.595 -0.2851 -1.6753 -0.3617
  929MOL0     H25392  -1.108   6.916   8.498  1.4240 -0.5859 -1.7099
  929MOL0     H25393  -1.327   6.728   8.430 -1.4797  1.8181  0.1610
  929MOL0     H25394  -1.203   6.783   8.299  1.0072  2.0914  1.0827
  929MOL0     H25395  -1.307   6.995   8.308 -0.9456 -0.5969 -2.2592
  929MOL0     H25396  -1.402   6.956   8.451 -0.1204 -1.0203  0.3681
  929MOL0     H25397  -0.577   7.165   8.600 -0.2124 -0.0558 -0.6650
  929MOL0     H25398  -0.355   7.290   8.598  0.6271  0.2090 -1.2553
  929MOL0     H25399   0.064   7.320   8.635 -2.7062 -0.6089 -1.9607
  929MOL0     H25400   0.306   7.333   8.669 -4.5526 -0.3976  1.2065
  929MOL0     H25401   2.234   7.614   8.489  0.3570  0.8090  4.7256
  929MOL0     H25402   2.455   7.683   8.399 -1.6759 -2.0060  2.4993
  929MOL0     H25403   2.859   8.005   8.502 -2.7671 -2.4365  0.0262
  929MOL0     H25404   3.069   8.058   8.396 -0.2417 -2.8314  0.3745
  929MOL0     H25405   3.067   8.051   7.941  0.3857 -1.6874  2.1016
  929MOL0     H25406   3.072   8.221   7.984 -0.6815 -1.7593 -0.2729
  929MOL0     H25407   3.281   8.125   7.856 -1.9430  1.8100 -1.2892
  929MOL0     H25408   3.307   8.050   8.023 -1.0366  1.6301  2.5451
  929MOL0     H25409   3.324   8.255   8.133  0.0137  0.8976  0.9134
  929MOL0     H25410   3.295   8.351   7.988  3.0629  1.3870 -1.0918
  929MOL0     H25411   3.539   8.339   8.026  2.0219 -0.2608 -0.1149
  929MOL0     H25412   3.508   8.257   7.880 -2.8254  2.5909 -0.2628
  929MOL0     H25413   3.670   7.996   8.191 -1.9050 -2.6199 -0.4301
  929MOL0     H25414   2.837   8.059   8.018 -0.6139  0.6561  1.1227
  929MOL0     H25415   2.667   7.970   8.129 -1.3356  1.6393  1.1759
  930MOL0     O25416   1.235   9.494   9.721  0.0342  0.4445  0.0498
  930MOL0     C25417   1.309   9.467   9.623  0.2899  0.5555 -0.6147
  930MOL0     O25418   1.260   9.424   9.501 -0.2214 -0.3739  0.2394
  930MOL0     C25419   1.128   9.429   9.460 -0.6952 -0.0250 -0.0122
  930MOL0     C25420   1.047   9.544   9.475 -0.2799 -0.1295 -0.4572
  930MOL0     C25421   0.912   9.547   9.440 -0.5830  0.5688 -0.1835
  930MOL0     C25422   0.860   9.424   9.389 -0.5049 -0.6911  0.4190
  930MOL0     O25423   0.731   9.419   9.347  0.4884  0.3364 -0.2197
  930MOL0     C25424   0.662   9.290   9.354  0.8213  0.8008  1.1605
  930MOL0     C25425   0.518   9.319   9.369 -0.3729  0.3947  0.7890
  930MOL0     C25426   0.423   9.196   9.351 -0.2771  1.3282 -0.4037
  930MOL0     C25427   0.379   9.152   9.498  0.2527  1.3189  0.6218
  930MOL0     C25428   0.299   9.017   9.507  0.3453 -0.1770 -0.5541
  930MOL0     C25429   0.146   9.044   9.518  0.5222  0.1554  0.0650
  930MOL0     C25430   0.062   8.933   9.456 -0.2556 -0.9007 -0.5106
  930MOL0     C25431   0.063   8.936   9.303  0.3780 -0.0004 -0.0600
  930MOL0     N25432  -0.002   8.811   9.254 -0.3223 -0.4414 -0.8449
  930MOL0     C25433  -0.133   8.775   9.267 -0.6075 -0.1671  0.1926
  930MOL0     C25434  -0.136   8.646   9.239  0.0383  0.9543 -0.3732
  930MOL0     C25435  -0.252   8.557   9.234  0.8942  0.6397  0.2180
  930MOL0     C25436  -0.321   8.582   9.093 -0.6454  0.4116  0.3817
  930MOL0     C25437  -0.466   8.521   9.100 -0.2540 -0.0438  0.2552
  930MOL0     C25438  -0.544   8.545   8.972  0.3531  0.2328 -0.7116
  930MOL0     O25439  -0.503   8.453   8.876 -0.1094  0.2332 -0.0647
  930MOL0     C25440  -0.578   8.401   8.775 -0.1104  0.2983  0.2385
  930MOL0     C25441  -0.535   8.286   8.712  0.8756 -0.4524 -0.9442
  930MOL0     C25442  -0.614   8.223   8.616 -0.5475 -0.1185 -0.2025
  930MOL0     C25443  -0.563   8.089   8.573 -0.4970  0.4178 -0.7552
  930MOL0     C25444  -0.722   8.292   8.562  0.0151 -0.1952 -0.4019
  930MOL0     C25445  -0.814   8.243   8.454  0.0636  0.1146  0.8096
  930MOL0     O25446  -0.857   8.336   8.371 -0.5729 -0.2363 -0.1395
  930MOL0     C25447  -0.971   8.330   8.296 -0.3651  0.2914  0.0694
  930MOL0     C25448  -1.068   8.234   8.311 -0.4690  0.8488  0.0770
  930MOL0     C25449  -1.182   8.232   8.230  0.5463  0.0644  0.3631
  930MOL0     C25450  -1.190   8.329   8.123 -0.2790  0.5674 -0.6493
  930MOL0     O25451  -1.288   8.319   8.022 -0.7081 -0.7798 -0.4196
  930MOL0     C25452  -1.252   8.230   7.909 -0.1464  0.0535  0.2285
  930MOL0     C25453  -1.325   8.101   7.934  0.7227  0.1217  0.3684
  930MOL0     C25454  -1.476   8.116   7.938  1.0951 -0.9544  0.2418
  930MOL0     C25455  -1.531   8.152   7.794 -0.3441 -0.1174 -0.3440
  930MOL0     C25456  -1.676   8.161   7.794 -0.2952 -0.7551  0.8153
  930MOL0     C25457  -1.719   8.304   7.807  1.0754 -1.0654 -0.0416
  930MOL0     C25458  -1.871   8.313   7.836  0.0366  0.7339  0.1406
  930MOL0     C25459  -1.952   8.296   7.711 -0.4197 -0.1348 -0.2565
  930MOL0    Cl25460  -2.119   8.358   7.737 -0.1836  0.2083  0.4578
  930MOL0     C25461  -1.085   8.425   8.116  1.5014  0.2458  0.0898
  930MOL0     C25462  -0.985   8.435   8.207 -0.3409 -0.5825 -0.3172
  930MOL0     O25463  -0.821   8.121   8.428 -0.2030 -0.5881 -0.0725
  930MOL0     C25464  -0.757   8.412   8.623  0.4350  0.1196  0.5816
  930MOL0     C25465  -0.685   8.469   8.724  0.6981 -0.2693 -0.1646
  930MOL0     N25466  -0.009   8.602   9.208 -0.3360  0.0022 -0.9956
  930MOL0     N25467   0.074   8.703   9.212  0.4522 -1.1165  0.2466
  930MOL0     C25468   0.938   9.311   9.373  0.3536 -0.4746  0.5797
  930MOL0     C25469   1.068   9.314   9.411 -0.1557 -0.0285 -1.1499
  930MOL0     C25470   1.461   9.463   9.644  0.0930  0.5684  0.1276
  930MOL0     C25471   1.544   9.394   9.555  0.6268  1.2224 -0.6362
  930MOL0     C25472   1.672   9.377   9.582 -0.6106 -1.2552 -0.3005
  930MOL0     C25473   1.735   9.436   9.693 -0.8559 -0.1672  0.0278
  930MOL0     O25474   1.873   9.433   9.714 -0.2676  0.6821 -0.1746
  930MOL0     C25475   1.963   9.455   9.612 -0.6731  0.6356  0.0244
  930MOL0     C25476   2.111   9.451   9.674  0.6347  0.0433  0.3262
  930MOL0     C25477   2.134   9.576   9.772 -0.2115 -0.1551  1.1727
  930MOL0     C25478   2.252   9.532   9.874  0.0220 -0.0523  0.3104
  930MOL0     C25479   2.375   9.557   9.799 -0.4362 -0.5123  0.3657
  930MOL0     C25480   2.482   9.553   9.746 -0.4508 -0.2685 -0.5794
  930MOL0     C25481   1.663   9.503   9.779 -0.6475 -0.0665 -0.3851
  930MOL0     C25482   1.523   9.514   9.763  0.0092  0.2729  0.9434
  930MOL0     H25483   1.079   9.639   9.516 -2.0652  0.7619 -1.0160
  930MOL0     H25484   0.846   9.633   9.446 -2.0584 -0.6349  1.8225
  930MOL0     H25485   0.694   9.226   9.272  1.6742  1.7128  0.7611
  930MOL0     H25486   0.692   9.236   9.445 -2.4509 -1.6427  0.9590
  930MOL0     H25487   0.516   9.369   9.466  0.0212 -0.9785  1.5297
  930MOL0     H25488   0.497   9.385   9.285  1.1511 -0.9422 -0.7365
  930MOL0     H25489   0.337   9.222   9.288 -1.7481  0.8358  1.2916
  930MOL0     H25490   0.477   9.118   9.297  0.0270  1.4007 -0.2079
  930MOL0     H25491   0.473   9.150   9.555  0.3697 -6.4570  1.1748
  930MOL0     H25492   0.318   9.235   9.536 -1.6758  0.8714 -1.2940
  930MOL0     H25493   0.331   8.955   9.423  3.0341  0.1983  0.0992
  930MOL0     H25494   0.322   8.960   9.598 -2.7234 -1.5527 -0.5214
  930MOL0     H25495   0.128   9.049   9.626 -1.4451  0.8131 -0.2440
  930MOL0     H25496   0.120   9.142   9.478 -0.9528  1.2336  3.2803
  930MOL0     H25497   0.107   8.840   9.494 -0.6145 -0.6113  0.6776
  930MOL0     H25498  -0.040   8.938   9.493  0.2625  0.7801  0.8158
  930MOL0     H25499   0.167   8.935   9.269  0.9150 -0.5914  1.5526
  930MOL0     H25500   0.001   9.015   9.258 -1.0882 -0.9232  0.2763
  930MOL0     H25501  -0.221   8.837   9.277 -0.3852  0.1139  0.4387
  930MOL0     H25502  -0.218   8.453   9.242 -0.8597 -0.1130 -1.4438
  930MOL0     H25503  -0.321   8.590   9.312  1.3797 -0.6792  1.2344
  930MOL0     H25504  -0.258   8.538   9.015 -1.8141  1.6569 -1.3585
  930MOL0     H25505  -0.324   8.688   9.065 -1.1368 -0.2621 -2.4235
  930MOL0     H25506  -0.516   8.574   9.181  2.6842 -0.6272  2.6351
  930MOL0     H25507  -0.454   8.418   9.135  3.1012  1.1425  3.2025
  930MOL0     H25508  -0.523   8.643   8.927 -1.1944  0.6055 -0.6785
  930MOL0     H25509  -0.651   8.538   8.994  1.1714  0.6068  4.7254
  930MOL0     H25510  -0.442   8.242   8.747 -0.1881 -1.1017  1.2455
  930MOL0     H25511  -0.610   8.003   8.622  3.5137 -0.3531  2.2037
  930MOL0     H25512  -0.569   8.075   8.464 -4.5407  4.1908 -1.3052
  930MOL0     H25513  -0.456   8.089   8.592 -0.4059 -0.8915 -1.1277
  930MOL0     H25514  -1.058   8.154   8.384 -2.3079  1.0052  0.5639
  930MOL0     H25515  -1.257   8.153   8.231  0.5337  0.0452 -0.7231
  930MOL0     H25516  -1.275   8.281   7.816  0.1463 -2.2540 -1.1919
  930MOL0     H25517  -1.147   8.201   7.921 -1.0117 -3.2814  0.8602
  930MOL0     H25518  -1.290   8.040   7.850 -2.9269 -1.6379 -0.0546
  930MOL0     H25519  -1.285   8.054   8.025  0.3853 -0.2093  0.3472
  930MOL0     H25520  -1.515   8.195   8.003 -0.4663 -2.4625  1.2238
  930MOL0     H25521  -1.518   8.017   7.957 -1.0103 -0.5347 -1.7939
  930MOL0     H25522  -1.483   8.241   7.753  0.1719 -1.1834 -2.1167
  930MOL0     H25523  -1.502   8.074   7.723 -1.3177  0.3546 -1.2745
  930MOL0     H25524  -1.720   8.105   7.877 -1.8242  2.3878  2.2735
  930MOL0     H25525  -1.723   8.132   7.699 -2.0446  0.3626  1.2905
  930MOL0     H25526  -1.665   8.340   7.896  2.0668  0.0781 -1.0754
  930MOL0     H25527  -1.692   8.367   7.722 -1.7117  0.2390 -0.0638
  930MOL0     H25528  -1.886   8.414   7.877 -0.5393  0.7174 -0.0238
  930MOL0     H25529  -1.893   8.239   7.913 -0.7746 -0.0586 -0.8307
  930MOL0     H25530  -1.976   8.189   7.703  0.5870 -0.3232 -0.9577
  930MOL0     H25531  -1.908   8.337   7.619  1.5067  0.4738  0.8873
  930MOL0     H25532  -1.096   8.503   8.041 -0.6912 -0.9552 -0.9568
  930MOL0     H25533  -0.915   8.515   8.187 -1.2925 -0.0674 -1.7388
  930MOL0     H25534  -0.848   8.464   8.595 -0.3215 -1.9221 -0.9707
  930MOL0     H25535  -0.718   8.558   8.778  0.3830 -0.5620  0.1292
  930MOL0     H25536   0.906   9.218   9.328 -2.3887 -0.3767  2.1148
  930MOL0     H25537   1.123   9.221   9.401 -1.5051 -0.6352 -3.8028
  930MOL0     H25538   1.506   9.344   9.466  1.7902 -0.1546 -0.3866
  930MOL0     H25539   1.731   9.321   9.510 -1.7419  0.7166 -2.9310
  930MOL0     H25540   1.958   9.390   9.524  2.4948  1.0490 -0.5873
  930MOL0     H25541   1.931   9.554   9.579  0.3953  1.1720  0.5602
  930MOL0     H25542   2.178   9.455   9.588  0.1736 -3.8363 -0.4079
  930MOL0     H25543   2.125   9.351   9.716 -0.0595 -1.2354 -2.2883
  930MOL0     H25544   2.047   9.599   9.833 -2.3935 -2.7265 -0.7416
  930MOL0     H25545   2.147   9.666   9.712 -4.5602  0.7275  1.2564
  930MOL0     H25546   2.245   9.424   9.888  0.5546 -0.0821  0.3786
  930MOL0     H25547   2.251   9.594   9.964  2.3260  0.8183 -0.1690
  930MOL0     H25548   2.575   9.553   9.694  0.5612 -2.1234  1.0904
  930MOL0     H25549   1.707   9.557   9.862  0.4970  0.1885 -1.1214
  930MOL0     H25550   1.462   9.561   9.839 -1.3148 -0.5306  0.4053
  931MOL0     O25551  11.150   4.671   5.005 -0.0596  0.0824 -0.5533
  931MOL0     C25552  11.173   4.566   4.942 -0.3036 -0.3178 -0.3338
  931MOL0     O25553  11.081   4.502   4.867 -0.6007  0.1184  0.2270
  931MOL0     C25554  10.954   4.539   4.882  0.4009 -0.1101 -0.3514
  931MOL0     C25555  10.903   4.673   4.884 -0.8214  0.0844 -0.4079
  931MOL0     C25556  10.767   4.701   4.899 -0.6388  0.2357  0.1083
  931MOL0     C25557  10.678   4.605   4.940 -0.3684  0.4645 -0.1523
  931MOL0     O25558  10.547   4.635   4.952 -0.8890 -0.1295 -0.2176
  931MOL0     C25559  10.445   4.545   4.898 -0.1232  0.4586 -0.5987
  931MOL0     C25560  10.315   4.635   4.885  0.0151 -0.4329  0.0388
  931MOL0     C25561  10.262   4.683   5.024 -0.0959  0.4669  0.6014
  931MOL0     C25562  10.119   4.742   5.032 -0.5079 -0.4866  0.4495
  931MOL0     C25563  10.078   4.770   5.175 -0.0064  0.4569  0.0945
  931MOL0     C25564   9.951   4.850   5.190  0.4148 -0.4346 -0.4447
  931MOL0     C25565   9.893   4.847   5.330 -0.1670  0.4167 -0.3891
  931MOL0     C25566   9.798   4.962   5.366 -0.2110  0.2387  0.6635
  931MOL0     N25567   9.679   4.977   5.272 -0.5345  0.2157  0.3126
  931MOL0     C25568   9.682   5.038   5.152  0.4246 -0.5310  0.2905
  931MOL0     C25569   9.577   4.994   5.079  0.3026 -0.3973 -0.7027
  931MOL0     C25570   9.524   5.036   4.941  0.1502  0.2773  0.1790
  931MOL0     C25571   9.499   4.903   4.870  0.5225 -0.0080  1.1660
  931MOL0     C25572   9.470   4.928   4.717  0.1930 -0.3133  0.3327
  931MOL0     C25573   9.449   4.791   4.643  0.2289  0.5605 -0.2523
  931MOL0     O25574   9.312   4.733   4.676 -0.1185 -0.4484 -0.8007
  931MOL0     C25575   9.193   4.804   4.646  0.9809 -0.5825 -0.0993
  931MOL0     C25576   9.079   4.756   4.707 -0.1252  0.4354  0.0494
  931MOL0     C25577   8.957   4.815   4.678  0.6122  0.5298 -0.1225
  931MOL0     C25578   8.835   4.750   4.738 -0.2053 -0.1799 -0.4371
  931MOL0     C25579   8.938   4.924   4.584  0.1264 -0.3369 -0.6571
  931MOL0     C25580   8.816   5.005   4.560  0.3979  0.8312  0.0316
  931MOL0     O25581   8.804   5.054   4.434 -0.7505 -0.5664  0.0171
  931MOL0     C25582   8.692   5.129   4.410  0.1807 -0.0104  0.3808
  931MOL0     C25583   8.696   5.262   4.365 -0.7683  0.1026 -0.1054
  931MOL0     C25584   8.584   5.346   4.348 -0.5635 -0.2856 -0.6466
  931MOL0     C25585   8.464   5.293   4.358 -0.3309  0.0754  0.4712
  931MOL0     O25586   8.366   5.377   4.329  0.3919 -0.0588  0.1908
  931MOL0     C25587   8.229   5.345   4.340  1.1372 -0.3238 -0.6908
  931MOL0     C25588   8.149   5.421   4.227  0.1286 -0.6827  0.4044
  931MOL0     C25589   8.151   5.584   4.218 -0.5758  0.1898 -0.5824
  931MOL0     C25590   8.106   5.643   4.086 -0.8146  0.2073 -0.4603
  931MOL0     C25591   8.108   5.795   4.098 -0.6305  0.5363  0.0315
  931MOL0     C25592   8.091   5.852   3.958  0.6861 -0.4975 -0.2323
  931MOL0     C25593   8.079   6.006   3.954  0.2493 -0.1206 -0.6428
  931MOL0     C25594   8.008   6.063   3.829 -0.1109  0.2841  0.5423
  931MOL0    Cl25595   8.090   5.996   3.687 -0.4154 -0.2703 -0.0013
  931MOL0     C25596   8.452   5.160   4.399 -0.1031 -0.0075  0.2106
  931MOL0     C25597   8.563   5.072   4.420  0.8639 -0.0593  0.1083
  931MOL0     O25598   8.743   5.025   4.659  0.2177  0.3854  0.1898
  931MOL0     C25599   9.054   4.967   4.523  0.3385 -0.7501  0.0228
  931MOL0     C25600   9.182   4.905   4.543  0.8013 -1.1877 -0.2103
  931MOL0     N25601   9.502   4.918   5.169 -0.0535 -0.1573  0.0125
  931MOL0     N25602   9.572   4.885   5.272 -0.8305 -0.1796 -0.5464
  931MOL0     C25603  10.724   4.473   4.944 -0.9476  0.1857 -0.2756
  931MOL0     C25604  10.863   4.435   4.906  0.0438  0.0552  0.0036
  931MOL0     C25605  11.309   4.519   4.919  0.1926  0.3101  0.0386
  931MOL0     C25606  11.422   4.587   4.973 -0.5146  0.1211  0.5550
  931MOL0     C25607  11.556   4.541   4.960 -0.1933 -0.3606  0.3755
  931MOL0     C25608  11.576   4.413   4.891 -0.0294  0.8739  0.2364
  931MOL0     O25609  11.705   4.348   4.868  0.1982  0.3166  0.0789
  931MOL0     C25610  11.813   4.413   4.931  0.4533  0.3048  0.8820
  931MOL0     C25611  11.947   4.335   4.902  0.0836  0.5081 -0.0296
  931MOL0     C25612  12.058   4.388   4.994 -0.0305 -0.2922 -0.2063
  931MOL0     C25613  12.185   4.326   4.944  0.2932 -0.0643  1.0544
  931MOL0     C25614  12.305   4.338   5.027  0.0953  0.6969 -0.3951
  931MOL0     C25615  12.393   4.369   5.103 -0.1710  0.2855 -0.9084
  931MOL0     C25616  11.467   4.348   4.825  0.2106 -0.9351  0.3980
  931MOL0     C25617  11.341   4.403   4.843  0.6549 -0.9094 -0.3354
  931MOL0     H25618  10.965   4.760   4.866 -1.1652  0.2169 -0.9897
  931MOL0     H25619  10.726   4.801   4.912  0.6241  0.7520  0.2248
  931MOL0     H25620  10.465   4.500   4.800 -2.6660  0.4235 -1.1619
  931MOL0     H25621  10.424   4.468   4.973 -1.0368 -0.9338 -2.2128
  931MOL0     H25622  10.330   4.721   4.819 -2.1833 -0.4726 -0.6031
  931MOL0     H25623  10.233   4.576   4.843  0.7353 -1.9340  0.6611
  931MOL0     H25624  10.268   4.601   5.097 -0.1841  0.3185  0.4435
  931MOL0     H25625  10.319   4.771   5.055  1.4462  0.1077 -1.0679
  931MOL0     H25626  10.112   4.825   4.961 -1.4254 -0.8526  0.1054
  931MOL0     H25627  10.051   4.670   4.987 -0.3477  0.3922 -1.2763
  931MOL0     H25628  10.056   4.669   5.210  1.9157  0.0093  0.1313
  931MOL0     H25629  10.163   4.820   5.223 -1.1132  2.0192  0.5307
  931MOL0     H25630   9.959   4.955   5.160 -3.5808  0.5792  1.3472
  931MOL0     H25631   9.872   4.801   5.132 -0.3433 -1.2428  1.1994
  931MOL0     H25632   9.827   4.761   5.345 -0.3782  0.9788  2.3403
  931MOL0     H25633   9.963   4.841   5.414  0.8946  1.9113 -1.1202
  931MOL0     H25634   9.862   5.051   5.362 -1.0421  0.8265 -0.3054
  931MOL0     H25635   9.766   4.953   5.470  0.1775 -0.9570  0.6944
  931MOL0     H25636   9.766   5.099   5.119  0.8983 -1.0040  0.6072
  931MOL0     H25637   9.433   5.092   4.966 -0.8372  0.3107 -2.9550
  931MOL0     H25638   9.597   5.097   4.886  1.2409  3.1216  4.2752
  931MOL0     H25639   9.412   4.850   4.911 -0.2953 -1.6844 -2.3438
  931MOL0     H25640   9.588   4.839   4.870  1.0276  0.4384 -2.8434
  931MOL0     H25641   9.543   4.993   4.668 -0.2430  0.3452  0.5445
  931MOL0     H25642   9.382   4.991   4.704  2.2442  2.6941 -0.1418
  931MOL0     H25643   9.518   4.712   4.676 -0.9407  0.6099  2.6413
  931MOL0     H25644   9.448   4.805   4.535 -1.4129  0.1298 -0.3079
  931MOL0     H25645   9.103   4.675   4.775  4.5155  0.9692 -0.6201
  931MOL0     H25646   8.817   4.791   4.838  1.5647 -0.7323  0.1356
  931MOL0     H25647   8.748   4.760   4.672  0.7860 -3.3452 -2.4279
  931MOL0     H25648   8.848   4.642   4.748  0.3296 -0.1315 -0.5937
  931MOL0     H25649   8.799   5.295   4.375 -0.3270 -1.7823  3.9587
  931MOL0     H25650   8.601   5.453   4.339  0.5797 -0.5098 -1.2654
  931MOL0     H25651   8.202   5.242   4.313 -0.4984  0.1508 -0.9807
  931MOL0     H25652   8.198   5.372   4.441  3.9256  2.3076 -0.4059
  931MOL0     H25653   8.189   5.385   4.132  2.6957  1.7942  0.4241
  931MOL0     H25654   8.041   5.403   4.236 -0.6822  2.3223 -1.7686
  931MOL0     H25655   8.249   5.622   4.248 -0.5304 -1.7854  2.1452
  931MOL0     H25656   8.083   5.612   4.298 -0.3855 -0.0047 -0.3531
  931MOL0     H25657   8.168   5.607   4.003 -3.0958  1.2459 -2.7419
  931MOL0     H25658   8.004   5.611   4.065 -0.8260  0.8236 -1.3951
  931MOL0     H25659   8.194   5.845   4.143  1.3566  0.1412 -3.0308
  931MOL0     H25660   8.019   5.815   4.158 -0.6511 -3.1934  1.4605
  931MOL0     H25661   8.182   5.818   3.907  0.5470 -1.1393 -0.0606
  931MOL0     H25662   8.000   5.805   3.918  0.1010  0.3010  0.1493
  931MOL0     H25663   8.173   6.057   3.975 -0.8288  1.1317  1.6219
  931MOL0     H25664   8.022   6.033   4.044  2.1068  1.7706  0.0348
  931MOL0     H25665   8.006   6.171   3.841 -2.6094  0.1824  1.6935
  931MOL0     H25666   7.905   6.029   3.820  0.8792 -3.3302  0.8770
  931MOL0     H25667   8.353   5.113   4.397 -1.7797  2.8499  3.7973
  931MOL0     H25668   8.538   4.971   4.452 -0.5347 -0.0658 -0.8941
  931MOL0     H25669   9.055   5.056   4.461  0.5860 -1.9917 -1.8846
  931MOL0     H25670   9.262   4.926   4.473  0.4186  0.3729 -0.2053
  931MOL0     H25671  10.663   4.388   4.974 -0.6851 -0.7425 -2.2022
  931MOL0     H25672  10.895   4.333   4.923 -1.7365 -0.9337 -2.2384
  931MOL0     H25673  11.398   4.677   5.028 -2.7129 -0.2186  0.2644
  931MOL0     H25674  11.628   4.613   4.997  0.1198 -0.8565  0.7295
  931MOL0     H25675  11.817   4.516   4.896 -2.1643  0.2595  0.2533
  931MOL0     H25676  11.805   4.425   5.040 -1.3701  3.5712  0.5082
  931MOL0     H25677  11.971   4.356   4.797  2.5996 -1.1400  0.1172
  931MOL0     H25678  11.936   4.227   4.915  1.5113  0.6097  2.7595
  931MOL0     H25679  12.043   4.357   5.098  3.2341 -0.9966  0.1563
  931MOL0     H25680  12.069   4.497   4.994  1.1655 -0.3847  1.3212
  931MOL0     H25681  12.206   4.353   4.840 -1.7989 -1.8502  0.0902
  931MOL0     H25682  12.161   4.219   4.935 -1.5502  0.4957 -1.7784
  931MOL0     H25683  12.463   4.418   5.167 -3.8619  1.6772  2.5101
  931MOL0     H25684  11.498   4.270   4.757  0.3472  1.0523 -1.9234
  931MOL0     H25685  11.260   4.345   4.801 -2.1588  1.2005  1.8475
  932MOL0     O25686   8.615   8.729   5.620 -0.2902  0.3488 -0.0717
  932MOL0     C25687   8.611   8.659   5.722  0.1534 -0.7491  0.4464
  932MOL0     O25688   8.535   8.682   5.834  0.2437 -0.0265 -0.2860
  932MOL0     C25689   8.448   8.783   5.839  0.2266  0.0260  0.6748
  932MOL0     C25690   8.306   8.756   5.839  0.0436  0.2321 -0.8830
  932MOL0     C25691   8.214   8.861   5.818  0.2145 -0.6124 -0.3728
  932MOL0     C25692   8.253   8.990   5.809  0.2293 -0.5907 -0.1399
  932MOL0     O25693   8.165   9.082   5.761 -0.2560 -0.4116  0.5544
  932MOL0     C25694   8.091   9.071   5.638  0.0768 -0.2514 -0.3026
  932MOL0     C25695   7.954   9.137   5.641  0.1155 -0.1530 -0.4043
  932MOL0     C25696   7.897   9.116   5.503  0.6261  0.0995 -0.3676
  932MOL0     C25697   7.762   9.190   5.498 -0.2213 -0.4547  0.1717
  932MOL0     C25698   7.697   9.179   5.354  0.0415 -0.4588 -0.2751
  932MOL0     C25699   7.551   9.237   5.349 -0.7709  0.1189  0.0838
  932MOL0     C25700   7.438   9.160   5.411 -0.2512 -0.3451 -0.5731
  932MOL0     C25701   7.311   9.219   5.349  0.3746  0.7306  0.4095
  932MOL0     N25702   7.189   9.140   5.385 -0.9276 -0.7352 -0.3671
  932MOL0     C25703   7.134   9.039   5.311 -0.7909 -0.9345  0.2435
  932MOL0     C25704   7.043   8.987   5.394 -0.5332  1.1136 -0.2908
  932MOL0     C25705   6.944   8.887   5.358  0.0062 -1.0605  0.6150
  932MOL0     C25706   6.835   8.858   5.470  0.5420 -0.4463  0.1531
  932MOL0     C25707   6.727   8.973   5.470  0.4057  0.3110  0.5734
  932MOL0     C25708   6.654   8.987   5.602 -0.1985  0.7934  0.3583
  932MOL0     O25709   6.540   9.056   5.574  0.2320  0.6421  0.0131
  932MOL0     C25710   6.434   9.042   5.662 -0.0663  0.6677 -0.0292
  932MOL0     C25711   6.310   9.064   5.609 -0.7031 -0.4199  0.4100
  932MOL0     C25712   6.193   9.028   5.680  0.0774 -0.1497  0.3229
  932MOL0     C25713   6.062   9.045   5.614  0.5079 -0.1570 -0.2616
  932MOL0     C25714   6.205   8.993   5.812  0.9611 -0.7864  0.5782
  932MOL0     C25715   6.092   8.962   5.901 -0.0643  0.3205  0.9486
  932MOL0     O25716   6.002   9.056   5.926  0.5078  0.1273 -0.0565
  932MOL0     C25717   5.891   9.018   6.009  0.5167 -0.1353  0.0329
  932MOL0     C25718   5.785   8.948   5.953 -0.2766 -0.0626 -0.1809
  932MOL0     C25719   5.672   8.910   6.028 -0.5280 -1.2624 -0.8995
  932MOL0     C25720   5.653   8.968   6.153 -0.5837 -0.5721 -0.4127
  932MOL0     O25721   5.539   8.938   6.228  0.5045 -0.2657  0.0203
  932MOL0     C25722   5.508   9.020   6.342 -0.1110  0.2386 -0.8386
  932MOL0     C25723   5.370   8.982   6.398  0.1336  0.0873 -0.0747
  932MOL0     C25724   5.265   9.012   6.288  0.5064  1.0991 -0.1266
  932MOL0     C25725   5.118   9.004   6.335 -0.0124 -0.3870 -0.5077
  932MOL0     C25726   5.037   8.972   6.215 -0.8265 -0.1950 -0.3259
  932MOL0     C25727   4.889   8.972   6.262 -0.3312  0.0045 -0.4608
  932MOL0     C25728   4.822   9.110   6.277  0.1508 -0.4489  0.3164
  932MOL0     C25729   4.685   9.087   6.348  0.4003  0.5360 -0.2127
  932MOL0    Cl25730   4.652   9.244   6.436  0.4611  0.2686  0.4886
  932MOL0     C25731   5.762   9.041   6.209  1.1211  0.8588 -0.2825
  932MOL0     C25732   5.879   9.061   6.138 -0.0198  1.2145 -0.2090
  932MOL0     O25733   6.093   8.852   5.951  0.1385  0.0841  0.1945
  932MOL0     C25734   6.332   8.990   5.869 -0.0387  0.5453  0.3134
  932MOL0     C25735   6.444   9.007   5.798 -0.3770  1.1696 -0.6156
  932MOL0     N25736   7.046   9.053   5.518  0.1277 -0.1078  0.1550
  932MOL0     N25737   7.136   9.141   5.515 -0.4008 -0.4737  0.3082
  932MOL0     C25738   8.389   9.026   5.828 -0.5505  0.0972 -0.4314
  932MOL0     C25739   8.482   8.920   5.842 -0.2344  0.5524  0.7931
  932MOL0     C25740   8.706   8.554   5.735 -0.5824 -0.1580 -0.2366
  932MOL0     C25741   8.695   8.463   5.836  0.4904 -0.2023 -0.0084
  932MOL0     C25742   8.792   8.364   5.855 -0.4496  0.1029  0.4526
  932MOL0     C25743   8.901   8.348   5.767  1.2325  0.5904 -0.0006
  932MOL0     O25744   8.978   8.237   5.790 -0.1284 -0.3122  0.1415
  932MOL0     C25745   9.094   8.224   5.705  0.7233 -0.6157  0.1431
  932MOL0     C25746   9.190   8.127   5.764 -0.0539 -1.0075 -0.3258
  932MOL0     C25747   9.244   8.165   5.910 -0.1600 -0.7526  0.0955
  932MOL0     C25748   9.325   8.051   5.960  0.2234 -0.2999 -0.6151
  932MOL0     C25749   9.438   8.019   5.879 -0.3908  0.3299 -0.2956
  932MOL0     C25750   9.547   7.999   5.817  0.7918  0.2743 -0.7124
  932MOL0     C25751   8.906   8.446   5.670 -0.1780  0.1439  0.0032
  932MOL0     C25752   8.820   8.554   5.652 -0.8525 -0.1123  0.1141
  932MOL0     H25753   8.261   8.657   5.842  2.4876 -0.9238  1.7254
  932MOL0     H25754   8.107   8.843   5.816  0.2138 -0.8969  1.1938
  932MOL0     H25755   8.152   9.111   5.557 -1.7602  2.5964 -0.4324
  932MOL0     H25756   8.079   8.965   5.613  0.0925 -0.1735 -0.6513
  932MOL0     H25757   7.896   9.083   5.715  1.6814 -1.5522 -0.1275
  932MOL0     H25758   7.961   9.246   5.653 -1.6307 -0.1837  1.2574
  932MOL0     H25759   7.970   9.160   5.435 -1.3560 -2.8779 -4.9843
  932MOL0     H25760   7.888   9.008   5.485  0.6635  0.0784 -0.2563
  932MOL0     H25761   7.694   9.149   5.572 -0.8538  3.3073  1.9041
  932MOL0     H25762   7.783   9.296   5.514  1.9727 -0.7128 -0.5906
  932MOL0     H25763   7.762   9.225   5.279  0.7337  1.3772  1.3487
  932MOL0     H25764   7.691   9.073   5.329  1.2094 -0.2779 -1.4235
  932MOL0     H25765   7.550   9.341   5.385 -1.5610 -0.3416  1.4883
  932MOL0     H25766   7.537   9.224   5.241 -0.5063 -0.8660  0.1629
  932MOL0     H25767   7.453   9.057   5.380  0.4386 -0.1713 -0.8229
  932MOL0     H25768   7.441   9.162   5.521 -0.4305 -2.5130 -0.4808
  932MOL0     H25769   7.323   9.217   5.240  0.4042 -3.9664  0.2819
  932MOL0     H25770   7.294   9.317   5.393  1.0238 -0.2893  3.1179
  932MOL0     H25771   7.154   9.015   5.207  1.4006 -0.0555  0.4115
  932MOL0     H25772   6.885   8.918   5.271 -0.3880  2.4752  1.9776
  932MOL0     H25773   6.999   8.796   5.333  3.2427  0.9520 -0.3137
  932MOL0     H25774   6.890   8.871   5.563 -0.0451  5.2340  0.1130
  932MOL0     H25775   6.778   8.766   5.457 -0.2599  0.2529 -1.6224
  932MOL0     H25776   6.660   8.963   5.383  2.1265 -1.3731 -0.6408
  932MOL0     H25777   6.771   9.074   5.467 -1.1331  1.1500  3.2239
  932MOL0     H25778   6.713   9.020   5.689 -1.3352 -1.2388  1.9874
  932MOL0     H25779   6.631   8.886   5.637 -0.8116  1.5195  2.1318
  932MOL0     H25780   6.296   9.088   5.504  0.0460  0.3179  0.4752
  932MOL0     H25781   6.052   9.008   5.512 -2.7887 -1.2653  0.3531
  932MOL0     H25782   5.980   9.002   5.672  1.1767 -0.7143  0.2877
  932MOL0     H25783   6.042   9.153   5.613  1.0380 -0.0277 -2.8634
  932MOL0     H25784   5.795   8.908   5.853  1.8940 -0.2054  0.0555
  932MOL0     H25785   5.594   8.849   5.982 -1.8262  2.0572 -3.5130
  932MOL0     H25786   5.581   9.006   6.423  0.7769  0.0275 -1.6625
  932MOL0     H25787   5.516   9.123   6.309 -0.6358 -0.3216 -2.8420
  932MOL0     H25788   5.370   8.884   6.446  0.6129 -0.2262 -0.7192
  932MOL0     H25789   5.351   9.046   6.485 -2.2084 -0.9472  0.2650
  932MOL0     H25790   5.280   8.930   6.217 -1.3774  1.2135 -0.7281
  932MOL0     H25791   5.284   9.110   6.243 -0.7789  1.2791 -0.3086
  932MOL0     H25792   5.115   8.914   6.398  0.9144  0.8988  1.4699
  932MOL0     H25793   5.082   9.093   6.388  1.5753 -0.3396  0.5503
  932MOL0     H25794   5.077   8.882   6.168 -0.6800  0.6243 -1.8284
  932MOL0     H25795   5.050   9.047   6.137 -0.2788 -0.8987 -0.9265
  932MOL0     H25796   4.838   8.905   6.191  1.7590 -0.0518 -2.0042
  932MOL0     H25797   4.902   8.910   6.351  0.2069 -1.9808 -1.8445
  932MOL0     H25798   4.814   9.169   6.185  2.5748  3.2973  2.2150
  932MOL0     H25799   4.891   9.164   6.342  0.5781 -0.5688 -0.0362
  932MOL0     H25800   4.693   9.005   6.419  0.6121 -0.9798 -1.9139
  932MOL0     H25801   4.618   9.055   6.268  1.2016  0.0548 -0.7150
  932MOL0     H25802   5.754   9.073   6.313 -2.5970  1.9282 -0.7744
  932MOL0     H25803   5.970   9.095   6.188 -0.7525  0.8940  1.4228
  932MOL0     H25804   6.336   8.973   5.976  1.2731  3.0474  0.7267
  932MOL0     H25805   6.543   8.993   5.840 -1.6650 -0.0544  2.2726
  932MOL0     H25806   8.426   9.128   5.822 -0.3466  0.0414 -0.1451
  932MOL0     H25807   8.586   8.949   5.854  0.0631  0.2531 -0.7514
  932MOL0     H25808   8.600   8.440   5.883 -0.1086  1.4069 -0.3798
  932MOL0     H25809   8.781   8.279   5.922 -0.5525 -0.9195 -0.8277
  932MOL0     H25810   9.070   8.191   5.603 -0.2231  2.5882 -0.7803
  932MOL0     H25811   9.153   8.316   5.710 -1.7315  0.9805  1.7894
  932MOL0     H25812   9.276   8.120   5.698 -1.2840  1.9880 -2.4637
  932MOL0     H25813   9.137   8.031   5.761 -0.0636 -0.9791 -1.9252
  932MOL0     H25814   9.162   8.203   5.971 -1.3075 -0.1583 -1.7348
  932MOL0     H25815   9.321   8.243   5.901 -0.1157 -0.7224  0.7026
  932MOL0     H25816   9.261   7.964   5.944 -2.2752  1.4283 -0.5451
  932MOL0     H25817   9.361   8.070   6.061 -1.5455 -1.5084  0.2756
  932MOL0     H25818   9.639   7.977   5.767  2.0863 -1.3341  2.1267
  932MOL0     H25819   8.998   8.453   5.612  1.4741 -0.6949  2.3664
  932MOL0     H25820   8.834   8.621   5.568 -0.0564 -0.9002 -0.4040
  933MOL0     O25821   4.131   2.959   5.200  0.1145 -0.3712 -0.3159
  933MOL0     C25822   4.096   2.859   5.136 -0.8237  0.1877  0.3112
  933MOL0     O25823   3.962   2.829   5.101  0.5785 -0.3397  0.8001
  933MOL0     C25824   3.864   2.925   5.136 -0.4181  0.9289  0.1615
  933MOL0     C25825   3.833   3.029   5.042 -0.4332 -0.5132 -0.7786
  933MOL0     C25826   3.715   3.107   5.065  0.3618  0.1817 -0.7591
  933MOL0     C25827   3.649   3.094   5.182  0.3502  0.1801  0.1988
  933MOL0     O25828   3.536   3.168   5.196 -0.3310 -0.2569  0.0142
  933MOL0     C25829   3.530   3.255   5.315 -0.4449 -0.0325  0.1949
  933MOL0     C25830   3.614   3.384   5.300  0.5751 -0.6881  0.0100
  933MOL0     C25831   3.541   3.480   5.197  0.2286 -0.9389 -0.0625
  933MOL0     C25832   3.647   3.577   5.161 -0.4840  0.4039 -0.1486
  933MOL0     C25833   3.611   3.690   5.063  0.7979 -0.7561  0.0110
  933MOL0     C25834   3.701   3.805   5.081 -0.1456 -0.8277 -0.0024
  933MOL0     C25835   3.678   3.920   4.978  0.9109  0.0038  0.1113
  933MOL0     C25836   3.772   3.890   4.859 -0.2446  0.0285  0.1171
  933MOL0     N25837   3.879   3.986   4.839  0.4649 -0.3858  0.2644
  933MOL0     C25838   3.995   3.941   4.779  0.2811  0.4656  0.3099
  933MOL0     C25839   4.092   4.031   4.803  1.5542 -0.4290  0.0478
  933MOL0     C25840   4.231   4.019   4.742  0.4433 -0.1961 -0.4426
  933MOL0     C25841   4.318   3.906   4.812 -0.1908 -0.3012 -0.9666
  933MOL0     C25842   4.328   3.908   4.969  0.0100 -0.2376 -0.3224
  933MOL0     C25843   4.253   3.787   5.016  0.2109 -0.2297 -0.8297
  933MOL0     O25844   4.269   3.783   5.162  1.1226  0.2456 -0.2837
  933MOL0     C25845   4.158   3.806   5.230 -0.3590 -0.2283  0.2089
  933MOL0     C25846   4.103   3.934   5.240 -0.0560  0.3580 -0.3862
  933MOL0     C25847   3.979   3.959   5.296 -0.3167  0.2096 -0.7941
  933MOL0     C25848   3.946   4.105   5.288 -0.3928  0.1143  0.4452
  933MOL0     C25849   3.910   3.848   5.364 -0.9692 -0.7285 -1.0365
  933MOL0     C25850   3.786   3.862   5.436  0.0718  0.4662  0.9706
  933MOL0     O25851   3.725   3.747   5.472 -0.2987  0.4746 -0.4998
  933MOL0     C25852   3.597   3.756   5.521  0.8308 -0.3804 -0.0296
  933MOL0     C25853   3.569   3.743   5.656 -0.6912  0.5187 -0.1347
  933MOL0     C25854   3.441   3.732   5.702  0.1914  0.6420 -0.2889
  933MOL0     C25855   3.330   3.752   5.619  0.6788  1.7891  0.0841
  933MOL0     O25856   3.195   3.731   5.641  0.6002  0.2763 -0.3620
  933MOL0     C25857   3.153   3.675   5.772 -0.1271 -0.4460 -0.9365
  933MOL0     C25858   3.004   3.665   5.784  0.0335 -0.8462  0.2603
  933MOL0     C25859   2.927   3.810   5.757 -1.2921 -0.0695 -0.4401
  933MOL0     C25860   2.779   3.793   5.758 -1.1104  0.5044 -0.2748
  933MOL0     C25861   2.688   3.911   5.751 -0.4657  0.1864 -0.2302
  933MOL0     C25862   2.543   3.886   5.775  0.4808 -0.2281 -0.2411
  933MOL0     C25863   2.454   4.015   5.774 -0.3226  0.4986 -0.9832
  933MOL0     C25864   2.300   4.004   5.778 -1.0278 -0.1874 -0.1919
  933MOL0    Cl25865   2.247   3.889   5.654 -0.5572  0.2828 -0.2441
  933MOL0     C25866   3.360   3.780   5.485 -0.0371  0.4914 -0.4861
  933MOL0     C25867   3.485   3.782   5.439  0.3571  0.4756  0.2245
  933MOL0     O25868   3.744   3.975   5.474  0.2151  0.0465  0.0841
  933MOL0     C25869   3.972   3.716   5.348 -0.3097 -0.5299 -0.3719
  933MOL0     C25870   4.093   3.699   5.283  0.1709  0.0064 -0.4270
  933MOL0     N25871   4.041   4.120   4.901  0.3505  0.2908  0.3210
  933MOL0     N25872   3.923   4.089   4.920 -0.1709 -0.1458 -0.5055
  933MOL0     C25873   3.680   2.999   5.267 -0.4664  0.3251 -0.2105
  933MOL0     C25874   3.790   2.914   5.250  0.2846 -0.4465 -0.5470
  933MOL0     C25875   4.190   2.746   5.121 -0.1738 -0.6392  0.1688
  933MOL0     C25876   4.149   2.627   5.059 -0.2189 -0.6903  0.1091
  933MOL0     C25877   4.243   2.518   5.051  0.7972 -0.4763  1.2802
  933MOL0     C25878   4.373   2.519   5.108  1.1629  0.1446 -0.5898
  933MOL0     O25879   4.447   2.406   5.105  0.0290  0.1447  0.4260
  933MOL0     C25880   4.577   2.401   5.166  0.1287 -0.4537 -0.2444
  933MOL0     C25881   4.639   2.264   5.135 -0.6867 -0.2859  0.3311
  933MOL0     C25882   4.768   2.253   5.227 -0.0619  0.1618  0.3157
  933MOL0     C25883   4.883   2.178   5.163 -0.6106  0.3679  0.2686
  933MOL0     C25884   5.005   2.164   5.242  0.8914 -0.7556 -0.0861
  933MOL0     C25885   5.097   2.148   5.318  0.4058  0.3921  1.0328
  933MOL0     C25886   4.402   2.645   5.170 -0.4984  1.2283 -0.9034
  933MOL0     C25887   4.320   2.755   5.164  0.2321 -0.0919 -0.2588
  933MOL0     H25888   3.890   3.043   4.951 -2.4015 -2.1173 -2.3395
  933MOL0     H25889   3.666   3.160   4.984  0.6328 -0.9711 -1.7169
  933MOL0     H25890   3.427   3.287   5.332  0.3651  2.0861  1.4287
  933MOL0     H25891   3.560   3.195   5.402 -0.0154  0.5849  0.4766
  933MOL0     H25892   3.612   3.426   5.401 -1.5394 -0.0837 -0.2465
  933MOL0     H25893   3.718   3.353   5.282 -0.2705 -2.9151 -1.4351
  933MOL0     H25894   3.517   3.418   5.111 -0.6374 -0.9899  0.2060
  933MOL0     H25895   3.459   3.544   5.233  1.6444  0.0728  1.5727
  933MOL0     H25896   3.693   3.618   5.251 -1.5706  0.9076  0.1920
  933MOL0     H25897   3.728   3.526   5.108  1.0313 -1.9413  3.9537
  933MOL0     H25898   3.616   3.652   4.961  1.3708 -2.2344  0.5578
  933MOL0     H25899   3.507   3.715   5.087  0.9858 -1.7320  2.0519
  933MOL0     H25900   3.694   3.835   5.186  1.8679 -2.7915  0.7664
  933MOL0     H25901   3.807   3.781   5.079  0.4972  1.4369  1.8313
  933MOL0     H25902   3.573   3.921   4.948  1.7214 -0.4405 -3.1424
  933MOL0     H25903   3.703   4.015   5.026  2.2834  0.4615 -1.4243
  933MOL0     H25904   3.710   3.885   4.768  0.4403  0.1559 -0.3658
  933MOL0     H25905   3.815   3.791   4.873 -2.7958 -0.8065  3.1227
  933MOL0     H25906   4.003   3.852   4.718 -1.4196 -0.0322  0.7640
  933MOL0     H25907   4.218   4.007   4.634  2.2741  2.7218 -1.0844
  933MOL0     H25908   4.294   4.107   4.758  0.0484  0.7825 -3.6695
  933MOL0     H25909   4.418   3.912   4.769 -0.7577 -1.4200 -2.5451
  933MOL0     H25910   4.288   3.807   4.776  3.3148 -0.7557 -3.0945
  933MOL0     H25911   4.285   4.005   4.996 -2.2025 -1.0836 -0.6414
  933MOL0     H25912   4.428   3.901   5.014 -0.9990  0.9109  2.3283
  933MOL0     H25913   4.300   3.701   4.969  1.4024  0.4744 -0.9525
  933MOL0     H25914   4.147   3.796   4.988 -0.2888  0.9507  1.1945
  933MOL0     H25915   4.163   4.016   5.201 -0.8081  0.7519 -0.7210
  933MOL0     H25916   3.837   4.111   5.278 -0.3829  0.3922  0.4866
  933MOL0     H25917   3.967   4.157   5.381  2.3432  0.4401 -0.2792
  933MOL0     H25918   4.000   4.154   5.206 -0.1933 -1.6021 -0.5019
  933MOL0     H25919   3.649   3.736   5.730 -0.6950  0.6826 -0.1145
  933MOL0     H25920   3.424   3.718   5.808 -2.3634  1.2636 -0.5523
  933MOL0     H25921   3.204   3.579   5.772  3.2067  1.1622 -0.2375
  933MOL0     H25922   3.181   3.718   5.869 -2.2965 -4.1060  1.5392
  933MOL0     H25923   2.963   3.590   5.715 -0.5120  0.3804 -0.7937
  933MOL0     H25924   2.977   3.634   5.885  0.9916 -0.8316  0.5247
  933MOL0     H25925   2.955   3.855   5.662  0.0102 -2.1863 -1.1463
  933MOL0     H25926   2.955   3.884   5.832 -0.9118 -1.3209  0.7023
  933MOL0     H25927   2.763   3.730   5.671  2.1306 -0.5509 -0.2587
  933MOL0     H25928   2.756   3.729   5.843 -1.6929  1.2060  0.1096
  933MOL0     H25929   2.709   3.967   5.659 -0.5601 -0.1989 -0.4926
  933MOL0     H25930   2.718   3.980   5.830  3.5107 -0.4837 -0.9741
  933MOL0     H25931   2.505   3.818   5.697 -0.7211  0.9913 -0.7587
  933MOL0     H25932   2.529   3.832   5.869  1.4465 -3.4756 -1.8041
  933MOL0     H25933   2.482   4.058   5.677  0.5892 -1.1801 -1.5113
  933MOL0     H25934   2.495   4.077   5.854 -1.4708  2.6424 -1.9882
  933MOL0     H25935   2.252   4.102   5.764 -0.9073  0.7711  4.4533
  933MOL0     H25936   2.286   3.957   5.875 -0.2966  0.4695  0.2476
  933MOL0     H25937   3.281   3.802   5.414  0.6488  1.4584 -0.9788
  933MOL0     H25938   3.503   3.790   5.332 -0.7974  2.6306  0.1312
  933MOL0     H25939   3.920   3.629   5.386 -0.0278 -0.5343  0.0042
  933MOL0     H25940   4.132   3.598   5.274 -0.5597 -0.2924 -0.3197
  933MOL0     H25941   3.616   2.973   5.351  1.2066  0.1314  1.0510
  933MOL0     H25942   3.815   2.842   5.327 -0.6641 -0.0037  0.2040
  933MOL0     H25943   4.047   2.619   5.023  0.3726  1.8066 -2.5027
  933MOL0     H25944   4.209   2.425   5.009 -0.0505  0.7587 -0.9084
  933MOL0     H25945   4.642   2.485   5.139  0.5070 -0.4215  0.7082
  933MOL0     H25946   4.552   2.404   5.272  1.8125 -1.2744  0.2108
  933MOL0     H25947   4.673   2.256   5.031 -0.1957  2.6933  0.1667
  933MOL0     H25948   4.564   2.187   5.153 -1.3467 -0.8905 -3.9430
  933MOL0     H25949   4.732   2.206   5.319 -1.7307  0.0714 -0.3337
  933MOL0     H25950   4.813   2.352   5.237 -1.3808  0.9360 -0.9201
  933MOL0     H25951   4.913   2.226   5.069  1.6135 -1.8544 -0.2382
  933MOL0     H25952   4.843   2.081   5.134 -2.0437  1.1202 -0.3896
  933MOL0     H25953   5.171   2.114   5.388 -0.5043 -2.7393  0.6144
  933MOL0     H25954   4.497   2.671   5.216  0.8374 -1.0699 -2.1970
  933MOL0     H25955   4.349   2.848   5.212 -3.1452  0.9829 -0.0832
  934MOL0     O25956   9.831   1.873   3.954 -0.1094  0.0581 -0.3038
  934MOL0     C25957   9.724   1.891   4.023  0.0120  0.2495 -0.0235
  934MOL0     O25958   9.713   1.896   4.157 -0.4321 -0.4032 -0.0610
  934MOL0     C25959   9.831   1.914   4.230 -0.4845 -0.7554 -0.1056
  934MOL0     C25960   9.861   2.032   4.293 -0.2890 -1.1939 -0.9283
  934MOL0     C25961   9.973   2.065   4.377  0.3596  0.7960 -1.2127
  934MOL0     C25962  10.061   1.958   4.384 -0.5322 -0.0130 -0.2883
  934MOL0     O25963  10.154   1.962   4.485  0.4251  0.3302 -0.2010
  934MOL0     C25964  10.275   1.886   4.479  0.4917  0.2074  0.4817
  934MOL0     C25965  10.373   1.955   4.572 -0.7557  0.6225 -0.1872
  934MOL0     C25966  10.424   2.081   4.493 -0.0876 -0.2595  0.7113
  934MOL0     C25967  10.502   2.168   4.593  0.4728 -0.0313 -0.5923
  934MOL0     C25968  10.522   2.313   4.542  0.3769  0.5184 -0.5912
  934MOL0     C25969  10.568   2.406   4.650  0.0913  0.6888  0.5542
  934MOL0     C25970  10.477   2.428   4.769  0.2783 -0.4619 -0.1353
  934MOL0     C25971  10.483   2.555   4.843 -0.1229 -0.3752 -0.5900
  934MOL0     N25972  10.616   2.619   4.859  0.0620  0.5177  0.1401
  934MOL0     C25973  10.720   2.559   4.936  0.1454 -0.5366 -0.1219
  934MOL0     C25974  10.815   2.655   4.945  0.4324  0.1790  0.6819
  934MOL0     C25975  10.948   2.629   5.008  0.3778 -0.4052 -0.5043
  934MOL0     C25976  11.013   2.761   5.065  0.5876 -0.7263  0.3842
  934MOL0     C25977  11.125   2.715   5.152 -0.3335  0.6555  0.6702
  934MOL0     C25978  11.182   2.840   5.224  0.0910 -0.2291 -0.1623
  934MOL0     O25979  11.274   2.912   5.144  0.0974 -0.0769  0.6617
  934MOL0     C25980  11.402   2.876   5.136  0.0256 -0.2358  0.9025
  934MOL0     C25981  11.460   2.764   5.202 -0.3703  0.3359  0.9106
  934MOL0     C25982  11.595   2.734   5.201 -0.2299  0.1872 -0.0508
  934MOL0     C25983  11.629   2.608   5.280  0.4400 -0.1010  0.3190
  934MOL0     C25984  11.689   2.827   5.140  0.4292  0.1842 -0.0165
  934MOL0     C25985  11.835   2.808   5.143  0.0888 -0.5926  0.8739
  934MOL0     O25986  11.902   2.902   5.076 -0.2018 -0.0725 -0.3319
  934MOL0     C25987  12.040   2.908   5.057  0.2729  0.4789 -0.2064
  934MOL0     C25988  12.100   3.030   5.039  0.4897 -0.7126 -0.3691
  934MOL0     C25989  12.232   3.053   5.006 -0.1178  0.3197  0.3146
  934MOL0     C25990  12.312   2.945   4.973  0.1460 -0.1040 -0.5061
  934MOL0     O25991  12.444   2.951   4.929  0.1915 -0.3216 -0.4642
  934MOL0     C25992  12.521   3.069   4.960  0.1239  0.1203 -0.4250
  934MOL0     C25993  12.659   3.057   4.916 -0.1457  0.1910 -0.6893
  934MOL0     C25994  12.753   2.960   4.998  0.2015  0.1188 -0.1108
  934MOL0     C25995  12.827   3.024   5.112  0.2755 -0.4610  1.0914
  934MOL0     C25996  12.888   2.931   5.208 -0.8151  0.4409 -0.1407
  934MOL0     C25997  12.784   2.884   5.303 -0.3991 -0.4066 -0.3113
  934MOL0     C25998  12.836   2.807   5.418  0.8208 -0.8497  0.0045
  934MOL0     C25999  12.910   2.683   5.389  0.0975  0.1592  0.4043
  934MOL0    Cl26000  12.807   2.553   5.334  0.1879  0.7128 -0.0231
  934MOL0     C26001  12.258   2.810   4.994 -0.8164 -0.6232 -0.7710
  934MOL0     C26002  12.127   2.790   5.032  0.3252 -1.1274  0.0938
  934MOL0     O26003  11.886   2.728   5.218 -0.0047  0.3511 -0.7031
  934MOL0     C26004  11.636   2.942   5.087 -0.0087 -0.1390  0.4855
  934MOL0     C26005  11.496   2.964   5.086 -0.3466 -0.5623 -0.5062
  934MOL0     N26006  10.773   2.760   4.860 -0.4359  0.1031  0.0922
  934MOL0     N26007  10.655   2.743   4.823  0.6338  0.3043  0.6758
  934MOL0     C26008  10.042   1.839   4.302  0.0549  0.3955 -0.4079
  934MOL0     C26009   9.922   1.818   4.232 -0.5643 -0.3320  1.1393
  934MOL0     C26010   9.604   1.921   3.951 -0.2244 -0.1886  0.7770
  934MOL0     C26011   9.490   1.973   4.021  0.0760  0.0983 -0.5741
  934MOL0     C26012   9.368   1.999   3.958 -0.6765  0.1432 -0.3319
  934MOL0     C26013   9.362   2.000   3.820  1.1057  0.5887 -0.1072
  934MOL0     O26014   9.241   2.038   3.767 -0.5564  0.4383  0.2138
  934MOL0     C26015   9.207   2.012   3.630  0.1809  0.1879  0.4308
  934MOL0     C26016   9.072   2.065   3.608  0.1141  0.4502  0.5422
  934MOL0     C26017   8.967   1.965   3.683 -0.3821 -0.7909 -1.0458
  934MOL0     C26018   8.827   1.998   3.692  1.0988 -0.4194  1.0081
  934MOL0     C26019   8.768   1.985   3.559  0.7922  0.1102  0.2305
  934MOL0     C26020   8.710   1.977   3.449  0.0175 -0.2836 -0.2678
  934MOL0     C26021   9.477   1.952   3.746  0.4605 -0.4984  0.0008
  934MOL0     C26022   9.599   1.921   3.808  0.0122 -0.3025  0.1506
  934MOL0     H26023   9.794   2.116   4.277 -1.5404 -1.9083  0.3632
  934MOL0     H26024   9.984   2.166   4.414 -0.2270  0.7968 -1.0395
  934MOL0     H26025  10.274   1.782   4.514  2.5718  0.7928  2.4777
  934MOL0     H26026  10.312   1.883   4.376 -1.6995 -0.2503 -0.3536
  934MOL0     H26027  10.334   1.980   4.671 -3.4349 -1.4302 -0.6306
  934MOL0     H26028  10.456   1.889   4.599 -0.5063  1.1475  0.3679
  934MOL0     H26029  10.481   2.054   4.404  0.7372 -0.9553  1.4343
  934MOL0     H26030  10.343   2.146   4.460 -0.6770 -1.1013  0.4700
  934MOL0     H26031  10.438   2.173   4.681 -2.3263  2.5127 -2.5738
  934MOL0     H26032  10.599   2.121   4.613  0.6556 -0.2183 -1.8219
  934MOL0     H26033  10.588   2.303   4.456  0.2007 -2.4782 -0.4778
  934MOL0     H26034  10.432   2.363   4.504 -0.0272  0.8175  0.7157
  934MOL0     H26035  10.664   2.362   4.681  0.0070 -0.5437 -0.8099
  934MOL0     H26036  10.599   2.504   4.614  0.8255  0.6317  1.0016
  934MOL0     H26037  10.377   2.413   4.727  0.7833  0.4946 -1.7857
  934MOL0     H26038  10.508   2.344   4.832  1.5498 -1.3134 -1.7998
  934MOL0     H26039  10.436   2.544   4.941  0.2712 -0.4579 -0.4067
  934MOL0     H26040  10.428   2.633   4.790  1.0337  0.2726 -0.8708
  934MOL0     H26041  10.721   2.466   4.993 -1.0477 -1.8311 -2.0883
  934MOL0     H26042  10.930   2.559   5.091  1.8975 -1.2987 -0.8820
  934MOL0     H26043  11.011   2.575   4.936  0.1023 -0.7522 -0.4910
  934MOL0     H26044  10.945   2.825   5.121  2.0166  1.5161 -0.2895
  934MOL0     H26045  11.039   2.835   4.989  1.7487 -2.3889 -0.9034
  934MOL0     H26046  11.205   2.668   5.095  0.1046 -0.2975  2.0100
  934MOL0     H26047  11.094   2.642   5.228  1.8165 -3.6880 -2.2281
  934MOL0     H26048  11.228   2.798   5.314  2.5754 -1.0601 -1.6982
  934MOL0     H26049  11.104   2.911   5.252  0.2620 -0.2687  0.4305
  934MOL0     H26050  11.392   2.691   5.244  0.0098 -0.1138  0.7606
  934MOL0     H26051  11.544   2.541   5.294 -1.8112  1.8080 -2.9873
  934MOL0     H26052  11.695   2.555   5.211 -0.7469  0.6080 -1.4004
  934MOL0     H26053  11.682   2.626   5.375  1.0297 -0.4314  0.0575
  934MOL0     H26054  12.048   3.125   5.044  0.8194 -0.4221 -1.8352
  934MOL0     H26055  12.272   3.152   4.987  0.1597  0.3303  0.9562
  934MOL0     H26056  12.468   3.148   4.906  0.6852  0.3875 -0.5878
  934MOL0     H26057  12.516   3.083   5.069  0.1822  2.5225 -0.6682
  934MOL0     H26058  12.670   3.016   4.815 -1.8091 -1.3561 -0.3102
  934MOL0     H26059  12.699   3.158   4.909 -2.4609  1.0714 -2.3012
  934MOL0     H26060  12.816   2.909   4.925 -1.3078 -2.3366  0.1820
  934MOL0     H26061  12.687   2.888   5.048 -1.8837  2.4010  0.6230
  934MOL0     H26062  12.904   3.090   5.072  0.1853  0.3229  2.1719
  934MOL0     H26063  12.759   3.093   5.163  0.5294 -0.6664  1.7071
  934MOL0     H26064  12.961   2.994   5.259 -2.1929  1.2485  0.9183
  934MOL0     H26065  12.937   2.843   5.165 -2.0083  0.0665 -0.8082
  934MOL0     H26066  12.730   2.969   5.346  1.0767  1.8834 -2.6266
  934MOL0     H26067  12.721   2.822   5.239  0.0754 -1.7939  0.5202
  934MOL0     H26068  12.744   2.794   5.477 -0.7579  0.9897 -1.9149
  934MOL0     H26069  12.906   2.869   5.475 -1.4327  2.3411 -0.4209
  934MOL0     H26070  12.958   2.656   5.483  2.4841 -0.8833 -1.0413
  934MOL0     H26071  12.992   2.701   5.319 -0.3301  0.0131 -0.1503
  934MOL0     H26072  12.332   2.731   4.988  2.0144  1.5103  2.5058
  934MOL0     H26073  12.090   2.689   5.049 -0.9445 -0.6371  0.2824
  934MOL0     H26074  11.699   3.011   5.032  0.2844 -0.3652  0.5351
  934MOL0     H26075  11.467   3.060   5.043 -1.2940 -0.6531 -0.1055
  934MOL0     H26076  10.101   1.750   4.325 -2.4789 -0.9387  1.4267
  934MOL0     H26077   9.916   1.721   4.183 -0.3778 -0.2968  1.0496
  934MOL0     H26078   9.496   2.006   4.125 -0.2919  2.0515 -1.1196
  934MOL0     H26079   9.287   2.057   4.002  1.0005  1.7060  0.8485
  934MOL0     H26080   9.281   2.058   3.564 -0.3668  0.8982  0.2931
  934MOL0     H26081   9.199   1.907   3.601  0.3121  0.3912 -0.3579
  934MOL0     H26082   9.054   2.069   3.500  0.0403  3.8481  0.5766
  934MOL0     H26083   9.056   2.168   3.640 -0.7273  0.9015 -1.1795
  934MOL0     H26084   9.005   1.951   3.784  0.9276  0.1415 -1.3754
  934MOL0     H26085   8.972   1.868   3.633 -1.9646 -1.9098  0.8480
  934MOL0     H26086   8.817   2.104   3.720  3.1488 -0.5515  2.4271
  934MOL0     H26087   8.773   1.931   3.759  1.1542 -0.5260  0.9451
  934MOL0     H26088   8.676   1.969   3.347  2.2395 -2.0220 -0.9643
  934MOL0     H26089   9.479   1.951   3.637 -1.4695 -0.0448 -0.0652
  934MOL0     H26090   9.688   1.902   3.749 -0.7139 -0.2373 -0.9988
  935MOL0     O26091  10.387   1.110   7.308 -0.6922 -0.3666 -0.4736
  935MOL0     C26092  10.411   1.145   7.195 -0.3461 -0.0149  0.4114
  935MOL0     O26093  10.330   1.217   7.119 -0.1708 -0.2594  0.3001
  935MOL0     C26094  10.208   1.274   7.155 -0.1905  0.1893  0.3701
  935MOL0     C26095  10.108   1.201   7.221 -0.1790 -0.0696 -0.0145
  935MOL0     C26096   9.983   1.262   7.242  0.3772  0.6388  0.5917
  935MOL0     C26097   9.954   1.393   7.187  0.6302  0.1247 -0.1651
  935MOL0     O26098   9.826   1.448   7.171 -0.9903  0.0952  0.6808
  935MOL0     C26099   9.722   1.357   7.189  0.4586  0.2110  0.1226
  935MOL0     C26100   9.594   1.443   7.183 -0.4318 -0.2863 -0.5366
  935MOL0     C26101   9.471   1.357   7.219  0.1947 -0.2634  0.1295
  935MOL0     C26102   9.339   1.428   7.175 -0.4493 -0.2315  0.3894
  935MOL0     C26103   9.215   1.368   7.239 -0.8336  0.4366  0.7462
  935MOL0     C26104   9.108   1.483   7.245  0.1288  0.4228  0.2330
  935MOL0     C26105   8.979   1.433   7.306 -0.3343  1.5003 -0.0764
  935MOL0     C26106   8.889   1.336   7.218  0.2191  0.7479 -0.1984
  935MOL0     N26107   8.745   1.339   7.260 -0.6017  0.6726  0.0831
  935MOL0     C26108   8.635   1.334   7.182 -0.4229 -0.3700 -0.0005
  935MOL0     C26109   8.533   1.362   7.271  0.2122  0.3367  0.3485
  935MOL0     C26110   8.390   1.378   7.235  0.4326 -0.0122  0.4474
  935MOL0     C26111   8.324   1.269   7.138 -0.6233 -0.3389  0.0872
  935MOL0     C26112   8.330   1.125   7.194  0.0765 -1.1108 -0.8069
  935MOL0     C26113   8.297   1.027   7.088 -0.3667 -0.3772  0.8241
  935MOL0     O26114   8.173   1.020   7.013  0.0702  0.1824  0.6718
  935MOL0     C26115   8.061   0.968   7.072  0.5680 -0.0108  0.2451
  935MOL0     C26116   8.045   0.938   7.209  0.0533 -0.1001 -0.2652
  935MOL0     C26117   7.923   0.898   7.256  0.5574  1.1115  0.4122
  935MOL0     C26118   7.914   0.884   7.402 -0.0728 -0.2546  0.1868
  935MOL0     C26119   7.811   0.885   7.164  0.2679 -0.2568  0.0772
  935MOL0     C26120   7.673   0.863   7.201  0.1725 -0.8667 -0.9080
  935MOL0     O26121   7.655   0.748   7.270 -0.0012 -0.1226 -0.4419
  935MOL0     C26122   7.551   0.726   7.346 -0.2979  0.2567 -1.0239
  935MOL0     C26123   7.476   0.606   7.317 -0.5045 -0.5701 -0.2963
  935MOL0     C26124   7.367   0.562   7.398  0.4143  0.5947  0.5113
  935MOL0     C26125   7.323   0.650   7.494  0.5743  0.4964 -0.6931
  935MOL0     O26126   7.200   0.641   7.557 -0.9777 -0.8288 -0.6415
  935MOL0     C26127   7.126   0.522   7.532 -0.1099  0.0790 -0.1621
  935MOL0     C26128   6.988   0.528   7.603  0.2865 -0.0753  0.8778
  935MOL0     C26129   7.006   0.531   7.761  1.1118 -0.2454  0.1226
  935MOL0     C26130   6.865   0.549   7.815 -1.2203 -0.2457  0.0840
  935MOL0     C26131   6.876   0.584   7.969  0.5816  0.2996  1.1078
  935MOL0     C26132   6.732   0.596   8.021 -0.6271 -0.8645 -0.0881
  935MOL0     C26133   6.718   0.650   8.172 -0.0420  0.7828  0.2783
  935MOL0     C26134   6.651   0.543   8.254  0.7852 -0.3484  0.1716
  935MOL0    Cl26135   6.757   0.397   8.269 -0.1005 -0.0085 -0.0517
  935MOL0     C26136   7.404   0.761   7.528 -0.5946 -0.2893  0.4713
  935MOL0     C26137   7.512   0.801   7.454 -0.7728 -0.1942 -1.0590
  935MOL0     O26138   7.585   0.951   7.179 -0.5125 -0.1210  0.0992
  935MOL0     C26139   7.831   0.917   7.031  0.2916 -1.0170  0.5671
  935MOL0     C26140   7.954   0.958   6.990 -0.6018 -0.1940  0.7761
  935MOL0     N26141   8.577   1.363   7.399 -0.5365 -0.3976 -0.0472
  935MOL0     N26142   8.710   1.346   7.393 -0.0916  0.1582 -0.8130
  935MOL0     C26143  10.049   1.462   7.127 -0.7951 -0.1845  0.9029
  935MOL0     C26144  10.177   1.404   7.103  0.0889  0.1429 -0.8547
  935MOL0     C26145  10.534   1.102   7.132  0.7674  0.8076 -0.4285
  935MOL0     C26146  10.616   1.010   7.201  0.3949 -0.1982  0.6559
  935MOL0     C26147  10.746   0.985   7.157 -0.5991 -0.0366 -0.4282
  935MOL0     C26148  10.804   1.044   7.045 -0.5717 -0.0297  0.3898
  935MOL0     O26149  10.925   1.019   6.987 -0.1055  0.7927  0.0655
  935MOL0     C26150  11.026   0.978   7.082 -0.1854  0.6181  0.3870
  935MOL0     C26151  11.146   0.998   6.997 -0.1271 -0.9106 -0.7763
  935MOL0     C26152  11.265   0.929   7.073 -0.6342  0.4982 -0.5961
  935MOL0     C26153  11.392   0.940   6.993  0.2524 -0.7941 -0.0522
  935MOL0     C26154  11.484   0.863   7.065 -0.0243  0.0425  0.5969
  935MOL0     C26155  11.564   0.799   7.128 -1.0218 -0.4681 -0.1520
  935MOL0     C26156  10.716   1.125   6.968 -0.1144 -0.3019  1.0990
  935MOL0     C26157  10.585   1.150   7.009 -0.2423  0.0357 -1.0177
  935MOL0     H26158  10.121   1.099   7.257 -2.4481 -1.0703 -1.7918
  935MOL0     H26159   9.904   1.203   7.288  1.5198 -0.5062  1.1516
  935MOL0     H26160   9.719   1.283   7.109 -2.4511 -0.7245  0.9662
  935MOL0     H26161   9.720   1.306   7.286  1.1462  0.6691  0.3840
  935MOL0     H26162   9.605   1.516   7.264 -1.1152 -1.8699  1.0799
  935MOL0     H26163   9.587   1.488   7.084 -0.3299 -1.4671 -1.1032
  935MOL0     H26164   9.484   1.269   7.155  1.4910 -1.7819  2.3578
  935MOL0     H26165   9.465   1.339   7.326  0.3475 -0.3820  0.1193
  935MOL0     H26166   9.340   1.533   7.205  1.5930 -0.5519  1.5927
  935MOL0     H26167   9.332   1.425   7.066 -2.1105 -0.8726  0.4802
  935MOL0     H26168   9.195   1.277   7.181 -2.0623 -0.3643  2.3519
  935MOL0     H26169   9.243   1.354   7.344  1.8347  1.4513  0.2482
  935MOL0     H26170   9.132   1.573   7.301 -1.3700  0.7825  0.3251
  935MOL0     H26171   9.089   1.510   7.140 -0.0782 -1.5921 -0.3035
  935MOL0     H26172   8.999   1.396   7.407  0.7284  1.9453 -0.1081
  935MOL0     H26173   8.914   1.518   7.324 -3.8723 -0.9449 -0.2478
  935MOL0     H26174   8.923   1.234   7.239  0.6690  0.6532 -1.3375
  935MOL0     H26175   8.908   1.347   7.111  0.3886 -0.6413 -0.3364
  935MOL0     H26176   8.634   1.313   7.075  1.3401  1.5117 -0.4529
  935MOL0     H26177   8.337   1.381   7.331 -0.8068 -0.8892 -0.1819
  935MOL0     H26178   8.368   1.471   7.182 -1.2637 -1.3337 -1.3103
  935MOL0     H26179   8.362   1.276   7.036 -2.3862  0.3038 -0.5737
  935MOL0     H26180   8.219   1.296   7.121  0.2351  1.3395 -3.2953
  935MOL0     H26181   8.270   1.121   7.285 -0.1567  1.6665 -0.7639
  935MOL0     H26182   8.433   1.103   7.226  1.2638 -1.0475 -4.1319
  935MOL0     H26183   8.314   0.927   7.131 -2.8746 -1.1893  0.1166
  935MOL0     H26184   8.380   1.032   7.018 -2.0517  1.8705 -1.1702
  935MOL0     H26185   8.128   0.943   7.279  0.6758  0.8066 -1.0509
  935MOL0     H26186   7.828   0.945   7.433  0.1054  1.4957 -2.4529
  935MOL0     H26187   7.898   0.782   7.437 -1.2657 -0.7754 -1.7358
  935MOL0     H26188   7.999   0.925   7.458  0.9368 -2.4323  0.3303
  935MOL0     H26189   7.498   0.539   7.234 -1.7193 -2.6831  0.9994
  935MOL0     H26190   7.308   0.477   7.365  1.0130  0.2212  0.3844
  935MOL0     H26191   7.098   0.510   7.427 -1.7153  1.7984 -0.0048
  935MOL0     H26192   7.177   0.431   7.561  1.4798  0.6219 -1.1528
  935MOL0     H26193   6.942   0.618   7.561  1.5458 -0.0616 -0.5622
  935MOL0     H26194   6.933   0.442   7.563  1.6082 -0.6768  0.2661
  935MOL0     H26195   7.073   0.615   7.785 -0.9411  3.0875 -4.3458
  935MOL0     H26196   7.041   0.435   7.800  0.8156 -0.1351  0.6784
  935MOL0     H26197   6.816   0.627   7.756 -0.3478  0.3310  0.1196
  935MOL0     H26198   6.811   0.457   7.791 -2.5059  0.2204  1.0469
  935MOL0     H26199   6.921   0.683   7.980  0.8296 -0.0187  3.3674
  935MOL0     H26200   6.942   0.511   8.017 -0.1600 -1.3972 -0.3160
  935MOL0     H26201   6.675   0.651   7.946  1.0651 -0.7901 -1.3827
  935MOL0     H26202   6.681   0.499   8.016 -0.2272 -1.0039 -2.4010
  935MOL0     H26203   6.662   0.744   8.172  0.4192  1.2193 -3.8835
  935MOL0     H26204   6.813   0.678   8.219 -1.3453 -1.9383  5.3129
  935MOL0     H26205   6.559   0.509   8.206 -0.8506  0.9535  2.2429
  935MOL0     H26206   6.638   0.578   8.356 -2.3429 -2.2037  0.5328
  935MOL0     H26207   7.365   0.833   7.600 -1.0576  1.0436 -1.0431
  935MOL0     H26208   7.565   0.894   7.471 -1.5144  0.2956 -1.3829
  935MOL0     H26209   7.744   0.916   6.967  0.2220 -0.0249  0.6389
  935MOL0     H26210   7.961   0.978   6.883  1.1883  0.5301  0.9896
  935MOL0     H26211  10.034   1.564   7.092 -0.5574 -0.4643 -0.0223
  935MOL0     H26212  10.255   1.456   7.048 -0.7991  1.9162 -0.5237
  935MOL0     H26213  10.587   0.966   7.296 -2.2428  1.1875  0.5837
  935MOL0     H26214  10.800   0.905   7.209 -0.3705  0.3701 -0.0361
  935MOL0     H26215  11.026   1.028   7.179 -2.5115 -1.8129  1.7423
  935MOL0     H26216  11.019   0.872   7.107 -2.5258 -0.0232 -2.4070
  935MOL0     H26217  11.169   1.105   7.006  3.4547 -1.6671  1.0805
  935MOL0     H26218  11.130   0.961   6.895  2.2330 -1.0889 -1.1402
  935MOL0     H26219  11.243   0.822   7.074  0.6477  0.1543  2.5866
  935MOL0     H26220  11.274   0.949   7.180 -0.8127 -1.5600 -0.1544
  935MOL0     H26221  11.444   1.036   6.984  1.6073 -1.6490 -1.8499
  935MOL0     H26222  11.388   0.903   6.890  0.4064  1.0997 -0.7791
  935MOL0     H26223  11.629   0.739   7.189 -1.3679  0.0855  0.7683
  935MOL0     H26224  10.754   1.176   6.880  3.4653  0.6249  3.0038
  935MOL0     H26225  10.532   1.225   6.952 -0.2197  1.4820  0.7684
  936MOL0     O26226   1.041   8.062   5.190 -0.3972  0.7778 -0.0428
  936MOL0     C26227   1.061   7.969   5.107  0.3261  0.7558  0.1796
  936MOL0     O26228   0.975   7.869   5.067 -0.0319 -0.4769  0.4446
  936MOL0     C26229   0.842   7.864   5.093  0.9954 -0.9382  0.3143
  936MOL0     C26230   0.761   7.977   5.080 -0.1314 -0.2187  0.1498
  936MOL0     C26231   0.615   7.961   5.083 -0.5138  0.3937 -1.0679
  936MOL0     C26232   0.563   7.838   5.099  0.6438 -0.7577  0.1695
  936MOL0     O26233   0.425   7.823   5.124 -0.3035 -0.0113 -0.1468
  936MOL0     C26234   0.336   7.935   5.117  0.2232 -0.0148 -0.8254
  936MOL0     C26235   0.190   7.887   5.127 -0.1309 -0.7922  0.1097
  936MOL0     C26236   0.086   8.006   5.141  0.5232 -0.1892  0.1125
  936MOL0     C26237  -0.061   7.963   5.115 -0.1950 -0.1808  0.1982
  936MOL0     C26238  -0.172   8.073   5.136  0.0154 -0.2117  0.1206
  936MOL0     C26239  -0.314   8.027   5.093  0.5765  0.5168  0.7436
  936MOL0     C26240  -0.427   8.129   5.144 -1.1818 -0.3575 -0.1219
  936MOL0     C26241  -0.466   8.127   5.295 -1.2727 -0.2807  0.8144
  936MOL0     N26242  -0.563   8.016   5.303 -0.7061 -0.6041 -0.7069
  936MOL0     C26243  -0.700   8.021   5.314 -0.3368  0.0857 -0.4208
  936MOL0     C26244  -0.746   7.895   5.296 -1.0192  0.9250 -0.0839
  936MOL0     C26245  -0.890   7.850   5.301 -0.0864  0.3566 -0.5618
  936MOL0     C26246  -0.911   7.718   5.366 -0.0100 -0.3769 -0.1956
  936MOL0     C26247  -0.889   7.610   5.251 -0.7935 -0.8421 -0.9425
  936MOL0     C26248  -0.870   7.463   5.313 -0.0870  0.1413  0.0842
  936MOL0     O26249  -0.986   7.411   5.380 -0.8289 -0.2088  0.1863
  936MOL0     C26250  -1.090   7.359   5.308 -0.4027  0.3039 -0.6240
  936MOL0     C26251  -1.101   7.352   5.168  0.3265 -0.2020 -0.9735
  936MOL0     C26252  -1.215   7.299   5.105  0.3509  0.3059 -0.1403
  936MOL0     C26253  -1.211   7.302   4.954  0.2110 -0.3095 -0.2791
  936MOL0     C26254  -1.318   7.252   5.186  0.4034  0.8106  0.2675
  936MOL0     C26255  -1.439   7.185   5.135 -0.0810 -0.8966 -0.6628
  936MOL0     O26256  -1.515   7.133   5.237 -0.0382 -0.8225  0.0384
  936MOL0     C26257  -1.650   7.165   5.260  0.7703  0.7011 -0.3112
  936MOL0     C26258  -1.696   7.182   5.395 -0.3597 -0.6405  0.3291
  936MOL0     C26259  -1.834   7.215   5.417 -0.7672  0.5159  0.1992
  936MOL0     C26260  -1.931   7.218   5.309  0.1093 -0.2520  0.2840
  936MOL0     O26261  -2.063   7.235   5.345  0.3143 -0.3802 -0.5284
  936MOL0     C26262  -2.160   7.223   5.242 -0.2480  0.5744  0.3713
  936MOL0     C26263  -2.301   7.260   5.284  0.4484 -0.2850  0.1981
  936MOL0     C26264  -2.387   7.283   5.161 -0.2289  0.3382 -0.0197
  936MOL0     C26265  -2.532   7.306   5.206 -0.3783 -0.6592 -0.6908
  936MOL0     C26266  -2.612   7.340   5.083  0.9535  0.1903 -0.0521
  936MOL0     C26267  -2.755   7.391   5.121  0.0752 -0.1023  0.2512
  936MOL0     C26268  -2.860   7.409   5.003  0.6149  0.1640 -0.2448
  936MOL0     C26269  -2.941   7.288   4.982  0.0770  1.0442 -0.6398
  936MOL0    Cl26270  -3.022   7.308   4.810 -0.4726  0.1011 -0.1184
  936MOL0     C26271  -1.883   7.197   5.178  0.7580  0.5793 -0.4639
  936MOL0     C26272  -1.744   7.177   5.155  0.4971  0.0219  0.0991
  936MOL0     O26273  -1.472   7.201   5.015 -0.3426 -0.2509 -0.1026
  936MOL0     C26274  -1.300   7.261   5.323 -0.6663  0.3509 -0.8892
  936MOL0     C26275  -1.193   7.324   5.385  0.5411  0.0053  0.3172
  936MOL0     N26276  -0.636   7.814   5.302 -0.5778 -0.0837 -0.6404
  936MOL0     N26277  -0.531   7.888   5.292 -0.8783 -0.6506  0.6888
  936MOL0     C26278   0.643   7.721   5.105 -0.0971  0.3333 -0.4788
  936MOL0     C26279   0.781   7.736   5.098 -0.1845  0.4135 -0.3420
  936MOL0     C26280   1.212   7.961   5.075 -0.4825 -0.3665  0.1327
  936MOL0     C26281   1.266   7.866   4.991 -0.7074 -1.4604  1.2782
  936MOL0     C26282   1.404   7.859   4.955 -0.4959 -0.0987 -0.2941
  936MOL0     C26283   1.493   7.953   5.013 -0.0050 -0.7341 -0.4330
  936MOL0     O26284   1.624   7.947   4.972  0.4978  0.4267  0.2377
  936MOL0     C26285   1.716   8.054   5.017  0.3663 -0.1110  0.2607
  936MOL0     C26286   1.822   8.092   4.911 -0.3466 -0.4696 -0.7623
  936MOL0     C26287   1.948   8.131   4.983 -0.5897 -0.2663 -0.3644
  936MOL0     C26288   2.057   8.167   4.881  0.6298  0.9197 -0.4518
  936MOL0     C26289   2.176   8.230   4.940 -0.6263  0.1994 -0.1535
  936MOL0     C26290   2.274   8.282   4.971 -0.1205  0.3820 -0.6630
  936MOL0     C26291   1.442   8.042   5.110  0.2426  0.2713  0.4362
  936MOL0     C26292   1.304   8.044   5.144  0.7586 -0.5234  0.2958
  936MOL0     H26293   0.805   8.076   5.078  0.1824 -0.3650 -0.4784
  936MOL0     H26294   0.563   8.057   5.086 -1.5530 -0.1479  2.2751
  936MOL0     H26295   0.358   8.005   5.199 -0.3764  0.2742 -0.9087
  936MOL0     H26296   0.356   7.993   5.027  2.4631  1.1592  0.3248
  936MOL0     H26297   0.178   7.840   5.029 -0.3488 -0.5646  0.0258
  936MOL0     H26298   0.179   7.805   5.198  0.4732 -0.3221  0.7644
  936MOL0     H26299   0.080   8.042   5.244  0.3727 -1.5093  0.5848
  936MOL0     H26300   0.120   8.085   5.073 -1.4176 -0.5150 -1.3183
  936MOL0     H26301  -0.066   7.925   5.012 -0.5010 -2.4819  0.9993
  936MOL0     H26302  -0.082   7.885   5.189  3.1085 -0.3789  1.0651
  936MOL0     H26303  -0.179   8.107   5.240 -2.2670  3.2361 -0.9868
  936MOL0     H26304  -0.138   8.155   5.073  0.1065  0.2843  0.8138
  936MOL0     H26305  -0.321   8.012   4.985  0.0293  2.5188  0.4543
  936MOL0     H26306  -0.321   7.925   5.131 -2.1519 -0.4226 -1.9184
  936MOL0     H26307  -0.389   8.228   5.117  0.7861 -1.3908 -1.4378
  936MOL0     H26308  -0.517   8.116   5.085 -1.4897 -1.0095  0.4739
  936MOL0     H26309  -0.511   8.216   5.339 -2.0342 -0.4787  0.4589
  936MOL0     H26310  -0.388   8.105   5.367 -2.1269 -1.1901  1.5005
  936MOL0     H26311  -0.764   8.108   5.307 -1.4563 -0.3662  2.5843
  936MOL0     H26312  -0.953   7.920   5.358 -1.1961  0.2781 -1.6523
  936MOL0     H26313  -0.942   7.846   5.205  0.0748  2.9009 -0.8202
  936MOL0     H26314  -1.007   7.703   5.416  0.9877 -0.3447  1.8524
  936MOL0     H26315  -0.840   7.704   5.448  0.1167 -2.8530 -0.6529
  936MOL0     H26316  -0.792   7.623   5.201  0.7582  2.3341  2.4323
  936MOL0     H26317  -0.971   7.624   5.180 -2.4428 -1.5570  0.7400
  936MOL0     H26318  -0.780   7.452   5.375 -0.1974 -0.0369  0.2120
  936MOL0     H26319  -0.850   7.397   5.229 -0.4759 -0.8026  0.7165
  936MOL0     H26320  -1.016   7.385   5.110  0.0686  1.6081 -0.3922
  936MOL0     H26321  -1.237   7.200   4.924  0.5524 -0.0881 -1.3957
  936MOL0     H26322  -1.279   7.368   4.898  0.1055 -1.5867 -1.7126
  936MOL0     H26323  -1.107   7.317   4.923  0.3333 -0.6343 -0.0281
  936MOL0     H26324  -1.621   7.182   5.472  1.0572 -3.5636 -0.8861
  936MOL0     H26325  -1.862   7.247   5.517 -5.3676  0.0493 -0.6787
  936MOL0     H26326  -2.143   7.293   5.159 -0.4014  0.0105 -0.1358
  936MOL0     H26327  -2.163   7.117   5.216  3.5421  0.1755  0.9718
  936MOL0     H26328  -2.350   7.184   5.345 -1.1733 -0.6051 -1.4115
  936MOL0     H26329  -2.305   7.359   5.332  0.6076  2.2372 -4.3931
  936MOL0     H26330  -2.394   7.192   5.101  0.9439  0.4910 -0.4196
  936MOL0     H26331  -2.343   7.358   5.094  0.2697 -1.9166 -2.3533
  936MOL0     H26332  -2.567   7.229   5.275 -2.2331  0.4187 -0.3676
  936MOL0     H26333  -2.528   7.394   5.271 -1.5587 -1.9890  1.2616
  936MOL0     H26334  -2.623   7.251   5.021  1.9898 -0.8279  1.1648
  936MOL0     H26335  -2.564   7.419   5.025  1.2501  0.1915  0.1954
  936MOL0     H26336  -2.798   7.323   5.194 -1.1569 -0.5853 -0.8910
  936MOL0     H26337  -2.746   7.491   5.165  1.5587  0.9017 -2.0718
  936MOL0     H26338  -2.788   7.427   4.923  1.7936 -1.2945  0.4582
  936MOL0     H26339  -2.935   7.485   5.030 -1.9731 -1.8507 -1.3624
  936MOL0     H26340  -3.012   7.260   5.061  2.9616 -6.7870  0.0011
  936MOL0     H26341  -2.878   7.201   4.968 -1.1821  0.4836 -3.7700
  936MOL0     H26342  -1.956   7.209   5.099 -1.1112 -0.7023  0.9959
  936MOL0     H26343  -1.720   7.165   5.050 -2.7347 -1.0994 -0.6426
  936MOL0     H26344  -1.382   7.228   5.386 -2.0731  0.4986 -2.5852
  936MOL0     H26345  -1.180   7.351   5.489  1.7217  1.7644 -0.2425
  936MOL0     H26346   0.596   7.624   5.120  0.2464 -0.1734 -2.3819
  936MOL0     H26347   0.853   7.654   5.095  2.0848  2.3141 -0.7968
  936MOL0     H26348   1.207   7.793   4.935  0.2767 -1.8624  0.7401
  936MOL0     H26349   1.453   7.788   4.889 -0.8199  0.6201 -1.3455
  936MOL0     H26350   1.665   8.145   5.049 -0.6006 -0.6963  0.4330
  936MOL0     H26351   1.763   8.012   5.107  0.2391  0.3168  0.5296
  936MOL0     H26352   1.782   8.165   4.839  2.5636  0.8879 -1.1321
  936MOL0     H26353   1.849   8.003   4.853 -0.4528 -2.0323  1.4400
  936MOL0     H26354   1.987   8.046   5.039  0.6258  1.9708  2.4203
  936MOL0     H26355   1.914   8.221   5.036 -0.7096  0.0927 -1.0386
  936MOL0     H26356   2.009   8.232   4.808 -2.9344 -2.2163 -1.2337
  936MOL0     H26357   2.078   8.070   4.836  2.3496  0.9109  0.2934
  936MOL0     H26358   2.369   8.328   4.990 -1.2932  3.4518 -1.4948
  936MOL0     H26359   1.519   8.097   5.163  3.4332 -2.5260 -1.0030
  936MOL0     H26360   1.278   8.112   5.225  0.7304  0.6694 -0.6793
  937MOL0     O26361   0.007   8.315   2.021 -0.4346  0.5457  0.0513
  937MOL0     C26362   0.088   8.322   1.930 -0.6354  0.0746  0.3374
  937MOL0     O26363   0.070   8.366   1.798 -0.3081  0.5844 -0.5780
  937MOL0     C26364  -0.054   8.380   1.744 -0.4431 -0.1051 -0.2202
  937MOL0     C26365  -0.089   8.507   1.695  0.1904  0.0456 -0.0582
  937MOL0     C26366  -0.221   8.520   1.625 -0.5260 -0.1523  0.0122
  937MOL0     C26367  -0.299   8.403   1.614  1.1653  0.1277 -0.3284
  937MOL0     O26368  -0.430   8.423   1.570 -0.0973 -0.4191 -0.3094
  937MOL0     C26369  -0.474   8.534   1.489  0.3682  0.2271 -0.1738
  937MOL0     C26370  -0.619   8.520   1.438 -0.4260  0.5615 -0.5045
  937MOL0     C26371  -0.711   8.517   1.567 -0.3880  0.0928 -0.3756
  937MOL0     C26372  -0.855   8.484   1.535 -0.3891  0.2767  0.3055
  937MOL0     C26373  -0.959   8.538   1.629  0.6715  0.0731 -1.0853
  937MOL0     C26374  -1.099   8.492   1.609  0.1927  0.4492 -0.7233
  937MOL0     C26375  -1.196   8.540   1.716  0.1680  0.1981 -0.1278
  937MOL0     C26376  -1.166   8.476   1.847 -0.3932  0.4472  0.4429
  937MOL0     N26377  -1.252   8.513   1.958 -0.3197 -1.0771  0.2017
  937MOL0     C26378  -1.279   8.643   1.998 -1.3133  0.5194  0.3781
  937MOL0     C26379  -1.398   8.637   2.067 -0.1079  0.2888 -0.3429
  937MOL0     C26380  -1.475   8.743   2.134  0.5770  0.1247 -0.1578
  937MOL0     C26381  -1.425   8.763   2.277 -0.0129  0.4851 -0.2014
  937MOL0     C26382  -1.461   8.649   2.377 -0.1021 -0.3463  0.4037
  937MOL0     C26383  -1.605   8.627   2.386 -0.2617 -0.0556 -1.1410
  937MOL0     O26384  -1.658   8.748   2.439 -0.1050 -0.4344 -0.1407
  937MOL0     C26385  -1.794   8.761   2.434  0.4798  0.4428 -0.1876
  937MOL0     C26386  -1.892   8.675   2.380 -0.4383 -0.6023  0.7919
  937MOL0     C26387  -2.031   8.697   2.383 -0.8965 -0.7965 -0.6336
  937MOL0     C26388  -2.113   8.605   2.308 -0.5183  0.3130  0.2416
  937MOL0     C26389  -2.077   8.806   2.448 -0.3996 -0.6755  0.4827
  937MOL0     C26390  -2.220   8.855   2.465 -0.4723 -0.1061 -0.4609
  937MOL0     O26391  -2.235   8.979   2.499 -0.2763 -0.2337  0.0129
  937MOL0     C26392  -2.361   9.015   2.540  0.4101 -1.1614  0.0071
  937MOL0     C26393  -2.448   9.078   2.460  0.2391 -0.1543  0.2989
  937MOL0     C26394  -2.575   9.120   2.501 -0.5392 -0.1873  0.9781
  937MOL0     C26395  -2.614   9.105   2.634  0.0327 -0.2540 -0.5116
  937MOL0     O26396  -2.725   9.154   2.688 -0.3809 -0.2186  0.5905
  937MOL0     C26397  -2.731   9.298   2.693  0.1962 -0.3244  0.2243
  937MOL0     C26398  -2.876   9.313   2.747 -0.1439 -1.5158  0.5193
  937MOL0     C26399  -2.995   9.277   2.653 -1.0099  0.7448  0.3928
  937MOL0     C26400  -3.094   9.391   2.633  1.3944 -0.1460 -0.0712
  937MOL0     C26401  -3.211   9.357   2.542 -0.0834 -0.7592  0.2156
  937MOL0     C26402  -3.320   9.467   2.541 -0.3228  0.4078 -0.2760
  937MOL0     C26403  -3.432   9.427   2.448 -0.1042  0.5411  0.6851
  937MOL0     C26404  -3.547   9.525   2.469 -0.0421 -0.4076 -0.6622
  937MOL0    Cl26405  -3.694   9.484   2.388  0.3379  0.2378  0.4045
  937MOL0     C26406  -2.530   9.028   2.723  0.3125 -0.2954  0.5882
  937MOL0     C26407  -2.399   9.004   2.680 -1.0723  0.6611 -0.2916
  937MOL0     O26408  -2.310   8.775   2.453 -0.1175 -0.0639 -0.2587
  937MOL0     C26409  -1.984   8.894   2.514  0.3284  0.6451 -0.5958
  937MOL0     C26410  -1.853   8.868   2.495  0.0225 -0.2340 -0.0789
  937MOL0     N26411  -1.441   8.507   2.054 -0.1777 -0.1180 -0.1374
  937MOL0     N26412  -1.352   8.433   2.002  0.2240 -0.2079  0.7294
  937MOL0     C26413  -0.251   8.275   1.657 -0.5937 -0.1563  0.5072
  937MOL0     C26414  -0.136   8.268   1.728 -0.0427 -1.1773  1.0207
  937MOL0     C26415   0.226   8.288   1.962  0.3736  0.2003 -0.0884
  937MOL0     C26416   0.329   8.302   1.869 -0.1745 -0.4271 -0.2812
  937MOL0     C26417   0.464   8.268   1.901 -0.2560 -0.4814 -0.5060
  937MOL0     C26418   0.493   8.200   2.019 -1.0343 -1.1007  0.2623
  937MOL0     O26419   0.624   8.159   2.030 -0.4579 -0.2253 -0.7101
  937MOL0     C26420   0.656   8.100   2.157  0.6381  0.3184 -0.2382
  937MOL0     C26421   0.804   8.045   2.165 -0.1631  0.3596  0.0488
  937MOL0     C26422   0.915   8.145   2.152 -0.6331  0.1842 -0.0489
  937MOL0     C26423   1.045   8.059   2.177 -0.0114 -0.1433  0.2129
  937MOL0     C26424   1.158   8.149   2.166 -0.0610 -0.5576 -0.2408
  937MOL0     C26425   1.230   8.245   2.141  1.1113 -0.2157  0.5978
  937MOL0     C26426   0.390   8.182   2.104 -0.2778  0.3103 -0.2022
  937MOL0     C26427   0.262   8.224   2.079  0.2022  0.1019 -0.3640
  937MOL0     H26428  -0.029   8.596   1.708 -0.9659  0.7658  0.5528
  937MOL0     H26429  -0.262   8.616   1.595 -1.2122 -0.6525 -0.6696
  937MOL0     H26430  -0.468   8.627   1.546  2.4143  0.6746 -1.0339
  937MOL0     H26431  -0.414   8.531   1.398 -1.6818  0.3155 -1.6161
  937MOL0     H26432  -0.664   8.604   1.385  0.3703  1.7377  0.6389
  937MOL0     H26433  -0.625   8.429   1.377 -1.3017  1.3052 -1.5626
  937MOL0     H26434  -0.674   8.443   1.638  0.8060  0.2260 -0.8330
  937MOL0     H26435  -0.696   8.606   1.629 -0.6082  0.9540 -1.5278
  937MOL0     H26436  -0.869   8.537   1.440 -1.4064 -0.4111  0.0537
  937MOL0     H26437  -0.866   8.377   1.519 -0.7541  0.6525 -2.5622
  937MOL0     H26438  -0.925   8.505   1.728 -0.9269 -1.5959 -1.0446
  937MOL0     H26439  -0.973   8.646   1.638 -2.6170 -0.2416 -1.2210
  937MOL0     H26440  -1.138   8.530   1.514 -2.5693  0.0441  0.1625
  937MOL0     H26441  -1.096   8.383   1.607  1.3363  0.4502  0.1093
  937MOL0     H26442  -1.196   8.649   1.716 -0.6866  0.2625 -2.7127
  937MOL0     H26443  -1.295   8.512   1.678  1.0708 -0.0513 -2.4246
  937MOL0     H26444  -1.060   8.485   1.874 -0.5536  2.4721  0.5502
  937MOL0     H26445  -1.181   8.368   1.839  0.5902  0.2676  0.8819
  937MOL0     H26446  -1.236   8.741   1.977 -0.7636  0.0422 -0.8160
  937MOL0     H26447  -1.463   8.831   2.070 -2.8741 -0.1555 -1.4225
  937MOL0     H26448  -1.582   8.720   2.137  1.0850 -2.3430  2.0916
  937MOL0     H26449  -1.465   8.856   2.320  0.8689 -0.0696  1.9686
  937MOL0     H26450  -1.317   8.769   2.267  0.0340  0.3554  0.1946
  937MOL0     H26451  -1.415   8.663   2.476 -0.4037  3.7852  0.1427
  937MOL0     H26452  -1.436   8.548   2.342  1.6526  0.1696  0.0829
  937MOL0     H26453  -1.626   8.548   2.458  3.0847  0.7085  0.8990
  937MOL0     H26454  -1.650   8.601   2.290 -1.4376 -0.7838 -0.4141
  937MOL0     H26455  -1.849   8.589   2.330  2.3613  0.6895  0.7563
  937MOL0     H26456  -2.169   8.537   2.373 -1.2530  0.9188  0.2561
  937MOL0     H26457  -2.184   8.665   2.251 -0.3227 -2.6166 -3.5073
  937MOL0     H26458  -2.057   8.537   2.243 -1.7922 -0.6646  0.1141
  937MOL0     H26459  -2.405   9.103   2.364  0.2931  3.1649  1.0362
  937MOL0     H26460  -2.633   9.189   2.441  1.6400  1.5511  0.7255
  937MOL0     H26461  -2.648   9.324   2.759 -0.2813 -0.7222  0.9952
  937MOL0     H26462  -2.729   9.342   2.593  0.4618  1.4967  0.9977
  937MOL0     H26463  -2.887   9.247   2.834  0.3205 -2.8105 -0.3771
  937MOL0     H26464  -2.903   9.415   2.775 -1.4122 -1.3417 -1.1568
  937MOL0     H26465  -3.047   9.188   2.689  2.1483 -1.4230  0.0302
  937MOL0     H26466  -2.953   9.249   2.556 -2.2213 -0.1354  0.0946
  937MOL0     H26467  -3.125   9.419   2.734  1.0119  0.4274 -0.3408
  937MOL0     H26468  -3.048   9.482   2.592  0.7428  0.6261  0.8765
  937MOL0     H26469  -3.261   9.269   2.583  0.6585 -0.0422  2.8386
  937MOL0     H26470  -3.174   9.331   2.443  1.1490  1.6497 -0.0241
  937MOL0     H26471  -3.356   9.477   2.644  1.5409  1.7657  0.3104
  937MOL0     H26472  -3.274   9.561   2.510 -1.1719  0.9287  0.0297
  937MOL0     H26473  -3.466   9.324   2.461 -4.8196  1.6406 -1.0710
  937MOL0     H26474  -3.393   9.435   2.346 -0.2598  1.3849  0.6881
  937MOL0     H26475  -3.515   9.627   2.447 -0.0562  0.0237  1.1287
  937MOL0     H26476  -3.568   9.531   2.577  2.0641 -0.3269 -0.2148
  937MOL0     H26477  -2.572   8.994   2.818 -2.4216 -0.4242 -0.5903
  937MOL0     H26478  -2.317   8.967   2.740 -1.1390  2.7175  1.1563
  937MOL0     H26479  -2.010   8.982   2.572 -1.9023 -0.2301 -0.1697
  937MOL0     H26480  -1.786   8.944   2.534 -2.8675  2.5439 -0.0563
  937MOL0     H26481  -0.324   8.196   1.665  0.0932 -0.9192 -0.6141
  937MOL0     H26482  -0.112   8.170   1.768  2.5606 -1.2552 -0.5291
  937MOL0     H26483   0.307   8.351   1.775 -0.1555 -0.5751 -0.3616
  937MOL0     H26484   0.549   8.300   1.842  0.1728  3.7798  1.9456
  937MOL0     H26485   0.635   8.167   2.241  2.6434 -1.0056  1.4356
  937MOL0     H26486   0.591   8.014   2.174  1.1762 -0.4222 -1.8038
  937MOL0     H26487   0.813   7.971   2.085 -2.1835 -1.7203  1.5712
  937MOL0     H26488   0.811   7.997   2.263 -0.1224 -1.4410 -0.7944
  937MOL0     H26489   0.911   8.222   2.230  0.7768 -1.7685  2.0737
  937MOL0     H26490   0.910   8.185   2.050  0.4108  1.0160  0.1996
  937MOL0     H26491   1.045   7.980   2.102  0.5106 -0.3078  0.3836
  937MOL0     H26492   1.033   8.007   2.273 -1.6088 -0.7427 -0.2785
  937MOL0     H26493   1.290   8.328   2.111 -0.3931  0.8741  0.4700
  937MOL0     H26494   0.415   8.143   2.202  2.5825 -1.5145 -1.5428
  937MOL0     H26495   0.189   8.208   2.158  0.9517 -0.2023  0.2686
  938MOL0     O26496   2.216   2.436   1.006 -0.1950 -0.7141  0.2469
  938MOL0     C26497   2.209   2.533   0.934 -0.7924 -0.1577 -0.3803
  938MOL0     O26498   2.197   2.663   0.977 -0.4107 -0.2947  0.1759
  938MOL0     C26499   2.165   2.688   1.103  0.5855 -0.0805 -0.4424
  938MOL0     C26500   2.264   2.670   1.197 -0.5134  0.4534 -0.0525
  938MOL0     C26501   2.234   2.716   1.325 -0.0164  0.9052  1.1135
  938MOL0     C26502   2.118   2.785   1.358  0.8819 -0.0233 -0.1717
  938MOL0     O26503   2.097   2.817   1.494  0.9726  0.4567  0.4169
  938MOL0     C26504   1.980   2.890   1.523  0.7944  0.3568 -1.4886
  938MOL0     C26505   1.961   2.872   1.678  0.0780 -0.1090 -0.2639
  938MOL0     C26506   1.850   2.962   1.729 -0.5086 -0.0866 -0.4919
  938MOL0     C26507   1.810   2.924   1.876 -0.1572 -0.0599  0.0775
  938MOL0     C26508   1.662   2.950   1.892  0.7646  0.0784 -0.3826
  938MOL0     C26509   1.623   2.899   2.034 -0.5782  0.5846 -0.3172
  938MOL0     C26510   1.484   2.942   2.074 -0.2836  0.4799  0.5351
  938MOL0     C26511   1.480   3.078   2.120 -0.5434  0.2280  0.9583
  938MOL0     N26512   1.351   3.117   2.180  0.1244  0.2918  0.1565
  938MOL0     C26513   1.245   3.162   2.104 -0.3332 -0.3842 -0.1815
  938MOL0     C26514   1.136   3.149   2.186 -0.2341 -0.2414 -0.1381
  938MOL0     C26515   0.993   3.151   2.144 -0.4994  0.0954 -0.0765
  938MOL0     C26516   0.962   3.005   2.095  0.5345  0.5540 -1.2663
  938MOL0     C26517   0.813   2.979   2.105 -0.0309  0.6128 -0.1363
  938MOL0     C26518   0.728   3.074   2.012  0.0715  1.1690  0.8990
  938MOL0     O26519   0.590   3.037   2.037  1.2490  0.6041 -0.3822
  938MOL0     C26520   0.492   3.093   1.954 -0.5647  0.0178  0.4057
  938MOL0     C26521   0.509   3.199   1.872 -0.2922  1.0753 -0.6450
  938MOL0     C26522   0.400   3.239   1.795 -0.6339 -0.3294  0.7635
  938MOL0     C26523   0.423   3.367   1.707 -0.7954  0.4385 -0.0159
  938MOL0     C26524   0.276   3.172   1.794  0.3480  0.1395  0.3982
  938MOL0     C26525   0.160   3.203   1.703 -0.5162  0.1245  0.3971
  938MOL0     O26526   0.070   3.094   1.697 -0.0886 -0.1931 -0.2688
  938MOL0     C26527  -0.034   3.114   1.615  0.5661 -0.5206 -0.4577
  938MOL0     C26528  -0.142   3.203   1.647 -0.2650  0.4288 -0.5867
  938MOL0     C26529  -0.248   3.217   1.568 -0.3812 -0.4287  0.3078
  938MOL0     C26530  -0.247   3.152   1.446  0.1050 -0.2511  0.5171
  938MOL0     O26531  -0.355   3.160   1.370  0.4272 -0.6902 -0.3856
  938MOL0     C26532  -0.380   3.073   1.253 -0.6686 -0.2240 -0.4378
  938MOL0     C26533  -0.531   3.084   1.220 -0.3562 -0.4768 -0.3351
  938MOL0     C26534  -0.622   3.031   1.338  0.2709 -0.3867 -0.0008
  938MOL0     C26535  -0.770   3.046   1.291 -0.4096 -0.5368  0.6544
  938MOL0     C26536  -0.860   3.010   1.414  0.4002 -0.3428  0.3078
  938MOL0     C26537  -0.827   2.864   1.474 -0.7242  0.0622  0.3685
  938MOL0     C26538  -0.934   2.827   1.580  0.1080  0.4353 -0.7162
  938MOL0     C26539  -0.922   2.675   1.625  0.3994 -0.3158 -0.2985
  938MOL0    Cl26540  -1.019   2.662   1.774  0.1793 -0.0578 -0.0396
  938MOL0     C26541  -0.137   3.066   1.409 -0.9451  0.9106  0.0928
  938MOL0     C26542  -0.031   3.046   1.498  0.4190  0.3567  0.2089
  938MOL0     O26543   0.150   3.302   1.638  0.0595 -0.4611 -0.4316
  938MOL0     C26544   0.271   3.063   1.877  0.1248 -1.1433  0.3211
  938MOL0     C26545   0.380   3.023   1.952  0.2893  0.2596  0.1810
  938MOL0     N26546   1.174   3.089   2.307  0.0480  0.0661 -1.1350
  938MOL0     N26547   1.303   3.090   2.304 -0.3594 -1.0500 -0.5223
  938MOL0     C26548   2.021   2.798   1.256 -0.3894 -0.7067 -0.3480
  938MOL0     C26549   2.043   2.746   1.133 -0.0964  0.8694  1.1597
  938MOL0     C26550   2.203   2.512   0.789  0.5559  0.3035  0.1682
  938MOL0     C26551   2.188   2.631   0.716  0.2487 -0.1140 -0.2295
  938MOL0     C26552   2.159   2.621   0.577 -0.6673  0.2858 -0.2806
  938MOL0     C26553   2.168   2.494   0.511  0.5999  0.3029  0.6571
  938MOL0     O26554   2.134   2.479   0.377 -0.2803 -0.7554  0.6047
  938MOL0     C26555   2.127   2.600   0.298  0.6922 -0.3973  0.3228
  938MOL0     C26556   2.094   2.581   0.148 -0.9272  0.2915  0.1367
  938MOL0     C26557   2.211   2.502   0.079  0.6395  0.0518 -1.0648
  938MOL0     C26558   2.199   2.492  -0.072  0.3642 -0.0385 -0.5144
  938MOL0     C26559   2.188   2.616  -0.150  0.1391 -0.5233 -0.7170
  938MOL0     C26560   2.163   2.717  -0.216  1.0990 -0.2147 -0.3368
  938MOL0     C26561   2.187   2.377   0.588  0.4295 -0.6815 -0.5050
  938MOL0     C26562   2.204   2.389   0.724 -0.6734 -0.5636  0.1934
  938MOL0     H26563   2.359   2.628   1.166 -1.6479 -1.4373 -1.1400
  938MOL0     H26564   2.316   2.687   1.390  0.5439 -0.8084 -0.2807
  938MOL0     H26565   1.990   2.993   1.488  0.7268  0.1977 -1.9889
  938MOL0     H26566   1.890   2.836   1.491 -0.0554 -0.3553  1.7937
  938MOL0     H26567   1.941   2.767   1.702  1.8045 -0.0351  1.8134
  938MOL0     H26568   2.058   2.911   1.711  0.3584  0.6625 -1.9181
  938MOL0     H26569   1.887   3.065   1.727 -2.2023  0.5407 -2.2461
  938MOL0     H26570   1.766   2.954   1.660  0.8630  2.0361 -2.5474
  938MOL0     H26571   1.833   2.817   1.886  0.2364 -0.5805 -4.3454
  938MOL0     H26572   1.857   2.980   1.957 -1.6007 -2.1424  2.5518
  938MOL0     H26573   1.646   3.058   1.885 -0.0352 -0.0958 -1.3855
  938MOL0     H26574   1.602   2.911   1.810 -1.3363 -0.9269  1.5381
  938MOL0     H26575   1.631   2.790   2.034  0.9597  0.6744 -1.4089
  938MOL0     H26576   1.701   2.934   2.103 -3.2915  0.8658  2.8838
  938MOL0     H26577   1.427   2.929   1.981  1.2662 -2.1516 -0.1494
  938MOL0     H26578   1.453   2.862   2.143  2.9065 -1.7624 -0.4047
  938MOL0     H26579   1.493   3.140   2.031  0.3009 -0.5193  0.5474
  938MOL0     H26580   1.559   3.096   2.194 -0.0736 -0.9439  0.7688
  938MOL0     H26581   1.245   3.186   1.998 -1.1056 -1.1214 -0.3579
  938MOL0     H26582   0.945   3.190   2.234  0.7779  2.4485 -0.3540
  938MOL0     H26583   0.971   3.235   2.078 -0.7884  1.5180  1.7532
  938MOL0     H26584   1.013   2.923   2.147 -0.8690 -0.5554 -1.5914
  938MOL0     H26585   1.000   2.987   1.995  4.2706  0.1866  0.0628
  938MOL0     H26586   0.780   2.988   2.209  0.4897  1.1789 -0.0128
  938MOL0     H26587   0.795   2.877   2.069  0.5059 -0.1107  1.5255
  938MOL0     H26588   0.749   3.068   1.905 -0.2724 -0.1983  0.8916
  938MOL0     H26589   0.749   3.177   2.043 -0.0640  1.6376 -0.5065
  938MOL0     H26590   0.603   3.253   1.865  1.2235 -1.1885  0.8216
  938MOL0     H26591   0.422   3.324   1.606 -1.0206  0.4889 -0.0353
  938MOL0     H26592   0.347   3.443   1.726 -0.1359  1.2120 -0.4060
  938MOL0     H26593   0.523   3.412   1.717 -0.3942 -0.3935 -0.2323
  938MOL0     H26594  -0.150   3.250   1.745 -0.9152 -1.5710  0.3644
  938MOL0     H26595  -0.332   3.276   1.605 -0.2274  0.2751 -0.4401
  938MOL0     H26596  -0.318   3.107   1.170  2.3324 -2.7816  0.5708
  938MOL0     H26597  -0.364   2.967   1.274 -2.3426 -0.1445  1.6773
  938MOL0     H26598  -0.568   3.185   1.198  0.5185  0.0476  0.4932
  938MOL0     H26599  -0.545   3.017   1.135  0.3212 -1.1760  0.0988
  938MOL0     H26600  -0.599   3.097   1.422  0.0016  1.2984 -1.1910
  938MOL0     H26601  -0.597   2.930   1.371  0.5564 -1.3252 -2.8235
  938MOL0     H26602  -0.796   3.147   1.259 -0.4233 -0.4414  0.9695
  938MOL0     H26603  -0.790   2.992   1.197  0.7175  0.5914 -0.2662
  938MOL0     H26604  -0.961   3.013   1.372 -1.0226 -0.0468  3.4456
  938MOL0     H26605  -0.851   3.084   1.494 -0.1044 -0.8962  0.8884
  938MOL0     H26606  -0.819   2.792   1.393  0.2253  0.3759  0.1796
  938MOL0     H26607  -0.735   2.866   1.533 -0.5376 -2.7829  0.3372
  938MOL0     H26608  -1.034   2.848   1.543  0.4071  2.5890 -0.4508
  938MOL0     H26609  -0.916   2.882   1.673  1.1446 -2.5710  1.0186
  938MOL0     H26610  -0.818   2.645   1.643 -0.0751 -0.7615  2.0477
  938MOL0     H26611  -0.956   2.613   1.541  0.6305  1.2921 -1.6209
  938MOL0     H26612  -0.137   3.015   1.313 -1.4633  1.2941 -0.1190
  938MOL0     H26613   0.047   2.974   1.473 -0.4599 -0.4327 -0.2951
  938MOL0     H26614   0.188   2.993   1.874 -0.6912 -0.3371  2.4670
  938MOL0     H26615   0.372   2.931   2.010  0.5976 -0.3405 -0.7094
  938MOL0     H26616   1.920   2.830   1.280 -0.1637 -0.6331  0.5328
  938MOL0     H26617   1.962   2.748   1.060  0.5124 -2.8412  0.1771
  938MOL0     H26618   2.184   2.728   0.766  0.4284 -0.9290  1.4412
  938MOL0     H26619   2.132   2.709   0.520 -1.5129  1.4651  1.8638
  938MOL0     H26620   2.049   2.666   0.338  2.1700  0.7583  1.4040
  938MOL0     H26621   2.223   2.650   0.300  0.6490 -0.1464 -1.8267
  938MOL0     H26622   2.098   2.677   0.096  1.5044 -0.4058 -1.1512
  938MOL0     H26623   2.001   2.527   0.126 -0.6934 -0.0705  0.0130
  938MOL0     H26624   2.210   2.399   0.115  1.9551 -0.1586 -1.5646
  938MOL0     H26625   2.305   2.557   0.088  1.3338 -1.0226 -1.5672
  938MOL0     H26626   2.111   2.428  -0.079 -0.4279  1.0400 -0.6098
  938MOL0     H26627   2.278   2.424  -0.106  0.0121 -2.4785  2.9738
  938MOL0     H26628   2.138   2.808  -0.267 -1.9847 -0.8061 -0.0736
  938MOL0     H26629   2.177   2.281   0.538 -1.7974 -1.2808  0.9232
  938MOL0     H26630   2.226   2.301   0.785 -1.4656 -2.3723 -2.0042
  939MOL0     O26631   0.155   3.097   9.347 -0.1069 -0.3407  0.5271
  939MOL0     C26632   0.134   3.123   9.470  0.3728  0.1962  1.4500
  939MOL0     O26633   0.014   3.096   9.536 -0.7225  0.2869 -0.3006
  939MOL0     C26634  -0.082   3.031   9.462 -0.1411 -0.6254  0.1837
  939MOL0     C26635  -0.089   2.891   9.469  0.7801 -0.4009  0.1340
  939MOL0     C26636  -0.172   2.819   9.380  0.4110 -0.9286 -0.3342
  939MOL0     C26637  -0.257   2.886   9.293  0.2535 -0.5637  0.9481
  939MOL0     O26638  -0.330   2.812   9.207  0.1248 -0.1561  0.6881
  939MOL0     C26639  -0.435   2.882   9.131 -0.4016  0.4801  0.0881
  939MOL0     C26640  -0.531   2.768   9.076 -0.3146 -0.2445 -0.6536
  939MOL0     C26641  -0.667   2.812   9.028 -0.6051  0.2580  0.1786
  939MOL0     C26642  -0.749   2.896   9.124 -0.4826 -1.0980  0.3446
  939MOL0     C26643  -0.889   2.931   9.062  0.2023  0.3649  0.5326
  939MOL0     C26644  -0.963   3.023   9.165 -0.2071  0.9005 -0.6489
  939MOL0     C26645  -1.090   3.088   9.109 -0.5962 -0.1027  0.4509
  939MOL0     C26646  -1.061   3.198   9.000 -0.0561  0.7120 -0.6199
  939MOL0     N26647  -1.179   3.226   8.917 -0.5835  0.5316 -0.4234
  939MOL0     C26648  -1.236   3.350   8.905 -0.6498 -0.5547  0.3191
  939MOL0     C26649  -1.348   3.343   8.836  0.0789 -0.1160 -0.2626
  939MOL0     C26650  -1.422   3.462   8.789  0.3251 -1.0895  0.1072
  939MOL0     C26651  -1.551   3.423   8.714 -0.2282 -0.1306 -0.1877
  939MOL0     C26652  -1.601   3.554   8.646  0.8862 -0.5648  0.4373
  939MOL0     C26653  -1.714   3.541   8.547 -0.2055  0.3212  0.5978
  939MOL0     O26654  -1.746   3.663   8.483 -0.8026 -0.6415  0.0441
  939MOL0     C26655  -1.821   3.661   8.377  1.3268 -0.1875 -0.8066
  939MOL0     C26656  -1.944   3.586   8.379  0.1215  0.5848 -0.2917
  939MOL0     C26657  -2.029   3.573   8.272 -0.1208  0.1650 -0.3152
  939MOL0     C26658  -2.155   3.487   8.286 -0.4684  0.2504 -0.4082
  939MOL0     C26659  -1.998   3.648   8.155 -0.6601 -0.3563  0.2778
  939MOL0     C26660  -2.086   3.650   8.038 -0.1756 -0.7981  0.0611
  939MOL0     O26661  -2.218   3.653   8.070 -0.1465 -0.8965 -0.3992
  939MOL0     C26662  -2.311   3.622   7.980  0.4788  0.3592  0.6369
  939MOL0     C26663  -2.428   3.701   7.983 -0.1615 -0.0317 -0.0413
  939MOL0     C26664  -2.532   3.666   7.897  0.5446  0.6186 -0.5049
  939MOL0     C26665  -2.528   3.550   7.812  0.4427  0.1887 -0.0122
  939MOL0     O26666  -2.634   3.490   7.750 -0.3710  0.4021 -0.2281
  939MOL0     C26667  -2.716   3.580   7.684  0.3592 -0.2620  0.2534
  939MOL0     C26668  -2.859   3.603   7.742  0.6571  0.0651 -0.3930
  939MOL0     C26669  -2.945   3.673   7.636 -0.7310 -0.4436 -0.3298
  939MOL0     C26670  -3.092   3.680   7.677 -0.5898 -0.5901 -0.0720
  939MOL0     C26671  -3.170   3.731   7.559  0.2023  0.2269 -0.4802
  939MOL0     C26672  -3.324   3.740   7.582 -0.5360 -0.3594 -0.2825
  939MOL0     C26673  -3.389   3.711   7.447  0.2999  0.2844  0.2433
  939MOL0     C26674  -3.539   3.740   7.457 -0.2844  1.2875 -0.6011
  939MOL0    Cl26675  -3.639   3.691   7.327 -0.3711 -0.5413  0.0476
  939MOL0     C26676  -2.407   3.486   7.800  0.2858 -0.2142 -1.6192
  939MOL0     C26677  -2.299   3.517   7.882  0.3765 -0.5730  0.2230
  939MOL0     O26678  -2.040   3.669   7.923  0.5343 -0.1288 -0.2831
  939MOL0     C26679  -1.869   3.708   8.146 -1.2216  0.1867  0.0582
  939MOL0     C26680  -1.782   3.715   8.265 -0.3871 -1.0289 -0.1326
  939MOL0     N26681  -1.372   3.212   8.817 -0.2397  0.2487  0.3772
  939MOL0     N26682  -1.266   3.140   8.862  0.1286  0.1181 -0.1632
  939MOL0     C26683  -0.253   3.024   9.291  0.2149 -1.0056 -0.6970
  939MOL0     C26684  -0.165   3.095   9.369 -0.2231 -0.3145  0.7156
  939MOL0     C26685   0.244   3.190   9.538 -0.1435 -0.1007  0.5853
  939MOL0     C26686   0.358   3.228   9.467 -0.5046 -0.0343 -0.3010
  939MOL0     C26687   0.460   3.291   9.538 -0.2823 -0.3037  0.6266
  939MOL0     C26688   0.452   3.329   9.674 -0.1566  0.3853  0.0218
  939MOL0     O26689   0.564   3.393   9.710  0.2635  0.2407 -0.2279
  939MOL0     C26690   0.590   3.389   9.853  0.3450  0.2500 -0.0951
  939MOL0     C26691   0.745   3.413   9.877  0.6633 -0.0410 -0.0510
  939MOL0     C26692   0.768   3.559   9.861 -0.0144 -0.2019 -0.6237
  939MOL0     C26693   0.907   3.594   9.815 -0.4065  0.0297  0.1658
  939MOL0     C26694   1.007   3.582   9.917 -0.2658  0.2895 -0.5869
  939MOL0     C26695   1.092   3.589  10.003  0.3470  0.3330 -0.0702
  939MOL0     C26696   0.335   3.304   9.748 -0.1538  0.0559 -0.9611
  939MOL0     C26697   0.233   3.237   9.677  0.4245 -0.3605  0.0950
  939MOL0     H26698  -0.024   2.846   9.543 -0.8220 -0.7047  1.4146
  939MOL0     H26699  -0.194   2.713   9.390 -4.2327 -0.2071 -0.5308
  939MOL0     H26700  -0.488   2.949   9.200 -1.6542 -0.1703 -0.2032
  939MOL0     H26701  -0.393   2.931   9.043 -1.9064 -2.4137 -2.4455
  939MOL0     H26702  -0.482   2.737   8.984  0.1952  0.4002 -0.6122
  939MOL0     H26703  -0.540   2.690   9.152 -2.6945  1.9846  1.6148
  939MOL0     H26704  -0.650   2.868   8.935  3.8470  1.2163  1.3388
  939MOL0     H26705  -0.722   2.719   9.007 -1.3658  1.2984 -3.0493
  939MOL0     H26706  -0.758   2.855   9.225 -0.4200  1.7628  1.6091
  939MOL0     H26707  -0.706   2.997   9.121  1.0570 -1.7240  0.6443
  939MOL0     H26708  -0.878   2.961   8.958 -0.5363  0.6208  0.5232
  939MOL0     H26709  -0.948   2.839   9.048 -0.6293  0.9479  0.1461
  939MOL0     H26710  -0.992   2.963   9.251  0.9739  3.2741  1.5257
  939MOL0     H26711  -0.892   3.099   9.200  0.5537 -0.5561  1.0709
  939MOL0     H26712  -1.158   3.013   9.068  2.2219 -0.3324 -4.6103
  939MOL0     H26713  -1.138   3.143   9.191 -0.0130 -1.7425  1.9599
  939MOL0     H26714  -0.983   3.159   8.934 -1.8950 -2.0169 -1.3256
  939MOL0     H26715  -1.020   3.291   9.040 -0.1262 -0.7757  3.2923
  939MOL0     H26716  -1.194   3.441   8.947  1.5706 -0.4812 -1.8941
  939MOL0     H26717  -1.453   3.517   8.879  2.1314  3.5691 -1.8159
  939MOL0     H26718  -1.355   3.527   8.732 -0.2875  0.0219  0.6210
  939MOL0     H26719  -1.617   3.365   8.780 -0.6121  0.5657  0.0474
  939MOL0     H26720  -1.525   3.350   8.636  0.7652  0.8415 -0.7982
  939MOL0     H26721  -1.513   3.603   8.605 -0.3706 -0.7464 -2.7681
  939MOL0     H26722  -1.638   3.625   8.721 -0.4119 -0.4274 -0.2864
  939MOL0     H26723  -1.798   3.493   8.599 -0.1071 -0.0194  0.4478
  939MOL0     H26724  -1.683   3.474   8.467 -1.4890  0.7357 -0.2715
  939MOL0     H26725  -1.970   3.539   8.473  0.4644  2.2478  0.6701
  939MOL0     H26726  -2.239   3.557   8.294  0.1532  0.8878  1.1900
  939MOL0     H26727  -2.159   3.423   8.198  0.9533 -0.4710  0.0232
  939MOL0     H26728  -2.155   3.425   8.376 -1.2243  0.7181 -0.0755
  939MOL0     H26729  -2.439   3.774   8.063  1.1512  0.2290 -0.0732
  939MOL0     H26730  -2.628   3.714   7.910  0.2771 -0.2829  1.0787
  939MOL0     H26731  -2.668   3.677   7.673 -1.8387  0.8795  0.1553
  939MOL0     H26732  -2.721   3.541   7.582 -1.0274 -3.4566  1.4067
  939MOL0     H26733  -2.906   3.512   7.781  3.0820 -0.5335  1.3304
  939MOL0     H26734  -2.859   3.661   7.834  0.7749 -1.0734  0.3384
  939MOL0     H26735  -2.931   3.616   7.544 -1.2304 -0.8143 -0.1794
  939MOL0     H26736  -2.907   3.774   7.616  0.3298 -0.7767 -0.0818
  939MOL0     H26737  -3.114   3.574   7.692  2.2425 -1.8157 -3.2532
  939MOL0     H26738  -3.108   3.750   7.759 -1.7236  1.7719 -2.1651
  939MOL0     H26739  -3.144   3.682   7.465  1.4484 -3.1751  1.4754
  939MOL0     H26740  -3.137   3.835   7.548 -2.9058  1.2250 -1.4765
  939MOL0     H26741  -3.360   3.664   7.652 -0.8769  0.9102  0.9674
  939MOL0     H26742  -3.351   3.839   7.620  0.2257 -0.1938 -0.1495
  939MOL0     H26743  -3.368   3.606   7.426 -1.5385  0.1731 -1.2967
  939MOL0     H26744  -3.352   3.763   7.359  1.8007 -1.5689 -0.2750
  939MOL0     H26745  -3.562   3.845   7.480 -0.5955  1.0407  0.2189
  939MOL0     H26746  -3.572   3.676   7.539  1.2858  0.5165 -0.5502
  939MOL0     H26747  -2.408   3.398   7.737 -0.2755  0.1284 -2.1072
  939MOL0     H26748  -2.222   3.440   7.873 -1.0306 -2.0633  0.4823
  939MOL0     H26749  -1.843   3.744   8.047  1.0988 -0.4259  0.3874
  939MOL0     H26750  -1.687   3.769   8.271 -0.5805 -0.4988 -1.5223
  939MOL0     H26751  -0.306   3.084   9.217  1.0965  1.1705  0.3534
  939MOL0     H26752  -0.172   3.202   9.354 -0.7365 -0.4510 -0.1142
  939MOL0     H26753   0.367   3.205   9.362  0.2556 -0.7770 -0.0847
  939MOL0     H26754   0.549   3.310   9.478 -2.2468 -0.9996 -2.7436
  939MOL0     H26755   0.538   3.474   9.898 -0.7934  0.6064 -1.9864
  939MOL0     H26756   0.555   3.298   9.903  3.9153 -1.8615 -1.0512
  939MOL0     H26757   0.793   3.363   9.793 -1.8341 -0.3352 -1.4157
  939MOL0     H26758   0.794   3.383   9.971 -0.6993  1.5220  1.2295
  939MOL0     H26759   0.748   3.602   9.960 -0.2949  1.8440 -1.5158
  939MOL0     H26760   0.687   3.596   9.798  0.2983  0.2716 -0.7543
  939MOL0     H26761   0.914   3.696   9.775  0.8368 -0.0665  0.1047
  939MOL0     H26762   0.940   3.526   9.736 -0.7821  2.8364 -2.6369
  939MOL0     H26763   1.164   3.567  10.079  1.0989 -0.4497 -0.9851
  939MOL0     H26764   0.317   3.331   9.851 -2.1617  2.6545 -1.8780
  939MOL0     H26765   0.146   3.219   9.738  1.5071  1.9702  2.5078
  940MOL0     O26766   4.957   2.182   8.562 -0.1842  0.2338 -0.6886
  940MOL0     C26767   4.951   2.304   8.542  0.3731 -0.2641  0.1207
  940MOL0     O26768   4.830   2.370   8.513  0.1471  0.7063 -0.5490
  940MOL0     C26769   4.720   2.289   8.504  0.1788  0.0574 -1.1139
  940MOL0     C26770   4.686   2.211   8.402  0.2739  0.6111  0.3430
  940MOL0     C26771   4.557   2.147   8.398 -0.3323 -0.5472  0.7189
  940MOL0     C26772   4.462   2.170   8.494  0.5292 -0.0414  0.2764
  940MOL0     O26773   4.340   2.117   8.474 -0.5861 -0.5451 -0.1005
  940MOL0     C26774   4.340   1.971   8.506  0.0861 -0.7083 -1.4627
  940MOL0     C26775   4.203   1.915   8.537  0.8039  0.1579  0.3585
  940MOL0     C26776   4.141   1.992   8.651 -0.6515 -0.9389  0.1194
  940MOL0     C26777   3.990   1.953   8.669 -0.6122 -1.0485 -0.3185
  940MOL0     C26778   3.984   1.833   8.758  1.1632 -0.5546  0.1821
  940MOL0     C26779   3.841   1.800   8.799 -0.5575 -0.0264  0.6373
  940MOL0     C26780   3.844   1.707   8.924  0.5209 -0.0512 -0.6363
  940MOL0     C26781   3.712   1.664   8.983 -0.0644  0.2628 -0.2116
  940MOL0     N26782   3.657   1.552   8.899  0.2750 -0.2315  1.0419
  940MOL0     C26783   3.572   1.449   8.940  0.1291 -0.0961  0.1857
  940MOL0     C26784   3.557   1.363   8.833 -0.2840  0.4897  0.5664
  940MOL0     C26785   3.464   1.247   8.837 -0.4685  0.5834 -0.4891
  940MOL0     C26786   3.326   1.280   8.793 -0.1632 -0.3429  0.4758
  940MOL0     C26787   3.254   1.143   8.775  0.3908  0.0543 -0.4082
  940MOL0     C26788   3.110   1.162   8.735  0.4361 -0.5296 -0.7854
  940MOL0     O26789   3.009   1.149   8.839  1.0135  0.2551  0.0310
  940MOL0     C26790   2.881   1.121   8.800  0.2654 -0.2176 -0.0998
  940MOL0     C26791   2.826   1.168   8.670 -1.1202 -0.6226 -0.2776
  940MOL0     C26792   2.702   1.123   8.623 -0.8417 -0.3441  0.3711
  940MOL0     C26793   2.656   1.183   8.493 -0.1629 -0.6198 -0.2940
  940MOL0     C26794   2.615   1.061   8.716 -0.3656 -0.2687 -0.6835
  940MOL0     C26795   2.471   1.032   8.694  0.7089  0.6665  0.1481
  940MOL0     O26796   2.390   1.050   8.805  0.7239 -0.0718  0.4482
  940MOL0     C26797   2.271   0.989   8.804  0.0139 -0.1306 -0.3291
  940MOL0     C26798   2.163   1.065   8.842  0.3706 -0.8630 -0.1233
  940MOL0     C26799   2.040   1.011   8.843  1.3665 -0.0076 -0.2001
  940MOL0     C26800   2.014   0.870   8.815  0.0616 -0.5335 -0.2121
  940MOL0     O26801   1.894   0.812   8.786  0.2434 -0.2019 -0.1081
  940MOL0     C26802   1.809   0.889   8.694 -0.3343 -0.7785  0.4643
  940MOL0     C26803   1.699   0.788   8.656 -0.0771  0.5524 -0.6164
  940MOL0     C26804   1.591   0.839   8.565 -1.7186 -0.2497  0.1538
  940MOL0     C26805   1.554   0.986   8.576  0.1990  0.6398  0.4647
  940MOL0     C26806   1.411   1.026   8.516  0.5808  0.8198 -1.2796
  940MOL0     C26807   1.374   1.177   8.525 -0.0141 -0.1765 -0.3993
  940MOL0     C26808   1.244   1.212   8.467  1.0575 -0.0123 -0.6515
  940MOL0     C26809   1.217   1.366   8.477  0.4423  0.7546  0.8502
  940MOL0    Cl26810   1.043   1.377   8.430 -0.2147 -0.0292  0.1968
  940MOL0     C26811   2.130   0.794   8.786  0.7273  0.1753  0.1013
  940MOL0     C26812   2.252   0.850   8.770 -0.3301  0.0175 -0.1204
  940MOL0     O26813   2.423   0.996   8.588  0.6572 -0.2059 -0.1838
  940MOL0     C26814   2.660   1.037   8.847 -0.5522  0.0277 -0.0610
  940MOL0     C26815   2.798   1.052   8.880  0.4786  1.0731 -0.1366
  940MOL0     N26816   3.625   1.412   8.729 -0.4374 -0.1056 -0.4657
  940MOL0     N26817   3.689   1.521   8.769  0.3264  0.0344 -0.2314
  940MOL0     C26818   4.491   2.255   8.602 -0.9025 -0.5214 -0.5792
  940MOL0     C26819   4.629   2.305   8.615 -0.5116 -0.6329  0.4852
  940MOL0     C26820   5.070   2.385   8.556  0.0388 -0.5010 -0.6957
  940MOL0     C26821   5.193   2.325   8.566 -1.0075 -0.0426  0.0188
  940MOL0     C26822   5.312   2.406   8.577  0.3087  0.5739  0.1740
  940MOL0     C26823   5.301   2.542   8.575  0.2367 -0.8587  0.1140
  940MOL0     O26824   5.425   2.603   8.575 -0.2078  0.4532  0.4087
  940MOL0     C26825   5.435   2.735   8.524 -0.6616 -0.8455  0.2772
  940MOL0     C26826   5.581   2.769   8.469 -0.0807 -0.2307  0.0728
  940MOL0     C26827   5.628   2.680   8.340  0.4818 -0.4525 -0.1577
  940MOL0     C26828   5.781   2.673   8.333 -0.1829 -0.1259  0.2042
  940MOL0     C26829   5.852   2.785   8.273 -0.7257  1.0982  0.6001
  940MOL0     C26830   5.903   2.886   8.237  0.2471  0.4601  0.4651
  940MOL0     C26831   5.178   2.603   8.559  0.2537  0.3397 -0.6330
  940MOL0     C26832   5.063   2.522   8.544  0.3051  0.7671  0.0464
  940MOL0     H26833   4.758   2.183   8.326 -2.4105 -0.2054 -2.0799
  940MOL0     H26834   4.540   2.075   8.319 -3.4050 -0.1124  0.8650
  940MOL0     H26835   4.376   1.917   8.417 -1.4573 -1.6514 -1.5499
  940MOL0     H26836   4.407   1.963   8.592 -0.8190  1.3441 -0.5120
  940MOL0     H26837   4.145   1.920   8.444 -1.3261  4.1357  1.6808
  940MOL0     H26838   4.202   1.807   8.551 -2.4851 -0.3558 -2.4682
  940MOL0     H26839   4.203   1.996   8.740 -0.5122 -0.9482  0.0228
  940MOL0     H26840   4.137   2.099   8.632  0.1343 -0.7460  0.9980
  940MOL0     H26841   3.941   2.036   8.722  1.2143  1.7925 -2.8019
  940MOL0     H26842   3.953   1.935   8.568  1.1215  3.3082 -1.9493
  940MOL0     H26843   4.015   1.742   8.705  1.6128 -0.4686  0.3004
  940MOL0     H26844   4.046   1.845   8.847 -1.4359 -1.3573  2.2406
  940MOL0     H26845   3.783   1.890   8.821  0.2376  0.7159 -0.2185
  940MOL0     H26846   3.800   1.746   8.714  1.6049  0.7845 -1.0387
  940MOL0     H26847   3.904   1.620   8.897 -0.6306 -0.4891 -1.9424
  940MOL0     H26848   3.902   1.761   8.999  0.9447 -1.5970  0.1733
  940MOL0     H26849   3.651   1.754   8.988  2.3018  1.9600 -0.4266
  940MOL0     H26850   3.726   1.630   9.086 -1.4043  2.4583  0.7499
  940MOL0     H26851   3.516   1.455   9.033  0.1761  0.2572  0.1921
  940MOL0     H26852   3.508   1.173   8.770  1.6767  0.9855  0.3955
  940MOL0     H26853   3.453   1.202   8.936  0.9246  1.8138  0.2780
  940MOL0     H26854   3.341   1.323   8.694  2.1953 -2.2733 -0.0778
  940MOL0     H26855   3.290   1.346   8.873 -1.0580 -1.5518  1.0923
  940MOL0     H26856   3.236   1.080   8.863 -0.3424 -1.7538 -1.7867
  940MOL0     H26857   3.303   1.081   8.699 -1.7804  0.3652 -2.1465
  940MOL0     H26858   3.082   1.093   8.655 -1.9527  1.1862 -1.5660
  940MOL0     H26859   3.101   1.258   8.682  0.6063  0.0849  0.2756
  940MOL0     H26860   2.896   1.226   8.611 -2.2222  0.2941 -0.7344
  940MOL0     H26861   2.566   1.238   8.519  0.5090 -0.6492  2.4284
  940MOL0     H26862   2.729   1.255   8.454 -1.6559 -0.8575 -3.9242
  940MOL0     H26863   2.637   1.111   8.413 -2.8982  0.7985 -1.0209
  940MOL0     H26864   2.181   1.171   8.856  1.9981 -0.4914 -3.8332
  940MOL0     H26865   1.959   1.081   8.860  0.1772 -0.6656 -2.7722
  940MOL0     H26866   1.762   0.970   8.750  2.3484  1.1371  0.1158
  940MOL0     H26867   1.863   0.921   8.605 -0.6775 -3.1902 -0.6931
  940MOL0     H26868   1.753   0.709   8.603  1.9884 -0.8969  3.2020
  940MOL0     H26869   1.655   0.744   8.747  0.0125 -0.4567 -1.0427
  940MOL0     H26870   1.510   0.767   8.582  0.3700 -3.1873 -1.5900
  940MOL0     H26871   1.620   0.815   8.462  0.7732  2.1140  0.1857
  940MOL0     H26872   1.567   1.024   8.678  1.5354  1.6522 -0.0459
  940MOL0     H26873   1.624   1.044   8.515  0.3422 -0.8491 -0.8551
  940MOL0     H26874   1.343   0.966   8.578  4.1436  0.5049  2.8690
  940MOL0     H26875   1.417   0.989   8.414 -0.5360 -0.8563 -0.7773
  940MOL0     H26876   1.373   1.194   8.633  0.1452 -2.0506 -0.0769
  940MOL0     H26877   1.452   1.243   8.486  1.1622 -1.1604  0.2140
  940MOL0     H26878   1.170   1.154   8.523 -1.1601  1.7819 -1.5734
  940MOL0     H26879   1.237   1.179   8.363  0.5520  0.2802 -0.7110
  940MOL0     H26880   1.278   1.413   8.400  1.0949 -2.1970 -0.5788
  940MOL0     H26881   1.251   1.401   8.575  2.7387 -2.3301  1.3374
  940MOL0     H26882   2.106   0.689   8.771 -0.0852  0.7257 -3.1833
  940MOL0     H26883   2.342   0.799   8.738 -1.2031 -0.6148 -1.6451
  940MOL0     H26884   2.583   1.012   8.918 -2.0148  0.0550 -1.5869
  940MOL0     H26885   2.844   1.014   8.970  0.5656 -0.1057 -0.6605
  940MOL0     H26886   4.415   2.278   8.676 -0.7629 -3.0768  0.4532
  940MOL0     H26887   4.659   2.352   8.707 -2.0639  0.4201  0.4831
  940MOL0     H26888   5.205   2.218   8.567  0.9854  0.1464  0.7292
  940MOL0     H26889   5.407   2.358   8.596  0.3320  0.6986  0.3790
  940MOL0     H26890   5.371   2.764   8.440  0.9638  2.3099 -0.0602
  940MOL0     H26891   5.402   2.799   8.606  1.4704  0.5942  0.1121
  940MOL0     H26892   5.646   2.754   8.555  1.0522  0.2618 -0.6695
  940MOL0     H26893   5.603   2.873   8.445  1.8154 -0.1443  1.8939
  940MOL0     H26894   5.589   2.717   8.245  1.4220  1.4564  0.1508
  940MOL0     H26895   5.602   2.574   8.353  2.3097 -0.7031  2.1089
  940MOL0     H26896   5.811   2.585   8.275  4.1435  0.2374  1.5555
  940MOL0     H26897   5.817   2.646   8.433 -0.4538 -2.6485 -0.3144
  940MOL0     H26898   5.943   2.981   8.207  1.3296 -0.6295 -1.7752
  940MOL0     H26899   5.181   2.709   8.534 -0.6255  0.2922 -0.9963
  940MOL0     H26900   4.972   2.577   8.522 -0.3264 -0.0708  0.4840
  941MOL0     O26901   2.834   4.960   5.516 -1.0354 -0.8695 -0.0632
  941MOL0     C26902   2.862   4.855   5.575 -0.4625  0.4033 -0.3362
  941MOL0     O26903   2.769   4.770   5.633 -0.1455 -0.3974  0.1058
  941MOL0     C26904   2.638   4.800   5.622  0.8254 -0.2854 -0.1324
  941MOL0     C26905   2.550   4.695   5.572 -0.2487  0.1651  0.4018
  941MOL0     C26906   2.415   4.724   5.568  0.6423  0.2977  0.1562
  941MOL0     C26907   2.364   4.844   5.613 -0.6052 -0.2602  1.3882
  941MOL0     O26908   2.224   4.859   5.620 -0.0796 -0.0193 -0.8665
  941MOL0     C26909   2.163   4.988   5.603  0.1045  0.1544  0.2239
  941MOL0     C26910   2.032   4.965   5.526  0.0210  0.1210  0.7817
  941MOL0     C26911   2.064   4.930   5.380  0.6615 -0.6029  0.5288
  941MOL0     C26912   1.933   4.877   5.318  0.7019  0.5931  0.8276
  941MOL0     C26913   1.930   4.929   5.173  0.5669 -0.9727  0.2985
  941MOL0     C26914   1.819   4.881   5.083  0.7951 -0.0521 -0.6712
  941MOL0     C26915   1.680   4.922   5.139 -0.1730 -0.4880  0.0658
  941MOL0     C26916   1.642   5.060   5.105  0.5068 -0.3757 -0.0863
  941MOL0     N26917   1.587   5.073   4.959  0.2155 -0.1381 -0.7079
  941MOL0     C26918   1.668   5.129   4.862 -0.6548  0.4616  0.0551
  941MOL0     C26919   1.586   5.180   4.771  1.1123 -0.3319 -0.1892
  941MOL0     C26920   1.606   5.254   4.640  0.7365  1.4151 -0.3526
  941MOL0     C26921   1.703   5.191   4.547 -0.1220  0.8703 -1.0510
  941MOL0     C26922   1.659   5.062   4.489 -0.7662  0.4403 -0.0550
  941MOL0     C26923   1.516   5.055   4.433 -0.2240 -0.4022  0.3912
  941MOL0     O26924   1.517   4.928   4.370  0.0320 -0.4558 -0.3288
  941MOL0     C26925   1.402   4.851   4.360  0.1179  0.4346  0.2262
  941MOL0     C26926   1.399   4.740   4.280  0.5789  0.6288 -0.0684
  941MOL0     C26927   1.284   4.670   4.255  1.1683 -0.1860 -0.7580
  941MOL0     C26928   1.295   4.562   4.156  0.3656 -0.3925 -0.0857
  941MOL0     C26929   1.164   4.701   4.327 -0.1760 -0.2349 -0.1894
  941MOL0     C26930   1.029   4.630   4.335  0.7209  0.3413 -0.2071
  941MOL0     O26931   0.932   4.671   4.422  0.4820  0.3464  0.5343
  941MOL0     C26932   0.825   4.584   4.435  0.1452  0.3892 -0.2279
  941MOL0     C26933   0.844   4.450   4.477  0.2777  0.5199  0.3063
  941MOL0     C26934   0.735   4.356   4.476 -0.9210  0.1742  0.7847
  941MOL0     C26935   0.612   4.411   4.445 -0.8434  0.0007 -1.2153
  941MOL0     O26936   0.506   4.333   4.421 -0.5744  0.2295 -0.2961
  941MOL0     C26937   0.423   4.304   4.541 -0.2823  0.0596 -0.3074
  941MOL0     C26938   0.354   4.164   4.537  0.1486 -0.2841  0.1431
  941MOL0     C26939   0.235   4.167   4.452 -0.2198 -0.2334 -0.4218
  941MOL0     C26940   0.191   4.021   4.432  0.4347  0.3221  0.2779
  941MOL0     C26941   0.067   4.013   4.336 -0.0564  0.2944 -0.3791
  941MOL0     C26942   0.061   3.886   4.259 -0.0991  0.7951 -0.7939
  941MOL0     C26943  -0.082   3.861   4.209 -0.0346 -0.5365 -0.8955
  941MOL0     C26944  -0.103   3.765   4.110 -0.2395  0.3304  0.2817
  941MOL0    Cl26945  -0.264   3.809   4.031 -0.2460 -0.0941 -0.0497
  941MOL0     C26946   0.595   4.546   4.421  0.4048  0.1992 -0.2010
  941MOL0     C26947   0.698   4.633   4.414 -0.1957 -0.3271  0.8573
  941MOL0     O26948   1.013   4.542   4.256 -0.5778 -0.2176  0.0809
  941MOL0     C26949   1.177   4.818   4.413  0.1333 -0.0849  0.2318
  941MOL0     C26950   1.289   4.889   4.434  1.2521 -0.4774  0.0800
  941MOL0     N26951   1.457   5.155   4.816 -0.0841  0.2415 -0.5704
  941MOL0     N26952   1.458   5.097   4.925  0.3217  0.0254 -1.1345
  941MOL0     C26953   2.453   4.948   5.660 -0.0966  1.3897 -0.2029
  941MOL0     C26954   2.587   4.921   5.671 -0.1378 -0.2981  0.0088
  941MOL0     C26955   3.003   4.814   5.584 -0.0222  1.0857 -0.0870
  941MOL0     C26956   3.041   4.681   5.570 -0.6361  0.4266 -0.3360
  941MOL0     C26957   3.176   4.637   5.586  0.0898  0.5164 -0.2872
  941MOL0     C26958   3.268   4.731   5.634 -0.5204 -0.2336  0.5054
  941MOL0     O26959   3.398   4.693   5.664 -0.2106  0.4400 -0.2036
  941MOL0     C26960   3.509   4.776   5.694 -0.9989 -0.1842  0.1179
  941MOL0     C26961   3.615   4.755   5.590  0.4352 -0.2858  0.2191
  941MOL0     C26962   3.736   4.845   5.614 -0.2952  0.3915 -0.1717
  941MOL0     C26963   3.856   4.780   5.678 -0.3869 -0.0912 -0.4319
  941MOL0     C26964   3.839   4.723   5.815 -0.0531 -0.0824  0.4519
  941MOL0     C26965   3.830   4.691   5.932  0.2473  1.1509  0.0446
  941MOL0     C26966   3.229   4.866   5.636  0.3028  0.3688  1.0731
  941MOL0     C26967   3.098   4.915   5.610  0.8591  0.0552 -0.6921
  941MOL0     H26968   2.583   4.596   5.542 -0.9910  0.2712 -0.8181
  941MOL0     H26969   2.353   4.641   5.534 -0.7914  1.3949 -0.0053
  941MOL0     H26970   2.137   5.035   5.698 -1.8901 -0.2407 -0.0691
  941MOL0     H26971   2.232   5.048   5.542 -1.1509  0.9667 -0.4470
  941MOL0     H26972   1.979   4.880   5.571 -0.0933 -0.4091 -0.3128
  941MOL0     H26973   1.962   5.050   5.534 -1.8748 -1.3690  0.8668
  941MOL0     H26974   2.097   5.019   5.326  1.3992 -1.0905  0.1519
  941MOL0     H26975   2.148   4.860   5.373 -0.4775 -2.1368  1.5864
  941MOL0     H26976   1.923   4.770   5.337 -0.4349  0.6320  0.5049
  941MOL0     H26977   1.856   4.926   5.378  0.6948 -0.4858  1.7331
  941MOL0     H26978   1.921   5.038   5.173 -1.0213 -1.0604 -1.4743
  941MOL0     H26979   2.025   4.910   5.122 -0.3070  1.7555 -2.7218
  941MOL0     H26980   1.838   4.920   4.982  3.1186  0.4593 -0.1023
  941MOL0     H26981   1.819   4.772   5.078  0.0324 -0.4114  3.3898
  941MOL0     H26982   1.599   4.853   5.114 -0.5737 -0.9251  2.3754
  941MOL0     H26983   1.690   4.924   5.248  0.2580  1.0729  0.0271
  941MOL0     H26984   1.731   5.121   5.116 -0.3303  0.6363  1.3135
  941MOL0     H26985   1.555   5.099   5.159  1.0932  2.0985 -0.8022
  941MOL0     H26986   1.775   5.143   4.870 -0.4958 -1.4736  3.0613
  941MOL0     H26987   1.512   5.274   4.588 -2.3402 -2.1521  3.1762
  941MOL0     H26988   1.631   5.357   4.667  0.6156  1.5212 -0.6350
  941MOL0     H26989   1.795   5.183   4.605 -0.0836 -0.6144 -1.2868
  941MOL0     H26990   1.706   5.255   4.458 -1.3931 -1.1672 -2.6520
  941MOL0     H26991   1.674   4.987   4.567 -0.0600  1.1113  0.4785
  941MOL0     H26992   1.734   5.022   4.420 -2.1686 -0.5256 -1.0695
  941MOL0     H26993   1.503   5.129   4.354 -0.6803  0.9446  1.6850
  941MOL0     H26994   1.449   5.080   4.515  0.1723  1.0802  0.2882
  941MOL0     H26995   1.494   4.718   4.233 -0.8193  0.0701 -2.8599
  941MOL0     H26996   1.213   4.491   4.166 -1.6995  1.6786 -1.3808
  941MOL0     H26997   1.293   4.604   4.054  0.4372 -1.2060 -0.4295
  941MOL0     H26998   1.400   4.534   4.171  0.1734 -0.6115  0.9258
  941MOL0     H26999   0.945   4.415   4.495  0.7446  1.3549 -0.5910
  941MOL0     H27000   0.751   4.249   4.477  0.4271  0.2460 -1.9435
  941MOL0     H27001   0.489   4.305   4.628 -1.5058  1.4213  0.6668
  941MOL0     H27002   0.345   4.379   4.561  0.8582  1.9053 -2.2451
  941MOL0     H27003   0.419   4.087   4.494 -3.0157 -3.7691  1.0633
  941MOL0     H27004   0.336   4.126   4.638  2.7711 -2.2587 -0.0344
  941MOL0     H27005   0.269   4.205   4.355 -1.9165 -1.7496 -1.7002
  941MOL0     H27006   0.157   4.225   4.501 -0.0423  0.3366 -0.8039
  941MOL0     H27007   0.277   3.973   4.384  0.0716  0.9222 -0.9947
  941MOL0     H27008   0.163   3.991   4.534  0.1826 -0.2594  0.0469
  941MOL0     H27009   0.058   4.098   4.267 -3.1528 -0.2601 -0.7841
  941MOL0     H27010  -0.029   4.031   4.385  0.0594  1.4148 -0.5192
  941MOL0     H27011   0.145   3.887   4.188 -0.5269  0.8585 -1.3024
  941MOL0     H27012   0.083   3.799   4.323  0.6645  1.8899  0.4781
  941MOL0     H27013  -0.102   3.959   4.165  1.3305  0.6102  0.9107
  941MOL0     H27014  -0.138   3.841   4.301  3.8916  0.0516  1.8838
  941MOL0     H27015  -0.109   3.663   4.150 -0.4925  0.4400  0.5314
  941MOL0     H27016  -0.018   3.778   4.043  0.2665  1.4172  1.1041
  941MOL0     H27017   0.491   4.571   4.402  0.2357  0.3584  0.8567
  941MOL0     H27018   0.673   4.735   4.387  2.0955 -0.0307 -0.3953
  941MOL0     H27019   1.095   4.852   4.475  0.7035 -0.3621  1.1559
  941MOL0     H27020   1.289   4.967   4.509  1.2459 -1.3270  0.9923
  941MOL0     H27021   2.408   5.038   5.701  1.2267  0.4495  3.7172
  941MOL0     H27022   2.649   4.994   5.722  0.4307 -1.1297  0.5289
  941MOL0     H27023   2.964   4.610   5.540  0.2310 -0.1692 -1.1710
  941MOL0     H27024   3.213   4.538   5.560 -0.5844 -0.1600  1.1971
  941MOL0     H27025   3.484   4.882   5.696 -0.4473  0.0237 -2.0267
  941MOL0     H27026   3.556   4.750   5.789 -0.7115  1.6041  0.4959
  941MOL0     H27027   3.570   4.784   5.494 -2.2183  2.1400  2.0308
  941MOL0     H27028   3.644   4.649   5.581 -0.3565 -0.3224 -3.2825
  941MOL0     H27029   3.712   4.938   5.666  0.2757  0.4746 -0.0468
  941MOL0     H27030   3.778   4.870   5.516  0.4084  1.0280  0.2789
  941MOL0     H27031   3.931   4.859   5.686 -0.6459  0.0933  0.2459
  941MOL0     H27032   3.889   4.698   5.614  0.6495 -1.7918  2.0899
  941MOL0     H27033   3.816   4.664   6.035  0.2874  3.1892  0.6139
  941MOL0     H27034   3.309   4.934   5.666  3.0886 -2.2945  0.1856
  941MOL0     H27035   3.064   5.018   5.606 -2.9579 -0.9875  0.5176
  942MOL0     O27036   4.979   8.096   8.565  1.1471  0.5232  0.0687
  942MOL0     C27037   4.983   8.048   8.447 -0.3136  0.1215 -0.2235
  942MOL0     O27038   4.876   8.038   8.359  0.5566 -0.2310  0.6734
  942MOL0     C27039   4.744   8.082   8.371  0.4105  0.3566 -0.5014
  942MOL0     C27040   4.712   8.193   8.450  0.0510 -0.2171 -0.6964
  942MOL0     C27041   4.585   8.254   8.449  0.5548 -0.0815 -0.2404
  942MOL0     C27042   4.482   8.191   8.377 -0.0743  0.4081  0.1616
  942MOL0     O27043   4.352   8.241   8.370 -0.9710 -0.2832  0.2248
  942MOL0     C27044   4.298   8.266   8.500 -0.6218 -0.4196  0.1291
  942MOL0     C27045   4.144   8.276   8.496 -0.0825 -0.8892 -0.0792
  942MOL0     C27046   4.082   8.146   8.435 -0.8999 -0.4418  0.7166
  942MOL0     C27047   3.928   8.154   8.437  0.2618 -0.2479 -0.2208
  942MOL0     C27048   3.876   8.260   8.344  0.2475  0.5044  0.1292
  942MOL0     C27049   3.948   8.268   8.207  0.1960 -0.9738  0.4056
  942MOL0     C27050   3.886   8.383   8.118 -0.8385  0.3500  0.5147
  942MOL0     C27051   3.957   8.521   8.141  0.2618  0.2214  0.0978
  942MOL0     N27052   4.099   8.512   8.105 -0.0614 -1.0582 -0.5315
  942MOL0     C27053   4.205   8.513   8.200 -0.2381 -0.2780  0.4141
  942MOL0     C27054   4.309   8.539   8.122  0.1015  0.3633  0.6934
  942MOL0     C27055   4.455   8.550   8.173  0.1139 -0.0469 -0.2346
  942MOL0     C27056   4.534   8.424   8.142  0.1570 -0.5773 -0.6762
  942MOL0     C27057   4.638   8.441   8.028 -1.3172  0.2546 -0.2366
  942MOL0     C27058   4.721   8.311   8.014 -0.4791  0.1867  0.6055
  942MOL0     O27059   4.850   8.344   7.959  0.1707  0.1279 -0.3589
  942MOL0     C27060   4.927   8.238   7.943 -0.0605 -0.8182 -0.2469
  942MOL0     C27061   5.031   8.257   7.860 -0.2952 -0.0845 -1.0891
  942MOL0     C27062   5.135   8.160   7.843 -0.0894 -0.6578  0.5706
  942MOL0     C27063   5.252   8.204   7.761 -1.0515 -0.5231  0.6350
  942MOL0     C27064   5.110   8.041   7.902 -0.2778  0.5657  0.0182
  942MOL0     C27065   5.194   7.921   7.867  0.4633  0.3415  0.0749
  942MOL0     O27066   5.308   7.939   7.799 -0.9254  0.1606 -0.5743
  942MOL0     C27067   5.403   7.846   7.773 -0.4467  0.9821 -0.6488
  942MOL0     C27068   5.402   7.708   7.799  0.3944  0.1177  0.1843
  942MOL0     C27069   5.502   7.632   7.741  0.0290 -0.5759  0.9094
  942MOL0     C27070   5.621   7.683   7.680  0.2282  0.2383  0.4850
  942MOL0     O27071   5.717   7.590   7.645  0.2045  0.4786  0.1385
  942MOL0     C27072   5.855   7.620   7.649 -0.5607 -0.7132 -0.2332
  942MOL0     C27073   5.926   7.499   7.700  0.0404  0.0370 -0.5906
  942MOL0     C27074   6.076   7.522   7.719 -0.6246  0.4748 -0.1889
  942MOL0     C27075   6.128   7.392   7.786 -0.7702  0.1774 -0.2381
  942MOL0     C27076   6.268   7.420   7.845 -0.7903  0.5176 -0.2263
  942MOL0     C27077   6.364   7.305   7.861  0.1110 -0.5668 -0.1783
  942MOL0     C27078   6.500   7.365   7.913  0.9817  0.0175  0.7498
  942MOL0     C27079   6.610   7.255   7.913 -0.1742  0.0479  0.1485
  942MOL0    Cl27080   6.641   7.200   7.751 -0.6624 -0.0034  0.3853
  942MOL0     C27081   5.618   7.821   7.660  0.8493  0.0366 -0.1797
  942MOL0     C27082   5.515   7.900   7.705 -0.2088 -0.1383 -0.1548
  942MOL0     O27083   5.134   7.815   7.878 -0.2993  0.6209  0.5181
  942MOL0     C27084   4.996   8.017   7.981 -0.3428 -0.5896 -0.7104
  942MOL0     C27085   4.907   8.114   8.002 -0.1794  0.6959 -0.0610
  942MOL0     N27086   4.275   8.561   7.986  0.2445  0.2486 -0.6037
  942MOL0     N27087   4.151   8.543   7.982 -0.0929 -0.0664 -0.2971
  942MOL0     C27088   4.509   8.077   8.305 -0.5676  0.2291  0.0190
  942MOL0     C27089   4.644   8.029   8.294  0.4519  0.6514  0.4993
  942MOL0     C27090   5.112   7.983   8.407 -0.4833 -0.0622  0.1147
  942MOL0     C27091   5.235   7.988   8.474 -0.4832  0.6321 -1.2637
  942MOL0     C27092   5.351   7.933   8.427 -1.0387  0.1352 -0.7938
  942MOL0     C27093   5.351   7.856   8.307 -0.3991  0.4272  0.8301
  942MOL0     O27094   5.467   7.808   8.257  0.2647  0.7107 -0.5851
  942MOL0     C27095   5.462   7.680   8.189 -0.4134  0.0004  0.0416
  942MOL0     C27096   5.601   7.615   8.172 -0.1706 -0.5564  0.3398
  942MOL0     C27097   5.675   7.698   8.070  0.2450  0.1755  0.2764
  942MOL0     C27098   5.765   7.621   7.987  0.2253  0.5327 -0.0583
  942MOL0     C27099   5.870   7.557   8.068 -0.0598 -0.5969  0.2613
  942MOL0     C27100   5.959   7.497   8.108  0.2345 -0.3408  0.1323
  942MOL0     C27101   5.229   7.847   8.244  0.4069  0.4135  0.1703
  942MOL0     C27102   5.116   7.913   8.285  0.4669  0.9002 -0.8651
  942MOL0     H27103   4.787   8.239   8.514 -0.6922  1.2306 -0.8272
  942MOL0     H27104   4.569   8.340   8.512 -0.0394 -0.7803  0.5814
  942MOL0     H27105   4.334   8.187   8.567 -1.0601 -0.1279  0.7216
  942MOL0     H27106   4.349   8.353   8.542  1.9544 -0.3194 -2.8166
  942MOL0     H27107   4.106   8.287   8.598  2.8682  1.6239  0.9261
  942MOL0     H27108   4.116   8.364   8.439 -0.3409 -0.5137  0.6126
  942MOL0     H27109   4.120   8.132   8.334  2.5557 -1.2779  1.9955
  942MOL0     H27110   4.121   8.061   8.492  0.3168 -1.6480 -1.7934
  942MOL0     H27111   3.896   8.056   8.397  1.3450 -0.9996  0.7025
  942MOL0     H27112   3.879   8.173   8.532 -0.6044 -0.5167 -0.6022
  942MOL0     H27113   3.768   8.244   8.337  0.2854 -1.4016  2.4386
  942MOL0     H27114   3.881   8.357   8.393  0.0974  1.5178 -1.7823
  942MOL0     H27115   4.056   8.285   8.208 -0.1429  1.5748  1.4990
  942MOL0     H27116   3.933   8.174   8.152 -1.4811  0.7003 -2.2158
  942MOL0     H27117   3.903   8.354   8.014  0.5604 -0.8604  1.0414
  942MOL0     H27118   3.778   8.393   8.133 -1.2306 -1.2273 -0.9146
  942MOL0     H27119   3.945   8.559   8.243  2.8577  0.5966  0.3391
  942MOL0     H27120   3.914   8.596   8.073 -0.4779  0.9285  1.3012
  942MOL0     H27121   4.193   8.504   8.307 -1.0381 -2.0357  0.2092
  942MOL0     H27122   4.504   8.636   8.125 -0.2704  0.6985  0.6678
  942MOL0     H27123   4.446   8.565   8.281 -1.1974 -2.4114  0.0412
  942MOL0     H27124   4.467   8.343   8.111 -2.2772  1.1887 -0.3140
  942MOL0     H27125   4.587   8.404   8.235 -1.1018  0.6059  0.3339
  942MOL0     H27126   4.708   8.515   8.066  0.5557 -1.4871 -0.1375
  942MOL0     H27127   4.592   8.471   7.933 -2.7383  0.4284  0.4724
  942MOL0     H27128   4.689   8.235   7.941  0.3379  0.1316  0.2853
  942MOL0     H27129   4.733   8.270   8.114  2.0900  2.3119  1.2829
  942MOL0     H27130   5.040   8.358   7.820 -0.6591 -0.3361 -1.8225
  942MOL0     H27131   5.267   8.141   7.673 -0.9582  0.1500  0.1581
  942MOL0     H27132   5.231   8.303   7.720  0.8563  0.9381  2.9313
  942MOL0     H27133   5.345   8.199   7.818 -1.1127 -2.5859  0.6290
  942MOL0     H27134   5.325   7.660   7.859  0.7556  1.3814  1.7379
  942MOL0     H27135   5.524   7.526   7.755  2.0837 -0.4109 -0.5124
  942MOL0     H27136   5.890   7.639   7.547  0.1249  2.8935  0.5415
  942MOL0     H27137   5.875   7.708   7.711 -4.1715  0.9150 -1.0877
  942MOL0     H27138   5.896   7.454   7.795  0.9359 -1.0224 -0.7797
  942MOL0     H27139   5.902   7.417   7.631 -0.7520 -0.1975 -0.0467
  942MOL0     H27140   6.092   7.607   7.785 -1.3128  1.9498 -1.8528
  942MOL0     H27141   6.117   7.538   7.619  1.1997 -1.0789  0.2299
  942MOL0     H27142   6.064   7.345   7.862  1.0364 -0.2021  1.1303
  942MOL0     H27143   6.148   7.314   7.712 -0.0037 -0.3143  0.4658
  942MOL0     H27144   6.263   7.452   7.949 -2.8065 -1.2144  0.2821
  942MOL0     H27145   6.310   7.498   7.780 -1.3112 -0.3522 -1.6552
  942MOL0     H27146   6.318   7.235   7.933  0.0159  2.5612  3.0959
  942MOL0     H27147   6.389   7.249   7.771 -1.5553 -2.3926  0.4110
  942MOL0     H27148   6.485   7.409   8.012  2.2291 -1.0378  1.4512
  942MOL0     H27149   6.538   7.445   7.850 -0.5582 -0.2066 -0.5191
  942MOL0     H27150   6.588   7.171   7.980 -1.7367 -0.6500 -1.1818
  942MOL0     H27151   6.699   7.305   7.953 -0.2377  1.9284 -1.8971
  942MOL0     H27152   5.702   7.871   7.615  2.6282 -2.1119  0.5562
  942MOL0     H27153   5.514   8.006   7.684  4.3699 -0.4617 -3.7148
  942MOL0     H27154   4.972   7.920   8.023  0.5574  0.0933  1.4958
  942MOL0     H27155   4.815   8.080   8.048 -1.0696  1.6237 -1.1080
  942MOL0     H27156   4.431   8.037   8.242 -0.4177  2.3511 -1.6633
  942MOL0     H27157   4.672   7.942   8.235  1.1349  1.8722 -1.0619
  942MOL0     H27158   5.238   8.041   8.569 -0.0923  1.9312 -1.9655
  942MOL0     H27159   5.441   7.941   8.486 -0.7871  2.1195 -1.3890
  942MOL0     H27160   5.400   7.608   8.242  1.3634 -2.0525 -0.5061
  942MOL0     H27161   5.413   7.683   8.091  3.1054  1.2369 -1.8526
  942MOL0     H27162   5.589   7.510   8.144  3.1271 -1.6684  2.5682
  942MOL0     H27163   5.664   7.615   8.261  0.6063  2.0230 -0.1031
  942MOL0     H27164   5.734   7.774   8.122 -1.6441  0.1374  2.6386
  942MOL0     H27165   5.602   7.749   8.006  1.6810  1.3733 -0.4842
  942MOL0     H27166   5.813   7.691   7.917  0.4618  1.5524  1.0890
  942MOL0     H27167   5.715   7.555   7.915  1.0391  0.7161 -0.8140
  942MOL0     H27168   6.055   7.450   8.118  0.4839  0.2113  0.4008
  942MOL0     H27169   5.227   7.793   8.150 -1.8673 -0.9641  0.9193
  942MOL0     H27170   5.028   7.893   8.226 -0.5769 -0.1401  0.9531
  943MOL0     O27171  10.966   8.818   7.174  0.1439  0.6564  0.9239
  943MOL0     C27172  10.933   8.703   7.129 -0.5158 -0.3567  0.0243
  943MOL0     O27173  10.805   8.649   7.130  0.8708  0.2906  0.1421
  943MOL0     C27174  10.702   8.738   7.162 -0.1022 -0.5303  0.9987
  943MOL0     C27175  10.665   8.782   7.292 -0.1821  0.1102  0.1239
  943MOL0     C27176  10.566   8.876   7.299  0.4810 -0.5321 -0.3572
  943MOL0     C27177  10.494   8.919   7.189 -0.2400 -0.3562 -0.6177
  943MOL0     O27178  10.389   9.001   7.229 -0.1745  0.0957 -0.8633
  943MOL0     C27179  10.317   9.057   7.119  0.3570 -0.1011  0.9564
  943MOL0     C27180  10.219   9.156   7.169  0.1883  0.0943 -0.8848
  943MOL0     C27181  10.124   9.211   7.061  0.0287  0.5914 -1.1277
  943MOL0     C27182  10.030   9.113   6.999 -0.0259 -0.3098 -0.7800
  943MOL0     C27183   9.968   9.186   6.873  0.4093  0.0032 -0.4619
  943MOL0     C27184   9.849   9.275   6.907 -0.5676  0.2356  0.8060
  943MOL0     C27185   9.786   9.314   6.776  1.3966 -0.6999  0.0302
  943MOL0     C27186   9.656   9.402   6.813  0.0431 -0.0240  0.0168
  943MOL0     N27187   9.578   9.435   6.690  0.6267 -0.2126 -0.8348
  943MOL0     C27188   9.523   9.557   6.657 -0.1481  0.3290  0.1585
  943MOL0     C27189   9.450   9.535   6.546  0.2711  0.0109 -0.5305
  943MOL0     C27190   9.369   9.632   6.476 -0.3125 -0.4985  0.3131
  943MOL0     C27191   9.238   9.657   6.548 -0.5336 -0.3286  0.4171
  943MOL0     C27192   9.129   9.591   6.479 -0.4227  0.8118 -0.3257
  943MOL0     C27193   8.993   9.632   6.526  0.3200 -0.4980 -0.8373
  943MOL0     O27194   8.905   9.574   6.429  0.1658  0.3028 -0.4706
  943MOL0     C27195   8.770   9.569   6.440 -0.2650  0.6535  0.0350
  943MOL0     C27196   8.694   9.570   6.328  0.3863 -0.1610  0.0899
  943MOL0     C27197   8.557   9.558   6.329  0.3223 -0.8331  0.3756
  943MOL0     C27198   8.493   9.545   6.191  1.1460 -0.2133  1.1830
  943MOL0     C27199   8.490   9.557   6.455 -0.0465 -0.3151  0.1100
  943MOL0     C27200   8.339   9.542   6.471  0.4840 -0.4200  0.6752
  943MOL0     O27201   8.289   9.525   6.597  0.6244  0.1277  0.6808
  943MOL0     C27202   8.158   9.565   6.626  0.2582  0.2655  0.2809
  943MOL0     C27203   8.130   9.703   6.614 -0.7503  0.1364  0.0197
  943MOL0     C27204   8.001   9.749   6.651 -1.0953  0.2564  0.4872
  943MOL0     C27205   7.906   9.666   6.696  0.0542  0.3000 -0.5829
  943MOL0     O27206   7.783   9.711   6.744 -0.1991  0.3868 -0.2128
  943MOL0     C27207   7.723   9.826   6.686 -0.6709  0.5951  0.4070
  943MOL0     C27208   7.582   9.825   6.742 -0.7470  0.0774 -0.0171
  943MOL0     C27209   7.570   9.839   6.895 -0.6788 -0.4179 -0.2305
  943MOL0     C27210   7.565   9.983   6.929 -0.0591 -0.6440 -0.0872
  943MOL0     C27211   7.540   9.991   7.085  1.2788 -0.3336 -0.9994
  943MOL0     C27212   7.505  10.136   7.146  0.0767  0.7236 -0.0258
  943MOL0     C27213   7.387  10.190   7.070  0.7698  0.1944 -0.1066
  943MOL0     C27214   7.316  10.305   7.149 -0.2145 -0.0656  0.3874
  943MOL0    Cl27215   7.428  10.445   7.182 -0.0934  0.0773  0.0370
  943MOL0     C27216   7.934   9.532   6.723  0.0405 -0.5467  0.3917
  943MOL0     C27217   8.061   9.481   6.684 -0.2537  0.5827  0.5508
  943MOL0     O27218   8.272   9.527   6.367 -0.6309  0.5269  0.1545
  943MOL0     C27219   8.567   9.556   6.576 -0.0102  0.4203 -0.2496
  943MOL0     C27220   8.705   9.554   6.562  0.7622  0.4426 -0.1768
  943MOL0     N27221   9.466   9.408   6.504  0.0880  0.0843 -0.5854
  943MOL0     N27222   9.552   9.354   6.583  0.2948  0.5817 -0.6959
  943MOL0     C27223  10.521   8.866   7.061  0.7787  0.5064 -0.3178
  943MOL0     C27224  10.627   8.778   7.047  0.2303  0.1700 -1.0389
  943MOL0     C27225  11.038   8.623   7.066  0.0380 -0.3352 -0.6406
  943MOL0     C27226  11.003   8.502   7.016 -0.3876  0.7768  0.1585
  943MOL0     C27227  11.103   8.413   6.961 -0.4393  0.1914 -0.3931
  943MOL0     C27228  11.230   8.463   6.951 -0.2749  0.4318  0.3023
  943MOL0     O27229  11.324   8.389   6.891 -0.0817  0.1978  1.2722
  943MOL0     C27230  11.464   8.432   6.857  1.1536 -0.8209 -0.4802
  943MOL0     C27231  11.527   8.352   6.754  0.0478  0.5715 -0.2219
  943MOL0     C27232  11.662   8.407   6.705 -0.6957 -0.4315  0.7589
  943MOL0     C27233  11.713   8.307   6.590  0.8459  0.1956 -0.8446
  943MOL0     C27234  11.833   8.362   6.533  0.5922 -0.5587  0.4601
  943MOL0     C27235  11.928   8.407   6.483  0.7676 -0.0277  0.3717
  943MOL0     C27236  11.267   8.585   7.009  0.6884  0.6967 -0.1463
  943MOL0     C27237  11.169   8.668   7.062  0.5216  0.3714  0.5046
  943MOL0     H27238  10.698   8.747   7.390 -0.6911  1.5307  0.8332
  943MOL0     H27239  10.527   8.915   7.392  2.0615  0.6855 -0.1602
  943MOL0     H27240  10.383   9.109   7.048  1.7593 -1.2686  1.3742
  943MOL0     H27241  10.254   8.982   7.070  1.9052 -0.0877 -1.2330
  943MOL0     H27242  10.157   9.112   7.247  0.4481 -2.8729 -2.2172
  943MOL0     H27243  10.281   9.239   7.205 -0.6957  1.3163 -2.0920
  943MOL0     H27244  10.054   9.283   7.104 -0.0765  1.1086 -2.1180
  943MOL0     H27245  10.190   9.251   6.983  2.2918 -1.6964 -0.5317
  943MOL0     H27246  10.075   9.017   6.970 -0.1812 -1.3065  1.9617
  943MOL0     H27247   9.958   9.081   7.075  0.2791 -0.7993 -0.6909
  943MOL0     H27248  10.047   9.248   6.829  0.0418  0.9730  0.1935
  943MOL0     H27249   9.927   9.112   6.804 -0.0300 -1.7001  1.5280
  943MOL0     H27250   9.776   9.227   6.973  0.1775 -1.1762  0.6348
  943MOL0     H27251   9.903   9.361   6.947  0.7786  0.7297 -1.8494
  943MOL0     H27252   9.844   9.361   6.696 -1.7798 -1.2624 -2.8369
  943MOL0     H27253   9.750   9.217   6.739 -1.1187 -0.6250  2.0018
  943MOL0     H27254   9.700   9.493   6.855  4.8390 -0.4033 -3.3243
  943MOL0     H27255   9.595   9.353   6.889 -0.3675 -0.3476 -0.5062
  943MOL0     H27256   9.543   9.644   6.719 -1.5003 -1.4885  3.3452
  943MOL0     H27257   9.427   9.725   6.476 -0.0692 -0.6017 -1.7909
  943MOL0     H27258   9.351   9.598   6.374  2.4929 -2.6567  0.4393
  943MOL0     H27259   9.218   9.763   6.535  0.3106 -0.2510 -0.3337
  943MOL0     H27260   9.244   9.635   6.655  0.3364  0.4768  0.5459
  943MOL0     H27261   9.141   9.483   6.486  0.9052  0.9209 -0.6412
  943MOL0     H27262   9.136   9.611   6.371  0.2082 -1.1542 -0.6851
  943MOL0     H27263   8.991   9.741   6.533 -0.2817 -0.5615  0.2336
  943MOL0     H27264   8.986   9.587   6.625  4.8256 -4.7867 -2.0319
  943MOL0     H27265   8.744   9.561   6.233  0.9059  1.4109  0.1930
  943MOL0     H27266   8.554   9.590   6.113  0.3268 -0.2327  0.5200
  943MOL0     H27267   8.478   9.440   6.164  0.4153  0.2006 -0.1141
  943MOL0     H27268   8.399   9.600   6.181  0.4103 -1.4629  0.9354
  943MOL0     H27269   8.203   9.771   6.570  0.8654  1.3936  4.1985
  943MOL0     H27270   7.983   9.856   6.656  0.2296  0.4421  2.0026
  943MOL0     H27271   7.771   9.920   6.716 -1.1373  0.3326  2.0390
  943MOL0     H27272   7.726   9.820   6.577  4.9372 -3.7457  0.3428
  943MOL0     H27273   7.526   9.908   6.698 -3.2199 -1.3553  0.2142
  943MOL0     H27274   7.531   9.733   6.712  0.8548  0.3187 -4.1323
  943MOL0     H27275   7.661   9.798   6.941  1.1060  2.2149 -1.1740
  943MOL0     H27276   7.483   9.780   6.925 -1.2089  0.7856  0.6607
  943MOL0     H27277   7.652  10.043   6.901 -1.3890  1.4802  0.1590
  943MOL0     H27278   7.476  10.027   6.884 -2.4126 -1.9489  2.9128
  943MOL0     H27279   7.634   9.957   7.128  1.0272  0.6950  0.4247
  943MOL0     H27280   7.464   9.919   7.116  0.0402  1.9699  1.8265
  943MOL0     H27281   7.497  10.127   7.255 -1.2099  0.8966 -0.0949
  943MOL0     H27282   7.594  10.192   7.117  0.4054 -1.0122 -2.6646
  943MOL0     H27283   7.314  10.109   7.061  1.1179 -0.3348  1.5993
  943MOL0     H27284   7.412  10.235   6.974 -2.5770  0.6771 -0.8916
  943MOL0     H27285   7.282  10.269   7.246 -0.6304 -2.0550 -0.4455
  943MOL0     H27286   7.236  10.359   7.097  0.7539  2.3593  1.2342
  943MOL0     H27287   7.861   9.461   6.759  0.6727 -1.0092  0.7950
  943MOL0     H27288   8.072   9.373   6.682 -4.2508  0.0115 -0.0707
  943MOL0     H27289   8.524   9.547   6.676  2.4712  3.0372  1.2276
  943MOL0     H27290   8.769   9.532   6.647  0.1762  1.5326  0.5814
  943MOL0     H27291  10.469   8.892   6.969  1.1731 -1.3319 -1.1075
  943MOL0     H27292  10.654   8.724   6.957  0.0047 -1.5157 -0.1509
  943MOL0     H27293  10.902   8.463   7.020 -0.8011  1.7504 -0.4879
  943MOL0     H27294  11.079   8.311   6.933  0.4292  0.6237 -3.0119
  943MOL0     H27295  11.458   8.534   6.818  0.0681 -0.2104  1.1662
  943MOL0     H27296  11.521   8.449   6.949 -1.3871  0.0089  1.0545
  943MOL0     H27297  11.463   8.345   6.666  0.8283 -0.6427 -0.7160
  943MOL0     H27298  11.547   8.248   6.783 -0.2752  0.8258  0.9676
  943MOL0     H27299  11.729   8.418   6.791 -1.6960  0.7140  1.4059
  943MOL0     H27300  11.653   8.505   6.658 -2.3265 -1.1870 -0.6313
  943MOL0     H27301  11.636   8.296   6.512 -0.6093 -0.4064  0.6225
  943MOL0     H27302  11.724   8.205   6.627  0.4035  0.4224 -0.0737
  943MOL0     H27303  12.017   8.440   6.433  1.0646  0.1108  0.9831
  943MOL0     H27304  11.368   8.617   6.986  1.7202 -1.7669  0.6904
  943MOL0     H27305  11.187   8.774   7.080  0.6883  0.4939 -0.3678
  944MOL0     O27306   6.900  10.397  10.382 -0.5852  0.0988  0.7291
  944MOL0     C27307   6.967  10.317  10.451  0.0009  0.7005  0.3578
  944MOL0     O27308   7.021  10.338  10.568 -0.1185  0.6554  0.1821
  944MOL0     C27309   6.982  10.451  10.631  0.7988 -0.0194 -0.6360
  944MOL0     C27310   6.851  10.496  10.643  0.2443 -0.5033 -0.0682
  944MOL0     C27311   6.822  10.627  10.685 -0.0445  0.6887  0.6640
  944MOL0     C27312   6.920  10.700  10.742  0.7995 -0.3891  0.6376
  944MOL0     O27313   6.887  10.812  10.804  0.2842  0.1326  0.3485
  944MOL0     C27314   6.887  10.791  10.946  0.9525  0.4827 -0.5736
  944MOL0     C27315   6.825  10.913  11.010  0.1704  0.4534  0.7942
  944MOL0     C27316   6.825  10.926  11.163  0.8900  0.5042  0.9493
  944MOL0     C27317   6.798  11.076  11.203 -0.2931  0.6490  0.0520
  944MOL0     C27318   6.785  11.094  11.353 -0.9798  0.7042 -0.0152
  944MOL0     C27319   6.697  11.202  11.398  0.2616 -0.3243 -0.3553
  944MOL0     C27320   6.723  11.239  11.540  0.1821  0.4359 -0.9714
  944MOL0     C27321   6.626  11.340  11.609  0.2475  0.1869  0.2719
  944MOL0     N27322   6.476  11.298  11.615  0.0745  0.2990 -0.3323
  944MOL0     C27323   6.410  11.224  11.713 -1.0234  0.1192  0.5982
  944MOL0     C27324   6.284  11.198  11.660  0.3030 -0.1811 -0.7649
  944MOL0     C27325   6.165  11.134  11.732  0.0640  0.1751  0.2259
  944MOL0     C27326   6.069  11.249  11.773  0.4851  0.3050 -0.2601
  944MOL0     C27327   5.928  11.198  11.819  0.2748 -0.0837  0.1437
  944MOL0     C27328   5.928  11.113  11.943  0.5150 -1.2052 -0.1848
  944MOL0     O27329   5.789  11.064  11.975 -0.1532 -0.1153  0.3555
  944MOL0     C27330   5.745  11.104  12.096  0.1564 -0.0683 -0.9457
  944MOL0     C27331   5.625  11.179  12.107 -0.5896 -0.3386  1.2117
  944MOL0     C27332   5.568  11.201  12.232  1.0579 -0.0899 -0.7857
  944MOL0     C27333   5.437  11.272  12.233 -0.0609 -0.0742 -0.9707
  944MOL0     C27334   5.637  11.160  12.353 -0.9977  1.3054  1.0112
  944MOL0     C27335   5.571  11.147  12.480  0.2926 -0.1056  0.0847
  944MOL0     O27336   5.644  11.189  12.588 -0.8103 -0.7360  0.2659
  944MOL0     C27337   5.570  11.202  12.699 -0.9376 -0.3274 -0.1687
  944MOL0     C27338   5.489  11.316  12.707 -0.3410 -0.3431 -0.5262
  944MOL0     C27339   5.399  11.326  12.809 -0.2929  0.2787  0.8624
  944MOL0     C27340   5.400  11.230  12.913 -0.0171 -0.3257 -0.1167
  944MOL0     O27341   5.315  11.237  13.019 -0.1430 -0.1864  0.3694
  944MOL0     C27342   5.315  11.352  13.106 -0.3501 -0.6500 -0.3728
  944MOL0     C27343   5.418  11.339  13.220  0.4343  0.4500 -0.2397
  944MOL0     C27344   5.420  11.204  13.287  0.3940  0.2297 -0.9582
  944MOL0     C27345   5.498  11.181  13.419  0.1919 -0.0301  0.2424
  944MOL0     C27346   5.434  11.249  13.540  0.1312 -0.5359 -0.4585
  944MOL0     C27347   5.489  11.203  13.674  0.5185 -0.2649 -0.1977
  944MOL0     C27348   5.632  11.241  13.682  0.7598  0.7566 -0.5668
  944MOL0     C27349   5.710  11.193  13.805  0.0879  0.0685  0.6740
  944MOL0    Cl27350   5.616  11.186  13.954 -0.2534  0.0983 -0.1889
  944MOL0     C27351   5.491  11.121  12.909 -0.2538 -0.3124 -0.2104
  944MOL0     C27352   5.580  11.105  12.799 -0.4977 -0.1725 -0.7581
  944MOL0     O27353   5.471  11.081  12.490  0.3451  0.8514 -1.2463
  944MOL0     C27354   5.758  11.097  12.344 -0.2106  0.1435  0.2522
  944MOL0     C27355   5.811  11.077  12.214 -0.2973  0.8250 -0.6455
  944MOL0     N27356   6.285  11.253  11.533 -1.0032  0.5461  0.8062
  944MOL0     N27357   6.401  11.307  11.502  0.0740 -0.1045  0.4607
  944MOL0     C27358   7.047  10.656  10.749 -0.9561  0.0324 -0.6201
  944MOL0     C27359   7.086  10.523  10.695 -0.1730 -0.5437  0.4677
  944MOL0     C27360   6.997  10.185  10.395  0.0136 -0.7751  0.3564
  944MOL0     C27361   6.935  10.149  10.272 -0.4638 -0.7511 -0.1303
  944MOL0     C27362   6.967  10.033  10.216  0.5271  0.2141 -0.3314
  944MOL0     C27363   7.053   9.944  10.282 -0.1573  0.6140  0.2961
  944MOL0     O27364   7.078   9.826  10.209  0.5999 -0.1053 -0.3368
  944MOL0     C27365   7.140   9.705  10.261 -0.1530  0.4985 -0.4174
  944MOL0     C27366   7.038   9.630  10.349 -0.7901  0.2808  0.1004
  944MOL0     C27367   7.099   9.494  10.391  0.3013  0.0013 -0.2006
  944MOL0     C27368   7.101   9.380  10.288  0.7850  0.7049 -0.2995
  944MOL0     C27369   7.165   9.263  10.343  0.5992  0.4995 -1.0423
  944MOL0     C27370   7.220   9.169  10.398  0.7772 -0.2399 -1.2207
  944MOL0     C27371   7.117   9.982  10.397  0.2542  0.5302 -0.5500
  944MOL0     C27372   7.097  10.109  10.447 -0.7147 -0.0514 -0.0116
  944MOL0     H27373   6.778  10.424  10.605 -0.5596 -0.2308  0.9107
  944MOL0     H27374   6.719  10.658  10.689 -1.0954 -2.3842  0.0779
  944MOL0     H27375   6.815  10.711  10.969  0.7505  0.5321 -1.0401
  944MOL0     H27376   6.985  10.771  10.992  0.6265 -1.6420 -0.7087
  944MOL0     H27377   6.901  10.981  10.970  2.0533 -2.6923 -1.4286
  944MOL0     H27378   6.730  10.947  10.969  0.7013  1.2879  0.2248
  944MOL0     H27379   6.751  10.863  11.214  1.4465 -1.1056 -0.1294
  944MOL0     H27380   6.926  10.905  11.200  2.4266  0.1946 -3.0186
  944MOL0     H27381   6.873  11.144  11.162 -0.8519 -0.4696 -3.1060
  944MOL0     H27382   6.702  11.099  11.155  0.5146  3.3634 -0.4022
  944MOL0     H27383   6.733  11.013  11.405  1.0543  0.9291  2.5315
  944MOL0     H27384   6.884  11.108  11.396 -1.4946  2.0018  0.7859
  944MOL0     H27385   6.718  11.284  11.330 -3.6755 -0.2934 -1.7436
  944MOL0     H27386   6.593  11.172  11.379 -0.0554  1.5486 -1.8450
  944MOL0     H27387   6.725  11.145  11.595  0.0988 -0.0138 -1.7135
  944MOL0     H27388   6.821  11.288  11.542  0.0268  0.7290 -0.4553
  944MOL0     H27389   6.648  11.435  11.558 -0.2998  0.2243  0.0993
  944MOL0     H27390   6.666  11.353  11.709  0.8913 -2.9569  0.5093
  944MOL0     H27391   6.449  11.206  11.813 -1.5143  1.0043  0.9655
  944MOL0     H27392   6.109  11.062  11.672 -1.2697  0.8323  0.6457
  944MOL0     H27393   6.197  11.072  11.816 -0.3645 -0.7573 -0.2842
  944MOL0     H27394   6.048  11.315  11.689 -0.4361 -0.4883 -0.6767
  944MOL0     H27395   6.125  11.315  11.840 -0.2989  1.1696 -0.4440
  944MOL0     H27396   5.878  11.137  11.743 -1.4948  0.2941  0.9717
  944MOL0     H27397   5.867  11.288  11.832  0.0521 -0.5733  2.8910
  944MOL0     H27398   5.969  11.173  12.025  0.1169  0.6432 -1.2959
  944MOL0     H27399   5.990  11.026  11.919  0.7561 -1.7417  2.0989
  944MOL0     H27400   5.572  11.198  12.014 -0.3072 -3.3574  0.2947
  944MOL0     H27401   5.413  11.303  12.335 -2.0718  2.1766 -2.0347
  944MOL0     H27402   5.439  11.362  12.170 -1.2908 -0.7008 -1.9578
  944MOL0     H27403   5.360  11.204  12.195  0.5361 -1.1069 -0.3705
  944MOL0     H27404   5.484  11.395  12.633  0.2730 -0.0738 -0.2918
  944MOL0     H27405   5.333  11.412  12.802 -1.7003 -0.9098 -1.9751
  944MOL0     H27406   5.339  11.446  13.056  3.2390 -3.0944 -3.8774
  944MOL0     H27407   5.214  11.374  13.142 -1.1738 -3.1001 -1.0156
  944MOL0     H27408   5.512  11.357  13.168 -0.1724  1.8787 -0.8853
  944MOL0     H27409   5.399  11.417  13.295 -1.5153 -0.6425  0.5018
  944MOL0     H27410   5.459  11.127  13.220  0.4636 -0.4367 -0.1718
  944MOL0     H27411   5.315  11.182  13.309  0.3897  0.0544 -1.1559
  944MOL0     H27412   5.501  11.073  13.435  0.0156 -0.1871 -0.7149
  944MOL0     H27413   5.597  11.224  13.402  0.9796 -0.2365  3.6531
  944MOL0     H27414   5.328  11.222  13.548  0.2083 -0.1804  2.8246
  944MOL0     H27415   5.442  11.357  13.522  0.3605 -0.8409 -2.3877
  944MOL0     H27416   5.442  11.249  13.762  3.1867  1.1835  0.5547
  944MOL0     H27417   5.484  11.094  13.685  0.6835 -0.3423 -0.8850
  944MOL0     H27418   5.650  11.349  13.684  0.2022  0.8928  2.4767
  944MOL0     H27419   5.680  11.198  13.594  0.5064 -0.7476 -0.0061
  944MOL0     H27420   5.789  11.268  13.816  0.0659  0.1146  0.5144
  944MOL0     H27421   5.748  11.095  13.774  2.9152  2.1860 -3.4146
  944MOL0     H27422   5.487  11.057  12.996 -0.0985  0.0365  0.0558
  944MOL0     H27423   5.648  11.021  12.789  2.2392  1.8270 -0.0398
  944MOL0     H27424   5.814  11.071  12.433 -1.9726 -0.9380  1.1023
  944MOL0     H27425   5.905  11.028  12.191  0.2927  0.3006  2.5248
  944MOL0     H27426   7.129  10.711  10.794 -0.2543 -1.3543 -0.1292
  944MOL0     H27427   7.186  10.484  10.699 -0.3953 -1.0344  2.7345
  944MOL0     H27428   6.865  10.216  10.221  1.2877  1.2609 -0.0227
  944MOL0     H27429   6.929  10.004  10.119  4.0395 -3.3620 -0.8864
  944MOL0     H27430   7.158   9.651  10.168  1.1722  1.4140 -0.7328
  944MOL0     H27431   7.236   9.726  10.310  0.0265 -0.0204 -0.5452
  944MOL0     H27432   6.944   9.621  10.294  0.8120  2.6774 -3.3688
  944MOL0     H27433   7.020   9.692  10.438 -3.1501  0.5309 -0.4658
  944MOL0     H27434   7.045   9.453  10.477 -1.4034  1.1252 -0.6884
  944MOL0     H27435   7.205   9.509  10.414  0.0187 -2.0581  3.1480
  944MOL0     H27436   7.157   9.411  10.198 -0.8155 -0.9786 -1.9452
  944MOL0     H27437   6.999   9.354  10.259  0.2805  1.1492  1.0234
  944MOL0     H27438   7.250   9.083  10.454 -2.8132 -0.5364  0.5091
  944MOL0     H27439   7.184   9.914  10.448 -2.2186 -1.4752  0.2699
  944MOL0     H27440   7.149  10.141  10.537  1.1262 -0.8091 -0.7536
  945MOL0     O27441   3.388   6.461   8.008  0.3240  0.1488  0.3935
  945MOL0     C27442   3.487   6.416   8.050 -0.4317 -0.3333  0.4215
  945MOL0     O27443   3.511   6.287   8.065 -0.2659  0.2545  0.0126
  945MOL0     C27444   3.405   6.196   8.065 -0.0815  0.6194  0.5133
  945MOL0     C27445   3.331   6.179   8.179  0.7894  0.1999 -0.0048
  945MOL0     C27446   3.204   6.113   8.177 -0.1306 -0.5279  0.2536
  945MOL0     C27447   3.158   6.052   8.056 -0.7471 -0.2692 -0.5283
  945MOL0     O27448   3.035   6.009   8.023  0.4375 -0.2094  0.5248
  945MOL0     C27449   2.943   5.952   8.116 -0.1412 -0.3656 -0.8087
  945MOL0     C27450   2.887   5.822   8.084 -0.1292  0.5342 -0.5375
  945MOL0     C27451   2.835   5.809   7.944  0.3780  0.6427 -0.5343
  945MOL0     C27452   2.801   5.666   7.912 -0.6371 -0.1497 -0.3624
  945MOL0     C27453   2.750   5.645   7.769  0.4901 -0.0440 -0.1268
  945MOL0     C27454   2.604   5.677   7.753  0.0833  0.5454 -0.7851
  945MOL0     C27455   2.563   5.632   7.616  0.3027  0.2514 -0.9939
  945MOL0     C27456   2.624   5.700   7.494  1.4040  0.9531 -0.1477
  945MOL0     N27457   2.561   5.653   7.367  0.8977 -0.4960  0.5818
  945MOL0     C27458   2.460   5.712   7.293 -0.9866  0.3521  0.3355
  945MOL0     C27459   2.425   5.633   7.193 -0.4117  0.3904 -0.2340
  945MOL0     C27460   2.322   5.664   7.087  0.8445  0.3024 -0.0716
  945MOL0     C27461   2.204   5.566   7.092  0.6645 -0.6199 -0.5659
  945MOL0     C27462   2.244   5.424   7.056  0.2660  0.4646  1.0274
  945MOL0     C27463   2.122   5.331   7.078  0.0829 -0.1796 -0.2055
  945MOL0     O27464   2.002   5.362   7.008  0.7644 -0.3869  0.3884
  945MOL0     C27465   1.897   5.270   7.005  0.2790 -0.3447  0.2368
  945MOL0     C27466   1.892   5.166   7.099 -0.4924 -0.0014  0.0092
  945MOL0     C27467   1.797   5.064   7.089  0.3585  0.0250 -0.1437
  945MOL0     C27468   1.823   4.949   7.178 -0.2368  0.4474 -0.3442
  945MOL0     C27469   1.689   5.084   7.002  0.1954  0.1490 -0.6172
  945MOL0     C27470   1.574   4.986   6.976 -0.4345 -0.5491  0.4507
  945MOL0     O27471   1.480   5.025   6.880  1.0636 -0.1993 -0.4532
  945MOL0     C27472   1.393   4.933   6.824 -0.2225 -0.5251 -0.1321
  945MOL0     C27473   1.428   4.799   6.793 -0.7282  0.6372 -0.0542
  945MOL0     C27474   1.343   4.703   6.741  0.1988  0.2104  0.2414
  945MOL0     C27475   1.211   4.735   6.718  0.2060 -0.5111  0.6943
  945MOL0     O27476   1.132   4.630   6.681  0.7257 -0.4547 -0.8066
  945MOL0     C27477   1.002   4.632   6.739  0.4000  0.0561 -0.1926
  945MOL0     C27478   0.918   4.512   6.688  0.2167  0.0469  1.2266
  945MOL0     C27479   0.868   4.514   6.534 -0.2821 -0.0569  0.3183
  945MOL0     C27480   0.718   4.467   6.525 -0.4329 -0.6692 -0.5892
  945MOL0     C27481   0.621   4.577   6.559 -0.2121 -0.4639  0.2200
  945MOL0     C27482   0.491   4.542   6.494 -0.0091  1.0935  0.2414
  945MOL0     C27483   0.383   4.647   6.515  0.4719 -0.1714  0.2163
  945MOL0     C27484   0.242   4.604   6.466 -1.5837 -0.4335 -0.9811
  945MOL0    Cl27485   0.158   4.529   6.598  0.1580 -0.1054 -0.1086
  945MOL0     C27486   1.170   4.872   6.733  0.2905 -0.2014 -0.5766
  945MOL0     C27487   1.264   4.973   6.787 -0.0381  0.2597  0.7959
  945MOL0     O27488   1.578   4.884   7.045 -0.0704  0.7395 -0.1534
  945MOL0     C27489   1.690   5.199   6.913  0.9047 -0.1400 -0.8020
  945MOL0     C27490   1.794   5.289   6.927 -0.0156  0.0185 -0.0470
  945MOL0     N27491   2.518   5.522   7.201 -0.5444 -0.3892 -0.4316
  945MOL0     N27492   2.589   5.529   7.310 -0.0168  0.3449 -0.2768
  945MOL0     C27493   3.243   6.063   7.948 -0.2794  0.3670  0.3494
  945MOL0     C27494   3.367   6.137   7.947  0.2889  1.0420  0.3537
  945MOL0     C27495   3.590   6.517   8.094  0.4596  0.6835 -0.5124
  945MOL0     C27496   3.717   6.469   8.149 -0.9297 -0.1876  0.8836
  945MOL0     C27497   3.819   6.563   8.191 -0.9270  0.5298  0.7352
  945MOL0     C27498   3.785   6.699   8.187 -0.5368 -0.4460  0.5851
  945MOL0     O27499   3.868   6.789   8.248 -0.5324 -1.0997 -0.2343
  945MOL0     C27500   3.852   6.928   8.233  0.7204 -0.0580  0.5830
  945MOL0     C27501   3.953   6.999   8.329 -0.1229  0.1782  0.0816
  945MOL0     C27502   4.103   6.963   8.304  0.6522 -0.2660 -0.0987
  945MOL0     C27503   4.205   7.060   8.355 -0.2098  0.4883  0.3201
  945MOL0     C27504   4.188   7.092   8.494  0.5016  0.7110 -0.2701
  945MOL0     C27505   4.142   7.091   8.602  0.1041  0.5570 -0.3428
  945MOL0     C27506   3.663   6.745   8.132  0.1237  0.5034  0.4744
  945MOL0     C27507   3.563   6.656   8.085  0.2016  0.0109 -0.0208
  945MOL0     H27508   3.352   6.224   8.275  0.4670 -0.1592  0.2409
  945MOL0     H27509   3.137   6.109   8.262 -1.2827 -1.1379 -0.6661
  945MOL0     H27510   3.001   5.950   8.209  3.5185  0.7808 -2.8449
  945MOL0     H27511   2.859   6.022   8.122  0.0716 -0.0924 -0.9845
  945MOL0     H27512   2.977   5.761   8.096 -0.9257 -0.5125  0.3227
  945MOL0     H27513   2.814   5.797   8.161  0.7982  3.8110  1.6336
  945MOL0     H27514   2.746   5.873   7.942  0.0184  0.1521 -2.5997
  945MOL0     H27515   2.905   5.848   7.869  2.5512  1.0575  1.5606
  945MOL0     H27516   2.885   5.597   7.927 -0.5172  0.2754  1.0677
  945MOL0     H27517   2.731   5.633   7.990  2.2186 -3.0227  1.2486
  945MOL0     H27518   2.812   5.706   7.703  1.8736 -0.5990  0.6201
  945MOL0     H27519   2.764   5.539   7.744  2.2391  0.1748 -0.1521
  945MOL0     H27520   2.546   5.624   7.828  0.2049  0.4996 -0.7231
  945MOL0     H27521   2.595   5.786   7.758 -0.6834  0.4137  1.1581
  945MOL0     H27522   2.585   5.525   7.609  0.3569  0.0745  1.1301
  945MOL0     H27523   2.454   5.645   7.618  0.4570  1.7132 -0.9275
  945MOL0     H27524   2.732   5.684   7.498  1.4444  0.6161 -1.9319
  945MOL0     H27525   2.611   5.808   7.499  0.2962  0.9065 -1.3758
  945MOL0     H27526   2.408   5.803   7.324 -0.3120  0.5935  0.7783
  945MOL0     H27527   2.294   5.767   7.106 -1.0544  0.0562 -1.2422
  945MOL0     H27528   2.375   5.654   6.991  0.3504  1.9534 -0.5395
  945MOL0     H27529   2.129   5.606   7.023  0.3819 -1.2890 -0.6609
  945MOL0     H27530   2.167   5.551   7.194  0.2681 -0.4456 -0.6793
  945MOL0     H27531   2.322   5.383   7.121  1.1188  1.6431  0.7794
  945MOL0     H27532   2.285   5.407   6.957 -0.8752 -0.1187  0.6323
  945MOL0     H27533   2.090   5.339   7.182 -0.1440 -1.8540 -0.1210
  945MOL0     H27534   2.139   5.225   7.054  2.4093  0.1469 -0.2782
  945MOL0     H27535   1.965   5.145   7.177 -2.7433  0.1912  2.3392
  945MOL0     H27536   1.887   4.967   7.265  0.9678 -1.7638 -0.7156
  945MOL0     H27537   1.730   4.917   7.226  0.7323 -0.4259  1.0190
  945MOL0     H27538   1.861   4.868   7.116 -0.0353  0.5779 -0.3903
  945MOL0     H27539   1.532   4.781   6.819 -0.7353  1.2568  0.4427
  945MOL0     H27540   1.380   4.601   6.735 -1.1953 -0.3821  1.2220
  945MOL0     H27541   1.007   4.632   6.848  2.0349  0.9861 -0.2293
  945MOL0     H27542   0.940   4.714   6.701 -0.3722 -1.6629 -2.9436
  945MOL0     H27543   0.973   4.422   6.719  2.6685  0.7741 -0.6716
  945MOL0     H27544   0.828   4.510   6.750  1.5958 -0.1836  3.3087
  945MOL0     H27545   0.927   4.447   6.472  0.7588 -0.0680  1.2879
  945MOL0     H27546   0.897   4.602   6.476  1.6239  0.7453  2.3427
  945MOL0     H27547   0.700   4.430   6.424  2.7349  1.5294 -2.1177
  945MOL0     H27548   0.711   4.376   6.585 -1.2110 -2.1100 -2.7702
  945MOL0     H27549   0.664   4.670   6.522 -1.0577 -0.3570 -0.5367
  945MOL0     H27550   0.608   4.596   6.666 -0.1342  0.8243  0.0157
  945MOL0     H27551   0.510   4.520   6.389  0.3776 -1.8566  0.8308
  945MOL0     H27552   0.444   4.448   6.526  0.6600 -0.2446 -2.4094
  945MOL0     H27553   0.410   4.733   6.452 -0.7176  0.8792  1.0763
  945MOL0     H27554   0.368   4.679   6.618 -1.3806 -1.5898  0.4535
  945MOL0     H27555   0.262   4.534   6.383  0.0038 -2.4502  0.9859
  945MOL0     H27556   0.189   4.694   6.434 -1.5203 -0.0785 -0.0995
  945MOL0     H27557   1.069   4.896   6.702  0.0024 -2.7673 -1.8503
  945MOL0     H27558   1.231   5.075   6.804 -2.0163 -0.6892  3.4439
  945MOL0     H27559   1.612   5.219   6.840  1.4356 -2.3908 -2.0897
  945MOL0     H27560   1.803   5.369   6.855 -1.3771  0.8246  0.6340
  945MOL0     H27561   3.206   6.028   7.852 -0.0968  2.2288 -0.4559
  945MOL0     H27562   3.424   6.153   7.857  3.1556 -2.5675  1.2918
  945MOL0     H27563   3.743   6.364   8.153 -1.6443 -0.4144  0.0039
  945MOL0     H27564   3.912   6.530   8.234  0.4229  0.8355 -1.7335
  945MOL0     H27565   3.862   6.956   8.128 -0.9721  1.1154  0.7094
  945MOL0     H27566   3.750   6.953   8.263 -0.2630 -3.7783  0.8869
  945MOL0     H27567   3.928   6.995   8.435  0.2671  0.8852  0.2059
  945MOL0     H27568   3.944   7.105   8.302 -1.8580 -0.2852 -1.3070
  945MOL0     H27569   4.113   6.965   8.195  2.6739  1.0088  0.0487
  945MOL0     H27570   4.118   6.866   8.354  0.7686 -0.6337 -0.8239
  945MOL0     H27571   4.198   7.152   8.296  0.2743 -1.3018 -2.7711
  945MOL0     H27572   4.309   7.031   8.341  0.2999  2.5435 -0.6611
  945MOL0     H27573   4.096   7.080   8.697  0.2623 -1.9705 -0.4861
  945MOL0     H27574   3.639   6.851   8.136 -1.6195  0.1475  0.2231
  945MOL0     H27575   3.472   6.689   8.037 -2.8496 -3.8130  2.5743
  946MOL0     O27576   9.531   4.762   1.307 -0.4355  0.7383 -0.0130
  946MOL0     C27577   9.630   4.752   1.232 -0.1147  0.2012 -0.4442
  946MOL0     O27578   9.633   4.795   1.102  0.5661 -0.3086  0.2460
  946MOL0     C27579   9.533   4.873   1.044  0.0254  0.6043  0.5949
  946MOL0     C27580   9.460   4.812   0.938 -0.7908  0.4120 -0.0989
  946MOL0     C27581   9.365   4.884   0.881  0.1513  0.5836  1.4242
  946MOL0     C27582   9.323   5.011   0.930  0.2769 -0.1411 -1.2607
  946MOL0     O27583   9.235   5.085   0.856  0.0019  0.6389 -0.4346
  946MOL0     C27584   9.110   5.104   0.931  0.0574  0.0970 -0.7241
  946MOL0     C27585   9.006   5.188   0.853  0.8038 -0.4632  0.0989
  946MOL0     C27586   8.875   5.209   0.934  0.2396 -0.7307 -0.5405
  946MOL0     C27587   8.786   5.300   0.853 -0.0900 -0.3237  0.1457
  946MOL0     C27588   8.637   5.314   0.895  0.1426  0.4228  0.1151
  946MOL0     C27589   8.554   5.403   0.793 -0.6614 -0.0865  0.9851
  946MOL0     C27590   8.421   5.466   0.849 -0.3834  0.5160 -0.1236
  946MOL0     C27591   8.325   5.349   0.888  0.4797  0.4631 -0.1256
  946MOL0     N27592   8.192   5.388   0.907 -0.1225 -0.4498 -0.4262
  946MOL0     C27593   8.093   5.300   0.956  0.2001  0.3642 -0.5386
  946MOL0     C27594   7.984   5.383   0.952 -0.1973  0.7298 -0.5179
  946MOL0     C27595   7.848   5.333   1.000  1.1208  0.3490 -0.2615
  946MOL0     C27596   7.731   5.375   0.907 -0.0981 -0.3816 -0.4182
  946MOL0     C27597   7.752   5.338   0.758 -0.2099  1.0189  0.3418
  946MOL0     C27598   7.617   5.351   0.686 -0.7297 -0.3918 -0.0515
  946MOL0     O27599   7.516   5.250   0.709  0.4743 -0.8326 -0.2950
  946MOL0     C27600   7.392   5.300   0.737  0.4590 -0.3179 -0.4032
  946MOL0     C27601   7.318   5.245   0.834  0.4536 -0.0371 -0.0699
  946MOL0     C27602   7.190   5.297   0.871 -0.6990  0.0377 -0.2215
  946MOL0     C27603   7.125   5.230   0.987 -1.0411  0.2693  0.7949
  946MOL0     C27604   7.137   5.411   0.796 -1.0812 -0.5172 -0.0239
  946MOL0     C27605   7.000   5.462   0.817 -0.3116 -0.8485  0.8046
  946MOL0     O27606   6.953   5.542   0.723 -0.1896 -0.1629  0.0646
  946MOL0     C27607   6.835   5.596   0.758 -0.1920 -0.2824  0.4579
  946MOL0     C27608   6.834   5.706   0.843 -0.2110  0.8382  0.0403
  946MOL0     C27609   6.713   5.770   0.872 -0.8413 -0.5002  0.5781
  946MOL0     C27610   6.592   5.732   0.809  0.0285 -0.6124 -0.2695
  946MOL0     O27611   6.477   5.790   0.846 -0.3676 -0.0996 -0.7748
  946MOL0     C27612   6.357   5.728   0.809  0.7000 -0.7927 -0.1938
  946MOL0     C27613   6.243   5.749   0.909  0.3121 -0.1717  0.0938
  946MOL0     C27614   6.190   5.886   0.877  0.6571  0.3072  0.1888
  946MOL0     C27615   6.066   5.903   0.969 -0.0881  0.3634 -0.1447
  946MOL0     C27616   5.995   6.031   0.945  0.7485 -1.1935  0.5204
  946MOL0     C27617   5.877   6.048   1.045 -0.1198  0.0470  0.0852
  946MOL0     C27618   5.786   6.169   1.035 -0.7336  0.7471  0.2527
  946MOL0     C27619   5.716   6.189   0.894 -0.4651  0.3043 -0.4880
  946MOL0    Cl27620   5.549   6.103   0.890 -0.2128 -0.2844 -0.0729
  946MOL0     C27621   6.607   5.647   0.701  0.5339 -0.8846  0.0762
  946MOL0     C27622   6.723   5.565   0.683  1.0661 -1.0840 -0.1568
  946MOL0     O27623   6.945   5.439   0.922  0.3274 -0.0294  0.0467
  946MOL0     C27624   7.221   5.460   0.694  0.4367 -0.3606 -0.2133
  946MOL0     C27625   7.333   5.399   0.663 -0.4457  0.0495 -0.8363
  946MOL0     N27626   8.010   5.508   0.896 -0.3906 -0.1706  0.1848
  946MOL0     N27627   8.133   5.495   0.852 -0.7152  0.1805 -0.1769
  946MOL0     C27628   9.391   5.074   1.035 -0.4074  0.6944  0.2319
  946MOL0     C27629   9.493   4.996   1.094  0.0576  0.8183 -0.8677
  946MOL0     C27630   9.734   4.661   1.278  1.2165  0.2701  0.5417
  946MOL0     C27631   9.840   4.636   1.196  0.3368  0.6526 -0.0086
  946MOL0     C27632   9.940   4.545   1.232  0.4927 -0.4097 -1.0173
  946MOL0     C27633   9.934   4.475   1.352 -0.6394  0.3657 -0.0350
  946MOL0     O27634  10.033   4.381   1.390  0.0895  0.4421  0.0150
  946MOL0     C27635  10.142   4.336   1.295 -0.3030  0.2183 -0.6434
  946MOL0     C27636  10.275   4.410   1.332 -0.2196 -0.4423 -0.4383
  946MOL0     C27637  10.381   4.390   1.225  0.1958 -0.2548 -0.5732
  946MOL0     C27638  10.355   4.460   1.094  0.3811  0.4018  0.9364
  946MOL0     C27639  10.387   4.601   1.104 -0.4941 -1.0775  0.1282
  946MOL0     C27640  10.418   4.719   1.110 -0.5734  0.0219  0.2356
  946MOL0     C27641   9.830   4.512   1.442  0.1896  1.3011  1.0520
  946MOL0     C27642   9.731   4.602   1.405 -0.6217  0.2868  0.0986
  946MOL0     H27643   9.497   4.714   0.911 -0.7856  0.8255 -1.6745
  946MOL0     H27644   9.314   4.841   0.796  1.3577  0.2881  0.8281
  946MOL0     H27645   9.069   5.003   0.945 -0.1413  0.2586 -0.1261
  946MOL0     H27646   9.140   5.152   1.024 -0.4874 -1.9053  0.5376
  946MOL0     H27647   9.054   5.283   0.830  0.4558 -0.4298 -0.5171
  946MOL0     H27648   8.999   5.141   0.755  1.5036 -0.5281  0.0776
  946MOL0     H27649   8.830   5.113   0.960 -0.8599 -0.7409 -2.3113
  946MOL0     H27650   8.899   5.263   1.027 -0.6651  2.5791 -2.0780
  946MOL0     H27651   8.822   5.403   0.849 -3.6522  1.0127 -0.5383
  946MOL0     H27652   8.788   5.263   0.750  0.4207  2.3761 -0.9046
  946MOL0     H27653   8.591   5.216   0.912  2.6473 -0.7189  0.7687
  946MOL0     H27654   8.637   5.364   0.992  0.4401  1.5652 -0.4568
  946MOL0     H27655   8.617   5.485   0.759  1.0125 -1.8726 -0.4722
  946MOL0     H27656   8.524   5.353   0.700  0.0541  2.6498 -0.8511
  946MOL0     H27657   8.447   5.506   0.947  1.1313 -5.2109  2.2044
  946MOL0     H27658   8.380   5.527   0.768 -0.1150 -0.5712 -1.1175
  946MOL0     H27659   8.359   5.312   0.985  1.2083  1.4081 -0.0071
  946MOL0     H27660   8.327   5.264   0.819  1.5748  3.2970 -3.8570
  946MOL0     H27661   8.111   5.211   1.015 -2.7167 -1.3791 -2.0491
  946MOL0     H27662   7.844   5.224   1.010  1.1354  0.4943  1.6905
  946MOL0     H27663   7.821   5.358   1.103 -0.4047 -0.2845 -0.4800
  946MOL0     H27664   7.716   5.483   0.919  2.3093 -0.1526  1.0458
  946MOL0     H27665   7.646   5.317   0.944 -0.2937 -1.7791 -2.8336
  946MOL0     H27666   7.799   5.241   0.744  0.1247  1.2666 -0.2910
  946MOL0     H27667   7.828   5.410   0.726  1.6959 -0.3170  1.6225
  946MOL0     H27668   7.651   5.347   0.582  0.7476  2.0086  0.2708
  946MOL0     H27669   7.577   5.451   0.707  1.6269  1.0570 -1.9693
  946MOL0     H27670   7.347   5.150   0.878 -3.4364 -1.8087 -0.9100
  946MOL0     H27671   7.122   5.299   1.072  0.7698  0.3839  0.8033
  946MOL0     H27672   7.032   5.192   0.944  1.2840 -3.7320 -1.2654
  946MOL0     H27673   7.177   5.140   1.022  0.1882  1.0950  1.1577
  946MOL0     H27674   6.919   5.739   0.902 -1.0018 -0.4264  1.9795
  946MOL0     H27675   6.717   5.851   0.944  0.0669  0.5715 -0.6410
  946MOL0     H27676   6.329   5.746   0.705 -0.8194 -3.8871 -0.4377
  946MOL0     H27677   6.370   5.619   0.806 -1.4494 -1.0630 -0.7641
  946MOL0     H27678   6.164   5.674   0.899  1.1296 -1.4173  2.4107
  946MOL0     H27679   6.284   5.752   1.010  1.3875  1.0621 -0.3486
  946MOL0     H27680   6.154   5.887   0.774 -1.8546 -0.5898  0.9844
  946MOL0     H27681   6.254   5.974   0.890  2.2581 -0.7799 -0.1721
  946MOL0     H27682   5.995   5.820   0.958 -1.4245  1.0152  2.7423
  946MOL0     H27683   6.084   5.888   1.076 -0.2281 -1.0215 -0.2870
  946MOL0     H27684   5.948   6.016   0.848  2.0391 -2.9022  0.1168
  946MOL0     H27685   6.060   6.119   0.945  0.9419 -1.3223  1.4160
  946MOL0     H27686   5.815   5.958   1.044  2.9957 -2.3880  2.2279
  946MOL0     H27687   5.918   6.051   1.147 -0.5619  2.6966  0.2355
  946MOL0     H27688   5.846   6.256   1.061  1.6890 -0.3801 -1.2109
  946MOL0     H27689   5.706   6.179   1.109 -0.4587 -0.6044  0.7705
  946MOL0     H27690   5.777   6.166   0.806  0.6717 -2.5311  0.9145
  946MOL0     H27691   5.694   6.295   0.878  0.8228  0.8386  1.0013
  946MOL0     H27692   6.525   5.619   0.636  0.9138  0.5851 -1.0978
  946MOL0     H27693   6.727   5.476   0.620  4.1905 -0.9789 -0.2541
  946MOL0     H27694   7.186   5.555   0.655 -0.4302 -0.1413  1.0537
  946MOL0     H27695   7.398   5.440   0.586  1.0790 -0.7953 -0.0560
  946MOL0     H27696   9.363   5.173   1.069 -1.0365  0.1854  1.2575
  946MOL0     H27697   9.538   5.029   1.187  2.1490 -0.1736 -1.4642
  946MOL0     H27698   9.853   4.671   1.094  1.0199 -2.7160 -1.1887
  946MOL0     H27699  10.025   4.532   1.166 -0.2099 -2.1578 -1.6422
  946MOL0     H27700  10.159   4.230   1.317 -0.5713  0.5740  1.4898
  946MOL0     H27701  10.121   4.353   1.189 -2.2169  1.6396 -0.1072
  946MOL0     H27702  10.318   4.368   1.423 -0.1760 -2.9442 -1.5176
  946MOL0     H27703  10.265   4.518   1.342 -1.9557 -0.7606  2.2187
  946MOL0     H27704  10.405   4.284   1.217  0.0413 -0.3578  0.2207
  946MOL0     H27705  10.470   4.440   1.266 -0.6680  0.8758 -0.0024
  946MOL0     H27706  10.257   4.436   1.051  1.6976 -2.2879 -0.8112
  946MOL0     H27707  10.425   4.431   1.015 -0.6607  1.4714 -0.4472
  946MOL0     H27708  10.458   4.818   1.110 -0.9473  0.2520 -2.4603
  946MOL0     H27709   9.809   4.479   1.543 -2.3231  1.0383  0.5036
  946MOL0     H27710   9.660   4.630   1.482  0.0873 -1.6680  1.5503
  947MOL0     O27711   2.181   1.469   1.349  0.1564 -0.2328  0.1849
  947MOL0     C27712   2.149   1.363   1.396  0.2047  0.0286  0.0322
  947MOL0     O27713   2.022   1.311   1.392 -0.2840 -0.1009 -0.7093
  947MOL0     C27714   1.917   1.396   1.358  0.3701  0.1424 -0.8351
  947MOL0     C27715   1.821   1.451   1.453 -0.1542 -0.2347  0.0511
  947MOL0     C27716   1.725   1.541   1.418 -0.0900 -0.2189 -0.0317
  947MOL0     C27717   1.709   1.569   1.280  0.2615 -0.5069  0.7032
  947MOL0     O27718   1.606   1.649   1.242 -0.8587 -1.0801  0.5491
  947MOL0     C27719   1.664   1.756   1.165 -0.1039 -0.3705  0.2689
  947MOL0     C27720   1.559   1.847   1.105 -0.3722  0.3259  0.4505
  947MOL0     C27721   1.453   1.774   1.019 -0.1351  0.3874 -0.2110
  947MOL0     C27722   1.335   1.709   1.094 -0.0886 -0.1259  0.1002
  947MOL0     C27723   1.214   1.654   1.016 -0.6628  0.2975  0.4725
  947MOL0     C27724   1.244   1.555   0.902 -0.2981 -0.6695 -0.0271
  947MOL0     C27725   1.280   1.416   0.957 -0.1258  0.0365 -0.4126
  947MOL0     C27726   1.438   1.401   0.950  0.1560 -0.4410 -0.0196
  947MOL0     N27727   1.506   1.435   0.819  0.5836  1.2546 -1.1246
  947MOL0     C27728   1.439   1.402   0.700 -0.8197 -0.2461  1.0768
  947MOL0     C27729   1.536   1.445   0.607 -0.5908 -0.5011 -0.0991
  947MOL0     C27730   1.536   1.442   0.455 -0.4373 -0.4106  0.1387
  947MOL0     C27731   1.411   1.492   0.373 -0.2979  0.3441 -0.3080
  947MOL0     C27732   1.342   1.609   0.444  0.0430  0.1037  0.3167
  947MOL0     C27733   1.201   1.572   0.488  0.6915 -0.4896 -0.0077
  947MOL0     O27734   1.126   1.565   0.371  0.4573  0.9290  0.6795
  947MOL0     C27735   0.989   1.553   0.366 -0.6513 -0.1614  1.3235
  947MOL0     C27736   0.931   1.569   0.235 -0.5833  0.2652 -0.6437
  947MOL0     C27737   0.792   1.557   0.220 -0.1208 -0.4880 -0.6763
  947MOL0     C27738   0.740   1.569   0.083  0.3539 -0.2189  0.4836
  947MOL0     C27739   0.706   1.530   0.333  0.0350 -0.0302  0.2801
  947MOL0     C27740   0.559   1.527   0.330 -0.3918 -0.5174 -0.2824
  947MOL0     O27741   0.499   1.534   0.452  0.6449 -0.6926  0.5611
  947MOL0     C27742   0.362   1.574   0.462  0.1974  0.5333  0.2539
  947MOL0     C27743   0.270   1.483   0.515 -1.0180 -0.2841  0.4034
  947MOL0     C27744   0.142   1.513   0.542 -0.6364  0.6582  0.0549
  947MOL0     C27745   0.087   1.636   0.497 -0.3903  0.2997 -1.6225
  947MOL0     O27746  -0.044   1.681   0.529 -0.2635  0.7209 -0.1412
  947MOL0     C27747  -0.135   1.578   0.495  0.1945  0.3695  0.1491
  947MOL0     C27748  -0.243   1.622   0.391 -0.2314  0.1088 -0.8603
  947MOL0     C27749  -0.327   1.732   0.455  0.1401 -0.0083  0.7825
  947MOL0     C27750  -0.284   1.873   0.393  0.1179  0.3454  0.5425
  947MOL0     C27751  -0.334   1.984   0.487 -0.4345 -0.4075 -0.6111
  947MOL0     C27752  -0.490   1.994   0.472  0.6881  0.0292  0.3768
  947MOL0     C27753  -0.548   2.111   0.546  0.6669 -0.1385  0.7532
  947MOL0     C27754  -0.705   2.110   0.548 -0.0635  0.3027  0.3796
  947MOL0    Cl27755  -0.758   2.096   0.364 -0.2807 -0.4647  0.0131
  947MOL0     C27756   0.176   1.731   0.441  0.6034  0.5736 -0.1052
  947MOL0     C27757   0.311   1.699   0.427  0.0948 -1.4805  0.2262
  947MOL0     O27758   0.498   1.528   0.220 -0.3452 -0.4366 -0.3324
  947MOL0     C27759   0.768   1.509   0.454 -0.1321 -0.6266  0.0755
  947MOL0     C27760   0.913   1.518   0.474  0.9445  0.2021  0.3595
  947MOL0     N27761   1.640   1.506   0.682  0.6654 -0.3337  0.2169
  947MOL0     N27762   1.625   1.497   0.806 -0.1417 -0.9540 -0.2031
  947MOL0     C27763   1.777   1.495   1.188  0.5417 -0.6745  0.4333
  947MOL0     C27764   1.887   1.425   1.225  0.3049  0.5338  0.6425
  947MOL0     C27765   2.252   1.282   1.461 -0.3215  0.3702 -0.3457
  947MOL0     C27766   2.386   1.278   1.428  0.6414  0.1184  0.0850
  947MOL0     C27767   2.481   1.196   1.501 -0.0947  0.0548 -0.4690
  947MOL0     C27768   2.442   1.127   1.615  0.3903  0.2209 -0.4328
  947MOL0     O27769   2.524   1.045   1.694  0.6885  0.2846 -0.2878
  947MOL0     C27770   2.599   1.117   1.793 -0.0965 -0.5786 -0.0966
  947MOL0     C27771   2.554   1.064   1.935  0.2786 -0.0233 -0.0326
  947MOL0     C27772   2.588   0.912   1.949 -0.7195  0.7053 -0.4656
  947MOL0     C27773   2.722   0.886   2.014 -0.0282 -0.8084  0.1677
  947MOL0     C27774   2.717   0.875   2.156 -0.2074 -0.8671 -0.7583
  947MOL0     C27775   2.723   0.864   2.277  0.4026 -0.3239 -0.7885
  947MOL0     C27776   2.305   1.133   1.649  1.2429 -0.6087  0.3117
  947MOL0     C27777   2.210   1.210   1.573  0.3749 -0.3475 -0.9673
  947MOL0     H27778   1.835   1.438   1.560  2.5447  1.3597 -0.0259
  947MOL0     H27779   1.679   1.585   1.505 -0.1054  0.6837 -0.4837
  947MOL0     H27780   1.730   1.814   1.230 -0.2257 -0.5416  0.5469
  947MOL0     H27781   1.730   1.718   1.086  1.3755  3.2248 -0.4643
  947MOL0     H27782   1.515   1.905   1.187  0.6620 -0.7570  1.8091
  947MOL0     H27783   1.603   1.918   1.034 -2.5797  1.1874 -0.1484
  947MOL0     H27784   1.415   1.844   0.945 -2.1473 -0.0120  0.3855
  947MOL0     H27785   1.506   1.690   0.973 -0.8101 -0.5340  0.6492
  947MOL0     H27786   1.372   1.629   1.160  2.0192 -0.7856 -1.7323
  947MOL0     H27787   1.297   1.793   1.153 -1.5390  0.5130 -1.6767
  947MOL0     H27788   1.138   1.612   1.082 -1.3224 -1.1087 -1.1019
  947MOL0     H27789   1.165   1.745   0.981 -0.3313  0.1622 -0.3645
  947MOL0     H27790   1.164   1.546   0.828  0.2198  0.5479 -0.7595
  947MOL0     H27791   1.325   1.597   0.841 -0.0036 -0.4048  0.5428
  947MOL0     H27792   1.247   1.403   1.061  0.7104  2.4284  0.2336
  947MOL0     H27793   1.233   1.348   0.886 -3.0520  4.7447 -3.5656
  947MOL0     H27794   1.464   1.299   0.981 -0.3859 -0.6173 -0.1383
  947MOL0     H27795   1.490   1.462   1.024  0.3527  1.4684 -1.6502
  947MOL0     H27796   1.339   1.368   0.677 -1.4815  1.2138  1.6397
  947MOL0     H27797   1.615   1.515   0.437 -1.7861  1.6177  1.8611
  947MOL0     H27798   1.569   1.348   0.412  1.2567 -1.2556  3.0381
  947MOL0     H27799   1.336   1.412   0.367 -1.4562  1.4171 -0.5576
  947MOL0     H27800   1.448   1.532   0.278  0.1175 -2.0174 -1.2124
  947MOL0     H27801   1.334   1.688   0.369 -3.3499 -1.2303 -0.9314
  947MOL0     H27802   1.402   1.648   0.527  0.8831  0.5554 -0.4910
  947MOL0     H27803   1.168   1.646   0.561 -0.2100 -1.5096  0.6364
  947MOL0     H27804   1.203   1.476   0.539  1.8711 -0.1818  0.5647
  947MOL0     H27805   0.991   1.592   0.147 -2.6509  1.7512 -1.7553
  947MOL0     H27806   0.828   1.549   0.020 -0.1084  0.2638 -0.3415
  947MOL0     H27807   0.662   1.497   0.059  0.9130 -1.3579  1.9242
  947MOL0     H27808   0.703   1.671   0.065  0.3549 -0.5002 -1.2815
  947MOL0     H27809   0.313   1.385   0.532  3.5720  1.6590  1.6165
  947MOL0     H27810   0.085   1.431   0.585 -2.6784  1.4671 -0.9801
  947MOL0     H27811  -0.084   1.491   0.454  1.9374 -0.6784  4.1095
  947MOL0     H27812  -0.180   1.541   0.587 -2.7305 -3.4684 -2.4968
  947MOL0     H27813  -0.184   1.670   0.312 -0.4462  1.2737 -0.3400
  947MOL0     H27814  -0.301   1.541   0.346 -0.1388 -0.7707  0.5654
  947MOL0     H27815  -0.316   1.740   0.563  2.6581 -0.8007  0.6594
  947MOL0     H27816  -0.430   1.704   0.432  0.5645 -0.0926 -1.2674
  947MOL0     H27817  -0.175   1.874   0.396  0.1084  0.0869  1.6048
  947MOL0     H27818  -0.320   1.892   0.292 -0.7763 -0.0417  0.7754
  947MOL0     H27819  -0.295   2.081   0.454 -0.0675 -1.3015 -2.9839
  947MOL0     H27820  -0.304   1.967   0.591 -0.7358 -0.6020 -0.5567
  947MOL0     H27821  -0.516   2.006   0.367 -1.2509  2.9779  1.0679
  947MOL0     H27822  -0.539   1.900   0.497 -0.5090  0.1581 -1.3389
  947MOL0     H27823  -0.509   2.203   0.503 -0.2289 -0.3416 -0.5335
  947MOL0     H27824  -0.522   2.105   0.653  0.3724 -1.8605  0.7522
  947MOL0     H27825  -0.744   2.208   0.577 -1.6951 -0.0447 -0.5356
  947MOL0     H27826  -0.758   2.030   0.600 -0.1461  0.0369 -0.1059
  947MOL0     H27827   0.144   1.833   0.424  0.1984  0.8136  1.9224
  947MOL0     H27828   0.384   1.765   0.381 -2.2554 -0.6992 -2.6562
  947MOL0     H27829   0.714   1.485   0.546 -0.2716 -2.1760 -0.3768
  947MOL0     H27830   0.949   1.500   0.575 -0.1889 -5.0792  0.1185
  947MOL0     H27831   1.742   1.502   1.086 -2.7003 -1.6256  1.3275
  947MOL0     H27832   1.945   1.372   1.150  1.0408  1.5134  0.4948
  947MOL0     H27833   2.427   1.339   1.348  0.2848  0.4933  0.1821
  947MOL0     H27834   2.584   1.185   1.467  1.0669 -0.7346  2.9009
  947MOL0     H27835   2.706   1.100   1.774  0.4238 -0.7218  2.5651
  947MOL0     H27836   2.591   1.225   1.783  1.7892 -0.2036  1.6871
  947MOL0     H27837   2.446   1.081   1.939  0.4089  2.7366 -3.4805
  947MOL0     H27838   2.604   1.119   2.015  3.8051 -0.0036 -2.0660
  947MOL0     H27839   2.585   0.853   1.857  2.3520 -3.8056  1.9024
  947MOL0     H27840   2.504   0.867   2.004 -1.5873  3.1985  0.3665
  947MOL0     H27841   2.797   0.965   1.998 -0.6290 -0.5328 -1.5614
  947MOL0     H27842   2.755   0.790   1.974 -1.3594 -2.1574  2.1665
  947MOL0     H27843   2.758   0.874   2.377 -0.7597  1.6168 -0.5399
  947MOL0     H27844   2.266   1.091   1.741  1.0315  2.7690  1.9312
  947MOL0     H27845   2.108   1.203   1.609  0.7986 -0.5824  0.2458
  948MOL0     O27846   7.522   1.895   6.712 -0.0656 -0.4481 -0.4462
  948MOL0     C27847   7.551   1.995   6.780  0.1944  0.7444 -0.6201
  948MOL0     O27848   7.473   2.056   6.868  0.8303  0.2129 -0.0322
  948MOL0     C27849   7.335   2.031   6.896  0.2447  0.6676  1.1022
  948MOL0     C27850   7.249   1.985   6.789  0.5773  0.1363 -0.8030
  948MOL0     C27851   7.115   1.949   6.820  0.0729 -0.0561  0.1370
  948MOL0     C27852   7.061   1.959   6.947 -0.6267  0.1227  0.7059
  948MOL0     O27853   6.925   1.938   6.958 -0.2669  0.3394  0.4227
  948MOL0     C27854   6.832   2.022   6.892 -1.0960 -0.3141 -0.0603
  948MOL0     C27855   6.699   2.038   6.970  0.3392 -1.0037 -0.6817
  948MOL0     C27856   6.643   1.906   7.020 -0.0599 -0.7278  0.4859
  948MOL0     C27857   6.518   1.932   7.105  0.7435  0.7171 -0.7592
  948MOL0     C27858   6.421   1.803   7.116 -0.5417  0.6255 -1.0385
  948MOL0     C27859   6.319   1.803   7.001 -0.9235  0.0738 -0.0161
  948MOL0     C27860   6.227   1.679   7.011  0.7619  0.3165  0.1323
  948MOL0     C27861   6.132   1.664   6.894 -0.1263 -0.3291  0.4453
  948MOL0     N27862   6.019   1.760   6.907 -0.4989 -0.2600  0.4201
  948MOL0     C27863   5.990   1.856   6.810 -0.3251 -0.2785 -0.4620
  948MOL0     C27864   5.874   1.918   6.852 -0.2967 -0.0462 -0.2939
  948MOL0     C27865   5.794   2.035   6.802 -0.0285 -0.1066  0.2143
  948MOL0     C27866   5.811   2.155   6.897 -0.5867  0.1875  0.0534
  948MOL0     C27867   5.721   2.266   6.850 -0.5776 -1.1411  0.0734
  948MOL0     C27868   5.733   2.380   6.944 -0.3956 -0.3458  0.5264
  948MOL0     O27869   5.651   2.335   7.056  0.1031 -0.5339 -0.5064
  948MOL0     C27870   5.518   2.365   7.083  0.1622 -0.1492  0.8053
  948MOL0     C27871   5.442   2.456   7.015 -0.6749  0.4755 -0.3440
  948MOL0     C27872   5.313   2.472   7.048  0.1115  0.7015 -0.1813
  948MOL0     C27873   5.228   2.559   6.958  0.5267 -0.1262  0.1431
  948MOL0     C27874   5.262   2.409   7.162 -0.3842  0.1689  0.8136
  948MOL0     C27875   5.122   2.428   7.216  0.0943 -0.3289  1.0775
  948MOL0     O27876   5.098   2.439   7.352 -0.5553  0.2625  0.4325
  948MOL0     C27877   4.968   2.472   7.381  0.3888 -0.6357 -0.2120
  948MOL0     C27878   4.899   2.584   7.332 -1.1355 -0.1583  0.1743
  948MOL0     C27879   4.768   2.611   7.370  0.8123  0.6146 -0.6445
  948MOL0     C27880   4.707   2.533   7.478 -0.2905  0.0899  0.2195
  948MOL0     O27881   4.585   2.553   7.528  0.4770 -0.2199  0.7748
  948MOL0     C27882   4.500   2.662   7.473 -0.7423 -0.0291  0.5203
  948MOL0     C27883   4.359   2.678   7.515 -0.4663 -0.1132  0.2992
  948MOL0     C27884   4.357   2.657   7.663 -0.2844  0.0726  0.0251
  948MOL0     C27885   4.248   2.745   7.729  0.0020  0.1738  0.5484
  948MOL0     C27886   4.261   2.734   7.889 -0.4805 -0.4520 -0.2584
  948MOL0     C27887   4.158   2.813   7.970  0.6621 -0.5935 -0.7417
  948MOL0     C27888   4.017   2.795   7.918  0.3369  0.5145 -0.0666
  948MOL0     C27889   3.908   2.850   8.009  0.2919 -0.3471  0.2332
  948MOL0    Cl27890   3.901   2.756   8.160 -0.2352  0.3195 -0.0880
  948MOL0     C27891   4.782   2.432   7.537  0.1464  0.3574  0.2812
  948MOL0     C27892   4.904   2.399   7.482 -0.2560  0.8616 -0.5254
  948MOL0     O27893   5.031   2.442   7.130 -0.1168 -0.6530 -0.1753
  948MOL0     C27894   5.343   2.332   7.243  0.1300  0.2849  0.4798
  948MOL0     C27895   5.467   2.297   7.194 -0.1051 -0.0900  0.4080
  948MOL0     N27896   5.842   1.863   6.974 -0.0795  0.3064  0.2932
  948MOL0     N27897   5.926   1.776   7.004 -0.7385 -0.3967  0.2841
  948MOL0     C27898   7.135   2.014   7.043 -0.0508  0.1289 -0.0904
  948MOL0     C27899   7.272   2.046   7.021 -0.3829  0.0240  0.4677
  948MOL0     C27900   7.677   2.062   6.760 -0.5203  0.3582 -0.8076
  948MOL0     C27901   7.733   2.143   6.856  0.0511 -0.6172  0.0855
  948MOL0     C27902   7.855   2.206   6.832  0.6893 -0.2041  0.0029
  948MOL0     C27903   7.915   2.196   6.711 -0.1688  0.0254 -0.3739
  948MOL0     O27904   8.019   2.277   6.678 -0.1154 -0.1063  0.0143
  948MOL0     C27905   8.111   2.318   6.785 -0.4091 -0.2285 -0.7123
  948MOL0     C27906   8.260   2.301   6.735 -0.2609 -0.1360 -0.9768
  948MOL0     C27907   8.299   2.406   6.635  0.0045 -0.2975 -0.3232
  948MOL0     C27908   8.273   2.554   6.668  1.1575 -0.2974  0.7051
  948MOL0     C27909   8.343   2.603   6.787 -0.5827 -0.4754  0.2864
  948MOL0     C27910   8.392   2.634   6.899 -0.2617  0.2618 -0.2040
  948MOL0     C27911   7.861   2.107   6.617 -0.4201 -0.4019 -0.1031
  948MOL0     C27912   7.741   2.041   6.639 -0.1539 -0.0619  0.2980
  948MOL0     H27913   7.288   1.964   6.689  1.5614 -0.4148 -0.3258
  948MOL0     H27914   7.061   1.919   6.731  1.6170  0.3896 -0.9971
  948MOL0     H27915   6.864   2.126   6.878 -1.9556  0.1068  0.9566
  948MOL0     H27916   6.827   1.981   6.791 -0.6472 -2.0577  0.5886
  948MOL0     H27917   6.717   2.098   7.060 -3.9720  1.4471 -1.1834
  948MOL0     H27918   6.634   2.093   6.901  3.3545 -0.3321 -3.2257
  948MOL0     H27919   6.627   1.844   6.932  0.4890  2.0651 -1.7461
  948MOL0     H27920   6.712   1.848   7.081 -0.0318  0.4388  1.6081
  948MOL0     H27921   6.548   1.961   7.206  0.3523  0.5466 -0.5913
  948MOL0     H27922   6.457   2.011   7.060 -0.4329 -1.5056 -3.4241
  948MOL0     H27923   6.473   1.709   7.134 -0.8904  0.9986  2.5966
  948MOL0     H27924   6.360   1.808   7.207  1.6778  1.4573  0.4873
  948MOL0     H27925   6.267   1.899   7.009 -0.6672  0.1128  1.5912
  948MOL0     H27926   6.373   1.798   6.907  0.1124  0.4678  0.5452
  948MOL0     H27927   6.291   1.590   7.010 -2.0178 -1.8559 -1.7411
  948MOL0     H27928   6.169   1.683   7.104 -1.0464  1.2392 -0.9930
  948MOL0     H27929   6.102   1.559   6.899 -0.1432 -0.3300  0.3305
  948MOL0     H27930   6.175   1.680   6.795  2.7775  3.0606  2.0305
  948MOL0     H27931   6.039   1.876   6.715 -1.5954 -0.7099 -1.2363
  948MOL0     H27932   5.833   2.062   6.704  1.4225  1.0535  1.0843
  948MOL0     H27933   5.689   2.008   6.786  0.1257  1.0098 -3.5477
  948MOL0     H27934   5.914   2.190   6.893 -1.3541  2.4381 -1.2241
  948MOL0     H27935   5.790   2.125   7.001  1.4794  0.3376  0.5559
  948MOL0     H27936   5.616   2.234   6.846 -1.9075  2.4926  1.0371
  948MOL0     H27937   5.756   2.301   6.752  0.2710 -0.5263  0.5809
  948MOL0     H27938   5.685   2.468   6.900  0.0142 -0.4050 -0.0392
  948MOL0     H27939   5.838   2.407   6.954 -0.0260 -0.3951 -2.5458
  948MOL0     H27940   5.478   2.509   6.927  1.3338 -1.6144 -0.8783
  948MOL0     H27941   5.175   2.638   7.013  1.2157  0.1688  0.3886
  948MOL0     H27942   5.298   2.601   6.886  1.5461 -3.1446 -0.7576
  948MOL0     H27943   5.153   2.504   6.900  0.1173 -1.5277  1.9044
  948MOL0     H27944   4.942   2.636   7.246 -1.9288 -2.1218 -1.4970
  948MOL0     H27945   4.705   2.688   7.326 -2.6192 -0.3823  2.0643
  948MOL0     H27946   4.556   2.755   7.491 -0.7234 -0.1142  0.9136
  948MOL0     H27947   4.497   2.644   7.365  1.6003  0.9558  0.2296
  948MOL0     H27948   4.328   2.782   7.498  3.6802  1.0032 -1.5154
  948MOL0     H27949   4.295   2.611   7.457 -0.3012  0.1556 -0.2021
  948MOL0     H27950   4.450   2.666   7.720 -0.6231 -1.8922  0.9782
  948MOL0     H27951   4.333   2.552   7.681 -2.1886  0.4586 -0.0516
  948MOL0     H27952   4.242   2.849   7.696 -0.1185 -0.1359 -0.4263
  948MOL0     H27953   4.151   2.700   7.707 -0.1584  0.7115  0.1392
  948MOL0     H27954   4.360   2.766   7.924 -0.0753 -3.4038  1.7121
  948MOL0     H27955   4.251   2.629   7.919  3.0023 -0.5021  1.3116
  948MOL0     H27956   4.150   2.778   8.073 -1.5099  2.8891  0.4560
  948MOL0     H27957   4.184   2.919   7.976 -0.6304 -0.1951 -1.7073
  948MOL0     H27958   4.001   2.691   7.888  1.6568 -0.1369  1.3671
  948MOL0     H27959   4.014   2.856   7.827 -3.5417  0.9911  0.2002
  948MOL0     H27960   3.808   2.846   7.967  0.0579 -0.6828  0.8070
  948MOL0     H27961   3.928   2.957   8.025  3.8476 -0.8266 -0.1694
  948MOL0     H27962   4.734   2.382   7.621 -0.0136 -1.4223 -0.8207
  948MOL0     H27963   4.973   2.323   7.516 -0.7260  1.0902  1.0205
  948MOL0     H27964   5.300   2.306   7.339  0.8207 -2.0175  0.2096
  948MOL0     H27965   5.521   2.221   7.250 -3.5882 -1.1421  2.7070
  948MOL0     H27966   7.086   2.048   7.134  1.0371  1.3214  0.0856
  948MOL0     H27967   7.325   2.091   7.104 -0.7521  1.7409 -0.1865
  948MOL0     H27968   7.675   2.175   6.943  1.0587  2.0299 -0.1328
  948MOL0     H27969   7.894   2.275   6.905  4.0286 -0.4407 -1.3982
  948MOL0     H27970   8.092   2.417   6.827  1.2284 -0.5963  1.0488
  948MOL0     H27971   8.100   2.254   6.873  0.5608 -0.0345 -0.4399
  948MOL0     H27972   8.259   2.195   6.707 -1.3965 -0.4448  0.1238
  948MOL0     H27973   8.327   2.301   6.821 -1.9092 -1.6425  0.3905
  948MOL0     H27974   8.249   2.374   6.543 -0.4009 -0.4429 -0.0527
  948MOL0     H27975   8.407   2.395   6.619  0.3317  2.3056 -0.2155
  948MOL0     H27976   8.166   2.564   6.683  0.7508  0.3494 -2.0655
  948MOL0     H27977   8.301   2.605   6.575 -1.7610 -0.0689 -0.1256
  948MOL0     H27978   8.436   2.646   6.996  0.3364 -0.9777 -0.3105
  948MOL0     H27979   7.908   2.084   6.522  0.3837  0.3484  0.0993
  948MOL0     H27980   7.702   1.975   6.562  0.3389 -1.4163  1.1673
  949MOL0     O27981   3.400   2.241   1.486  0.1519 -0.6304  0.7336
  949MOL0     C27982   3.384   2.341   1.409 -0.1577 -0.5999  0.1428
  949MOL0     O27983   3.276   2.347   1.321 -0.3660 -0.0496  0.0960
  949MOL0     C27984   3.163   2.271   1.327  0.3318  0.0498 -0.0542
  949MOL0     C27985   3.094   2.250   1.211 -0.2341 -0.0309  0.2712
  949MOL0     C27986   2.986   2.167   1.205 -0.4115 -0.1587 -0.2934
  949MOL0     C27987   2.940   2.113   1.324  0.2451 -0.1187 -0.2325
  949MOL0     O27988   2.832   2.025   1.318  0.3024 -0.6061 -0.3103
  949MOL0     C27989   2.727   2.030   1.423 -0.5361  0.1779  0.4840
  949MOL0     C27990   2.588   2.009   1.367 -0.3650 -0.3318  0.1175
  949MOL0     C27991   2.476   2.078   1.448 -0.2138  0.3248  0.3254
  949MOL0     C27992   2.351   2.067   1.359 -0.4155  0.5485 -0.1069
  949MOL0     C27993   2.232   2.134   1.416  0.6893  0.3244  0.3579
  949MOL0     C27994   2.243   2.282   1.415  0.7708 -0.8475 -0.2212
  949MOL0     C27995   2.142   2.368   1.491  0.6563  0.0545 -0.6967
  949MOL0     C27996   2.024   2.394   1.404  1.1409 -0.4132  0.0565
  949MOL0     N27997   1.897   2.458   1.469 -0.1365 -0.4556 -0.3437
  949MOL0     C27998   1.874   2.466   1.601 -0.2651  0.5049  0.6431
  949MOL0     C27999   1.772   2.544   1.610  0.5143 -0.5195 -0.2738
  949MOL0     C28000   1.699   2.571   1.738  0.0259  0.3261 -0.4366
  949MOL0     C28001   1.572   2.482   1.747  0.8635  0.2382  0.7267
  949MOL0     C28002   1.452   2.530   1.663  0.1058  1.1662 -0.8369
  949MOL0     C28003   1.424   2.681   1.662 -0.4545 -0.6756 -0.0067
  949MOL0     O28004   1.302   2.715   1.592 -0.0103 -0.5862 -0.4337
  949MOL0     C28005   1.313   2.749   1.453 -0.3365  0.0721 -0.6255
  949MOL0     C28006   1.428   2.732   1.382 -0.4816 -0.0880 -0.3418
  949MOL0     C28007   1.451   2.772   1.247  0.0789  0.4584 -0.7859
  949MOL0     C28008   1.576   2.741   1.173 -0.4092 -0.0650 -0.4360
  949MOL0     C28009   1.348   2.848   1.188 -0.3272  0.6605 -0.1022
  949MOL0     C28010   1.353   2.891   1.050  0.2597  0.3132 -0.5931
  949MOL0     O28011   1.401   3.019   1.040 -0.2842  0.2400  0.3133
  949MOL0     C28012   1.391   3.098   0.926  0.0552 -0.5125 -0.1129
  949MOL0     C28013   1.286   3.098   0.832  0.0817  0.0187 -0.4339
  949MOL0     C28014   1.274   3.207   0.740  0.3555  0.1436 -0.1649
  949MOL0     C28015   1.369   3.306   0.730 -0.4084 -0.6338 -0.0303
  949MOL0     O28016   1.365   3.418   0.641  0.6302  0.8240 -0.2167
  949MOL0     C28017   1.250   3.494   0.651  0.0980 -0.1354 -0.2669
  949MOL0     C28018   1.284   3.642   0.699 -0.0215 -0.0412  0.8437
  949MOL0     C28019   1.424   3.686   0.650 -0.7999  0.5680 -0.8986
  949MOL0     C28020   1.469   3.820   0.699 -1.0123  0.6318  0.1111
  949MOL0     C28021   1.617   3.842   0.653  0.2517 -0.3363 -0.0396
  949MOL0     C28022   1.662   3.990   0.708 -0.5332  0.6432  0.3077
  949MOL0     C28023   1.814   4.009   0.675 -0.5486  0.6495 -0.4858
  949MOL0     C28024   1.867   4.127   0.751 -0.1727 -0.6466  0.1468
  949MOL0    Cl28025   1.790   4.290   0.696  0.0472  0.2953  0.2502
  949MOL0     C28026   1.478   3.308   0.818  0.1833 -0.1536 -0.1327
  949MOL0     C28027   1.486   3.199   0.915 -0.0177 -0.7344 -0.4586
  949MOL0     O28028   1.322   2.806   0.963  0.4617 -0.5294 -0.0376
  949MOL0     C28029   1.232   2.866   1.260 -0.4147 -0.4964  0.0356
  949MOL0     C28030   1.211   2.823   1.389  0.3509 -0.1841  0.0934
  949MOL0     N28031   1.746   2.593   1.485 -0.4531 -0.1403 -0.2364
  949MOL0     N28032   1.809   2.532   1.391 -0.1657  0.3844 -0.1216
  949MOL0     C28033   2.988   2.152   1.452 -0.1752 -0.2597  0.1329
  949MOL0     C28034   3.106   2.228   1.449  0.0774  0.2242 -0.3170
  949MOL0     C28035   3.486   2.446   1.404 -0.3170 -0.3984  0.3740
  949MOL0     C28036   3.451   2.570   1.366  0.0731  0.1730 -0.0536
  949MOL0     C28037   3.543   2.680   1.368 -0.7540  0.0870  0.6491
  949MOL0     C28038   3.685   2.655   1.396 -0.6027  0.1654 -0.3537
  949MOL0     O28039   3.781   2.747   1.374 -0.1219  0.3651 -0.1688
  949MOL0     C28040   3.898   2.751   1.453 -0.0619  0.0488 -0.5939
  949MOL0     C28041   4.006   2.834   1.369  0.0280 -0.6578  0.1098
  949MOL0     C28042   4.057   2.753   1.250  0.3725  1.0781  0.4532
  949MOL0     C28043   4.082   2.839   1.130  0.3804 -0.4549  0.3229
  949MOL0     C28044   4.135   2.767   1.011  0.7327  0.0250 -0.5115
  949MOL0     C28045   4.178   2.721   0.907 -0.8931  0.4499 -0.0902
  949MOL0     C28046   3.710   2.522   1.431 -0.5777 -1.1381  0.3605
  949MOL0     C28047   3.618   2.417   1.427  0.2903  0.1045 -0.0951
  949MOL0     H28048   3.123   2.290   1.114 -4.4149 -0.3209 -1.3025
  949MOL0     H28049   2.929   2.138   1.118 -0.9023  0.7560 -0.2881
  949MOL0     H28050   2.743   1.954   1.500  0.0419 -0.1744  0.0199
  949MOL0     H28051   2.725   2.125   1.478 -0.7130 -0.2404  1.2178
  949MOL0     H28052   2.577   2.047   1.265 -0.4644  1.4140  0.7447
  949MOL0     H28053   2.567   1.902   1.368 -0.4193 -0.3737 -1.8805
  949MOL0     H28054   2.465   2.012   1.534  0.6076 -0.3210 -0.0468
  949MOL0     H28055   2.488   2.181   1.485  2.7625 -0.1828  1.0422
  949MOL0     H28056   2.356   2.118   1.262  0.2508 -0.4113 -0.6056
  949MOL0     H28057   2.340   1.962   1.329  3.4165  0.4786 -1.9464
  949MOL0     H28058   2.143   2.109   1.359  0.1897  0.6670  0.9777
  949MOL0     H28059   2.218   2.093   1.517  1.5851  0.1922  0.4399
  949MOL0     H28060   2.338   2.302   1.465 -0.8722 -2.0116  3.7572
  949MOL0     H28061   2.244   2.314   1.310 -0.9847  1.5825  0.4195
  949MOL0     H28062   2.120   2.311   1.582  0.0467 -0.8947 -1.4293
  949MOL0     H28063   2.189   2.458   1.534  0.8559 -0.2241 -0.3241
  949MOL0     H28064   1.990   2.298   1.365  1.5158  0.0067 -1.3351
  949MOL0     H28065   2.043   2.462   1.321 -1.5443 -0.5988 -0.8056
  949MOL0     H28066   1.919   2.411   1.684 -0.5625  0.3140  0.6776
  949MOL0     H28067   1.762   2.537   1.820 -1.6531 -0.8038  0.4293
  949MOL0     H28068   1.677   2.674   1.769  0.0029 -0.5124  2.5854
  949MOL0     H28069   1.542   2.465   1.851 -1.3975  0.9769  0.2542
  949MOL0     H28070   1.592   2.381   1.711  2.4769  0.9878 -0.5937
  949MOL0     H28071   1.359   2.491   1.704  1.5260 -0.0349  1.4189
  949MOL0     H28072   1.452   2.486   1.563  0.3186 -0.8774  0.0118
  949MOL0     H28073   1.506   2.748   1.636 -1.4057  1.2757  1.6862
  949MOL0     H28074   1.392   2.706   1.764 -0.5843  1.6719 -0.5799
  949MOL0     H28075   1.518   2.688   1.422  0.0652 -0.2415 -1.6917
  949MOL0     H28076   1.638   2.674   1.235  2.1657  1.1066 -1.6038
  949MOL0     H28077   1.555   2.683   1.083 -1.2683 -2.2225  1.0565
  949MOL0     H28078   1.628   2.834   1.149  1.8995 -1.2119 -0.2018
  949MOL0     H28079   1.218   3.013   0.830 -0.6140  0.5732 -0.8168
  949MOL0     H28080   1.194   3.204   0.668 -0.1049 -1.8705  0.3586
  949MOL0     H28081   1.196   3.492   0.556 -1.0383 -1.0611  0.3676
  949MOL0     H28082   1.179   3.449   0.722  0.1564  0.1652 -0.0153
  949MOL0     H28083   1.207   3.711   0.663  0.8707  1.4058  1.6654
  949MOL0     H28084   1.286   3.649   0.808 -0.7795  3.1150  0.7385
  949MOL0     H28085   1.429   3.684   0.541  1.3573 -2.1283 -0.8546
  949MOL0     H28086   1.491   3.608   0.689 -0.0588  0.8079 -1.6763
  949MOL0     H28087   1.396   3.896   0.669 -1.8348 -0.2040 -0.0628
  949MOL0     H28088   1.465   3.804   0.807 -2.0381  0.3093  0.0397
  949MOL0     H28089   1.637   3.856   0.546 -2.1459  0.7494 -0.4122
  949MOL0     H28090   1.682   3.761   0.687  1.4746 -1.7275 -4.8755
  949MOL0     H28091   1.612   4.075   0.661 -0.5280 -0.0228 -0.9379
  949MOL0     H28092   1.651   3.991   0.817  0.9130  4.1078  0.5483
  949MOL0     H28093   1.834   4.035   0.571  2.8053 -1.9130 -0.6764
  949MOL0     H28094   1.870   3.920   0.705 -1.0747  0.8157  1.0673
  949MOL0     H28095   1.975   4.135   0.736 -0.0917  0.3364  1.0969
  949MOL0     H28096   1.857   4.109   0.859  3.2530 -0.1011  0.6498
  949MOL0     H28097   1.545   3.393   0.821 -0.1482  0.1142 -0.4160
  949MOL0     H28098   1.548   3.222   1.002  2.3045  0.4120 -2.3137
  949MOL0     H28099   1.149   2.922   1.219 -1.4725 -0.4258  2.1251
  949MOL0     H28100   1.126   2.852   1.450 -0.3354  0.7661 -1.2758
  949MOL0     H28101   2.952   2.112   1.546  1.3434 -0.2646  0.7260
  949MOL0     H28102   3.159   2.252   1.541  1.5991 -0.8297 -0.8750
  949MOL0     H28103   3.349   2.585   1.331  1.5423  0.2700 -4.9436
  949MOL0     H28104   3.513   2.778   1.332  0.6311  1.1013  2.1158
  949MOL0     H28105   3.884   2.800   1.550 -1.5453  1.3762 -1.4322
  949MOL0     H28106   3.945   2.653   1.468 -0.0708  0.2721  1.1926
  949MOL0     H28107   4.093   2.871   1.425  2.0236 -0.6002 -2.7767
  949MOL0     H28108   3.958   2.924   1.332  0.0224 -0.3864  0.7701
  949MOL0     H28109   3.982   2.682   1.215  1.0073  0.9345 -0.6498
  949MOL0     H28110   4.142   2.695   1.285 -2.0712 -2.1452  1.5278
  949MOL0     H28111   4.154   2.917   1.156 -0.1617  0.0725  0.2588
  949MOL0     H28112   3.986   2.889   1.114  0.9649  0.9270  1.0529
  949MOL0     H28113   4.223   2.657   0.833  0.7796 -2.9907  3.5534
  949MOL0     H28114   3.811   2.495   1.458  0.4382  0.9271 -1.0602
  949MOL0     H28115   3.647   2.322   1.471 -0.0642 -0.8055 -1.7474
  950MOL0     O28116   7.240  10.934   4.988 -0.2740 -0.4022  0.7850
  950MOL0     C28117   7.303  10.984   5.079  0.0586  0.5979 -0.0719
  950MOL0     O28118   7.252  11.081   5.162  0.3301 -0.5079 -0.3040
  950MOL0     C28119   7.141  11.144   5.105 -0.0449  0.0244 -0.2387
  950MOL0     C28120   7.152  11.239   4.996  0.5816  0.1393  0.6285
  950MOL0     C28121   7.029  11.272   4.930 -0.3169  0.0726 -0.0916
  950MOL0     C28122   6.910  11.242   4.980  0.9058 -0.1121  0.1718
  950MOL0     O28123   6.799  11.308   4.927 -0.1504  0.1297 -0.1423
  950MOL0     C28124   6.669  11.282   4.991  0.3539 -1.4749 -0.1772
  950MOL0     C28125   6.559  11.337   4.908 -0.0177  0.3494 -0.4242
  950MOL0     C28126   6.434  11.260   4.907  0.0991 -0.3171 -0.0679
  950MOL0     C28127   6.347  11.318   4.796  0.3459 -0.2252  0.7839
  950MOL0     C28128   6.209  11.247   4.792 -0.1681 -0.0174  0.4263
  950MOL0     C28129   6.113  11.278   4.900  0.1152 -0.0973  0.2195
  950MOL0     C28130   5.984  11.215   4.876 -0.1627 -0.1470  0.0357
  950MOL0     C28131   5.878  11.287   4.963  0.1720  0.3393  1.0618
  950MOL0     N28132   5.743  11.237   4.922  0.4929  0.0762 -0.0902
  950MOL0     C28133   5.677  11.132   4.987  0.0503  0.8048  0.8481
  950MOL0     C28134   5.561  11.123   4.916  0.3853 -0.1927 -0.1320
  950MOL0     C28135   5.462  11.016   4.946 -0.2288 -0.2911 -0.3294
  950MOL0     C28136   5.317  11.065   4.921 -1.2385 -0.0206 -0.0573
  950MOL0     C28137   5.233  10.949   4.879  0.6879  0.5488  0.4877
  950MOL0     C28138   5.095  10.991   4.843 -0.0590  0.2888  0.2693
  950MOL0     O28139   5.033  11.019   4.967 -0.6085  0.3076 -0.2838
  950MOL0     C28140   4.896  11.025   4.977  0.0105 -0.4598  0.3536
  950MOL0     C28141   4.803  11.040   4.870 -0.1329 -0.1517 -0.5812
  950MOL0     C28142   4.665  11.050   4.882 -0.2740  0.5950  0.0239
  950MOL0     C28143   4.583  11.095   4.772  0.9946 -0.1273 -0.0277
  950MOL0     C28144   4.618  11.042   5.019  0.0893  0.3305 -0.0705
  950MOL0     C28145   4.476  11.052   5.055 -0.2337  0.0297  0.0037
  950MOL0     O28146   4.378  11.035   4.960  0.3110 -0.4330 -0.2552
  950MOL0     C28147   4.245  11.020   4.983  0.9690  0.3387 -0.2260
  950MOL0     C28148   4.167  10.972   4.868 -0.4691  0.2544  0.0423
  950MOL0     C28149   4.029  10.967   4.867  0.1724 -1.0244  0.0370
  950MOL0     C28150   3.954  11.012   4.978  0.2524 -0.5295 -0.1822
  950MOL0     O28151   3.819  10.993   5.001 -0.4147 -0.2223  0.4948
  950MOL0     C28152   3.737  10.919   4.908  0.7610  0.8664  1.0675
  950MOL0     C28153   3.686  10.984   4.776  0.7950  0.2822 -0.0062
  950MOL0     C28154   3.646  11.134   4.793 -0.9549  0.2752 -0.3774
  950MOL0     C28155   3.606  11.191   4.667  0.2381 -0.6869 -0.4560
  950MOL0     C28156   3.465  11.145   4.628 -0.1651  0.5912  0.7017
  950MOL0     C28157   3.446  11.184   4.483  1.4320  0.0541  0.1115
  950MOL0     C28158   3.313  11.138   4.431 -0.0528  0.3021  0.0557
  950MOL0     C28159   3.196  11.219   4.496  0.0419  0.2293  0.7298
  950MOL0    Cl28160   3.209  11.384   4.471  0.0416 -0.0875  0.0081
  950MOL0     C28161   4.024  11.056   5.090  0.3457 -0.1877  0.5412
  950MOL0     C28162   4.167  11.056   5.100 -0.5262 -0.3519  0.9029
  950MOL0     O28163   4.448  11.068   5.174 -0.0636  0.1407 -0.4096
  950MOL0     C28164   4.716  11.027   5.122  0.3763 -0.1520 -0.7757
  950MOL0     C28165   4.853  11.025   5.106  0.4592 -0.5300 -0.0881
  950MOL0     N28166   5.557  11.212   4.810 -0.2116 -0.3608  0.3025
  950MOL0     N28167   5.670  11.280   4.815 -0.5228  0.1204 -0.1533
  950MOL0     C28168   6.898  11.149   5.085 -0.0289 -0.3334 -0.2258
  950MOL0     C28169   7.018  11.107   5.147 -0.3502  0.0583  0.5396
  950MOL0     C28170   7.436  10.926   5.118  0.4648  0.3993 -0.6040
  950MOL0     C28171   7.499  10.968   5.237  0.6151 -0.0935  0.3715
  950MOL0     C28172   7.614  10.896   5.275  0.4531 -0.5142 -0.7675
  950MOL0     C28173   7.672  10.794   5.198  1.0041 -0.2583 -0.6530
  950MOL0     O28174   7.779  10.727   5.245  0.2861 -0.0546  0.0152
  950MOL0     C28175   7.902  10.759   5.172  0.2482 -0.0480 -0.3298
  950MOL0     C28176   7.983  10.869   5.240 -0.6867 -0.2930  0.0044
  950MOL0     C28177   8.119  10.916   5.176  0.3800 -0.5488  0.5101
  950MOL0     C28178   8.171  11.032   5.268 -0.3295  1.1984  1.1984
  950MOL0     C28179   8.311  11.060   5.240  0.1474  0.6929 -0.3694
  950MOL0     C28180   8.426  11.088   5.215 -0.5811  0.3401  0.1375
  950MOL0     C28181   7.620  10.756   5.077 -0.9028  0.6405 -0.5456
  950MOL0     C28182   7.495  10.816   5.045  0.2240  0.8853 -0.6601
  950MOL0     H28183   7.250  11.275   4.966  1.1993  0.5005  2.8402
  950MOL0     H28184   7.030  11.341   4.846  1.0794 -0.1123 -0.2609
  950MOL0     H28185   6.659  11.174   4.985 -0.7804 -1.5797  2.2164
  950MOL0     H28186   6.665  11.321   5.093 -0.8371  0.7380 -0.9946
  950MOL0     H28187   6.537  11.436   4.948 -0.5034 -0.3289  1.0305
  950MOL0     H28188   6.594  11.348   4.805  0.0893  1.2791 -0.2959
  950MOL0     H28189   6.451  11.156   4.877  0.2321 -0.0793 -0.8265
  950MOL0     H28190   6.384  11.242   5.003  0.9610 -0.1563  0.4167
  950MOL0     H28191   6.337  11.426   4.799  2.1377  0.0286 -1.0387
  950MOL0     H28192   6.391  11.283   4.702 -1.3248 -0.6542  0.1112
  950MOL0     H28193   6.175  11.291   4.698  0.5422  1.5964  0.8795
  950MOL0     H28194   6.219  11.139   4.781  0.7479  0.1502 -0.6529
  950MOL0     H28195   6.148  11.237   4.996  0.2750  0.8724  0.5821
  950MOL0     H28196   6.103  11.386   4.911  0.5459 -0.1713  1.5131
  950MOL0     H28197   5.956  11.220   4.770  1.6795  1.1164 -0.4394
  950MOL0     H28198   5.988  11.110   4.904  2.6115  0.5752  2.8444
  950MOL0     H28199   5.893  11.393   4.943  2.3830 -0.1881 -0.4580
  950MOL0     H28200   5.901  11.272   5.069  2.5962 -0.9474  0.4322
  950MOL0     H28201   5.710  11.072   5.070  1.6160  3.0207  1.9125
  950MOL0     H28202   5.488  10.938   4.875 -0.4235  0.3331 -1.1033
  950MOL0     H28203   5.479  10.968   5.043  1.8703 -2.4507 -1.6857
  950MOL0     H28204   5.313  11.146   4.848  0.9757  0.5695  0.3780
  950MOL0     H28205   5.285  11.112   5.015  0.3309  1.1998 -0.0837
  950MOL0     H28206   5.242  10.866   4.950  1.5901  1.8007  1.9145
  950MOL0     H28207   5.270  10.917   4.782  0.5951 -0.1484  0.6751
  950MOL0     H28208   5.044  10.908   4.794 -2.6818  1.0640  1.5228
  950MOL0     H28209   5.098  11.081   4.781  0.6975  0.9903  1.2942
  950MOL0     H28210   4.837  11.047   4.767 -1.8125 -1.4944 -1.2753
  950MOL0     H28211   4.636  11.158   4.700  0.0258  0.2847 -0.4037
  950MOL0     H28212   4.542  11.017   4.707 -2.2222  4.5682 -4.4471
  950MOL0     H28213   4.506  11.164   4.808  0.9936 -0.3929  0.4709
  950MOL0     H28214   4.219  10.952   4.775 -2.3625  0.7942 -1.1924
  950MOL0     H28215   3.972  10.932   4.781 -1.6599  1.3739  0.1500
  950MOL0     H28216   3.799  10.834   4.877 -0.7268  0.4015 -0.7892
  950MOL0     H28217   3.646  10.891   4.963 -0.6535  0.6378 -1.2711
  950MOL0     H28218   3.762  10.977   4.698  0.2764  0.0167 -0.4958
  950MOL0     H28219   3.598  10.932   4.736 -0.0783  2.2510 -0.7646
  950MOL0     H28220   3.738  11.180   4.830 -0.6736 -0.6443  0.0920
  950MOL0     H28221   3.574  11.141   4.875  1.5211 -1.5331  2.1245
  950MOL0     H28222   3.602  11.301   4.667 -1.3172 -0.7076  0.8510
  950MOL0     H28223   3.677  11.152   4.594  1.2027 -1.8421  1.0290
  950MOL0     H28224   3.391  11.194   4.693 -4.0820 -0.0879 -2.8455
  950MOL0     H28225   3.454  11.036   4.631  1.7155  0.3519  0.1498
  950MOL0     H28226   3.457  11.293   4.478  0.0755  0.1768 -1.0926
  950MOL0     H28227   3.517  11.135   4.416  0.7184 -0.5264 -0.2363
  950MOL0     H28228   3.296  11.032   4.449  1.3926  0.2126  1.0252
  950MOL0     H28229   3.310  11.157   4.323  1.7635 -0.2306 -0.1154
  950MOL0     H28230   3.182  11.204   4.603  1.0681  3.3565  1.4045
  950MOL0     H28231   3.098  11.189   4.457 -0.5572  0.8461  1.7255
  950MOL0     H28232   3.974  11.089   5.180 -1.5424 -0.4297 -0.3886
  950MOL0     H28233   4.211  11.114   5.181 -3.2753  2.4734  0.5722
  950MOL0     H28234   4.667  11.022   5.219 -0.6205  1.9248 -1.1171
  950MOL0     H28235   4.929  11.018   5.183  1.0856 -3.2961 -0.8298
  950MOL0     H28236   6.806  11.111   5.128  1.5769 -3.4315  0.7335
  950MOL0     H28237   7.017  11.030   5.222  1.8810 -0.0763  0.5114
  950MOL0     H28238   7.447  11.048   5.288  1.6483  2.1280 -1.8566
  950MOL0     H28239   7.664  10.935   5.363 -0.3075 -0.8998 -0.1502
  950MOL0     H28240   7.956  10.665   5.166 -4.5092 -3.0828 -1.1455
  950MOL0     H28241   7.888  10.786   5.067  2.7590 -0.9246 -0.9673
  950MOL0     H28242   8.012  10.838   5.340  2.3831 -0.9771 -1.0004
  950MOL0     H28243   7.922  10.960   5.245  1.5125  1.2545 -0.1470
  950MOL0     H28244   8.104  10.936   5.069 -1.8587 -1.7225  0.5603
  950MOL0     H28245   8.187  10.830   5.178  0.7971 -0.2306  0.0753
  950MOL0     H28246   8.170  11.000   5.372  0.8136  0.5564  1.0234
  950MOL0     H28247   8.111  11.123   5.256  1.5086  2.2326 -0.9130
  950MOL0     H28248   8.532  11.097   5.207 -0.4597 -1.8967 -1.8105
  950MOL0     H28249   7.669  10.680   5.018 -3.4364 -2.6632  1.2411
  950MOL0     H28250   7.442  10.786   4.955 -1.4335  0.1008  0.5264
  951MOL0     O28251   7.728   5.395   8.124 -0.2857  0.4818 -0.4072
  951MOL0     C28252   7.700   5.471   8.219 -0.0697  0.3471 -0.0436
  951MOL0     O28253   7.584   5.467   8.288 -0.0450  0.2017  0.7633
  951MOL0     C28254   7.495   5.367   8.260  0.5557 -0.4845 -0.4593
  951MOL0     C28255   7.359   5.402   8.260  0.7474  0.9348  0.2355
  951MOL0     C28256   7.267   5.301   8.234  0.2305 -0.6575 -0.3457
  951MOL0     C28257   7.301   5.168   8.219 -0.1657 -0.3080 -0.1397
  951MOL0     O28258   7.203   5.070   8.204  0.1321 -1.2232 -0.3044
  951MOL0     C28259   7.162   5.036   8.074 -1.0093  0.6024  0.3832
  951MOL0     C28260   7.114   4.889   8.081 -0.2883 -0.5953  0.0802
  951MOL0     C28261   6.999   4.883   8.187 -0.0906  0.7944 -0.0630
  951MOL0     C28262   6.937   4.749   8.189  0.0846 -0.4230  0.0956
  951MOL0     C28263   6.814   4.759   8.290 -0.8968 -0.0248  0.0647
  951MOL0     C28264   6.690   4.671   8.250  0.4047  0.9258  0.3708
  951MOL0     C28265   6.568   4.680   8.342  0.6168 -0.2247  0.5445
  951MOL0     C28266   6.429   4.616   8.294 -0.5764 -1.1919  0.4266
  951MOL0     N28267   6.366   4.704   8.189 -0.6450  0.1738  0.1505
  951MOL0     C28268   6.284   4.817   8.203  0.0218 -0.3916 -0.9445
  951MOL0     C28269   6.255   4.860   8.075 -0.6028  0.1299  0.0843
  951MOL0     C28270   6.179   4.984   8.051 -0.0864 -0.6088  0.1695
  951MOL0     C28271   6.032   4.971   8.084 -0.7441 -0.3440 -0.0670
  951MOL0     C28272   5.952   4.877   7.987 -0.5222  0.2419  0.2345
  951MOL0     C28273   5.808   4.918   7.976  0.5009  0.7713 -0.2437
  951MOL0     O28274   5.787   5.024   7.879  0.8597  0.6550  0.4500
  951MOL0     C28275   5.659   5.058   7.850  0.6845 -0.5404 -0.3083
  951MOL0     C28276   5.640   5.100   7.718 -0.1638 -0.1273 -0.2363
  951MOL0     C28277   5.512   5.151   7.676  0.1820  0.1203 -0.0115
  951MOL0     C28278   5.491   5.182   7.533  0.0021 -0.3325 -0.1153
  951MOL0     C28279   5.410   5.163   7.777  0.1775 -0.2672  0.6357
  951MOL0     C28280   5.273   5.191   7.745  0.7006 -0.7173  0.2217
  951MOL0     O28281   5.200   5.258   7.845  0.5221 -0.5588 -0.5954
  951MOL0     C28282   5.078   5.316   7.812 -0.7810 -0.8258 -0.0975
  951MOL0     C28283   4.995   5.326   7.918  0.1598 -0.7177 -1.3795
  951MOL0     C28284   4.864   5.379   7.906  0.4716 -0.2382  0.2356
  951MOL0     C28285   4.826   5.440   7.781  0.2390  0.0484 -0.4442
  951MOL0     O28286   4.705   5.503   7.793 -0.0480  0.3594 -0.2419
  951MOL0     C28287   4.637   5.552   7.672 -0.7297  0.3992 -0.4284
  951MOL0     C28288   4.488   5.605   7.697 -0.3054  0.9874 -0.7879
  951MOL0     C28289   4.491   5.752   7.696 -0.2071 -0.3000  0.0499
  951MOL0     C28290   4.368   5.835   7.770 -0.5486  0.6672 -0.1468
  951MOL0     C28291   4.236   5.806   7.711 -0.2176 -0.2373 -0.1304
  951MOL0     C28292   4.201   5.884   7.581  1.6819  0.0868  1.0759
  951MOL0     C28293   4.080   5.820   7.500 -1.0070  0.4198 -0.1391
  951MOL0     C28294   3.951   5.811   7.578  0.4668 -0.5107 -0.4383
  951MOL0    Cl28295   3.817   5.756   7.460  0.2910  0.2180  0.0379
  951MOL0     C28296   4.913   5.437   7.671 -0.4951 -0.0901  1.1654
  951MOL0     C28297   5.035   5.368   7.692 -0.6870 -0.0297 -0.0258
  951MOL0     O28298   5.227   5.152   7.639  0.0483  0.1349  0.3283
  951MOL0     C28299   5.442   5.123   7.907  0.4297 -0.2706  0.6378
  951MOL0     C28300   5.558   5.064   7.947 -0.9687 -0.4527 -0.8444
  951MOL0     N28301   6.320   4.772   7.991 -0.2303 -0.3678 -0.7525
  951MOL0     N28302   6.386   4.684   8.058 -0.6015 -0.1563 -0.4269
  951MOL0     C28303   7.437   5.129   8.233 -0.0055 -0.2894  0.5092
  951MOL0     C28304   7.525   5.230   8.265 -0.4698 -0.7275  0.4198
  951MOL0     C28305   7.794   5.571   8.276  0.2710 -0.2914  0.5624
  951MOL0     C28306   7.923   5.604   8.219  0.9550  0.3426  0.1985
  951MOL0     C28307   8.003   5.698   8.276  0.0959  0.2023  0.2063
  951MOL0     C28308   7.972   5.758   8.401 -0.5012  0.1532 -0.9597
  951MOL0     O28309   8.053   5.849   8.470 -0.3479 -0.6833 -0.3342
  951MOL0     C28310   8.191   5.876   8.418  0.9198  0.1664 -0.2556
  951MOL0     C28311   8.265   5.949   8.527  0.4469  0.6103  0.1956
  951MOL0     C28312   8.399   5.987   8.475  0.5162  0.5819  0.2963
  951MOL0     C28313   8.468   6.070   8.583  0.5967 -0.4418  0.3201
  951MOL0     C28314   8.579   6.136   8.513 -0.2163 -0.4375  0.1818
  951MOL0     C28315   8.680   6.175   8.465  0.5364 -0.4401 -0.0588
  951MOL0     C28316   7.847   5.722   8.455 -0.0858  0.0661 -0.7646
  951MOL0     C28317   7.756   5.640   8.391  0.1884  0.7576 -0.0929
  951MOL0     H28318   7.333   5.503   8.288  1.8415  1.4998 -0.6856
  951MOL0     H28319   7.162   5.327   8.233  0.6742  1.2938 -1.5776
  951MOL0     H28320   7.080   5.105   8.049 -0.2453  2.9934  3.8219
  951MOL0     H28321   7.245   5.052   8.005 -1.7637  1.2464 -0.4025
  951MOL0     H28322   7.075   4.866   7.981  0.4254  1.4610 -0.7301
  951MOL0     H28323   7.201   4.825   8.098 -0.0104 -0.3660 -0.4317
  951MOL0     H28324   7.042   4.900   8.287 -2.9958  4.0813  0.8343
  951MOL0     H28325   6.921   4.959   8.179 -0.9747 -0.1268 -0.2960
  951MOL0     H28326   6.898   4.721   8.091  2.3048 -1.2136 -0.6137
  951MOL0     H28327   7.014   4.678   8.220 -0.1317 -0.1428  1.3149
  951MOL0     H28328   6.851   4.742   8.391 -1.8796  2.1962  0.8593
  951MOL0     H28329   6.775   4.861   8.289 -1.5141 -0.2552  0.2945
  951MOL0     H28330   6.656   4.700   8.151  0.1914  0.0866  0.1971
  951MOL0     H28331   6.712   4.565   8.246 -1.5389  0.4884  0.0157
  951MOL0     H28332   6.596   4.623   8.431  0.1398 -1.8991 -0.3397
  951MOL0     H28333   6.547   4.782   8.376 -3.2213 -0.9140  0.6268
  951MOL0     H28334   6.358   4.584   8.370 -0.6310  1.6033  1.6910
  951MOL0     H28335   6.457   4.524   8.241 -0.5862 -0.4784 -0.8503
  951MOL0     H28336   6.243   4.866   8.291  2.3740 -0.3050  0.1599
  951MOL0     H28337   6.209   5.071   8.110 -1.1769  0.7654 -1.2190
  951MOL0     H28338   6.181   5.021   7.948 -0.5360 -1.6252 -0.2168
  951MOL0     H28339   5.978   5.065   8.074  1.2381  0.8523 -0.0443
  951MOL0     H28340   6.014   4.939   8.188 -1.1106 -1.4038 -0.4391
  951MOL0     H28341   5.957   4.777   8.031 -2.2726  0.2057  0.4150
  951MOL0     H28342   6.007   4.883   7.893  1.3234  0.1814  1.2688
  951MOL0     H28343   5.769   4.944   8.074 -1.4593  1.1157 -1.0565
  951MOL0     H28344   5.746   4.837   7.935  0.1347 -0.6963  2.9002
  951MOL0     H28345   5.724   5.093   7.650  1.1990 -0.3351  1.4281
  951MOL0     H28346   5.475   5.084   7.486  1.5393 -1.6965  2.0241
  951MOL0     H28347   5.404   5.247   7.520 -0.8124 -1.0903  1.3293
  951MOL0     H28348   5.583   5.226   7.494  0.1693 -0.4240  0.1729
  951MOL0     H28349   5.021   5.289   8.017 -0.6699  0.0596 -0.8445
  951MOL0     H28350   4.807   5.392   7.997 -0.9611 -0.1442 -0.6401
  951MOL0     H28351   4.700   5.624   7.618  2.0440 -1.9352 -0.5308
  951MOL0     H28352   4.630   5.466   7.605  2.2859 -0.5984  0.3545
  951MOL0     H28353   4.433   5.572   7.609 -0.1600  0.9846 -0.8779
  951MOL0     H28354   4.445   5.553   7.783 -3.6906 -0.6004 -3.2036
  951MOL0     H28355   4.498   5.786   7.593 -0.8204  1.5377  0.5653
  951MOL0     H28356   4.584   5.780   7.746  0.0843  0.6163 -0.9915
  951MOL0     H28357   4.372   5.803   7.875  2.2778  0.6657 -0.1964
  951MOL0     H28358   4.386   5.943   7.764  2.2376  0.3804  1.4611
  951MOL0     H28359   4.162   5.836   7.786  2.0474  0.2185  2.0645
  951MOL0     H28360   4.228   5.698   7.696  2.4303 -0.2598 -2.1913
  951MOL0     H28361   4.178   5.985   7.616  2.7246 -0.0562  2.2319
  951MOL0     H28362   4.286   5.887   7.512 -1.0777  0.3216 -2.6231
  951MOL0     H28363   4.105   5.719   7.464 -0.6106  1.2480 -2.3048
  951MOL0     H28364   4.070   5.876   7.407 -0.5128  2.2844  0.8874
  951MOL0     H28365   3.925   5.913   7.607 -0.5904 -1.0089  0.4027
  951MOL0     H28366   3.960   5.746   7.665  2.4737 -0.6908 -0.7261
  951MOL0     H28367   4.893   5.490   7.579  0.4287 -1.7749 -0.0608
  951MOL0     H28368   5.104   5.369   7.608 -1.5956  1.4989 -0.7851
  951MOL0     H28369   5.371   5.124   7.989 -2.3946 -2.8953 -1.5232
  951MOL0     H28370   5.575   5.026   8.047 -0.3535  0.1273 -0.7241
  951MOL0     H28371   7.465   5.024   8.235 -0.8441 -0.5077  1.4817
  951MOL0     H28372   7.629   5.204   8.282  0.5160  0.6593 -2.7131
  951MOL0     H28373   7.951   5.541   8.136 -1.2261 -1.1956  0.5270
  951MOL0     H28374   8.096   5.717   8.223  1.1381  1.2291  2.2508
  951MOL0     H28375   8.242   5.783   8.392  1.7189  0.5360 -0.0421
  951MOL0     H28376   8.180   5.934   8.326 -1.8618 -3.5347 -2.5620
  951MOL0     H28377   8.279   5.893   8.620  2.7425 -0.1764 -0.5471
  951MOL0     H28378   8.206   6.041   8.540 -0.7246 -0.2505  1.1684
  951MOL0     H28379   8.387   6.037   8.378  1.9183 -1.3282 -0.9333
  951MOL0     H28380   8.456   5.895   8.458 -2.7940 -1.5348 -0.3374
  951MOL0     H28381   8.503   6.012   8.668  0.5419  1.0094  1.3742
  951MOL0     H28382   8.400   6.147   8.621 -0.1326  1.5400 -4.2726
  951MOL0     H28383   8.767   6.197   8.407  0.0181 -1.9944 -1.4853
  951MOL0     H28384   7.830   5.755   8.558  1.0513 -0.8984 -0.2412
  951MOL0     H28385   7.659   5.632   8.440 -1.5322  0.8667 -3.1662
  952MOL0     O28386   8.313   8.285   1.286  0.3224  0.0811 -0.6745
  952MOL0     C28387   8.333   8.408   1.263 -0.1123 -0.5739  0.1950
  952MOL0     O28388   8.242   8.495   1.238  0.1032  1.7452 -0.1349
  952MOL0     C28389   8.116   8.444   1.200 -1.3895 -0.3806 -0.8188
  952MOL0     C28390   8.008   8.429   1.286 -0.1314  0.3869 -0.3465
  952MOL0     C28391   7.878   8.401   1.232 -0.1735  0.0598 -0.6186
  952MOL0     C28392   7.858   8.379   1.096  0.0912 -0.7396  0.2866
  952MOL0     O28393   7.720   8.358   1.054 -0.0025  0.0776  0.0768
  952MOL0     C28394   7.702   8.308   0.920  0.0409  0.6539 -0.7034
  952MOL0     C28395   7.552   8.286   0.903  0.6679  0.5016 -0.6738
  952MOL0     C28396   7.456   8.404   0.938 -0.0606  0.8176 -0.5380
  952MOL0     C28397   7.449   8.520   0.826 -0.4862  0.4037 -1.3587
  952MOL0     C28398   7.351   8.629   0.851  0.4860  0.3654 -0.0101
  952MOL0     C28399   7.281   8.671   0.725  0.2569  0.0268 -0.3272
  952MOL0     C28400   7.184   8.574   0.667  0.0233  0.0122  0.1357
  952MOL0     C28401   7.154   8.614   0.521 -0.0549  0.0868  0.4923
  952MOL0     N28402   7.039   8.548   0.460 -0.3343 -0.5962 -0.4234
  952MOL0     C28403   6.912   8.544   0.515 -0.2365  0.3703 -0.1496
  952MOL0     C28404   6.833   8.483   0.421 -0.8576 -0.5404 -0.9425
  952MOL0     C28405   6.693   8.433   0.440  0.8540  0.2388 -0.6083
  952MOL0     C28406   6.635   8.448   0.584 -0.3426 -0.5957  0.0312
  952MOL0     C28407   6.508   8.373   0.592 -0.1142 -0.6434  0.1393
  952MOL0     C28408   6.379   8.454   0.571 -0.6761 -0.2819 -0.7143
  952MOL0     O28409   6.357   8.518   0.695  0.2034  0.0010 -0.4415
  952MOL0     C28410   6.241   8.592   0.710 -0.4119  0.2072 -0.5123
  952MOL0     C28411   6.203   8.619   0.844  0.8238  0.0038  0.2935
  952MOL0     C28412   6.087   8.698   0.869 -0.4959  0.1503 -0.2994
  952MOL0     C28413   6.046   8.725   1.014  0.5499 -0.4005  0.1330
  952MOL0     C28414   6.012   8.752   0.761  0.8675 -1.1952 -1.0696
  952MOL0     C28415   5.891   8.840   0.791  0.1499  0.0186 -0.7114
  952MOL0     O28416   5.802   8.845   0.687  0.6170  0.0708 -0.8005
  952MOL0     C28417   5.712   8.948   0.676  0.1285  0.1569  0.7152
  952MOL0     C28418   5.736   9.044   0.568  0.6796  0.5415  0.1110
  952MOL0     C28419   5.652   9.154   0.548 -0.6043  0.4620 -1.2163
  952MOL0     C28420   5.549   9.180   0.635  0.0550  0.0877 -0.0622
  952MOL0     O28421   5.467   9.292   0.623  0.0399  0.1828 -0.4220
  952MOL0     C28422   5.406   9.314   0.499 -0.7473 -0.1110  0.3603
  952MOL0     C28423   5.285   9.400   0.519  0.1763 -0.2374 -0.9019
  952MOL0     C28424   5.202   9.394   0.394 -0.3013 -0.1211 -0.1088
  952MOL0     C28425   5.068   9.475   0.405 -0.4400  0.1042 -0.7857
  952MOL0     C28426   5.009   9.502   0.269  0.0811  0.6125 -0.0385
  952MOL0     C28427   4.904   9.625   0.254  0.3897  0.1926 -0.4675
  952MOL0     C28428   4.780   9.621   0.345 -0.0047  0.7498 -0.3225
  952MOL0     C28429   4.718   9.760   0.368 -0.9128  0.0793  0.0772
  952MOL0    Cl28430   4.721   9.844   0.216 -0.0477  0.0153  0.4084
  952MOL0     C28431   5.522   9.084   0.735 -0.2142 -0.7182  0.0635
  952MOL0     C28432   5.604   8.966   0.755 -0.6165 -0.1260 -0.1542
  952MOL0     O28433   5.879   8.908   0.892 -0.2453 -0.0610 -0.5970
  952MOL0     C28434   6.050   8.723   0.637  0.0924  0.9822  0.9239
  952MOL0     C28435   6.154   8.636   0.605  0.4343  0.5622 -1.0078
  952MOL0     N28436   6.912   8.460   0.317 -0.3727 -0.9413 -0.1447
  952MOL0     N28437   7.038   8.496   0.343 -0.3556  0.1387  0.3559
  952MOL0     C28438   7.972   8.394   1.012 -0.3005  1.0038  0.7982
  952MOL0     C28439   8.097   8.424   1.063  0.2742 -0.4269  0.7217
  952MOL0     C28440   8.470   8.457   1.279  0.2368  1.0021  0.6101
  952MOL0     C28441   8.503   8.584   1.242 -0.4698  0.8037  0.9805
  952MOL0     C28442   8.635   8.630   1.254 -0.0709 -0.3892  0.1099
  952MOL0     C28443   8.730   8.554   1.317 -0.1533 -0.7245  0.6304
  952MOL0     O28444   8.851   8.627   1.340 -0.6257  1.0918 -0.6539
  952MOL0     C28445   8.973   8.554   1.375  0.1413  0.7950  1.2552
  952MOL0     C28446   9.092   8.651   1.384  0.5611  0.6656  0.1983
  952MOL0     C28447   9.085   8.744   1.509  0.0295  0.5418 -0.1297
  952MOL0     C28448   9.186   8.868   1.485  0.6090  0.4435 -0.5567
  952MOL0     C28449   9.322   8.821   1.505 -0.3549  0.4660 -0.8064
  952MOL0     C28450   9.435   8.779   1.530 -0.4452 -0.5823 -0.3198
  952MOL0     C28451   8.701   8.421   1.352  0.2252 -0.0222 -0.2814
  952MOL0     C28452   8.570   8.371   1.334  0.2282 -0.7869 -0.5495
  952MOL0     H28453   8.022   8.463   1.389 -0.3588  0.7468 -0.4313
  952MOL0     H28454   7.791   8.412   1.296 -0.2758 -0.5226 -0.6527
  952MOL0     H28455   7.747   8.366   0.839  0.6771 -0.2492 -1.0136
  952MOL0     H28456   7.749   8.209   0.908  3.1276  1.9997 -0.7712
  952MOL0     H28457   7.526   8.258   0.800 -2.3322  4.4475 -1.2097
  952MOL0     H28458   7.523   8.201   0.967 -2.0728  4.3977  3.9390
  952MOL0     H28459   7.359   8.354   0.929 -0.1521  0.7614  0.6470
  952MOL0     H28460   7.470   8.444   1.039  1.1966 -2.1135  0.5545
  952MOL0     H28461   7.548   8.560   0.808  0.8364 -2.0220 -0.0302
  952MOL0     H28462   7.425   8.461   0.737  1.6453  0.5302 -2.0652
  952MOL0     H28463   7.278   8.583   0.918 -0.0593  0.7300 -0.3441
  952MOL0     H28464   7.397   8.713   0.902 -2.5308  1.5285  1.0497
  952MOL0     H28465   7.223   8.761   0.748  0.4240  0.0944 -0.1711
  952MOL0     H28466   7.365   8.698   0.660  1.4299  0.2293  1.2301
  952MOL0     H28467   7.225   8.473   0.669  3.7677  1.3813  1.1423
  952MOL0     H28468   7.094   8.584   0.728 -0.6821 -0.4103 -0.7951
  952MOL0     H28469   7.242   8.584   0.463 -0.0390  0.7604  0.1532
  952MOL0     H28470   7.140   8.722   0.516 -2.3765 -0.2285 -2.2903
  952MOL0     H28471   6.878   8.574   0.614  2.3431 -1.7058  1.5057
  952MOL0     H28472   6.626   8.487   0.372 -0.2197 -1.1817 -0.7303
  952MOL0     H28473   6.692   8.328   0.409 -2.2453 -0.2058  0.5789
  952MOL0     H28474   6.627   8.555   0.606 -0.5368 -1.1174  2.7828
  952MOL0     H28475   6.708   8.411   0.656 -0.7696 -0.3338  0.5979
  952MOL0     H28476   6.516   8.328   0.692  1.0800 -1.1184 -0.1461
  952MOL0     H28477   6.500   8.291   0.520  0.6610 -0.4165 -0.2127
  952MOL0     H28478   6.301   8.389   0.531 -2.0613  0.2751  0.9906
  952MOL0     H28479   6.397   8.532   0.496 -2.9863  1.3397  0.3070
  952MOL0     H28480   6.272   8.590   0.922  0.7950 -0.5135  0.1353
  952MOL0     H28481   6.078   8.826   1.040 -0.3618  0.1751 -0.8844
  952MOL0     H28482   5.939   8.713   1.033  0.4926 -1.3605 -0.7309
  952MOL0     H28483   6.109   8.668   1.082  0.4920  0.3010  0.7882
  952MOL0     H28484   5.823   9.020   0.507  0.3936 -0.6318  0.1389
  952MOL0     H28485   5.681   9.218   0.465 -0.6437 -0.1787 -1.7373
  952MOL0     H28486   5.475   9.346   0.421 -3.3088 -1.7566 -2.8382
  952MOL0     H28487   5.371   9.216   0.463  2.0643 -0.9135 -0.4459
  952MOL0     H28488   5.224   9.358   0.600  1.0326 -0.9982 -0.6376
  952MOL0     H28489   5.327   9.498   0.544  1.0484 -0.9583  0.6528
  952MOL0     H28490   5.178   9.292   0.362 -1.2748 -0.3135  1.1584
  952MOL0     H28491   5.265   9.438   0.316 -0.4277  2.6639  1.2355
  952MOL0     H28492   4.994   9.419   0.464 -0.3235  1.8930  1.2163
  952MOL0     H28493   5.084   9.571   0.455  0.1037 -0.3200 -0.1372
  952MOL0     H28494   4.950   9.413   0.246 -1.0908  1.1348  0.8081
  952MOL0     H28495   5.098   9.511   0.207  1.4036 -1.7949  1.3631
  952MOL0     H28496   4.957   9.720   0.259 -0.2968  0.6073 -1.1323
  952MOL0     H28497   4.870   9.625   0.150  0.9711  3.1022 -0.7414
  952MOL0     H28498   4.809   9.562   0.432  0.8228 -2.7289 -2.7533
  952MOL0     H28499   4.705   9.564   0.290  1.5766 -0.1937 -1.5797
  952MOL0     H28500   4.775   9.827   0.434 -0.0818  0.6494 -1.1778
  952MOL0     H28501   4.615   9.756   0.405 -0.4481  0.8364  1.5435
  952MOL0     H28502   5.445   9.107   0.808  1.2462  2.2031  0.8240
  952MOL0     H28503   5.576   8.894   0.831 -0.8131  0.0609 -0.0480
  952MOL0     H28504   5.987   8.764   0.559 -0.9486  1.0000  1.7496
  952MOL0     H28505   6.183   8.610   0.504 -1.6524  0.0852 -1.5404
  952MOL0     H28506   7.960   8.376   0.906  3.4013  0.2216  0.4049
  952MOL0     H28507   8.180   8.431   0.993  2.0241 -1.2277  2.5837
  952MOL0     H28508   8.430   8.640   1.185 -1.6139 -2.4321 -1.0094
  952MOL0     H28509   8.657   8.736   1.246 -0.8271 -0.1829  0.6656
  952MOL0     H28510   8.958   8.481   1.456 -1.9508 -2.2865 -1.6680
  952MOL0     H28511   8.984   8.496   1.283  1.8981 -1.9768  3.0441
  952MOL0     H28512   9.097   8.712   1.294  0.2378 -0.0420 -0.3098
  952MOL0     H28513   9.184   8.593   1.389 -0.2436 -0.5836  1.2237
  952MOL0     H28514   9.101   8.692   1.604 -0.4498  0.2206 -0.2234
  952MOL0     H28515   8.983   8.783   1.511 -0.5250 -0.8079 -0.8130
  952MOL0     H28516   9.159   8.953   1.549 -1.0022  0.5190 -1.2923
  952MOL0     H28517   9.188   8.911   1.385  4.9427 -0.0386 -0.8630
  952MOL0     H28518   9.533   8.749   1.561 -0.5213 -0.2580  0.2378
  952MOL0     H28519   8.775   8.363   1.406 -0.0631 -0.2888 -0.1685
  952MOL0     H28520   8.533   8.284   1.388 -0.1564  0.0547  0.5733
  953MOL0     O28521   6.024   5.734   9.676  0.3864  0.0616 -0.0264
  953MOL0     C28522   6.098   5.775   9.763  0.3456 -1.0383 -0.3766
  953MOL0     O28523   6.061   5.858   9.860  0.3306  0.1922 -0.2600
  953MOL0     C28524   5.937   5.904   9.890  0.7573 -0.6876  0.5165
  953MOL0     C28525   5.841   5.814   9.935  0.6009  0.7515 -0.1756
  953MOL0     C28526   5.705   5.852   9.964 -0.1336  0.0843  0.2889
  953MOL0     C28527   5.667   5.987   9.942  0.0228 -0.6769  0.1620
  953MOL0     O28528   5.548   6.052   9.967  0.1505 -0.1010 -0.5108
  953MOL0     C28529   5.455   5.980  10.062  1.2902  0.0140 -0.6375
  953MOL0     C28530   5.332   6.072  10.077 -0.7919 -0.0033 -0.8571
  953MOL0     C28531   5.370   6.211  10.129  0.6825 -0.4714 -0.2652
  953MOL0     C28532   5.235   6.272  10.177  0.6105  0.3632 -0.0150
  953MOL0     C28533   5.262   6.409  10.256 -0.2679  0.2049 -0.1846
  953MOL0     C28534   5.143   6.454  10.344 -0.4460 -0.0454 -0.3565
  953MOL0     C28535   5.188   6.583  10.411  0.2402 -0.3496  0.6798
  953MOL0     C28536   5.082   6.625  10.513 -0.2081 -0.0086 -0.9477
  953MOL0     N28537   4.945   6.622  10.460  0.6356  0.4283  0.1704
  953MOL0     C28538   4.895   6.714  10.368  0.4539 -0.5333  0.2801
  953MOL0     C28539   4.775   6.675  10.342  0.1437 -0.5541  0.6156
  953MOL0     C28540   4.698   6.744  10.226  0.1469  0.4814  0.1156
  953MOL0     C28541   4.576   6.808  10.283  1.1466 -0.4686  0.0947
  953MOL0     C28542   4.601   6.921  10.388  0.1313 -0.6418  0.3040
  953MOL0     C28543   4.464   6.969  10.453  1.0269 -0.6362 -0.7268
  953MOL0     O28544   4.390   7.062  10.363 -0.1771  0.0384 -0.1484
  953MOL0     C28545   4.260   7.062  10.399 -0.4714  0.1661 -0.6142
  953MOL0     C28546   4.155   7.046  10.303 -0.6177 -0.3018  0.8680
  953MOL0     C28547   4.023   7.071  10.334 -0.3080 -0.8958 -0.5953
  953MOL0     C28548   3.932   7.078  10.219  0.2683 -0.4435 -0.5277
  953MOL0     C28549   3.978   7.104  10.468  0.2803 -0.2440  0.9095
  953MOL0     C28550   3.835   7.132  10.513 -0.1015 -0.2899  0.1305
  953MOL0     O28551   3.816   7.117  10.653 -0.3843 -0.5108  0.1028
  953MOL0     C28552   3.694   7.155  10.703  0.3286  0.0216 -0.0154
  953MOL0     C28553   3.580   7.069  10.678 -0.2476 -0.8024 -0.1116
  953MOL0     C28554   3.457   7.105  10.736 -0.6232  0.0205  1.1041
  953MOL0     C28555   3.446   7.229  10.810  0.5798  0.3124  0.3829
  953MOL0     O28556   3.328   7.269  10.872  0.2450 -0.2418 -0.7213
  953MOL0     C28557   3.203   7.216  10.837 -0.2835 -0.8178  1.2622
  953MOL0     C28558   3.166   7.254  10.692  0.2883 -0.7310  0.0968
  953MOL0     C28559   3.167   7.402  10.677 -0.5334 -0.2034 -0.0669
  953MOL0     C28560   3.042   7.461  10.740 -0.7457 -0.9749  0.1833
  953MOL0     C28561   3.031   7.610  10.728  0.4222  0.1778  0.0126
  953MOL0     C28562   2.988   7.667  10.587 -0.4074  0.3522 -0.2476
  953MOL0     C28563   2.872   7.594  10.529  0.3805  0.5239  0.2572
  953MOL0     C28564   2.807   7.679  10.423 -0.6306 -0.0271  0.3865
  953MOL0    Cl28565   2.928   7.748  10.300 -0.0592 -0.0195 -0.1411
  953MOL0     C28566   3.558   7.306  10.829 -0.2139  0.4396 -0.0437
  953MOL0     C28567   3.678   7.262  10.789  0.3384 -0.2458 -0.1954
  953MOL0     O28568   3.746   7.164  10.429 -0.3465 -0.0686 -0.6934
  953MOL0     C28569   4.076   7.112  10.559 -0.9971  0.4396 -0.2532
  953MOL0     C28570   4.214   7.099  10.530  0.6945 -0.5237  0.6556
  953MOL0     N28571   4.740   6.560  10.423  0.2095  0.0620 -0.1609
  953MOL0     N28572   4.844   6.525  10.485  0.1927 -0.4375 -0.5026
  953MOL0     C28573   5.766   6.076   9.904 -0.3651  0.2203  0.3172
  953MOL0     C28574   5.897   6.040   9.877 -0.9458 -0.3731 -0.4002
  953MOL0     C28575   6.236   5.752   9.759 -0.7644  0.4443 -1.1514
  953MOL0     C28576   6.297   5.668   9.668  0.3408  1.4019 -0.5180
  953MOL0     C28577   6.430   5.645   9.661  0.1982  0.2958 -0.2953
  953MOL0     C28578   6.518   5.717   9.742  0.5093  0.3602  0.4045
  953MOL0     O28579   6.657   5.712   9.728 -0.1500  0.8362 -0.1808
  953MOL0     C28580   6.726   5.643   9.621 -0.4029 -0.5084  0.0125
  953MOL0     C28581   6.869   5.701   9.607 -1.3825  0.0876 -1.0150
  953MOL0     C28582   6.941   5.639   9.730 -0.7338 -0.2433 -0.2403
  953MOL0     C28583   7.093   5.671   9.720  0.1737  0.0920  0.3096
  953MOL0     C28584   7.122   5.813   9.745  0.1103  0.3310  1.0822
  953MOL0     C28585   7.138   5.927   9.776  0.7588 -1.3251  0.0674
  953MOL0     C28586   6.470   5.816   9.827  0.2929 -0.2910  0.5433
  953MOL0     C28587   6.329   5.828   9.835 -0.2909  0.3082 -0.2759
  953MOL0     H28588   5.870   5.710   9.951  0.9902  0.7002 -1.1552
  953MOL0     H28589   5.630   5.789  10.012 -0.5157  1.6613  1.8452
  953MOL0     H28590   5.412   5.892  10.014 -0.8842  0.8761 -0.4167
  953MOL0     H28591   5.500   5.952  10.157 -0.8792  1.3740  0.8873
  953MOL0     H28592   5.291   6.079   9.976 -0.0128  3.3415 -1.0569
  953MOL0     H28593   5.261   6.021  10.143  0.0299  0.8961  0.7982
  953MOL0     H28594   5.436   6.201  10.215 -2.3269 -1.3345  2.1121
  953MOL0     H28595   5.422   6.275  10.056  0.0183  1.2412  0.6959
  953MOL0     H28596   5.158   6.284  10.101 -0.4689  0.5719  1.0810
  953MOL0     H28597   5.195   6.202  10.252  0.8712 -1.2064 -1.2813
  953MOL0     H28598   5.345   6.392  10.325 -0.5668  1.0007  0.3897
  953MOL0     H28599   5.285   6.492  10.189  0.0541  0.6203  0.4334
  953MOL0     H28600   5.054   6.461  10.281 -0.4559  1.1055 -0.2306
  953MOL0     H28601   5.117   6.387  10.427 -1.0657  1.2882  0.5448
  953MOL0     H28602   5.279   6.570  10.469  0.6056 -1.2901 -0.0749
  953MOL0     H28603   5.218   6.669  10.349  0.6643 -0.2252  1.0563
  953MOL0     H28604   5.100   6.727  10.550  2.2685 -0.3583 -1.0599
  953MOL0     H28605   5.091   6.565  10.604 -0.4308  1.7353  0.3010
  953MOL0     H28606   4.942   6.793  10.311  0.9088 -2.8864 -2.8971
  953MOL0     H28607   4.751   6.820  10.170  2.0000 -0.1874  0.8930
  953MOL0     H28608   4.673   6.661  10.159 -1.3726  1.0242 -0.0445
  953MOL0     H28609   4.515   6.732  10.333  0.8014 -1.9378 -2.4239
  953MOL0     H28610   4.516   6.842  10.199 -0.1791 -0.4867  0.9949
  953MOL0     H28611   4.653   7.005  10.342 -1.9465  0.1325 -0.7237
  953MOL0     H28612   4.662   6.882  10.471 -1.5183  0.2574  2.0244
  953MOL0     H28613   4.489   7.007  10.552  1.2378  3.2301 -2.0778
  953MOL0     H28614   4.400   6.880  10.459  2.4289 -1.5556  2.4788
  953MOL0     H28615   4.201   7.018  10.208  0.4806  0.6779  1.0913
  953MOL0     H28616   3.892   7.179  10.217 -1.6814 -1.1110  1.1144
  953MOL0     H28617   3.971   7.048  10.121  0.3945  1.0036 -0.9336
  953MOL0     H28618   3.848   7.016  10.251  1.0046 -0.2987  1.8476
  953MOL0     H28619   3.579   6.973  10.628  0.8599 -0.1840 -1.3886
  953MOL0     H28620   3.377   7.033  10.718  0.3137 -0.4391 -1.7864
  953MOL0     H28621   3.200   7.107  10.837 -0.4406 -0.9271 -2.2639
  953MOL0     H28622   3.129   7.250  10.909 -0.3952  1.4472  0.1659
  953MOL0     H28623   3.242   7.207  10.628  0.3570 -0.0581 -0.3187
  953MOL0     H28624   3.068   7.211  10.671  0.6328 -2.2857  1.4111
  953MOL0     H28625   3.167   7.448  10.578  1.8919 -0.4085 -0.2273
  953MOL0     H28626   3.257   7.440  10.727 -2.1709 -0.6353  3.5460
  953MOL0     H28627   2.946   7.422  10.707 -1.5132  0.8698  0.0773
  953MOL0     H28628   3.048   7.444  10.848 -1.2927 -0.2620  0.3414
  953MOL0     H28629   3.120   7.667  10.755 -1.0488  3.1926 -0.9836
  953MOL0     H28630   2.956   7.638  10.803 -0.4316 -3.0295  0.4992
  953MOL0     H28631   2.974   7.775  10.593 -0.6196  0.2573  1.4136
  953MOL0     H28632   3.067   7.677  10.512 -0.8869  1.3073 -0.6358
  953MOL0     H28633   2.800   7.564  10.606  0.7228 -0.6953  0.1230
  953MOL0     H28634   2.909   7.499  10.488  1.8949  0.6888  1.1580
  953MOL0     H28635   2.738   7.754  10.464 -1.6667  0.3642 -1.8833
  953MOL0     H28636   2.732   7.623  10.367 -0.7962  1.9855 -1.5815
  953MOL0     H28637   3.548   7.393  10.893 -0.3730 -0.5834  1.3649
  953MOL0     H28638   3.765   7.316  10.825 -0.3382  0.9798 -0.3561
  953MOL0     H28639   4.058   7.134  10.664 -0.5989  3.5119 -0.7200
  953MOL0     H28640   4.291   7.108  10.606  1.4575 -0.5067 -0.1044
  953MOL0     H28641   5.739   6.175   9.867 -1.8149  0.1276  1.0624
  953MOL0     H28642   5.981   6.104   9.856  0.0011 -2.3372 -3.0399
  953MOL0     H28643   6.236   5.609   9.601 -0.0043  0.6021  0.4674
  953MOL0     H28644   6.453   5.558   9.600 -1.9719 -1.3276  1.0378
  953MOL0     H28645   6.725   5.534   9.629 -1.9372 -0.5831 -0.9059
  953MOL0     H28646   6.675   5.666   9.527 -0.4838 -0.3537  0.0948
  953MOL0     H28647   6.876   5.810   9.621  0.4601 -0.1606  0.4157
  953MOL0     H28648   6.918   5.658   9.519 -0.9253  0.0046 -0.7251
  953MOL0     H28649   6.941   5.530   9.720 -0.0939 -0.1766 -1.1107
  953MOL0     H28650   6.903   5.669   9.828 -0.9238  2.7686 -1.1406
  953MOL0     H28651   7.135   5.643   9.623  3.1088 -0.8195  1.7259
  953MOL0     H28652   7.151   5.601   9.780 -0.1759 -2.8788 -2.5119
  953MOL0     H28653   7.159   6.028   9.802  1.5386 -1.6081  0.5940
  953MOL0     H28654   6.537   5.868   9.894  2.9953 -1.8542 -0.7995
  953MOL0     H28655   6.287   5.879   9.922  0.1311  1.7362 -0.8741
  954MOL0     O28656   8.690   3.119   7.919 -0.2675  0.7891  0.1958
  954MOL0     C28657   8.745   3.012   7.954  0.9120 -0.8677 -0.3450
  954MOL0     O28658   8.682   2.903   7.996  0.3953 -0.0224 -0.3139
  954MOL0     C28659   8.544   2.919   8.010  0.0301  0.0205 -0.1287
  954MOL0     C28660   8.456   2.866   7.915  0.1716  0.1539  0.3675
  954MOL0     C28661   8.316   2.866   7.938 -0.4468 -0.0328 -0.1488
  954MOL0     C28662   8.271   2.908   8.068  0.2572 -0.5464 -0.2141
  954MOL0     O28663   8.137   2.884   8.094  0.6499  0.0766 -0.5781
  954MOL0     C28664   8.116   2.822   8.224 -0.2701  0.2113 -0.6114
  954MOL0     C28665   7.991   2.736   8.210 -0.5595  0.2262  0.1597
  954MOL0     C28666   7.949   2.668   8.336  0.3188 -0.4852  0.1034
  954MOL0     C28667   7.828   2.575   8.297 -0.0685  0.3013  1.2724
  954MOL0     C28668   7.783   2.503   8.421 -0.1252 -0.6568 -0.3205
  954MOL0     C28669   7.665   2.408   8.395 -0.1448  0.8815  0.1611
  954MOL0     C28670   7.616   2.350   8.524  0.3439  0.5590  0.0669
  954MOL0     C28671   7.484   2.273   8.513  0.4996 -0.0234  0.0075
  954MOL0     N28672   7.377   2.371   8.477 -0.1870 -0.2248  0.4967
  954MOL0     C28673   7.329   2.410   8.350 -0.2562 -0.1366  0.0717
  954MOL0     C28674   7.227   2.498   8.380 -0.7378 -0.3847  0.0736
  954MOL0     C28675   7.118   2.562   8.288  0.3604 -0.7788 -0.5873
  954MOL0     C28676   7.187   2.668   8.192 -0.1185  0.6873  0.8778
  954MOL0     C28677   7.236   2.798   8.254  0.1866 -0.0296 -0.2409
  954MOL0     C28678   7.132   2.904   8.304 -0.5086  0.4145  0.9853
  954MOL0     O28679   7.036   2.943   8.190  0.8854 -0.1793  0.1486
  954MOL0     C28680   6.924   3.016   8.228  0.3350  0.3707 -0.1751
  954MOL0     C28681   6.894   3.077   8.354 -0.0571  0.2340 -0.0728
  954MOL0     C28682   6.772   3.151   8.377 -0.5266  0.4679  0.6694
  954MOL0     C28683   6.755   3.215   8.515 -0.4943 -0.4394  0.6433
  954MOL0     C28684   6.675   3.154   8.267  0.0821  0.6791 -0.7308
  954MOL0     C28685   6.541   3.221   8.282 -1.0161 -0.6510  0.0195
  954MOL0     O28686   6.460   3.186   8.381 -0.4854  0.3172 -0.0624
  954MOL0     C28687   6.338   3.243   8.391  0.0991  0.4887 -0.4006
  954MOL0     C28688   6.226   3.214   8.301 -0.4010 -0.4378 -0.7037
  954MOL0     C28689   6.095   3.256   8.338 -0.5043 -0.2513  1.7706
  954MOL0     C28690   6.076   3.345   8.446  0.9605 -0.7190  0.6049
  954MOL0     O28691   5.947   3.394   8.459  0.0869  0.3717 -0.3691
  954MOL0     C28692   5.924   3.517   8.540 -0.2482  0.0154  0.3349
  954MOL0     C28693   5.785   3.561   8.510 -0.4511  0.8273  0.1172
  954MOL0     C28694   5.760   3.690   8.578 -0.0771 -0.1630 -0.5858
  954MOL0     C28695   5.620   3.743   8.579  0.4326  0.0363 -0.0248
  954MOL0     C28696   5.597   3.867   8.665  0.1176 -0.5100 -0.1752
  954MOL0     C28697   5.459   3.928   8.650  0.8476  0.1771 -0.1572
  954MOL0     C28698   5.426   4.021   8.764  0.0503  0.4397  0.0779
  954MOL0     C28699   5.291   4.087   8.753  0.1494  0.0359  0.3837
  954MOL0    Cl28700   5.282   4.225   8.870 -0.5383  0.6096  0.2779
  954MOL0     C28701   6.183   3.371   8.526 -0.2675  0.0790 -0.7819
  954MOL0     C28702   6.311   3.327   8.503 -0.4859  1.0086  0.3205
  954MOL0     O28703   6.513   3.291   8.191  0.4350  0.6697  0.8196
  954MOL0     C28704   6.710   3.099   8.141  0.5486  0.3639 -1.1268
  954MOL0     C28705   6.831   3.024   8.130  0.1676  0.3795 -0.3999
  954MOL0     N28706   7.201   2.499   8.518 -0.0482  0.6474 -0.3076
  954MOL0     N28707   7.297   2.430   8.570  0.7557  0.2405  0.2115
  954MOL0     C28708   8.366   2.958   8.160  0.5504  0.2890 -0.1183
  954MOL0     C28709   8.498   2.973   8.128 -0.3903 -0.6589 -0.4979
  954MOL0     C28710   8.893   3.002   7.944  0.2077  0.0051 -0.6115
  954MOL0     C28711   8.960   2.879   7.957 -0.4479 -0.2238 -0.7304
  954MOL0     C28712   9.098   2.873   7.923  0.4863 -1.3894  0.4074
  954MOL0     C28713   9.169   2.974   7.882 -0.5019 -1.1864  0.2392
  954MOL0     O28714   9.304   2.961   7.860  0.3507  0.2741  0.0965
  954MOL0     C28715   9.379   2.866   7.936 -0.4778 -0.3844 -1.0565
  954MOL0     C28716   9.407   2.930   8.072  0.4992  1.0081  1.4018
  954MOL0     C28717   9.449   3.080   8.069  0.1871 -0.6643 -0.3706
  954MOL0     C28718   9.463   3.123   8.209 -0.5922 -0.4523  0.2123
  954MOL0     C28719   9.532   3.251   8.210 -0.0439  0.4935 -0.6757
  954MOL0     C28720   9.585   3.357   8.197  0.5072  0.3267 -0.4364
  954MOL0     C28721   9.114   3.108   7.885  1.2914 -0.3621  0.1711
  954MOL0     C28722   8.973   3.121   7.912 -0.4638  0.1938 -0.0714
  954MOL0     H28723   8.493   2.839   7.816 -1.9635  2.4787 -1.1772
  954MOL0     H28724   8.250   2.825   7.863 -0.3976  1.0288 -0.7937
  954MOL0     H28725   8.195   2.757   8.261 -0.0942  0.7762  0.0249
  954MOL0     H28726   8.095   2.896   8.302  0.4524 -1.2216  1.0082
  954MOL0     H28727   7.908   2.781   8.155 -0.7773 -1.0946 -0.6214
  954MOL0     H28728   8.015   2.652   8.146 -0.4788  0.4883 -0.1560
  954MOL0     H28729   8.021   2.595   8.373 -0.0555 -1.3710 -0.8697
  954MOL0     H28730   7.924   2.740   8.415 -2.2055 -0.1844 -0.8599
  954MOL0     H28731   7.759   2.645   8.248 -1.4163 -3.1491 -2.3493
  954MOL0     H28732   7.852   2.496   8.225 -0.4558  1.8524 -0.6182
  954MOL0     H28733   7.864   2.451   8.472 -2.1658 -1.6669  2.1219
  954MOL0     H28734   7.749   2.579   8.491  0.3898  0.9190 -1.7158
  954MOL0     H28735   7.583   2.457   8.342 -2.2647 -0.0100  2.4116
  954MOL0     H28736   7.704   2.333   8.326  1.1994  2.2947 -0.6966
  954MOL0     H28737   7.697   2.289   8.565  0.3679  1.9676  2.2812
  954MOL0     H28738   7.611   2.429   8.600  1.9216 -0.3688  1.1869
  954MOL0     H28739   7.452   2.223   8.605 -2.8653 -1.8238 -1.9511
  954MOL0     H28740   7.494   2.190   8.442  0.9980 -1.1459  1.3511
  954MOL0     H28741   7.369   2.379   8.254  0.2542  0.1337  0.1898
  954MOL0     H28742   7.069   2.480   8.234 -0.2516 -1.9064  1.5620
  954MOL0     H28743   7.048   2.609   8.358  0.3136 -2.1309  0.3174
  954MOL0     H28744   7.117   2.700   8.114  0.2941  0.7451  0.5277
  954MOL0     H28745   7.274   2.615   8.154 -0.9804 -0.6681  0.7473
  954MOL0     H28746   7.302   2.839   8.177 -1.2733  0.5195 -1.2635
  954MOL0     H28747   7.297   2.774   8.341 -1.6905 -0.0155  1.1337
  954MOL0     H28748   7.180   2.993   8.344  2.2622 -0.5779  0.0644
  954MOL0     H28749   7.077   2.858   8.387 -0.0595  0.0824  1.0996
  954MOL0     H28750   6.969   3.089   8.431 -0.3171 -1.5460  0.5226
  954MOL0     H28751   6.798   3.315   8.526 -0.6471 -0.3341  0.3189
  954MOL0     H28752   6.649   3.229   8.536 -0.8036  1.2040 -1.5937
  954MOL0     H28753   6.805   3.151   8.589 -0.2850 -4.6067 -2.6985
  954MOL0     H28754   6.249   3.146   8.220  2.4444 -1.0762  0.5126
  954MOL0     H28755   6.012   3.243   8.270  3.4519 -0.0462 -3.8013
  954MOL0     H28756   5.934   3.483   8.643  1.5318 -0.1491  0.1310
  954MOL0     H28757   6.003   3.585   8.509 -0.1815 -0.6382 -0.9959
  954MOL0     H28758   5.758   3.567   8.404 -2.6239 -1.5955  0.4274
  954MOL0     H28759   5.732   3.480   8.560  0.6861  0.1779  0.3263
  954MOL0     H28760   5.828   3.752   8.519  0.2876 -2.2643 -2.5430
  954MOL0     H28761   5.785   3.673   8.683  1.6615  0.9340 -0.7878
  954MOL0     H28762   5.596   3.750   8.472  1.1810 -0.8207 -0.2667
  954MOL0     H28763   5.557   3.662   8.617  0.7126 -0.7069 -1.0646
  954MOL0     H28764   5.671   3.933   8.619  0.9803 -1.1458  0.2750
  954MOL0     H28765   5.621   3.849   8.770  3.1839 -1.3121 -0.9103
  954MOL0     H28766   5.447   3.984   8.556 -1.2634  1.5943  0.8660
  954MOL0     H28767   5.385   3.852   8.626 -0.4725  1.9948 -2.2298
  954MOL0     H28768   5.505   4.096   8.767 -0.7759  1.4757 -1.9775
  954MOL0     H28769   5.430   3.962   8.856 -0.0751  1.6602  0.8938
  954MOL0     H28770   5.222   4.009   8.785  0.9434 -0.6309  0.5155
  954MOL0     H28771   5.273   4.125   8.652 -0.0788 -0.7617  0.1146
  954MOL0     H28772   6.167   3.424   8.619 -2.6597  1.1845 -1.7474
  954MOL0     H28773   6.386   3.343   8.580  1.3901  1.0249 -1.4191
  954MOL0     H28774   6.637   3.121   8.064 -2.6502  1.8749  1.9991
  954MOL0     H28775   6.858   2.980   8.035  3.7053  1.6700 -0.1515
  954MOL0     H28776   8.336   2.977   8.263  1.3017 -0.9218  0.3409
  954MOL0     H28777   8.567   3.004   8.206 -0.4942  1.0042 -1.0329
  954MOL0     H28778   8.911   2.785   7.981 -3.1925  1.3737  0.2946
  954MOL0     H28779   9.131   2.769   7.926 -3.2004 -2.8094 -2.0164
  954MOL0     H28780   9.329   2.769   7.946  0.3414 -0.7718 -0.6691
  954MOL0     H28781   9.472   2.849   7.883  0.5147 -1.1909  0.8410
  954MOL0     H28782   9.464   2.863   8.137 -1.2971 -0.1698  1.8409
  954MOL0     H28783   9.305   2.933   8.113 -0.1988  1.6749 -0.2900
  954MOL0     H28784   9.373   3.131   8.009  0.9013 -0.3735 -1.0359
  954MOL0     H28785   9.546   3.085   8.019  0.5861 -0.7376  0.3836
  954MOL0     H28786   9.506   3.047   8.276  0.4182 -0.7178 -0.7053
  954MOL0     H28787   9.368   3.148   8.257 -0.4313 -0.7928  0.7212
  954MOL0     H28788   9.625   3.456   8.190 -0.3999  0.6898 -0.6354
  954MOL0     H28789   9.173   3.196   7.861 -2.6400  2.5406  0.1348
  954MOL0     H28790   8.933   3.222   7.912  2.2976  1.4030  1.6387
  955MOL0     O28791   1.597   5.594   8.376  0.2119  0.5000 -0.4004
  955MOL0     C28792   1.609   5.562   8.491  0.4769 -0.7266 -0.4961
  955MOL0     O28793   1.512   5.564   8.590  0.1190 -0.2222  0.2556
  955MOL0     C28794   1.380   5.565   8.563 -0.3045 -0.0448  1.1671
  955MOL0     C28795   1.294   5.608   8.661 -0.3972 -0.5023  0.2974
  955MOL0     C28796   1.157   5.599   8.655  0.5566 -0.2413  0.3130
  955MOL0     C28797   1.100   5.558   8.532  0.3085 -0.4241 -0.5557
  955MOL0     O28798   0.965   5.541   8.508  0.2623 -0.4797  0.0007
  955MOL0     C28799   0.878   5.538   8.626 -0.2550 -0.4823 -0.6824
  955MOL0     C28800   0.736   5.494   8.583  0.0289 -0.6991 -0.1622
  955MOL0     C28801   0.651   5.479   8.704  0.4556 -0.3233  0.4092
  955MOL0     C28802   0.499   5.468   8.679  0.0080  0.0547  0.7921
  955MOL0     C28803   0.405   5.468   8.799 -0.6599  0.3093  0.1793
  955MOL0     C28804   0.259   5.470   8.765 -0.0383 -0.6121  0.1404
  955MOL0     C28805   0.166   5.466   8.881 -0.5719 -0.4109  0.0582
  955MOL0     C28806   0.022   5.488   8.831  0.0364 -0.3406  0.5129
  955MOL0     N28807  -0.064   5.416   8.915  0.7590 -0.1192 -0.3819
  955MOL0     C28808  -0.154   5.473   9.003 -0.1978  0.9663 -0.4779
  955MOL0     C28809  -0.238   5.368   9.039  0.0394  0.7381 -0.2027
  955MOL0     C28810  -0.342   5.373   9.148  0.4466  0.3161  1.2195
  955MOL0     C28811  -0.423   5.505   9.140  0.2078 -0.5719 -0.2640
  955MOL0     C28812  -0.537   5.501   9.246 -0.8923  0.1618  0.2099
  955MOL0     C28813  -0.662   5.577   9.220 -0.8940 -0.8977 -0.0060
  955MOL0     O28814  -0.619   5.706   9.166  0.9863  0.2387  0.4038
  955MOL0     C28815  -0.717   5.797   9.141  0.1706  0.0113 -0.0926
  955MOL0     C28816  -0.677   5.917   9.089  0.1161  0.5442  0.4652
  955MOL0     C28817  -0.763   6.017   9.060 -0.1327  0.7878 -0.5118
  955MOL0     C28818  -0.698   6.136   9.008  0.3846 -0.3745 -0.1536
  955MOL0     C28819  -0.908   5.997   9.083 -0.2648 -0.2644  0.5417
  955MOL0     C28820  -1.016   6.092   9.050  0.5685 -0.6775  0.3809
  955MOL0     O28821  -1.010   6.164   8.931  0.6506 -0.1487 -0.6925
  955MOL0     C28822  -1.106   6.262   8.914  0.8651  0.3742  0.3360
  955MOL0     C28823  -1.087   6.396   8.952 -0.4172  0.2375  0.3098
  955MOL0     C28824  -1.194   6.484   8.927  0.6542 -0.4208 -1.0578
  955MOL0     C28825  -1.312   6.446   8.863  1.1957 -0.3514 -0.2901
  955MOL0     O28826  -1.407   6.544   8.840  0.2540  0.2095 -0.0198
  955MOL0     C28827  -1.504   6.522   8.731 -0.0334  0.2972 -0.0205
  955MOL0     C28828  -1.591   6.653   8.721 -0.3044  0.4597  0.4037
  955MOL0     C28829  -1.672   6.658   8.603 -0.6713  0.1996 -0.3452
  955MOL0     C28830  -1.711   6.804   8.586 -0.0887  1.3120 -0.1729
  955MOL0     C28831  -1.791   6.825   8.464  0.6197 -0.6548  1.1603
  955MOL0     C28832  -1.939   6.795   8.488  0.2019  0.9785 -0.3307
  955MOL0     C28833  -2.019   6.795   8.357  0.4237  0.0793  0.1147
  955MOL0     C28834  -2.045   6.646   8.310 -0.3985 -0.6825  0.1699
  955MOL0    Cl28835  -1.903   6.551   8.256 -0.0201 -0.2347  0.1915
  955MOL0     C28836  -1.328   6.305   8.833  0.6448  0.2521 -0.6120
  955MOL0     C28837  -1.227   6.216   8.856 -0.1073  0.6984  0.0692
  955MOL0     O28838  -1.113   6.094   9.125 -0.0604 -0.3427 -0.0628
  955MOL0     C28839  -0.942   5.876   9.146  0.1250  0.8693 -0.2179
  955MOL0     C28840  -0.854   5.783   9.182  0.1570 -0.4246 -0.2112
  955MOL0     N28841  -0.210   5.263   8.961 -0.8842 -0.4727 -0.1361
  955MOL0     N28842  -0.102   5.291   8.885 -0.6715  0.6879 -0.6652
  955MOL0     C28843   1.182   5.526   8.427  0.6465  0.0394  0.1307
  955MOL0     C28844   1.320   5.532   8.443  0.1632  0.4110 -0.5572
  955MOL0     C28845   1.749   5.547   8.544  0.2029 -0.8564  0.3189
  955MOL0     C28846   1.857   5.550   8.452 -0.1347 -0.6913 -0.2681
  955MOL0     C28847   1.988   5.535   8.503  1.0167 -0.2739 -0.1492
  955MOL0     C28848   2.012   5.530   8.647  0.3600  0.5440 -0.1772
  955MOL0     O28849   2.144   5.515   8.690  0.2345 -0.3213  0.9101
  955MOL0     C28850   2.199   5.586   8.796 -0.2333 -1.0666  0.3324
  955MOL0     C28851   2.346   5.584   8.816  0.2095  0.4116  1.3853
  955MOL0     C28852   2.410   5.441   8.808 -0.0409 -0.1815  0.9199
  955MOL0     C28853   2.554   5.444   8.781  0.6115  0.2030 -0.2056
  955MOL0     C28854   2.605   5.306   8.812 -0.1846  0.4276  0.6190
  955MOL0     C28855   2.641   5.193   8.826  0.1954  0.4942 -0.5103
  955MOL0     C28856   1.902   5.522   8.737  0.0415  0.6002  0.0106
  955MOL0     C28857   1.771   5.537   8.680  0.0345 -0.6452 -0.6141
  955MOL0     H28858   1.339   5.639   8.755  2.1016 -0.4639 -0.8403
  955MOL0     H28859   1.093   5.627   8.738 -2.2725 -2.4153 -0.9433
  955MOL0     H28860   0.920   5.480   8.708 -0.2973  1.6294  0.9255
  955MOL0     H28861   0.858   5.637   8.669  2.7889 -0.8001  1.8211
  955MOL0     H28862   0.693   5.578   8.527  0.7878  0.5471  1.0460
  955MOL0     H28863   0.748   5.398   8.533 -1.4135 -1.8760  1.6212
  955MOL0     H28864   0.690   5.390   8.754 -0.0980 -0.5962  0.3558
  955MOL0     H28865   0.674   5.561   8.772 -0.5718 -0.8493  1.4153
  955MOL0     H28866   0.470   5.554   8.617  0.6694 -1.3652 -1.6065
  955MOL0     H28867   0.477   5.379   8.621 -1.0603  1.6839 -1.4607
  955MOL0     H28868   0.429   5.377   8.854  1.0329 -0.6964 -2.0439
  955MOL0     H28869   0.425   5.555   8.863 -1.4006 -0.9204  2.1453
  955MOL0     H28870   0.236   5.563   8.711  1.8090  2.2308  3.7729
  955MOL0     H28871   0.238   5.374   8.717  1.2124 -1.7282  1.7354
  955MOL0     H28872   0.170   5.369   8.931 -0.7801 -1.0175 -1.0670
  955MOL0     H28873   0.196   5.551   8.942  0.1838  0.3756 -1.3618
  955MOL0     H28874   0.012   5.442   8.732  0.2412 -0.7004  0.6572
  955MOL0     H28875   0.005   5.596   8.834 -0.3294 -0.4027  2.9110
  955MOL0     H28876  -0.145   5.571   9.048  2.8296  0.3634  0.4693
  955MOL0     H28877  -0.420   5.298   9.134 -1.6006  2.7501 -2.1260
  955MOL0     H28878  -0.310   5.363   9.252  0.3538 -0.3247  1.1928
  955MOL0     H28879  -0.472   5.522   9.044 -4.0289 -0.9730  1.5906
  955MOL0     H28880  -0.354   5.587   9.165 -0.3475 -0.5940  1.4673
  955MOL0     H28881  -0.494   5.531   9.342 -1.3109  0.3656  0.3371
  955MOL0     H28882  -0.561   5.395   9.257  1.6236 -0.4585  0.4260
  955MOL0     H28883  -0.725   5.590   9.308 -1.0240 -0.2434 -0.1878
  955MOL0     H28884  -0.714   5.518   9.145  1.8678 -3.2755 -0.2037
  955MOL0     H28885  -0.573   5.921   9.060 -0.2226 -2.0535 -1.4790
  955MOL0     H28886  -0.764   6.175   8.929 -0.2016  1.9462  1.3870
  955MOL0     H28887  -0.687   6.210   9.088 -2.2992  0.4886 -0.4587
  955MOL0     H28888  -0.602   6.112   8.961  0.3007 -2.2236  0.5542
  955MOL0     H28889  -0.991   6.430   8.990 -1.0808  2.2196  0.2828
  955MOL0     H28890  -1.190   6.589   8.954  0.4911 -1.0611  1.7170
  955MOL0     H28891  -1.448   6.508   8.639  0.2315  0.3771  0.1260
  955MOL0     H28892  -1.563   6.431   8.743 -0.2992  0.2150 -1.8101
  955MOL0     H28893  -1.657   6.657   8.807 -0.3944  1.0134  0.3104
  955MOL0     H28894  -1.526   6.740   8.734 -2.2935  1.9550  0.7747
  955MOL0     H28895  -1.755   6.590   8.626  0.7619 -1.0101  1.6198
  955MOL0     H28896  -1.609   6.615   8.524  1.5269  2.7488 -0.1446
  955MOL0     H28897  -1.771   6.820   8.676  1.9065 -1.9969  1.9673
  955MOL0     H28898  -1.623   6.870   8.579 -1.1909  3.0302  1.0814
  955MOL0     H28899  -1.769   6.756   8.382 -2.0394  2.7541 -2.8412
  955MOL0     H28900  -1.775   6.926   8.426 -1.1335 -0.8648 -0.2706
  955MOL0     H28901  -1.947   6.694   8.530 -0.6569  0.3004 -2.0170
  955MOL0     H28902  -1.986   6.866   8.557  0.3313  1.9677 -1.2254
  955MOL0     H28903  -1.966   6.860   8.287  2.1642  0.2280  1.5253
  955MOL0     H28904  -2.117   6.831   8.389 -0.9334 -2.4281 -0.8895
  955MOL0     H28905  -2.112   6.637   8.224 -0.5914  1.1720  0.0939
  955MOL0     H28906  -2.093   6.601   8.397 -1.6962  2.2624  1.0958
  955MOL0     H28907  -1.416   6.258   8.789  0.2227 -1.0187  1.4135
  955MOL0     H28908  -1.235   6.115   8.817 -0.7831  1.0197 -0.6575
  955MOL0     H28909  -1.048   5.858   9.161  0.4711 -0.9911  0.2254
  955MOL0     H28910  -0.904   5.694   9.217  1.7872 -1.2661  0.0833
  955MOL0     H28911   1.135   5.493   8.335 -3.4813 -1.7144  2.6249
  955MOL0     H28912   1.369   5.497   8.352 -1.6822 -1.9521 -0.7416
  955MOL0     H28913   1.841   5.573   8.347  2.5441 -0.5595 -0.7052
  955MOL0     H28914   2.074   5.527   8.438 -0.0793 -2.3202 -1.4638
  955MOL0     H28915   2.185   5.691   8.771 -1.4698 -1.0283  1.1212
  955MOL0     H28916   2.155   5.570   8.895  0.7901 -0.3518  0.9203
  955MOL0     H28917   2.369   5.624   8.915  0.4891  0.3846  1.3350
  955MOL0     H28918   2.400   5.639   8.738 -0.9611  2.2302  1.8130
  955MOL0     H28919   2.370   5.393   8.719  1.1145 -0.6187  0.6158
  955MOL0     H28920   2.391   5.376   8.893  0.4839 -1.5356  0.0233
  955MOL0     H28921   2.611   5.518   8.838 -0.4676  1.8117 -1.1559
  955MOL0     H28922   2.581   5.462   8.677  3.7682  3.2549  0.9046
  955MOL0     H28923   2.655   5.091   8.854 -0.8233  1.3076  3.5896
  955MOL0     H28924   1.909   5.499   8.843 -0.4231  2.7798  0.5590
  955MOL0     H28925   1.696   5.538   8.758  0.5663 -1.0814 -0.0866
  956MOL0     O28926   4.580  10.258   9.660 -0.8256  0.9823 -0.3009
  956MOL0     C28927   4.606  10.172   9.750 -0.0941  0.0568 -0.2545
  956MOL0     O28928   4.509  10.111   9.828 -0.2259 -0.2586 -0.3211
  956MOL0     C28929   4.381  10.133   9.797  0.1092 -1.6990 -0.0644
  956MOL0     C28930   4.318  10.257   9.847 -0.4319  0.1866 -0.1382
  956MOL0     C28931   4.178  10.287   9.828 -0.7843  0.3319  0.0261
  956MOL0     C28932   4.100  10.205   9.748 -0.2174  0.8907  0.0629
  956MOL0     O28933   3.966  10.227   9.732 -0.1466  0.7373  0.0471
  956MOL0     C28934   3.899  10.177   9.618  0.7143 -0.2566 -0.1745
  956MOL0     C28935   3.775  10.261   9.613 -0.3102 -0.1833 -0.8630
  956MOL0     C28936   3.688  10.230   9.493  0.2588 -0.3228 -0.1870
  956MOL0     C28937   3.567  10.316   9.485  0.0478  0.4973 -0.5430
  956MOL0     C28938   3.487  10.279   9.358 -1.2475 -1.0673 -0.3965
  956MOL0     C28939   3.548  10.325   9.228 -0.6280  0.8156 -0.0735
  956MOL0     C28940   3.553  10.481   9.221 -0.1643 -0.1960  0.0560
  956MOL0     C28941   3.570  10.504   9.067  0.5194  0.2674 -0.2710
  956MOL0     N28942   3.698  10.461   9.005  0.5211  1.3145  0.1963
  956MOL0     C28943   3.830  10.506   9.038 -0.8180 -0.0050  0.5033
  956MOL0     C28944   3.909  10.408   8.981  0.7653 -0.2125 -0.8811
  956MOL0     C28945   4.052  10.380   9.016 -0.7845  0.1109  0.2469
  956MOL0     C28946   4.153  10.503   9.006 -0.5573 -0.5275 -0.3127
  956MOL0     C28947   4.160  10.562   8.873  0.8007 -0.2621  0.3461
  956MOL0     C28948   4.238  10.478   8.773 -0.3458  0.3344  0.5155
  956MOL0     O28949   4.250  10.537   8.644 -0.4270  0.3757 -0.6356
  956MOL0     C28950   4.163  10.492   8.548  0.0284  0.4747  0.1885
  956MOL0     C28951   4.199  10.531   8.419 -0.5745  0.4935 -0.7918
  956MOL0     C28952   4.136  10.472   8.309  0.1418 -0.3894  0.9822
  956MOL0     C28953   4.195  10.510   8.171  0.2053 -0.2275 -0.0920
  956MOL0     C28954   4.017  10.385   8.332  0.7385 -0.1634  0.1929
  956MOL0     C28955   3.943  10.319   8.226  0.1446  0.1683 -0.7010
  956MOL0     O28956   3.807  10.301   8.248 -0.5071 -0.0522  0.2144
  956MOL0     C28957   3.726  10.224   8.164  0.3285 -0.3639 -0.0476
  956MOL0     C28958   3.599  10.273   8.121  0.0262  0.6934  0.0391
  956MOL0     C28959   3.521  10.194   8.041  0.6278 -0.6961  0.7386
  956MOL0     C28960   3.572  10.082   7.984  0.1582 -1.2503 -0.2908
  956MOL0     O28961   3.473  10.012   7.930  0.7332 -0.2592 -0.4635
  956MOL0     C28962   3.508   9.876   7.893  0.1361  0.1969  0.6406
  956MOL0     C28963   3.394   9.804   7.823 -0.0830  0.0756 -0.0271
  956MOL0     C28964   3.443   9.656   7.794 -0.5429 -0.1559 -0.9102
  956MOL0     C28965   3.446   9.556   7.903  1.1363 -0.2801 -0.9125
  956MOL0     C28966   3.312   9.535   7.986 -0.6569  0.4970 -0.2612
  956MOL0     C28967   3.334   9.396   8.050 -0.2642 -0.4419 -0.3766
  956MOL0     C28968   3.230   9.374   8.158  0.0397  0.2612  1.5952
  956MOL0     C28969   3.084   9.353   8.104  1.0672 -1.0734  0.9804
  956MOL0    Cl28970   2.975   9.301   8.238  0.0791  0.0966  0.0521
  956MOL0     C28971   3.703  10.038   8.009  0.2898  0.3303 -0.1414
  956MOL0     C28972   3.774  10.109   8.095 -0.4090  0.0378 -0.3384
  956MOL0     O28973   3.999  10.283   8.124  0.1989 -0.8071  0.9434
  956MOL0     C28974   3.978  10.371   8.461 -0.0370  0.5568 -1.6815
  956MOL0     C28975   4.049  10.412   8.570 -0.2334 -0.8718  0.2282
  956MOL0     N28976   3.828  10.306   8.931  0.2543 -0.2628  0.7603
  956MOL0     N28977   3.703  10.337   8.938 -0.7544  0.6787  0.2826
  956MOL0     C28978   4.165  10.093   9.693 -0.0440  0.0987 -0.6775
  956MOL0     C28979   4.299  10.050   9.720 -0.0268 -1.1911 -0.3279
  956MOL0     C28980   4.747  10.127   9.760  0.9123  0.1952  0.0664
  956MOL0     C28981   4.850  10.176   9.679  0.0226 -0.7257  0.0746
  956MOL0     C28982   4.978  10.123   9.684 -0.4263 -0.0075  0.4640
  956MOL0     C28983   5.013  10.024   9.780  0.3756 -0.6681 -0.5779
  956MOL0     O28984   5.150  10.001   9.791 -0.4016  0.1203  0.8285
  956MOL0     C28985   5.190   9.903   9.881  0.5108 -0.5186  0.1097
  956MOL0     C28986   5.349   9.918   9.907  0.3574 -0.2239 -0.2785
  956MOL0     C28987   5.437   9.886   9.779 -0.0463 -0.5948 -0.0827
  956MOL0     C28988   5.581   9.923   9.795 -0.3567  1.4271 -0.1386
  956MOL0     C28989   5.648   9.821   9.885 -0.3473  0.4606  0.2440
  956MOL0     C28990   5.708   9.745   9.956 -0.5676  0.6412 -0.3862
  956MOL0     C28991   4.903   9.969   9.855 -0.4278 -0.5220 -0.5102
  956MOL0     C28992   4.775  10.022   9.845  0.0597 -0.3041  0.3643
  956MOL0     H28993   4.371  10.337   9.898 -0.8123  1.6777 -1.9491
  956MOL0     H28994   4.130  10.373   9.874  0.3150  0.8377  0.2444
  956MOL0     H28995   3.968  10.190   9.534  3.8465  0.1367  2.2801
  956MOL0     H28996   3.882  10.069   9.629  1.6691 -0.1551  4.5899
  956MOL0     H28997   3.725  10.249   9.710 -2.9452  2.7255 -1.7083
  956MOL0     H28998   3.807  10.365   9.607  0.4102 -0.2979  0.5626
  956MOL0     H28999   3.746  10.231   9.401  0.8810 -1.6147  0.1636
  956MOL0     H29000   3.653  10.126   9.496 -1.3384  0.1614 -0.8657
  956MOL0     H29001   3.496  10.286   9.563  1.3731  0.9856  0.9181
  956MOL0     H29002   3.590  10.423   9.486  1.5504  0.2026 -1.0556
  956MOL0     H29003   3.485  10.170   9.351 -0.9272 -0.9859 -2.1348
  956MOL0     H29004   3.386  10.319   9.370 -2.2873 -3.7954  0.6976
  956MOL0     H29005   3.647  10.284   9.206 -0.4568 -0.5431  2.8832
  956MOL0     H29006   3.485  10.282   9.149  0.9013  1.5072 -1.7331
  956MOL0     H29007   3.463  10.532   9.257 -0.4248  0.0198 -0.8848
  956MOL0     H29008   3.638  10.528   9.271 -2.4642  1.5996  2.5913
  956MOL0     H29009   3.575  10.612   9.049  0.0499  0.2681 -0.4144
  956MOL0     H29010   3.487  10.472   9.003 -0.4225  2.4843 -0.2283
  956MOL0     H29011   3.871  10.575   9.110 -1.7043  1.7006 -0.5677
  956MOL0     H29012   4.068  10.331   9.113 -0.2824 -2.5675 -1.1007
  956MOL0     H29013   4.091  10.309   8.942  1.3221  0.1598  1.2337
  956MOL0     H29014   4.252  10.471   9.039 -0.5921  0.6151  1.0105
  956MOL0     H29015   4.118  10.576   9.080  0.3985  0.4298 -0.7772
  956MOL0     H29016   4.224  10.651   8.879 -0.4569  0.6713  0.5885
  956MOL0     H29017   4.062  10.587   8.832 -0.4609 -1.9721  2.1155
  956MOL0     H29018   4.201  10.376   8.759  0.9972  0.0787 -1.6373
  956MOL0     H29019   4.333  10.470   8.826 -1.7748 -1.2436  3.0200
  956MOL0     H29020   4.270  10.612   8.410 -1.8889  2.3920  3.3462
  956MOL0     H29021   4.115  10.522   8.097 -0.3574 -2.0032  0.1895
  956MOL0     H29022   4.249  10.605   8.176  3.5033 -1.8421 -1.9277
  956MOL0     H29023   4.276  10.441   8.146  1.1023  0.8491 -0.2462
  956MOL0     H29024   3.569  10.373   8.153 -0.2434  2.0527 -3.8775
  956MOL0     H29025   3.420  10.224   8.015  1.7765  2.3615 -0.6209
  956MOL0     H29026   3.587   9.877   7.817 -1.1739 -0.0793 -0.7757
  956MOL0     H29027   3.543   9.823   7.982 -0.4073 -1.4014 -0.0510
  956MOL0     H29028   3.302   9.798   7.881  1.9369 -1.3016  3.3358
  956MOL0     H29029   3.368   9.864   7.736  3.0209  1.5647 -0.0604
  956MOL0     H29030   3.543   9.659   7.751 -0.3156 -0.2782 -0.3938
  956MOL0     H29031   3.377   9.620   7.714 -2.4058  0.1906  0.4147
  956MOL0     H29032   3.465   9.459   7.857  0.6228 -0.4232 -0.8330
  956MOL0     H29033   3.529   9.579   7.970  0.7925  1.2276 -0.9746
  956MOL0     H29034   3.228   9.532   7.916 -0.7234  0.3540 -0.1762
  956MOL0     H29035   3.285   9.615   8.056 -4.1713  0.2054 -1.1199
  956MOL0     H29036   3.338   9.310   7.981  0.9095 -1.2061  0.6008
  956MOL0     H29037   3.430   9.403   8.102 -0.9963 -2.4875  1.4341
  956MOL0     H29038   3.234   9.450   8.236  0.9958  2.8450 -0.8008
  956MOL0     H29039   3.250   9.273   8.195 -2.6841 -0.9064  0.1831
  956MOL0     H29040   3.076   9.275   8.028 -3.1549 -0.6521  0.7526
  956MOL0     H29041   3.036   9.440   8.056  2.4030 -1.0806 -0.4347
  956MOL0     H29042   3.740   9.947   7.964 -2.7987 -0.5135 -1.2299
  956MOL0     H29043   3.875  10.078   8.118 -0.3161  1.2973  1.1014
  956MOL0     H29044   3.895  10.306   8.488  1.4560 -0.3305  1.2054
  956MOL0     H29045   4.002  10.390   8.666 -1.1541 -0.4360 -0.1161
  956MOL0     H29046   4.094  10.042   9.629  0.7732 -1.9953 -0.0163
  956MOL0     H29047   4.342   9.958   9.682  3.3371 -1.0230  2.4656
  956MOL0     H29048   4.838  10.251   9.602 -0.9824 -0.3378  0.6059
  956MOL0     H29049   5.059  10.160   9.623  0.4034 -1.6842  0.5067
  956MOL0     H29050   5.139   9.913   9.977 -1.5386  0.0242 -0.9645
  956MOL0     H29051   5.163   9.801   9.854  1.4744 -0.1065 -2.7710
  956MOL0     H29052   5.372   9.849   9.990 -3.0469  1.6864  2.5146
  956MOL0     H29053   5.372  10.014   9.953  4.5155 -1.7666  1.3536
  956MOL0     H29054   5.385   9.937   9.697  1.2668  0.1801 -0.4599
  956MOL0     H29055   5.428   9.781   9.750 -1.0431  0.0326 -2.2778
  956MOL0     H29056   5.593  10.025   9.834  0.3636  0.5775  1.9883
  956MOL0     H29057   5.629   9.905   9.698  2.6435 -2.3103  1.7647
  956MOL0     H29058   5.755   9.675  10.022  0.4503  1.8703  0.2338
  956MOL0     H29059   4.920   9.898   9.935 -2.0984 -1.5877 -1.0358
  956MOL0     H29060   4.704   9.988   9.920 -1.8523  0.5137 -0.9778
  957MOL0     O29061   7.666  11.123   1.927  0.0770 -0.3665 -0.7211
  957MOL0     C29062   7.714  11.010   1.888  1.0323 -0.1726 -1.3051
  957MOL0     O29063   7.668  10.891   1.918 -0.0633 -0.6568 -0.2684
  957MOL0     C29064   7.561  10.889   2.000  0.0987 -0.3194 -0.5756
  957MOL0     C29065   7.431  10.891   1.948  0.4212 -0.1619  0.5596
  957MOL0     C29066   7.325  10.874   2.041 -0.1234  0.5682  0.2157
  957MOL0     C29067   7.345  10.868   2.183  0.0611 -0.5211  0.2143
  957MOL0     O29068   7.248  10.851   2.284 -0.2973  0.0943  0.5358
  957MOL0     C29069   7.132  10.931   2.281  0.7883 -0.5011 -0.1152
  957MOL0     C29070   7.057  10.898   2.408  1.0390  0.6919 -0.0245
  957MOL0     C29071   6.916  10.959   2.408 -0.0896  0.0426  0.4910
  957MOL0     C29072   6.837  10.915   2.529 -0.1003 -0.0328 -0.8916
  957MOL0     C29073   6.686  10.938   2.532 -0.7079  0.7072 -0.4930
  957MOL0     C29074   6.651  11.082   2.525 -0.8184 -0.1281  0.0451
  957MOL0     C29075   6.507  11.086   2.563 -0.2729  0.3727  0.4997
  957MOL0     C29076   6.451  11.228   2.553 -0.0375  0.6796  0.0799
  957MOL0     N29077   6.306  11.229   2.583 -0.2988  0.7899 -0.9943
  957MOL0     C29078   6.251  11.218   2.702  1.0471  0.8579 -0.0020
  957MOL0     C29079   6.119  11.256   2.684 -0.1693  0.3908  0.3442
  957MOL0     C29080   6.010  11.226   2.783  0.1814  0.4131  0.0862
  957MOL0     C29081   5.947  11.351   2.846  0.7325 -0.6459 -0.4643
  957MOL0     C29082   5.823  11.319   2.918  0.7696 -0.0360 -0.3268
  957MOL0     C29083   5.764  11.437   2.990  0.4732 -0.6848 -0.1044
  957MOL0     O29084   5.728  11.540   2.902 -0.0668 -0.8824 -1.0457
  957MOL0     C29085   5.600  11.546   2.843  0.0253  0.8187  0.1406
  957MOL0     C29086   5.571  11.659   2.776 -0.2062  0.0063 -0.1299
  957MOL0     C29087   5.438  11.675   2.719  0.3312 -0.0636 -0.5296
  957MOL0     C29088   5.426  11.800   2.639 -0.7976 -0.0017 -0.1014
  957MOL0     C29089   5.336  11.579   2.741  0.2808 -0.6766 -0.5217
  957MOL0     C29090   5.194  11.605   2.699  0.5953 -1.0118 -0.0934
  957MOL0     O29091   5.140  11.520   2.614 -0.1700  0.3089  0.4857
  957MOL0     C29092   5.007  11.516   2.582 -0.1799  0.1713 -0.8523
  957MOL0     C29093   4.966  11.387   2.542  0.9765 -0.0191 -1.2207
  957MOL0     C29094   4.827  11.363   2.523 -0.5059  0.0140 -0.4449
  957MOL0     C29095   4.724  11.460   2.537  0.6362  0.1159 -0.0306
  957MOL0     O29096   4.596  11.426   2.514 -0.0079  1.1172  0.5712
  957MOL0     C29097   4.569  11.366   2.379 -0.6305  0.2458 -1.0964
  957MOL0     C29098   4.425  11.402   2.330  0.3617 -0.5608 -0.5139
  957MOL0     C29099   4.320  11.315   2.408 -0.3344  0.3187  0.2011
  957MOL0     C29100   4.180  11.328   2.349  0.3473  0.2545  0.0307
  957MOL0     C29101   4.124  11.463   2.370  0.1773 -0.0556 -0.2981
  957MOL0     C29102   3.978  11.481   2.323 -0.5169  0.5216 -0.3680
  957MOL0     C29103   3.929  11.622   2.371 -0.0767 -0.7220 -0.3062
  957MOL0     C29104   3.789  11.644   2.317 -0.2324 -0.4825  0.8326
  957MOL0    Cl29105   3.789  11.624   2.140  0.2197  0.0051 -0.0117
  957MOL0     C29106   4.769  11.578   2.577  0.1896 -0.0433 -0.2029
  957MOL0     C29107   4.904  11.610   2.608  0.0812 -0.4157  0.3055
  957MOL0     O29108   5.131  11.702   2.755 -0.9621 -0.2273 -0.1470
  957MOL0     C29109   5.364  11.463   2.817 -0.8732 -0.3238  0.0855
  957MOL0     C29110   5.506  11.446   2.859  0.1678  0.8496 -0.2104
  957MOL0     N29111   6.101  11.304   2.555 -0.3968  0.5259  0.4327
  957MOL0     N29112   6.215  11.284   2.499 -0.4417  0.4485 -0.1033
  957MOL0     C29113   7.471  10.877   2.231 -0.0016  0.2581 -0.2098
  957MOL0     C29114   7.577  10.879   2.138  0.0716  0.0525  0.9474
  957MOL0     C29115   7.847  11.023   1.822  0.1672 -0.4630  0.0134
  957MOL0     C29116   7.913  10.914   1.770 -0.1185  0.0565 -0.2140
  957MOL0     C29117   8.031  10.928   1.690 -0.9294 -0.1864  0.6161
  957MOL0     C29118   8.084  11.053   1.661  0.6570 -0.3725  0.5908
  957MOL0     O29119   8.202  11.082   1.594 -0.3677 -0.2118 -0.1650
  957MOL0     C29120   8.287  10.989   1.524 -0.5796  0.3526  0.0293
  957MOL0     C29121   8.433  10.984   1.567  0.3600 -0.2684  0.5408
  957MOL0     C29122   8.440  10.950   1.724  0.2720 -0.1524  0.0184
  957MOL0     C29123   8.583  10.984   1.777 -0.3885 -0.4580 -0.1404
  957MOL0     C29124   8.688  10.900   1.704  0.7040  0.2491 -0.6793
  957MOL0     C29125   8.774  10.846   1.636 -0.4254 -0.1979  0.1812
  957MOL0     C29126   8.021  11.163   1.713 -0.8165  0.0106  0.2421
  957MOL0     C29127   7.911  11.154   1.799  2.0985  0.2757  0.1965
  957MOL0     H29128   7.405  10.893   1.842 -0.3771 -0.9449  0.7240
  957MOL0     H29129   7.230  10.863   1.990 -0.1360  1.4209  0.0478
  957MOL0     H29130   7.159  11.037   2.278  1.2113 -0.6004  0.1005
  957MOL0     H29131   7.073  10.903   2.194 -0.3097  1.5411 -0.0991
  957MOL0     H29132   7.052  10.789   2.423  1.9672  0.8057  1.3442
  957MOL0     H29133   7.112  10.933   2.496  2.0802 -1.6023  0.3321
  957MOL0     H29134   6.916  11.068   2.404 -3.1412  0.1413  1.0242
  957MOL0     H29135   6.862  10.924   2.320  1.1392 -2.1906  0.5516
  957MOL0     H29136   6.851  10.808   2.546 -0.0490 -0.5430 -3.7324
  957MOL0     H29137   6.887  10.965   2.613 -1.9130 -0.3860  0.4596
  957MOL0     H29138   6.632  10.887   2.451 -1.0226 -1.0348  0.7351
  957MOL0     H29139   6.649  10.890   2.624 -1.7238  0.3628 -1.0567
  957MOL0     H29140   6.710  11.144   2.592  0.8029  2.5410 -3.4998
  957MOL0     H29141   6.677  11.117   2.424  2.5683 -1.2339  0.3888
  957MOL0     H29142   6.453  11.020   2.495 -0.6784 -0.1998  1.3542
  957MOL0     H29143   6.507  11.053   2.668 -0.8310  2.4632  1.2098
  957MOL0     H29144   6.467  11.265   2.451  0.6968  1.0033  0.3056
  957MOL0     H29145   6.500  11.293   2.625  1.1438 -0.6116  0.5049
  957MOL0     H29146   6.296  11.171   2.789  3.9259 -1.5704 -2.6055
  957MOL0     H29147   5.936  11.158   2.739 -1.0903  0.1692  2.4383
  957MOL0     H29148   6.053  11.176   2.870  2.8052  1.2620 -0.6362
  957MOL0     H29149   5.922  11.420   2.764 -2.3057 -1.8480 -0.6929
  957MOL0     H29150   6.017  11.405   2.910 -0.3895  1.4360 -0.9023
  957MOL0     H29151   5.837  11.239   2.991 -1.2914 -1.2955 -1.2398
  957MOL0     H29152   5.751  11.285   2.844 -0.4639 -0.1636  0.8843
  957MOL0     H29153   5.838  11.479   3.059 -0.4978 -2.8951  2.4483
  957MOL0     H29154   5.680  11.414   3.056 -0.6556  2.3137 -0.3244
  957MOL0     H29155   5.644  11.739   2.777 -1.3741  1.1501 -1.5411
  957MOL0     H29156   5.509  11.812   2.569  0.5846  0.3745  1.5444
  957MOL0     H29157   5.333  11.812   2.583 -1.5298 -0.7873  0.8803
  957MOL0     H29158   5.426  11.882   2.711 -3.3016 -1.1833  1.4093
  957MOL0     H29159   5.029  11.307   2.507 -0.2181 -0.6882 -1.9109
  957MOL0     H29160   4.806  11.262   2.489 -1.5399  0.2340 -0.4892
  957MOL0     H29161   4.643  11.405   2.308 -2.6833  3.2882 -1.7571
  957MOL0     H29162   4.573  11.257   2.391 -4.2384  0.1083  0.0745
  957MOL0     H29163   4.411  11.510   2.336  2.9605 -0.0961 -1.2103
  957MOL0     H29164   4.427  11.389   2.221 -1.3592  0.0345 -0.6428
  957MOL0     H29165   4.313  11.351   2.512  0.6557  1.0153  0.0385
  957MOL0     H29166   4.349  11.210   2.415 -1.3760  0.0123 -0.0126
  957MOL0     H29167   4.168  11.312   2.242 -1.5191  1.0157  0.0825
  957MOL0     H29168   4.106  11.256   2.385 -0.1476 -1.4229 -3.8773
  957MOL0     H29169   4.177  11.537   2.310  1.4332 -0.3827  0.3630
  957MOL0     H29170   4.129  11.480   2.478  2.2748  0.2777 -0.4152
  957MOL0     H29171   3.973  11.470   2.215  2.1438  0.3934 -0.5388
  957MOL0     H29172   3.922  11.394   2.359  1.3988 -1.7541 -2.5406
  957MOL0     H29173   3.994  11.703   2.338  1.7350 -0.6161  3.1560
  957MOL0     H29174   3.932  11.630   2.480 -1.4295 -0.5616 -0.2640
  957MOL0     H29175   3.739  11.736   2.348 -1.1702 -0.9308  0.6950
  957MOL0     H29176   3.736  11.552   2.344  0.6837 -1.0227  0.8246
  957MOL0     H29177   4.695  11.657   2.589 -0.3798 -0.2260 -2.1002
  957MOL0     H29178   4.924  11.712   2.637 -0.0918 -0.0560 -0.8021
  957MOL0     H29179   5.290  11.388   2.839 -1.1779  0.1429  0.6948
  957MOL0     H29180   5.535  11.367   2.928  0.4773  2.8570  2.1054
  957MOL0     H29181   7.475  10.876   2.339 -0.7995  0.0777 -0.1762
  957MOL0     H29182   7.678  10.886   2.176  0.4949  1.8278 -0.3586
  957MOL0     H29183   7.860  10.821   1.792  0.1119 -0.0638 -0.1613
  957MOL0     H29184   8.094  10.847   1.656 -1.3079 -0.3793  0.3721
  957MOL0     H29185   8.250  10.887   1.530 -1.5897  0.7253  0.3715
  957MOL0     H29186   8.270  11.010   1.418 -1.4197  0.2625  0.1364
  957MOL0     H29187   8.481  11.081   1.552  0.9229 -0.3887  1.5200
  957MOL0     H29188   8.472  10.905   1.502 -3.6848 -0.6881 -1.7505
  957MOL0     H29189   8.413  10.845   1.735  1.2249 -0.3750  0.3621
  957MOL0     H29190   8.364  11.012   1.773 -1.1147 -0.7810 -1.2774
  957MOL0     H29191   8.586  10.957   1.883 -1.1403 -1.9871 -0.4885
  957MOL0     H29192   8.591  11.093   1.770 -0.6983 -0.4702 -0.6973
  957MOL0     H29193   8.841  10.791   1.574  0.6763 -0.8512  1.8641
  957MOL0     H29194   8.058  11.264   1.699 -1.3374  0.2591  0.6014
  957MOL0     H29195   7.864  11.244   1.837  0.1431 -0.7043  0.2255
  958MOL0     O29196   4.254   6.457  11.244 -0.1459 -0.3671 -0.7265
  958MOL0     C29197   4.374   6.485  11.242  0.6325  0.4676 -0.3393
  958MOL0     O29198   4.421   6.606  11.288 -0.7285 -0.0400  0.3746
  958MOL0     C29199   4.332   6.705  11.326 -0.3492  0.2860  0.1405
  958MOL0     C29200   4.233   6.674  11.431 -0.1132 -0.4612  0.2335
  958MOL0     C29201   4.140   6.780  11.459 -0.7318  0.8522 -0.4402
  958MOL0     C29202   4.138   6.905  11.405 -0.1691  0.7939 -0.3680
  958MOL0     O29203   4.049   6.994  11.438  0.6727 -0.1605  0.0209
  958MOL0     C29204   3.976   6.995  11.561  0.1884 -0.3328 -0.4199
  958MOL0     C29205   3.926   7.137  11.572 -1.3847 -0.5686  0.6833
  958MOL0     C29206   3.877   7.162  11.712  0.0971 -0.0736  0.5263
  958MOL0     C29207   3.765   7.264  11.720  0.1400 -0.3833 -1.0791
  958MOL0     C29208   3.744   7.275  11.867  0.3043  1.0326  0.2801
  958MOL0     C29209   3.632   7.380  11.886 -0.8015 -0.2992 -0.0570
  958MOL0     C29210   3.602   7.402  12.033 -0.1949 -0.6102 -0.0504
  958MOL0     C29211   3.499   7.511  12.038 -0.3870 -0.2644 -0.0894
  958MOL0     N29212   3.366   7.475  11.988  0.6607  0.4376  0.5437
  958MOL0     C29213   3.282   7.377  12.031 -0.6432  0.3105 -0.2651
  958MOL0     C29214   3.178   7.381  11.943  0.4218  0.2269 -0.3497
  958MOL0     C29215   3.055   7.300  11.957  0.5727 -0.2728 -0.1264
  958MOL0     C29216   2.935   7.385  11.971 -0.0065 -0.1816  0.4728
  958MOL0     C29217   2.940   7.482  12.089  0.5340 -0.4369  1.3602
  958MOL0     C29218   2.807   7.551  12.117  0.5219  0.6446 -0.4017
  958MOL0     O29219   2.813   7.622  12.239 -1.1324 -0.0939  0.6461
  958MOL0     C29220   2.705   7.683  12.290 -0.1997  0.5969  0.4629
  958MOL0     C29221   2.717   7.756  12.409 -0.1230 -0.1799 -0.5232
  958MOL0     C29222   2.600   7.808  12.476 -0.6174 -1.1174 -0.2439
  958MOL0     C29223   2.634   7.874  12.608  0.0404  0.3093 -0.0258
  958MOL0     C29224   2.470   7.785  12.423  0.8026  0.0259 -0.1393
  958MOL0     C29225   2.352   7.848  12.472  0.2597  0.4920 -0.5231
  958MOL0     O29226   2.240   7.759  12.477 -0.1272  0.3788  0.0421
  958MOL0     C29227   2.116   7.807  12.517 -0.2168  0.3155  0.8699
  958MOL0     C29228   1.992   7.790  12.440 -0.4389 -0.4654 -0.3258
  958MOL0     C29229   1.872   7.841  12.497  0.1958  0.4726 -0.2101
  958MOL0     C29230   1.867   7.907  12.623  0.7360 -0.2368 -0.6899
  958MOL0     O29231   1.767   7.984  12.675  0.4684  1.3534  0.1164
  958MOL0     C29232   1.634   7.936  12.634  0.0349 -0.2064 -0.2985
  958MOL0     C29233   1.544   7.985  12.747  0.1069 -0.1383 -0.8776
  958MOL0     C29234   1.404   7.917  12.738  0.3242  0.4816 -0.0666
  958MOL0     C29235   1.336   7.929  12.594 -0.0860  0.8346 -0.9616
  958MOL0     C29236   1.183   7.902  12.610 -0.5303 -0.3658 -0.2583
  958MOL0     C29237   1.110   7.906  12.476 -0.4788 -0.0249 -0.6584
  958MOL0     C29238   1.157   7.796  12.389 -0.0039 -0.0419  0.9654
  958MOL0     C29239   1.058   7.786  12.276  0.4575  1.0578 -0.1250
  958MOL0    Cl29240   1.062   7.931  12.169 -0.2437  0.5166 -0.3689
  958MOL0     C29241   1.988   7.913  12.691  0.0313 -0.8324 -0.3574
  958MOL0     C29242   2.112   7.870  12.642  0.1120 -0.5538  0.3354
  958MOL0     O29243   2.343   7.968  12.476 -0.1361 -0.1313 -0.3264
  958MOL0     C29244   2.458   7.716  12.296  0.5776  0.3135 -0.6426
  958MOL0     C29245   2.577   7.670  12.233  0.0796 -0.6346  1.5413
  958MOL0     N29246   3.197   7.484  11.850  0.4234  0.2978 -0.3527
  958MOL0     N29247   3.311   7.539  11.879 -0.7977 -0.0974 -0.7510
  958MOL0     C29248   4.228   6.924  11.293  0.4142  0.6227 -0.0095
  958MOL0     C29249   4.326   6.830  11.259 -0.0251 -0.6272  0.3141
  958MOL0     C29250   4.470   6.383  11.206 -0.5524 -0.2123  0.6017
  958MOL0     C29251   4.435   6.269  11.133  0.5131  0.8868  0.0292
  958MOL0     C29252   4.521   6.163  11.107 -0.8637  1.0470 -0.0672
  958MOL0     C29253   4.651   6.182  11.152  0.8771 -0.5876  0.5093
  958MOL0     O29254   4.751   6.087  11.146 -0.4368 -0.5203  0.6591
  958MOL0     C29255   4.728   5.949  11.099  0.2450 -0.1479 -0.6435
  958MOL0     C29256   4.857   5.863  11.112  0.1692 -1.0302  0.2344
  958MOL0     C29257   4.837   5.735  11.206 -0.2447  0.7335 -1.1502
  958MOL0     C29258   4.829   5.605  11.144 -0.1320  0.0516  0.3655
  958MOL0     C29259   4.695   5.584  11.091 -0.7668 -0.5047 -0.8042
  958MOL0     C29260   4.581   5.572  11.053 -0.0446 -0.2889  0.2192
  958MOL0     C29261   4.694   6.298  11.218  0.5839  0.0637 -0.1115
  958MOL0     C29262   4.601   6.400  11.252  0.2996 -0.2221 -1.0310
  958MOL0     H29263   4.233   6.579  11.483 -0.3461  0.0529  1.1996
  958MOL0     H29264   4.058   6.748  11.522  1.8108 -0.1078  2.6122
  958MOL0     H29265   3.898   6.919  11.552  2.5152 -2.7867 -1.2290
  958MOL0     H29266   4.042   6.970  11.644 -0.1366 -0.7082 -0.2685
  958MOL0     H29267   4.006   7.205  11.541 -1.7695  0.0372  0.9902
  958MOL0     H29268   3.851   7.132  11.493  0.1261 -1.5202 -0.7334
  958MOL0     H29269   3.836   7.066  11.747  0.5598 -0.2163  0.6813
  958MOL0     H29270   3.966   7.174  11.775  0.5892 -2.2493  0.3512
  958MOL0     H29271   3.791   7.363  11.680  0.3682 -0.3730 -0.9085
  958MOL0     H29272   3.674   7.221  11.677 -1.9853  3.2530 -0.6595
  958MOL0     H29273   3.707   7.180  11.908 -2.9631  2.4790  0.9930
  958MOL0     H29274   3.834   7.307  11.920  0.8599  0.4598 -0.3024
  958MOL0     H29275   3.679   7.477  11.865 -1.5101  0.0447 -0.0677
  958MOL0     H29276   3.545   7.365  11.822 -0.1019  2.3298 -1.7960
  958MOL0     H29277   3.564   7.312  12.082 -2.0162  0.0735 -0.1249
  958MOL0     H29278   3.697   7.435  12.076  1.1020 -0.4996 -2.7539
  958MOL0     H29279   3.538   7.608  12.004  1.4824 -0.9208  0.0619
  958MOL0     H29280   3.493   7.523  12.147 -1.1753 -3.3139  0.2962
  958MOL0     H29281   3.296   7.317  12.120 -0.7014 -0.3120 -0.6699
  958MOL0     H29282   3.038   7.237  11.869  0.3920  0.7876 -0.8618
  958MOL0     H29283   3.051   7.240  12.048 -0.4932  2.4866  1.7719
  958MOL0     H29284   2.851   7.315  11.976 -1.7350  1.7601 -0.1140
  958MOL0     H29285   2.922   7.439  11.877 -1.6488  3.0578  2.3762
  958MOL0     H29286   3.011   7.563  12.069 -0.1351  0.4287  2.3874
  958MOL0     H29287   2.962   7.420  12.176  2.1311 -0.2550  1.1082
  958MOL0     H29288   2.736   7.468  12.124  0.4364  0.5257 -2.1730
  958MOL0     H29289   2.778   7.606  12.027 -0.4070  1.8020  0.5834
  958MOL0     H29290   2.821   7.769  12.439 -0.9943  0.6717  2.5703
  958MOL0     H29291   2.591   7.806  12.682  1.0768 -0.2238  0.0965
  958MOL0     H29292   2.739   7.888  12.633  0.0490  1.1183 -0.4999
  958MOL0     H29293   2.592   7.974  12.614 -2.2426 -0.6949  2.9974
  958MOL0     H29294   1.993   7.736  12.346  2.0225 -1.3568  0.1194
  958MOL0     H29295   1.785   7.827  12.434  0.8766  0.6963 -1.2210
  958MOL0     H29296   1.597   7.984  12.543 -0.6434  1.5388  0.8420
  958MOL0     H29297   1.632   7.826  12.632  1.3114 -0.2316 -1.1771
  958MOL0     H29298   1.591   7.964  12.844 -1.2840 -0.5419 -0.2632
  958MOL0     H29299   1.524   8.092  12.740 -1.7585 -0.2510  1.3553
  958MOL0     H29300   1.333   7.964  12.807 -0.6363  1.7698 -1.8400
  958MOL0     H29301   1.422   7.814  12.767  4.5136  1.8395  3.0925
  958MOL0     H29302   1.342   8.031  12.554  3.2962  1.4123  0.6201
  958MOL0     H29303   1.380   7.858  12.523  2.7891  0.4745  1.0071
  958MOL0     H29304   1.142   7.978  12.677  0.5006 -0.6672  0.7402
  958MOL0     H29305   1.166   7.803  12.653  0.9240  0.6025  2.8180
  958MOL0     H29306   1.001   7.901  12.484 -0.5324  1.5228 -0.1268
  958MOL0     H29307   1.117   8.010  12.442  0.1182  0.6421  1.3820
  958MOL0     H29308   1.177   7.702  12.440  2.6205 -0.1980 -0.1859
  958MOL0     H29309   1.252   7.814  12.337  0.0811  2.2498  1.8209
  958MOL0     H29310   0.956   7.774  12.315  1.7977  1.6480  4.1374
  958MOL0     H29311   1.082   7.705  12.207 -0.1448  2.1624 -1.6760
  958MOL0     H29312   1.982   7.968  12.785  0.3521 -1.2174 -0.1109
  958MOL0     H29313   2.204   7.888  12.696 -0.0025  1.7544 -0.1464
  958MOL0     H29314   2.355   7.706  12.266 -0.0307 -2.5657  1.8354
  958MOL0     H29315   2.571   7.623  12.136  0.6710  3.1443 -0.5243
  958MOL0     H29316   4.221   7.014  11.233 -2.5716 -0.5083 -1.5703
  958MOL0     H29317   4.391   6.851  11.175 -1.0888  1.7260 -0.0072
  958MOL0     H29318   4.333   6.246  11.105  0.2008  0.5046  1.3755
  958MOL0     H29319   4.481   6.069  11.070 -1.6519  2.2829 -2.6258
  958MOL0     H29320   4.647   5.907  11.159 -1.7348  1.3075 -2.1394
  958MOL0     H29321   4.706   5.948  10.991  0.3051  2.6641 -0.7676
  958MOL0     H29322   4.927   5.932  11.160 -0.6492 -0.2114  0.2709
  958MOL0     H29323   4.893   5.846  11.010 -1.2963  1.7500 -0.8354
  958MOL0     H29324   4.758   5.745  11.281  0.0081 -3.0616 -0.1816
  958MOL0     H29325   4.924   5.729  11.272 -2.0874 -1.0211  1.3141
  958MOL0     H29326   4.856   5.534  11.223  0.2258 -0.3495 -0.1154
  958MOL0     H29327   4.906   5.603  11.067  0.1531  2.0854  0.5251
  958MOL0     H29328   4.479   5.561  11.022  0.2845 -3.5694 -0.0371
  958MOL0     H29329   4.795   6.305  11.257  1.0323 -1.0960 -1.0193
  958MOL0     H29330   4.636   6.489  11.303 -2.9061 -0.1804  1.3944
  959MOL0     O29331   8.080   6.380   7.716 -0.0526 -0.1157  0.1418
  959MOL0     C29332   8.110   6.452   7.812 -0.2677 -0.5579  0.2018
  959MOL0     O29333   8.016   6.522   7.888 -0.3474 -0.1112 -0.1398
  959MOL0     C29334   7.891   6.480   7.902  0.7293  0.4520  0.0879
  959MOL0     C29335   7.854   6.342   7.905 -0.2514 -0.8307 -0.8333
  959MOL0     C29336   7.722   6.306   7.943  0.6279  0.5492  0.4348
  959MOL0     C29337   7.629   6.404   7.978  0.8516 -0.4926  0.5153
  959MOL0     O29338   7.495   6.377   8.013 -0.6578  0.9413 -0.0746
  959MOL0     C29339   7.450   6.242   7.969  1.2241 -0.5448  0.5314
  959MOL0     C29340   7.294   6.243   7.973  0.7003  0.5915  0.2131
  959MOL0     C29341   7.232   6.106   7.945  0.3722 -1.1637 -0.3481
  959MOL0     C29342   7.079   6.125   7.958  0.6238  0.6023 -0.0807
  959MOL0     C29343   7.001   6.001   7.939 -0.2164  0.2436  0.6230
  959MOL0     C29344   6.852   6.002   7.956  0.9816  0.0765 -0.5985
  959MOL0     C29345   6.796   6.108   7.860  0.3686  0.2367 -0.2046
  959MOL0     C29346   6.647   6.091   7.811  0.4595 -0.4561 -0.7306
  959MOL0     N29347   6.538   6.066   7.913  0.0349  0.0705 -0.1652
  959MOL0     C29348   6.480   5.944   7.939 -0.3301 -0.7855 -0.1069
  959MOL0     C29349   6.395   5.973   8.036  0.2856  0.2023  0.8972
  959MOL0     C29350   6.308   5.874   8.111 -0.2129  0.0089  0.5527
  959MOL0     C29351   6.220   5.803   8.011  0.7831  0.2422  0.2260
  959MOL0     C29352   6.145   5.676   8.068 -0.3222 -0.3759  0.4176
  959MOL0     C29353   6.067   5.596   7.960  0.1967 -0.6743  0.5703
  959MOL0     O29354   5.983   5.492   8.018 -0.0440 -0.6596 -0.1320
  959MOL0     C29355   5.850   5.518   8.028  0.1509  0.7601  0.0992
  959MOL0     C29356   5.787   5.625   8.088  0.9400 -0.2060  0.0141
  959MOL0     C29357   5.641   5.638   8.108  0.1931 -0.3417  0.4461
  959MOL0     C29358   5.584   5.738   8.194  0.3734  0.6086  0.6698
  959MOL0     C29359   5.565   5.539   8.043  0.0930  0.5244 -0.3584
  959MOL0     C29360   5.412   5.536   8.042  0.9498  0.1344  0.5882
  959MOL0     O29361   5.349   5.639   8.113 -0.3166 -0.0779  0.1541
  959MOL0     C29362   5.214   5.646   8.115  0.2546  0.7512  0.0997
  959MOL0     C29363   5.140   5.674   7.999  0.0031  0.4054  0.2605
  959MOL0     C29364   5.000   5.706   8.015  0.7211  0.5811  0.0836
  959MOL0     C29365   4.931   5.693   8.131  0.0370  0.6494 -0.1279
  959MOL0     O29366   4.799   5.717   8.161 -0.2887 -0.0921 -1.2094
  959MOL0     C29367   4.718   5.773   8.055 -0.2394  0.4076 -0.2702
  959MOL0     C29368   4.577   5.787   8.098 -0.6655  0.7713  0.6249
  959MOL0     C29369   4.560   5.880   8.218 -0.1898  0.0799 -0.3653
  959MOL0     C29370   4.405   5.905   8.245  0.1810  0.8893 -0.0170
  959MOL0     C29371   4.342   5.818   8.354 -0.2845 -0.7685 -0.3405
  959MOL0     C29372   4.186   5.835   8.369 -0.1289  0.7653  0.0106
  959MOL0     C29373   4.130   5.763   8.492 -0.7237 -1.1035  1.0084
  959MOL0     C29374   3.989   5.795   8.518 -0.5503 -0.0756  0.3721
  959MOL0    Cl29375   3.988   5.952   8.616 -0.0741 -0.1360 -0.0909
  959MOL0     C29376   5.002   5.654   8.243  0.2763 -0.3632 -0.3783
  959MOL0     C29377   5.141   5.631   8.242  0.2351 -0.7050 -0.5731
  959MOL0     O29378   5.351   5.440   7.991  0.2039 -0.2512  0.0247
  959MOL0     C29379   5.633   5.435   7.970  0.0632 -0.0018  0.6918
  959MOL0     C29380   5.770   5.419   7.969 -1.0237 -0.2669  1.0477
  959MOL0     N29381   6.396   6.105   8.060 -0.2892  0.2397  0.2170
  959MOL0     N29382   6.476   6.163   7.987 -0.1093 -0.1745 -0.3683
  959MOL0     C29383   7.663   6.546   7.966  0.2668  0.0268 -0.6712
  959MOL0     C29384   7.793   6.580   7.929  0.6653 -0.0670 -0.0293
  959MOL0     C29385   8.258   6.496   7.841  0.1284 -0.0064 -2.0592
  959MOL0     C29386   8.359   6.456   7.757 -0.0454  0.5086  0.2659
  959MOL0     C29387   8.498   6.484   7.779  0.9433 -0.2792  0.4359
  959MOL0     C29388   8.531   6.551   7.892  0.1229 -1.4166  0.1042
  959MOL0     O29389   8.662   6.591   7.923  0.0759  0.3528 -0.0574
  959MOL0     C29390   8.771   6.527   7.851  0.0496 -0.3551 -0.6924
  959MOL0     C29391   8.909   6.575   7.897  0.1651  0.4460  0.8412
  959MOL0     C29392   8.962   6.534   8.033  0.6925  0.2968  0.1512
  959MOL0     C29393   8.870   6.571   8.149 -0.3051  0.3981  0.3133
  959MOL0     C29394   8.933   6.574   8.278 -0.6009 -0.1852  0.0863
  959MOL0     C29395   8.992   6.583   8.391  0.4539 -0.8660  0.7983
  959MOL0     C29396   8.435   6.586   7.978  0.0238 -0.6235 -0.1695
  959MOL0     C29397   8.301   6.561   7.958 -0.2766 -0.4862  0.0158
  959MOL0     H29398   7.925   6.261   7.889  0.4838 -0.0868 -1.4416
  959MOL0     H29399   7.711   6.199   7.947 -0.0976  0.4584 -2.1563
  959MOL0     H29400   7.483   6.210   7.870 -1.0006 -1.1902 -0.0495
  959MOL0     H29401   7.490   6.171   8.043  2.4745  0.9276  1.3390
  959MOL0     H29402   7.258   6.274   8.071  0.5871 -1.0288  0.7084
  959MOL0     H29403   7.253   6.316   7.902 -0.6650 -0.4729 -0.1158
  959MOL0     H29404   7.260   6.073   7.845  3.5035 -0.1298  0.0639
  959MOL0     H29405   7.271   6.032   8.016  2.6928  1.8704  1.8156
  959MOL0     H29406   7.045   6.163   8.055  0.6314  2.0811 -0.6205
  959MOL0     H29407   7.045   6.205   7.891 -0.9511  0.6860  0.7631
  959MOL0     H29408   7.017   5.950   7.843 -0.4225 -1.1609  1.3042
  959MOL0     H29409   7.034   5.925   8.010 -1.1748 -1.8144 -1.0262
  959MOL0     H29410   6.815   5.902   7.931  1.3437  0.2803 -2.0437
  959MOL0     H29411   6.818   6.033   8.056 -0.3419  0.3066 -1.0966
  959MOL0     H29412   6.815   6.204   7.910 -1.5223 -0.0863  1.2773
  959MOL0     H29413   6.856   6.099   7.769 -0.7000 -0.9872 -0.8157
  959MOL0     H29414   6.642   6.015   7.733  1.9806 -0.9539 -0.3659
  959MOL0     H29415   6.619   6.189   7.771  0.8450 -0.4921 -1.0942
  959MOL0     H29416   6.503   5.855   7.881  1.2914 -0.0070 -0.7223
  959MOL0     H29417   6.381   5.802   8.150  0.3380  0.3841  0.2237
  959MOL0     H29418   6.251   5.919   8.192 -2.0264 -1.0984 -0.0371
  959MOL0     H29419   6.266   5.783   7.914 -1.3533 -0.3421 -0.7013
  959MOL0     H29420   6.139   5.869   7.981 -1.1528 -1.4689  1.4042
  959MOL0     H29421   6.069   5.708   8.139 -0.2200 -1.1683  0.8967
  959MOL0     H29422   6.216   5.604   8.110 -0.4961 -1.0674 -0.4447
  959MOL0     H29423   6.141   5.545   7.898 -0.7686 -1.9036  0.3961
  959MOL0     H29424   6.026   5.666   7.886  2.1573 -2.4935 -2.4355
  959MOL0     H29425   5.847   5.703   8.134  0.4496  0.5370 -0.5886
  959MOL0     H29426   5.665   5.783   8.253  0.6821 -0.1065  0.7969
  959MOL0     H29427   5.543   5.816   8.129  0.7027  0.5639  0.4039
  959MOL0     H29428   5.516   5.695   8.268 -0.0189 -2.6573 -1.3874
  959MOL0     H29429   5.192   5.682   7.904  0.7559  1.6591  0.7597
  959MOL0     H29430   4.952   5.757   7.931 -0.9375  2.8055  2.2256
  959MOL0     H29431   4.757   5.873   8.032 -0.5883  0.1273 -2.2679
  959MOL0     H29432   4.725   5.709   7.967 -0.8815  1.7230 -1.3213
  959MOL0     H29433   4.521   5.822   8.011 -0.1770  0.1992  0.0759
  959MOL0     H29434   4.537   5.688   8.121  4.9345 -2.4700 -1.6213
  959MOL0     H29435   4.613   5.975   8.200 -1.9384  1.5061  1.5019
  959MOL0     H29436   4.591   5.838   8.314 -0.9439 -1.7387 -0.8743
  959MOL0     H29437   4.402   6.009   8.277  2.1556 -0.0535  3.8513
  959MOL0     H29438   4.346   5.881   8.156  1.1784 -0.2121 -0.4126
  959MOL0     H29439   4.391   5.845   8.448 -2.3798 -1.1284  0.9162
  959MOL0     H29440   4.357   5.711   8.337 -0.6663 -1.0538  0.9805
  959MOL0     H29441   4.159   5.941   8.368 -2.0713  0.3084 -1.4742
  959MOL0     H29442   4.136   5.792   8.282  0.4464  0.5552 -0.2196
  959MOL0     H29443   4.185   5.774   8.586  0.3812  0.0789  0.2490
  959MOL0     H29444   4.130   5.657   8.466  1.5595 -0.9164  0.0662
  959MOL0     H29445   3.944   5.715   8.577 -1.8978  1.7566  1.9630
  959MOL0     H29446   3.930   5.802   8.426  1.5040 -0.0087 -0.9947
  959MOL0     H29447   4.953   5.642   8.340 -3.6010 -1.8695 -2.3153
  959MOL0     H29448   5.206   5.592   8.320  1.5765  0.5300 -1.0262
  959MOL0     H29449   5.583   5.369   7.900  0.2221  0.0373  0.5412
  959MOL0     H29450   5.817   5.332   7.926  0.5838  0.6464  0.8610
  959MOL0     H29451   7.591   6.624   7.986 -0.3079  0.7356 -4.7034
  959MOL0     H29452   7.817   6.686   7.940  0.3914 -0.1049  1.0011
  959MOL0     H29453   8.333   6.412   7.662 -0.5479  3.0246 -0.8480
  959MOL0     H29454   8.568   6.456   7.701  0.7349 -2.8648  1.0846
  959MOL0     H29455   8.769   6.419   7.864 -0.4845 -0.3309 -0.5481
  959MOL0     H29456   8.778   6.552   7.745  1.6451 -0.0092 -0.5312
  959MOL0     H29457   8.910   6.684   7.885  0.6544  0.1529 -3.4523
  959MOL0     H29458   8.979   6.537   7.821  0.0006  2.8610 -0.6518
  959MOL0     H29459   9.064   6.571   8.044  2.1278 -2.2204 -3.0295
  959MOL0     H29460   8.978   6.426   8.027  1.0205  0.2205  1.8789
  959MOL0     H29461   8.779   6.510   8.148 -0.6382  0.8909 -0.1277
  959MOL0     H29462   8.828   6.670   8.135 -0.7448 -0.0582 -1.9432
  959MOL0     H29463   9.034   6.588   8.490 -1.1865  1.3795  1.4729
  959MOL0     H29464   8.455   6.648   8.065 -0.2095  0.1733 -0.6703
  959MOL0     H29465   8.224   6.603   8.021 -0.5616 -0.4378 -0.3597
  960MOL0     O29466  11.166   1.974   1.081 -0.4586  0.4961  0.7905
  960MOL0     C29467  11.200   1.938   0.968 -0.4431  0.1997 -0.2997
  960MOL0     O29468  11.132   1.956   0.853 -0.4046 -0.1205 -0.2335
  960MOL0     C29469  10.993   1.958   0.873 -0.2834  0.3256 -0.6361
  960MOL0     C29470  10.924   2.074   0.903  0.3864 -0.0052  0.1420
  960MOL0     C29471  10.786   2.069   0.907  0.2673  0.3066 -0.1342
  960MOL0     C29472  10.715   1.950   0.879  0.1020 -0.2459 -0.0659
  960MOL0     O29473  10.577   1.935   0.879 -0.3352  0.3231 -0.2789
  960MOL0     C29474  10.512   2.009   0.983  0.3781 -0.4529 -0.1152
  960MOL0     C29475  10.456   2.140   0.932  0.0186  0.1744  0.1797
  960MOL0     C29476  10.343   2.121   0.832  1.0641  0.0549  0.2146
  960MOL0     C29477  10.322   2.259   0.760  0.5423  0.3422  1.1837
  960MOL0     C29478  10.210   2.244   0.658 -0.3906  0.6827 -0.3064
  960MOL0     C29479  10.184   2.371   0.579 -0.4361 -0.4046  0.5477
  960MOL0     C29480  10.057   2.368   0.495  0.2858 -0.1897  0.2759
  960MOL0     C29481   9.925   2.334   0.566  0.5352  0.1761  0.4461
  960MOL0     N29482   9.825   2.428   0.524  0.5883 -0.4771  0.2923
  960MOL0     C29483   9.759   2.431   0.399  0.8225  0.1269  0.3643
  960MOL0     C29484   9.665   2.524   0.414 -0.1005 -0.3154  0.3118
  960MOL0     C29485   9.575   2.575   0.307  0.0584 -0.6582  0.0086
  960MOL0     C29486   9.435   2.514   0.292 -0.5019 -0.0436 -0.4385
  960MOL0     C29487   9.457   2.368   0.253  0.0169 -0.4135 -0.3359
  960MOL0     C29488   9.321   2.297   0.261  0.3117 -0.2304 -0.5199
  960MOL0     O29489   9.280   2.267   0.401 -0.3205  0.0497 -0.5824
  960MOL0     C29490   9.184   2.339   0.468 -0.3815 -0.5131  0.1356
  960MOL0     C29491   9.101   2.436   0.402 -0.2288 -0.2773 -0.6842
  960MOL0     C29492   9.002   2.507   0.471 -0.5527  0.3027  0.7389
  960MOL0     C29493   8.927   2.607   0.386  0.3661  0.4712 -0.2113
  960MOL0     C29494   8.986   2.481   0.607  0.3808  0.3852 -0.0702
  960MOL0     C29495   8.884   2.551   0.698 -0.3921  0.2266 -0.2792
  960MOL0     O29496   8.895   2.530   0.835 -0.1372  0.3784 -0.0067
  960MOL0     C29497   8.819   2.614   0.908  0.2063  0.6462 -1.3179
  960MOL0     C29498   8.681   2.637   0.897 -0.1640 -0.8908 -0.0746
  960MOL0     C29499   8.621   2.723   0.994  0.2090 -0.1507 -0.8504
  960MOL0     C29500   8.703   2.800   1.082  0.4656  0.2091  0.4163
  960MOL0     O29501   8.636   2.902   1.141  0.3016 -0.0483 -0.4825
  960MOL0     C29502   8.720   3.002   1.218  0.1789  0.4849  0.8508
  960MOL0     C29503   8.622   3.120   1.245 -0.1931  0.5098 -0.9398
  960MOL0     C29504   8.563   3.180   1.121 -0.0038  0.2665  0.2747
  960MOL0     C29505   8.469   3.305   1.157 -1.0538 -0.2815  0.3086
  960MOL0     C29506   8.436   3.390   1.036  0.2199 -0.2983  0.2104
  960MOL0     C29507   8.551   3.484   0.985 -0.4466 -0.4200 -0.0978
  960MOL0     C29508   8.612   3.421   0.861 -0.0784  0.4155 -0.2917
  960MOL0     C29509   8.754   3.468   0.823  0.4526 -0.2610 -0.4482
  960MOL0    Cl29510   8.867   3.377   0.940  0.0611  0.1184 -0.5919
  960MOL0     C29511   8.836   2.782   1.091  0.1321  0.5738  0.3862
  960MOL0     C29512   8.895   2.685   1.008 -0.6092  0.0667 -0.7108
  960MOL0     O29513   8.791   2.613   0.646  0.1909 -0.6998  0.9889
  960MOL0     C29514   9.082   2.398   0.674 -0.3011  0.0508 -0.7849
  960MOL0     C29515   9.172   2.326   0.599 -0.7053 -0.5249  0.6540
  960MOL0     N29516   9.671   2.580   0.535 -1.1616 -0.7156 -0.5872
  960MOL0     N29517   9.769   2.526   0.604 -0.2620 -0.3402 -0.3999
  960MOL0     C29518  10.787   1.839   0.853  0.5530  0.9875 -0.3254
  960MOL0     C29519  10.922   1.842   0.840  0.8659 -0.0408  0.8055
  960MOL0     C29520  11.336   1.864   0.958  0.2831  0.0444  0.3382
  960MOL0     C29521  11.422   1.878   1.067 -0.4294  0.3496  0.5304
  960MOL0     C29522  11.553   1.839   1.049  0.6005  0.6929 -0.4697
  960MOL0     C29523  11.605   1.769   0.932 -0.2962 -0.1220 -0.6167
  960MOL0     O29524  11.731   1.717   0.958  0.1894  0.0632 -0.1499
  960MOL0     C29525  11.787   1.657   0.849 -0.1283  0.5120  0.3457
  960MOL0     C29526  11.935   1.619   0.885 -0.1196  0.4256  0.5274
  960MOL0     C29527  12.011   1.738   0.928 -0.2223  0.2342 -0.3847
  960MOL0     C29528  12.161   1.717   0.914  0.2980  0.4695 -0.7167
  960MOL0     C29529  12.207   1.780   0.784 -0.1206  0.4805  0.3965
  960MOL0     C29530  12.230   1.818   0.670 -0.3224 -0.4633  0.6889
  960MOL0     C29531  11.512   1.754   0.827  0.1654 -0.4125 -0.0826
  960MOL0     C29532  11.387   1.803   0.839 -0.0167  0.7337 -0.4544
  960MOL0     H29533  10.975   2.168   0.922 -0.2009 -0.0369  2.0537
  960MOL0     H29534  10.740   2.165   0.931  0.4057  0.5132 -0.6671
  960MOL0     H29535  10.435   1.941   1.023  1.1986 -3.1723 -2.7922
  960MOL0     H29536  10.580   2.025   1.067  0.8456  0.3293 -0.6384
  960MOL0     H29537  10.412   2.194   1.017  1.3101  0.7052  0.5372
  960MOL0     H29538  10.534   2.206   0.893  0.9894  1.5200  3.9145
  960MOL0     H29539  10.379   2.048   0.759  0.1278  0.3740 -0.5726
  960MOL0     H29540  10.258   2.086   0.891 -0.1154  0.0604 -1.4242
  960MOL0     H29541  10.293   2.328   0.840 -1.2791 -0.3180  1.1465
  960MOL0     H29542  10.421   2.281   0.720  0.0753 -1.1198 -0.9799
  960MOL0     H29543  10.234   2.161   0.591 -0.7906 -0.1330  0.5484
  960MOL0     H29544  10.116   2.219   0.708  0.1443 -2.6607 -0.7471
  960MOL0     H29545  10.191   2.461   0.640  3.9814 -0.4745  0.4892
  960MOL0     H29546  10.259   2.394   0.503 -1.3700  2.5232  0.3982
  960MOL0     H29547  10.042   2.471   0.462  0.6625 -0.9322 -2.5023
  960MOL0     H29548  10.074   2.306   0.406  0.5093  0.1802  0.0580
  960MOL0     H29549   9.933   2.350   0.674 -0.3331  3.0697  0.1625
  960MOL0     H29550   9.893   2.236   0.528  2.9761  0.5739 -3.2196
  960MOL0     H29551   9.787   2.381   0.307 -2.5332 -1.5063  0.0873
  960MOL0     H29552   9.552   2.682   0.314  0.8131  0.2456 -5.8361
  960MOL0     H29553   9.618   2.567   0.207 -2.1451  0.0371 -1.0651
  960MOL0     H29554   9.385   2.558   0.205  2.1182 -1.7929 -3.0065
  960MOL0     H29555   9.382   2.537   0.385  1.3005 -1.0260  0.8900
  960MOL0     H29556   9.522   2.318   0.324  2.6367  3.0195 -0.0546
  960MOL0     H29557   9.496   2.362   0.151 -0.5797  2.2723 -0.8125
  960MOL0     H29558   9.329   2.199   0.214  2.6829  0.0988 -0.9255
  960MOL0     H29559   9.241   2.344   0.202 -1.3651 -2.2620  0.0079
  960MOL0     H29560   9.107   2.462   0.297  0.8022 -0.1863 -0.6132
  960MOL0     H29561   8.822   2.599   0.417 -0.7808  1.4286 -3.4583
  960MOL0     H29562   8.969   2.708   0.393 -3.8962  2.4922 -0.2521
  960MOL0     H29563   8.927   2.570   0.284 -0.7901 -0.3137  0.0540
  960MOL0     H29564   8.613   2.572   0.841  0.6395 -1.3609 -0.5321
  960MOL0     H29565   8.514   2.741   1.002  0.2154 -0.9627  3.3912
  960MOL0     H29566   8.749   2.950   1.310 -1.0016 -1.0923  0.3798
  960MOL0     H29567   8.809   3.035   1.164 -1.1116 -1.4429 -2.8170
  960MOL0     H29568   8.539   3.072   1.298 -1.3024  0.5788 -2.5576
  960MOL0     H29569   8.670   3.195   1.308  1.2671 -1.5773  0.5696
  960MOL0     H29570   8.498   3.109   1.069  0.5567 -0.7719  0.9717
  960MOL0     H29571   8.640   3.223   1.056 -0.4504  0.4297 -0.1631
  960MOL0     H29572   8.384   3.261   1.211  0.9144 -1.7503  2.4221
  960MOL0     H29573   8.527   3.369   1.224  0.9786 -2.0694  0.3732
  960MOL0     H29574   8.342   3.442   1.056  0.2532 -0.8110  1.7539
  960MOL0     H29575   8.407   3.325   0.953 -1.2968  1.2677 -0.5633
  960MOL0     H29576   8.518   3.583   0.952  0.0872 -0.0126  0.5641
  960MOL0     H29577   8.628   3.494   1.062 -0.1754 -3.5643  0.1542
  960MOL0     H29578   8.548   3.446   0.775  0.1604  1.9358 -0.0663
  960MOL0     H29579   8.614   3.313   0.875  0.9440  0.6788  2.0171
  960MOL0     H29580   8.755   3.576   0.837 -1.5617 -0.2304 -0.3658
  960MOL0     H29581   8.776   3.437   0.721  2.3135  1.3631 -0.6095
  960MOL0     H29582   8.894   2.847   1.156 -0.2997 -0.3510  1.7561
  960MOL0     H29583   9.001   2.669   0.995 -0.9269 -1.2627 -1.9141
  960MOL0     H29584   9.091   2.402   0.782  0.8534  1.9422 -0.9055
  960MOL0     H29585   9.230   2.251   0.650 -0.7725 -1.4880 -0.6225
  960MOL0     H29586  10.728   1.750   0.831  0.4694  0.9038  0.2184
  960MOL0     H29587  10.976   1.752   0.813 -1.5067 -2.2426  2.8203
  960MOL0     H29588  11.386   1.905   1.166 -1.8250 -0.5913  0.3056
  960MOL0     H29589  11.616   1.836   1.137  1.7521 -1.4003 -1.2872
  960MOL0     H29590  11.735   1.566   0.818  3.2402 -0.9121 -1.6465
  960MOL0     H29591  11.786   1.726   0.764 -0.2964  0.2299  0.1165
  960MOL0     H29592  11.976   1.578   0.792  0.9039  1.8410  0.3238
  960MOL0     H29593  11.940   1.546   0.967  1.6623  0.4064  0.4452
  960MOL0     H29594  11.978   1.765   1.029  1.9362  0.0688  0.4207
  960MOL0     H29595  11.970   1.822   0.872  0.0312 -0.4247 -1.5880
  960MOL0     H29596  12.176   1.609   0.908 -2.2310  0.1050 -1.4292
  960MOL0     H29597  12.219   1.765   0.993 -0.2271 -0.3133  0.1495
  960MOL0     H29598  12.248   1.850   0.569  0.7276 -1.5807  0.5018
  960MOL0     H29599  11.540   1.716   0.729 -0.5656  3.2785 -1.8719
  960MOL0     H29600  11.316   1.791   0.757  0.4268 -2.1989 -0.5170
  961MOL0     O29601   8.909   1.912   5.141  0.1259 -0.6141 -0.1015
  961MOL0     C29602   8.919   2.025   5.185  0.3147 -0.0215  0.0870
  961MOL0     O29603   8.829   2.125   5.178  0.1094 -0.3689 -0.0534
  961MOL0     C29604   8.716   2.100   5.106 -0.7082 -0.6046  0.0774
  961MOL0     C29605   8.606   2.140   5.168 -0.0945  0.8009 -0.7606
  961MOL0     C29606   8.481   2.134   5.106  0.3525  0.3765 -0.2033
  961MOL0     C29607   8.468   2.099   4.967 -0.0906  0.0344 -0.0404
  961MOL0     O29608   8.354   2.114   4.894 -0.4209  0.2136  0.1339
  961MOL0     C29609   8.235   2.187   4.951 -0.3848  0.1866  0.9290
  961MOL0     C29610   8.177   2.243   4.820  0.4482  0.3112 -0.2847
  961MOL0     C29611   8.027   2.259   4.847 -1.0793  0.2099 -0.1158
  961MOL0     C29612   7.962   2.311   4.720  0.1041 -0.2257 -0.3811
  961MOL0     C29613   7.805   2.304   4.727  0.9313 -0.2830  0.3420
  961MOL0     C29614   7.730   2.357   4.599 -0.3148 -0.6742  0.8183
  961MOL0     C29615   7.602   2.279   4.557  0.6410  0.2692 -1.2139
  961MOL0     C29616   7.486   2.311   4.645  0.3224 -0.7415 -0.3334
  961MOL0     N29617   7.355   2.320   4.555 -0.2167 -0.4096 -0.0864
  961MOL0     C29618   7.289   2.214   4.499  0.2724  0.3942  0.0489
  961MOL0     C29619   7.159   2.276   4.490 -0.1600  0.7747 -0.5679
  961MOL0     C29620   7.044   2.188   4.467  0.5433 -0.2246 -0.8189
  961MOL0     C29621   6.918   2.266   4.442  0.3957  0.1008 -0.2294
  961MOL0     C29622   6.841   2.285   4.572 -0.8354  0.1387  0.0344
  961MOL0     C29623   6.703   2.335   4.554  0.2403 -0.4473  0.6046
  961MOL0     O29624   6.653   2.372   4.683 -0.1411 -0.1569  0.3838
  961MOL0     C29625   6.518   2.416   4.678  0.0105 -0.2670  0.1973
  961MOL0     C29626   6.453   2.421   4.803  0.1235  0.3081  0.6505
  961MOL0     C29627   6.318   2.446   4.807 -0.6236 -0.1509 -0.0653
  961MOL0     C29628   6.253   2.445   4.945 -0.5487  1.4587  0.5822
  961MOL0     C29629   6.245   2.466   4.693  0.8590  0.3792  0.0187
  961MOL0     C29630   6.101   2.509   4.692  0.9436 -0.0268 -0.5071
  961MOL0     O29631   6.045   2.535   4.808 -0.6382 -0.1331 -0.2399
  961MOL0     C29632   5.912   2.565   4.803 -0.7572  0.0219 -0.1351
  961MOL0     C29633   5.814   2.472   4.842 -1.2033  0.1596 -0.5448
  961MOL0     C29634   5.676   2.499   4.835  0.3391 -0.0678 -0.1628
  961MOL0     C29635   5.627   2.622   4.789 -0.2535  0.3633 -0.1683
  961MOL0     O29636   5.492   2.645   4.800  0.1440 -0.3711  0.2197
  961MOL0     C29637   5.441   2.728   4.692 -0.0623  0.0546 -0.7174
  961MOL0     C29638   5.292   2.726   4.692  0.5761  1.0142  0.3472
  961MOL0     C29639   5.229   2.847   4.614 -0.1802 -0.3592 -0.2309
  961MOL0     C29640   5.083   2.861   4.649  0.7669  0.4250 -0.3851
  961MOL0     C29641   5.021   2.985   4.585  0.3369  0.3764 -0.2557
  961MOL0     C29642   4.882   3.001   4.654 -0.3184  0.4866  0.1911
  961MOL0     C29643   4.810   3.101   4.571  0.2064  0.9040  0.0724
  961MOL0     C29644   4.667   3.116   4.630 -0.0068 -0.4924  0.3865
  961MOL0    Cl29645   4.571   3.249   4.552  0.2420  0.1407 -0.2647
  961MOL0     C29646   5.727   2.720   4.747  0.5530  0.4119  0.4657
  961MOL0     C29647   5.863   2.689   4.760 -0.8228  1.0632 -0.7062
  961MOL0     O29648   6.037   2.488   4.591  0.2434 -0.0708  0.5194
  961MOL0     C29649   6.305   2.454   4.570  0.1774 -0.1452  0.2727
  961MOL0     C29650   6.441   2.434   4.564  0.6738  0.1273  0.1329
  961MOL0     N29651   7.164   2.411   4.522 -0.5160 -0.1254 -1.2497
  961MOL0     N29652   7.285   2.432   4.560 -0.1124  0.1000 -0.1606
  961MOL0     C29653   8.584   2.060   4.908  0.4538  0.5154 -0.6521
  961MOL0     C29654   8.707   2.053   4.974  0.5350  0.0474  0.9283
  961MOL0     C29655   9.048   2.067   5.243 -0.0923  0.4190 -0.6968
  961MOL0     C29656   9.063   2.186   5.311 -0.2816 -0.5118 -0.6837
  961MOL0     C29657   9.195   2.221   5.358  0.4687  0.1987 -0.2898
  961MOL0     C29658   9.304   2.147   5.329 -0.1425 -0.6722 -0.3531
  961MOL0     O29659   9.424   2.210   5.370  0.3254  0.3082 -0.0222
  961MOL0     C29660   9.545   2.132   5.371 -0.2504 -0.5052 -0.3297
  961MOL0     C29661   9.668   2.218   5.380 -0.0860  0.0864 -0.4480
  961MOL0     C29662   9.700   2.304   5.254  0.3684 -0.3094  0.0261
  961MOL0     C29663   9.850   2.329   5.246 -0.1317 -0.1616  0.0912
  961MOL0     C29664   9.907   2.390   5.372  0.5816 -1.0938 -0.7144
  961MOL0     C29665   9.965   2.410   5.475 -0.1372 -0.4409  0.0319
  961MOL0     C29666   9.296   2.029   5.251  0.0258 -0.0153 -0.4335
  961MOL0     C29667   9.170   1.990   5.216  1.0980 -0.0781 -0.4902
  961MOL0     H29668   8.623   2.178   5.269  2.1396 -0.2428 -0.6878
  961MOL0     H29669   8.402   2.177   5.166  0.4062  0.4705 -0.1997
  961MOL0     H29670   8.169   2.120   5.008  2.3841 -1.5195  2.3296
  961MOL0     H29671   8.256   2.267   5.022  2.7319 -2.1130  2.8205
  961MOL0     H29672   8.232   2.329   4.783 -1.5869  1.7038 -0.2292
  961MOL0     H29673   8.193   2.164   4.746  1.7722  1.5906 -1.4231
  961MOL0     H29674   7.984   2.161   4.867 -0.2767  0.2634  2.0385
  961MOL0     H29675   8.018   2.332   4.928  1.5683  0.1839  0.2838
  961MOL0     H29676   8.001   2.412   4.710  1.6321 -0.4562  2.3999
  961MOL0     H29677   7.993   2.259   4.629  2.1082  0.5910 -0.1997
  961MOL0     H29678   7.773   2.202   4.749 -1.6549 -0.3573 -2.9116
  961MOL0     H29679   7.771   2.368   4.809 -4.0229  1.0747 -2.3316
  961MOL0     H29680   7.735   2.466   4.598  1.3590 -0.7111  1.3434
  961MOL0     H29681   7.796   2.326   4.517  2.8991  2.5279  1.9551
  961MOL0     H29682   7.569   2.289   4.453 -2.0028 -0.1189 -0.5022
  961MOL0     H29683   7.616   2.171   4.569 -0.6040 -0.2381 -3.6622
  961MOL0     H29684   7.499   2.414   4.679 -1.2332 -0.6120 -0.0536
  961MOL0     H29685   7.484   2.236   4.724  3.5640 -1.0679 -0.4450
  961MOL0     H29686   7.316   2.111   4.480 -1.9114 -0.1061 -0.5884
  961MOL0     H29687   7.068   2.121   4.383  1.4087 -1.7602  0.6003
  961MOL0     H29688   7.024   2.122   4.551 -0.7283 -0.7718 -1.5157
  961MOL0     H29689   6.864   2.202   4.372 -1.3797  2.1089 -0.7694
  961MOL0     H29690   6.951   2.359   4.396  0.3201  1.3087  1.9920
  961MOL0     H29691   6.898   2.354   4.635  1.5487 -0.7262 -1.0642
  961MOL0     H29692   6.839   2.194   4.633  2.9352  0.6700  1.2169
  961MOL0     H29693   6.635   2.259   4.515  0.8459 -0.0609 -1.2740
  961MOL0     H29694   6.710   2.420   4.485  0.2543 -2.1611 -1.6031
  961MOL0     H29695   6.514   2.404   4.891 -0.0510 -0.4512  0.6256
  961MOL0     H29696   6.163   2.382   4.948  0.8243 -0.5552  1.9858
  961MOL0     H29697   6.317   2.383   5.008 -0.8274  0.1329 -0.3905
  961MOL0     H29698   6.255   2.543   4.994 -3.1326  0.3560  3.1796
  961MOL0     H29699   5.847   2.372   4.872 -1.2284  0.5628  0.8937
  961MOL0     H29700   5.612   2.426   4.883  1.1554 -0.4838  0.3307
  961MOL0     H29701   5.488   2.826   4.701  1.2894 -0.5832 -0.4400
  961MOL0     H29702   5.470   2.680   4.598  3.1632  0.9589 -0.3100
  961MOL0     H29703   5.272   2.628   4.648  1.1920 -0.1129  2.4030
  961MOL0     H29704   5.258   2.719   4.796  1.7505 -0.0369  0.6830
  961MOL0     H29705   5.243   2.825   4.507  1.1984  2.4210 -0.7162
  961MOL0     H29706   5.276   2.944   4.631 -0.8381  0.5135 -2.8878
  961MOL0     H29707   5.032   2.771   4.613  0.2492  0.5963 -0.0834
  961MOL0     H29708   5.078   2.875   4.757 -0.0977  0.2911 -0.3984
  961MOL0     H29709   5.022   2.998   4.477  2.7266  0.8656 -0.2264
  961MOL0     H29710   5.091   3.064   4.612  0.7453  0.2343 -0.8718
  961MOL0     H29711   4.816   2.914   4.641  0.0238  0.4105 -1.1410
  961MOL0     H29712   4.896   3.032   4.758 -2.2549  0.0905  0.6067
  961MOL0     H29713   4.800   3.061   4.470  3.0928 -0.4052  0.2074
  961MOL0     H29714   4.849   3.204   4.578  0.6866  0.7242  0.0788
  961MOL0     H29715   4.685   3.147   4.733  3.8723  1.2855 -0.6726
  961MOL0     H29716   4.622   3.016   4.634  0.5571 -0.7148  1.6815
  961MOL0     H29717   5.702   2.817   4.705 -2.6709 -0.7073 -0.4359
  961MOL0     H29718   5.937   2.762   4.728 -0.8884  1.9008  0.9378
  961MOL0     H29719   6.243   2.470   4.482  0.3281 -1.5328 -0.1073
  961MOL0     H29720   6.476   2.440   4.462 -1.1542 -1.4501 -0.6525
  961MOL0     H29721   8.575   2.032   4.803  3.3149 -0.8898 -0.6225
  961MOL0     H29722   8.793   2.004   4.928 -1.1442 -0.1865 -2.2515
  961MOL0     H29723   8.983   2.257   5.324  0.8031  0.7888 -0.8277
  961MOL0     H29724   9.213   2.317   5.406 -0.3983 -0.7239  2.0456
  961MOL0     H29725   9.552   2.059   5.452  5.2803 -1.9600 -1.7063
  961MOL0     H29726   9.556   2.072   5.280 -1.4049 -1.4420  0.1069
  961MOL0     H29727   9.754   2.152   5.390 -1.1896 -1.6363 -1.6877
  961MOL0     H29728   9.663   2.286   5.466  0.4374  0.2168 -0.5173
  961MOL0     H29729   9.660   2.404   5.273  1.5991 -0.1179  1.8340
  961MOL0     H29730   9.664   2.253   5.164 -0.2280 -0.8614  0.5759
  961MOL0     H29731   9.874   2.394   5.161  0.3058  0.5463  0.7395
  961MOL0     H29732   9.907   2.237   5.233  0.9345  0.6946 -1.7762
  961MOL0     H29733  10.021   2.430   5.564  0.9007 -1.8412 -0.2747
  961MOL0     H29734   9.376   1.975   5.201 -0.6492  0.4013 -2.0271
  961MOL0     H29735   9.163   1.894   5.166  2.6700 -0.9321  0.8589
  962MOL0     O29736   3.160   4.101   7.583 -0.1404  0.0378  0.1938
  962MOL0     C29737   3.251   4.176   7.622  0.7280 -0.7191 -0.2999
  962MOL0     O29738   3.248   4.261   7.741 -0.1643 -0.2508  0.3290
  962MOL0     C29739   3.136   4.275   7.816 -0.1592 -0.0189  0.1034
  962MOL0     C29740   3.013   4.302   7.754 -0.1686  0.3119 -1.2321
  962MOL0     C29741   2.896   4.339   7.829 -0.5948  0.1126 -0.6061
  962MOL0     C29742   2.907   4.342   7.973 -0.7766  0.3675  0.4191
  962MOL0     O29743   2.798   4.362   8.057 -0.4884  0.1121  0.4004
  962MOL0     C29744   2.682   4.429   8.018 -0.5473 -0.2810 -0.0284
  962MOL0     C29745   2.605   4.481   8.150 -0.7779 -0.7815  0.4398
  962MOL0     C29746   2.466   4.511   8.118 -0.0919 -0.3682  0.3113
  962MOL0     C29747   2.381   4.394   8.132 -0.3651 -0.2393 -0.0288
  962MOL0     C29748   2.235   4.438   8.128  0.0343 -0.3334  0.3362
  962MOL0     C29749   2.133   4.329   8.165 -0.4027 -0.2559  0.2903
  962MOL0     C29750   1.986   4.380   8.141 -0.1376  0.7968 -0.5150
  962MOL0     C29751   1.902   4.277   8.216  0.0724 -0.5685  0.6201
  962MOL0     N29752   1.766   4.284   8.165  0.0465  0.0763 -0.5283
  962MOL0     C29753   1.661   4.336   8.243 -0.0994  0.3626 -0.6446
  962MOL0     C29754   1.556   4.331   8.166 -0.1342  0.3985  0.0381
  962MOL0     C29755   1.413   4.387   8.198 -0.1710  0.3112 -0.0397
  962MOL0     C29756   1.322   4.390   8.072  0.1812 -0.5460 -1.0679
  962MOL0     C29757   1.201   4.480   8.083 -0.3626  0.5498  0.1460
  962MOL0     C29758   1.098   4.438   7.982 -0.2806  0.0475  0.0804
  962MOL0     O29759   0.982   4.509   8.007 -0.1351  0.3425 -0.7201
  962MOL0     C29760   0.964   4.640   7.971 -0.8401 -0.8157  1.1680
  962MOL0     C29761   0.857   4.703   8.027 -0.1165  0.6780  0.0034
  962MOL0     C29762   0.824   4.835   7.989 -0.1080 -0.7037 -0.0260
  962MOL0     C29763   0.709   4.906   8.064 -0.4850 -0.3049  0.1408
  962MOL0     C29764   0.917   4.904   7.906  0.2177 -0.0475  0.0455
  962MOL0     C29765   0.894   5.043   7.871 -0.6420  0.4060 -0.2187
  962MOL0     O29766   0.786   5.082   7.796  0.5077 -0.0254 -1.1587
  962MOL0     C29767   0.776   5.211   7.755  0.9255 -0.5498  0.0674
  962MOL0     C29768   0.784   5.243   7.621  0.5084 -0.6168 -0.1118
  962MOL0     C29769   0.796   5.383   7.575 -0.1101  0.3745 -0.5555
  962MOL0     C29770   0.777   5.487   7.663 -0.3852  0.4457  0.3328
  962MOL0     O29771   0.792   5.611   7.610 -0.1035  0.1653 -0.7516
  962MOL0     C29772   0.830   5.710   7.712 -0.3767 -0.3782 -0.0533
  962MOL0     C29773   0.868   5.836   7.629  0.0171 -0.8208 -0.0265
  962MOL0     C29774   0.757   5.871   7.542 -0.2370  0.3540 -0.5444
  962MOL0     C29775   0.749   6.032   7.515  0.6168 -0.7856 -0.4534
  962MOL0     C29776   0.619   6.072   7.448 -0.0314  0.3533 -0.2543
  962MOL0     C29777   0.490   6.073   7.539 -0.6194  0.6025 -0.1161
  962MOL0     C29778   0.377   6.142   7.467 -0.7916  0.5412 -0.0690
  962MOL0     C29779   0.255   6.158   7.554  1.3847  0.7227  0.3628
  962MOL0    Cl29780   0.298   6.232   7.717 -0.4251 -0.0755 -0.2199
  962MOL0     C29781   0.751   5.453   7.791  0.3770  0.4535  0.1918
  962MOL0     C29782   0.736   5.315   7.837 -0.4743 -0.1134  0.2009
  962MOL0     O29783   0.994   5.113   7.889 -0.1265 -0.2773  0.0099
  962MOL0     C29784   1.031   4.831   7.855 -1.1352  0.9045 -0.4924
  962MOL0     C29785   1.053   4.698   7.877  0.8359 -1.0109 -0.4820
  962MOL0     N29786   1.587   4.268   8.045 -0.6239  0.2340  0.6369
  962MOL0     N29787   1.717   4.231   8.050  0.1297  0.3090 -0.5653
  962MOL0     C29788   3.026   4.286   8.032 -0.2659 -0.6605  0.6168
  962MOL0     C29789   3.143   4.271   7.957  0.6330 -0.4325  0.5586
  962MOL0     C29790   3.373   4.174   7.548  0.1762  0.5497 -0.0470
  962MOL0     C29791   3.380   4.112   7.421 -0.1902  0.4673 -0.5339
  962MOL0     C29792   3.495   4.112   7.340 -0.3985  0.3208 -0.6592
  962MOL0     C29793   3.615   4.179   7.387  0.0719 -0.9178 -0.4496
  962MOL0     O29794   3.733   4.184   7.308 -0.4971 -0.1053 -0.0046
  962MOL0     C29795   3.730   4.135   7.177  0.7208 -0.4533 -0.6351
  962MOL0     C29796   3.879   4.127   7.126 -0.3858 -0.3011  0.5442
  962MOL0     C29797   3.941   4.263   7.074  0.2373 -0.1921  0.0281
  962MOL0     C29798   4.073   4.227   7.018 -0.5596  0.1070  0.0823
  962MOL0     C29799   4.155   4.340   7.025  0.6667 -0.2148 -0.1479
  962MOL0     C29800   4.216   4.444   7.038  0.3425 -0.7632 -0.5973
  962MOL0     C29801   3.605   4.233   7.516  0.1224 -0.5866  0.8860
  962MOL0     C29802   3.491   4.240   7.599  0.4708 -0.8532  0.2544
  962MOL0     H29803   3.010   4.307   7.646 -1.2277 -1.9756 -1.3808
  962MOL0     H29804   2.805   4.362   7.775 -3.2541 -1.3826  2.8163
  962MOL0     H29805   2.699   4.514   7.952  2.2526 -0.7196  0.0023
  962MOL0     H29806   2.614   4.361   7.967 -2.9737  0.6639  1.7333
  962MOL0     H29807   2.610   4.407   8.231  0.7046 -1.0333  0.1522
  962MOL0     H29808   2.651   4.572   8.188  0.5764 -2.5113  3.2295
  962MOL0     H29809   2.438   4.583   8.196 -0.1093 -1.0509  0.9505
  962MOL0     H29810   2.449   4.557   8.021  0.1332  0.0238  0.4534
  962MOL0     H29811   2.413   4.323   8.055  2.5478 -0.3347  1.1151
  962MOL0     H29812   2.391   4.348   8.231 -1.1645  2.0015  1.1401
  962MOL0     H29813   2.214   4.531   8.183  2.0071 -0.6372  1.7329
  962MOL0     H29814   2.221   4.466   8.023  3.0666  3.5018  0.7214
  962MOL0     H29815   2.147   4.248   8.092 -1.7844  1.3507 -1.8805
  962MOL0     H29816   2.148   4.294   8.267 -1.0728 -0.0077  0.4755
  962MOL0     H29817   1.954   4.480   8.171 -2.0654 -0.2149  1.0359
  962MOL0     H29818   1.963   4.372   8.034  1.0956 -1.6282 -0.6761
  962MOL0     H29819   1.915   4.284   8.324 -3.1098  0.7709  1.0178
  962MOL0     H29820   1.937   4.178   8.185 -0.1325 -0.3168 -0.4475
  962MOL0     H29821   1.665   4.393   8.335  0.8134 -1.0746  0.2584
  962MOL0     H29822   1.363   4.323   8.272 -0.5302 -1.0519 -1.4070
  962MOL0     H29823   1.434   4.483   8.245  1.7202  0.8695 -1.8797
  962MOL0     H29824   1.291   4.285   8.063 -4.2073  0.5849 -1.3884
  962MOL0     H29825   1.380   4.427   7.987  0.0293 -0.1312 -0.9907
  962MOL0     H29826   1.235   4.580   8.055  3.0523 -0.2465  0.9991
  962MOL0     H29827   1.154   4.477   8.182 -1.7319  0.1221 -0.4804
  962MOL0     H29828   1.072   4.331   7.982  0.5289 -0.1528  0.6471
  962MOL0     H29829   1.128   4.458   7.878  2.5647 -0.8679  0.6459
  962MOL0     H29830   0.795   4.642   8.091 -2.4667  1.4518 -1.4037
  962MOL0     H29831   0.641   4.829   8.102 -1.3928  0.7698  0.7543
  962MOL0     H29832   0.761   4.951   8.150  0.8330 -0.7610 -0.3934
  962MOL0     H29833   0.647   4.979   8.011 -1.1259 -1.0102 -0.0978
  962MOL0     H29834   0.796   5.161   7.551  0.1125 -1.9772  1.3419
  962MOL0     H29835   0.799   5.400   7.467  0.1349 -2.0492 -0.9757
  962MOL0     H29836   0.747   5.726   7.782  0.3787  0.6752  0.6255
  962MOL0     H29837   0.919   5.683   7.769 -0.2254  1.9747  0.9039
  962MOL0     H29838   0.888   5.914   7.703  1.2769 -0.5245 -0.6536
  962MOL0     H29839   0.964   5.817   7.580  2.6464 -0.0841  4.2694
  962MOL0     H29840   0.678   5.839   7.611  2.8942  0.4904  3.5244
  962MOL0     H29841   0.753   5.805   7.455 -1.8424 -2.4421  1.4839
  962MOL0     H29842   0.764   6.081   7.612  2.7750 -4.2549  1.1798
  962MOL0     H29843   0.831   6.066   7.452 -0.3817  3.7974  0.3371
  962MOL0     H29844   0.598   6.003   7.366  0.7509  2.2070 -2.0957
  962MOL0     H29845   0.632   6.174   7.409 -0.3031  0.8392  0.8900
  962MOL0     H29846   0.457   5.975   7.574 -3.5370  1.3677 -0.4784
  962MOL0     H29847   0.522   6.130   7.627  1.8368 -1.4896  0.4704
  962MOL0     H29848   0.361   6.094   7.370 -0.7676 -1.6352  0.9598
  962MOL0     H29849   0.415   6.243   7.447  0.4866  0.3210  1.0820
  962MOL0     H29850   0.192   6.069   7.558  0.4672  1.1184 -2.3922
  962MOL0     H29851   0.175   6.227   7.524 -1.0078 -0.6229  3.2143
  962MOL0     H29852   0.737   5.539   7.856  2.2145  0.8514  0.1104
  962MOL0     H29853   0.713   5.297   7.942 -0.3122 -0.3207  0.2018
  962MOL0     H29854   1.094   4.891   7.790 -0.9231  0.5391 -0.6282
  962MOL0     H29855   1.139   4.665   7.820  0.4839  0.4059 -1.8993
  962MOL0     H29856   3.026   4.289   8.140 -1.0989  0.9182  0.6016
  962MOL0     H29857   3.241   4.266   8.004  1.9301 -1.5270 -2.0710
  962MOL0     H29858   3.288   4.062   7.390  1.0660 -0.8123 -2.4211
  962MOL0     H29859   3.489   4.056   7.247 -1.2383 -4.5269  1.9610
  962MOL0     H29860   3.683   4.037   7.174  0.1781 -0.2489  0.7164
  962MOL0     H29861   3.687   4.219   7.121  2.4438  1.1185  0.2787
  962MOL0     H29862   3.883   4.054   7.044 -1.6542  0.6806 -0.4393
  962MOL0     H29863   3.945   4.095   7.207 -1.2507 -0.2879  1.2750
  962MOL0     H29864   3.958   4.329   7.159 -2.4978  0.5322  0.1143
  962MOL0     H29865   3.884   4.310   6.993  0.3079 -0.3916 -0.1380
  962MOL0     H29866   4.064   4.206   6.911 -4.0051 -3.9401  0.8791
  962MOL0     H29867   4.125   4.147   7.072  1.6291  0.2440 -1.6518
  962MOL0     H29868   4.275   4.531   7.057  1.9305 -1.8743 -0.2448
  962MOL0     H29869   3.699   4.269   7.556 -0.1378  1.4476 -0.1694
  962MOL0     H29870   3.490   4.296   7.692  0.6159 -0.2579 -0.0965
  963MOL0     O29871   8.462   4.964   0.119 -0.3421 -0.0345 -0.4079
  963MOL0     C29872   8.468   4.843   0.092 -0.7464 -0.0779 -0.7180
  963MOL0     O29873   8.360   4.755   0.056 -0.5650 -0.3424  0.0015
  963MOL0     C29874   8.237   4.812   0.031 -0.3919  0.1307 -0.5530
  963MOL0     C29875   8.170   4.791  -0.090 -0.3470  0.8650  0.1642
  963MOL0     C29876   8.039   4.830  -0.114  0.3421  0.3737  0.3277
  963MOL0     C29877   7.968   4.899  -0.009 -0.1210  0.0167  0.4527
  963MOL0     O29878   7.839   4.934  -0.045 -0.3293 -0.2230  0.5567
  963MOL0     C29879   7.756   5.003   0.051 -0.6883  0.3828 -0.0176
  963MOL0     C29880   7.621   5.033  -0.004 -0.2503 -0.2071  0.1375
  963MOL0     C29881   7.525   4.914  -0.052 -0.3636  0.2161  0.3862
  963MOL0     C29882   7.404   4.963  -0.117  0.8954  0.2425  0.8259
  963MOL0     C29883   7.319   4.850  -0.180  0.6024  0.6036  0.3558
  963MOL0     C29884   7.189   4.895  -0.250 -1.0876 -0.2062 -0.5466
  963MOL0     C29885   7.217   5.005  -0.347  0.2767  0.2915  0.2496
  963MOL0     C29886   7.094   5.026  -0.434  0.3025  0.6983  0.8305
  963MOL0     N29887   7.091   4.932  -0.542 -0.1650 -0.1548 -0.7453
  963MOL0     C29888   7.027   4.811  -0.533 -0.3418 -0.0488  0.5073
  963MOL0     C29889   7.014   4.758  -0.663 -0.8102 -0.1216 -0.3073
  963MOL0     C29890   6.954   4.635  -0.716 -0.1111  0.4746 -0.7452
  963MOL0     C29891   6.803   4.640  -0.680 -0.4604 -0.5204 -0.1344
  963MOL0     C29892   6.745   4.524  -0.762  0.6819 -0.4114 -0.1988
  963MOL0     C29893   6.592   4.540  -0.742 -0.3350  0.2329  0.0958
  963MOL0     O29894   6.530   4.433  -0.823 -0.3640  0.2859 -0.4964
  963MOL0     C29895   6.393   4.423  -0.836  0.2964  0.1167 -0.2389
  963MOL0     C29896   6.354   4.340  -0.935  0.0269 -0.6951 -0.3502
  963MOL0     C29897   6.226   4.318  -0.963 -0.5182  0.3331  0.3909
  963MOL0     C29898   6.201   4.208  -1.075  0.2247 -0.9129 -0.3683
  963MOL0     C29899   6.121   4.368  -0.883  0.2192 -0.1397 -1.2492
  963MOL0     C29900   5.973   4.345  -0.905 -0.0802  0.3208  0.3607
  963MOL0     O29901   5.905   4.427  -0.823  0.3561 -0.0167 -0.2159
  963MOL0     C29902   5.768   4.402  -0.815 -0.3726  0.0525 -0.0115
  963MOL0     C29903   5.685   4.409  -0.928  0.5103  0.1105 -0.1502
  963MOL0     C29904   5.548   4.397  -0.913  0.2782 -0.7460 -0.5223
  963MOL0     C29905   5.492   4.389  -0.782  0.6193  0.6368  0.2600
  963MOL0     O29906   5.355   4.383  -0.765 -0.4501 -0.3090  0.1695
  963MOL0     C29907   5.275   4.462  -0.853 -0.1505  0.3860  0.4882
  963MOL0     C29908   5.137   4.464  -0.800 -0.2333 -0.4212  0.0491
  963MOL0     C29909   5.037   4.517  -0.911  0.0232  0.2329 -0.2011
  963MOL0     C29910   4.926   4.619  -0.875 -0.2927  0.5960  0.9015
  963MOL0     C29911   4.833   4.651  -0.997  0.1428 -0.6917  0.1082
  963MOL0     C29912   4.728   4.769  -0.974 -0.4296  0.5567 -0.2032
  963MOL0     C29913   4.634   4.779  -1.091  0.4686 -0.1455 -0.1377
  963MOL0     C29914   4.521   4.868  -1.049 -0.8620 -0.4171 -0.7493
  963MOL0    Cl29915   4.424   4.774  -0.934 -0.1257  0.0726 -0.1590
  963MOL0     C29916   5.580   4.381  -0.676  0.7620 -0.8947  0.5319
  963MOL0     C29917   5.713   4.379  -0.687 -0.4288  0.3691  0.3785
  963MOL0     O29918   5.933   4.242  -0.960  0.3030 -0.1750  0.2876
  963MOL0     C29919   6.160   4.456  -0.783  0.2718 -0.3590  0.0324
  963MOL0     C29920   6.293   4.486  -0.756 -0.3654  0.1684  0.5237
  963MOL0     N29921   7.087   4.839  -0.746 -0.0880 -0.9138 -0.3238
  963MOL0     N29922   7.124   4.949  -0.675  0.1831  0.1324  0.8195
  963MOL0     C29923   8.031   4.920   0.114  0.7840  0.8580  0.3320
  963MOL0     C29924   8.167   4.876   0.131 -0.2386 -0.5807  0.2334
  963MOL0     C29925   8.599   4.788   0.097 -0.0471 -0.7886 -0.4797
  963MOL0     C29926   8.710   4.853   0.149  0.6812 -0.4729  0.0856
  963MOL0     C29927   8.829   4.793   0.145  0.4982  0.5976 -0.1584
  963MOL0     C29928   8.852   4.663   0.088  0.0745  0.3560  0.4297
  963MOL0     O29929   8.972   4.606   0.063 -0.0627  0.3685  0.2320
  963MOL0     C29930   9.080   4.625   0.154  0.3987 -0.3683 -0.3708
  963MOL0     C29931   9.199   4.545   0.126 -0.7153  0.4406  0.0121
  963MOL0     C29932   9.294   4.565   0.248 -0.3453  0.0615 -0.5084
  963MOL0     C29933   9.401   4.449   0.262  0.1031 -0.0512  0.4138
  963MOL0     C29934   9.504   4.473   0.159  0.1591  0.1116  0.1754
  963MOL0     C29935   9.587   4.493   0.072  0.4035 -0.2864  0.6774
  963MOL0     C29936   8.745   4.602   0.032 -0.6474 -0.1788  0.1737
  963MOL0     C29937   8.614   4.659   0.050 -0.9117 -0.4295 -0.0812
  963MOL0     H29938   8.223   4.730  -0.162 -3.0853  1.3416 -2.4822
  963MOL0     H29939   8.004   4.811  -0.215 -0.2478  1.3744  0.3348
  963MOL0     H29940   7.751   4.937   0.139 -0.2817  0.6372  0.2008
  963MOL0     H29941   7.799   5.097   0.087  2.1529  0.3854 -2.9814
  963MOL0     H29942   7.573   5.093   0.074  1.0290  3.1037 -1.4291
  963MOL0     H29943   7.646   5.100  -0.087 -0.1289 -0.5235 -0.0820
  963MOL0     H29944   7.584   4.859  -0.126 -1.7235  0.1139 -0.6592
  963MOL0     H29945   7.488   4.847   0.027 -0.7524 -1.4344 -1.1236
  963MOL0     H29946   7.345   5.005  -0.035 -0.6284 -3.6825  1.9999
  963MOL0     H29947   7.439   5.033  -0.193  3.5863 -0.3645  1.4024
  963MOL0     H29948   7.379   4.811  -0.263  1.6925 -0.1523  1.4747
  963MOL0     H29949   7.302   4.765  -0.114 -0.9741 -0.4963 -1.3395
  963MOL0     H29950   7.148   4.802  -0.291 -2.5079  0.8883 -1.7655
  963MOL0     H29951   7.119   4.937  -0.176 -0.7575 -0.0518 -0.3185
  963MOL0     H29952   7.227   5.099  -0.292 -1.3610  0.5546  0.1420
  963MOL0     H29953   7.302   4.981  -0.412 -1.2255 -1.1229 -1.2852
  963MOL0     H29954   7.105   5.123  -0.482 -0.2578  1.1161  1.5171
  963MOL0     H29955   7.001   5.026  -0.376  0.8020  0.0004  1.6565
  963MOL0     H29956   6.987   4.762  -0.445  0.2588  0.3363  1.0014
  963MOL0     H29957   6.959   4.619  -0.824  1.4489 -4.0925 -0.2232
  963MOL0     H29958   7.001   4.549  -0.668 -1.5345  0.0138 -0.0997
  963MOL0     H29959   6.757   4.736  -0.708  1.0596 -0.1521 -1.4953
  963MOL0     H29960   6.788   4.625  -0.573 -1.2071 -1.5419 -0.3693
  963MOL0     H29961   6.782   4.425  -0.732  0.8059  0.5020  2.9940
  963MOL0     H29962   6.758   4.536  -0.870 -1.3467 -3.9264 -0.9974
  963MOL0     H29963   6.554   4.638  -0.774  1.3319  0.5665 -0.9556
  963MOL0     H29964   6.563   4.536  -0.637 -1.4253  2.3120 -0.0641
  963MOL0     H29965   6.428   4.291  -0.998  1.1164 -0.3961  0.6560
  963MOL0     H29966   6.123   4.235  -1.147  0.7660 -0.1178 -0.6703
  963MOL0     H29967   6.296   4.199  -1.128  1.5057  1.8025  1.2965
  963MOL0     H29968   6.167   4.121  -1.018 -1.3264  1.3211  2.3906
  963MOL0     H29969   5.730   4.412  -1.027  1.5505  0.6658  0.3171
  963MOL0     H29970   5.487   4.404  -1.003 -0.3528  0.0859 -0.0475
  963MOL0     H29971   5.306   4.566  -0.857  2.6282 -0.4064 -1.6959
  963MOL0     H29972   5.278   4.435  -0.959 -0.2785 -0.2829  0.6479
  963MOL0     H29973   5.107   4.361  -0.778  1.0048 -0.4407  1.7743
  963MOL0     H29974   5.140   4.514  -0.703 -0.5590 -1.4842  0.6218
  963MOL0     H29975   5.007   4.425  -0.962  0.6841  0.9640 -2.0005
  963MOL0     H29976   5.098   4.563  -0.990 -1.2868 -0.4422 -1.6871
  963MOL0     H29977   4.876   4.583  -0.785  0.5817 -1.1958  0.7184
  963MOL0     H29978   4.970   4.715  -0.846 -1.3104  1.1024  0.8121
  963MOL0     H29979   4.788   4.554  -1.022  0.0496 -0.3603 -1.0497
  963MOL0     H29980   4.895   4.677  -1.083 -0.3178 -1.0135 -0.3266
  963MOL0     H29981   4.671   4.765  -0.881 -0.9847 -1.5000 -0.5834
  963MOL0     H29982   4.790   4.859  -0.975  1.2513 -0.5448 -1.1744
  963MOL0     H29983   4.591   4.682  -1.117 -1.7363  0.8485 -0.4921
  963MOL0     H29984   4.686   4.809  -1.182  0.1508  2.2710  0.3992
  963MOL0     H29985   4.454   4.888  -1.133 -1.6974  0.5618  0.1307
  963MOL0     H29986   4.547   4.968  -1.011 -1.6577  0.6575 -2.8513
  963MOL0     H29987   5.527   4.372  -0.582  0.9747  3.0612  1.2115
  963MOL0     H29988   5.789   4.358  -0.613 -0.5368  1.0584  0.6969
  963MOL0     H29989   6.089   4.509  -0.721 -0.9593 -0.4974 -1.2315
  963MOL0     H29990   6.322   4.548  -0.672  1.8263  0.6444 -0.5229
  963MOL0     H29991   7.975   4.977   0.186 -1.8422 -1.2686  0.1258
  963MOL0     H29992   8.214   4.912   0.222 -1.1374  1.5869 -0.0952
  963MOL0     H29993   8.709   4.950   0.197  0.4462 -1.0809  1.3510
  963MOL0     H29994   8.911   4.856   0.178 -1.5276  1.4206  3.8791
  963MOL0     H29995   9.099   4.733   0.159 -3.0405  0.3073  1.7220
  963MOL0     H29996   9.039   4.607   0.254  1.9480 -0.9561  0.1823
  963MOL0     H29997   9.243   4.582   0.033  0.9214  0.5120  0.7857
  963MOL0     H29998   9.174   4.438   0.117 -2.6560  0.8010  0.6437
  963MOL0     H29999   9.228   4.559   0.335 -0.3719  1.1121 -0.4377
  963MOL0     H30000   9.345   4.661   0.240 -1.0692  0.8021  2.5764
  963MOL0     H30001   9.368   4.346   0.251  0.7384 -0.3293  1.0378
  963MOL0     H30002   9.464   4.456   0.351  3.0597 -1.3468 -1.4224
  963MOL0     H30003   9.658   4.519  -0.004  1.2846  1.5754  2.0468
  963MOL0     H30004   8.771   4.504  -0.006 -2.0134  0.2039 -1.8975
  963MOL0     H30005   8.531   4.600   0.013 -2.8447  0.1164  3.0116
  964MOL0     O30006   6.980   4.331   0.567  0.4838 -0.1983  0.0175
  964MOL0     C30007   6.988   4.257   0.473  0.1808 -0.2032  0.1881
  964MOL0     O30008   6.885   4.192   0.405  0.2029  0.0950 -0.4339
  964MOL0     C30009   6.756   4.199   0.453  0.5641  0.4758 -0.1032
  964MOL0     C30010   6.677   4.081   0.452  0.0837  0.1187  0.1385
  964MOL0     C30011   6.551   4.074   0.500  0.0660 -0.0306  0.4238
  964MOL0     C30012   6.476   4.182   0.550  0.2275 -0.1059 -0.2397
  964MOL0     O30013   6.338   4.178   0.593  0.7611 -0.7813  0.3335
  964MOL0     C30014   6.258   4.066   0.558 -0.7710 -0.5043  0.0146
  964MOL0     C30015   6.116   4.105   0.578 -0.6893  0.0378  0.0788
  964MOL0     C30016   6.082   4.156   0.710 -0.0458 -0.0423 -0.5681
  964MOL0     C30017   5.931   4.181   0.734  0.6195 -0.2139  0.7719
  964MOL0     C30018   5.899   4.242   0.872 -0.5046  0.0397 -0.3345
  964MOL0     C30019   5.747   4.282   0.882  0.2517  0.6165 -0.0269
  964MOL0     C30020   5.715   4.410   0.806  1.2034  0.6298  0.3464
  964MOL0     C30021   5.746   4.529   0.898 -0.6585  0.1281 -0.4011
  964MOL0     N30022   5.706   4.658   0.842 -0.5038  0.6554 -0.5318
  964MOL0     C30023   5.574   4.693   0.859 -0.7402 -0.1749  0.2739
  964MOL0     C30024   5.565   4.808   0.778 -0.2411  0.2732 -0.4115
  964MOL0     C30025   5.436   4.879   0.764 -0.0564 -0.1589 -0.2070
  964MOL0     C30026   5.411   4.963   0.893 -0.3826 -0.0185 -0.5601
  964MOL0     C30027   5.262   4.995   0.904 -0.0321 -0.0688  0.2086
  964MOL0     C30028   5.150   4.883   0.902 -1.0038  1.0002 -0.2680
  964MOL0     O30029   5.192   4.749   0.947 -0.0053  0.4520 -0.1664
  964MOL0     C30030   5.248   4.728   1.069  0.1563 -0.6629 -0.5920
  964MOL0     C30031   5.284   4.594   1.092 -1.0822  0.1286  0.5053
  964MOL0     C30032   5.355   4.564   1.205 -0.2681  0.5585 -0.6250
  964MOL0     C30033   5.403   4.422   1.210 -0.7821  0.3293  0.4434
  964MOL0     C30034   5.368   4.652   1.315 -0.7454 -0.1935 -0.0087
  964MOL0     C30035   5.438   4.619   1.449  0.1820  0.9007 -0.7023
  964MOL0     O30036   5.538   4.522   1.448 -0.5205 -0.4025  0.1363
  964MOL0     C30037   5.622   4.498   1.558 -0.4774 -0.1673  0.3591
  964MOL0     C30038   5.725   4.408   1.532 -0.6574 -0.0132  0.7789
  964MOL0     C30039   5.827   4.381   1.627  0.6145  0.1936 -1.1424
  964MOL0     C30040   5.826   4.444   1.750 -0.0753  0.8588  0.1170
  964MOL0     O30041   5.925   4.412   1.839 -0.6347  0.6004  0.1714
  964MOL0     C30042   5.944   4.500   1.954  0.3197 -0.4578  0.2239
  964MOL0     C30043   5.872   4.466   2.079  0.7357 -0.1266  0.3857
  964MOL0     C30044   5.934   4.340   2.142  0.2007 -0.0416  0.3656
  964MOL0     C30045   5.822   4.294   2.237  0.1056  0.2132 -0.1394
  964MOL0     C30046   5.860   4.174   2.336  0.2579  0.6181 -0.2402
  964MOL0     C30047   5.738   4.134   2.432  0.3132  0.0787  0.8322
  964MOL0     C30048   5.682   3.997   2.369 -0.1229 -0.0010  0.4244
  964MOL0     C30049   5.567   3.950   2.463  0.6174  0.4099 -0.6773
  964MOL0    Cl30050   5.511   3.792   2.404  0.4400 -0.1835 -0.3367
  964MOL0     C30051   5.718   4.526   1.779 -0.0524  0.5632  0.2724
  964MOL0     C30052   5.622   4.563   1.681  0.9892  0.5400 -0.1972
  964MOL0     O30053   5.397   4.678   1.552  0.5210 -0.7975 -0.2219
  964MOL0     C30054   5.310   4.783   1.297  0.4566  0.2673 -0.0261
  964MOL0     C30055   5.256   4.822   1.176  0.0867 -0.0658 -0.3114
  964MOL0     N30056   5.683   4.833   0.720  0.4956 -0.0752  0.5346
  964MOL0     N30057   5.771   4.747   0.760 -0.6495 -0.1657  0.5573
  964MOL0     C30058   6.552   4.302   0.552 -0.2051  0.0248 -0.7007
  964MOL0     C30059   6.688   4.311   0.502  0.2317  0.0603 -0.3892
  964MOL0     C30060   7.120   4.226   0.410  0.6664 -0.0724  0.6663
  964MOL0     C30061   7.142   4.124   0.311  0.1869  0.1691 -0.9062
  964MOL0     C30062   7.267   4.115   0.247 -0.0665  0.7970  0.0623
  964MOL0     C30063   7.371   4.209   0.278 -0.5163  0.1743  0.9447
  964MOL0     O30064   7.498   4.201   0.228  0.2205 -0.2413  0.3291
  964MOL0     C30065   7.554   4.070   0.239 -0.3895 -0.0356  0.1041
  964MOL0     C30066   7.704   4.076   0.213 -0.1713 -0.2009 -0.2481
  964MOL0     C30067   7.780   3.945   0.181 -0.4157 -0.2638  0.2804
  964MOL0     C30068   7.932   3.981   0.162  0.1341  0.5770  0.5408
  964MOL0     C30069   8.008   3.874   0.102 -0.7814 -0.7126  0.3535
  964MOL0     C30070   8.059   3.787   0.039 -1.2961  0.4369  0.9795
  964MOL0     C30071   7.347   4.320   0.357 -0.0455 -0.2681 -0.5612
  964MOL0     C30072   7.222   4.326   0.426 -0.0458  0.1793 -0.1076
  964MOL0     H30073   6.728   3.996   0.407 -1.7117  0.1780 -2.2159
  964MOL0     H30074   6.500   3.978   0.495  1.1630 -0.6289  0.2838
  964MOL0     H30075   6.284   4.027   0.460  3.4908 -1.4076  1.3012
  964MOL0     H30076   6.288   3.992   0.633  0.4068 -1.6020 -1.4952
  964MOL0     H30077   6.082   4.171   0.498 -2.4558 -2.5008 -1.4273
  964MOL0     H30078   6.060   4.012   0.563 -0.8302  0.0985  0.2286
  964MOL0     H30079   6.120   4.079   0.778 -0.1682  0.6416  0.3075
  964MOL0     H30080   6.133   4.251   0.725 -0.5326  0.0114  0.9723
  964MOL0     H30081   5.902   4.253   0.656  2.5892  0.8712  0.9790
  964MOL0     H30082   5.881   4.084   0.725 -0.1643  0.2085  0.4237
  964MOL0     H30083   5.921   4.166   0.947 -1.6120  1.7426  1.8656
  964MOL0     H30084   5.956   4.335   0.885  0.4959 -0.7908  1.5607
  964MOL0     H30085   5.688   4.199   0.843 -0.6595  1.3125 -0.1697
  964MOL0     H30086   5.707   4.298   0.983  0.5408  1.1336  0.0112
  964MOL0     H30087   5.777   4.415   0.717 -0.2964  0.5360 -0.7412
  964MOL0     H30088   5.607   4.414   0.791  1.1514 -0.2451  0.4625
  964MOL0     H30089   5.854   4.534   0.916 -0.8379  1.1407  0.5019
  964MOL0     H30090   5.698   4.528   0.996 -3.1961  0.9397 -1.5575
  964MOL0     H30091   5.488   4.656   0.915 -1.7906 -0.9936 -1.7974
  964MOL0     H30092   5.445   4.951   0.682 -1.8454 -0.9780 -1.1661
  964MOL0     H30093   5.361   4.804   0.739 -1.6289  1.3998 -0.3810
  964MOL0     H30094   5.469   5.055   0.881 -1.2238  0.3561 -2.1540
  964MOL0     H30095   5.446   4.905   0.979 -0.4533 -0.2289 -0.6708
  964MOL0     H30096   5.248   5.052   0.812  0.9773  0.2651  0.2574
  964MOL0     H30097   5.245   5.066   0.986  0.6505  1.2769 -0.7781
  964MOL0     H30098   5.115   4.859   0.801 -1.3682 -1.1949  0.3337
  964MOL0     H30099   5.072   4.915   0.971 -0.7973  0.2555  0.3307
  964MOL0     H30100   5.278   4.517   1.016 -1.8154  1.0353 -0.3830
  964MOL0     H30101   5.347   4.366   1.285  0.4700 -2.3702 -0.5192
  964MOL0     H30102   5.413   4.377   1.110 -0.1144  0.1713  0.5790
  964MOL0     H30103   5.509   4.429   1.235 -0.5448  0.4652 -0.5249
  964MOL0     H30104   5.724   4.358   1.436 -1.9418  1.3751  0.0481
  964MOL0     H30105   5.899   4.305   1.599 -1.2616 -0.9182 -3.3241
  964MOL0     H30106   6.050   4.492   1.979  0.4165  1.3379  0.5401
  964MOL0     H30107   5.923   4.607   1.940 -0.4716 -0.7828 -1.3359
  964MOL0     H30108   5.884   4.548   2.150  2.4190 -0.7273  0.8348
  964MOL0     H30109   5.769   4.447   2.048  1.9945 -1.6295 -3.4197
  964MOL0     H30110   6.026   4.372   2.191  0.2874  3.2742 -1.6544
  964MOL0     H30111   5.950   4.260   2.069  0.1402 -0.4032  0.7439
  964MOL0     H30112   5.800   4.383   2.297 -0.3788 -0.4690  0.7300
  964MOL0     H30113   5.724   4.269   2.195 -0.2188 -0.9552  1.1937
  964MOL0     H30114   5.935   4.220   2.401  2.4421 -0.5356 -1.8562
  964MOL0     H30115   5.910   4.092   2.285  1.1872  1.1892 -0.2667
  964MOL0     H30116   5.760   4.115   2.537  1.8421  2.6139  1.0716
  964MOL0     H30117   5.657   4.208   2.430  1.1080  1.1863  3.7280
  964MOL0     H30118   5.760   3.921   2.364  0.3605  0.5096  0.0231
  964MOL0     H30119   5.647   3.996   2.266  0.6710 -1.6640  0.1376
  964MOL0     H30120   5.478   4.013   2.470  0.0633 -0.0857 -2.7235
  964MOL0     H30121   5.606   3.938   2.565  1.3193 -1.0518 -1.0945
  964MOL0     H30122   5.712   4.565   1.880  1.2700 -1.9348  1.3963
  964MOL0     H30123   5.544   4.629   1.718  1.4882 -0.5350  3.0403
  964MOL0     H30124   5.313   4.849   1.383  1.7844 -1.4057  1.2961
  964MOL0     H30125   5.210   4.918   1.158 -0.1120 -0.4380 -1.9171
  964MOL0     H30126   6.503   4.390   0.591 -1.9335 -1.2879  0.2030
  964MOL0     H30127   6.743   4.404   0.506  1.6163 -0.7812  1.6834
  964MOL0     H30128   7.069   4.049   0.284  1.6316 -0.4420 -3.3780
  964MOL0     H30129   7.287   4.040   0.172  2.2597  0.5642  0.8228
  964MOL0     H30130   7.540   4.035   0.342  1.7093 -1.5852 -0.0636
  964MOL0     H30131   7.504   4.002   0.170 -1.7338  2.2977 -1.3321
  964MOL0     H30132   7.742   4.125   0.302  0.6271 -4.1861  1.8547
  964MOL0     H30133   7.718   4.147   0.131 -1.7137 -0.8214 -1.0886
  964MOL0     H30134   7.737   3.912   0.086  0.3955  1.4530 -0.7248
  964MOL0     H30135   7.777   3.864   0.255 -0.3502 -0.8497 -0.3474
  964MOL0     H30136   7.978   4.010   0.257 -1.3773  3.2871  0.5510
  964MOL0     H30137   7.937   4.060   0.086 -2.5306 -0.2470 -0.6339
  964MOL0     H30138   8.098   3.702  -0.013 -0.5803 -1.5663  4.4671
  964MOL0     H30139   7.423   4.393   0.383  0.2408 -0.7484 -0.0467
  964MOL0     H30140   7.214   4.417   0.485  1.2304  1.7333 -2.2015
  965MOL0     O30141   6.059   0.092   5.719 -0.0552  0.2079 -0.3219
  965MOL0     C30142   6.090   0.183   5.802  0.6164 -0.0065  0.0813
  965MOL0     O30143   5.993   0.262   5.860 -0.1990 -0.0603 -0.2852
  965MOL0     C30144   5.864   0.249   5.819  0.2334  0.6455  0.3580
  965MOL0     C30145   5.776   0.162   5.877  0.7325  0.6640  0.0972
  965MOL0     C30146   5.633   0.173   5.853  0.3907 -0.0576 -0.0351
  965MOL0     C30147   5.588   0.272   5.764 -0.1040  1.1120  0.2622
  965MOL0     O30148   5.453   0.263   5.743 -0.1139  0.2068 -0.1666
  965MOL0     C30149   5.396   0.356   5.650  0.1804  0.0601  0.2952
  965MOL0     C30150   5.372   0.494   5.718 -0.2064  0.2182 -0.4412
  965MOL0     C30151   5.330   0.486   5.867  0.5206 -0.0655  0.5073
  965MOL0     C30152   5.257   0.614   5.917  1.3461  0.1456  0.2590
  965MOL0     C30153   5.196   0.605   6.051  0.3439  0.0596  0.5978
  965MOL0     C30154   5.158   0.739   6.105 -0.2495 -0.5560  0.5597
  965MOL0     C30155   5.028   0.785   6.055 -0.4270  0.7667 -0.0908
  965MOL0     C30156   4.906   0.735   6.141 -0.1366 -0.6380 -0.0081
  965MOL0     N30157   4.785   0.792   6.079  0.8192  1.2672  0.2215
  965MOL0     C30158   4.756   0.928   6.075  0.0732  0.2363  0.2047
  965MOL0     C30159   4.649   0.939   5.992  0.4100  0.3982 -0.3123
  965MOL0     C30160   4.575   1.065   5.947 -0.3997 -0.0064  0.0901
  965MOL0     C30161   4.448   1.018   5.875 -0.5077  0.0385  0.3208
  965MOL0     C30162   4.349   1.126   5.836 -0.4415 -0.6691  0.1048
  965MOL0     C30163   4.210   1.053   5.804  0.3369  0.5135 -0.0050
  965MOL0     O30164   4.116   1.040   5.907  0.2117 -0.6453  0.5498
  965MOL0     C30165   3.999   0.986   5.878  0.0314  0.2517 -0.7485
  965MOL0     C30166   3.993   0.869   5.800  0.1810 -0.1461 -0.8361
  965MOL0     C30167   3.870   0.815   5.765 -0.2351 -0.3095 -0.6646
  965MOL0     C30168   3.887   0.703   5.678  0.1730  0.6700 -0.8984
  965MOL0     C30169   3.748   0.870   5.816 -1.2194  0.4453 -0.2088
  965MOL0     C30170   3.604   0.826   5.788 -0.7177  1.5816 -0.1122
  965MOL0     O30171   3.577   0.705   5.738  0.0567 -0.7012  0.3652
  965MOL0     C30172   3.447   0.675   5.711 -0.7509 -0.1227  0.0837
  965MOL0     C30173   3.366   0.733   5.611  0.2922  1.4633  0.4123
  965MOL0     C30174   3.227   0.690   5.601 -0.6823 -0.7578 -0.1855
  965MOL0     C30175   3.175   0.585   5.677  0.0747 -0.1787 -0.3181
  965MOL0     O30176   3.045   0.544   5.653 -0.8860  0.4339  0.4871
  965MOL0     C30177   3.000   0.430   5.724 -1.3590 -0.4305 -0.4298
  965MOL0     C30178   2.845   0.441   5.702 -0.4831 -0.0121  0.0346
  965MOL0     C30179   2.791   0.412   5.563  0.3324 -0.1532 -0.1121
  965MOL0     C30180   2.648   0.442   5.565  0.0784  0.7009 -0.3065
  965MOL0     C30181   2.573   0.393   5.442 -0.7463  0.1881  0.7155
  965MOL0     C30182   2.436   0.463   5.437 -0.4366 -0.5743  0.3887
  965MOL0     C30183   2.326   0.410   5.347 -0.7316  1.3600  0.3451
  965MOL0     C30184   2.195   0.482   5.366 -0.3466 -0.9423 -0.6208
  965MOL0    Cl30185   2.211   0.650   5.282  0.3063  0.1931 -0.1636
  965MOL0     C30186   3.263   0.527   5.772  1.3594  0.1374  0.0482
  965MOL0     C30187   3.392   0.576   5.790 -0.2565 -0.1290  0.2347
  965MOL0     O30188   3.517   0.907   5.806 -0.2661 -0.1507  0.5636
  965MOL0     C30189   3.759   0.984   5.907  0.1672 -0.2647  0.6548
  965MOL0     C30190   3.884   1.046   5.934 -0.1567 -0.0146 -0.4470
  965MOL0     N30191   4.619   0.809   5.949 -0.3077 -0.1745  0.2337
  965MOL0     N30192   4.706   0.723   5.993 -0.0198 -0.2044 -0.0796
  965MOL0     C30193   5.677   0.364   5.708 -0.9846  0.1865  0.2209
  965MOL0     C30194   5.814   0.349   5.734 -0.9189 -0.5309  0.1776
  965MOL0     C30195   6.228   0.190   5.858  0.0008 -1.0091 -0.7787
  965MOL0     C30196   6.254   0.268   5.974 -0.3768 -0.2493  0.1677
  965MOL0     C30197   6.380   0.274   6.031  0.5152  0.8920  0.0902
  965MOL0     C30198   6.491   0.229   5.959 -0.1557  0.1363 -0.9051
  965MOL0     O30199   6.613   0.262   6.010 -0.1062 -0.3039  0.3932
  965MOL0     C30200   6.717   0.170   5.984 -1.0151  0.9286 -0.3156
  965MOL0     C30201   6.838   0.196   6.075  0.0607  0.6672 -0.0705
  965MOL0     C30202   6.962   0.107   6.041  0.7582  0.3094 -0.0715
  965MOL0     C30203   6.978  -0.016   6.133  0.1951 -0.6438 -0.0562
  965MOL0     C30204   6.898  -0.136   6.085 -0.0844 -0.3582  0.1831
  965MOL0     C30205   6.828  -0.236   6.068 -0.3732 -0.4613 -0.0214
  965MOL0     C30206   6.469   0.139   5.847 -0.8507  0.1587  0.2025
  965MOL0     C30207   6.336   0.122   5.794 -0.6058 -0.4318 -0.3932
  965MOL0     H30208   5.804   0.094   5.957 -0.5400 -0.3614 -0.2894
  965MOL0     H30209   5.564   0.105   5.902  1.9567 -2.7524 -1.3635
  965MOL0     H30210   5.461   0.373   5.564 -0.7347  1.7951 -0.1079
  965MOL0     H30211   5.304   0.314   5.608  0.7611  0.7210 -1.7709
  965MOL0     H30212   5.465   0.552   5.715  0.0671 -0.0894  1.1846
  965MOL0     H30213   5.299   0.545   5.653 -2.9333 -0.2911  2.0452
  965MOL0     H30214   5.260   0.402   5.876 -0.6567  0.9041  0.7711
  965MOL0     H30215   5.414   0.475   5.936  1.5252  1.8341 -0.3508
  965MOL0     H30216   5.328   0.697   5.910 -0.6789  2.2495  2.5884
  965MOL0     H30217   5.179   0.652   5.851 -0.6147 -1.3263  1.6002
  965MOL0     H30218   5.119   0.530   6.065 -0.2187  0.3631 -0.7268
  965MOL0     H30219   5.274   0.571   6.120  2.1230 -1.2443 -1.9215
  965MOL0     H30220   5.163   0.750   6.214 -2.9921  0.4068  0.6486
  965MOL0     H30221   5.226   0.817   6.069 -1.5392  0.2954 -0.0842
  965MOL0     H30222   5.032   0.894   6.053  1.9904  0.7297 -0.8870
  965MOL0     H30223   5.020   0.751   5.951 -1.8211  0.6938  0.0210
  965MOL0     H30224   4.904   0.753   6.249  3.7678  0.9811 -0.0326
  965MOL0     H30225   4.903   0.627   6.124 -0.1071 -0.3392 -2.3324
  965MOL0     H30226   4.813   1.006   6.124  0.8658  0.4648 -1.0335
  965MOL0     H30227   4.554   1.135   6.028 -1.1799 -0.2648  0.1178
  965MOL0     H30228   4.638   1.121   5.877 -0.7003 -1.7461 -1.6716
  965MOL0     H30229   4.393   0.942   5.930 -0.0226 -1.8199 -1.6040
  965MOL0     H30230   4.494   0.981   5.783  3.7781  3.1275  0.9077
  965MOL0     H30231   4.380   1.198   5.761  0.4495  0.4347  1.4805
  965MOL0     H30232   4.331   1.192   5.921  4.3413  1.1713 -0.0328
  965MOL0     H30233   4.240   0.967   5.744  1.8144  1.6205 -0.9162
  965MOL0     H30234   4.159   1.124   5.737  0.9835  0.7656 -0.2370
  965MOL0     H30235   4.084   0.819   5.767  0.8309  1.5926 -1.7776
  965MOL0     H30236   3.948   0.630   5.732  1.3847  1.4717 -1.1269
  965MOL0     H30237   3.797   0.648   5.652  0.5104 -0.3597  0.0267
  965MOL0     H30238   3.951   0.721   5.591  0.5388  1.1613 -0.5358
  965MOL0     H30239   3.404   0.818   5.553 -0.3663  1.0506 -0.6517
  965MOL0     H30240   3.173   0.715   5.511  2.9545 -0.9797 -2.6224
  965MOL0     H30241   3.042   0.337   5.685  1.0504 -0.0315  1.0412
  965MOL0     H30242   3.013   0.436   5.832  0.2151  0.4159 -0.6316
  965MOL0     H30243   2.802   0.377   5.780 -0.0253 -0.0850  0.2279
  965MOL0     H30244   2.815   0.545   5.720 -0.2523 -0.0171  0.4641
  965MOL0     H30245   2.802   0.307   5.534 -2.7202 -0.6952  0.4367
  965MOL0     H30246   2.844   0.483   5.498 -0.6689  1.1384  0.4339
  965MOL0     H30247   2.610   0.395   5.656  0.9837 -1.9448 -1.2092
  965MOL0     H30248   2.638   0.551   5.565 -2.0097  0.5642 -1.3703
  965MOL0     H30249   2.555   0.286   5.437 -1.7482  0.3421 -4.8961
  965MOL0     H30250   2.637   0.409   5.355  0.8913  0.4330  1.8965
  965MOL0     H30251   2.402   0.476   5.541  1.1759 -1.1237  1.0188
  965MOL0     H30252   2.446   0.567   5.403 -3.2899  0.4009  2.1479
  965MOL0     H30253   2.326   0.306   5.382  2.5825  1.4362  0.8488
  965MOL0     H30254   2.357   0.407   5.242 -0.1322 -0.3919  0.5428
  965MOL0     H30255   2.176   0.503   5.472  0.4977  2.2949 -1.0042
  965MOL0     H30256   2.113   0.425   5.320 -0.8704  1.6300 -3.1269
  965MOL0     H30257   3.221   0.450   5.836 -0.9954 -1.5974 -3.2893
  965MOL0     H30258   3.450   0.533   5.871  2.5081 -2.7227 -2.8473
  965MOL0     H30259   3.677   1.019   5.968  0.7401 -0.0617  1.3311
  965MOL0     H30260   3.886   1.131   6.001 -1.5904 -0.5043  0.2729
  965MOL0     H30261   5.651   0.454   5.653 -1.8084  0.8564  1.6398
  965MOL0     H30262   5.884   0.411   5.680 -1.3651 -1.4579 -1.5592
  965MOL0     H30263   6.174   0.312   6.031 -1.4832  0.2896 -1.7253
  965MOL0     H30264   6.378   0.330   6.124 -2.5317 -0.4373  0.9583
  965MOL0     H30265   6.693   0.067   6.011  0.8273  0.7120  0.6411
  965MOL0     H30266   6.744   0.184   5.879 -2.2025  1.8982 -0.5154
  965MOL0     H30267   6.817   0.184   6.182  3.1707 -1.0285  0.4624
  965MOL0     H30268   6.862   0.302   6.064 -3.5190  1.7136  0.7389
  965MOL0     H30269   7.058   0.158   6.053  0.7711 -0.1483  2.1885
  965MOL0     H30270   6.962   0.072   5.937 -0.1775  1.2468 -0.4065
  965MOL0     H30271   6.947   0.010   6.235 -0.7673  0.8332 -0.6966
  965MOL0     H30272   7.085  -0.039   6.137  0.6669  1.1694 -1.2516
  965MOL0     H30273   6.766  -0.324   6.068 -1.6316  0.3739  1.0495
  965MOL0     H30274   6.553   0.093   5.797  0.6601  3.0357 -0.0618
  965MOL0     H30275   6.312   0.060   5.707 -1.2858  1.2537 -1.4627
  966MOL0     O30276   6.419  10.456   2.680  0.2034 -0.1497  0.0491
  966MOL0     C30277   6.476  10.518   2.596 -0.0238  0.2364  0.6529
  966MOL0     O30278   6.409  10.600   2.505  0.8421 -0.1715  0.6822
  966MOL0     C30279   6.280  10.619   2.518  0.5268  0.3986  0.0462
  966MOL0     C30280   6.223  10.740   2.545 -0.5589  0.1339 -0.4902
  966MOL0     C30281   6.088  10.764   2.547 -0.1894 -0.4218  0.1379
  966MOL0     C30282   6.006  10.655   2.548  0.2019  1.0368 -0.3958
  966MOL0     O30283   5.869  10.666   2.553 -0.0319 -0.2014 -0.7528
  966MOL0     C30284   5.803  10.785   2.607 -1.1144  0.2839 -0.6640
  966MOL0     C30285   5.658  10.765   2.626  0.4775 -0.6730  0.1181
  966MOL0     C30286   5.579  10.742   2.496 -0.7289  1.0532 -0.1082
  966MOL0     C30287   5.441  10.687   2.514  0.9126 -0.3037 -0.3367
  966MOL0     C30288   5.351  10.717   2.400  0.1753 -0.4091  0.3086
  966MOL0     C30289   5.211  10.662   2.430  0.4436 -0.1760 -0.1934
  966MOL0     C30290   5.129  10.672   2.298  0.6241 -0.5700  0.3092
  966MOL0     C30291   4.996  10.610   2.315 -0.1575 -0.2664 -0.1541
  966MOL0     N30292   4.925  10.565   2.193 -0.2164 -0.2862 -0.6217
  966MOL0     C30293   4.903  10.632   2.069 -0.4971  0.3667 -0.6606
  966MOL0     C30294   4.824  10.551   1.997 -0.9165 -0.3080 -0.6068
  966MOL0     C30295   4.774  10.602   1.866  0.1492  0.4915  0.0459
  966MOL0     C30296   4.634  10.662   1.864  0.8423 -0.0654  0.4523
  966MOL0     C30297   4.581  10.706   1.721 -0.1400 -0.1567  0.3730
  966MOL0     C30298   4.693  10.776   1.648  0.7713 -0.2260 -0.2728
  966MOL0     O30299   4.623  10.839   1.534 -1.1729 -0.6436 -0.7030
  966MOL0     C30300   4.691  10.952   1.487  0.0360 -0.1750 -0.6629
  966MOL0     C30301   4.665  11.083   1.536  0.9267 -0.3926  0.0358
  966MOL0     C30302   4.745  11.194   1.497 -0.6129 -0.5573 -0.2039
  966MOL0     C30303   4.705  11.337   1.543  0.4458  0.4930 -0.7530
  966MOL0     C30304   4.875  11.175   1.447  0.0403 -0.1221  1.5539
  966MOL0     C30305   4.968  11.289   1.439 -0.0081 -1.0456  0.7513
  966MOL0     O30306   5.044  11.303   1.321  0.3138  0.1289  0.4932
  966MOL0     C30307   4.992  11.278   1.196  0.4925 -0.0411  0.3827
  966MOL0     C30308   5.054  11.204   1.098 -0.6048 -0.1854 -0.2096
  966MOL0     C30309   5.023  11.210   0.961 -0.0498 -1.3780 -0.3494
  966MOL0     C30310   4.919  11.290   0.918  0.3955 -1.3078 -0.4783
  966MOL0     O30311   4.885  11.315   0.791 -0.7691 -0.3051 -1.0391
  966MOL0     C30312   4.952  11.250   0.684  0.3572 -0.5607 -0.2621
  966MOL0     C30313   4.901  11.101   0.666 -0.4989  0.0172 -0.1564
  966MOL0     C30314   4.750  11.083   0.657 -0.4534 -0.5613 -0.1202
  966MOL0     C30315   4.674  11.140   0.535 -0.4597 -0.0096 -0.1553
  966MOL0     C30316   4.722  11.093   0.395  0.2629 -0.6601 -0.2783
  966MOL0     C30317   4.618  11.145   0.283 -0.2292  0.1388 -0.1374
  966MOL0     C30318   4.484  11.068   0.295 -0.5363  0.5320 -0.4356
  966MOL0     C30319   4.362  11.153   0.335  0.7670 -0.4716  0.2424
  966MOL0    Cl30320   4.329  11.271   0.209 -0.1764  0.0415  0.5548
  966MOL0     C30321   4.833  11.346   1.022  0.1658  0.1328 -0.5707
  966MOL0     C30322   4.875  11.340   1.160  0.4267  0.3705  0.6035
  966MOL0     O30323   4.993  11.355   1.541  0.2898  0.2391  0.4558
  966MOL0     C30324   4.895  11.042   1.402 -0.7301 -0.3345  0.6193
  966MOL0     C30325   4.806  10.936   1.415  0.4919  0.0526  0.4026
  966MOL0     N30326   4.809  10.433   2.052 -0.2321 -0.2529 -1.2047
  966MOL0     N30327   4.876  10.438   2.171 -0.7345 -0.4688  0.6051
  966MOL0     C30328   6.051  10.525   2.519 -0.5937 -0.6960 -0.8672
  966MOL0     C30329   6.188  10.510   2.505  0.6983  0.3383  0.5680
  966MOL0     C30330   6.613  10.482   2.568  0.3077  0.0069 -0.1303
  966MOL0     C30331   6.671  10.519   2.449 -0.9290  0.2366  0.6867
  966MOL0     C30332   6.814  10.480   2.423  0.0674 -0.4550 -0.3673
  966MOL0     C30333   6.883  10.402   2.519 -0.7455  0.1863 -0.7619
  966MOL0     O30334   7.017  10.367   2.505 -0.1761  0.5221  0.2418
  966MOL0     C30335   7.100  10.472   2.456 -0.7753  0.3793  0.2685
  966MOL0     C30336   7.233  10.411   2.417 -0.7959 -0.9032  0.6591
  966MOL0     C30337   7.302  10.337   2.532 -0.1256 -0.7787  0.0485
  966MOL0     C30338   7.445  10.285   2.492 -0.1645 -0.6832  0.2975
  966MOL0     C30339   7.507  10.229   2.612 -0.3942  0.2592  1.1471
  966MOL0     C30340   7.559  10.188   2.713 -0.0628  0.2303  0.3257
  966MOL0     C30341   6.815  10.368   2.635  0.7892 -0.0716  0.0788
  966MOL0     C30342   6.680  10.397   2.661  0.4627  0.5983  0.8908
  966MOL0     H30343   6.282  10.829   2.559  1.3408 -1.0789 -0.4264
  966MOL0     H30344   6.055  10.867   2.562 -0.1664 -0.5387  1.0976
  966MOL0     H30345   5.844  10.799   2.707 -2.2505 -1.1410  0.0541
  966MOL0     H30346   5.828  10.866   2.538  1.0748 -1.0014 -1.4746
  966MOL0     H30347   5.647  10.683   2.697 -1.0997 -0.3223  0.3022
  966MOL0     H30348   5.619  10.850   2.683  0.5665 -2.0682  2.3491
  966MOL0     H30349   5.580  10.829   2.429 -1.2239  0.3474 -1.0643
  966MOL0     H30350   5.622  10.661   2.437 -0.1496  1.2872 -0.0058
  966MOL0     H30351   5.458  10.579   2.521  1.5050 -0.2412 -0.7425
  966MOL0     H30352   5.390  10.718   2.605 -1.7055  0.0874 -1.8502
  966MOL0     H30353   5.340  10.824   2.380  1.5855 -0.6347 -2.0326
  966MOL0     H30354   5.384  10.685   2.300  0.0829 -0.0445  0.1590
  966MOL0     H30355   5.218  10.558   2.463  2.1279 -0.1274 -0.3154
  966MOL0     H30356   5.167  10.722   2.510 -0.0437  1.8909 -1.9252
  966MOL0     H30357   5.113  10.775   2.265 -0.1099 -0.0516  2.1623
  966MOL0     H30358   5.184  10.633   2.211 -2.4669 -1.5751 -1.3326
  966MOL0     H30359   4.926  10.680   2.362  0.2651 -0.7281  1.2058
  966MOL0     H30360   5.020  10.518   2.370 -1.1346 -1.7606 -2.1027
  966MOL0     H30361   4.936  10.731   2.040  1.8936 -0.1312  0.1419
  966MOL0     H30362   4.841  10.681   1.831 -1.1000  0.4568 -2.6732
  966MOL0     H30363   4.773  10.521   1.793 -2.8208  1.1924 -0.7928
  966MOL0     H30364   4.635  10.744   1.936  0.4323 -0.7492  1.2569
  966MOL0     H30365   4.566  10.584   1.901 -1.4550  0.7623 -1.7225
  966MOL0     H30366   4.487  10.761   1.723 -0.8996 -1.3327 -1.0244
  966MOL0     H30367   4.560  10.613   1.668 -1.4140  0.7905 -0.8659
  966MOL0     H30368   4.762  10.702   1.608  0.5775  0.3078 -1.6852
  966MOL0     H30369   4.741  10.847   1.716  2.2064 -2.5423  1.2628
  966MOL0     H30370   4.582  11.111   1.601  0.8956 -2.0213  0.7441
  966MOL0     H30371   4.733  11.399   1.458 -1.2851  0.3657 -1.4629
  966MOL0     H30372   4.596  11.339   1.556  0.6237 -0.5123  1.4832
  966MOL0     H30373   4.759  11.369   1.632  0.8216 -1.9876  0.0101
  966MOL0     H30374   5.144  11.153   1.130 -0.6868  0.5489  1.2638
  966MOL0     H30375   5.080  11.160   0.883  3.8224  1.6718  0.2239
  966MOL0     H30376   4.936  11.303   0.590  0.0066  0.4675  0.3696
  966MOL0     H30377   5.061  11.248   0.695  0.5089  1.3154 -1.1437
  966MOL0     H30378   4.946  11.057   0.577 -0.8404  0.4168 -0.5283
  966MOL0     H30379   4.935  11.048   0.756 -0.2929 -0.6954 -0.6509
  966MOL0     H30380   4.722  11.136   0.749  2.0108  0.8113 -0.0708
  966MOL0     H30381   4.729  10.978   0.675  0.1158 -0.2982  2.5674
  966MOL0     H30382   4.572  11.104   0.552  0.7777 -4.3316 -0.8527
  966MOL0     H30383   4.677  11.250   0.536  1.0892 -0.0166  1.3415
  966MOL0     H30384   4.725  10.984   0.407  0.4089 -0.4118  2.7775
  966MOL0     H30385   4.827  11.116   0.378  1.2250 -2.1566  2.9102
  966MOL0     H30386   4.604  11.253   0.291  3.4010  0.7687 -0.4803
  966MOL0     H30387   4.653  11.129   0.181 -0.8142 -1.3715 -0.1308
  966MOL0     H30388   4.495  10.985   0.365 -4.1917  1.6518  1.7199
  966MOL0     H30389   4.457  11.035   0.194 -1.9208 -1.2395  0.4518
  966MOL0     H30390   4.381  11.204   0.430 -1.8369 -1.7561  1.5853
  966MOL0     H30391   4.278  11.083   0.342 -0.9624  1.3303 -1.4537
  966MOL0     H30392   4.742  11.390   0.982 -0.2353 -0.8821 -0.8089
  966MOL0     H30393   4.820  11.392   1.238 -3.2107  1.3986 -2.3671
  966MOL0     H30394   4.988  11.011   1.355 -0.7393  2.0635 -1.1315
  966MOL0     H30395   4.831  10.833   1.391 -1.4979 -0.0456 -1.6719
  966MOL0     H30396   5.982  10.443   2.498 -1.0071 -0.4189 -0.6055
  966MOL0     H30397   6.237  10.415   2.486 -0.0578  0.3835 -1.9292
  966MOL0     H30398   6.617  10.578   2.375  1.8439  0.7141 -1.0935
  966MOL0     H30399   6.864  10.513   2.332  0.4032  0.2824  0.0748
  966MOL0     H30400   7.052  10.522   2.371 -2.0104  0.6050  1.0752
  966MOL0     H30401   7.114  10.558   2.522  1.2754 -0.1251  0.5563
  966MOL0     H30402   7.300  10.489   2.378 -0.7287 -0.9653  0.6486
  966MOL0     H30403   7.221  10.334   2.340  0.1893 -1.1682  0.7514
  966MOL0     H30404   7.241  10.252   2.564 -2.1152  0.0729 -1.2178
  966MOL0     H30405   7.298  10.409   2.614 -1.4259  0.2409 -0.8615
  966MOL0     H30406   7.513  10.355   2.442 -0.8514 -1.4125 -1.7747
  966MOL0     H30407   7.424  10.210   2.415 -0.9557 -0.0636 -0.1185
  966MOL0     H30408   7.595  10.147   2.805 -1.8745  1.2152  1.5384
  966MOL0     H30409   6.863  10.314   2.716 -1.8335 -1.5283  0.7758
  966MOL0     H30410   6.632  10.357   2.750 -0.6458  0.9331  0.4610
  967MOL0     O30411   2.891   6.484   7.244 -0.8070  0.0276 -0.5275
  967MOL0     C30412   2.931   6.552   7.147  0.2207  0.0222  0.2716
  967MOL0     O30413   2.866   6.561   7.026 -0.0101 -0.0093 -0.7908
  967MOL0     C30414   2.747   6.494   7.022  0.2619 -0.7329  0.6506
  967MOL0     C30415   2.734   6.388   6.938 -0.0007  0.6427  0.1919
  967MOL0     C30416   2.612   6.321   6.918 -0.0810 -0.1690  0.7164
  967MOL0     C30417   2.504   6.363   6.985 -0.5876 -0.2052  0.9593
  967MOL0     O30418   2.377   6.311   6.962  0.1010  0.2066  0.0889
  967MOL0     C30419   2.357   6.206   6.869  0.7034  0.2876 -0.0183
  967MOL0     C30420   2.202   6.199   6.835 -1.3182 -0.3114 -0.3256
  967MOL0     C30421   2.136   6.150   6.960  0.3878 -0.1992 -0.2745
  967MOL0     C30422   1.983   6.155   6.948 -0.2594  0.5300 -0.5095
  967MOL0     C30423   1.929   6.092   7.082 -0.6466  0.4780  0.2032
  967MOL0     C30424   1.780   6.058   7.071  0.7247  0.1144 -0.1676
  967MOL0     C30425   1.676   6.165   7.109  0.4391  0.3336 -0.0520
  967MOL0     C30426   1.552   6.103   7.180 -0.3528  0.1628  1.0650
  967MOL0     N30427   1.438   6.193   7.168 -0.2249 -0.4733 -0.2008
  967MOL0     C30428   1.386   6.221   7.043  0.2764  0.1382 -0.1632
  967MOL0     C30429   1.286   6.298   7.075  0.4389 -0.0441  0.1769
  967MOL0     C30430   1.198   6.372   6.986  0.1735 -0.7493  0.5780
  967MOL0     C30431   1.099   6.467   7.048 -0.0841 -0.5103  0.2236
  967MOL0     C30432   1.015   6.537   6.942  0.3731 -0.5039  0.1006
  967MOL0     C30433   0.893   6.612   7.007 -0.1872  0.3891 -0.6979
  967MOL0     O30434   0.817   6.682   6.908 -0.2832  0.7454  0.0925
  967MOL0     C30435   0.684   6.659   6.926  0.7926  0.5118  0.5240
  967MOL0     C30436   0.603   6.774   6.927 -0.4699  0.1102  0.0718
  967MOL0     C30437   0.462   6.763   6.928 -0.5902 -0.1461  0.8947
  967MOL0     C30438   0.391   6.899   6.922 -0.4630 -0.4594 -0.3451
  967MOL0     C30439   0.397   6.636   6.926 -0.3296 -0.1893  0.7281
  967MOL0     C30440   0.256   6.623   6.936 -0.1626  1.1310  1.2827
  967MOL0     O30441   0.171   6.735   6.941  0.2553  0.3620  0.2817
  967MOL0     C30442   0.038   6.723   6.956 -0.5332 -0.1982 -0.2060
  967MOL0     C30443  -0.048   6.649   6.871 -0.5291  0.7152  0.1977
  967MOL0     C30444  -0.182   6.646   6.880  0.9245  0.1455 -0.6504
  967MOL0     C30445  -0.245   6.714   6.981  0.1832  0.3528 -0.5546
  967MOL0     O30446  -0.377   6.737   6.986 -0.6227 -0.4357  0.6800
  967MOL0     C30447  -0.462   6.698   6.874  0.4440  0.2008  0.1640
  967MOL0     C30448  -0.588   6.797   6.872 -1.3052 -0.8824 -0.5918
  967MOL0     C30449  -0.691   6.777   6.764 -0.3405 -0.4487  0.1087
  967MOL0     C30450  -0.732   6.632   6.734  0.0609 -0.3311 -0.3735
  967MOL0     C30451  -0.872   6.625   6.674  0.0701  0.1104 -0.7904
  967MOL0     C30452  -0.916   6.478   6.655  0.5859  0.0857 -0.6638
  967MOL0     C30453  -1.055   6.475   6.597 -0.3738 -0.6100 -0.2331
  967MOL0     C30454  -1.119   6.334   6.612 -0.5636 -0.3808  0.6860
  967MOL0    Cl30455  -1.177   6.286   6.776 -0.2801  0.3167  0.6551
  967MOL0     C30456  -0.165   6.790   7.063 -0.0827 -0.4108 -0.4579
  967MOL0     C30457  -0.024   6.794   7.060 -0.0629 -0.2945 -0.1031
  967MOL0     O30458   0.217   6.506   6.922 -0.4148  0.1612  0.0190
  967MOL0     C30459   0.480   6.519   6.908 -0.5172 -0.2215 -0.3766
  967MOL0     C30460   0.621   6.532   6.909 -0.4840 -0.1575  1.2408
  967MOL0     N30461   1.269   6.308   7.208  0.8831 -0.1884 -0.1588
  967MOL0     N30462   1.361   6.248   7.266 -0.2562  0.2278  0.4015
  967MOL0     C30463   2.512   6.471   7.074 -0.8384 -0.8055  0.2797
  967MOL0     C30464   2.631   6.550   7.082  0.0675 -0.4377  0.0692
  967MOL0     C30465   3.057   6.630   7.164 -0.2773 -0.8596 -0.3175
  967MOL0     C30466   3.135   6.630   7.284 -0.0575 -0.5870  0.3230
  967MOL0     C30467   3.253   6.706   7.291 -0.2442 -0.8719  0.6810
  967MOL0     C30468   3.303   6.775   7.181 -0.4995  0.0678  0.2365
  967MOL0     O30469   3.425   6.830   7.197 -0.8210 -0.4903  0.5076
  967MOL0     C30470   3.480   6.912   7.087 -0.9047 -0.8926  0.1784
  967MOL0     C30471   3.622   6.954   7.140 -0.4503  0.7532  0.7281
  967MOL0     C30472   3.657   7.097   7.095  0.6933  0.5822  0.2482
  967MOL0     C30473   3.728   7.091   6.962  0.5038 -0.3931 -0.2388
  967MOL0     C30474   3.863   7.037   6.980 -0.2798 -0.7779  0.3572
  967MOL0     C30475   3.973   6.996   7.001 -0.5514 -0.1913  0.5414
  967MOL0     C30476   3.228   6.778   7.063 -0.2470  0.3809  0.7304
  967MOL0     C30477   3.111   6.704   7.056 -0.6030 -0.4119 -0.5296
  967MOL0     H30478   2.818   6.353   6.878 -0.8624  1.0873 -1.3156
  967MOL0     H30479   2.613   6.234   6.853  3.7585 -2.1584  3.0266
  967MOL0     H30480   2.416   6.215   6.777  2.5486 -4.3991  0.4382
  967MOL0     H30481   2.379   6.104   6.903 -1.2451 -0.0082  0.4975
  967MOL0     H30482   2.158   6.293   6.798 -4.6107 -1.8967 -0.8134
  967MOL0     H30483   2.181   6.133   6.751 -1.1294 -0.0136 -0.6114
  967MOL0     H30484   2.172   6.047   6.966 -1.7634 -1.0003 -0.1946
  967MOL0     H30485   2.157   6.218   7.043 -0.3423  1.3416 -1.3080
  967MOL0     H30486   1.932   6.250   6.933 -1.4272  0.0264  0.1217
  967MOL0     H30487   1.945   6.107   6.857 -1.9144  0.8501 -0.0009
  967MOL0     H30488   1.981   5.996   7.082 -2.6641 -0.7080  2.2237
  967MOL0     H30489   1.957   6.160   7.163  0.4049  0.1563  0.1151
  967MOL0     H30490   1.743   6.013   6.978  2.7472 -2.7406  0.2446
  967MOL0     H30491   1.771   5.974   7.140  1.2451  0.7599  0.7132
  967MOL0     H30492   1.719   6.241   7.174 -1.8430 -1.3056  3.7525
  967MOL0     H30493   1.642   6.217   7.019 -1.5593 -1.5793 -0.5103
  967MOL0     H30494   1.571   6.075   7.284  0.0466 -1.2759  0.6379
  967MOL0     H30495   1.527   6.010   7.127 -0.2941 -0.2653  1.7713
  967MOL0     H30496   1.410   6.189   6.942 -1.4238 -1.1186 -0.2331
  967MOL0     H30497   1.263   6.434   6.924 -0.3569 -0.6341  0.1279
  967MOL0     H30498   1.150   6.298   6.921 -1.2480 -1.0625  1.9146
  967MOL0     H30499   1.151   6.539   7.112  0.3728 -1.3319  0.8005
  967MOL0     H30500   1.034   6.408   7.115  1.8255  0.6651  3.3423
  967MOL0     H30501   0.980   6.461   6.871  1.4962 -1.4176  0.4912
  967MOL0     H30502   1.073   6.602   6.875  4.0119 -1.4419  2.0373
  967MOL0     H30503   0.931   6.689   7.076 -0.9639  0.8274 -0.7462
  967MOL0     H30504   0.827   6.545   7.063  0.2224  1.0196  0.5794
  967MOL0     H30505   0.662   6.865   6.926  0.4633 -0.4755 -0.6712
  967MOL0     H30506   0.340   6.906   6.825  2.1001 -1.3569 -1.8698
  967MOL0     H30507   0.320   6.914   7.003  0.1543  1.7380 -0.1599
  967MOL0     H30508   0.464   6.980   6.929 -0.3261 -0.6672  0.6953
  967MOL0     H30509   0.011   6.583   6.808 -2.0201 -1.6939  1.1956
  967MOL0     H30510  -0.240   6.578   6.819  0.3774 -0.8358  0.8817
  967MOL0     H30511  -0.415   6.675   6.778 -0.3657  0.8545 -0.4100
  967MOL0     H30512  -0.510   6.604   6.900 -0.1582  0.7400  1.0551
  967MOL0     H30513  -0.637   6.792   6.970  3.0189  1.3724  2.0118
  967MOL0     H30514  -0.544   6.896   6.856 -1.3787 -0.6323  0.6506
  967MOL0     H30515  -0.662   6.819   6.668 -1.0497  0.1078  0.1322
  967MOL0     H30516  -0.782   6.831   6.794 -1.4082 -2.0231 -0.1564
  967MOL0     H30517  -0.665   6.581   6.663  1.5996  0.7915  0.2085
  967MOL0     H30518  -0.731   6.582   6.831 -1.2727  0.1716 -0.0818
  967MOL0     H30519  -0.867   6.673   6.576  3.0463  0.0921 -0.7417
  967MOL0     H30520  -0.947   6.671   6.738 -1.3078 -0.8363 -1.6597
  967MOL0     H30521  -0.856   6.428   6.578  0.6495 -0.6333 -0.1495
  967MOL0     H30522  -0.899   6.426   6.749  3.4917  2.0954  0.0679
  967MOL0     H30523  -1.056   6.494   6.489  0.1768  0.1849 -0.1131
  967MOL0     H30524  -1.123   6.544   6.648  0.2124  1.1444 -1.6933
  967MOL0     H30525  -1.037   6.263   6.597 -1.5982 -2.6879  4.4609
  967MOL0     H30526  -1.196   6.318   6.536 -0.4605 -2.1062  0.8991
  967MOL0     H30527  -0.216   6.857   7.132  1.5819  1.0747 -0.5922
  967MOL0     H30528   0.041   6.857   7.119  3.1375 -2.0314 -1.5177
  967MOL0     H30529   0.444   6.416   6.902 -0.7975 -0.1549  0.0796
  967MOL0     H30530   0.674   6.439   6.897  3.6354  1.9554  1.3835
  967MOL0     H30531   2.416   6.495   7.118 -2.3683 -3.2370 -1.4439
  967MOL0     H30532   2.643   6.648   7.129  3.9761 -0.7212  0.0375
  967MOL0     H30533   3.103   6.571   7.369 -1.4146 -0.2392  0.0728
  967MOL0     H30534   3.310   6.733   7.379  2.3340  2.5590 -1.7710
  967MOL0     H30535   3.481   6.852   6.996  1.3718 -1.6861  0.6281
  967MOL0     H30536   3.431   7.008   7.075  0.4417 -0.1787  0.1903
  967MOL0     H30537   3.696   6.885   7.099 -1.9872 -0.6169  0.1594
  967MOL0     H30538   3.617   6.950   7.249 -3.1437 -1.0398  0.6298
  967MOL0     H30539   3.725   7.144   7.166 -0.5484  1.7625  0.7039
  967MOL0     H30540   3.571   7.162   7.082  0.5452  0.3428  0.0062
  967MOL0     H30541   3.729   7.190   6.916  2.8320  0.2869  1.1238
  967MOL0     H30542   3.671   7.032   6.889 -0.9710  2.1091 -1.2176
  967MOL0     H30543   4.066   6.944   7.016 -0.6351 -0.3700  0.4552
  967MOL0     H30544   3.259   6.830   6.973 -0.4852  0.8534  0.9221
  967MOL0     H30545   3.059   6.700   6.961 -3.4432 -2.5228  0.9565
  968MOL0     O30546   0.767   5.145   9.410 -0.6077  0.2157  0.2414
  968MOL0     C30547   0.819   5.096   9.516 -0.1003 -0.1911 -0.1920
  968MOL0     O30548   0.757   5.002   9.594  0.2203  0.1143 -0.5950
  968MOL0     C30549   0.634   4.952   9.568  0.3847 -0.0526 -0.6653
  968MOL0     C30550   0.633   4.821   9.519 -0.0366 -1.4987  0.2817
  968MOL0     C30551   0.512   4.763   9.477 -0.3648 -0.4190  0.6396
  968MOL0     C30552   0.391   4.834   9.477 -0.0072 -0.1163  0.3543
  968MOL0     O30553   0.272   4.784   9.443  0.0794  0.0131  1.3380
  968MOL0     C30554   0.242   4.660   9.483 -0.0768  0.0125 -0.0364
  968MOL0     C30555   0.099   4.623   9.442 -0.3714 -0.4703  1.0162
  968MOL0     C30556   0.069   4.637   9.296 -0.0287  0.0195  0.1927
  968MOL0     C30557  -0.079   4.624   9.269 -0.3548  1.0144 -0.4056
  968MOL0     C30558  -0.108   4.581   9.128 -0.9496  0.4798 -0.1729
  968MOL0     C30559  -0.251   4.585   9.095 -0.0104 -0.4163 -0.4063
  968MOL0     C30560  -0.278   4.516   8.961  0.4816  0.4852 -0.1517
  968MOL0     C30561  -0.431   4.522   8.929 -0.3320  0.1179  0.6661
  968MOL0     N30562  -0.465   4.439   8.818  0.6091  0.4350 -0.1092
  968MOL0     C30563  -0.389   4.425   8.698 -0.2055  0.0068 -0.1962
  968MOL0     C30564  -0.483   4.380   8.613  0.1026  0.2084  0.1783
  968MOL0     C30565  -0.465   4.384   8.459  0.3308 -0.2933  0.7987
  968MOL0     C30566  -0.338   4.312   8.408  0.1687 -0.3321  0.6384
  968MOL0     C30567  -0.328   4.304   8.255 -0.2602 -0.7034 -0.5333
  968MOL0     C30568  -0.437   4.226   8.179  0.2289  0.0265 -0.5759
  968MOL0     O30569  -0.428   4.243   8.039 -0.2787 -0.1180  0.3771
  968MOL0     C30570  -0.531   4.202   7.965  0.0249  0.9939 -0.0360
  968MOL0     C30571  -0.660   4.166   7.998 -0.6557 -0.2191  0.7143
  968MOL0     C30572  -0.741   4.112   7.901  0.4812 -0.7627  0.1641
  968MOL0     C30573  -0.882   4.088   7.946 -0.5369  0.8940 -0.3393
  968MOL0     C30574  -0.707   4.087   7.769 -0.0246 -0.1808  0.4920
  968MOL0     C30575  -0.796   4.028   7.661  0.6185 -0.3289 -0.2429
  968MOL0     O30576  -0.772   4.059   7.527 -0.5896 -0.1917 -0.0396
  968MOL0     C30577  -0.850   3.999   7.439  0.6869 -0.3314  0.4152
  968MOL0     C30578  -0.940   4.079   7.378  0.1966 -0.3390  0.1725
  968MOL0     C30579  -1.024   4.022   7.289 -0.2962 -0.2530 -0.2150
  968MOL0     C30580  -1.026   3.886   7.261  0.0019 -0.5687  0.2464
  968MOL0     O30581  -1.127   3.832   7.179  0.5574 -0.1140  0.4928
  968MOL0     C30582  -1.259   3.888   7.199 -0.3854 -0.1318  0.2559
  968MOL0     C30583  -1.361   3.798   7.132  0.0003  0.4907 -0.5181
  968MOL0     C30584  -1.487   3.870   7.118  0.4543  0.6563 -0.2655
  968MOL0     C30585  -1.604   3.793   7.058 -0.2755 -0.8103  0.5258
  968MOL0     C30586  -1.703   3.882   6.982 -0.6630  0.0468  0.1200
  968MOL0     C30587  -1.652   3.955   6.853  0.2242  1.1679  0.3758
  968MOL0     C30588  -1.544   3.878   6.775 -0.6331 -0.7907  1.0093
  968MOL0     C30589  -1.481   3.967   6.662 -0.5637  0.2404 -0.6865
  968MOL0    Cl30590  -1.332   3.872   6.610  0.2662  0.0846  0.2377
  968MOL0     C30591  -0.946   3.793   7.330  0.2874 -0.4300  0.5521
  968MOL0     C30592  -0.859   3.856   7.427  1.1731 -0.7100 -0.3486
  968MOL0     O30593  -0.884   3.955   7.690  0.2530  0.5230 -0.2071
  968MOL0     C30594  -0.588   4.140   7.735 -0.4453 -0.5787  0.5271
  968MOL0     C30595  -0.488   4.180   7.832  0.3098 -0.6770  0.5699
  968MOL0     N30596  -0.598   4.342   8.683 -0.3488  0.4717  0.4591
  968MOL0     N30597  -0.581   4.367   8.805  0.8291  0.0511 -1.1614
  968MOL0     C30598   0.393   4.964   9.532  0.2766  0.1897 -0.5341
  968MOL0     C30599   0.516   5.024   9.569 -0.3838 -0.0942 -0.1000
  968MOL0     C30600   0.959   5.134   9.549  0.2464  0.5245  0.7928
  968MOL0     C30601   1.002   5.262   9.521 -0.7564 -0.0441  0.5175
  968MOL0     C30602   1.137   5.304   9.548 -0.4645  0.5662 -0.1323
  968MOL0     C30603   1.229   5.209   9.589  0.0012  0.6358 -0.6959
  968MOL0     O30604   1.359   5.240   9.599 -0.2101 -0.0000 -0.8533
  968MOL0     C30605   1.436   5.167   9.507  0.7181 -0.3817 -0.5490
  968MOL0     C30606   1.574   5.220   9.509 -0.2109  0.0053  0.0735
  968MOL0     C30607   1.660   5.137   9.410  0.7529 -0.8783  0.1379
  968MOL0     C30608   1.800   5.111   9.453 -0.7559  0.2739  0.4116
  968MOL0     C30609   1.871   5.238   9.441 -0.4154 -0.4973 -0.5507
  968MOL0     C30610   1.939   5.339   9.436  0.6822 -0.5863  1.2121
  968MOL0     C30611   1.178   5.081   9.627 -0.5065 -0.0458  0.1550
  968MOL0     C30612   1.048   5.049   9.615 -0.1372  0.2129 -0.4037
  968MOL0     H30613   0.733   4.780   9.522  1.2218  1.4145  1.4967
  968MOL0     H30614   0.507   4.660   9.441  1.2012 -0.0161 -0.8916
  968MOL0     H30615   0.314   4.581   9.460  0.4552  0.2603  0.7265
  968MOL0     H30616   0.241   4.670   9.592 -1.3965  3.0885 -0.2320
  968MOL0     H30617   0.077   4.524   9.483  2.1745 -0.9296  1.4819
  968MOL0     H30618   0.029   4.687   9.496 -2.1722  1.1567 -2.8472
  968MOL0     H30619   0.106   4.734   9.260 -0.3987  0.2341  0.3836
  968MOL0     H30620   0.136   4.568   9.245  0.2864  1.2435 -1.1339
  968MOL0     H30621  -0.122   4.555   9.343  1.1044 -0.6558 -1.0498
  968MOL0     H30622  -0.125   4.723   9.277 -3.7271 -0.4980  0.9150
  968MOL0     H30623  -0.051   4.650   9.065  0.3071 -1.8836 -1.8001
  968MOL0     H30624  -0.081   4.475   9.120  0.1480  0.6055  1.3685
  968MOL0     H30625  -0.307   4.539   9.177  2.2300  0.7609  1.9439
  968MOL0     H30626  -0.294   4.685   9.090 -2.1549 -1.0704  2.3031
  968MOL0     H30627  -0.218   4.574   8.890  0.0416  0.8411 -0.2392
  968MOL0     H30628  -0.238   4.415   8.959  4.1153  1.7618  0.9765
  968MOL0     H30629  -0.460   4.627   8.918 -0.9599  0.2090  2.7409
  968MOL0     H30630  -0.488   4.498   9.019 -0.7019  2.0862  1.0115
  968MOL0     H30631  -0.286   4.454   8.683 -0.5622  0.7655 -1.2807
  968MOL0     H30632  -0.552   4.330   8.422  1.1674 -0.9543 -0.2876
  968MOL0     H30633  -0.470   4.486   8.421  0.2151  0.2045  2.1214
  968MOL0     H30634  -0.334   4.212   8.452 -0.4777 -0.5982  0.0920
  968MOL0     H30635  -0.254   4.367   8.453 -2.0987  1.3596  3.1598
  968MOL0     H30636  -0.233   4.255   8.231  0.1055  0.0869 -0.7322
  968MOL0     H30637  -0.320   4.403   8.210 -0.6547 -0.8347 -0.8952
  968MOL0     H30638  -0.537   4.263   8.205 -0.5358 -1.8090 -0.7559
  968MOL0     H30639  -0.446   4.122   8.212  0.4586  0.3470  0.5288
  968MOL0     H30640  -0.700   4.151   8.098 -2.8509 -0.9521 -0.2164
  968MOL0     H30641  -0.915   3.986   7.926 -0.4926  1.1128 -1.6598
  968MOL0     H30642  -0.888   4.103   8.054  1.1786  0.9579 -0.2297
  968MOL0     H30643  -0.943   4.150   7.880 -0.1762 -0.6979 -2.2795
  968MOL0     H30644  -0.939   4.187   7.387 -0.8773 -0.2376 -0.7517
  968MOL0     H30645  -1.084   4.101   7.245 -1.7279  0.1946  2.3836
  968MOL0     H30646  -1.297   3.882   7.302 -1.8755 -1.1187 -0.3141
  968MOL0     H30647  -1.249   3.994   7.172  0.7951  0.0772  1.4050
  968MOL0     H30648  -1.320   3.762   7.036  0.4592  0.7646 -0.4248
  968MOL0     H30649  -1.372   3.710   7.196 -2.6390  0.6343 -0.6603
  968MOL0     H30650  -1.466   3.944   7.040 -2.0529  0.4917 -1.2085
  968MOL0     H30651  -1.513   3.916   7.213  1.1420  0.2604  0.1200
  968MOL0     H30652  -1.561   3.720   6.989  0.2903 -0.5735  0.6202
  968MOL0     H30653  -1.659   3.737   7.135 -3.0428  0.1333 -0.6157
  968MOL0     H30654  -1.728   3.961   7.053 -0.9759  0.7900 -0.7866
  968MOL0     H30655  -1.787   3.822   6.946 -0.3102  0.3473 -1.2582
  968MOL0     H30656  -1.728   3.996   6.785  0.2085 -1.3840 -1.2725
  968MOL0     H30657  -1.598   4.045   6.883  1.0450  2.6553 -4.6336
  968MOL0     H30658  -1.580   3.785   6.731  0.7217 -1.3770  1.0863
  968MOL0     H30659  -1.458   3.845   6.835 -0.3837  0.3535  1.3016
  968MOL0     H30660  -1.453   4.065   6.702 -1.4471  0.1627  0.1587
  968MOL0     H30661  -1.545   3.980   6.575  1.6602 -1.0365 -2.6237
  968MOL0     H30662  -0.959   3.685   7.322 -1.9231 -0.5412  3.6804
  968MOL0     H30663  -0.793   3.795   7.488 -0.5331 -1.9808  0.2666
  968MOL0     H30664  -0.550   4.119   7.636 -1.4619  1.6592 -0.3972
  968MOL0     H30665  -0.389   4.205   7.795  1.7419 -3.0506  2.5401
  968MOL0     H30666   0.306   5.029   9.537 -0.3175 -0.6470  0.4854
  968MOL0     H30667   0.535   5.130   9.588 -1.1009 -0.0615  0.4872
  968MOL0     H30668   0.926   5.330   9.483 -1.5093 -0.0981  1.8586
  968MOL0     H30669   1.178   5.400   9.518  0.9133  0.0676  0.1015
  968MOL0     H30670   1.440   5.061   9.535 -0.1719 -0.3694 -0.3581
  968MOL0     H30671   1.387   5.181   9.410  0.2808 -1.6353 -0.5287
  968MOL0     H30672   1.617   5.233   9.608 -3.2297  2.0597  1.2630
  968MOL0     H30673   1.564   5.323   9.473 -1.4412  0.4927  1.6856
  968MOL0     H30674   1.659   5.204   9.324  2.7917  1.2138  1.6282
  968MOL0     H30675   1.608   5.040   9.402  1.6684 -1.2862 -1.0953
  968MOL0     H30676   1.837   5.034   9.384 -1.0240  1.4372 -1.0518
  968MOL0     H30677   1.806   5.060   9.550  0.9078 -0.4330 -0.0192
  968MOL0     H30678   2.006   5.421   9.422 -1.6255  1.4448  1.3248
  968MOL0     H30679   1.246   5.000   9.652  0.1079  0.7991  1.3105
  968MOL0     H30680   1.002   4.959   9.654 -3.0086  1.9873  0.6073
  969MOL0     O30681   1.801   4.122  10.535  0.1338  0.6836  0.0863
  969MOL0     C30682   1.850   4.216  10.600 -0.5306 -0.7504  0.4337
  969MOL0     O30683   1.791   4.285  10.701 -0.3968 -0.1091 -0.0005
  969MOL0     C30684   1.668   4.257  10.752 -0.6005  0.1169 -0.6460
  969MOL0     C30685   1.606   4.357  10.815 -0.0638  0.1138 -0.3641
  969MOL0     C30686   1.491   4.339  10.897  0.6274  0.2101 -0.9609
  969MOL0     C30687   1.423   4.216  10.892 -0.7326 -0.4335  0.3252
  969MOL0     O30688   1.308   4.183  10.956  0.3414 -0.1480  0.5826
  969MOL0     C30689   1.186   4.243  10.895 -0.5483  0.4460  0.9914
  969MOL0     C30690   1.069   4.181  10.962 -1.4758 -0.5767 -0.1555
  969MOL0     C30691   0.931   4.222  10.896  0.5292 -0.3849  0.4960
  969MOL0     C30692   0.864   4.119  10.810 -0.0818 -0.4323 -0.4605
  969MOL0     C30693   0.714   4.148  10.769  0.6576  0.2195 -0.1770
  969MOL0     C30694   0.633   4.031  10.700 -0.2782 -0.1810 -0.0250
  969MOL0     C30695   0.687   4.002  10.560  0.2098  0.1247 -0.7092
  969MOL0     C30696   0.587   3.905  10.489  0.4011  0.4011 -0.6693
  969MOL0     N30697   0.472   3.960  10.420 -0.1962 -0.1678  0.2537
  969MOL0     C30698   0.446   4.096  10.405 -0.1709  0.8185  0.4898
  969MOL0     C30699   0.381   4.106  10.288  1.0710  0.6232 -0.1493
  969MOL0     C30700   0.328   4.223  10.230  0.8015 -0.7270  0.0419
  969MOL0     C30701   0.428   4.304  10.131  0.3820  0.0496 -0.8688
  969MOL0     C30702   0.568   4.323  10.188 -0.2570  0.2162  0.4177
  969MOL0     C30703   0.640   4.430  10.114  0.4530 -0.2815  0.4506
  969MOL0     O30704   0.779   4.436  10.159 -0.2039  0.0635 -0.3284
  969MOL0     C30705   0.852   4.547  10.115  0.8157  0.6359 -1.0454
  969MOL0     C30706   0.846   4.590   9.985  0.0391 -0.3326  1.3471
  969MOL0     C30707   0.921   4.701   9.939  0.5036 -0.1739 -0.1842
  969MOL0     C30708   0.890   4.752   9.803  0.1927 -0.6325  0.0202
  969MOL0     C30709   1.015   4.762  10.031 -0.2129  0.2119 -0.1820
  969MOL0     C30710   1.105   4.871   9.993 -0.4461 -0.9059 -0.0802
  969MOL0     O30711   1.161   4.933  10.100  0.6924 -0.2122  0.1778
  969MOL0     C30712   1.258   5.032  10.077 -0.7826  0.9376 -0.2094
  969MOL0     C30713   1.259   5.135   9.976  1.1594  0.2396  0.5330
  969MOL0     C30714   1.364   5.226   9.969 -0.2713  0.0457  0.3786
  969MOL0     C30715   1.473   5.219  10.052 -0.2560 -0.6075 -0.5583
  969MOL0     O30716   1.561   5.326  10.062 -0.0559  0.2544  0.5833
  969MOL0     C30717   1.654   5.312   9.955 -0.4276  0.7793  0.3599
  969MOL0     C30718   1.777   5.397   9.982 -1.0333  0.5906  0.1487
  969MOL0     C30719   1.884   5.391   9.863 -0.0981 -0.2035  0.2812
  969MOL0     C30720   1.935   5.253   9.837 -0.6811 -0.0286  0.4100
  969MOL0     C30721   2.073   5.261   9.763  0.6092 -0.2179 -0.2046
  969MOL0     C30722   2.099   5.143   9.680 -0.5909  0.5202 -0.5287
  969MOL0     C30723   2.219   5.190   9.587 -0.2386  0.3980 -0.9188
  969MOL0     C30724   2.331   5.080   9.586  0.0005  0.1114  1.1232
  969MOL0    Cl30725   2.431   5.069   9.728  0.5467  0.0302 -0.1013
  969MOL0     C30726   1.473   5.124  10.150  1.0141  0.1456  0.4521
  969MOL0     C30727   1.367   5.032  10.169  0.4834 -0.3029 -0.4378
  969MOL0     O30728   1.155   4.880   9.881 -0.3489  0.8506  0.5207
  969MOL0     C30729   1.014   4.721  10.163 -0.8253  0.1577 -0.1069
  969MOL0     C30730   0.937   4.616  10.209  0.0117 -0.0987  0.6610
  969MOL0     N30731   0.363   3.977  10.243  0.6337 -0.1366 -0.4632
  969MOL0     N30732   0.411   3.889  10.323 -0.2145  0.1625  0.1119
  969MOL0     C30733   1.487   4.108  10.819 -0.5447  0.1160  0.3639
  969MOL0     C30734   1.610   4.131  10.759 -0.3590  0.0829  1.2321
  969MOL0     C30735   1.988   4.256  10.561  0.4370 -0.4580  0.3601
  969MOL0     C30736   2.048   4.370  10.620 -0.0533  0.7238  0.7187
  969MOL0     C30737   2.168   4.414  10.571 -0.3236  0.7904 -0.3103
  969MOL0     C30738   2.244   4.339  10.480  0.5138  0.1408 -0.4505
  969MOL0     O30739   2.372   4.371  10.465 -0.4703 -0.8781 -0.1441
  969MOL0     C30740   2.411   4.414  10.334  0.3657  0.0842  0.1485
  969MOL0     C30741   2.566   4.392  10.303  0.2943  0.6499 -0.1142
  969MOL0     C30742   2.597   4.240  10.282  1.1158 -0.3747 -0.3225
  969MOL0     C30743   2.743   4.215  10.280  0.1331  0.2825  0.2520
  969MOL0     C30744   2.796   4.204  10.412  0.0565  0.1928 -0.4817
  969MOL0     C30745   2.811   4.202  10.531 -0.8953  0.2806  0.6449
  969MOL0     C30746   2.195   4.224  10.422 -2.1110 -0.4334 -0.1923
  969MOL0     C30747   2.064   4.188  10.465  0.3437 -0.1605 -0.3514
  969MOL0     H30748   1.655   4.454  10.815 -3.2635  1.9051 -1.4853
  969MOL0     H30749   1.463   4.415  10.971 -1.6084 -2.2749  0.9318
  969MOL0     H30750   1.201   4.350  10.911  2.4626  0.2861 -0.0172
  969MOL0     H30751   1.169   4.226  10.788 -2.9567  1.0058  1.2255
  969MOL0     H30752   1.082   4.073  10.947 -0.8549 -0.6258  0.6231
  969MOL0     H30753   1.068   4.198  11.070  1.6516  0.3310 -0.1909
  969MOL0     H30754   0.859   4.243  10.976 -0.3648  1.8104 -0.7812
  969MOL0     H30755   0.933   4.317  10.841 -1.5042  0.2943  1.4796
  969MOL0     H30756   0.918   4.108  10.716 -0.1483 -2.6330 -0.2970
  969MOL0     H30757   0.868   4.029  10.873 -1.5936  2.4459  4.3627
  969MOL0     H30758   0.666   4.171  10.865 -0.5027  2.9282 -1.2992
  969MOL0     H30759   0.703   4.242  10.715 -0.5156  0.3479  0.2631
  969MOL0     H30760   0.632   3.936  10.754 -0.3537 -1.0881 -1.5743
  969MOL0     H30761   0.530   4.063  10.683 -0.6108 -0.7032  0.8904
  969MOL0     H30762   0.684   4.102  10.514 -5.5802  0.6987  0.1600
  969MOL0     H30763   0.785   3.955  10.567  0.5161  0.8025 -0.3730
  969MOL0     H30764   0.556   3.836  10.568 -3.4773  0.8092 -1.6014
  969MOL0     H30765   0.641   3.848  10.413  0.5253 -1.8063  0.9824
  969MOL0     H30766   0.464   4.171  10.481  0.9958  0.5271  0.5192
  969MOL0     H30767   0.241   4.196  10.168 -0.0911 -0.8185  1.3101
  969MOL0     H30768   0.295   4.289  10.310 -0.7213 -1.5980  0.1762
  969MOL0     H30769   0.380   4.400  10.111 -0.8914 -0.6361 -1.1746
  969MOL0     H30770   0.431   4.266  10.029  2.4928 -1.9781 -0.1559
  969MOL0     H30771   0.611   4.223  10.178 -2.5102 -0.6323 -1.8897
  969MOL0     H30772   0.550   4.363  10.289 -0.8136  0.4263  0.2433
  969MOL0     H30773   0.591   4.526  10.129 -2.2378 -1.4151 -0.4362
  969MOL0     H30774   0.634   4.397  10.009  2.2822 -0.1229  0.2620
  969MOL0     H30775   0.782   4.547   9.909  0.3920 -0.6266  1.2124
  969MOL0     H30776   0.789   4.723   9.771  0.5413 -0.2815 -1.4999
  969MOL0     H30777   0.894   4.861   9.800  3.4459 -0.6470  0.3163
  969MOL0     H30778   0.968   4.706   9.742 -0.0156 -2.0823  0.7966
  969MOL0     H30779   1.180   5.134   9.902  1.1680  3.3959  0.3539
  969MOL0     H30780   1.367   5.308   9.898 -0.1395 -1.1474 -1.0398
  969MOL0     H30781   1.689   5.210   9.938 -2.0526  0.4083 -1.0215
  969MOL0     H30782   1.602   5.340   9.863 -0.2728  1.0771  0.3603
  969MOL0     H30783   1.750   5.503   9.982  1.1730  1.2061  1.0412
  969MOL0     H30784   1.817   5.368  10.080 -1.5280  1.4969  0.6266
  969MOL0     H30785   1.975   5.445   9.888 -0.8627  1.3132 -0.0385
  969MOL0     H30786   1.846   5.440   9.773  1.2897  2.1122  0.8817
  969MOL0     H30787   1.965   5.203   9.929  1.6799  6.7989  4.0562
  969MOL0     H30788   1.859   5.189   9.790  0.5589 -1.7590  0.6654
  969MOL0     H30789   2.150   5.287   9.837  0.9801 -0.1864 -0.5991
  969MOL0     H30790   2.069   5.346   9.696 -0.6711 -1.1127 -1.3096
  969MOL0     H30791   2.143   5.060   9.736 -0.4012 -0.5459 -2.1881
  969MOL0     H30792   2.010   5.107   9.629 -0.3747 -0.8588  0.0181
  969MOL0     H30793   2.277   5.280   9.611  1.9069 -1.2732  0.5618
  969MOL0     H30794   2.176   5.208   9.488 -0.9618  1.4223 -0.4378
  969MOL0     H30795   2.396   5.107   9.503 -2.5050 -0.1038 -1.0119
  969MOL0     H30796   2.283   4.982   9.571  0.7594 -0.2362  0.9200
  969MOL0     H30797   1.561   5.118  10.213  1.1627 -1.0925  0.1633
  969MOL0     H30798   1.365   4.958  10.248  0.9296  1.2391  1.1058
  969MOL0     H30799   1.081   4.765  10.236 -0.9137  2.5352 -1.3436
  969MOL0     H30800   0.959   4.588  10.312  0.7936 -0.2485  0.4565
  969MOL0     H30801   1.441   4.009  10.815  2.1361 -1.2187  0.4838
  969MOL0     H30802   1.648   4.048  10.701 -1.7228  0.9488 -1.0551
  969MOL0     H30803   1.990   4.427  10.692  1.9189  2.0141  1.3580
  969MOL0     H30804   2.207   4.511  10.599 -3.2560  2.1853 -0.6794
  969MOL0     H30805   2.351   4.362  10.259 -0.7092 -1.7321  2.1315
  969MOL0     H30806   2.385   4.520  10.321 -1.4479 -0.4824 -1.2246
  969MOL0     H30807   2.622   4.435  10.387  2.5573 -2.2756  0.0393
  969MOL0     H30808   2.589   4.441  10.208  1.9352  0.9382  0.3966
  969MOL0     H30809   2.551   4.205  10.190  1.0991  3.2131 -1.8718
  969MOL0     H30810   2.563   4.180  10.367  2.6872 -2.1704 -0.9014
  969MOL0     H30811   2.792   4.294  10.223  1.4966 -2.7141 -3.1237
  969MOL0     H30812   2.769   4.118  10.235 -0.6062 -0.8137  2.0614
  969MOL0     H30813   2.827   4.203  10.637  0.1633 -0.9186  0.5186
  969MOL0     H30814   2.261   4.162  10.362 -1.1084  0.0526  0.3825
  969MOL0     H30815   2.036   4.090  10.426 -0.1852  0.2268 -0.9754
  970MOL0     O30816   9.362   8.098   6.988 -0.3015  0.6655  0.0148
  970MOL0     C30817   9.370   8.221   7.001  0.0541  0.1334 -0.5785
  970MOL0     O30818   9.275   8.317   6.975 -0.9101  0.1676 -0.0909
  970MOL0     C30819   9.152   8.274   6.934  0.2361  0.6792 -0.0626
  970MOL0     C30820   9.104   8.305   6.803  0.5338 -0.3495  0.0239
  970MOL0     C30821   8.975   8.261   6.757 -0.0811  0.1118  0.3099
  970MOL0     C30822   8.904   8.169   6.831  0.2427 -0.3463 -0.2357
  970MOL0     O30823   8.784   8.126   6.783 -0.3276 -0.1765  0.2687
  970MOL0     C30824   8.680   8.086   6.871  0.4218  0.2360  0.4480
  970MOL0     C30825   8.562   8.012   6.805  0.2838 -0.1421 -0.6533
  970MOL0     C30826   8.425   8.066   6.865 -0.0313  1.1395  0.3625
  970MOL0     C30827   8.334   7.942   6.893  0.6133  1.5959  0.2004
  970MOL0     C30828   8.209   7.989   6.959  0.1739 -0.7534 -0.2259
  970MOL0     C30829   8.100   7.888   6.967 -0.9321 -0.0257 -0.0879
  970MOL0     C30830   7.961   7.955   6.988 -0.9908 -0.3394 -0.2476
  970MOL0     C30831   7.866   7.852   7.037  0.3485  0.8856  0.2068
  970MOL0     N30832   7.849   7.741   6.944  0.8481  0.5678  0.3085
  970MOL0     C30833   7.761   7.756   6.834 -0.8750 -0.5321  0.1765
  970MOL0     C30834   7.780   7.632   6.775 -0.5487 -0.3493 -0.1563
  970MOL0     C30835   7.687   7.580   6.667 -0.1680 -0.6012 -0.4702
  970MOL0     C30836   7.545   7.568   6.709  0.7465 -0.3272  0.4483
  970MOL0     C30837   7.464   7.506   6.592  0.0168 -0.2548  0.6144
  970MOL0     C30838   7.324   7.582   6.577  0.3159  0.1799 -0.5815
  970MOL0     O30839   7.233   7.510   6.482 -0.3920  0.3387  0.3153
  970MOL0     C30840   7.134   7.579   6.415 -0.3558 -0.3810  0.2862
  970MOL0     C30841   7.088   7.517   6.297 -0.8199  0.9207  0.3166
  970MOL0     C30842   6.983   7.571   6.216 -0.7103 -1.1266  0.2556
  970MOL0     C30843   6.939   7.480   6.100  0.6562  0.3436 -0.2212
  970MOL0     C30844   6.925   7.695   6.259 -0.0277  1.0425 -0.1672
  970MOL0     C30845   6.815   7.762   6.190  0.0708  0.9611  0.1179
  970MOL0     O30846   6.751   7.698   6.093  0.0653 -0.3354 -0.2233
  970MOL0     C30847   6.622   7.737   6.070  0.4390  0.1858  0.2866
  970MOL0     C30848   6.518   7.657   6.124  0.3574  0.6387  0.7548
  970MOL0     C30849   6.384   7.681   6.106 -0.0513 -0.2805  0.7925
  970MOL0     C30850   6.355   7.782   6.014  0.5340 -0.1003  0.4241
  970MOL0     O30851   6.218   7.801   5.992 -0.5408  1.2168 -0.3348
  970MOL0     C30852   6.189   7.941   6.025 -0.2777  0.5550 -1.3599
  970MOL0     C30853   6.042   7.951   6.044 -0.5125  0.7370  0.0522
  970MOL0     C30854   5.986   7.972   5.901 -0.1032  0.3326  0.3009
  970MOL0     C30855   5.842   7.983   5.891  0.2357 -0.8630  0.0443
  970MOL0     C30856   5.784   8.111   5.946 -0.1476 -0.8266  0.4362
  970MOL0     C30857   5.636   8.093   5.968 -0.0617 -0.1649 -0.0642
  970MOL0     C30858   5.559   8.203   6.044 -0.4656  0.4667  0.2606
  970MOL0     C30859   5.413   8.163   6.074  0.7424  0.1358  0.0347
  970MOL0    Cl30860   5.347   8.264   6.211  0.0565  0.0175  0.1593
  970MOL0     C30861   6.450   7.852   5.938  0.4928 -0.0195  0.2416
  970MOL0     C30862   6.585   7.841   5.977  0.2948  0.3308 -0.6452
  970MOL0     O30863   6.778   7.872   6.235  0.2860  0.6390 -0.0799
  970MOL0     C30864   6.970   7.753   6.380  0.2881 -0.1143  0.9813
  970MOL0     C30865   7.074   7.703   6.458  0.2105 -0.1481  0.0700
  970MOL0     N30866   7.871   7.550   6.838 -0.4588  0.5758  0.0765
  970MOL0     N30867   7.909   7.620   6.943 -0.0285 -0.9302  0.1877
  970MOL0     C30868   8.956   8.125   6.955 -0.0175  0.7175 -0.2471
  970MOL0     C30869   9.074   8.175   7.008  0.5744  0.1243 -0.7111
  970MOL0     C30870   9.513   8.273   7.009  0.7935 -0.2713  0.2605
  970MOL0     C30871   9.533   8.413   6.987 -0.6371  0.8543  0.3804
  970MOL0     C30872   9.669   8.456   6.982 -0.9033 -0.5600 -0.1353
  970MOL0     C30873   9.783   8.367   6.994 -0.1948 -0.9449 -1.1316
  970MOL0     O30874   9.916   8.403   6.991  0.3226 -0.0219  0.2731
  970MOL0     C30875   9.945   8.543   6.951 -0.1741  0.3266 -0.0704
  970MOL0     C30876  10.086   8.574   6.925 -0.3220  0.2013 -0.6690
  970MOL0     C30877  10.103   8.702   6.848  0.1251 -0.3309  0.7288
  970MOL0     C30878  10.248   8.742   6.841 -0.9750  0.4868 -0.0802
  970MOL0     C30879  10.339   8.646   6.785  0.1482  0.3745 -0.1973
  970MOL0     C30880  10.421   8.564   6.741  1.0390 -0.1162 -0.0652
  970MOL0     C30881   9.761   8.232   7.019  0.0107  0.1634  0.1328
  970MOL0     C30882   9.624   8.189   7.027  1.2826 -1.5053 -0.6947
  970MOL0     H30883   9.169   8.370   6.746 -0.5719  2.2241  1.5203
  970MOL0     H30884   8.930   8.286   6.661  0.0192 -1.0066 -0.0433
  970MOL0     H30885   8.708   8.027   6.958 -1.3036 -1.1642  0.1175
  970MOL0     H30886   8.642   8.186   6.894 -0.3319 -0.4157  2.2030
  970MOL0     H30887   8.558   8.037   6.698  2.7936  1.2457 -0.5078
  970MOL0     H30888   8.577   7.904   6.815 -0.2095 -0.3265 -1.7164
  970MOL0     H30889   8.446   8.125   6.954  2.4476  0.4733  0.3176
  970MOL0     H30890   8.381   8.133   6.791  3.2737  2.8043 -0.2657
  970MOL0     H30891   8.301   7.895   6.800 -1.7007  2.1953  0.6601
  970MOL0     H30892   8.382   7.871   6.962 -2.6416 -1.3287 -0.2261
  970MOL0     H30893   8.235   8.029   7.058  1.0392  0.7683 -1.0180
  970MOL0     H30894   8.180   8.071   6.893  2.2359  1.3852  1.3366
  970MOL0     H30895   8.102   7.835   6.871  1.7082 -0.9172  0.3522
  970MOL0     H30896   8.125   7.813   7.044  1.3867  2.2058  1.4960
  970MOL0     H30897   7.975   8.043   7.052  1.3745 -0.0792 -1.0313
  970MOL0     H30898   7.915   7.994   6.897  1.1143  0.7212 -0.9232
  970MOL0     H30899   7.767   7.898   7.047 -0.0052  0.0452  0.6719
  970MOL0     H30900   7.895   7.814   7.135 -1.8908  2.2879  1.4991
  970MOL0     H30901   7.701   7.832   6.785 -2.1055 -0.9282  1.0218
  970MOL0     H30902   7.692   7.647   6.582 -1.8294  0.1308 -0.0293
  970MOL0     H30903   7.724   7.482   6.634 -0.1227 -1.2248  1.3147
  970MOL0     H30904   7.509   7.665   6.744  1.4824 -0.2069  0.8975
  970MOL0     H30905   7.528   7.497   6.790 -3.2783 -2.3162 -1.8140
  970MOL0     H30906   7.447   7.398   6.591  0.8589 -0.4143 -1.0654
  970MOL0     H30907   7.519   7.517   6.498 -0.9647 -3.0368 -0.3916
  970MOL0     H30908   7.352   7.675   6.527 -2.9949  1.0236 -1.0951
  970MOL0     H30909   7.294   7.603   6.681  1.2606  0.6088 -0.3833
  970MOL0     H30910   7.129   7.418   6.278  1.5094  1.6099  1.4285
  970MOL0     H30911   6.838   7.441   6.116  1.1387 -0.5288  0.7817
  970MOL0     H30912   6.929   7.533   6.005 -0.4380 -1.4384 -1.1346
  970MOL0     H30913   7.016   7.403   6.089  0.5856  0.2699 -0.1952
  970MOL0     H30914   6.562   7.584   6.191  0.9352  1.4692  1.3000
  970MOL0     H30915   6.314   7.623   6.165 -5.4261  2.1818 -2.4277
  970MOL0     H30916   6.229   7.959   6.125  0.2755  0.6887 -1.6001
  970MOL0     H30917   6.227   8.014   5.954 -1.1502  3.7338  1.2315
  970MOL0     H30918   6.008   7.862   6.098 -1.2284 -0.5324 -2.3667
  970MOL0     H30919   6.016   8.043   6.098 -1.3097  0.8201 -0.4525
  970MOL0     H30920   6.016   7.897   5.827 -0.5992  1.5577 -1.2091
  970MOL0     H30921   6.033   8.062   5.861 -0.5216  1.6612  2.6382
  970MOL0     H30922   5.814   7.965   5.787  0.2464 -0.3609 -0.0441
  970MOL0     H30923   5.789   7.898   5.936 -2.6427  1.4283  1.2968
  970MOL0     H30924   5.811   8.194   5.880 -0.4665 -0.8341  0.2918
  970MOL0     H30925   5.826   8.131   6.045  0.9192  1.1879 -0.3724
  970MOL0     H30926   5.597   8.073   5.868  2.7892  1.7930 -1.6992
  970MOL0     H30927   5.619   8.004   6.030 -1.3192  0.8672  1.1454
  970MOL0     H30928   5.555   8.291   5.978  2.6147  0.2780 -0.2985
  970MOL0     H30929   5.607   8.225   6.140  2.1447 -1.0529 -0.6024
  970MOL0     H30930   5.403   8.058   6.103 -2.7207  0.7832  1.7033
  970MOL0     H30931   5.356   8.191   5.986  1.7172 -1.6565 -1.2508
  970MOL0     H30932   6.424   7.921   5.858 -0.2855  2.1166  2.2173
  970MOL0     H30933   6.660   7.900   5.926 -0.1210 -1.2590 -3.2412
  970MOL0     H30934   6.915   7.834   6.427 -0.7953 -1.5469  2.2873
  970MOL0     H30935   7.102   7.759   6.547  0.8538  0.4283 -0.4803
  970MOL0     H30936   8.899   8.054   7.014 -2.6974  1.7866 -1.4241
  970MOL0     H30937   9.116   8.132   7.098 -2.3882  1.4010  1.4837
  970MOL0     H30938   9.452   8.483   6.969 -2.2687 -0.8792  0.6537
  970MOL0     H30939   9.692   8.561   6.961 -3.4010  0.1711  0.5137
  970MOL0     H30940   9.886   8.582   6.868 -0.2153 -2.4591 -1.4607
  970MOL0     H30941   9.929   8.594   7.047  2.5192  0.2512  0.5091
  970MOL0     H30942  10.137   8.492   6.872 -1.5484 -0.9472 -0.1221
  970MOL0     H30943  10.130   8.585   7.025 -1.0739  1.1771 -0.4302
  970MOL0     H30944  10.049   8.782   6.900 -0.1908  0.6235 -1.0101
  970MOL0     H30945  10.064   8.698   6.746 -0.6807  0.5080  0.9916
  970MOL0     H30946  10.271   8.762   6.947  2.2632 -0.0618 -0.5805
  970MOL0     H30947  10.247   8.833   6.781 -0.7180  1.9350  1.9747
  970MOL0     H30948  10.476   8.476   6.716  3.8189  1.5319 -0.1243
  970MOL0     H30949   9.836   8.155   7.033 -0.9627 -0.8341  0.0388
  970MOL0     H30950   9.597   8.087   7.051  1.0727 -0.4945  4.4076
  971MOL0     O30951   3.153   2.104   0.150 -0.4861 -0.2650 -0.5102
  971MOL0     C30952   3.188   2.220   0.152  0.5780 -0.2354 -0.2438
  971MOL0     O30953   3.127   2.319   0.083 -0.5509  0.3842 -0.0311
  971MOL0     C30954   3.014   2.279   0.013 -0.8533 -0.0085  0.3893
  971MOL0     C30955   3.011   2.255  -0.120 -0.1537  0.4803 -0.0240
  971MOL0     C30956   2.894   2.215  -0.194 -1.3972  0.1631 -0.1238
  971MOL0     C30957   2.773   2.192  -0.114 -0.3094  0.1174  0.7265
  971MOL0     O30958   2.651   2.160  -0.166 -0.5071 -0.2154  0.0311
  971MOL0     C30959   2.632   2.131  -0.305  0.2241 -0.6889  0.0079
  971MOL0     C30960   2.503   2.046  -0.313  0.4163 -0.0143 -0.0584
  971MOL0     C30961   2.480   2.023  -0.460  0.2623 -0.1363 -0.3615
  971MOL0     C30962   2.341   1.953  -0.490  0.1150  0.1992  0.3262
  971MOL0     C30963   2.313   1.914  -0.637  0.1074 -0.7538  0.4571
  971MOL0     C30964   2.312   2.022  -0.743  0.0896  0.1867  0.2896
  971MOL0     C30965   2.295   1.951  -0.879 -0.0860 -0.1690  0.1551
  971MOL0     C30966   2.251   2.055  -0.988  0.3914  0.0871 -0.0308
  971MOL0     N30967   2.297   2.009  -1.121  0.6786  0.0471 -0.0128
  971MOL0     C30968   2.216   1.928  -1.197  0.1876 -0.2326  0.3284
  971MOL0     C30969   2.260   1.944  -1.325  0.8277  0.2189  0.0731
  971MOL0     C30970   2.195   1.879  -1.444 -0.1278 -0.2805  0.1041
  971MOL0     C30971   2.074   1.965  -1.504 -0.0816  0.3504  0.6243
  971MOL0     C30972   1.956   1.994  -1.404  0.6183  0.6539  0.2529
  971MOL0     C30973   1.894   1.864  -1.334  0.2627  0.0315  0.7660
  971MOL0     O30974   1.838   1.770  -1.425 -0.7089  0.1486 -0.1868
  971MOL0     C30975   1.708   1.779  -1.474 -1.0033 -1.0140  0.1668
  971MOL0     C30976   1.677   1.682  -1.564  0.6724  0.6036 -0.0622
  971MOL0     C30977   1.545   1.662  -1.610 -0.1533  0.0370 -0.8891
  971MOL0     C30978   1.503   1.562  -1.712 -0.4452  0.0583  0.1232
  971MOL0     C30979   1.444   1.753  -1.564  0.8377 -0.5958 -0.0421
  971MOL0     C30980   1.299   1.733  -1.587  0.7342  0.5509 -0.3530
  971MOL0     O30981   1.233   1.816  -1.674 -0.4309 -0.4619  0.0782
  971MOL0     C30982   1.100   1.818  -1.684  0.4836  0.9189  0.3026
  971MOL0     C30983   1.022   1.837  -1.567 -0.1509 -0.1269 -0.3866
  971MOL0     C30984   0.889   1.839  -1.564 -0.6954 -0.2791  0.5725
  971MOL0     C30985   0.829   1.820  -1.686  0.4387 -0.7853  0.2242
  971MOL0     O30986   0.689   1.824  -1.690  0.1630  0.0625  0.0599
  971MOL0     C30987   0.625   1.770  -1.569 -0.1075  0.1017 -0.5775
  971MOL0     C30988   0.481   1.749  -1.596 -0.4339 -0.5514 -0.6694
  971MOL0     C30989   0.413   1.671  -1.484  0.0118 -0.4767  0.4727
  971MOL0     C30990   0.298   1.573  -1.534  0.1840  1.1411  0.1902
  971MOL0     C30991   0.183   1.643  -1.614  0.8397  1.5844 -0.1137
  971MOL0     C30992   0.112   1.736  -1.519 -0.2888 -0.1327  0.7439
  971MOL0     C30993  -0.017   1.791  -1.591  0.4189 -0.6667  0.5275
  971MOL0     C30994  -0.126   1.685  -1.600 -0.5888 -0.2040 -0.1309
  971MOL0    Cl30995  -0.209   1.673  -1.446  0.0474 -0.6546 -0.0583
  971MOL0     C30996   0.894   1.829  -1.809 -0.4410  0.0371  0.5302
  971MOL0     C30997   1.032   1.818  -1.809  0.2951 -0.1811  0.4563
  971MOL0     O30998   1.252   1.641  -1.524  0.3696  0.2614 -0.1213
  971MOL0     C30999   1.483   1.861  -1.486 -0.4972 -0.4493 -0.8174
  971MOL0     C31000   1.614   1.876  -1.439  0.3881  0.1061  0.3695
  971MOL0     N31001   2.354   2.046  -1.331 -0.7164  0.3988  0.2065
  971MOL0     N31002   2.381   2.073  -1.205  0.7428  0.1446  0.5732
  971MOL0     C31003   2.776   2.223   0.022 -0.0721  0.4190  0.4927
  971MOL0     C31004   2.900   2.254   0.081  0.2578 -0.7838 -0.3779
  971MOL0     C31005   3.300   2.263   0.234 -0.6499  1.1705  0.2530
  971MOL0     C31006   3.375   2.169   0.316 -0.6835  0.2125  0.1629
  971MOL0     C31007   3.485   2.206   0.395  0.3097  0.3573 -0.4103
  971MOL0     C31008   3.538   2.338   0.386 -0.7319 -0.4328 -0.0595
  971MOL0     O31009   3.653   2.374   0.460  0.0021 -0.3745 -0.0653
  971MOL0     C31010   3.697   2.297   0.569  0.2101 -0.7301 -0.3499
  971MOL0     C31011   3.810   2.361   0.659 -0.0199  0.4203  0.7857
  971MOL0     C31012   3.774   2.500   0.712 -0.0921  0.0209  0.7828
  971MOL0     C31013   3.867   2.556   0.820 -0.1589  0.1678  0.9226
  971MOL0     C31014   3.862   2.491   0.954  0.1226 -0.8640 -0.2334
  971MOL0     C31015   3.852   2.445   1.061 -0.9477  0.9842  0.1447
  971MOL0     C31016   3.476   2.431   0.305 -0.0773 -0.3145  0.1692
  971MOL0     C31017   3.360   2.390   0.235  0.5235 -0.2502  0.4859
  971MOL0     H31018   3.097   2.288  -0.178 -0.2453  2.6079  0.9572
  971MOL0     H31019   2.890   2.203  -0.302 -0.7140  0.3097 -0.1674
  971MOL0     H31020   2.635   2.221  -0.367  0.5119  0.0907  1.1414
  971MOL0     H31021   2.721   2.079  -0.344  0.2129 -0.0579 -0.8836
  971MOL0     H31022   2.519   1.950  -0.262  1.5837 -0.6768 -1.5807
  971MOL0     H31023   2.416   2.102  -0.279  2.0960  2.6653  0.1515
  971MOL0     H31024   2.478   2.115  -0.519  2.5173 -0.5839 -1.2255
  971MOL0     H31025   2.559   1.961  -0.503  1.4461  1.0934  0.0175
  971MOL0     H31026   2.337   1.859  -0.435 -0.7371 -1.8041 -2.8784
  971MOL0     H31027   2.256   2.009  -0.448  1.2460 -0.3157  3.5839
  971MOL0     H31028   2.395   1.850  -0.668  0.8192 -0.5261  1.7817
  971MOL0     H31029   2.214   1.867  -0.647 -1.3448  1.7024  2.1025
  971MOL0     H31030   2.235   2.097  -0.726 -1.4589 -0.9369 -1.3553
  971MOL0     H31031   2.410   2.070  -0.753  0.9035 -1.5655 -0.8262
  971MOL0     H31032   2.390   1.907  -0.910  0.8948  1.2592  0.9807
  971MOL0     H31033   2.235   1.863  -0.858 -0.6848  0.5946  1.7737
  971MOL0     H31034   2.302   2.151  -0.973  1.5921 -0.1784 -2.0482
  971MOL0     H31035   2.144   2.074  -0.986  0.2675 -0.4651  2.4890
  971MOL0     H31036   2.135   1.867  -1.159 -0.9000  2.3235  2.4261
  971MOL0     H31037   2.280   1.860  -1.510  0.7925  1.9742  0.5419
  971MOL0     H31038   2.159   1.783  -1.407  2.3087 -2.7478 -3.2126
  971MOL0     H31039   2.040   1.902  -1.587 -0.1526  0.5096  0.5317
  971MOL0     H31040   2.109   2.057  -1.552 -2.9520  0.8030 -0.7855
  971MOL0     H31041   1.874   2.045  -1.456 -1.1416 -0.6689  1.5932
  971MOL0     H31042   1.985   2.060  -1.322 -0.5753  1.6394 -0.0725
  971MOL0     H31043   1.818   1.898  -1.264 -0.3371 -0.7393  0.5048
  971MOL0     H31044   1.977   1.807  -1.291  2.1715  0.5074 -1.9705
  971MOL0     H31045   1.752   1.609  -1.591  0.9548  1.2770 -1.2245
  971MOL0     H31046   1.444   1.475  -1.682  2.5081 -1.7849  1.1232
  971MOL0     H31047   1.443   1.617  -1.785 -3.0660 -0.3102  1.8903
  971MOL0     H31048   1.596   1.518  -1.751  0.4863  0.9461  1.3108
  971MOL0     H31049   1.081   1.840  -1.475  0.6207 -0.6542 -0.8501
  971MOL0     H31050   0.835   1.861  -1.472 -1.2728 -0.3402  0.2513
  971MOL0     H31051   0.671   1.676  -1.537  0.5667  1.6345  3.5122
  971MOL0     H31052   0.631   1.837  -1.483 -1.9780  0.6842 -0.8392
  971MOL0     H31053   0.431   1.846  -1.604  1.0834  0.3285 -0.0430
  971MOL0     H31054   0.476   1.694  -1.690  0.3627 -1.2276 -0.3320
  971MOL0     H31055   0.363   1.738  -1.413 -0.9093  0.9396 -1.4194
  971MOL0     H31056   0.482   1.615  -1.420 -1.7900 -0.9109  2.1503
  971MOL0     H31057   0.343   1.498  -1.600 -2.9332  0.5298 -1.4157
  971MOL0     H31058   0.255   1.515  -1.453 -0.5301 -1.0576 -1.6558
  971MOL0     H31059   0.125   1.560  -1.655  2.3094 -0.1323  1.1409
  971MOL0     H31060   0.227   1.696  -1.700  1.5818 -0.4663 -1.0620
  971MOL0     H31061   0.087   1.696  -1.419 -0.1869 -1.3289  0.3089
  971MOL0     H31062   0.186   1.816  -1.512  2.0691 -2.0205 -1.1170
  971MOL0     H31063   0.011   1.807  -1.696  0.1624 -1.0334  0.3999
  971MOL0     H31064  -0.055   1.885  -1.552  2.4602  0.1344  0.7223
  971MOL0     H31065  -0.092   1.583  -1.621  3.8128  0.3554  2.9932
  971MOL0     H31066  -0.197   1.715  -1.677 -0.3075 -0.6290 -0.5598
  971MOL0     H31067   0.835   1.846  -1.898  0.7814  3.2368  0.2130
  971MOL0     H31068   1.092   1.824  -1.899  1.1844 -2.7806  0.7782
  971MOL0     H31069   1.412   1.937  -1.455  0.9506  0.9221 -0.7740
  971MOL0     H31070   1.638   1.954  -1.367 -0.8397  0.0078  0.9066
  971MOL0     H31071   2.685   2.219   0.082  0.4302 -1.2012  1.1989
  971MOL0     H31072   2.900   2.277   0.187  1.0958  0.8847 -0.7009
  971MOL0     H31073   3.341   2.067   0.329 -0.0443 -0.2752 -1.6867
  971MOL0     H31074   3.530   2.136   0.464 -1.0316 -1.9913 -1.7845
  971MOL0     H31075   3.613   2.279   0.636  0.7744 -0.4680  0.4425
  971MOL0     H31076   3.722   2.198   0.530  0.2339 -1.1725  0.7720
  971MOL0     H31077   3.899   2.353   0.595  0.7105  0.7073  1.7382
  971MOL0     H31078   3.816   2.289   0.742 -2.6911 -1.2177 -0.3117
  971MOL0     H31079   3.673   2.507   0.754 -1.5924  0.5301 -2.5581
  971MOL0     H31080   3.776   2.571   0.629  1.0166 -0.2552  0.5584
  971MOL0     H31081   3.836   2.661   0.832 -0.1353  0.3501 -0.4690
  971MOL0     H31082   3.971   2.540   0.790 -0.6467 -2.7035  0.5583
  971MOL0     H31083   3.830   2.412   1.160  0.1439 -0.6732 -0.1200
  971MOL0     H31084   3.511   2.534   0.306 -3.2933  0.8977 -0.1532
  971MOL0     H31085   3.321   2.471   0.173  0.8669  0.7270  1.5090
  972MOL0     O31086   7.773   6.491   0.591 -0.0111  0.4302 -0.0155
  972MOL0     C31087   7.842   6.385   0.609 -0.3848  0.4474  0.3783
  972MOL0     O31088   7.806   6.260   0.653  0.0662  0.6851 -0.4739
  972MOL0     C31089   7.679   6.218   0.657  0.4372 -0.7299 -0.4459
  972MOL0     C31090   7.611   6.161   0.547 -0.4171 -0.1154  0.5701
  972MOL0     C31091   7.483   6.116   0.560  0.1499  0.2601 -0.1703
  972MOL0     C31092   7.413   6.122   0.679  0.2556 -0.4522  0.1402
  972MOL0     O31093   7.289   6.063   0.677  0.7548 -0.3381 -0.1190
  972MOL0     C31094   7.200   6.111   0.775 -0.1921 -0.3240  0.4914
  972MOL0     C31095   7.067   6.046   0.761  0.1461  0.7725 -1.1701
  972MOL0     C31096   7.001   6.059   0.625  0.4949  0.5905 -0.7616
  972MOL0     C31097   6.853   6.026   0.632 -0.0875  0.1216  0.5592
  972MOL0     C31098   6.789   6.041   0.495  0.5043 -0.9214 -0.3626
  972MOL0     C31099   6.637   6.018   0.495 -0.1337  0.5881 -1.0340
  972MOL0     C31100   6.555   6.134   0.563  0.5783  0.4341  0.8895
  972MOL0     C31101   6.407   6.104   0.555  0.1635  0.1599  0.4058
  972MOL0     N31102   6.324   6.212   0.603  0.2762 -0.0721 -0.1413
  972MOL0     C31103   6.305   6.237   0.740  0.7591 -0.1490 -0.4647
  972MOL0     C31104   6.204   6.333   0.740  0.0320  0.3119  0.1511
  972MOL0     C31105   6.163   6.400   0.874  0.1804 -0.3435 -0.9894
  972MOL0     C31106   6.023   6.457   0.884 -0.0607  0.6867  0.0476
  972MOL0     C31107   5.993   6.572   0.792  0.7718 -0.4429 -0.0361
  972MOL0     C31108   5.858   6.634   0.814  1.3606 -0.1907  0.5976
  972MOL0     O31109   5.755   6.545   0.777 -0.3009 -0.3625  0.2127
  972MOL0     C31110   5.629   6.587   0.806  0.5177 -0.2605  0.2958
  972MOL0     C31111   5.573   6.535   0.919  0.0001  0.2648  0.2050
  972MOL0     C31112   5.445   6.577   0.953  0.1017  0.8308 -0.4509
  972MOL0     C31113   5.393   6.523   1.087 -0.0135  0.2147 -0.3471
  972MOL0     C31114   5.368   6.666   0.877 -0.0513 -1.0867 -0.5449
  972MOL0     C31115   5.239   6.719   0.909 -0.2627 -1.1083 -0.2042
  972MOL0     O31116   5.161   6.754   0.803 -0.0834  0.2653  0.1216
  972MOL0     C31117   5.048   6.827   0.816 -0.2790  0.2750 -0.2491
  972MOL0     C31118   5.044   6.944   0.895 -0.2120 -0.0679 -0.1821
  972MOL0     C31119   4.931   7.018   0.908 -0.0573 -0.6614  0.5965
  972MOL0     C31120   4.811   6.980   0.847  0.6299  0.9359  0.7004
  972MOL0     O31121   4.696   7.047   0.885 -0.8787  0.4047 -0.2252
  972MOL0     C31122   4.572   6.980   0.862  0.0485 -0.1091  0.7740
  972MOL0     C31123   4.467   7.074   0.918  0.4987  0.2442  0.4067
  972MOL0     C31124   4.469   7.215   0.850 -0.3067 -0.1049  0.2990
  972MOL0     C31125   4.334   7.280   0.870 -0.4042 -1.4358  0.3207
  972MOL0     C31126   4.313   7.400   0.768  0.0155 -0.1851  0.7100
  972MOL0     C31127   4.234   7.361   0.641  0.5837  0.3528 -0.5574
  972MOL0     C31128   4.223   7.482   0.549 -0.7128 -0.6777  0.5091
  972MOL0     C31129   4.172   7.455   0.407  0.6627  0.6313  0.3460
  972MOL0    Cl31130   4.237   7.316   0.324  0.1129  0.3555 -0.0530
  972MOL0     C31131   4.814   6.864   0.768  0.4233  0.3425  0.1875
  972MOL0     C31132   4.929   6.784   0.767  0.7525  0.1440  0.0916
  972MOL0     O31133   5.214   6.742   1.026  0.5029  0.3186  0.5472
  972MOL0     C31134   5.431   6.712   0.760  0.7755  0.8536  0.1398
  972MOL0     C31135   5.564   6.682   0.731 -0.1986  0.8529  0.6837
  972MOL0     N31136   6.162   6.360   0.612  0.5439  0.8789  0.4523
  972MOL0     N31137   6.238   6.290   0.530 -0.3422 -0.2331  0.2523
  972MOL0     C31138   7.475   6.189   0.788  0.0553 -0.7170 -0.0666
  972MOL0     C31139   7.608   6.233   0.784  0.3069  0.2372 -0.1982
  972MOL0     C31140   7.977   6.393   0.568 -0.9032  0.0224  0.3484
  972MOL0     C31141   8.007   6.458   0.445  0.1290  0.2442  0.1058
  972MOL0     C31142   8.133   6.455   0.403  0.4662 -0.4221  0.1903
  972MOL0     C31143   8.234   6.384   0.467  0.0339  0.4315 -0.1801
  972MOL0     O31144   8.362   6.366   0.414  0.0486  0.8615  0.6610
  972MOL0     C31145   8.400   6.440   0.291 -0.5977 -0.2844  0.5180
  972MOL0     C31146   8.551   6.417   0.256  0.2879  0.2805 -0.5425
  972MOL0     C31147   8.627   6.422   0.385  0.0486 -0.5158 -1.1844
  972MOL0     C31148   8.637   6.567   0.453 -0.0983 -0.8371  0.0128
  972MOL0     C31149   8.694   6.669   0.371 -0.5322  0.2683 -0.4229
  972MOL0     C31150   8.752   6.740   0.291  0.9012 -0.0145 -0.1266
  972MOL0     C31151   8.206   6.314   0.581 -0.5320  0.3393 -0.9057
  972MOL0     C31152   8.075   6.315   0.630  0.1193  0.1669 -1.5437
  972MOL0     H31153   7.663   6.167   0.452 -4.0002  0.9579 -1.5098
  972MOL0     H31154   7.433   6.064   0.479  0.1483 -0.2069  0.1270
  972MOL0     H31155   7.246   6.098   0.873 -0.0434  0.5735  0.5538
  972MOL0     H31156   7.179   6.218   0.761 -0.1437 -0.2473  1.0000
  972MOL0     H31157   7.074   5.940   0.789  0.1994  1.1794  0.4368
  972MOL0     H31158   7.004   6.086   0.841 -1.8792 -2.5011 -0.9358
  972MOL0     H31159   7.006   6.161   0.585 -1.0892  1.0484  0.1090
  972MOL0     H31160   7.049   5.982   0.564 -2.0343 -2.2275  0.5419
  972MOL0     H31161   6.834   5.921   0.654 -1.4932  0.3189  0.3868
  972MOL0     H31162   6.804   6.083   0.711 -0.8144  1.5324 -0.8443
  972MOL0     H31163   6.793   6.148   0.470 -1.6350 -1.1919 -2.1374
  972MOL0     H31164   6.836   5.970   0.427  3.1509 -0.4197  0.8163
  972MOL0     H31165   6.601   6.003   0.392 -2.3215  1.2159 -0.4188
  972MOL0     H31166   6.611   5.925   0.546  0.8203  0.9841  0.2233
  972MOL0     H31167   6.572   6.129   0.671 -0.7727 -2.4013  1.0745
  972MOL0     H31168   6.581   6.234   0.527 -3.1502  2.0497  2.1679
  972MOL0     H31169   6.377   6.013   0.607  0.1034 -0.7129 -1.0809
  972MOL0     H31170   6.379   6.087   0.450 -0.2766  1.8135  0.2091
  972MOL0     H31171   6.356   6.185   0.821  1.1683  1.2953  0.2375
  972MOL0     H31172   6.183   6.336   0.960  2.9341  0.6776 -0.7567
  972MOL0     H31173   6.227   6.489   0.878 -0.5003  0.1347  0.9209
  972MOL0     H31174   6.015   6.486   0.989 -0.4003  2.4999 -0.4385
  972MOL0     H31175   5.948   6.380   0.867  0.6455 -0.2288  0.9628
  972MOL0     H31176   6.011   6.537   0.690  1.3730 -1.7363  0.4846
  972MOL0     H31177   6.064   6.651   0.815  1.9714 -1.6091  0.4223
  972MOL0     H31178   5.847   6.725   0.753 -0.8389  0.4583  1.8497
  972MOL0     H31179   5.852   6.662   0.919  0.9457 -0.1973  0.5753
  972MOL0     H31180   5.637   6.466   0.973  0.5482  0.2655 -0.4233
  972MOL0     H31181   5.295   6.482   1.059  0.1668  0.3294 -1.1903
  972MOL0     H31182   5.459   6.447   1.130  0.6823 -0.1822 -2.0289
  972MOL0     H31183   5.369   6.605   1.155 -0.9530  2.5216 -3.2323
  972MOL0     H31184   5.130   6.975   0.953 -0.2053 -1.7985  0.7834
  972MOL0     H31185   4.929   7.099   0.980 -0.1571 -2.6382  2.9908
  972MOL0     H31186   4.550   6.961   0.757 -0.0765 -0.6225  0.8919
  972MOL0     H31187   4.572   6.888   0.921  0.4087  0.4507  1.6765
  972MOL0     H31188   4.366   7.034   0.905  0.5179  0.3860 -0.1805
  972MOL0     H31189   4.495   7.087   1.023 -1.1602  0.7857  0.8153
  972MOL0     H31190   4.480   7.188   0.744 -1.9181  0.8660 -0.1583
  972MOL0     H31191   4.550   7.281   0.883 -0.5021 -1.3495  3.5548
  972MOL0     H31192   4.256   7.204   0.853  0.8870 -2.6987 -0.1741
  972MOL0     H31193   4.334   7.327   0.969  1.3781  1.2213 -0.8219
  972MOL0     H31194   4.406   7.448   0.737  0.4312 -1.5470 -0.2360
  972MOL0     H31195   4.262   7.480   0.824  0.7145 -0.9870  2.5478
  972MOL0     H31196   4.291   7.282   0.592 -0.8956 -0.2200 -1.4135
  972MOL0     H31197   4.135   7.326   0.671  1.9698 -1.6628  2.0856
  972MOL0     H31198   4.322   7.529   0.538  0.8193 -3.7656 -0.0134
  972MOL0     H31199   4.162   7.558   0.598  1.3920  0.6700  1.2219
  972MOL0     H31200   4.188   7.537   0.336  0.5067  0.3941  0.0342
  972MOL0     H31201   4.064   7.436   0.412  0.7860  0.2085  1.5919
  972MOL0     H31202   4.720   6.839   0.719 -0.6577  3.5564  0.3792
  972MOL0     H31203   4.926   6.690   0.713 -1.1152 -0.0829  0.5188
  972MOL0     H31204   5.383   6.773   0.684  2.1088  2.4020  0.4933
  972MOL0     H31205   5.614   6.724   0.644 -1.2555  0.0158 -0.3710
  972MOL0     H31206   7.421   6.207   0.880  0.5543  0.8974 -0.0438
  972MOL0     H31207   7.668   6.266   0.868  3.2696 -2.6031 -0.9797
  972MOL0     H31208   7.937   6.524   0.395  1.8012  0.3086 -2.3987
  972MOL0     H31209   8.158   6.493   0.304  2.0453  1.5219  1.2737
  972MOL0     H31210   8.341   6.402   0.206  2.1637 -3.6986 -0.1114
  972MOL0     H31211   8.390   6.547   0.308  0.2656 -0.1788  0.3839
  972MOL0     H31212   8.583   6.488   0.179  0.6915  1.4973  0.7086
  972MOL0     H31213   8.567   6.317   0.215  1.6662 -0.3649  1.4319
  972MOL0     H31214   8.729   6.391   0.357  1.4612  0.4661  2.3337
  972MOL0     H31215   8.592   6.347   0.456 -0.1116 -1.1850 -1.9604
  972MOL0     H31216   8.698   6.551   0.543  0.1816  1.3023  0.2654
  972MOL0     H31217   8.543   6.603   0.496 -0.1864 -0.5727 -0.3976
  972MOL0     H31218   8.788   6.793   0.205  0.4529 -0.0369 -0.3321
  972MOL0     H31219   8.289   6.249   0.607  0.2092  1.2850 -0.8300
  972MOL0     H31220   8.060   6.249   0.715  1.0714 -0.0523 -1.5352
  973MOL0     O31221   5.704   2.093   4.098  0.2412 -0.0774  0.7981
  973MOL0     C31222   5.694   2.147   3.985 -0.2570 -0.7030  0.1566
  973MOL0     O31223   5.583   2.191   3.925 -0.1656  0.3143  0.5010
  973MOL0     C31224   5.463   2.223   3.977 -0.1572 -0.4003  0.1635
  973MOL0     C31225   5.430   2.222   4.113  0.1277 -0.3373 -0.4388
  973MOL0     C31226   5.307   2.283   4.159  0.2892 -0.2167 -0.3653
  973MOL0     C31227   5.215   2.335   4.063  0.0093  0.2249 -0.9349
  973MOL0     O31228   5.103   2.391   4.119  0.2362  0.1545  0.0588
  973MOL0     C31229   4.976   2.395   4.044 -0.9305 -0.1062  0.0948
  973MOL0     C31230   4.862   2.398   4.141 -0.0518 -0.4945 -0.4774
  973MOL0     C31231   4.730   2.381   4.063 -0.0341 -0.3315  0.4171
  973MOL0     C31232   4.606   2.364   4.152  0.6576 -0.1023  0.9957
  973MOL0     C31233   4.470   2.359   4.081 -0.4522  0.3668 -0.3897
  973MOL0     C31234   4.412   2.496   4.044 -0.2459  0.8561 -0.0184
  973MOL0     C31235   4.391   2.598   4.164  0.0734  0.1307 -0.0823
  973MOL0     C31236   4.276   2.695   4.116  0.2634  0.6200 -0.2482
  973MOL0     N31237   4.137   2.647   4.137 -0.7328  0.8826  0.1035
  973MOL0     C31238   4.082   2.610   4.252  0.0487 -0.5679  0.4514
  973MOL0     C31239   3.959   2.564   4.222 -0.1269 -0.2016 -0.1784
  973MOL0     C31240   3.858   2.505   4.314 -0.0565  0.1343 -0.2099
  973MOL0     C31241   3.740   2.605   4.326 -0.0931  0.6495 -0.7243
  973MOL0     C31242   3.633   2.605   4.212  0.9153  0.0438  0.3395
  973MOL0     C31243   3.563   2.465   4.192 -0.7038  0.3313  0.6311
  973MOL0     O31244   3.497   2.420   4.310  0.6043 -0.1095 -0.1319
  973MOL0     C31245   3.367   2.461   4.340  0.1017  1.4402  0.1375
  973MOL0     C31246   3.341   2.500   4.470  0.4704  0.5823 -0.0099
  973MOL0     C31247   3.221   2.546   4.522 -0.0383  0.1820 -0.2795
  973MOL0     C31248   3.200   2.545   4.675 -0.5533  0.1340  0.1300
  973MOL0     C31249   3.121   2.569   4.423 -0.0436 -0.4227  0.1004
  973MOL0     C31250   2.976   2.610   4.452  0.0049 -0.0259 -0.0651
  973MOL0     O31251   2.898   2.641   4.350  0.2998  0.3709  0.3412
  973MOL0     C31252   2.766   2.674   4.376  0.4163  0.0657  0.3724
  973MOL0     C31253   2.672   2.585   4.422  0.3383 -0.3144  0.7395
  973MOL0     C31254   2.540   2.614   4.436  0.7685  0.1409  0.3367
  973MOL0     C31255   2.498   2.741   4.417 -0.5363 -0.2686  0.1784
  973MOL0     O31256   2.359   2.763   4.398  1.2307  0.0112  0.0186
  973MOL0     C31257   2.311   2.746   4.268 -0.3884 -0.2020  0.0343
  973MOL0     C31258   2.169   2.799   4.258 -0.4094  0.2825  0.2037
  973MOL0     C31259   2.110   2.781   4.119  0.5588 -0.6749  0.7051
  973MOL0     C31260   1.964   2.825   4.121 -0.1764  0.4898 -0.0720
  973MOL0     C31261   1.889   2.803   3.993 -0.5938  0.3106 -0.5533
  973MOL0     C31262   1.741   2.824   4.019  0.2709  0.1269  0.6477
  973MOL0     C31263   1.651   2.863   3.895  0.4588  0.5562 -0.0721
  973MOL0     C31264   1.503   2.832   3.921 -0.6542 -0.1604  0.5450
  973MOL0    Cl31265   1.406   2.916   3.802 -0.0677  0.1784  0.3301
  973MOL0     C31266   2.585   2.839   4.380 -0.3450  0.9408  0.8683
  973MOL0     C31267   2.721   2.803   4.355 -0.3417 -0.0187 -0.0006
  973MOL0     O31268   2.945   2.598   4.574 -0.3096 -0.8121  0.1442
  973MOL0     C31269   3.149   2.543   4.292 -0.1040 -0.2900  0.2213
  973MOL0     C31270   3.268   2.495   4.248 -1.1916 -0.3850  0.3172
  973MOL0     N31271   3.945   2.568   4.089 -0.1114  0.4213  0.8072
  973MOL0     N31272   4.051   2.625   4.041 -0.2859 -0.6196 -0.2798
  973MOL0     C31273   5.253   2.335   3.933  0.3572 -0.6901  0.4608
  973MOL0     C31274   5.374   2.278   3.888  0.0908  0.4004  0.7480
  973MOL0     C31275   5.819   2.157   3.892  0.0125 -0.6998 -0.4521
  973MOL0     C31276   5.822   2.203   3.762  0.4094 -0.1460  0.4889
  973MOL0     C31277   5.935   2.217   3.693 -0.3387  0.6184 -0.2328
  973MOL0     C31278   6.058   2.174   3.738 -0.5935 -0.5189  0.1350
  973MOL0     O31279   6.156   2.195   3.643 -0.7848  0.0809  0.4366
  973MOL0     C31280   6.294   2.162   3.679 -0.1935  0.3661 -0.4367
  973MOL0     C31281   6.394   2.245   3.602 -0.3160  0.0713 -0.4034
  973MOL0     C31282   6.393   2.221   3.448  0.0672 -0.3845  0.8074
  973MOL0     C31283   6.517   2.297   3.380  0.3839  0.8514 -0.1924
  973MOL0     C31284   6.497   2.274   3.238 -0.2208  0.3030 -0.0831
  973MOL0     C31285   6.511   2.254   3.120 -0.2043 -0.7837 -0.5417
  973MOL0     C31286   6.055   2.113   3.872 -0.4616  0.2536 -0.3742
  973MOL0     C31287   5.941   2.119   3.943  0.2556  0.8493  0.6113
  973MOL0     H31288   5.497   2.180   4.188  0.8054 -1.0376 -1.4126
  973MOL0     H31289   5.263   2.278   4.258 -0.6887 -0.1316 -0.7814
  973MOL0     H31290   4.977   2.480   3.974 -0.1020  1.5445  2.0225
  973MOL0     H31291   4.965   2.299   3.993  1.9955 -0.5085  0.0678
  973MOL0     H31292   4.861   2.327   4.225  1.5943  1.6558  1.4950
  973MOL0     H31293   4.869   2.500   4.178  0.4392 -0.0335 -1.7828
  973MOL0     H31294   4.725   2.468   3.998 -1.0160  1.0776  2.2936
  973MOL0     H31295   4.740   2.294   3.997  1.5008 -0.3695  0.6605
  973MOL0     H31296   4.615   2.265   4.199 -0.1640  0.5505  2.5842
  973MOL0     H31297   4.609   2.440   4.231 -0.1925 -1.2187  2.1398
  973MOL0     H31298   4.471   2.301   3.989 -1.0038  0.6983 -0.6076
  973MOL0     H31299   4.398   2.308   4.146 -0.0730  3.0545  2.4306
  973MOL0     H31300   4.478   2.537   3.967  2.1629  2.0900  2.5133
  973MOL0     H31301   4.317   2.483   3.991  0.6890 -1.7393 -1.2220
  973MOL0     H31302   4.374   2.541   4.256  3.0091 -0.9267 -0.0929
  973MOL0     H31303   4.483   2.656   4.168  0.4214 -0.1265 -2.6134
  973MOL0     H31304   4.294   2.712   4.009 -0.7184  1.4279 -0.2994
  973MOL0     H31305   4.279   2.784   4.178 -1.0701 -1.8650  3.7583
  973MOL0     H31306   4.127   2.620   4.350  0.1896 -1.2269  0.4529
  973MOL0     H31307   3.826   2.407   4.279  0.9717 -0.5530  0.7185
  973MOL0     H31308   3.906   2.490   4.412  0.9437  2.1187 -0.3380
  973MOL0     H31309   3.789   2.702   4.339  0.4294  0.1396  1.6544
  973MOL0     H31310   3.696   2.585   4.424  1.7464  1.1893  0.2584
  973MOL0     H31311   3.677   2.634   4.116  0.6348 -0.3164  0.0997
  973MOL0     H31312   3.551   2.672   4.239 -0.5739 -2.0067  1.1325
  973MOL0     H31313   3.637   2.393   4.159 -1.8161 -0.7321  0.3720
  973MOL0     H31314   3.492   2.484   4.111 -2.2116  0.8227  1.9842
  973MOL0     H31315   3.430   2.487   4.531  1.4487  0.5453 -1.4123
  973MOL0     H31316   3.138   2.630   4.706 -2.3582 -1.0062 -0.2833
  973MOL0     H31317   3.157   2.450   4.707  0.1515 -0.7467 -1.4269
  973MOL0     H31318   3.301   2.556   4.716 -0.8733  0.3132  0.8888
  973MOL0     H31319   2.701   2.488   4.461 -0.5304 -1.2968 -0.9203
  973MOL0     H31320   2.462   2.542   4.459 -2.7482  3.3634 -0.3832
  973MOL0     H31321   2.364   2.813   4.199  2.1158 -1.6997  0.3979
  973MOL0     H31322   2.314   2.641   4.240 -1.4487 -0.0011 -0.9426
  973MOL0     H31323   2.106   2.750   4.333 -1.0861  1.5120  0.4690
  973MOL0     H31324   2.166   2.908   4.268 -0.2769  0.2369  0.7529
  973MOL0     H31325   2.115   2.673   4.101 -1.5629 -0.8048  0.6636
  973MOL0     H31326   2.159   2.832   4.035 -1.8799  1.6284  0.5617
  973MOL0     H31327   1.910   2.763   4.192 -0.4856 -0.3960 -1.0582
  973MOL0     H31328   1.955   2.930   4.151  3.5770  0.2844  2.4207
  973MOL0     H31329   1.909   2.700   3.965 -2.2002 -0.3732  0.6419
  973MOL0     H31330   1.920   2.870   3.912  0.4681  2.4766  1.5048
  973MOL0     H31331   1.704   2.732   4.065 -0.4803 -0.3103 -0.7959
  973MOL0     H31332   1.715   2.906   4.087  0.5824  0.8972 -0.1553
  973MOL0     H31333   1.681   2.805   3.807 -1.0328  0.2758 -0.4242
  973MOL0     H31334   1.668   2.968   3.867 -1.6549  0.6409 -1.2669
  973MOL0     H31335   1.469   2.859   4.022  0.6944 -0.2509  1.0402
  973MOL0     H31336   1.488   2.725   3.904 -3.5168  0.2539 -0.1655
  973MOL0     H31337   2.557   2.943   4.365  1.8509  1.4760  0.1660
  973MOL0     H31338   2.784   2.888   4.331 -1.3489  0.6583 -0.2889
  973MOL0     H31339   3.073   2.560   4.216  0.2849 -2.1558 -0.6486
  973MOL0     H31340   3.293   2.497   4.143  2.0199 -0.1551  0.9863
  973MOL0     H31341   5.196   2.383   3.854  0.9366 -0.5575  0.1182
  973MOL0     H31342   5.405   2.297   3.786  1.2090  3.5807  1.5424
  973MOL0     H31343   5.732   2.223   3.704  0.4302  0.9902  0.8338
  973MOL0     H31344   5.926   2.251   3.590 -0.3846 -1.3117 -0.8946
  973MOL0     H31345   6.316   2.186   3.784 -1.4087  1.3290 -0.3857
  973MOL0     H31346   6.322   2.057   3.665 -2.1220 -0.0404 -1.5637
  973MOL0     H31347   6.492   2.234   3.650 -0.2417  1.4738 -0.2023
  973MOL0     H31348   6.376   2.351   3.619 -0.7858  0.4877 -3.0762
  973MOL0     H31349   6.303   2.240   3.389  1.0676  0.5653 -0.4823
  973MOL0     H31350   6.422   2.116   3.431  0.7927  0.3581 -3.7498
  973MOL0     H31351   6.615   2.253   3.398 -0.6729 -2.1852 -1.2006
  973MOL0     H31352   6.516   2.405   3.400 -2.6241  0.7834  0.6616
  973MOL0     H31353   6.531   2.224   3.019 -0.6492 -0.0325 -0.8705
  973MOL0     H31354   6.151   2.078   3.909  0.6329  3.4034  0.1594
  973MOL0     H31355   5.960   2.068   4.037 -0.1936 -1.5112 -0.4975
  974MOL0     O31356   7.534   3.439   9.017  0.1473 -0.1757 -0.0597
  974MOL0     C31357   7.617   3.361   9.062  0.1951 -0.2559  1.0769
  974MOL0     O31358   7.674   3.366   9.190  0.2846 -0.0132  0.0111
  974MOL0     C31359   7.633   3.470   9.264  0.3552 -0.7575  0.0888
  974MOL0     C31360   7.597   3.448   9.401  0.0916  0.4635 -0.6880
  974MOL0     C31361   7.551   3.546   9.491  0.1778  0.0600  0.4089
  974MOL0     C31362   7.528   3.678   9.441  0.3245  0.6122  0.4347
  974MOL0     O31363   7.471   3.772   9.519  0.1315 -0.5450  0.1632
  974MOL0     C31364   7.395   3.877   9.461  0.2170  0.6269  0.4318
  974MOL0     C31365   7.280   3.915   9.559 -0.9175 -0.4084  0.1441
  974MOL0     C31366   7.175   3.806   9.581 -1.1393  0.8409 -0.2497
  974MOL0     C31367   7.103   3.775   9.447  0.4184 -0.3240 -0.4718
  974MOL0     C31368   6.950   3.732   9.470 -0.1694 -0.3163 -0.4075
  974MOL0     C31369   6.853   3.828   9.538 -0.4566  0.0185 -0.2080
  974MOL0     C31370   6.707   3.774   9.538 -0.6671 -0.3271  0.3660
  974MOL0     C31371   6.679   3.645   9.605  0.0829 -0.0794 -0.2570
  974MOL0     N31372   6.549   3.645   9.673 -0.1136  0.1341 -0.6162
  974MOL0     C31373   6.425   3.648   9.613 -0.0208  0.6233  0.3864
  974MOL0     C31374   6.338   3.669   9.713  0.3798  0.1510  0.7638
  974MOL0     C31375   6.194   3.719   9.711 -0.5256  0.4931  0.9138
  974MOL0     C31376   6.112   3.636   9.809  0.0710 -0.0713  0.7639
  974MOL0     C31377   6.056   3.508   9.747  0.1863 -0.1221 -0.6449
  974MOL0     C31378   5.924   3.469   9.812 -0.2385  0.7951  0.6544
  974MOL0     O31379   5.836   3.578   9.818 -0.0571 -0.2314  0.0798
  974MOL0     C31380   5.708   3.563   9.862 -0.2555  0.7827  0.2276
  974MOL0     C31381   5.618   3.454   9.826  0.0339  0.8184  0.4115
  974MOL0     C31382   5.481   3.447   9.873 -0.7246  0.4080 -0.1429
  974MOL0     C31383   5.388   3.328   9.813  0.1118 -0.7865 -0.1598
  974MOL0     C31384   5.433   3.546   9.964  0.2573  0.0298  0.7425
  974MOL0     C31385   5.296   3.548  10.022  0.2357  0.2873 -0.8894
  974MOL0     O31386   5.268   3.654  10.109 -0.2854  0.0328  0.1066
  974MOL0     C31387   5.135   3.673  10.151  0.4685  0.0149 -0.4679
  974MOL0     C31388   5.117   3.711  10.285 -0.0498 -0.3103  0.5172
  974MOL0     C31389   4.990   3.734  10.339  0.2061 -0.0524  0.4335
  974MOL0     C31390   4.874   3.712  10.260 -1.3698  0.4918 -0.0783
  974MOL0     O31391   4.753   3.751  10.315 -0.3447  0.8915  0.8925
  974MOL0     C31392   4.628   3.733  10.252  0.0653 -0.1518  0.5943
  974MOL0     C31393   4.516   3.792  10.335  0.4463  0.8292 -0.0521
  974MOL0     C31394   4.531   3.941  10.362 -0.7379  0.0214 -0.5208
  974MOL0     C31395   4.421   4.008  10.444 -0.0626 -0.0993  0.5613
  974MOL0     C31396   4.445   4.154  10.448 -0.1170 -0.0040 -0.4755
  974MOL0     C31397   4.365   4.224  10.566  1.1233  0.6895  0.3408
  974MOL0     C31398   4.382   4.378  10.583 -0.1488  0.3848  0.3658
  974MOL0     C31399   4.523   4.415  10.583 -0.4005  0.4070 -0.1356
  974MOL0    Cl31400   4.606   4.371  10.733 -0.0162 -0.0377 -0.0286
  974MOL0     C31401   4.886   3.658  10.132  0.3741  0.5637 -0.5664
  974MOL0     C31402   5.015   3.643  10.080 -0.4330 -0.2932  0.3853
  974MOL0     O31403   5.212   3.464   9.987 -0.1811 -0.1138  0.5340
  974MOL0     C31404   5.521   3.646   9.998 -0.8464  0.0671 -0.7116
  974MOL0     C31405   5.652   3.651   9.950 -0.5531 -0.8298  0.3260
  974MOL0     N31406   6.408   3.677   9.832  0.4212 -0.0937  0.0251
  974MOL0     N31407   6.533   3.650   9.815  0.7101 -0.5183  0.0639
  974MOL0     C31408   7.565   3.700   9.314 -0.1210  0.2632  0.1065
  974MOL0     C31409   7.615   3.599   9.217  0.5302  0.5222 -0.4887
  974MOL0     C31410   7.673   3.241   8.986 -0.3530  0.0979  0.7790
  974MOL0     C31411   7.759   3.151   9.046 -0.1279  0.7864 -0.0767
  974MOL0     C31412   7.806   3.031   8.985  1.2111  0.0608 -0.1508
  974MOL0     C31413   7.786   3.015   8.844  0.3804  0.5083 -0.1585
  974MOL0     O31414   7.834   2.908   8.767 -0.4862  0.0169  0.5275
  974MOL0     C31415   7.912   2.804   8.822  0.9186 -0.0684 -1.1399
  974MOL0     C31416   8.052   2.838   8.870  0.1228 -0.0787  0.3144
  974MOL0     C31417   8.147   2.894   8.758 -0.6211 -0.2312 -0.4915
  974MOL0     C31418   8.179   2.780   8.661 -0.3404 -0.9422 -0.2681
  974MOL0     C31419   8.204   2.651   8.723 -0.7451  0.3314  0.8780
  974MOL0     C31420   8.213   2.534   8.767 -0.1548  0.1807 -0.6499
  974MOL0     C31421   7.718   3.118   8.781  0.4565 -0.1151  0.0401
  974MOL0     C31422   7.654   3.228   8.849 -0.3071 -0.4082  1.3979
  974MOL0     H31423   7.612   3.350   9.443  2.1421 -0.7247 -3.8818
  974MOL0     H31424   7.531   3.519   9.594  1.4893 -0.4861  0.5553
  974MOL0     H31425   7.464   3.962   9.457 -1.7125  2.2831  0.9261
  974MOL0     H31426   7.355   3.853   9.362 -0.5972  0.2685  0.8380
  974MOL0     H31427   7.323   3.951   9.653 -0.7534 -1.8532  0.6614
  974MOL0     H31428   7.227   3.997   9.511 -1.6759 -1.3963 -0.7522
  974MOL0     H31429   7.225   3.714   9.614 -0.5704  1.2350 -0.0052
  974MOL0     H31430   7.115   3.844   9.664  1.2962  1.8156  1.1566
  974MOL0     H31431   7.093   3.860   9.380 -3.4471  0.9075  1.4112
  974MOL0     H31432   7.154   3.703   9.382  1.6610  2.5449 -2.9341
  974MOL0     H31433   6.902   3.719   9.372 -1.0364  2.4215 -0.4213
  974MOL0     H31434   6.949   3.646   9.537  0.2092 -0.9077 -1.1427
  974MOL0     H31435   6.890   3.840   9.641  0.3829  2.8538 -0.7783
  974MOL0     H31436   6.859   3.927   9.493 -2.8327  0.1150 -0.4389
  974MOL0     H31437   6.635   3.850   9.569  0.2641  1.5893 -1.8382
  974MOL0     H31438   6.680   3.771   9.432 -0.2875 -1.7963  0.2951
  974MOL0     H31439   6.760   3.628   9.677 -1.2742  3.0904  2.2651
  974MOL0     H31440   6.678   3.566   9.530 -0.2253 -0.0285 -0.3049
  974MOL0     H31441   6.402   3.651   9.507  2.0292 -1.3654 -0.2144
  974MOL0     H31442   6.179   3.820   9.748 -1.1502  0.2646  1.2957
  974MOL0     H31443   6.146   3.718   9.612 -0.5620 -0.4219  0.9269
  974MOL0     H31444   6.033   3.709   9.831  1.0918  1.1238  0.6018
  974MOL0     H31445   6.175   3.617   9.897  1.1263  2.2323  0.5772
  974MOL0     H31446   6.131   3.428   9.748  1.2311  0.8329  0.0491
  974MOL0     H31447   6.045   3.524   9.639 -0.3838  1.5807 -0.3666
  974MOL0     H31448   5.950   3.434   9.912  1.4661 -2.2083 -0.7046
  974MOL0     H31449   5.867   3.394   9.757  1.4708  0.0236 -0.1486
  974MOL0     H31450   5.649   3.375   9.758 -1.4693 -0.6203  1.3024
  974MOL0     H31451   5.448   3.263   9.748 -1.2191 -1.5117 -0.7133
  974MOL0     H31452   5.357   3.270   9.900  0.3347 -0.3607  0.2087
  974MOL0     H31453   5.302   3.358   9.752  0.8174  0.1983 -0.7058
  974MOL0     H31454   5.203   3.738  10.345 -0.0841 -2.6243  1.7171
  974MOL0     H31455   4.990   3.788  10.433  1.1436  1.3560 -0.3504
  974MOL0     H31456   4.634   3.790  10.159 -3.3460 -2.6976 -1.4287
  974MOL0     H31457   4.597   3.631  10.229 -0.5246 -0.2825  1.9191
  974MOL0     H31458   4.420   3.778  10.284 -0.3626  1.6849  1.1982
  974MOL0     H31459   4.510   3.744  10.433  0.9804 -0.2144 -0.5056
  974MOL0     H31460   4.545   3.988  10.264  3.0083 -1.7873 -1.0361
  974MOL0     H31461   4.626   3.946  10.416 -1.0857 -0.0061  0.0972
  974MOL0     H31462   4.321   3.997  10.400  0.6070  1.7758 -1.5885
  974MOL0     H31463   4.416   3.962  10.543 -0.3773  0.4311  0.7930
  974MOL0     H31464   4.408   4.204  10.359 -1.3333 -0.0174  0.0017
  974MOL0     H31465   4.554   4.162  10.456  0.0643 -2.0612 -0.4194
  974MOL0     H31466   4.259   4.198  10.563  1.3422 -0.1895 -0.7672
  974MOL0     H31467   4.398   4.171  10.656 -1.3302 -1.7015 -0.0228
  974MOL0     H31468   4.329   4.407  10.674  3.0205 -0.7826  2.7610
  974MOL0     H31469   4.331   4.423  10.497  3.7341  2.3749 -1.1311
  974MOL0     H31470   4.523   4.525  10.576  1.1451  0.3511 -1.5723
  974MOL0     H31471   4.583   4.373  10.502  1.4695 -1.0556  1.8867
  974MOL0     H31472   4.799   3.621  10.077 -0.7634  3.0112 -0.5511
  974MOL0     H31473   5.027   3.597   9.982  0.8427 -2.6174  1.5725
  974MOL0     H31474   5.481   3.722  10.064  0.5789 -0.7609  1.1976
  974MOL0     H31475   5.732   3.725   9.955  1.2217 -2.3690 -2.7168
  974MOL0     H31476   7.557   3.803   9.281  3.1131  0.8340  0.7741
  974MOL0     H31477   7.655   3.633   9.122  1.0988  3.0040  0.5374
  974MOL0     H31478   7.781   3.158   9.152 -1.2554  2.8202  0.0847
  974MOL0     H31479   7.857   2.954   9.042  1.6202 -0.5974 -1.3614
  974MOL0     H31480   7.856   2.769   8.910 -0.6575  2.1730 -1.1585
  974MOL0     H31481   7.913   2.718   8.754  0.3636 -1.4230  0.4914
  974MOL0     H31482   8.088   2.760   8.938 -0.5520  0.5994  1.4680
  974MOL0     H31483   8.035   2.924   8.934  1.2438  0.4996 -0.1404
  974MOL0     H31484   8.239   2.933   8.802 -2.2678  2.2357  1.0234
  974MOL0     H31485   8.107   2.976   8.698  0.9469  0.5011 -0.5754
  974MOL0     H31486   8.267   2.817   8.608  0.2354  1.3440  2.0803
  974MOL0     H31487   8.098   2.769   8.589  0.0860 -2.3080 -0.5763
  974MOL0     H31488   8.225   2.436   8.808 -1.3608 -0.2479 -1.2903
  974MOL0     H31489   7.720   3.110   8.673 -0.7355  0.0700 -0.0080
  974MOL0     H31490   7.592   3.295   8.791 -0.9289 -4.2243 -2.9477
  975MOL0     O31491   4.263   2.312   7.434  0.1128 -0.2833  0.1713
  975MOL0     C31492   4.350   2.266   7.502 -0.2051 -0.5553  0.0499
  975MOL0     O31493   4.334   2.251   7.640 -0.8172  0.0944  0.1316
  975MOL0     C31494   4.221   2.272   7.714 -0.0184  0.3716  0.5801
  975MOL0     C31495   4.101   2.199   7.686  0.0351  0.3682 -0.5760
  975MOL0     C31496   3.988   2.210   7.769  0.9550  0.1629 -0.3927
  975MOL0     C31497   3.994   2.285   7.889  0.5431  0.8633  1.4097
  975MOL0     O31498   3.885   2.278   7.978  0.2176  0.3983  0.0379
  975MOL0     C31499   3.871   2.370   8.085 -0.7704  0.3910  0.1985
  975MOL0     C31500   3.728   2.370   8.125 -0.2424 -0.3650 -0.6771
  975MOL0     C31501   3.651   2.438   8.011 -0.8241  0.2122  0.0232
  975MOL0     C31502   3.518   2.492   8.064 -0.0165  0.0594 -0.1666
  975MOL0     C31503   3.430   2.549   7.953  0.1869 -0.2632  0.2406
  975MOL0     C31504   3.474   2.693   7.914 -0.1338  1.0300 -0.3366
  975MOL0     C31505   3.384   2.749   7.803  0.9215  0.6503  0.4274
  975MOL0     C31506   3.267   2.842   7.853 -0.3666 -0.4261 -0.4680
  975MOL0     N31507   3.129   2.789   7.832 -0.2885 -0.2451  0.2174
  975MOL0     C31508   3.054   2.725   7.930 -0.7648 -0.0175  0.6868
  975MOL0     C31509   2.934   2.695   7.863 -0.6372  0.4477  0.5884
  975MOL0     C31510   2.818   2.627   7.923  0.5843  0.1095  0.3733
  975MOL0     C31511   2.705   2.711   7.976 -0.0454  0.2808  0.6755
  975MOL0     C31512   2.636   2.781   7.858  0.9094 -0.5548  1.0651
  975MOL0     C31513   2.582   2.697   7.745  0.0588  0.1535  0.2169
  975MOL0     O31514   2.479   2.772   7.673 -1.0734  0.6654 -0.4777
  975MOL0     C31515   2.361   2.804   7.740 -0.0652 -0.3157 -0.1459
  975MOL0     C31516   2.300   2.730   7.845 -0.6883  0.4971 -0.3087
  975MOL0     C31517   2.173   2.761   7.893 -0.3116  0.0336 -0.5178
  975MOL0     C31518   2.123   2.671   7.999  0.2134  0.0856  0.5589
  975MOL0     C31519   2.104   2.877   7.844 -0.2523  0.3977 -0.1447
  975MOL0     C31520   1.972   2.929   7.903 -0.1786 -0.3156 -0.2132
  975MOL0     O31521   1.914   2.866   8.006 -0.3909 -0.9368 -0.6852
  975MOL0     C31522   1.801   2.907   8.070 -0.1207 -0.7752  0.5982
  975MOL0     C31523   1.693   2.992   8.008 -0.3201  0.8807 -0.9454
  975MOL0     C31524   1.571   3.013   8.084  0.7571  0.8409 -0.3297
  975MOL0     C31525   1.553   2.953   8.211 -0.1484  0.3438  0.1304
  975MOL0     O31526   1.437   2.949   8.288  0.7167  0.4111  0.6004
  975MOL0     C31527   1.332   3.035   8.257  0.1613 -0.0011  0.5461
  975MOL0     C31528   1.217   2.998   8.354  0.0976 -0.2970 -0.1213
  975MOL0     C31529   1.101   3.091   8.338  0.6998  0.4362 -0.0736
  975MOL0     C31530   1.122   3.223   8.425  0.8425  0.3721  0.5427
  975MOL0     C31531   1.030   3.347   8.382 -0.1922  0.3417 -0.0408
  975MOL0     C31532   0.878   3.311   8.404  0.3310  0.0603  0.7167
  975MOL0     C31533   0.796   3.441   8.410 -0.3905 -0.2011 -0.4103
  975MOL0     C31534   0.780   3.498   8.556 -0.0479 -0.0341  0.9008
  975MOL0    Cl31535   0.722   3.668   8.550  0.1532  0.1508  0.5801
  975MOL0     C31536   1.665   2.896   8.273  0.2128 -0.2922 -0.3522
  975MOL0     C31537   1.779   2.861   8.197 -0.8702  0.2705  0.5699
  975MOL0     O31538   1.947   3.046   7.861 -0.2034 -0.3455  0.4208
  975MOL0     C31539   2.166   2.945   7.736  0.9572 -0.6579  0.1114
  975MOL0     C31540   2.291   2.909   7.685 -0.3182  0.0588  0.1837
  975MOL0     N31541   2.946   2.740   7.733 -0.7772  0.1058 -0.5509
  975MOL0     N31542   3.064   2.794   7.716  0.0334  0.2152 -0.2009
  975MOL0     C31543   4.112   2.347   7.916  0.0004 -0.2673  0.7130
  975MOL0     C31544   4.224   2.347   7.833 -0.6557  0.1924  0.2422
  975MOL0     C31545   4.471   2.228   7.441 -0.1244 -0.0190  0.3643
  975MOL0     C31546   4.557   2.133   7.497  0.2703  0.1709 -0.6734
  975MOL0     C31547   4.679   2.096   7.433 -0.1403  0.6089 -0.0893
  975MOL0     C31548   4.718   2.151   7.311  0.4997  0.2904  0.1788
  975MOL0     O31549   4.828   2.097   7.255 -0.7776 -0.2283  0.1401
  975MOL0     C31550   4.864   2.139   7.126  0.0165  0.0583 -0.0094
  975MOL0     C31551   4.979   2.055   7.057 -0.6994 -0.4967 -0.3209
  975MOL0     C31552   5.105   2.048   7.143  0.7841 -0.6312 -1.2673
  975MOL0     C31553   5.186   1.934   7.083 -0.4397 -0.5528 -0.0953
  975MOL0     C31554   5.331   1.968   7.074 -0.2512  1.0569  0.1697
  975MOL0     C31555   5.447   2.003   7.058  0.3568 -0.4869 -0.0383
  975MOL0     C31556   4.636   2.252   7.256 -0.4732  0.2080 -0.1612
  975MOL0     C31557   4.512   2.289   7.316 -0.6345 -0.0876 -1.5379
  975MOL0     H31558   4.073   2.153   7.591 -0.4542  0.5147 -0.5104
  975MOL0     H31559   3.894   2.163   7.741  2.0745 -2.9467  0.6465
  975MOL0     H31560   3.933   2.339   8.169  0.2303  0.0013 -0.6551
  975MOL0     H31561   3.909   2.469   8.060  4.0734 -1.1312  0.5008
  975MOL0     H31562   3.693   2.268   8.144  1.3173 -0.6728  0.8039
  975MOL0     H31563   3.709   2.431   8.214 -2.2980  1.0633 -1.9911
  975MOL0     H31564   3.713   2.523   7.982  0.6241 -0.7452  0.2100
  975MOL0     H31565   3.637   2.372   7.926  0.7285 -1.2466  0.8233
  975MOL0     H31566   3.479   2.401   8.108  0.2426  0.6117  1.2540
  975MOL0     H31567   3.522   2.569   8.142  0.5712 -2.2927  2.2666
  975MOL0     H31568   3.424   2.486   7.864  0.8559  0.3761 -0.2659
  975MOL0     H31569   3.328   2.548   7.994 -0.0610 -1.7276 -0.3383
  975MOL0     H31570   3.491   2.757   8.000 -0.9378 -0.4955  1.0006
  975MOL0     H31571   3.569   2.677   7.861 -0.6083  2.1016 -1.5721
  975MOL0     H31572   3.447   2.822   7.750 -1.8928  3.0146  0.0351
  975MOL0     H31573   3.357   2.671   7.731 -1.3943  1.4832  0.2945
  975MOL0     H31574   3.279   2.936   7.798  1.4337  0.4550  1.3025
  975MOL0     H31575   3.282   2.868   7.958  1.5210 -2.7558 -0.0640
  975MOL0     H31576   3.073   2.706   8.036  0.8598  1.2961  0.6686
  975MOL0     H31577   2.771   2.550   7.861  1.5009 -1.7506  1.9008
  975MOL0     H31578   2.861   2.570   8.005 -0.7842 -0.0125  1.0252
  975MOL0     H31579   2.743   2.784   8.048 -1.3547  2.1279 -0.4164
  975MOL0     H31580   2.634   2.638   8.016  1.0633 -0.8632  0.6239
  975MOL0     H31581   2.704   2.856   7.817  1.6678 -0.0054  3.2268
  975MOL0     H31582   2.559   2.842   7.905  1.9801  0.4124  1.6195
  975MOL0     H31583   2.557   2.598   7.784  4.1171 -1.4568 -0.7807
  975MOL0     H31584   2.662   2.674   7.674  1.0186  1.3048  0.8782
  975MOL0     H31585   2.353   2.640   7.874 -2.6578 -0.9956 -1.1669
  975MOL0     H31586   2.018   2.653   7.976  0.4768  2.5758 -3.7281
  975MOL0     H31587   2.179   2.578   8.004  0.2705  0.1576  1.4804
  975MOL0     H31588   2.134   2.723   8.095 -2.0268  0.7062  0.5384
  975MOL0     H31589   1.706   3.036   7.910  2.8415  0.8194 -0.6503
  975MOL0     H31590   1.482   3.059   8.042 -0.0155  2.2913  2.6230
  975MOL0     H31591   1.358   3.140   8.278 -1.5437  0.2710  1.5545
  975MOL0     H31592   1.291   3.034   8.156  0.6252  0.3733  0.3483
  975MOL0     H31593   1.174   2.905   8.314  3.6474 -2.0572 -0.2845
  975MOL0     H31594   1.243   2.982   8.459  1.6780  2.6106  0.0210
  975MOL0     H31595   1.008   3.043   8.372 -0.0293 -0.0074 -2.4980
  975MOL0     H31596   1.078   3.113   8.233 -3.8250 -0.4007  0.5189
  975MOL0     H31597   1.101   3.198   8.530  1.4822  2.2286  1.1579
  975MOL0     H31598   1.224   3.262   8.421  0.3273  1.7620  0.4064
  975MOL0     H31599   1.058   3.370   8.279 -0.3363 -0.2829 -0.2199
  975MOL0     H31600   1.067   3.435   8.435 -1.1390  1.1551 -0.6998
  975MOL0     H31601   0.839   3.248   8.324  0.6990  1.7166 -0.8467
  975MOL0     H31602   0.873   3.249   8.494 -0.1091 -3.6898 -1.6679
  975MOL0     H31603   0.695   3.434   8.369 -1.2780 -0.9853  1.7497
  975MOL0     H31604   0.844   3.511   8.341  0.4289 -1.3369 -1.0150
  975MOL0     H31605   0.883   3.498   8.594  0.9570  1.1549 -1.6219
  975MOL0     H31606   0.727   3.431   8.625 -3.8403  1.0141 -0.7392
  975MOL0     H31607   1.641   2.859   8.373 -0.5539  1.9178  0.3435
  975MOL0     H31608   1.855   2.789   8.227  0.3910 -0.0147 -2.8790
  975MOL0     H31609   2.124   3.039   7.699  0.1780 -1.1543 -0.2863
  975MOL0     H31610   2.335   2.961   7.600 -0.5384 -1.8478 -1.1529
  975MOL0     H31611   4.120   2.420   7.996  3.4958 -1.6034  1.7680
  975MOL0     H31612   4.314   2.402   7.857  0.6626 -1.6314 -0.3200
  975MOL0     H31613   4.526   2.090   7.592 -1.6664  1.5610 -0.6107
  975MOL0     H31614   4.739   2.016   7.475 -2.8330 -1.3697  0.3162
  975MOL0     H31615   4.778   2.109   7.065  0.4586 -1.7434  0.1934
  975MOL0     H31616   4.886   2.245   7.135  0.1159  0.0546 -0.2082
  975MOL0     H31617   5.013   2.101   6.964 -1.3126  1.7974  0.5220
  975MOL0     H31618   4.940   1.953   7.047 -1.1000 -0.1773 -2.3348
  975MOL0     H31619   5.077   2.025   7.246 -0.8949  1.9714 -1.0353
  975MOL0     H31620   5.161   2.141   7.150  0.1665 -0.3527  0.2100
  975MOL0     H31621   5.154   1.925   6.979 -0.5771  1.4079 -0.2716
  975MOL0     H31622   5.157   1.837   7.124 -1.5384 -1.0965 -2.0169
  975MOL0     H31623   5.548   2.038   7.064  1.4099 -3.4273  2.6510
  975MOL0     H31624   4.678   2.300   7.168 -0.3356  1.3571  0.5184
  975MOL0     H31625   4.475   2.372   7.258 -0.5141  0.5452 -0.7373
  976MOL0     O31626   9.834   4.500   8.133 -0.5176 -0.0322  0.8012
  976MOL0     C31627   9.923   4.409   8.155  1.2134  0.4337  0.7133
  976MOL0     O31628   9.996   4.385   8.271 -0.2774 -0.0235  0.2569
  976MOL0     C31629   9.996   4.479   8.370  0.5174  0.2758  0.1400
  976MOL0     C31630   9.884   4.501   8.451  0.7517  0.1359 -1.1417
  976MOL0     C31631   9.879   4.602   8.558 -0.7041  0.1613  0.1079
  976MOL0     C31632  10.002   4.657   8.588 -0.6625 -0.1436 -0.5926
  976MOL0     O31633  10.023   4.745   8.686  0.3215 -0.3484  0.0914
  976MOL0     C31634   9.968   4.713   8.817 -0.7949  0.3586  0.0177
  976MOL0     C31635  10.019   4.813   8.922 -0.3193 -0.4062  0.2876
  976MOL0     C31636   9.969   4.791   9.064 -1.0530 -0.1284 -0.0661
  976MOL0     C31637   9.820   4.835   9.078 -0.3266  0.3165 -0.3148
  976MOL0     C31638   9.760   4.828   9.219 -0.4886 -0.9445  0.2396
  976MOL0     C31639   9.694   4.695   9.254  0.4313  0.1042  0.1381
  976MOL0     C31640   9.666   4.683   9.409 -0.1215  0.2522 -0.5253
  976MOL0     C31641   9.597   4.801   9.474 -0.1839  0.5048  0.6855
  976MOL0     N31642   9.455   4.800   9.448 -0.1641 -0.0458 -0.1247
  976MOL0     C31643   9.369   4.757   9.548 -0.2519 -0.1553 -0.3184
  976MOL0     C31644   9.254   4.751   9.474  0.3843  0.0670 -0.0402
  976MOL0     C31645   9.119   4.725   9.529 -0.9639  0.0599  0.5718
  976MOL0     C31646   9.038   4.602   9.466  0.2996 -0.5690  0.5607
  976MOL0     C31647   8.944   4.547   9.570  0.4678  0.6028  0.8860
  976MOL0     C31648   8.856   4.427   9.516 -0.7340 -0.3798  0.4214
  976MOL0     O31649   8.766   4.488   9.421 -0.9695  0.0223  0.3787
  976MOL0     C31650   8.702   4.403   9.342  0.0961  0.7306 -0.2854
  976MOL0     C31651   8.724   4.263   9.332  0.3090 -0.6377  0.1040
  976MOL0     C31652   8.652   4.185   9.242 -0.2418  0.1820  0.3661
  976MOL0     C31653   8.676   4.033   9.259  0.0255  0.6080  0.1273
  976MOL0     C31654   8.559   4.248   9.160  0.4935  0.2455 -0.3814
  976MOL0     C31655   8.479   4.178   9.051 -0.3057 -0.4232 -0.5985
  976MOL0     O31656   8.370   4.251   9.010 -0.2433  0.2955 -0.7243
  976MOL0     C31657   8.273   4.198   8.927 -0.9740 -0.0200  0.3075
  976MOL0     C31658   8.188   4.285   8.874 -0.1774 -0.1919 -0.2093
  976MOL0     C31659   8.077   4.240   8.799 -0.3834  0.7342  0.0045
  976MOL0     C31660   8.043   4.104   8.800  0.1768  0.5477 -0.0916
  976MOL0     O31661   7.941   4.043   8.736 -0.4712  0.0241  1.1929
  976MOL0     C31662   7.846   4.128   8.670  1.0842 -0.5345  0.0772
  976MOL0     C31663   7.770   4.047   8.565  0.1952  0.5211  0.4222
  976MOL0     C31664   7.649   4.128   8.510 -0.7198 -0.5729 -0.6114
  976MOL0     C31665   7.575   4.047   8.411 -0.6859 -0.8303  0.1206
  976MOL0     C31666   7.432   4.100   8.407 -1.1572  0.1098 -0.6734
  976MOL0     C31667   7.346   4.009   8.311  0.0333 -0.1213  0.0274
  976MOL0     C31668   7.317   3.872   8.384  0.5539 -0.2355  0.4354
  976MOL0     C31669   7.232   3.778   8.290 -0.7775  0.1413 -0.1046
  976MOL0    Cl31670   7.057   3.839   8.269 -0.5706 -0.0983  0.0086
  976MOL0     C31671   8.141   4.013   8.841  0.3075  0.0044  0.8499
  976MOL0     C31672   8.257   4.058   8.904  0.1608  0.7078 -0.2157
  976MOL0     O31673   8.508   4.063   9.018  0.3186 -0.0679 -0.3262
  976MOL0     C31674   8.540   4.387   9.164  0.1687  0.1953 -0.3840
  976MOL0     C31675   8.606   4.464   9.256 -0.2406 -0.1459 -0.1109
  976MOL0     N31676   9.271   4.792   9.343  0.7395 -0.5015 -0.2237
  976MOL0     N31677   9.396   4.826   9.329 -0.2056 -0.4305  0.1867
  976MOL0     C31678  10.119   4.632   8.511  1.0866  0.3106  0.1025
  976MOL0     C31679  10.117   4.548   8.397 -0.0130 -0.4443  0.1934
  976MOL0     C31680   9.947   4.306   8.050  1.1514  0.6429  0.3214
  976MOL0     C31681  10.065   4.226   8.057 -0.3163 -0.0012  0.5776
  976MOL0     C31682  10.088   4.133   7.949 -0.0233 -0.3263  0.5179
  976MOL0     C31683  10.003   4.122   7.834 -0.0254 -0.6249 -1.2718
  976MOL0     O31684  10.010   4.029   7.733  0.3629 -0.1261  0.1948
  976MOL0     C31685  10.122   3.941   7.736  0.5708 -0.2279  0.4002
  976MOL0     C31686  10.126   3.825   7.634  0.1504 -0.7884 -0.5211
  976MOL0     C31687  10.006   3.729   7.654  0.4913  0.9538  0.1877
  976MOL0     C31688   9.999   3.622   7.547 -0.6257  0.1682 -0.4370
  976MOL0     C31689  10.107   3.529   7.532 -0.8634 -1.1461 -0.6803
  976MOL0     C31690  10.210   3.456   7.522 -0.5399  0.3007  1.4503
  976MOL0     C31691   9.891   4.210   7.831 -0.2410  0.7578 -0.4362
  976MOL0     C31692   9.870   4.303   7.927 -0.3223 -0.3909 -0.6057
  976MOL0     H31693   9.794   4.442   8.438 -0.7853  1.9988  0.4663
  976MOL0     H31694   9.792   4.622   8.620 -0.3855  2.7332 -0.1616
  976MOL0     H31695   9.859   4.713   8.804 -0.8558 -1.9933  0.2040
  976MOL0     H31696   9.984   4.609   8.846  0.8822  0.6477  0.2251
  976MOL0     H31697  10.129   4.809   8.921 -0.3102 -0.8153 -1.7022
  976MOL0     H31698   9.987   4.913   8.892  1.3365 -0.2346 -1.0667
  976MOL0     H31699   9.991   4.691   9.101 -1.1956 -0.0747  0.1635
  976MOL0     H31700  10.027   4.856   9.130 -0.8557 -0.9678  0.5988
  976MOL0     H31701   9.811   4.939   9.046  1.5360  0.0965 -1.7417
  976MOL0     H31702   9.753   4.778   9.011  0.9186  0.3520 -1.6452
  976MOL0     H31703   9.840   4.861   9.286 -1.2043  1.1039  0.1618
  976MOL0     H31704   9.697   4.917   9.225  0.2963 -0.4637  2.3956
  976MOL0     H31705   9.601   4.688   9.196  0.6304  2.0813 -0.5038
  976MOL0     H31706   9.768   4.621   9.225  0.2130 -0.2677  0.5121
  976MOL0     H31707   9.615   4.589   9.432 -1.5922  0.9057 -0.9889
  976MOL0     H31708   9.770   4.688   9.443  0.5394 -0.6085 -2.3048
  976MOL0     H31709   9.637   4.897   9.439  2.5186  0.0728  2.2673
  976MOL0     H31710   9.616   4.784   9.580 -1.8603 -1.9118  0.6565
  976MOL0     H31711   9.387   4.728   9.651  1.4473  0.1800 -0.4821
  976MOL0     H31712   9.132   4.713   9.637  1.5374 -1.1256  0.2182
  976MOL0     H31713   9.058   4.815   9.515 -2.2202 -0.7230  0.7819
  976MOL0     H31714   9.109   4.524   9.437  0.0526 -0.8174  0.6269
  976MOL0     H31715   8.979   4.647   9.385  3.4285  3.0218 -0.0331
  976MOL0     H31716   8.886   4.629   9.613  1.2234  2.7242 -1.9076
  976MOL0     H31717   9.007   4.508   9.651  2.9803 -3.1699 -2.5047
  976MOL0     H31718   8.809   4.376   9.601  1.0358 -1.5090  0.7912
  976MOL0     H31719   8.923   4.358   9.464  1.3470  1.7736  0.0668
  976MOL0     H31720   8.786   4.211   9.404 -0.7468 -0.2362  1.3252
  976MOL0     H31721   8.673   3.983   9.162 -1.6530  2.3803 -0.8290
  976MOL0     H31722   8.773   4.014   9.306  0.2315 -0.9019 -0.8420
  976MOL0     H31723   8.597   3.984   9.315 -0.1602 -1.2868 -1.6652
  976MOL0     H31724   8.214   4.390   8.886  2.0958 -0.8631  1.4025
  976MOL0     H31725   8.012   4.316   8.757  0.1165  0.7884 -0.6890
  976MOL0     H31726   7.780   4.178   8.742 -0.1361  2.1878 -2.7066
  976MOL0     H31727   7.901   4.207   8.618  1.2257 -0.4867  0.2999
  976MOL0     H31728   7.845   4.011   8.494  0.5368  2.8914 -0.5323
  976MOL0     H31729   7.732   3.958   8.616 -1.0551  2.4577  3.1576
  976MOL0     H31730   7.692   4.211   8.454 -0.9781 -1.4725 -2.1841
  976MOL0     H31731   7.592   4.170   8.594 -0.1835 -1.0684  0.0205
  976MOL0     H31732   7.625   4.048   8.314  0.5143 -0.6508  0.7217
  976MOL0     H31733   7.575   3.947   8.456  1.4762 -1.3943 -1.0303
  976MOL0     H31734   7.423   4.197   8.357 -0.5332  2.0048  2.5730
  976MOL0     H31735   7.399   4.102   8.512 -2.1349 -2.5238 -0.8512
  976MOL0     H31736   7.247   4.054   8.298  0.0406 -0.6641 -2.3605
  976MOL0     H31737   7.377   3.995   8.208 -1.5489 -1.1542 -0.3474
  976MOL0     H31738   7.266   3.885   8.480  0.7748  0.7171  0.4355
  976MOL0     H31739   7.411   3.819   8.401 -0.5604 -2.6687 -0.6356
  976MOL0     H31740   7.216   3.680   8.335  0.8760 -1.4940 -2.8116
  976MOL0     H31741   7.275   3.764   8.191 -3.0858  0.6345 -1.2429
  976MOL0     H31742   8.123   3.908   8.826  1.3829 -0.4182  2.2403
  976MOL0     H31743   8.317   3.973   8.937 -0.7033  0.2675  0.2571
  976MOL0     H31744   8.467   4.439   9.103  1.3145  0.4744 -1.5621
  976MOL0     H31745   8.576   4.567   9.271 -2.4798 -0.4582 -1.8992
  976MOL0     H31746  10.206   4.688   8.544  2.4107 -0.1157 -2.4339
  976MOL0     H31747  10.191   4.556   8.318 -1.5970  1.3728 -1.2179
  976MOL0     H31748  10.146   4.252   8.124  0.4384  1.9744 -0.9837
  976MOL0     H31749  10.174   4.068   7.959 -0.0607 -0.6501 -1.1005
  976MOL0     H31750  10.214   4.000   7.725 -0.4667  1.9131  2.4993
  976MOL0     H31751  10.113   3.887   7.830 -2.6544  0.5288  0.6282
  976MOL0     H31752  10.225   3.780   7.641  0.6479  0.5112  2.0268
  976MOL0     H31753  10.120   3.866   7.532  0.6784 -2.1996 -1.1330
  976MOL0     H31754   9.916   3.790   7.663 -0.3149 -0.2271  0.3078
  976MOL0     H31755  10.020   3.685   7.753  1.3495  2.6641  0.8555
  976MOL0     H31756   9.987   3.681   7.456 -0.2556  0.4048 -0.3361
  976MOL0     H31757   9.902   3.575   7.567 -1.2050  1.5370  0.1139
  976MOL0     H31758  10.303   3.402   7.522 -1.4466 -1.3235  1.2700
  976MOL0     H31759   9.822   4.208   7.747 -1.1550  1.4643  0.2758
  976MOL0     H31760   9.789   4.373   7.912  1.2210  1.5564 -0.3394
  977MOL0     O31761   4.839   2.305  10.871 -0.0107  0.6315 -0.3337
  977MOL0     C31762   4.824   2.185  10.884 -0.3738 -0.7410 -0.4353
  977MOL0     O31763   4.926   2.099  10.890 -0.1898 -0.3498  0.5272
  977MOL0     C31764   5.056   2.133  10.886  0.1387  0.9643 -0.5278
  977MOL0     C31765   5.136   2.058  10.795  0.1987 -0.2781  0.0175
  977MOL0     C31766   5.274   2.086  10.772  0.4006  0.0677 -0.7406
  977MOL0     C31767   5.331   2.199  10.837  0.1545  0.8073  0.8005
  977MOL0     O31768   5.459   2.202  10.804 -0.1404  0.4024  0.2891
  977MOL0     C31769   5.544   2.280  10.888  0.8692  0.0574  0.8877
  977MOL0     C31770   5.686   2.213  10.881  0.0466 -0.6599  0.2836
  977MOL0     C31771   5.781   2.285  10.973 -0.0194  0.3331 -0.3214
  977MOL0     C31772   5.826   2.420  10.905  0.0444 -0.1064  0.8257
  977MOL0     C31773   5.959   2.409  10.832  0.0833  0.0992 -0.4756
  977MOL0     C31774   6.072   2.356  10.927 -0.4708 -0.1698  0.4672
  977MOL0     C31775   6.209   2.423  10.898 -0.2433  0.2796 -0.4547
  977MOL0     C31776   6.252   2.410  10.749 -0.5246  0.0524 -0.0690
  977MOL0     N31777   6.292   2.273  10.707  0.4639 -0.3416 -0.2619
  977MOL0     C31778   6.383   2.201  10.772  0.6340 -0.3633  0.4300
  977MOL0     C31779   6.365   2.076  10.723  0.2503  0.4379 -0.1802
  977MOL0     C31780   6.447   1.954  10.743  0.1059  0.2573 -0.0898
  977MOL0     C31781   6.502   1.942  10.892 -0.3661 -0.8193  0.1894
  977MOL0     C31782   6.526   1.787  10.907 -0.2579  1.0278 -0.1222
  977MOL0     C31783   6.606   1.771  11.042 -0.1143 -0.9004 -0.2029
  977MOL0     O31784   6.537   1.827  11.154  0.2965 -0.2296  0.3640
  977MOL0     C31785   6.431   1.767  11.196 -0.1663  0.2981 -0.2247
  977MOL0     C31786   6.394   1.637  11.180  0.7367 -0.3848  0.0597
  977MOL0     C31787   6.270   1.583  11.211  0.6638  0.0861 -0.4836
  977MOL0     C31788   6.249   1.436  11.170 -0.3909 -0.0079  0.2184
  977MOL0     C31789   6.174   1.661  11.286 -0.5884 -0.3642  0.3588
  977MOL0     C31790   6.047   1.610  11.337  1.2900  0.0431  0.3080
  977MOL0     O31791   5.971   1.695  11.408 -0.9296 -0.1321  0.1825
  977MOL0     C31792   5.854   1.663  11.477 -0.8483  0.2429 -0.3918
  977MOL0     C31793   5.805   1.768  11.560 -0.5662 -0.1276  0.9164
  977MOL0     C31794   5.681   1.764  11.626  0.0255  1.1685 -0.7806
  977MOL0     C31795   5.602   1.653  11.612 -0.4650  0.4486 -0.0479
  977MOL0     O31796   5.480   1.672  11.667 -0.0626  0.5494 -0.5640
  977MOL0     C31797   5.378   1.568  11.632 -1.0428  0.4134 -0.3382
  977MOL0     C31798   5.241   1.631  11.664  0.2240  0.1148  0.2725
  977MOL0     C31799   5.110   1.542  11.668 -0.2828 -0.1482 -0.1204
  977MOL0     C31800   5.098   1.451  11.794  0.1721  0.5021 -0.7277
  977MOL0     C31801   4.964   1.381  11.812  0.5507  0.6483 -0.2025
  977MOL0     C31802   4.929   1.306  11.688 -0.7104 -0.0497 -0.4899
  977MOL0     C31803   4.825   1.190  11.721  0.7182  0.1497  0.1134
  977MOL0     C31804   4.807   1.090  11.605  0.5723 -0.3208 -0.0804
  977MOL0    Cl31805   4.954   0.997  11.577  0.5853  0.1499  0.3014
  977MOL0     C31806   5.647   1.537  11.537  0.0305  0.1653 -0.2257
  977MOL0     C31807   5.773   1.545  11.477  0.8055  0.8643 -0.7933
  977MOL0     O31808   6.003   1.504  11.288 -0.0823 -0.5624 -0.0310
  977MOL0     C31809   6.215   1.796  11.310 -0.1628 -0.2429  0.2886
  977MOL0     C31810   6.341   1.848  11.261 -0.1808  0.6625  1.1516
  977MOL0     N31811   6.268   2.082  10.625  0.3049  0.1416  0.0966
  977MOL0     N31812   6.239   2.207  10.603 -0.2979  0.1289  0.8669
  977MOL0     C31813   5.251   2.276  10.927  0.2574  0.7522 -0.4883
  977MOL0     C31814   5.115   2.238  10.962  0.4201 -0.1190 -0.1093
  977MOL0     C31815   4.689   2.125  10.922  0.1629  0.2242  0.0202
  977MOL0     C31816   4.578   2.213  10.921 -0.0863 -0.1132 -0.1176
  977MOL0     C31817   4.449   2.171  10.945 -0.0804 -0.7105  0.6156
  977MOL0     C31818   4.426   2.038  10.968  0.0568  0.5170 -0.2066
  977MOL0     O31819   4.307   1.972  10.983  0.6402  0.3411 -0.7131
  977MOL0     C31820   4.193   2.051  11.028 -0.9201  0.1764  0.0899
  977MOL0     C31821   4.069   1.958  11.040  0.6065  0.0614 -0.1943
  977MOL0     C31822   3.986   2.005  11.159  0.6299  0.5145  0.5417
  977MOL0     C31823   3.873   1.909  11.181  0.2097 -0.6956  0.3935
  977MOL0     C31824   3.754   1.946  11.107  0.0919 -0.1359  0.1260
  977MOL0     C31825   3.650   1.977  11.053 -0.5330 -0.1012 -0.4487
  977MOL0     C31826   4.530   1.943  10.969 -0.3099  0.2758 -0.2071
  977MOL0     C31827   4.665   1.988  10.947 -0.2598 -0.0314  0.7305
  977MOL0     H31828   5.097   1.966  10.752 -0.2104  0.4892 -1.3506
  977MOL0     H31829   5.330   2.026  10.701 -2.0529 -2.1650 -0.9479
  977MOL0     H31830   5.550   2.383  10.852 -0.4794  0.5035  1.8521
  977MOL0     H31831   5.511   2.293  10.992 -0.1289 -2.3353  0.9420
  977MOL0     H31832   5.693   2.109  10.913  1.6333 -1.3076 -1.9188
  977MOL0     H31833   5.727   2.223  10.780  0.1716  1.0834  0.4698
  977MOL0     H31834   5.731   2.303  11.069 -2.2033 -1.6968 -0.9691
  977MOL0     H31835   5.859   2.211  10.989 -0.7867 -0.1421  1.5540
  977MOL0     H31836   5.753   2.450  10.830 -0.1594 -0.8095  0.7307
  977MOL0     H31837   5.835   2.503  10.975  2.0822  2.7433 -2.5075
  977MOL0     H31838   5.943   2.336  10.752  3.9318 -0.1953 -1.1418
  977MOL0     H31839   5.988   2.504  10.788  1.4575  0.3496  0.9013
  977MOL0     H31840   6.060   2.381  11.033  2.6878 -0.1239  0.9151
  977MOL0     H31841   6.091   2.249  10.911  0.7738 -0.1767  1.7711
  977MOL0     H31842   6.205   2.525  10.936 -0.4454  0.1357 -0.0868
  977MOL0     H31843   6.280   2.365  10.958 -0.5560 -2.3945 -2.4383
  977MOL0     H31844   6.339   2.475  10.738  0.6943 -1.7894 -2.2349
  977MOL0     H31845   6.172   2.447  10.684 -1.6966  0.2605  1.4404
  977MOL0     H31846   6.457   2.229  10.847 -0.1410 -1.4122  1.6265
  977MOL0     H31847   6.376   1.873  10.726 -2.1654  1.9738  0.6812
  977MOL0     H31848   6.520   1.944  10.662 -1.7230  0.3645 -1.8053
  977MOL0     H31849   6.427   1.986  10.958  1.3505  0.8407  1.1073
  977MOL0     H31850   6.591   2.006  10.895 -0.8546  0.1848 -2.9697
  977MOL0     H31851   6.586   1.733  10.832  1.6026  2.3919  0.3126
  977MOL0     H31852   6.428   1.741  10.921  0.9543 -1.4698  0.8742
  977MOL0     H31853   6.693   1.836  11.027  0.2137 -1.1549  0.5180
  977MOL0     H31854   6.638   1.666  11.048  0.8716 -0.5442  1.2446
  977MOL0     H31855   6.468   1.576  11.130 -0.7615 -0.1701 -2.6285
  977MOL0     H31856   6.205   1.381  11.254  0.1375  2.3697  2.1660
  977MOL0     H31857   6.200   1.433  11.073  1.3783  3.3813 -0.9633
  977MOL0     H31858   6.345   1.386  11.163  0.2749  0.9966  1.5244
  977MOL0     H31859   5.860   1.860  11.572 -0.7550 -0.1652  2.1422
  977MOL0     H31860   5.645   1.844  11.690 -1.1909  0.0573 -0.0381
  977MOL0     H31861   5.381   1.554  11.524 -1.0964 -0.3738 -0.2453
  977MOL0     H31862   5.391   1.473  11.686  0.3583  0.6124 -0.2967
  977MOL0     H31863   5.248   1.690  11.756  0.2577  3.3646 -1.6685
  977MOL0     H31864   5.225   1.701  11.582  1.4711  1.6820  1.3111
  977MOL0     H31865   5.095   1.509  11.565 -0.1112  2.5952 -1.1196
  977MOL0     H31866   5.025   1.610  11.684  0.1786  0.0911  1.5733
  977MOL0     H31867   5.177   1.377  11.781  1.1817  1.3540  0.3822
  977MOL0     H31868   5.127   1.503  11.886 -0.3312  2.2647 -1.5319
  977MOL0     H31869   4.883   1.448  11.841  0.2848  0.0862  0.3709
  977MOL0     H31870   4.985   1.311  11.894  1.6822  3.2297  1.8513
  977MOL0     H31871   4.891   1.386  11.624 -1.4143  1.6217  1.8813
  977MOL0     H31872   5.024   1.265  11.654 -0.8724 -2.1414  1.2967
  977MOL0     H31873   4.732   1.235  11.756 -0.1815 -1.2417 -0.4201
  977MOL0     H31874   4.857   1.133  11.809  2.4808  1.7314  0.5792
  977MOL0     H31875   4.767   1.132  11.512 -0.9369 -0.8129  0.3228
  977MOL0     H31876   4.736   1.016  11.643  0.8410 -0.4519  0.1689
  977MOL0     H31877   5.583   1.453  11.512 -1.6829  1.4557 -0.4008
  977MOL0     H31878   5.800   1.467  11.405 -1.3745  0.2122 -0.9721
  977MOL0     H31879   6.143   1.860  11.360  1.3232  0.7071  1.3088
  977MOL0     H31880   6.358   1.955  11.265  1.1638  0.5062  0.2601
  977MOL0     H31881   5.284   2.367  10.977 -1.3537  2.3453 -2.1736
  977MOL0     H31882   5.056   2.294  11.034  0.6567  0.0890 -0.0814
  977MOL0     H31883   4.588   2.317  10.892  0.4921 -0.7699 -2.5272
  977MOL0     H31884   4.362   2.236  10.937  1.4001  1.2960 -0.1252
  977MOL0     H31885   4.221   2.102  11.121 -1.5561 -1.1363  1.0318
  977MOL0     H31886   4.174   2.130  10.955 -2.4283  1.9466  2.2443
  977MOL0     H31887   4.100   1.857  11.067 -1.1201 -0.7963 -1.2403
  977MOL0     H31888   4.017   1.961  10.943 -0.3527 -0.7865  0.2691
  977MOL0     H31889   3.943   2.105  11.145  0.1899  0.6483  2.6073
  977MOL0     H31890   4.044   2.000  11.251  2.0511 -1.7107 -0.3863
  977MOL0     H31891   3.848   1.924  11.286  0.8175 -3.7306  1.0507
  977MOL0     H31892   3.903   1.806  11.162  1.8249 -0.1384 -0.3594
  977MOL0     H31893   3.554   2.012  11.023 -0.2819 -0.3874 -1.6255
  977MOL0     H31894   4.498   1.840  10.977  1.6230 -0.2701  0.9825
  977MOL0     H31895   4.742   1.912  10.939 -3.5251 -3.5598 -0.2448
  978MOL0     O31896   8.256   1.005   8.528  0.4913  0.2882 -0.3349
  978MOL0     C31897   8.337   0.986   8.436  0.3008 -1.3727  0.0280
  978MOL0     O31898   8.315   1.022   8.308 -0.0756  0.1382  0.2507
  978MOL0     C31899   8.189   1.071   8.273  0.0882 -0.1386  0.3666
  978MOL0     C31900   8.077   0.987   8.268  0.0535  0.5064  0.4568
  978MOL0     C31901   7.954   1.023   8.211 -0.1649 -0.7017 -0.2880
  978MOL0     C31902   7.932   1.162   8.182  0.1787  0.7653 -0.1163
  978MOL0     O31903   7.815   1.193   8.123  0.6859  0.0967  0.3507
  978MOL0     C31904   7.787   1.317   8.067 -0.7675 -0.9009  0.3740
  978MOL0     C31905   7.666   1.323   7.978  0.1696 -0.1313  0.2343
  978MOL0     C31906   7.536   1.290   8.061  0.4260  1.0382 -0.2121
  978MOL0     C31907   7.472   1.412   8.128  0.5300 -0.6180 -0.5885
  978MOL0     C31908   7.337   1.387   8.203 -0.5485  0.1087 -0.0985
  978MOL0     C31909   7.268   1.506   8.247 -0.0707 -0.1583  0.5725
  978MOL0     C31910   7.124   1.491   8.291 -0.5075 -0.0631 -0.2059
  978MOL0     C31911   7.106   1.401   8.413 -0.0713  0.0139  0.7325
  978MOL0     N31912   6.992   1.447   8.480  0.4575 -0.5420  1.0392
  978MOL0     C31913   6.856   1.422   8.452  0.2469  0.3017  0.3711
  978MOL0     C31914   6.784   1.485   8.551 -0.0114 -0.1752 -0.6052
  978MOL0     C31915   6.635   1.484   8.554 -0.6130 -0.2187  0.1605
  978MOL0     C31916   6.572   1.607   8.480 -0.3484 -0.2628 -0.1226
  978MOL0     C31917   6.422   1.597   8.443 -1.0145  0.4459 -0.6702
  978MOL0     C31918   6.337   1.594   8.563  0.5488  0.4875 -0.5535
  978MOL0     O31919   6.195   1.619   8.530 -0.4778  0.5976 -0.1918
  978MOL0     C31920   6.105   1.609   8.623  0.7935  0.1429 -0.1481
  978MOL0     C31921   6.113   1.565   8.757 -0.1887  1.0687  0.4319
  978MOL0     C31922   6.004   1.548   8.837 -0.4824 -0.3771  0.0121
  978MOL0     C31923   6.027   1.491   8.976  0.6191 -0.2121  0.5205
  978MOL0     C31924   5.874   1.599   8.801 -1.1191 -0.2346 -0.6491
  978MOL0     C31925   5.743   1.608   8.885 -0.2908  0.5724 -0.3875
  978MOL0     O31926   5.636   1.681   8.830 -0.1561 -0.5317  0.0482
  978MOL0     C31927   5.540   1.719   8.923  0.4835 -0.2000 -0.6450
  978MOL0     C31928   5.562   1.841   9.001  0.2081  0.6381 -0.1290
  978MOL0     C31929   5.471   1.878   9.097 -0.5612  0.3371 -0.5673
  978MOL0     C31930   5.358   1.797   9.122  1.2000 -0.3367  0.1762
  978MOL0     O31931   5.272   1.845   9.221  0.4177  0.3734 -0.8342
  978MOL0     C31932   5.145   1.772   9.245 -0.2027 -0.2802  0.2739
  978MOL0     C31933   5.056   1.845   9.350 -0.1464  0.6165 -0.0237
  978MOL0     C31934   4.921   1.766   9.377  0.5850  0.4669 -0.0240
  978MOL0     C31935   4.837   1.810   9.504 -0.4116  1.1715  0.3580
  978MOL0     C31936   4.773   1.947   9.473 -0.9028  0.0739  0.2728
  978MOL0     C31937   4.702   2.021   9.593 -0.6149  0.4968 -0.2370
  978MOL0     C31938   4.602   2.121   9.553  0.2573 -0.6662  0.1123
  978MOL0     C31939   4.545   2.195   9.682 -0.7930  0.7091 -1.5131
  978MOL0    Cl31940   4.532   2.373   9.646  0.0894  0.0464  0.1707
  978MOL0     C31941   5.333   1.684   9.054  0.4531 -0.0939 -1.3580
  978MOL0     C31942   5.429   1.642   8.960 -0.3762  0.4646  0.0515
  978MOL0     O31943   5.742   1.546   8.995  0.5241 -0.7451 -0.4606
  978MOL0     C31944   5.865   1.646   8.672 -0.0734  0.0702  0.3051
  978MOL0     C31945   5.974   1.654   8.577 -0.3747  0.0961 -0.3910
  978MOL0     N31946   6.875   1.551   8.631  0.2005 -0.0469 -0.9350
  978MOL0     N31947   6.998   1.527   8.594 -0.9981  0.7002 -0.1097
  978MOL0     C31948   8.048   1.245   8.191  0.5280  0.3971 -0.1708
  978MOL0     C31949   8.170   1.202   8.233 -0.0311 -0.2533 -0.7320
  978MOL0     C31950   8.473   0.940   8.475  0.7535  0.5224 -0.6983
  978MOL0     C31951   8.566   0.901   8.383 -0.4323 -0.7505 -0.5160
  978MOL0     C31952   8.690   0.870   8.423 -0.3222 -0.0980 -0.4011
  978MOL0     C31953   8.725   0.868   8.557 -0.5596 -0.4157  0.1418
  978MOL0     O31954   8.854   0.825   8.580  0.2473  0.3774 -0.2542
  978MOL0     C31955   8.885   0.749   8.700 -0.0450 -0.3463 -0.3041
  978MOL0     C31956   8.820   0.610   8.706 -0.3818 -0.4927 -0.5608
  978MOL0     C31957   8.858   0.530   8.834 -0.5036  0.0036 -0.0196
  978MOL0     C31958   8.954   0.407   8.806  1.1619  0.4409 -0.1277
  978MOL0     C31959   9.077   0.443   8.738  0.4091  0.5765 -0.0879
  978MOL0     C31960   9.176   0.475   8.682 -0.3744  0.4283  0.4173
  978MOL0     C31961   8.633   0.897   8.654  0.7139 -0.7322  0.3428
  978MOL0     C31962   8.508   0.941   8.614  0.5172 -0.2682 -0.3595
  978MOL0     H31963   8.099   0.882   8.287 -0.2742  1.1241  6.0612
  978MOL0     H31964   7.870   0.956   8.198  0.3283 -1.0200 -2.1015
  978MOL0     H31965   7.762   1.385   8.148 -2.4099 -0.3388 -0.5645
  978MOL0     H31966   7.878   1.360   8.025 -1.3037  0.6566  0.7664
  978MOL0     H31967   7.647   1.421   7.934 -0.3671 -0.1853  0.3379
  978MOL0     H31968   7.685   1.249   7.900 -0.3276  0.9583 -0.9415
  978MOL0     H31969   7.459   1.242   7.999  0.1591 -2.1932  2.3238
  978MOL0     H31970   7.557   1.218   8.141 -1.8824  1.6846  1.0721
  978MOL0     H31971   7.543   1.446   8.204  3.1105 -1.9767 -2.2356
  978MOL0     H31972   7.454   1.494   8.058 -2.2233  1.1846  2.0099
  978MOL0     H31973   7.284   1.331   8.126  2.3133  1.7760 -3.5910
  978MOL0     H31974   7.356   1.333   8.296  2.7862  1.7507  0.3403
  978MOL0     H31975   7.326   1.554   8.326 -0.1130  1.9430 -0.5919
  978MOL0     H31976   7.260   1.581   8.167  1.1488  0.1696  0.7426
  978MOL0     H31977   7.078   1.588   8.312  1.6542  1.1827 -0.8397
  978MOL0     H31978   7.059   1.445   8.216 -0.8466 -2.8036  1.6101
  978MOL0     H31979   7.194   1.419   8.475  0.0811  0.5212  0.3753
  978MOL0     H31980   7.087   1.296   8.389 -0.3741  0.5512 -1.6163
  978MOL0     H31981   6.822   1.381   8.357  1.1289  0.9492 -0.2435
  978MOL0     H31982   6.596   1.402   8.493  3.1442 -0.0522 -2.8521
  978MOL0     H31983   6.606   1.476   8.659  2.5248  1.9098  1.3266
  978MOL0     H31984   6.624   1.616   8.384 -0.4379  1.9586 -0.0014
  978MOL0     H31985   6.587   1.698   8.538  0.3043  1.7608 -3.2298
  978MOL0     H31986   6.404   1.515   8.373 -1.0554 -0.3189  0.2148
  978MOL0     H31987   6.400   1.685   8.382 -0.4423  0.1134 -1.3717
  978MOL0     H31988   6.380   1.671   8.628 -0.5251 -0.3596  1.2551
  978MOL0     H31989   6.349   1.507   8.628  0.9364  0.2013 -1.0035
  978MOL0     H31990   6.206   1.528   8.798 -0.0868  0.0991 -0.6245
  978MOL0     H31991   6.017   1.571   9.049  2.2532  2.2770 -1.7667
  978MOL0     H31992   5.945   1.422   8.995  0.4168  0.2704  1.4341
  978MOL0     H31993   6.121   1.436   8.989  0.0217 -1.0264  1.5045
  978MOL0     H31994   5.656   1.887   8.976  2.2060 -3.3573 -0.8672
  978MOL0     H31995   5.492   1.969   9.152  1.4930  0.1945 -1.0340
  978MOL0     H31996   5.095   1.766   9.149 -0.6985  4.1304  0.0524
  978MOL0     H31997   5.182   1.677   9.285 -0.3970 -0.7912 -0.7327
  978MOL0     H31998   5.108   1.875   9.441 -1.2066 -1.7396  1.4659
  978MOL0     H31999   5.018   1.939   9.309  1.0500  0.0110 -2.7517
  978MOL0     H32000   4.948   1.660   9.371 -2.5789 -0.5599  1.4401
  978MOL0     H32001   4.852   1.787   9.294  3.2599  1.9738 -2.0438
  978MOL0     H32002   4.754   1.740   9.518  0.6056 -0.8944 -2.9108
  978MOL0     H32003   4.895   1.801   9.596 -0.6385 -2.9648  0.2917
  978MOL0     H32004   4.700   1.928   9.394 -0.9517 -2.6186  0.8658
  978MOL0     H32005   4.851   2.008   9.427 -0.9674 -1.5105 -2.0800
  978MOL0     H32006   4.637   1.954   9.650 -1.1706  1.6042  0.4657
  978MOL0     H32007   4.791   2.048   9.651  1.1397  2.8637 -3.7267
  978MOL0     H32008   4.522   2.074   9.495 -1.6287  3.3365 -0.9025
  978MOL0     H32009   4.650   2.201   9.495  0.1187  1.2307  2.4563
  978MOL0     H32010   4.610   2.177   9.768 -1.1591 -0.5016 -1.4698
  978MOL0     H32011   4.447   2.161   9.717  0.0830  1.4387  2.0429
  978MOL0     H32012   5.261   1.610   9.085 -0.6596  1.9464  1.3209
  978MOL0     H32013   5.422   1.546   8.911 -0.6520 -1.0058  2.8107
  978MOL0     H32014   5.769   1.688   8.645 -0.4474  0.6463  2.3921
  978MOL0     H32015   5.957   1.695   8.478  2.1158 -0.8429 -1.2785
  978MOL0     H32016   8.040   1.347   8.157  0.5946  0.1275 -1.0222
  978MOL0     H32017   8.250   1.276   8.233  0.5667 -0.8886  0.0747
  978MOL0     H32018   8.537   0.904   8.279  1.1665  0.0860 -0.9665
  978MOL0     H32019   8.763   0.841   8.348 -0.3772 -1.2227 -0.0325
  978MOL0     H32020   8.992   0.728   8.682 -0.0341 -0.2654 -0.3289
  978MOL0     H32021   8.879   0.805   8.793  1.3026  1.9992 -1.5109
  978MOL0     H32022   8.859   0.556   8.619  1.0070 -1.2503  0.4836
  978MOL0     H32023   8.712   0.625   8.697  0.1122  2.5959 -2.6851
  978MOL0     H32024   8.761   0.503   8.877 -0.9326  0.9976 -0.3482
  978MOL0     H32025   8.915   0.585   8.910  0.3843 -0.7792 -0.0989
  978MOL0     H32026   8.899   0.337   8.742  3.1812  1.3451 -3.1230
  978MOL0     H32027   8.978   0.353   8.898 -1.0288 -3.0181 -1.4079
  978MOL0     H32028   9.270   0.504   8.640  1.3629 -0.0726  3.6239
  978MOL0     H32029   8.652   0.888   8.760  2.1195  2.0257  0.4111
  978MOL0     H32030   8.440   0.955   8.697  0.3340  0.1506 -0.5795
  979MOL0     O32031   1.941   8.787  10.822 -0.3302  0.1193  0.4275
  979MOL0     C32032   1.958   8.913  10.817 -0.0957  0.2154 -0.6697
  979MOL0     O32033   1.863   9.006  10.853 -0.4280  0.0266 -0.0867
  979MOL0     C32034   1.732   8.965  10.873 -0.1354 -0.9832  1.0989
  979MOL0     C32035   1.687   8.938  10.998 -0.1722 -0.3098 -0.6752
  979MOL0     C32036   1.549   8.894  11.013  0.7172 -0.0031  0.5035
  979MOL0     C32037   1.459   8.888  10.906  0.0272  0.1505  1.0502
  979MOL0     O32038   1.328   8.857  10.902  0.0252  0.0206  0.3297
  979MOL0     C32039   1.272   8.759  10.985  0.5181  0.2804 -1.3648
  979MOL0     C32040   1.139   8.730  10.916 -0.5338  0.1089 -1.0503
  979MOL0     C32041   1.034   8.684  11.017 -0.5267  0.0159 -0.0278
  979MOL0     C32042   0.922   8.617  10.937 -0.4185  0.3930 -0.2039
  979MOL0     C32043   0.827   8.535  11.033 -0.7471  0.3008  0.7523
  979MOL0     C32044   0.725   8.616  11.106 -0.2957  0.3278  0.6533
  979MOL0     C32045   0.622   8.512  11.157 -0.2300 -0.9012  0.2400
  979MOL0     C32046   0.525   8.563  11.258 -0.2108 -0.4530 -0.8690
  979MOL0     N32047   0.431   8.645  11.185 -0.4942  0.5280 -0.6290
  979MOL0     C32048   0.335   8.613  11.091 -0.9411  0.3626  0.3611
  979MOL0     C32049   0.280   8.733  11.058  0.6032 -0.7518  0.1869
  979MOL0     C32050   0.175   8.749  10.955  1.2567 -0.1632  0.4844
  979MOL0     C32051   0.039   8.707  11.002  0.4271  0.5815 -0.4280
  979MOL0     C32052  -0.029   8.813  11.088 -1.2840  0.1352 -0.1765
  979MOL0     C32053  -0.144   8.873  11.022  0.5998 -0.4106  0.0130
  979MOL0     O32054  -0.215   8.948  11.125 -0.0885 -0.2836  0.4865
  979MOL0     C32055  -0.354   8.943  11.117 -0.0370  0.0570 -0.1015
  979MOL0     C32056  -0.428   8.961  11.237  0.8417 -0.4469 -0.4946
  979MOL0     C32057  -0.566   8.948  11.240  0.1450 -0.0297  0.7083
  979MOL0     C32058  -0.637   8.959  11.370 -0.5292 -0.1332 -0.1863
  979MOL0     C32059  -0.639   8.927  11.117  0.2398  0.0658 -0.0638
  979MOL0     C32060  -0.780   8.885  11.123 -0.7839 -0.5520 -0.0742
  979MOL0     O32061  -0.813   8.791  11.024  0.1357  0.0864 -0.3722
  979MOL0     C32062  -0.916   8.711  11.043  0.1621  0.6688  0.6046
  979MOL0     C32063  -0.982   8.668  10.929 -0.9648 -0.0251 -0.9093
  979MOL0     C32064  -1.102   8.592  10.934 -0.1695 -0.8270 -0.3584
  979MOL0     C32065  -1.151   8.537  11.053  0.3662  0.3021 -0.3720
  979MOL0     O32066  -1.270   8.461  11.067  0.0908 -0.0349  0.0825
  979MOL0     C32067  -1.331   8.410  10.950  0.1125  0.0912  0.3625
  979MOL0     C32068  -1.434   8.301  10.975  0.6735  0.4824 -0.0240
  979MOL0     C32069  -1.371   8.172  11.035 -0.9490 -0.0390 -0.1395
  979MOL0     C32070  -1.482   8.068  11.052 -0.5121  1.3777  0.2970
  979MOL0     C32071  -1.424   7.958  11.138 -0.1112 -0.6748 -0.1815
  979MOL0     C32072  -1.521   7.852  11.159 -0.2022  0.2279 -0.4619
  979MOL0     C32073  -1.467   7.755  11.265  0.0154  0.0406 -0.9303
  979MOL0     C32074  -1.348   7.673  11.219 -0.3096  0.1100  0.3422
  979MOL0    Cl32075  -1.286   7.579  11.358 -0.0674  0.2226 -0.0802
  979MOL0     C32076  -1.071   8.566  11.159  0.1680  0.0217 -0.5480
  979MOL0     C32077  -0.963   8.657  11.157 -0.8287 -0.5688  0.4758
  979MOL0     O32078  -0.857   8.933  11.201  0.1179 -0.4202 -0.1915
  979MOL0     C32079  -0.566   8.921  10.997 -0.1815  0.3998  0.4200
  979MOL0     C32080  -0.428   8.929  11.001 -0.2309 -0.5014  0.0979
  979MOL0     N32081   0.346   8.839  11.116  0.2975  0.6905 -0.0585
  979MOL0     N32082   0.435   8.778  11.184  0.5851 -0.4808  0.2948
  979MOL0     C32083   1.506   8.924  10.789  0.5836 -0.3197  0.5772
  979MOL0     C32084   1.640   8.960  10.765 -0.1799  0.6097 -0.1222
  979MOL0     C32085   2.099   8.964  10.796  0.1739  0.0038 -0.2776
  979MOL0     C32086   2.128   9.101  10.802  0.1576  0.1389 -1.1653
  979MOL0     C32087   2.260   9.152  10.792  0.0405  0.9745 -0.2284
  979MOL0     C32088   2.364   9.063  10.771  0.4408  0.0813  0.8524
  979MOL0     O32089   2.486   9.119  10.762  0.2925 -0.5870 -0.3872
  979MOL0     C32090   2.604   9.038  10.717 -0.3883 -0.1010  0.8077
  979MOL0     C32091   2.716   9.139  10.691 -0.2393  0.8403  0.3775
  979MOL0     C32092   2.828   9.071  10.613  0.2247  0.1155 -1.1080
  979MOL0     C32093   2.949   9.166  10.573 -0.0060 -1.2284  0.0978
  979MOL0     C32094   3.003   9.228  10.692 -0.0065 -0.1252 -0.3411
  979MOL0     C32095   3.044   9.279  10.788 -0.2195 -0.8348 -0.1319
  979MOL0     C32096   2.327   8.929  10.739  0.1547 -0.2060 -0.0937
  979MOL0     C32097   2.202   8.875  10.766 -0.6449 -0.0259 -0.3398
  979MOL0     H32098   1.757   8.946  11.080 -0.6912 -0.8618 -0.1732
  979MOL0     H32099   1.498   8.870  11.106 -1.0676 -1.6623 -0.8280
  979MOL0     H32100   1.324   8.663  10.988 -0.7890 -0.4478  1.7527
  979MOL0     H32101   1.265   8.798  11.087 -0.6429  1.0812 -1.7238
  979MOL0     H32102   1.110   8.829  10.880  2.0190  1.6845  0.8414
  979MOL0     H32103   1.149   8.661  10.832 -1.6869  0.1977 -1.2729
  979MOL0     H32104   1.071   8.618  11.096 -1.2184  0.3880  0.6094
  979MOL0     H32105   1.006   8.779  11.062  3.1742  1.7573 -0.9922
  979MOL0     H32106   0.865   8.694  10.884 -2.6079 -0.8669  0.1847
  979MOL0     H32107   0.970   8.550  10.865  1.3875  0.0758  1.2202
  979MOL0     H32108   0.768   8.465  10.972  2.1776 -1.5539 -0.2202
  979MOL0     H32109   0.895   8.469  11.088  0.1717 -0.2905 -0.9824
  979MOL0     H32110   0.773   8.656  11.196  3.2488 -0.9436 -0.4964
  979MOL0     H32111   0.665   8.689  11.050 -2.0863 -0.5440  1.3478
  979MOL0     H32112   0.573   8.460  11.075 -0.8404 -1.4600  0.9421
  979MOL0     H32113   0.679   8.433  11.207  1.1639 -0.2887 -0.3124
  979MOL0     H32114   0.574   8.626  11.333 -0.5876  1.1956 -1.9359
  979MOL0     H32115   0.467   8.478  11.294 -1.2375  0.5049 -0.1706
  979MOL0     H32116   0.311   8.518  11.045 -2.8076  1.2527 -0.6095
  979MOL0     H32117   0.161   8.851  10.920 -2.8261 -1.1032 -1.1948
  979MOL0     H32118   0.195   8.693  10.863 -3.6649  0.8459 -1.5246
  979MOL0     H32119   0.037   8.609  11.051 -2.1312  1.7803  2.2145
  979MOL0     H32120  -0.018   8.690  10.910  4.8868 -4.2321 -2.8126
  979MOL0     H32121   0.046   8.891  11.106  2.1786 -3.1651  1.2156
  979MOL0     H32122  -0.052   8.784  11.191  0.9142  1.7759  0.8574
  979MOL0     H32123  -0.202   8.793  10.974  2.3291 -1.0277 -1.1365
  979MOL0     H32124  -0.109   8.931  10.936  1.6753 -0.8654  0.1326
  979MOL0     H32125  -0.390   8.997  11.332 -1.9154  3.3744 -0.6345
  979MOL0     H32126  -0.717   9.033  11.374  0.5089  1.0096 -0.1690
  979MOL0     H32127  -0.680   8.863  11.400 -0.8379 -0.1332 -0.6132
  979MOL0     H32128  -0.565   8.980  11.449 -1.6282 -4.0227  2.1570
  979MOL0     H32129  -0.939   8.694  10.833  0.7717 -0.1419 -0.2116
  979MOL0     H32130  -1.148   8.582  10.835 -1.7934 -0.7296  0.3501
  979MOL0     H32131  -1.371   8.496  10.896  1.2416  0.3062 -0.1748
  979MOL0     H32132  -1.270   8.360  10.874 -1.4289  2.1422 -2.4118
  979MOL0     H32133  -1.498   8.345  11.053 -0.0564 -0.2618 -0.1892
  979MOL0     H32134  -1.492   8.271  10.887 -0.7940  1.4239  0.5834
  979MOL0     H32135  -1.314   8.192  11.126 -0.8968  1.3568 -0.4527
  979MOL0     H32136  -1.301   8.136  10.958  2.2140  1.6272  1.7593
  979MOL0     H32137  -1.575   8.106  11.096 -1.3029  1.2592 -1.2098
  979MOL0     H32138  -1.506   8.026  10.954  5.0529 -1.5888 -0.1938
  979MOL0     H32139  -1.403   8.004  11.235 -0.3676 -2.1128  0.5700
  979MOL0     H32140  -1.328   7.924  11.097  0.6296  1.0147  0.0296
  979MOL0     H32141  -1.622   7.881  11.188 -0.6103 -1.6815  0.2109
  979MOL0     H32142  -1.532   7.789  11.070 -0.0812  1.1176 -1.1130
  979MOL0     H32143  -1.543   7.680  11.287 -1.0634  1.4022  0.2040
  979MOL0     H32144  -1.443   7.810  11.356 -0.1561 -2.9016  1.0354
  979MOL0     H32145  -1.269   7.741  11.185  0.3810 -1.8564 -2.2958
  979MOL0     H32146  -1.381   7.620  11.129 -0.9075  2.3677 -0.8593
  979MOL0     H32147  -1.108   8.525  11.252 -2.6234  0.6173 -1.3113
  979MOL0     H32148  -0.913   8.673  11.252 -0.6751 -1.4021  0.5448
  979MOL0     H32149  -0.606   8.890  10.900 -0.5256 -2.0710  1.2775
  979MOL0     H32150  -0.372   8.920  10.909  1.0397  1.1237  0.6844
  979MOL0     H32151   1.448   8.933  10.698 -0.0967  1.5607  1.1478
  979MOL0     H32152   1.685   8.987  10.670  1.5625  1.1256  0.8141
  979MOL0     H32153   2.054   9.174  10.832  0.9116  0.0701  1.0084
  979MOL0     H32154   2.281   9.258  10.803 -2.0275  1.4608 -0.5962
  979MOL0     H32155   2.638   8.963  10.789 -0.1463 -1.7951 -0.9915
  979MOL0     H32156   2.575   8.985  10.626  0.6974  0.3764  0.1608
  979MOL0     H32157   2.749   9.185  10.785 -0.6191 -0.2200  1.0469
  979MOL0     H32158   2.690   9.222  10.624  2.4307  0.0376 -1.8213
  979MOL0     H32159   2.792   9.037  10.516  0.6115 -0.8006 -0.9474
  979MOL0     H32160   2.866   8.994  10.681  0.1311  1.3672  0.4189
  979MOL0     H32161   2.915   9.245  10.507  0.8181 -0.7232  0.2618
  979MOL0     H32162   3.022   9.105  10.518 -0.6326 -1.1188 -0.8713
  979MOL0     H32163   3.079   9.328  10.876  2.1942 -2.3529 -0.1635
  979MOL0     H32164   2.406   8.875  10.687  1.4666  1.1743  0.4117
  979MOL0     H32165   2.176   8.770  10.758  0.4216 -0.5026  1.7092
  980MOL0     O32166   7.010   6.260   1.928 -0.0725  0.6863 -0.4870
  980MOL0     C32167   7.034   6.288   1.810 -0.3248 -1.3492 -0.7587
  980MOL0     O32168   6.955   6.269   1.705 -0.2734  0.0686  0.4310
  980MOL0     C32169   6.819   6.248   1.727  0.6400  0.1719 -0.7711
  980MOL0     C32170   6.746   6.201   1.619 -0.7949  0.2193 -0.6087
  980MOL0     C32171   6.608   6.198   1.628  0.1750 -0.2815  0.0876
  980MOL0     C32172   6.529   6.241   1.735 -0.7892 -0.1051  0.0680
  980MOL0     O32173   6.396   6.235   1.749  0.2139 -0.6434  0.1296
  980MOL0     C32174   6.328   6.170   1.640 -1.0133  0.5200  0.9602
  980MOL0     C32175   6.186   6.135   1.685  0.5274  0.4308  0.3870
  980MOL0     C32176   6.101   6.102   1.566 -0.0332  0.3355  0.3112
  980MOL0     C32177   5.945   6.105   1.602 -0.5509 -0.0580 -0.1752
  980MOL0     C32178   5.861   6.068   1.473 -0.0399  0.1939 -0.1767
  980MOL0     C32179   5.716   6.043   1.519  0.2634  0.1430 -0.8481
  980MOL0     C32180   5.643   6.014   1.392 -0.1409  0.5922  0.2368
  980MOL0     C32181   5.494   5.995   1.425  0.5724  0.2334  0.6300
  980MOL0     N32182   5.428   6.123   1.431  1.0767  0.3297  0.1185
  980MOL0     C32183   5.359   6.153   1.546  0.1369  0.1682  0.6222
  980MOL0     C32184   5.308   6.283   1.517 -0.5473  0.5040  0.1019
  980MOL0     C32185   5.229   6.382   1.606 -0.5244 -0.0848 -0.2082
  980MOL0     C32186   5.081   6.361   1.624  0.7511 -0.1694  0.0110
  980MOL0     C32187   5.004   6.360   1.495  0.2183 -0.8423 -0.3871
  980MOL0     C32188   4.860   6.312   1.510 -0.8070  1.1954 -0.0108
  980MOL0     O32189   4.793   6.325   1.378  0.5646  0.2018 -0.3720
  980MOL0     C32190   4.669   6.269   1.363  0.5101  0.4218 -0.2085
  980MOL0     C32191   4.600   6.305   1.243 -0.2950  0.7834 -0.4121
  980MOL0     C32192   4.472   6.251   1.226  1.0000 -0.3241 -0.6079
  980MOL0     C32193   4.411   6.274   1.086  0.2686  0.1612 -0.5790
  980MOL0     C32194   4.394   6.178   1.319 -0.9555  0.3683  0.0926
  980MOL0     C32195   4.249   6.135   1.319 -0.3248  0.1326 -0.4089
  980MOL0     O32196   4.200   6.083   1.437  0.0951  0.4394  0.0376
  980MOL0     C32197   4.069   6.036   1.429  0.1141  0.5630 -0.3696
  980MOL0     C32198   3.955   6.115   1.410 -0.0714  0.1272 -0.8361
  980MOL0     C32199   3.826   6.046   1.417  0.2286 -0.0747 -1.3516
  980MOL0     C32200   3.808   5.911   1.424  0.1821 -0.2778  0.0360
  980MOL0     O32201   3.694   5.843   1.421  0.7226  0.1603 -0.2208
  980MOL0     C32202   3.568   5.916   1.427  0.1304  0.0287 -0.2697
  980MOL0     C32203   3.456   5.818   1.449  0.0138 -0.5756  0.0998
  980MOL0     C32204   3.315   5.892   1.432 -1.0252  0.7903 -0.4049
  980MOL0     C32205   3.196   5.812   1.484 -0.8661  0.0677 -0.6742
  980MOL0     C32206   3.065   5.885   1.450  0.0866 -0.1890  0.8513
  980MOL0     C32207   2.946   5.801   1.502 -0.2270  0.0695  0.4824
  980MOL0     C32208   2.807   5.875   1.514  0.6688  0.3104  0.3589
  980MOL0     C32209   2.687   5.780   1.545  0.2964  0.3359  0.1772
  980MOL0    Cl32210   2.682   5.745   1.720 -0.1224  0.3392 -0.3510
  980MOL0     C32211   3.927   5.835   1.438  0.3087 -0.5014  0.2721
  980MOL0     C32212   4.054   5.898   1.440 -0.2429 -0.3678  0.2418
  980MOL0     O32213   4.188   6.145   1.219 -0.1201 -0.2242  0.5019
  980MOL0     C32214   4.469   6.148   1.432  0.6579 -0.1653 -0.5635
  980MOL0     C32215   4.596   6.189   1.454  0.0887  0.6261  0.0477
  980MOL0     N32216   5.345   6.311   1.383 -0.2923 -0.1860  0.0484
  980MOL0     N32217   5.417   6.219   1.332  1.1737 -1.3861  0.3189
  980MOL0     C32218   6.603   6.298   1.841  0.6081  0.8136 -0.0825
  980MOL0     C32219   6.742   6.309   1.829  0.1762 -0.1570 -0.6958
  980MOL0     C32220   7.170   6.348   1.789 -0.3643 -0.1702 -0.1055
  980MOL0     C32221   7.224   6.337   1.660 -0.1670  0.3132  0.7604
  980MOL0     C32222   7.350   6.399   1.635  0.3324 -0.2775 -0.0778
  980MOL0     C32223   7.424   6.461   1.731 -0.4337 -0.2826  0.2669
  980MOL0     O32224   7.547   6.526   1.724  0.2749  0.5822  0.1624
  980MOL0     C32225   7.578   6.565   1.592  0.8949  0.1525 -0.2146
  980MOL0     C32226   7.680   6.673   1.595  0.5600 -0.7954  0.7686
  980MOL0     C32227   7.808   6.632   1.674  0.4300 -1.0288 -0.3230
  980MOL0     C32228   7.918   6.729   1.638 -0.0131 -0.1540  0.2101
  980MOL0     C32229   8.038   6.711   1.718  0.3072  0.4419  0.3990
  980MOL0     C32230   8.136   6.696   1.788  0.2485  0.0907  0.7085
  980MOL0     C32231   7.366   6.471   1.855 -0.2707 -0.9041  0.3628
  980MOL0     C32232   7.245   6.417   1.889  0.6972 -0.0489  0.1112
  980MOL0     H32233   6.787   6.168   1.523 -0.7079  0.7231 -0.7445
  980MOL0     H32234   6.553   6.142   1.553 -1.2763  1.3423 -0.1245
  980MOL0     H32235   6.329   6.225   1.545 -1.3429  0.3165  0.8366
  980MOL0     H32236   6.378   6.075   1.621 -1.4132 -0.4572  4.2000
  980MOL0     H32237   6.178   6.049   1.753 -2.0585 -1.2220 -1.8079
  980MOL0     H32238   6.147   6.224   1.735  0.1372  0.8371 -0.6107
  980MOL0     H32239   6.116   6.186   1.497 -3.1649  1.4210  0.7983
  980MOL0     H32240   6.148   6.012   1.523 -1.3489 -1.1572  1.8598
  980MOL0     H32241   5.925   6.027   1.677 -2.3017 -0.1556 -0.6795
  980MOL0     H32242   5.908   6.202   1.635 -1.1136  0.1513 -1.3792
  980MOL0     H32243   5.862   6.140   1.391  1.0807 -0.4396 -0.7532
  980MOL0     H32244   5.906   5.976   1.432  1.9586  0.7855  0.5545
  980MOL0     H32245   5.710   5.956   1.585 -0.2949 -0.0557 -1.1523
  980MOL0     H32246   5.668   6.129   1.567 -4.7756 -2.0455 -1.3046
  980MOL0     H32247   5.643   6.091   1.314  2.8954 -0.6271 -1.1256
  980MOL0     H32248   5.684   5.922   1.350  1.6698  1.4150  0.1328
  980MOL0     H32249   5.473   5.944   1.520  1.1373 -1.3505 -0.0589
  980MOL0     H32250   5.440   5.950   1.341 -1.0733  1.4289  1.0074
  980MOL0     H32251   5.353   6.097   1.639 -0.0104  1.6790  1.5488
  980MOL0     H32252   5.276   6.384   1.705 -0.0368  3.8448 -0.3653
  980MOL0     H32253   5.231   6.484   1.566 -0.7055 -0.3710 -0.9662
  980MOL0     H32254   5.045   6.439   1.693  1.7182  0.8117 -0.5666
  980MOL0     H32255   5.052   6.269   1.676  4.4723 -2.4078 -1.4562
  980MOL0     H32256   5.056   6.287   1.432 -1.2486 -1.4025 -1.0004
  980MOL0     H32257   5.006   6.455   1.440 -0.9237 -0.2450  0.5570
  980MOL0     H32258   4.803   6.374   1.581 -1.1877 -0.0231  0.7707
  980MOL0     H32259   4.868   6.214   1.558 -1.4598  1.4670  0.6784
  980MOL0     H32260   4.657   6.371   1.179 -1.9768  0.5422 -2.2446
  980MOL0     H32261   4.324   6.340   1.091  0.0399 -0.2146  1.3156
  980MOL0     H32262   4.480   6.328   1.020  1.5303  0.7489  1.1323
  980MOL0     H32263   4.371   6.190   1.029 -1.8805 -0.7006  1.9954
  980MOL0     H32264   3.974   6.222   1.408  0.8509 -0.0214 -0.6201
  980MOL0     H32265   3.732   6.100   1.408  0.6713  0.6628 -1.6309
  980MOL0     H32266   3.565   5.985   1.512  0.7653  0.1931 -0.3753
  980MOL0     H32267   3.560   5.967   1.330  2.4767  0.7968 -0.1371
  980MOL0     H32268   3.465   5.742   1.372  0.7303 -1.9232  1.4611
  980MOL0     H32269   3.473   5.766   1.544  1.0342 -0.9619 -0.2855
  980MOL0     H32270   3.311   5.898   1.323 -1.8190 -0.7087 -0.4735
  980MOL0     H32271   3.318   5.993   1.474  0.0416  0.0979  1.2545
  980MOL0     H32272   3.197   5.712   1.440 -3.4688 -0.6815  0.7343
  980MOL0     H32273   3.210   5.802   1.592 -1.0379 -1.9756 -0.7891
  980MOL0     H32274   3.060   5.894   1.341  1.3856 -3.4911  0.4123
  980MOL0     H32275   3.064   5.987   1.492  1.7884  0.5882 -0.8376
  980MOL0     H32276   2.934   5.717   1.433  1.8569  1.1218 -1.2946
  980MOL0     H32277   2.974   5.745   1.592 -0.9276  1.9285  1.9218
  980MOL0     H32278   2.781   5.919   1.417 -0.6585 -1.3883 -0.1116
  980MOL0     H32279   2.819   5.941   1.600  0.7495 -1.7976  2.0628
  980MOL0     H32280   2.699   5.688   1.487 -0.9394 -1.2787  2.3556
  980MOL0     H32281   2.589   5.821   1.516 -0.6053  0.7299  3.4533
  980MOL0     H32282   3.923   5.728   1.451 -1.7649 -0.6460 -1.0701
  980MOL0     H32283   4.139   5.831   1.447  0.7221  0.4609 -2.5126
  980MOL0     H32284   4.416   6.104   1.516  0.2160 -1.1572 -1.3461
  980MOL0     H32285   4.641   6.167   1.551  1.4530 -0.2342 -0.7419
  980MOL0     H32286   6.546   6.342   1.922 -0.3042 -0.1261 -0.1882
  980MOL0     H32287   6.791   6.363   1.910  1.0914  3.0299 -3.1622
  980MOL0     H32288   7.188   6.286   1.570 -0.1379 -0.3587  1.1219
  980MOL0     H32289   7.378   6.409   1.530 -1.0367 -0.4597 -0.4848
  980MOL0     H32290   7.611   6.479   1.533  2.7943  0.9540 -0.4020
  980MOL0     H32291   7.495   6.616   1.543 -0.8566  2.3114  4.4209
  980MOL0     H32292   7.636   6.766   1.634 -2.2830 -1.0903 -1.4163
  980MOL0     H32293   7.718   6.681   1.493 -1.7226 -0.1235 -0.0864
  980MOL0     H32294   7.842   6.531   1.651  4.2794 -0.1806  0.8528
  980MOL0     H32295   7.800   6.627   1.783  1.9600  1.0879 -0.0442
  980MOL0     H32296   7.885   6.830   1.663  0.9604  1.1517 -3.1696
  980MOL0     H32297   7.951   6.729   1.534 -1.2210  0.1429 -0.1908
  980MOL0     H32298   8.227   6.681   1.843  2.9166  3.4927 -2.2418
  980MOL0     H32299   7.430   6.522   1.926  3.1114 -1.9868 -1.7022
  980MOL0     H32300   7.211   6.443   1.989  1.2451 -1.1193  0.5882
  981MOL0     O32301   9.344   7.303   4.880 -0.3306 -0.1027 -0.4732
  981MOL0     C32302   9.324   7.423   4.868  0.5583  0.3844  0.0439
  981MOL0     O32303   9.205   7.484   4.838 -0.8132  0.1887 -0.0322
  981MOL0     C32304   9.090   7.428   4.791  0.1914  0.1089  0.0306
  981MOL0     C32305   9.052   7.294   4.824 -0.4011  0.2107  0.4250
  981MOL0     C32306   8.943   7.236   4.762  0.6109 -0.2782  0.5322
  981MOL0     C32307   8.878   7.314   4.661 -0.4902 -0.5163  0.9563
  981MOL0     O32308   8.767   7.269   4.595 -0.8598 -0.9843  0.0934
  981MOL0     C32309   8.753   7.129   4.570 -0.0027 -0.0568 -0.2026
  981MOL0     C32310   8.641   7.113   4.462 -0.2853 -0.3962  0.3192
  981MOL0     C32311   8.506   7.146   4.542  0.8279 -0.8357  0.6207
  981MOL0     C32312   8.380   7.141   4.451  0.4024 -0.1034  0.9053
  981MOL0     C32313   8.348   7.280   4.396  0.0513 -0.2027  0.0798
  981MOL0     C32314   8.282   7.293   4.260  0.1948 -0.0801  0.2309
  981MOL0     C32315   8.142   7.240   4.261 -0.1912 -0.8173  0.2327
  981MOL0     C32316   8.037   7.310   4.354  0.6984  0.7187  0.5905
  981MOL0     N32317   7.900   7.271   4.312 -0.5955  1.0133  0.5539
  981MOL0     C32318   7.840   7.312   4.200 -0.0268  0.0722  0.4247
  981MOL0     C32319   7.713   7.287   4.219  0.5467  0.0606  0.3588
  981MOL0     C32320   7.607   7.323   4.118  0.2735  0.9670 -0.2785
  981MOL0     C32321   7.540   7.459   4.140  0.1348  0.0776 -0.7123
  981MOL0     C32322   7.624   7.567   4.079 -0.2913 -0.0325 -0.0755
  981MOL0     C32323   7.567   7.700   4.087  1.1846 -0.8574 -0.2389
  981MOL0     O32324   7.447   7.710   4.005 -0.3057 -0.0939 -0.1510
  981MOL0     C32325   7.336   7.777   4.044 -0.1138  0.4110 -0.4379
  981MOL0     C32326   7.223   7.768   3.968 -0.1805  0.9485 -0.1499
  981MOL0     C32327   7.095   7.822   4.002  0.3027 -0.3469 -0.7735
  981MOL0     C32328   6.976   7.833   3.909 -0.8625  0.3820  0.1309
  981MOL0     C32329   7.092   7.888   4.127  0.1130  0.0211 -1.0030
  981MOL0     C32330   6.967   7.952   4.187  0.7095 -0.0476  0.3787
  981MOL0     O32331   6.955   7.938   4.327 -0.0966 -0.4184 -0.1728
  981MOL0     C32332   6.828   7.971   4.379  0.0670  0.4619 -0.5953
  981MOL0     C32333   6.774   7.886   4.479  0.0334 -0.1500  0.9751
  981MOL0     C32334   6.648   7.915   4.529  0.1435 -0.0634  0.5746
  981MOL0     C32335   6.580   8.036   4.507  0.1587  0.1073 -0.3066
  981MOL0     O32336   6.461   8.060   4.572  0.7322  1.2676  0.0477
  981MOL0     C32337   6.361   8.129   4.504  0.5512 -0.6372 -0.5189
  981MOL0     C32338   6.250   8.143   4.607 -0.2965  0.8209 -0.2556
  981MOL0     C32339   6.156   8.259   4.582  0.0095  0.3436 -0.1940
  981MOL0     C32340   6.042   8.264   4.677 -0.0575  0.1342 -0.1892
  981MOL0     C32341   5.933   8.371   4.629 -0.0195  0.4578 -0.3163
  981MOL0     C32342   5.833   8.309   4.526  0.7006 -0.7988 -0.3348
  981MOL0     C32343   5.728   8.413   4.500 -0.0194  0.4508  0.2638
  981MOL0     C32344   5.620   8.358   4.404  0.1091 -0.1480  0.4608
  981MOL0    Cl32345   5.484   8.477   4.372  0.4197  0.2414 -0.0838
  981MOL0     C32346   6.640   8.132   4.421 -0.2853 -0.7931 -0.1407
  981MOL0     C32347   6.759   8.093   4.355  0.2911 -0.4230  0.3581
  981MOL0     O32348   6.887   8.017   4.111 -0.7970  0.0667 -0.4165
  981MOL0     C32349   7.207   7.898   4.211  0.1436 -0.0552  0.6978
  981MOL0     C32350   7.328   7.847   4.167 -0.4623  0.1749  0.4361
  981MOL0     N32351   7.693   7.229   4.344  0.4861  0.0740 -0.3707
  981MOL0     N32352   7.806   7.221   4.398  0.0775  0.0351 -0.3622
  981MOL0     C32353   8.907   7.449   4.644 -0.2262  0.3552 -0.3633
  981MOL0     C32354   9.017   7.501   4.700 -0.7834  0.2874  0.3728
  981MOL0     C32355   9.433   7.516   4.880 -0.4355  0.2035  0.0230
  981MOL0     C32356   9.420   7.658   4.864  0.0534  0.0025 -0.3018
  981MOL0     C32357   9.532   7.742   4.897  0.2158  0.4844  0.2417
  981MOL0     C32358   9.653   7.680   4.930  0.4265  0.4769  0.0959
  981MOL0     O32359   9.764   7.764   4.949 -0.1394  0.8028 -1.0844
  981MOL0     C32360   9.883   7.714   4.885 -0.0009  0.2825  0.4706
  981MOL0     C32361   9.918   7.820   4.783  0.2244 -0.2315 -1.0518
  981MOL0     C32362   9.819   7.827   4.664 -0.3508  0.5472  0.1342
  981MOL0     C32363   9.801   7.964   4.592 -0.5398  0.6473  1.0781
  981MOL0     C32364   9.662   7.975   4.561 -0.8185 -1.2714  0.2244
  981MOL0     C32365   9.546   7.981   4.522 -0.6583 -0.4178 -0.3534
  981MOL0     C32366   9.663   7.538   4.937  0.2703  0.2841  0.8037
  981MOL0     C32367   9.558   7.461   4.921 -0.6847  1.4008  0.2287
  981MOL0     H32368   9.113   7.249   4.902  1.0760  0.5177 -0.5294
  981MOL0     H32369   8.918   7.131   4.766 -0.5668 -0.0724 -0.7898
  981MOL0     H32370   8.840   7.076   4.528 -0.7307 -1.9762  0.6033
  981MOL0     H32371   8.727   7.082   4.665  1.0636 -0.0208  0.1241
  981MOL0     H32372   8.652   7.174   4.373 -1.4490  0.2598  0.5990
  981MOL0     H32373   8.638   7.012   4.419  1.5501 -0.0227 -0.7816
  981MOL0     H32374   8.493   7.069   4.618  1.3315 -1.4523  0.0948
  981MOL0     H32375   8.513   7.239   4.600 -1.4988  0.2743 -0.7419
  981MOL0     H32376   8.395   7.065   4.373  1.8598  0.2683  0.7842
  981MOL0     H32377   8.292   7.110   4.508 -1.9081  2.7109 -0.8649
  981MOL0     H32378   8.301   7.343   4.473 -0.0429  1.9600 -1.6410
  981MOL0     H32379   8.445   7.331   4.388  0.2110 -0.5822 -0.4912
  981MOL0     H32380   8.279   7.398   4.232  0.0240  0.3662  1.8391
  981MOL0     H32381   8.338   7.247   4.178 -0.5983 -2.6463  1.0323
  981MOL0     H32382   8.111   7.268   4.160  1.1735  0.9991  0.2604
  981MOL0     H32383   8.130   7.132   4.270 -1.3570 -0.6710  0.5311
  981MOL0     H32384   8.050   7.419   4.355 -2.6154  1.2202  0.9433
  981MOL0     H32385   8.058   7.286   4.459  2.4768 -1.5407 -0.2049
  981MOL0     H32386   7.892   7.349   4.112  0.1540 -0.4399  0.3124
  981MOL0     H32387   7.649   7.317   4.016  1.0689 -0.7388  0.1084
  981MOL0     H32388   7.523   7.253   4.128  0.5825  0.5478 -0.5401
  981MOL0     H32389   7.535   7.467   4.249  1.4793  1.0235 -0.6983
  981MOL0     H32390   7.438   7.451   4.102  0.7213  0.6143 -2.4837
  981MOL0     H32391   7.629   7.550   3.971 -3.0320  2.4267 -0.7325
  981MOL0     H32392   7.725   7.560   4.120  0.0619 -1.0725 -1.0730
  981MOL0     H32393   7.636   7.773   4.043  0.4459  0.3554  0.5791
  981MOL0     H32394   7.556   7.722   4.193  0.7084 -1.3995 -0.1722
  981MOL0     H32395   7.231   7.719   3.871 -1.6621 -2.2511  1.1993
  981MOL0     H32396   6.995   7.753   3.838 -0.5203 -0.2673  0.9433
  981MOL0     H32397   6.879   7.825   3.959 -1.2080  1.4272 -0.3285
  981MOL0     H32398   6.982   7.933   3.866 -0.0204 -0.3010 -1.4009
  981MOL0     H32399   6.815   7.788   4.501  0.8996 -0.2146 -0.7829
  981MOL0     H32400   6.595   7.855   4.602 -1.1539  0.9220  0.4675
  981MOL0     H32401   6.389   8.231   4.475 -4.3205  1.4460  1.0763
  981MOL0     H32402   6.316   8.075   4.420  0.3748 -0.1107 -0.7704
  981MOL0     H32403   6.193   8.050   4.611 -2.3123  1.9722 -0.5159
  981MOL0     H32404   6.291   8.158   4.707 -3.4771  3.5579  0.8368
  981MOL0     H32405   6.129   8.240   4.477 -2.5366  0.9151  0.2866
  981MOL0     H32406   6.216   8.350   4.594 -0.6496  0.7553  0.0422
  981MOL0     H32407   5.999   8.164   4.679 -0.1866  0.1959  1.7004
  981MOL0     H32408   6.082   8.281   4.777 -2.1236 -0.4906  0.7891
  981MOL0     H32409   5.981   8.463   4.594 -0.4600  2.1773  3.1628
  981MOL0     H32410   5.887   8.408   4.721  1.6799  0.3677  0.6032
  981MOL0     H32411   5.870   8.278   4.427  4.2865 -1.8893  1.1942
  981MOL0     H32412   5.796   8.218   4.572 -0.6483 -0.6478 -1.0947
  981MOL0     H32413   5.770   8.508   4.464 -1.0826  0.0781 -2.1589
  981MOL0     H32414   5.682   8.444   4.595  1.6770  0.8768  0.9995
  981MOL0     H32415   5.580   8.280   4.468 -2.4852 -0.9688 -1.9283
  981MOL0     H32416   5.652   8.320   4.306  0.4764  0.4192  0.3510
  981MOL0     H32417   6.598   8.231   4.407 -0.5202 -0.3774  2.7480
  981MOL0     H32418   6.813   8.168   4.298 -3.0090  1.4215 -0.5834
  981MOL0     H32419   7.206   7.950   4.306  0.6755 -0.4723  0.9369
  981MOL0     H32420   7.413   7.852   4.234 -1.0259  0.6446  1.1301
  981MOL0     H32421   8.838   7.513   4.588 -1.2315  0.2007  0.6696
  981MOL0     H32422   9.020   7.609   4.685 -2.5608  0.4289  0.8310
  981MOL0     H32423   9.334   7.714   4.829  0.2464 -0.4709 -1.5872
  981MOL0     H32424   9.531   7.850   4.897  2.0791  0.5379 -0.5317
  981MOL0     H32425   9.968   7.704   4.954 -0.6528 -1.6965  1.0574
  981MOL0     H32426   9.869   7.615   4.842  0.4458 -0.7579  2.5840
  981MOL0     H32427  10.023   7.799   4.756  0.1899 -1.4206 -0.3173
  981MOL0     H32428   9.916   7.919   4.830 -1.6833 -1.4310  1.6333
  981MOL0     H32429   9.721   7.786   4.693 -2.4308  3.3640 -2.2310
  981MOL0     H32430   9.853   7.749   4.596 -3.0816  0.4115 -1.2417
  981MOL0     H32431   9.862   7.975   4.503 -1.9297  1.3356  0.1763
  981MOL0     H32432   9.832   8.043   4.660 -0.2135  1.0267  0.4910
  981MOL0     H32433   9.449   7.984   4.476 -1.0089 -0.5734  0.3571
  981MOL0     H32434   9.749   7.476   4.961  1.3183  2.2183  2.2929
  981MOL0     H32435   9.577   7.354   4.928  1.5412  1.6615 -1.0157
  982MOL0     O32436   9.648   5.189   7.885 -0.4587 -0.0816 -0.0233
  982MOL0     C32437   9.701   5.253   7.971 -0.4615  0.4051  0.1752
  982MOL0     O32438   9.642   5.346   8.059 -0.8370 -0.4076 -0.0411
  982MOL0     C32439   9.506   5.323   8.085  0.3270  1.1893 -0.1931
  982MOL0     C32440   9.412   5.334   7.979  0.1614  0.2480 -0.1479
  982MOL0     C32441   9.276   5.331   8.014  1.2224  0.1791 -0.6888
  982MOL0     C32442   9.229   5.315   8.146 -0.1151  0.0257  0.3595
  982MOL0     O32443   9.095   5.320   8.182 -0.3403  0.1404 -0.5674
  982MOL0     C32444   9.000   5.363   8.087  0.2653  0.8534 -0.2223
  982MOL0     C32445   8.867   5.411   8.168  0.1149  0.7323 -1.3217
  982MOL0     C32446   8.787   5.294   8.214  0.7061 -0.1446 -0.3509
  982MOL0     C32447   8.708   5.330   8.348 -0.1955  0.4197  0.3219
  982MOL0     C32448   8.660   5.201   8.413  0.5666 -0.3782  0.0783
  982MOL0     C32449   8.588   5.239   8.550 -0.0242 -0.2059  0.7980
  982MOL0     C32450   8.599   5.126   8.654  0.9285  0.9970  0.2165
  982MOL0     C32451   8.495   5.154   8.769 -0.3811 -0.5974  0.2537
  982MOL0     N32452   8.478   5.040   8.856 -0.1514 -0.8991  0.2907
  982MOL0     C32453   8.572   5.000   8.953  0.6580 -0.1451  1.2188
  982MOL0     C32454   8.513   4.903   9.023  0.3086  0.0644 -0.6136
  982MOL0     C32455   8.570   4.818   9.125 -0.0235  0.4387  0.3103
  982MOL0     C32456   8.702   4.866   9.197 -0.4089  0.3070  0.3423
  982MOL0     C32457   8.829   4.817   9.124  0.2328  0.3296  0.1668
  982MOL0     C32458   8.957   4.900   9.163 -0.4372  1.3814  0.5417
  982MOL0     O32459   8.942   5.045   9.137 -0.4728  0.5056 -0.3899
  982MOL0     C32460   9.057   5.121   9.154 -0.3229  1.3533  0.8119
  982MOL0     C32461   9.098   5.202   9.055 -0.0163 -0.7404 -0.6345
  982MOL0     C32462   9.207   5.295   9.066 -0.1007 -0.5406  0.0970
  982MOL0     C32463   9.235   5.380   8.945 -0.5976  0.0491 -0.3529
  982MOL0     C32464   9.279   5.306   9.194 -0.6871 -0.4294  0.4823
  982MOL0     C32465   9.393   5.384   9.215 -0.4318 -0.0482 -0.2077
  982MOL0     O32466   9.416   5.414   9.350 -0.5133  0.2951  0.3333
  982MOL0     C32467   9.546   5.399   9.404  0.7074  0.9081  0.8834
  982MOL0     C32468   9.602   5.280   9.388  0.2346 -1.0777  0.0836
  982MOL0     C32469   9.716   5.251   9.450  0.9216  1.1544 -0.0316
  982MOL0     C32470   9.773   5.336   9.550 -0.4802 -0.4798 -0.9287
  982MOL0     O32471   9.889   5.311   9.619  0.4702 -0.2930  0.1613
  982MOL0     C32472   9.973   5.195   9.578  0.6820  0.3877  0.2439
  982MOL0     C32473  10.084   5.170   9.680  0.6113 -0.4059 -0.2175
  982MOL0     C32474  10.165   5.041   9.670 -0.8862 -0.0920  0.8157
  982MOL0     C32475  10.277   5.017   9.775  0.2286  1.0963  0.7908
  982MOL0     C32476  10.383   4.921   9.729  0.7334 -0.0586  0.4843
  982MOL0     C32477  10.476   4.887   9.841 -0.0272  0.4754  0.3482
  982MOL0     C32478  10.548   4.752   9.819  0.3332  0.1963  0.2318
  982MOL0     C32479  10.458   4.620   9.817  0.6731 -0.9846 -0.4076
  982MOL0    Cl32480  10.578   4.486   9.785  0.2553 -0.2511  0.2298
  982MOL0     C32481   9.703   5.459   9.573  0.1996  0.2685 -0.7479
  982MOL0     C32482   9.585   5.485   9.508 -0.5276 -0.0985  0.1694
  982MOL0     O32483   9.464   5.423   9.123 -0.5329 -0.6673  0.4877
  982MOL0     C32484   9.237   5.216   9.297 -0.8019 -0.1609 -0.5916
  982MOL0     C32485   9.132   5.126   9.270 -1.3867 -0.2286  0.3570
  982MOL0     N32486   8.382   4.896   8.984 -0.2925  1.0978  0.4082
  982MOL0     N32487   8.362   4.980   8.890 -0.5667  0.3406  0.4497
  982MOL0     C32488   9.325   5.311   8.246  0.3325  0.6645 -0.2855
  982MOL0     C32489   9.464   5.320   8.218  1.1093  0.6697 -0.0188
  982MOL0     C32490   9.850   5.247   7.987  0.5393  0.5136 -0.1460
  982MOL0     C32491   9.916   5.320   8.085 -0.0139 -0.9293  0.1103
  982MOL0     C32492  10.056   5.311   8.087 -0.7964 -0.2555 -0.6017
  982MOL0     C32493  10.140   5.238   7.997 -0.2820 -0.8319  0.3201
  982MOL0     O32494  10.276   5.242   8.005  1.0614 -0.3590  0.4382
  982MOL0     C32495  10.362   5.175   7.902 -0.0814 -0.4207 -0.1372
  982MOL0     C32496  10.359   5.228   7.751 -0.2800 -0.7770  0.2583
  982MOL0     C32497  10.356   5.385   7.739 -0.0470  0.0166 -0.1548
  982MOL0     C32498  10.463   5.459   7.820  0.7715 -0.3378  0.3039
  982MOL0     C32499  10.436   5.606   7.801  0.1421 -0.1527 -0.3849
  982MOL0     C32500  10.439   5.723   7.765 -0.1334  0.5343  0.4957
  982MOL0     C32501  10.067   5.163   7.906 -0.6443  0.1756  0.4543
  982MOL0     C32502   9.927   5.158   7.908 -0.7273 -0.0632 -0.0196
  982MOL0     H32503   9.446   5.363   7.880  0.6866  0.1508 -0.0030
  982MOL0     H32504   9.205   5.356   7.935 -3.6693 -0.8442  2.8956
  982MOL0     H32505   9.037   5.451   8.034  0.6604  0.7354 -0.1486
  982MOL0     H32506   8.984   5.277   8.021 -0.0408 -0.1417  1.0999
  982MOL0     H32507   8.880   5.465   8.262  0.4611 -2.6497  0.7332
  982MOL0     H32508   8.811   5.476   8.100  0.3120  1.3362 -0.9153
  982MOL0     H32509   8.713   5.270   8.139 -0.7691 -2.2728  1.6672
  982MOL0     H32510   8.855   5.211   8.237  3.2613  1.8956  0.0264
  982MOL0     H32511   8.771   5.385   8.418 -0.0465  0.1632  0.3913
  982MOL0     H32512   8.617   5.387   8.326  0.0061 -0.0057 -1.8624
  982MOL0     H32513   8.584   5.155   8.349 -0.9589 -0.2633  1.7389
  982MOL0     H32514   8.746   5.135   8.427  0.9119  0.0022 -0.2174
  982MOL0     H32515   8.627   5.333   8.590  0.9002 -0.2150 -0.0338
  982MOL0     H32516   8.483   5.262   8.527  0.0444  0.3626  1.0388
  982MOL0     H32517   8.570   5.033   8.604  0.1442  2.2733 -1.8394
  982MOL0     H32518   8.705   5.128   8.683  0.8858  2.3504  0.3205
  982MOL0     H32519   8.395   5.179   8.731 -0.0816  1.3550  0.6156
  982MOL0     H32520   8.521   5.243   8.828  0.7350 -1.3349  0.9237
  982MOL0     H32521   8.672   5.042   8.956 -0.1719  2.4752 -1.8586
  982MOL0     H32522   8.493   4.793   9.198 -0.0949  2.7529  1.1028
  982MOL0     H32523   8.596   4.725   9.071 -0.4272 -0.4602  1.6227
  982MOL0     H32524   8.703   4.832   9.301 -0.4798 -0.3458  0.1375
  982MOL0     H32525   8.697   4.975   9.199 -4.0249  0.3969 -2.1257
  982MOL0     H32526   8.815   4.847   9.019 -0.1117  2.8332  0.8617
  982MOL0     H32527   8.847   4.710   9.135 -0.4459  0.3043  1.0451
  982MOL0     H32528   9.047   4.864   9.112 -0.0913  0.5631  1.6984
  982MOL0     H32529   8.972   4.882   9.270  2.7100  0.6507  0.0640
  982MOL0     H32530   9.033   5.213   8.969  1.3816 -1.4322 -1.8320
  982MOL0     H32531   9.151   5.381   8.876 -0.5113 -4.6441 -0.8471
  982MOL0     H32532   9.262   5.481   8.977  0.9751 -0.4473 -0.0224
  982MOL0     H32533   9.321   5.336   8.893 -0.5388  0.0691 -0.2750
  982MOL0     H32534   9.554   5.213   9.317  0.6236 -1.4197  0.1421
  982MOL0     H32535   9.751   5.150   9.428 -0.8955  0.5754 -0.4271
  982MOL0     H32536   9.916   5.101   9.581  0.0785  0.7374 -0.0805
  982MOL0     H32537  10.014   5.217   9.479  0.4975  0.2254  0.1315
  982MOL0     H32538  10.147   5.258   9.665  0.1366 -0.0522 -0.1652
  982MOL0     H32539  10.036   5.177   9.778  2.1321  0.6163  0.4927
  982MOL0     H32540  10.217   5.044   9.574 -3.4034 -1.7872 -0.7076
  982MOL0     H32541  10.096   4.957   9.668 -0.1396 -0.7819  2.1869
  982MOL0     H32542  10.321   5.116   9.791  1.6694  0.9467 -1.7528
  982MOL0     H32543  10.227   4.970   9.860  0.3836 -1.4369 -0.4403
  982MOL0     H32544  10.438   4.969   9.648 -0.0442  2.0377  1.1248
  982MOL0     H32545  10.335   4.835   9.681  2.5679 -0.5472 -0.5382
  982MOL0     H32546  10.551   4.964   9.860  0.2980 -0.2463  2.2702
  982MOL0     H32547  10.413   4.875   9.930  0.1692 -1.4262  0.2791
  982MOL0     H32548  10.627   4.727   9.890  0.1901 -3.3827 -0.6595
  982MOL0     H32549  10.589   4.760   9.718 -1.1368  0.8924 -0.3420
  982MOL0     H32550  10.374   4.619   9.747 -0.0404  0.6394  0.3740
  982MOL0     H32551  10.412   4.608   9.915  0.2087 -0.9303 -0.6183
  982MOL0     H32552   9.739   5.531   9.645 -1.5162 -0.0055  0.4499
  982MOL0     H32553   9.523   5.571   9.528 -0.3889 -0.6631  3.6539
  982MOL0     H32554   9.286   5.216   9.394 -1.6346  2.2426 -0.1055
  982MOL0     H32555   9.095   5.067   9.353  4.2549 -1.7305  2.2214
  982MOL0     H32556   9.290   5.298   8.348 -2.1716  2.1117 -0.8837
  982MOL0     H32557   9.538   5.322   8.299 -0.8421  2.4262  1.8513
  982MOL0     H32558   9.863   5.389   8.149  0.4259 -0.4318 -0.0548
  982MOL0     H32559  10.109   5.379   8.152 -2.6456 -2.5487  3.6807
  982MOL0     H32560  10.462   5.190   7.943 -0.4484  1.0679  0.2488
  982MOL0     H32561  10.347   5.066   7.903  2.3414 -0.8102 -1.1878
  982MOL0     H32562  10.282   5.181   7.690 -0.3096  2.9229 -2.9115
  982MOL0     H32563  10.456   5.189   7.717  0.3260  1.1553 -0.3134
  982MOL0     H32564  10.256   5.414   7.772 -0.6519 -1.4611 -0.6011
  982MOL0     H32565  10.384   5.419   7.639  1.3657 -2.1322 -0.5688
  982MOL0     H32566  10.553   5.424   7.768 -2.0876 -1.2433 -4.7489
  982MOL0     H32567  10.472   5.442   7.927  0.8471  3.6758  1.1168
  982MOL0     H32568  10.423   5.822   7.725 -0.7588  0.4538  0.5256
  982MOL0     H32569  10.125   5.100   7.840  2.2498  2.3016  0.7736
  982MOL0     H32570   9.883   5.090   7.836  0.6427 -2.9213  1.7000
  983MOL0     O32571   2.237   8.187   3.630 -0.8696  0.2469 -0.1371
  983MOL0     C32572   2.297   8.222   3.732  0.1993  0.3395  0.9515
  983MOL0     O32573   2.247   8.311   3.823 -0.1632 -0.0083  0.4165
  983MOL0     C32574   2.113   8.350   3.808 -0.6466  0.1809  0.2149
  983MOL0     C32575   2.088   8.464   3.736  0.3045  0.0492 -0.1637
  983MOL0     C32576   1.957   8.492   3.709  0.5953 -0.2273 -0.8256
  983MOL0     C32577   1.846   8.419   3.759 -0.7965 -1.7125  0.6814
  983MOL0     O32578   1.729   8.474   3.722  0.3247  0.3047  0.1948
  983MOL0     C32579   1.613   8.390   3.731  0.2761  0.2707 -0.5600
  983MOL0     C32580   1.537   8.410   3.867  0.6368 -0.4850 -0.8159
  983MOL0     C32581   1.387   8.361   3.858  0.0014  0.0181 -0.2712
  983MOL0     C32582   1.380   8.206   3.874  0.2605 -1.0598  0.7141
  983MOL0     C32583   1.245   8.150   3.829 -0.1014 -0.1410  0.3404
  983MOL0     C32584   1.132   8.218   3.912  0.7675  0.3409  0.4896
  983MOL0     C32585   1.015   8.131   3.917  0.5733 -0.4876 -0.3998
  983MOL0     C32586   0.968   8.077   3.785  0.3106 -0.1204  0.4788
  983MOL0     N32587   0.828   8.032   3.795 -0.5729  0.2962 -0.6171
  983MOL0     C32588   0.754   8.031   3.683 -0.4905 -0.1927 -0.9551
  983MOL0     C32589   0.630   7.994   3.731  0.0006 -0.0140 -0.2526
  983MOL0     C32590   0.502   7.984   3.657 -0.4842  0.5403  0.0726
  983MOL0     C32591   0.370   8.003   3.736  0.1904 -0.5973 -0.4045
  983MOL0     C32592   0.253   8.000   3.635 -0.2686  1.3148  1.2422
  983MOL0     C32593   0.120   7.999   3.693  0.3706 -0.2199 -0.3723
  983MOL0     O32594   0.016   7.979   3.594  0.2695  0.6423 -0.2931
  983MOL0     C32595  -0.114   7.956   3.627  0.1136 -0.5185  0.3841
  983MOL0     C32596  -0.167   7.934   3.750 -0.5594 -0.3095 -0.3192
  983MOL0     C32597  -0.309   7.930   3.779  0.1547  0.3304 -0.1148
  983MOL0     C32598  -0.350   7.932   3.926 -0.5885  0.0015  0.4426
  983MOL0     C32599  -0.401   7.933   3.674  0.4227 -0.3566 -0.0650
  983MOL0     C32600  -0.546   7.914   3.683  0.2382 -0.3045 -0.3651
  983MOL0     O32601  -0.612   7.893   3.573  0.2051  0.5412  0.2925
  983MOL0     C32602  -0.740   7.928   3.551  0.1066 -0.0695  0.7691
  983MOL0     C32603  -0.818   7.846   3.468  0.1922  1.1279 -1.4843
  983MOL0     C32604  -0.961   7.873   3.452 -0.9435 -0.8811 -0.6396
  983MOL0     C32605  -1.019   7.990   3.511 -0.6771  0.5478 -0.0433
  983MOL0     O32606  -1.145   8.037   3.492 -0.1304 -0.7356 -0.0528
  983MOL0     C32607  -1.252   7.965   3.428  0.2287  1.0175 -0.3012
  983MOL0     C32608  -1.380   8.011   3.470  0.8415 -0.0575  0.1227
  983MOL0     C32609  -1.496   7.912   3.427 -0.2415 -1.6694  0.1066
  983MOL0     C32610  -1.627   7.986   3.451 -0.0596 -0.6759  0.0257
  983MOL0     C32611  -1.736   7.918   3.367 -0.2136  0.3795  0.5541
  983MOL0     C32612  -1.861   8.001   3.361  0.2621 -0.3229  0.4989
  983MOL0     C32613  -1.948   7.929   3.257 -0.0039 -0.2354  0.8410
  983MOL0     C32614  -2.085   7.989   3.245 -0.8738  0.0643 -0.7718
  983MOL0    Cl32615  -2.140   7.901   3.096  0.0862 -0.3282  0.1728
  983MOL0     C32616  -0.938   8.065   3.591  0.1811  0.1967 -0.0543
  983MOL0     C32617  -0.807   8.040   3.609 -0.8551 -0.3730 -0.6722
  983MOL0     O32618  -0.599   7.929   3.788  0.0346  0.4817 -0.1355
  983MOL0     C32619  -0.344   7.948   3.544  0.8679 -0.5947  0.6116
  983MOL0     C32620  -0.206   7.967   3.523 -0.1885 -0.3460  0.4014
  983MOL0     N32621   0.640   7.970   3.868 -0.2661 -0.4788  0.6699
  983MOL0     N32622   0.762   7.977   3.899 -0.5699 -0.7217  0.1608
  983MOL0     C32623   1.884   8.317   3.844 -0.2142  0.9354 -0.4041
  983MOL0     C32624   2.007   8.274   3.860 -0.1935 -0.2923  0.2761
  983MOL0     C32625   2.441   8.187   3.748  0.4196 -0.1049  0.1207
  983MOL0     C32626   2.506   8.113   3.649 -0.3363 -0.1874  0.3362
  983MOL0     C32627   2.640   8.084   3.654 -0.4222 -1.0804 -0.3051
  983MOL0     C32628   2.705   8.108   3.771 -0.5548  0.3661  0.3370
  983MOL0     O32629   2.835   8.051   3.769  0.3481 -0.0492 -0.1002
  983MOL0     C32630   2.919   8.077   3.882 -0.0213 -0.5249 -0.0727
  983MOL0     C32631   3.029   7.977   3.859 -0.3959  0.3969  0.0718
  983MOL0     C32632   3.139   7.952   3.971  0.4861 -0.1419  0.0304
  983MOL0     C32633   3.101   7.890   4.106 -0.5348 -1.0089  0.3022
  983MOL0     C32634   3.047   7.760   4.076  0.4459  0.8213  0.0737
  983MOL0     C32635   2.981   7.662   4.039  0.6299  0.0321  0.1726
  983MOL0     C32636   2.640   8.182   3.877 -0.3073 -0.4255 -0.2495
  983MOL0     C32637   2.514   8.227   3.860  0.2925  0.1421  0.2737
  983MOL0     H32638   2.167   8.531   3.701 -0.3345  0.1091 -1.5511
  983MOL0     H32639   1.926   8.575   3.646 -4.0425 -0.4122  0.8213
  983MOL0     H32640   1.547   8.404   3.645  1.0290  2.1046 -0.8890
  983MOL0     H32641   1.655   8.289   3.719  0.2787  0.3141 -0.9277
  983MOL0     H32642   1.583   8.366   3.956  1.9580  0.8647 -0.7930
  983MOL0     H32643   1.534   8.519   3.879 -2.5916 -0.3739 -1.8244
  983MOL0     H32644   1.320   8.404   3.934  2.9203 -0.2972  2.6880
  983MOL0     H32645   1.351   8.396   3.761 -1.6627  1.4954  0.8129
  983MOL0     H32646   1.458   8.159   3.813  2.0373  0.8450  1.3784
  983MOL0     H32647   1.405   8.173   3.976  0.6583  0.2473  1.0558
  983MOL0     H32648   1.232   8.167   3.722  0.4410 -2.4439 -0.1622
  983MOL0     H32649   1.239   8.043   3.851 -0.8156 -0.7948 -2.5840
  983MOL0     H32650   1.173   8.233   4.013  1.8725  0.1236  0.0929
  983MOL0     H32651   1.116   8.315   3.864  1.5121  0.6735  0.8936
  983MOL0     H32652   1.048   8.050   3.982  2.0111  2.4057  2.8290
  983MOL0     H32653   0.937   8.184   3.972 -0.8213 -0.5753 -2.1885
  983MOL0     H32654   1.028   7.993   3.747 -3.6431 -2.0448 -2.1682
  983MOL0     H32655   0.970   8.163   3.717  3.6354 -0.3814  0.0935
  983MOL0     H32656   0.769   8.074   3.585  0.1788 -0.7978 -1.1203
  983MOL0     H32657   0.517   8.059   3.579  0.1093  1.0594  0.6759
  983MOL0     H32658   0.505   7.886   3.608  4.0040  1.1145 -1.3160
  983MOL0     H32659   0.363   8.105   3.776 -0.9327 -0.7490 -0.1871
  983MOL0     H32660   0.362   7.937   3.822  2.2896  2.2356  2.1698
  983MOL0     H32661   0.261   7.912   3.570  0.4316  1.8609  0.5599
  983MOL0     H32662   0.269   8.083   3.565  1.8581  0.3309  0.4595
  983MOL0     H32663   0.095   8.094   3.740 -4.0614 -0.6937 -1.2703
  983MOL0     H32664   0.124   7.929   3.776  0.6822 -0.5778 -0.6877
  983MOL0     H32665  -0.101   7.935   3.837 -1.9213  1.1455  0.7364
  983MOL0     H32666  -0.271   7.904   3.997 -2.0486  0.2349  2.2258
  983MOL0     H32667  -0.385   8.031   3.956 -2.9774 -0.5237 -0.3926
  983MOL0     H32668  -0.431   7.862   3.950 -1.3448  0.7761  0.1858
  983MOL0     H32669  -0.776   7.758   3.419 -0.0984 -0.8000  1.4670
  983MOL0     H32670  -1.024   7.814   3.387 -2.5198  0.7778 -0.6965
  983MOL0     H32671  -1.246   7.947   3.320 -0.1062 -1.3996  0.0151
  983MOL0     H32672  -1.250   7.860   3.459 -0.5300  1.0614 -0.0876
  983MOL0     H32673  -1.373   8.021   3.578  0.6011 -0.3307  0.1632
  983MOL0     H32674  -1.397   8.113   3.433  1.3122  0.5149  1.4406
  983MOL0     H32675  -1.481   7.828   3.495  1.5780 -0.5776  1.1229
  983MOL0     H32676  -1.485   7.882   3.322 -0.6176  1.1250 -0.8114
  983MOL0     H32677  -1.666   7.986   3.553 -2.0188  1.6007 -0.6154
  983MOL0     H32678  -1.605   8.088   3.419  1.5537  0.2654  3.6249
  983MOL0     H32679  -1.755   7.816   3.404  1.9146 -0.6898 -1.0696
  983MOL0     H32680  -1.695   7.902   3.267  0.3199  1.2380  0.6255
  983MOL0     H32681  -1.916   8.017   3.454  0.9403 -1.6469  1.1531
  983MOL0     H32682  -1.835   8.100   3.322  0.3504 -1.4232 -2.5337
  983MOL0     H32683  -1.953   7.823   3.283  0.0153 -0.4248  0.0906
  983MOL0     H32684  -1.891   7.938   3.164  2.2947 -2.2253  1.9614
  983MOL0     H32685  -2.082   8.097   3.224 -1.3403  0.2541  0.0930
  983MOL0     H32686  -2.147   7.963   3.331 -0.3127 -0.4083 -0.5030
  983MOL0     H32687  -0.979   8.158   3.630  1.3756  1.5078 -1.7577
  983MOL0     H32688  -0.752   8.115   3.664 -1.4010 -1.1389  0.9795
  983MOL0     H32689  -0.411   7.960   3.460  1.8500 -1.4371 -0.3250
  983MOL0     H32690  -0.174   8.003   3.426  0.2934 -2.4965 -0.2873
  983MOL0     H32691   1.805   8.262   3.895 -0.9513  0.8500 -1.6021
  983MOL0     H32692   2.040   8.188   3.918  2.1773  0.2829 -0.1012
  983MOL0     H32693   2.459   8.078   3.557  0.5751  0.2044 -0.2943
  983MOL0     H32694   2.684   8.025   3.574  1.8564  1.5186 -1.1465
  983MOL0     H32695   2.971   8.173   3.874  0.7830 -1.0389 -1.5028
  983MOL0     H32696   2.873   8.072   3.981  1.7814 -1.4101  0.7741
  983MOL0     H32697   3.075   8.017   3.768  0.4666  0.7168  0.6302
  983MOL0     H32698   2.985   7.880   3.833  0.0080  0.1876  0.1521
  983MOL0     H32699   3.182   8.050   3.993 -2.9090  1.6858 -0.7279
  983MOL0     H32700   3.209   7.884   3.922  1.5973  0.9279  0.0914
  983MOL0     H32701   3.029   7.958   4.152  2.0410  2.7630 -0.7950
  983MOL0     H32702   3.196   7.880   4.159  0.9445  1.2714 -1.7300
  983MOL0     H32703   2.919   7.581   4.007  0.5778  0.0423  0.2466
  983MOL0     H32704   2.700   8.194   3.967  0.5485  0.4687 -0.9158
  983MOL0     H32705   2.466   8.282   3.941 -2.7692 -2.1523  0.1568
  984MOL0     O32706  10.766   3.050   3.396  0.8041 -0.7625  0.4348
  984MOL0     C32707  10.824   3.060   3.503  0.0147  0.7790  0.0015
  984MOL0     O32708  10.765   3.078   3.627  0.1505 -0.4369 -0.0535
  984MOL0     C32709  10.629   3.047   3.635  0.0886  0.5129 -0.2957
  984MOL0     C32710  10.547   3.122   3.716  0.0423 -0.1809  0.0333
  984MOL0     C32711  10.415   3.101   3.734  0.5366 -0.0254  0.5758
  984MOL0     C32712  10.344   3.005   3.651  0.0654 -0.2654 -0.2878
  984MOL0     O32713  10.206   2.985   3.647 -0.4095  0.6178 -0.3533
  984MOL0     C32714  10.120   3.044   3.747 -0.1501 -0.5416 -0.3548
  984MOL0     C32715   9.968   3.022   3.724  0.5874 -0.0610  0.3944
  984MOL0     C32716   9.915   3.087   3.590  0.5064  0.6064 -0.4121
  984MOL0     C32717   9.757   3.109   3.572 -0.0112 -0.4408 -0.7201
  984MOL0     C32718   9.684   3.017   3.663 -0.4327  0.2853 -0.2425
  984MOL0     C32719   9.537   3.035   3.646  0.1066  0.0091  0.0389
  984MOL0     C32720   9.456   2.930   3.724  0.3509  0.6619  0.1595
  984MOL0     C32721   9.309   2.937   3.707 -0.2772 -0.6344 -0.2335
  984MOL0     N32722   9.255   3.048   3.788 -0.4829  0.1120  1.6164
  984MOL0     C32723   9.234   3.044   3.923 -0.3247 -0.1293  0.4379
  984MOL0     C32724   9.216   3.174   3.949 -0.1325  0.5743 -0.5450
  984MOL0     C32725   9.212   3.240   4.087  0.4934 -0.5292 -0.1322
  984MOL0     C32726   9.070   3.295   4.105 -0.3200 -0.6142 -0.0816
  984MOL0     C32727   9.048   3.326   4.256 -0.3123  0.1250  0.2470
  984MOL0     C32728   8.897   3.358   4.282  0.2737  0.5221 -0.2790
  984MOL0     O32729   8.838   3.443   4.175  0.5369  0.3050  0.5220
  984MOL0     C32730   8.715   3.501   4.192 -0.2246 -0.9077  0.0722
  984MOL0     C32731   8.632   3.489   4.305  0.2553  0.4224 -0.7922
  984MOL0     C32732   8.505   3.549   4.325  0.4795 -0.9832 -0.4325
  984MOL0     C32733   8.445   3.525   4.456  0.2228 -0.7267  0.4343
  984MOL0     C32734   8.461   3.638   4.225  0.3948 -0.4862 -0.3550
  984MOL0     C32735   8.332   3.707   4.211  0.3792  0.1678 -1.0898
  984MOL0     O32736   8.302   3.758   4.095  0.2439 -0.0517  0.0555
  984MOL0     C32737   8.175   3.821   4.097 -0.1740 -0.0302  0.4019
  984MOL0     C32738   8.065   3.747   4.050  0.7473  0.3401  0.8170
  984MOL0     C32739   7.938   3.805   4.066  0.4023  0.4728 -0.2888
  984MOL0     C32740   7.913   3.927   4.130 -0.5506 -0.1074 -0.5417
  984MOL0     O32741   7.788   3.991   4.124 -0.1265  0.2984  0.1084
  984MOL0     C32742   7.718   3.998   3.996 -0.1284  0.8784 -0.3380
  984MOL0     C32743   7.590   4.095   4.003 -0.0208  0.7118  0.2822
  984MOL0     C32744   7.622   4.213   4.096  0.4254 -0.2786  0.2506
  984MOL0     C32745   7.500   4.308   4.122  0.8322  0.7590 -0.1388
  984MOL0     C32746   7.541   4.433   4.198  0.1095 -0.3295 -0.0473
  984MOL0     C32747   7.416   4.511   4.238  0.0625  0.6237 -0.5604
  984MOL0     C32748   7.451   4.651   4.286 -0.7916 -0.1561  0.6660
  984MOL0     C32749   7.324   4.725   4.319 -0.0040  0.3624 -0.7125
  984MOL0    Cl32750   7.350   4.898   4.384  0.0897  0.0122  0.6075
  984MOL0     C32751   8.023   3.993   4.180 -0.4232  0.2073 -0.2316
  984MOL0     C32752   8.150   3.942   4.167  0.4459 -0.8347  0.2444
  984MOL0     O32753   8.258   3.716   4.311 -0.3198 -0.0065  0.2158
  984MOL0     C32754   8.532   3.627   4.101 -0.0070 -1.1812 -0.2325
  984MOL0     C32755   8.655   3.559   4.076 -0.6436  0.1658 -0.3340
  984MOL0     N32756   9.207   3.243   3.831 -0.4591 -0.1434 -0.1847
  984MOL0     N32757   9.214   3.170   3.730 -0.0558  0.4349 -0.0033
  984MOL0     C32758  10.426   2.922   3.575 -0.0329  0.2147 -0.1002
  984MOL0     C32759  10.565   2.943   3.565  0.2082 -1.6053 -0.2881
  984MOL0     C32760  10.969   3.031   3.499  0.2006  0.1177  0.0532
  984MOL0     C32761  11.023   2.948   3.406 -0.4515 -0.2256 -0.1966
  984MOL0     C32762  11.153   2.902   3.425 -0.1869  0.1071 -0.5719
  984MOL0     C32763  11.241   2.962   3.514  0.7754  0.2935 -0.5351
  984MOL0     O32764  11.368   2.918   3.503 -0.0501  0.8941 -0.8145
  984MOL0     C32765  11.475   3.000   3.552  0.1699 -0.4817 -1.3591
  984MOL0     C32766  11.624   2.967   3.509 -0.3625 -0.1834  0.3619
  984MOL0     C32767  11.664   2.824   3.532 -0.0544 -1.1561 -0.0544
  984MOL0     C32768  11.804   2.783   3.458  0.7214  0.6190 -0.4651
  984MOL0     C32769  11.920   2.867   3.476 -0.1831 -0.2707  0.1147
  984MOL0     C32770  12.020   2.937   3.469 -0.7461  0.2672 -0.7815
  984MOL0     C32771  11.188   3.054   3.603  0.5219 -0.2599 -0.2387
  984MOL0     C32772  11.049   3.092   3.595  0.0754 -0.5272 -0.6031
  984MOL0     H32773  10.601   3.199   3.770  2.1378 -1.8576  0.4592
  984MOL0     H32774  10.361   3.166   3.802  0.0209 -0.8411  0.9693
  984MOL0     H32775  10.152   3.017   3.848  2.9946  1.8387 -0.5543
  984MOL0     H32776  10.138   3.151   3.739 -0.8153 -0.4868 -1.3378
  984MOL0     H32777   9.949   2.915   3.733  2.8098 -0.4298  1.2948
  984MOL0     H32778   9.917   3.080   3.803  0.7378  2.2161 -1.0739
  984MOL0     H32779   9.956   3.187   3.575 -0.0775  0.6286 -2.1341
  984MOL0     H32780   9.947   3.022   3.508  1.0592 -0.7848  0.8665
  984MOL0     H32781   9.736   3.213   3.600  0.3143  0.1673 -2.5948
  984MOL0     H32782   9.728   3.099   3.467  3.3302 -1.4094 -1.6787
  984MOL0     H32783   9.713   2.917   3.629 -0.0237  0.7279 -1.2558
  984MOL0     H32784   9.704   3.034   3.769 -3.2483  0.5725  0.3189
  984MOL0     H32785   9.518   3.137   3.681  2.0333  1.3652 -2.5190
  984MOL0     H32786   9.502   3.028   3.543 -1.6167 -2.1655  0.7129
  984MOL0     H32787   9.498   2.834   3.690  0.8573  1.2666 -0.9842
  984MOL0     H32788   9.479   2.944   3.830 -1.2010 -1.7958  0.9074
  984MOL0     H32789   9.269   2.841   3.741  4.3197 -3.1794 -1.2739
  984MOL0     H32790   9.276   2.945   3.603 -3.1414  0.4966  0.6636
  984MOL0     H32791   9.257   2.969   3.999 -1.0384 -0.5138  0.2842
  984MOL0     H32792   9.238   3.167   4.164  3.1882  2.0236  1.5808
  984MOL0     H32793   9.283   3.322   4.099 -1.0300  0.4929  2.9527
  984MOL0     H32794   8.997   3.230   4.055 -2.9930  0.8000  1.6971
  984MOL0     H32795   9.054   3.390   4.052  1.9961  1.2845  2.3780
  984MOL0     H32796   9.101   3.415   4.289  1.6212 -1.0573  0.5230
  984MOL0     H32797   9.077   3.243   4.321 -1.2285 -1.2319 -0.9847
  984MOL0     H32798   8.885   3.397   4.383 -1.1344 -1.7794  0.4969
  984MOL0     H32799   8.847   3.262   4.291  0.7242  0.1632 -1.3981
  984MOL0     H32800   8.679   3.422   4.376 -1.5497 -0.4425 -0.3579
  984MOL0     H32801   8.423   3.620   4.505  0.2970 -0.5954  0.2120
  984MOL0     H32802   8.351   3.468   4.457  0.2970 -0.9584  3.5500
  984MOL0     H32803   8.510   3.464   4.519 -1.9597 -2.4634  1.1676
  984MOL0     H32804   8.079   3.654   3.997 -0.2455  1.5606 -1.7676
  984MOL0     H32805   7.847   3.762   4.026 -1.5259  1.7211  2.4496
  984MOL0     H32806   7.784   4.037   3.919  0.7229  0.6594  0.2736
  984MOL0     H32807   7.695   3.894   3.971  2.2329  0.0454  0.7009
  984MOL0     H32808   7.564   4.124   3.901 -2.5069  2.2896  1.2672
  984MOL0     H32809   7.504   4.038   4.039  1.6201 -1.3645  1.1148
  984MOL0     H32810   7.701   4.277   4.055  0.1495  0.6852  1.1761
  984MOL0     H32811   7.656   4.168   4.190  2.1110 -3.3255 -1.6559
  984MOL0     H32812   7.463   4.347   4.026 -0.1603  0.2453  0.0135
  984MOL0     H32813   7.425   4.259   4.185  3.6247 -1.8353  1.3887
  984MOL0     H32814   7.613   4.491   4.140  2.3486 -1.8311  1.0953
  984MOL0     H32815   7.595   4.406   4.289 -1.1626 -1.0917  0.4988
  984MOL0     H32816   7.347   4.510   4.152  0.9378  0.0502 -1.2751
  984MOL0     H32817   7.367   4.451   4.316 -1.7680  1.2638 -1.1708
  984MOL0     H32818   7.502   4.707   4.207 -3.1730 -0.4355 -1.2079
  984MOL0     H32819   7.509   4.647   4.378 -0.0710  0.8604  0.2728
  984MOL0     H32820   7.277   4.669   4.401 -1.1401 -1.5402 -2.5405
  984MOL0     H32821   7.255   4.732   4.234 -2.4599 -0.9753  1.0398
  984MOL0     H32822   8.018   4.085   4.236 -1.2513 -0.8958  1.6107
  984MOL0     H32823   8.234   3.986   4.220  0.3103 -0.8659  0.4861
  984MOL0     H32824   8.528   3.684   4.009  4.2494  0.9108  0.6002
  984MOL0     H32825   8.706   3.558   3.981 -1.8844 -1.0486 -1.0146
  984MOL0     H32826  10.384   2.842   3.514 -0.3580 -0.5464  1.0919
  984MOL0     H32827  10.608   2.874   3.493 -0.2116 -1.9411 -0.2256
  984MOL0     H32828  10.961   2.904   3.327 -4.9171  1.4255  2.0569
  984MOL0     H32829  11.202   2.830   3.361 -1.2310  0.1374 -1.4241
  984MOL0     H32830  11.455   3.106   3.534  0.0689 -0.1317  0.6771
  984MOL0     H32831  11.476   2.988   3.660  2.2819  2.7082 -0.8948
  984MOL0     H32832  11.699   3.016   3.572  1.0556 -5.4691  3.4174
  984MOL0     H32833  11.630   2.995   3.403 -0.1417  1.1942  0.7121
  984MOL0     H32834  11.582   2.759   3.500 -0.4137 -1.5689  1.5742
  984MOL0     H32835  11.679   2.807   3.639 -0.1278 -1.7777 -0.1389
  984MOL0     H32836  11.772   2.780   3.354  0.2366  2.3031 -0.3946
  984MOL0     H32837  11.832   2.685   3.499  2.4897  0.4917 -1.8502
  984MOL0     H32838  12.105   3.001   3.474  0.3750 -1.2083 -0.1688
  984MOL0     H32839  11.255   3.103   3.672 -0.0314  1.4635 -0.8743
  984MOL0     H32840  11.012   3.164   3.667  3.7634  0.5319  0.4657
  985MOL0     O32841   1.624   1.407   4.654  0.0301  0.5999  0.7848
  985MOL0     C32842   1.646   1.332   4.752 -0.6904 -0.7064  0.5129
  985MOL0     O32843   1.584   1.217   4.781 -0.0038 -0.0347 -0.5405
  985MOL0     C32844   1.450   1.198   4.749 -0.5477 -0.4886  0.0204
  985MOL0     C32845   1.399   1.067   4.763  0.4446 -0.2678  0.4059
  985MOL0     C32846   1.266   1.034   4.770 -0.3458 -0.4938  0.2302
  985MOL0     C32847   1.170   1.140   4.752 -0.0781  0.1914  1.6082
  985MOL0     O32848   1.039   1.096   4.773  0.3699  0.6455 -0.5653
  985MOL0     C32849   0.924   1.160   4.714 -0.0536  0.4264  0.6171
  985MOL0     C32850   0.804   1.079   4.748  0.2032  0.1137 -0.0138
  985MOL0     C32851   0.796   0.949   4.667  0.0195 -0.5811 -0.5790
  985MOL0     C32852   0.679   0.854   4.716 -0.0716 -0.3778  0.5118
  985MOL0     C32853   0.672   0.727   4.626  0.1127 -0.2894  0.1669
  985MOL0     C32854   0.549   0.638   4.657  0.0105 -0.6232  0.5439
  985MOL0     C32855   0.546   0.502   4.580 -0.8413 -0.4427 -0.5716
  985MOL0     C32856   0.423   0.425   4.613 -0.3782 -0.1908 -0.4890
  985MOL0     N32857   0.402   0.326   4.508 -0.1604 -0.1388  0.3792
  985MOL0     C32858   0.330   0.352   4.395  0.8634  0.6410 -0.2380
  985MOL0     C32859   0.373   0.254   4.309  0.9790  0.1203  0.5603
  985MOL0     C32860   0.326   0.243   4.162 -0.0510 -0.6587 -0.0830
  985MOL0     C32861   0.173   0.243   4.143  0.5678  0.8214  0.6429
  985MOL0     C32862   0.122   0.385   4.131  0.0266  0.1637 -0.3166
  985MOL0     C32863  -0.019   0.385   4.085 -1.0281  0.3343  0.7390
  985MOL0     O32864  -0.100   0.324   4.182  0.2158 -0.4188 -0.1811
  985MOL0     C32865  -0.235   0.290   4.166 -0.0399  0.0639  0.4460
  985MOL0     C32866  -0.300   0.234   4.277  0.6881 -0.1288 -0.2165
  985MOL0     C32867  -0.432   0.196   4.261  0.2464  0.5301 -0.6307
  985MOL0     C32868  -0.486   0.121   4.379  0.4239 -0.6712  0.2808
  985MOL0     C32869  -0.504   0.214   4.143 -0.2850 -0.7425 -0.3976
  985MOL0     C32870  -0.656   0.207   4.137 -0.1466 -0.6008  0.6486
  985MOL0     O32871  -0.718   0.233   4.024  0.6417 -0.1964  0.4759
  985MOL0     C32872  -0.851   0.246   4.005  0.6935 -0.5472  0.1335
  985MOL0     C32873  -0.953   0.195   4.086 -0.0023 -0.1953 -0.2143
  985MOL0     C32874  -1.086   0.215   4.053  0.2273 -0.4461  0.7473
  985MOL0     C32875  -1.121   0.304   3.945  0.5426  0.3384  0.5548
  985MOL0     O32876  -1.251   0.348   3.909 -0.2273  0.1056  0.7359
  985MOL0     C32877  -1.349   0.323   4.002  0.3993  1.0023 -0.6185
  985MOL0     C32878  -1.483   0.383   3.946 -0.2383  0.7800  0.4287
  985MOL0     C32879  -1.600   0.388   4.049 -0.2949 -0.0044  0.7824
  985MOL0     C32880  -1.619   0.524   4.119  0.5806  0.8456  0.2324
  985MOL0     C32881  -1.696   0.513   4.253 -0.1637  0.3430 -0.8902
  985MOL0     C32882  -1.637   0.432   4.368 -0.4411 -0.0469  0.9096
  985MOL0     C32883  -1.491   0.479   4.382 -0.1276  0.4471  0.1231
  985MOL0     C32884  -1.444   0.429   4.515 -0.2236 -0.0802  0.4273
  985MOL0    Cl32885  -1.526   0.512   4.647 -0.3270  0.4416 -0.0872
  985MOL0     C32886  -1.018   0.347   3.861  0.1247 -0.3884  0.3142
  985MOL0     C32887  -0.886   0.309   3.883  0.1462 -0.4951  0.2066
  985MOL0     O32888  -0.715   0.186   4.243  0.0646 -0.4396  0.3739
  985MOL0     C32889  -0.430   0.258   4.030  0.0161  0.2492  0.2247
  985MOL0     C32890  -0.297   0.289   4.045  0.0975 -0.9145  0.6854
  985MOL0     N32891   0.485   0.190   4.358 -0.1852 -0.0602  0.2528
  985MOL0     N32892   0.492   0.222   4.484 -0.7829  0.6786  1.6305
  985MOL0     C32893   1.218   1.266   4.708  0.2369  0.8960  0.2078
  985MOL0     C32894   1.352   1.299   4.722 -0.2054  0.6478  0.4205
  985MOL0     C32895   1.773   1.367   4.824  0.1816  0.0928 -0.3797
  985MOL0     C32896   1.858   1.468   4.789 -0.3333 -1.7307 -0.9629
  985MOL0     C32897   1.967   1.502   4.866 -0.2361  0.5456  0.8243
  985MOL0     C32898   2.003   1.426   4.977  0.1299 -0.4619  0.0454
  985MOL0     O32899   2.123   1.473   5.038  0.0498 -0.3344 -0.2904
  985MOL0     C32900   2.150   1.424   5.170  0.4505 -0.0697 -0.1872
  985MOL0     C32901   2.261   1.503   5.229  0.2735 -0.3906 -0.0060
  985MOL0     C32902   2.394   1.454   5.178 -0.7137 -0.4708  1.4157
  985MOL0     C32903   2.499   1.539   5.257 -0.1753 -0.3064  0.3133
  985MOL0     C32904   2.617   1.458   5.280  0.0847  0.3517 -0.1956
  985MOL0     C32905   2.726   1.402   5.271 -1.3344  0.1475  0.2354
  985MOL0     C32906   1.933   1.311   5.006  0.3921 -0.1658  1.0951
  985MOL0     C32907   1.812   1.288   4.935  0.8029 -0.3021 -0.0004
  985MOL0     H32908   1.472   0.993   4.795  2.2888 -0.1450 -3.0162
  985MOL0     H32909   1.228   0.938   4.801 -0.8006  0.1203  1.6638
  985MOL0     H32910   0.912   1.258   4.760 -3.9863 -0.0561  1.0040
  985MOL0     H32911   0.941   1.162   4.606 -0.3189 -1.7408  0.4823
  985MOL0     H32912   0.796   1.042   4.850 -0.7716 -2.0004 -0.7980
  985MOL0     H32913   0.722   1.148   4.726 -0.7480 -1.5426 -1.9713
  985MOL0     H32914   0.779   0.970   4.561 -2.2953  0.9797  0.0134
  985MOL0     H32915   0.891   0.895   4.673  1.1882  1.4603 -0.0520
  985MOL0     H32916   0.688   0.818   4.818  0.6122  3.0011  1.7888
  985MOL0     H32917   0.587   0.913   4.715 -1.0465 -1.6401  3.7421
  985MOL0     H32918   0.648   0.758   4.524 -0.2068 -1.2066 -0.0496
  985MOL0     H32919   0.770   0.677   4.629 -0.0956 -0.6446  1.9388
  985MOL0     H32920   0.549   0.605   4.761 -0.4463 -0.4886  0.5868
  985MOL0     H32921   0.455   0.692   4.639  1.2564  1.5243  0.0580
  985MOL0     H32922   0.549   0.531   4.475  1.0928 -0.5394 -0.5870
  985MOL0     H32923   0.634   0.440   4.601  0.2880  1.5360  0.8204
  985MOL0     H32924   0.344   0.500   4.606 -0.8477 -0.5204  0.9797
  985MOL0     H32925   0.434   0.374   4.710  3.6091  1.2000  0.0065
  985MOL0     H32926   0.260   0.435   4.390  1.0864  1.2302  3.7548
  985MOL0     H32927   0.373   0.330   4.114  0.6660 -0.0745  1.6164
  985MOL0     H32928   0.371   0.149   4.131 -0.7015 -0.6156 -1.2340
  985MOL0     H32929   0.132   0.172   4.215 -0.4796  0.7357 -0.0104
  985MOL0     H32930   0.156   0.193   4.047  0.9876 -1.7460  1.7965
  985MOL0     H32931   0.189   0.440   4.064  2.5009 -1.7737  0.4198
  985MOL0     H32932   0.118   0.435   4.228 -1.8344  0.4583 -0.5108
  985MOL0     H32933  -0.019   0.328   3.992 -1.6904 -0.8678  1.4435
  985MOL0     H32934  -0.064   0.484   4.074 -2.1146 -0.0494  1.4708
  985MOL0     H32935  -0.253   0.213   4.372  1.2135  1.8365  0.0121
  985MOL0     H32936  -0.548   0.179   4.448  0.4989 -0.6207  0.3057
  985MOL0     H32937  -0.545   0.034   4.348 -1.7377  1.0880 -0.8207
  985MOL0     H32938  -0.398   0.068   4.416  0.7564 -1.9962 -2.1505
  985MOL0     H32939  -0.917   0.142   4.173  2.5928 -1.8802 -2.1807
  985MOL0     H32940  -1.155   0.187   4.133  0.4620 -1.9249  0.4657
  985MOL0     H32941  -1.367   0.216   4.016  0.9701  1.0204  0.3276
  985MOL0     H32942  -1.313   0.369   4.094  2.3558  0.6328 -1.1400
  985MOL0     H32943  -1.477   0.484   3.906  1.5116  0.3926 -0.3513
  985MOL0     H32944  -1.518   0.322   3.862  2.5132  0.1037 -0.3384
  985MOL0     H32945  -1.577   0.308   4.120  1.7928 -0.2230 -0.0720
  985MOL0     H32946  -1.698   0.377   4.001  0.9664  0.7408 -2.1775
  985MOL0     H32947  -1.516   0.558   4.138  0.7293  0.2712  0.4581
  985MOL0     H32948  -1.675   0.596   4.058  1.7113  2.1174  0.6335
  985MOL0     H32949  -1.797   0.473   4.242 -0.6708  1.3927 -0.2930
  985MOL0     H32950  -1.725   0.609   4.297 -3.3371 -0.7616 -0.3074
  985MOL0     H32951  -1.696   0.457   4.456  2.5168  1.6293  2.5826
  985MOL0     H32952  -1.640   0.324   4.351 -0.4150  0.3436 -2.1851
  985MOL0     H32953  -1.482   0.588   4.380 -1.2669  0.5447 -1.6239
  985MOL0     H32954  -1.436   0.435   4.298  3.0801 -0.3157  2.4135
  985MOL0     H32955  -1.336   0.427   4.529 -0.3473 -1.3991  1.3362
  985MOL0     H32956  -1.459   0.322   4.532  0.8647 -0.1805  0.8471
  985MOL0     H32957  -1.042   0.404   3.772  0.0758  1.2223  1.3145
  985MOL0     H32958  -0.807   0.345   3.818  0.8116  1.4936  2.0160
  985MOL0     H32959  -0.476   0.275   3.933 -2.7996 -0.8073  1.2569
  985MOL0     H32960  -0.253   0.322   3.951  0.9207 -1.3986  0.8835
  985MOL0     H32961   1.147   1.343   4.678 -3.6489 -2.1612  0.8462
  985MOL0     H32962   1.382   1.403   4.714 -0.6822  0.7657  0.1661
  985MOL0     H32963   1.837   1.534   4.705  0.2545 -1.5683 -0.9827
  985MOL0     H32964   2.027   1.588   4.837  0.9466 -0.6170 -0.2891
  985MOL0     H32965   2.056   1.433   5.224  0.6493 -0.9954  0.3406
  985MOL0     H32966   2.185   1.321   5.163 -0.5191 -0.3179 -1.7121
  985MOL0     H32967   2.268   1.487   5.337 -1.2099  1.0461  0.3475
  985MOL0     H32968   2.242   1.608   5.203  1.6088  0.4676  2.1967
  985MOL0     H32969   2.402   1.471   5.070  3.5494 -3.8594  0.9262
  985MOL0     H32970   2.397   1.347   5.198  1.5876 -0.2415  2.6190
  985MOL0     H32971   2.453   1.567   5.352 -0.0441 -1.6691  0.8035
  985MOL0     H32972   2.521   1.636   5.211  0.9827 -0.8542 -0.3389
  985MOL0     H32973   2.815   1.343   5.268 -0.3443  1.6023 -0.1529
  985MOL0     H32974   1.947   1.251   5.096 -3.0753 -0.6833  1.4191
  985MOL0     H32975   1.751   1.204   4.967  1.5302 -0.5122  0.8765
  986MOL0     O32976   8.962   7.799   5.704 -0.4477  0.1860  1.1075
  986MOL0     C32977   8.999   7.699   5.646 -0.1234  0.6089 -0.3054
  986MOL0     O32978   8.924   7.602   5.584  0.0885  0.0359  0.0079
  986MOL0     C32979   8.784   7.622   5.570 -0.5333  0.2928 -0.4057
  986MOL0     C32980   8.727   7.631   5.445  0.0334 -0.2394 -0.5460
  986MOL0     C32981   8.589   7.620   5.433  0.0097  0.3936  0.9193
  986MOL0     C32982   8.501   7.611   5.541  0.7251  0.7473 -0.0607
  986MOL0     O32983   8.363   7.584   5.544 -0.6449 -0.4700  0.2411
  986MOL0     C32984   8.285   7.650   5.441  0.2153 -0.4595 -0.7011
  986MOL0     C32985   8.298   7.800   5.453  0.5164  0.5258 -1.2982
  986MOL0     C32986   8.159   7.862   5.406 -0.8917 -0.6944 -1.4336
  986MOL0     C32987   8.131   7.829   5.263  0.1883 -0.9027 -0.0337
  986MOL0     C32988   7.996   7.871   5.213  0.5121  0.1352 -0.0230
  986MOL0     C32989   7.980   7.809   5.078 -0.7854 -0.5879  0.5488
  986MOL0     C32990   7.833   7.794   5.046 -0.0912 -0.2682 -0.1534
  986MOL0     C32991   7.762   7.929   5.074 -0.2811 -0.1618 -0.1261
  986MOL0     N32992   7.615   7.926   5.037  0.4026 -0.7645  0.4609
  986MOL0     C32993   7.561   7.938   4.907  0.1360 -0.1682  0.2600
  986MOL0     C32994   7.433   7.953   4.938 -0.4388  0.3065 -0.7316
  986MOL0     C32995   7.325   7.960   4.836  0.3012  0.3339  0.1471
  986MOL0     C32996   7.199   8.001   4.899  0.6138  0.4325  0.2260
  986MOL0     C32997   7.083   8.009   4.800  0.5572  0.0935  0.3599
  986MOL0     C32998   6.953   8.066   4.876 -0.4161  0.5649  0.6898
  986MOL0     O32999   6.957   8.208   4.888 -0.5315  0.2032  0.4681
  986MOL0     C33000   6.841   8.287   4.876 -0.0204 -0.2179  0.0849
  986MOL0     C33001   6.842   8.411   4.934  0.2339  0.5482 -0.4845
  986MOL0     C33002   6.722   8.493   4.934  1.0373 -0.8785  0.3149
  986MOL0     C33003   6.735   8.617   5.019 -0.6642 -0.4527 -0.0840
  986MOL0     C33004   6.608   8.448   4.860  1.2389 -0.7872  0.3016
  986MOL0     C33005   6.476   8.518   4.872  0.2339  0.5307  0.4604
  986MOL0     O33006   6.374   8.467   4.783  0.0712  0.5855 -0.0051
  986MOL0     C33007   6.267   8.546   4.767  0.1991 -0.1281 -0.4174
  986MOL0     C33008   6.249   8.638   4.667 -0.0750 -0.7473  0.5246
  986MOL0     C33009   6.128   8.708   4.648 -0.1740  0.0196  0.1416
  986MOL0     C33010   6.030   8.697   4.745  0.2173  0.6997 -0.7028
  986MOL0     O33011   5.905   8.753   4.739 -0.3097 -0.7119 -1.1497
  986MOL0     C33012   5.872   8.833   4.631  0.4972  0.2049  0.2207
  986MOL0     C33013   5.721   8.871   4.634  0.0446 -0.0972  0.6673
  986MOL0     C33014   5.629   8.749   4.657 -0.2361 -0.1146  0.0164
  986MOL0     C33015   5.488   8.797   4.690  0.1084 -0.1030  0.4876
  986MOL0     C33016   5.382   8.688   4.708  0.3723  0.4400  0.7189
  986MOL0     C33017   5.287   8.692   4.584  1.1250  0.2858  0.5455
  986MOL0     C33018   5.178   8.582   4.577  0.5166 -0.7430 -0.1844
  986MOL0     C33019   5.071   8.602   4.688  0.4210  0.8641  0.2477
  986MOL0    Cl33020   5.010   8.766   4.689 -0.2694 -0.3737 -0.0084
  986MOL0     C33021   6.057   8.609   4.850  0.4704  0.9976 -0.1792
  986MOL0     C33022   6.165   8.527   4.859  0.5046  0.6838  0.0394
  986MOL0     O33023   6.457   8.601   4.957  0.0719  0.0748 -0.3688
  986MOL0     C33024   6.621   8.333   4.782  0.0033 -0.4955 -0.7886
  986MOL0     C33025   6.735   8.253   4.794  1.0404 -0.6159 -0.0689
  986MOL0     N33026   7.408   7.953   5.078  0.3100  0.8033  0.7593
  986MOL0     N33027   7.516   7.931   5.131  0.3806  0.2068 -0.6215
  986MOL0     C33028   8.560   7.610   5.665 -0.9015  0.7676 -0.3934
  986MOL0     C33029   8.697   7.611   5.684 -0.9178 -0.4946 -0.0489
  986MOL0     C33030   9.150   7.663   5.649 -0.2266 -0.6734 -0.4620
  986MOL0     C33031   9.203   7.565   5.563  1.0018  0.0306 -0.1304
  986MOL0     C33032   9.329   7.533   5.560  0.6813  0.5924 -0.3278
  986MOL0     C33033   9.418   7.588   5.648  0.4269 -0.4673  0.1339
  986MOL0     O33034   9.543   7.533   5.636  0.9376  0.1440 -0.0839
  986MOL0     C33035   9.656   7.612   5.665  1.0579 -0.2269 -0.4616
  986MOL0     C33036   9.762   7.584   5.567 -0.3765 -0.3128  0.2575
  986MOL0     C33037   9.724   7.643   5.427  1.0003  0.1750 -0.7082
  986MOL0     C33038   9.798   7.592   5.309 -0.1988 -0.5880  0.5053
  986MOL0     C33039   9.934   7.653   5.300  0.3959 -0.0987  1.3909
  986MOL0     C33040  10.037   7.708   5.266  0.1813 -1.1177  0.0665
  986MOL0     C33041   9.379   7.693   5.738  0.6323 -0.2851 -0.6126
  986MOL0     C33042   9.237   7.729   5.736 -0.1431  0.1009 -0.1923
  986MOL0     H33043   8.777   7.634   5.349  0.0843 -0.7904 -0.5403
  986MOL0     H33044   8.544   7.630   5.335  2.5909 -2.9715 -0.8148
  986MOL0     H33045   8.317   7.616   5.343  2.9111 -3.1053  0.9521
  986MOL0     H33046   8.180   7.624   5.459  0.0677  0.5196 -0.0802
  986MOL0     H33047   8.318   7.815   5.559 -0.6698  0.7698 -1.0987
  986MOL0     H33048   8.381   7.847   5.398  1.3727  0.4628 -0.0933
  986MOL0     H33049   8.076   7.829   5.468 -1.2143 -1.0132 -2.0251
  986MOL0     H33050   8.174   7.971   5.414 -1.9475 -0.6804  2.8240
  986MOL0     H33051   8.206   7.865   5.192 -1.5859 -2.4911 -2.8892
  986MOL0     H33052   8.129   7.720   5.261 -2.2917 -0.9079 -0.6240
  986MOL0     H33053   7.917   7.837   5.281  0.4895  0.3398  0.0536
  986MOL0     H33054   7.997   7.980   5.215 -1.6748  0.2155 -0.8473
  986MOL0     H33055   8.019   7.885   5.010 -1.7110 -1.2893 -0.8040
  986MOL0     H33056   8.032   7.715   5.057 -1.7280 -0.8497 -0.7460
  986MOL0     H33057   7.828   7.766   4.941 -0.4876  0.3418 -0.3082
  986MOL0     H33058   7.784   7.720   5.110  0.1231 -0.5348 -0.2953
  986MOL0     H33059   7.817   8.011   5.028 -1.7228  1.1693  0.4109
  986MOL0     H33060   7.762   7.948   5.182 -1.8281  1.5095 -0.3869
  986MOL0     H33061   7.608   7.944   4.809 -2.4614 -1.1950 -1.1491
  986MOL0     H33062   7.350   8.033   4.759  1.4717  1.1363  1.2481
  986MOL0     H33063   7.307   7.869   4.779 -0.9979  2.4598 -3.0993
  986MOL0     H33064   7.214   8.092   4.958  2.2547 -0.0889  0.6842
  986MOL0     H33065   7.177   7.930   4.980 -2.6990 -1.3744 -2.0425
  986MOL0     H33066   7.050   7.916   4.753 -0.3625  0.8501 -0.5401
  986MOL0     H33067   7.112   8.087   4.729 -1.4844  1.1466  0.5800
  986MOL0     H33068   6.948   8.017   4.974 -0.3140 -0.3967  0.2347
  986MOL0     H33069   6.872   8.035   4.808  1.4598 -2.0619 -0.5349
  986MOL0     H33070   6.925   8.444   4.996 -0.7024 -1.3463  1.8999
  986MOL0     H33071   6.711   8.711   4.967  1.3211  0.4347  0.4970
  986MOL0     H33072   6.665   8.602   5.101 -0.3108 -4.7635 -0.3810
  986MOL0     H33073   6.830   8.628   5.072 -1.4813 -0.6449  1.4682
  986MOL0     H33074   6.327   8.646   4.592 -1.8996 -0.8987 -1.5037
  986MOL0     H33075   6.129   8.777   4.564  0.2942 -1.7852 -1.4069
  986MOL0     H33076   5.936   8.922   4.630 -2.5388  2.6227  2.0699
  986MOL0     H33077   5.886   8.774   4.540 -0.3588  1.9817 -1.1076
  986MOL0     H33078   5.708   8.944   4.714 -0.6151  1.0202 -0.4351
  986MOL0     H33079   5.688   8.927   4.547 -0.7997 -0.6251  0.6335
  986MOL0     H33080   5.674   8.692   4.739  3.4586 -0.7420 -2.2564
  986MOL0     H33081   5.620   8.682   4.572  1.9955 -3.6567  2.2784
  986MOL0     H33082   5.489   8.849   4.786 -0.3992  1.4484 -0.3129
  986MOL0     H33083   5.465   8.865   4.608  0.2536 -1.0335 -0.3426
  986MOL0     H33084   5.321   8.724   4.792 -0.8554  1.8352 -0.7177
  986MOL0     H33085   5.414   8.585   4.727 -1.4775 -0.4654 -0.7329
  986MOL0     H33086   5.239   8.789   4.575 -0.7207 -0.6848 -0.9064
  986MOL0     H33087   5.354   8.679   4.498  0.1716 -2.9618  0.1258
  986MOL0     H33088   5.225   8.483   4.578  2.0696 -0.1305 -2.9797
  986MOL0     H33089   5.127   8.582   4.480 -0.7244 -0.5675  0.4432
  986MOL0     H33090   5.103   8.573   4.788 -2.5531  0.7818  1.2604
  986MOL0     H33091   4.989   8.535   4.663 -0.7807  1.5415  2.1558
  986MOL0     H33092   5.979   8.613   4.926 -0.1773  0.2679 -0.7902
  986MOL0     H33093   6.178   8.457   4.940  0.3058 -0.8521 -1.2004
  986MOL0     H33094   6.533   8.304   4.726 -1.1491  1.0020  0.1642
  986MOL0     H33095   6.720   8.162   4.736 -1.0207 -0.2523 -0.1833
  986MOL0     H33096   8.502   7.590   5.754 -0.1249  0.4263  0.0511
  986MOL0     H33097   8.733   7.619   5.786  0.8472  1.1774 -0.7439
  986MOL0     H33098   9.148   7.504   5.492  3.0102 -0.7322 -1.0987
  986MOL0     H33099   9.358   7.451   5.495 -3.4932 -1.0696 -0.4088
  986MOL0     H33100   9.620   7.715   5.673 -1.5405 -1.1275  0.6020
  986MOL0     H33101   9.688   7.578   5.764  1.1510  0.5968 -0.1963
  986MOL0     H33102   9.768   7.475   5.566 -1.2404 -0.3733  0.5241
  986MOL0     H33103   9.856   7.627   5.602  0.1665 -0.6381 -0.7717
  986MOL0     H33104   9.751   7.749   5.420  0.4539  0.3287 -0.5352
  986MOL0     H33105   9.617   7.644   5.405  1.2924 -0.6160 -2.3648
  986MOL0     H33106   9.740   7.608   5.217 -1.8370 -0.6818  1.4937
  986MOL0     H33107   9.821   7.485   5.312  1.3004 -0.4596 -2.5061
  986MOL0     H33108  10.129   7.758   5.241 -0.6344  1.1861  1.3327
  986MOL0     H33109   9.447   7.748   5.802  0.8401 -0.5830 -0.5754
  986MOL0     H33110   9.201   7.803   5.806  1.8052 -0.8327  1.9657
  987MOL0     O33111   7.987  10.280  10.909 -0.2391 -0.1768  0.0929
  987MOL0     C33112   8.076  10.359  10.891 -0.4332  0.5775  0.0075
  987MOL0     O33113   8.084  10.484  10.948  0.5517  0.0227  0.0375
  987MOL0     C33114   7.981  10.509  11.029 -0.2184  0.3621  0.1428
  987MOL0     C33115   7.853  10.558  10.980 -0.7180 -0.3926  0.0468
  987MOL0     C33116   7.744  10.573  11.068  0.5285  0.2372 -0.1002
  987MOL0     C33117   7.759  10.544  11.205  0.2212 -0.4658  0.3735
  987MOL0     O33118   7.642  10.555  11.280  0.0961 -0.6615  0.7735
  987MOL0     C33119   7.659  10.565  11.423 -0.5846 -0.6153  0.3315
  987MOL0     C33120   7.536  10.603  11.499  0.2616 -0.4660  0.7924
  987MOL0     C33121   7.534  10.546  11.642  0.5145 -0.1081 -0.0033
  987MOL0     C33122   7.430  10.602  11.735 -0.0524 -0.2874  0.0793
  987MOL0     C33123   7.420  10.541  11.870  0.1164 -0.0024  0.1888
  987MOL0     C33124   7.296  10.572  11.953 -0.5357  0.4319 -0.9393
  987MOL0     C33125   7.265  10.718  11.968  0.1304  1.5339 -0.2500
  987MOL0     C33126   7.134  10.761  11.895 -0.2677 -0.1015 -1.1411
  987MOL0     N33127   7.014  10.705  11.948 -0.2483  0.2636 -0.7265
  987MOL0     C33128   6.955  10.708  12.075  0.2659  0.3111  0.0510
  987MOL0     C33129   6.841  10.645  12.062  0.0114 -0.5366  0.5095
  987MOL0     C33130   6.728  10.615  12.156  0.1765  0.4131 -0.1263
  987MOL0     C33131   6.773  10.538  12.275  0.2167  0.0394  0.2884
  987MOL0     C33132   6.682  10.546  12.401  0.2501  0.3230 -0.0283
  987MOL0     C33133   6.561  10.448  12.380 -0.9348  0.1909 -0.0379
  987MOL0     O33134   6.467  10.515  12.295 -0.3400  0.2203  0.0650
  987MOL0     C33135   6.404  10.627  12.347  0.8715 -0.6650  1.2578
  987MOL0     C33136   6.367  10.724  12.252  0.3561  0.5907 -1.1004
  987MOL0     C33137   6.289  10.837  12.282 -0.0310 -0.6551 -0.0985
  987MOL0     C33138   6.253  10.932  12.166  0.2177  0.3099  0.0734
  987MOL0     C33139   6.255  10.855  12.422  0.4648 -1.1321  0.6097
  987MOL0     C33140   6.186  10.986  12.464  0.5921 -0.2283 -0.2063
  987MOL0     O33141   6.212  11.014  12.599  0.1914 -0.6802 -0.0744
  987MOL0     C33142   6.166  11.130  12.649  0.0653  0.6622 -0.4882
  987MOL0     C33143   6.030  11.148  12.688  0.0874 -0.5934 -0.1393
  987MOL0     C33144   5.983  11.273  12.720  0.4478 -0.1646 -0.5782
  987MOL0     C33145   6.070  11.385  12.727 -0.8201  0.6769  0.8439
  987MOL0     O33146   6.044  11.514  12.770 -0.0714 -0.3081 -0.0719
  987MOL0     C33147   5.920  11.568  12.726 -0.0981 -0.1859  0.0049
  987MOL0     C33148   5.836  11.605  12.849 -0.0276  0.5868  0.9361
  987MOL0     C33149   5.690  11.652  12.814 -0.3070 -0.2872 -0.1289
  987MOL0     C33150   5.619  11.688  12.948  0.0789  1.0197  0.4577
  987MOL0     C33151   5.475  11.729  12.930  1.0517 -0.7211  0.7909
  987MOL0     C33152   5.407  11.812  13.045 -0.0270  0.9963  0.6874
  987MOL0     C33153   5.258  11.835  13.014 -0.1314  0.4753  0.6519
  987MOL0     C33154   5.199  11.918  13.118  0.3008 -0.2412 -0.8985
  987MOL0    Cl33155   5.027  11.948  13.078 -0.0906  0.1161  0.2607
  987MOL0     C33156   6.204  11.364  12.695  0.0368 -0.0057  1.1714
  987MOL0     C33157   6.248  11.239  12.659  0.1067  0.4482 -0.2615
  987MOL0     O33158   6.120  11.056  12.386  0.2136  0.0504 -0.0779
  987MOL0     C33159   6.283  10.757  12.508  0.3247  0.4394  0.0461
  987MOL0     C33160   6.347  10.646  12.474 -0.9147  0.1478  0.1527
  987MOL0     N33161   6.825  10.608  11.930  0.4156 -0.2235 -0.6439
  987MOL0     N33162   6.931  10.649  11.873  0.2923  0.6167  0.9058
  987MOL0     C33163   7.886  10.513  11.255  0.0593 -0.1520  0.6163
  987MOL0     C33164   7.991  10.494  11.168 -0.1640  0.3764 -0.0231
  987MOL0     C33165   8.197  10.316  10.808 -0.1626  0.1659  0.8292
  987MOL0     C33166   8.299  10.410  10.767 -0.5058  0.5373 -0.4572
  987MOL0     C33167   8.398  10.378  10.672 -0.1498  0.0524  0.5474
  987MOL0     C33168   8.402  10.249  10.616 -0.1566  0.5491  0.3617
  987MOL0     O33169   8.481  10.195  10.519  0.1843  0.1379 -0.3016
  987MOL0     C33170   8.596  10.266  10.474  0.1105 -0.0756 -0.1107
  987MOL0     C33171   8.561  10.381  10.372 -0.2287  0.4755  0.0603
  987MOL0     C33172   8.698  10.447  10.326  0.0094 -0.0573 -0.4347
  987MOL0     C33173   8.691  10.452  10.170 -0.0336 -0.9430  1.0264
  987MOL0     C33174   8.802  10.524  10.098 -0.0940  0.8098 -0.2449
  987MOL0     C33175   8.888  10.566  10.030  0.3287 -0.1127 -0.0107
  987MOL0     C33176   8.306  10.158  10.653 -0.9179 -0.2649 -0.6547
  987MOL0     C33177   8.209  10.190  10.749 -0.4483  0.1758 -0.7071
  987MOL0     H33178   7.840  10.560  10.872  1.4768 -3.5135 -0.4095
  987MOL0     H33179   7.646  10.598  11.031  1.3561  2.3625 -1.0584
  987MOL0     H33180   7.673  10.464  11.462 -1.9816 -1.1980 -0.5999
  987MOL0     H33181   7.744  10.628  11.452  0.6834 -0.3950 -3.3230
  987MOL0     H33182   7.530  10.712  11.493  1.1453 -0.4770 -1.1321
  987MOL0     H33183   7.445  10.570  11.448  0.1601 -0.7881  1.1708
  987MOL0     H33184   7.524  10.437  11.643  0.6403 -0.1183  0.3058
  987MOL0     H33185   7.628  10.568  11.694  0.3599  0.3794  0.0735
  987MOL0     H33186   7.456  10.708  11.744  3.3419 -0.8378 -1.4902
  987MOL0     H33187   7.334  10.582  11.686  0.1463 -0.3542 -0.2840
  987MOL0     H33188   7.421  10.433  11.857  1.4849  0.3009 -3.4746
  987MOL0     H33189   7.509  10.577  11.922 -0.4528  1.0130  0.5008
  987MOL0     H33190   7.211  10.522  11.906  1.1797 -0.9463 -2.7853
  987MOL0     H33191   7.305  10.528  12.052 -2.5224  1.3737 -0.3080
  987MOL0     H33192   7.249  10.741  12.073  0.8821 -0.1148  0.2572
  987MOL0     H33193   7.342  10.790  11.939 -1.7687  2.4357 -3.5768
  987MOL0     H33194   7.142  10.744  11.787 -2.5177 -1.0414 -1.2383
  987MOL0     H33195   7.131  10.869  11.912  1.4034 -0.3987  1.4552
  987MOL0     H33196   6.999  10.752  12.164  1.5096 -1.0016  0.1135
  987MOL0     H33197   6.671  10.703  12.186 -5.3426 -3.3375  2.0578
  987MOL0     H33198   6.642  10.564  12.112 -2.1037  3.0618  0.9895
  987MOL0     H33199   6.871  10.575  12.309  0.4701  0.1454 -0.5445
  987MOL0     H33200   6.784  10.436  12.236 -2.2317 -0.9282  1.9170
  987MOL0     H33201   6.650  10.649  12.419 -1.6128 -0.7803  4.0510
  987MOL0     H33202   6.736  10.517  12.491  0.4384 -0.7709 -0.4790
  987MOL0     H33203   6.525  10.411  12.477 -1.8582  0.5832 -0.2247
  987MOL0     H33204   6.600  10.358  12.332 -0.3639 -0.2020  1.1311
  987MOL0     H33205   6.400  10.703  12.151  1.9956 -0.3553 -0.4132
  987MOL0     H33206   6.286  10.886  12.072  2.7662 -1.3664  1.6705
  987MOL0     H33207   6.144  10.946  12.167  0.4286  2.4224 -1.4502
  987MOL0     H33208   6.293  11.033  12.177 -0.8099  0.6534  0.8132
  987MOL0     H33209   5.962  11.066  12.672  0.7697 -0.5198 -5.5746
  987MOL0     H33210   5.879  11.291  12.746  0.7047  1.1528 -0.3885
  987MOL0     H33211   5.938  11.658  12.667 -1.2878  0.0968  0.0477
  987MOL0     H33212   5.871  11.493  12.662 -0.4850 -1.3629  1.5957
  987MOL0     H33213   5.843  11.522  12.919  2.2306 -0.1251 -0.0551
  987MOL0     H33214   5.879  11.695  12.894 -0.0770  2.9238 -3.2147
  987MOL0     H33215   5.648  11.568  12.758 -2.1208 -1.3550  2.6091
  987MOL0     H33216   5.701  11.743  12.754  2.4066 -0.3705  0.1176
  987MOL0     H33217   5.619  11.608  13.022 -3.3787  0.8069  0.3538
  987MOL0     H33218   5.678  11.773  12.986  0.8381  0.3912  0.7146
  987MOL0     H33219   5.419  11.638  12.908 -0.0037 -0.0086  0.4512
  987MOL0     H33220   5.462  11.796  12.845 -0.5569 -0.9723  0.8002
  987MOL0     H33221   5.407  11.748  13.133 -3.7604 -0.0377  0.1283
  987MOL0     H33222   5.459  11.907  13.059 -0.4716  1.2920  0.3879
  987MOL0     H33223   5.196  11.747  12.994 -0.4126  1.0261 -1.0636
  987MOL0     H33224   5.254  11.875  12.912 -0.3094 -0.4059  0.2964
  987MOL0     H33225   5.248  12.015  13.122  0.4009 -0.1814 -2.8465
  987MOL0     H33226   5.202  11.859  13.210 -0.9779 -0.9890 -1.3063
  987MOL0     H33227   6.276  11.444  12.708 -0.5039  0.3973  1.7449
  987MOL0     H33228   6.353  11.224  12.633 -0.0310  1.1220 -1.3004
  987MOL0     H33229   6.246  10.765  12.610  0.3736  0.4364  0.0646
  987MOL0     H33230   6.352  10.566  12.547 -1.9939  0.2451  0.3531
  987MOL0     H33231   7.902  10.507  11.362  2.1730  2.0581  0.5173
  987MOL0     H33232   8.092  10.487  11.208  0.2646  4.1845 -0.0374
  987MOL0     H33233   8.295  10.509  10.810  0.1953 -0.6307  2.5753
  987MOL0     H33234   8.480  10.443  10.643 -0.4427  0.2043  0.0497
  987MOL0     H33235   8.645  10.309  10.561 -1.1761 -1.3819  1.3235
  987MOL0     H33236   8.671  10.193  10.441 -1.7171 -1.7723 -0.8052
  987MOL0     H33237   8.489  10.450  10.418  0.0394  1.1989 -0.5833
  987MOL0     H33238   8.507  10.335  10.289 -1.7718  0.3496  1.0918
  987MOL0     H33239   8.787  10.386  10.346  0.7005  1.2641  0.6816
  987MOL0     H33240   8.702  10.548  10.368  1.8099  0.9325 -2.7118
  987MOL0     H33241   8.601  10.503  10.136 -0.0206  0.1134  2.4740
  987MOL0     H33242   8.694  10.349  10.136  2.2557 -0.6676  0.1764
  987MOL0     H33243   8.962  10.603   9.962  0.2407 -0.7592 -0.4645
  987MOL0     H33244   8.299  10.056  10.617  1.7538 -1.7981  2.6205
  987MOL0     H33245   8.131  10.118  10.774 -2.7829  2.7271 -0.0909
  988MOL0     O33246   7.855   4.505   4.544  0.3161  0.3660 -0.6214
  988MOL0     C33247   7.975   4.511   4.504 -0.2708  0.1979 -0.8613
  988MOL0     O33248   8.035   4.616   4.432 -0.8696  0.4572 -0.3549
  988MOL0     C33249   7.965   4.720   4.382  0.7028  0.5175  0.1133
  988MOL0     C33250   7.821   4.715   4.354  0.3114 -0.4523  0.0771
  988MOL0     C33251   7.765   4.837   4.295  0.2583 -0.0946 -0.1015
  988MOL0     C33252   7.832   4.956   4.273 -0.9891 -0.6600  0.0877
  988MOL0     O33253   7.780   5.075   4.233 -0.3494  0.1665 -0.1116
  988MOL0     C33254   7.640   5.097   4.206 -0.5458 -0.3637  0.3208
  988MOL0     C33255   7.595   5.039   4.068 -0.2299  0.0035 -0.4193
  988MOL0     C33256   7.457   5.085   4.030 -0.7014  0.1901  0.2553
  988MOL0     C33257   7.456   5.232   3.994 -0.8451 -0.2571  0.3052
  988MOL0     C33258   7.316   5.269   3.949 -0.5052 -0.7812  0.3607
  988MOL0     C33259   7.292   5.422   3.963 -0.6401  0.1135 -0.9500
  988MOL0     C33260   7.148   5.448   3.905 -0.7127 -0.5741 -0.1998
  988MOL0     C33261   7.036   5.414   4.009 -0.0922  0.5094 -0.6636
  988MOL0     N33262   7.051   5.486   4.142 -0.2297 -0.2145  0.5047
  988MOL0     C33263   7.056   5.618   4.157 -0.2687 -0.5614  0.1815
  988MOL0     C33264   7.028   5.639   4.285 -0.4766  0.5908  0.7684
  988MOL0     C33265   7.032   5.773   4.358 -0.5040 -0.1484  0.9661
  988MOL0     C33266   6.902   5.848   4.360 -0.5680 -0.6200 -0.2195
  988MOL0     C33267   6.823   5.837   4.495 -0.9354  0.0287 -0.7229
  988MOL0     C33268   6.755   5.701   4.517  0.3893 -0.0277 -0.5485
  988MOL0     O33269   6.650   5.664   4.425  0.3493 -0.2014 -0.4666
  988MOL0     C33270   6.550   5.749   4.402  0.0063  0.5347  0.3505
  988MOL0     C33271   6.498   5.838   4.493 -0.2578  0.2937 -0.2526
  988MOL0     C33272   6.401   5.929   4.459 -0.3411  0.7637 -0.1617
  988MOL0     C33273   6.354   6.021   4.570  0.5188 -0.9233 -0.2333
  988MOL0     C33274   6.350   5.933   4.331 -0.1101  0.1230  0.5909
  988MOL0     C33275   6.243   6.016   4.277 -0.3446 -1.2500  0.1088
  988MOL0     O33276   6.172   5.977   4.162 -0.2709 -0.0668 -0.6783
  988MOL0     C33277   6.073   6.051   4.100  0.6911 -0.3230 -0.2951
  988MOL0     C33278   6.059   6.041   3.960 -0.5003 -0.1798 -0.2727
  988MOL0     C33279   5.956   6.111   3.893  0.2087  0.6205 -1.0460
  988MOL0     C33280   5.870   6.194   3.960  0.1769 -0.1328  0.3309
  988MOL0     O33281   5.762   6.263   3.912  0.2990  0.1488  0.6654
  988MOL0     C33282   5.747   6.249   3.766 -1.1838  0.4459 -0.0345
  988MOL0     C33283   5.620   6.330   3.727 -0.4449  0.5946 -0.7367
  988MOL0     C33284   5.493   6.244   3.738  0.0473 -0.2739 -0.5576
  988MOL0     C33285   5.362   6.321   3.700  0.0664  0.3162 -0.2355
  988MOL0     C33286   5.249   6.224   3.724  0.4601  0.1715 -0.0878
  988MOL0     C33287   5.119   6.297   3.691  0.1018 -0.3605  0.6782
  988MOL0     C33288   5.002   6.206   3.710 -0.9268 -0.4561 -0.5567
  988MOL0     C33289   4.877   6.304   3.714  0.2088  0.2140 -0.0392
  988MOL0    Cl33290   4.727   6.211   3.737  0.2070  0.1030 -0.0880
  988MOL0     C33291   5.872   6.179   4.100  0.6117  1.2797  0.0419
  988MOL0     C33292   5.977   6.125   4.166  0.7456 -0.3247 -0.2191
  988MOL0     O33293   6.229   6.130   4.328  0.0451  0.2211 -0.2287
  988MOL0     C33294   6.399   5.838   4.241 -0.0945  0.4961  1.4021
  988MOL0     C33295   6.497   5.740   4.270  0.4085 -0.3215  1.2855
  988MOL0     N33296   7.024   5.513   4.351 -0.2937 -0.5505  0.6928
  988MOL0     N33297   7.024   5.427   4.261 -0.7302 -0.4034 -0.0227
  988MOL0     C33298   7.966   4.955   4.301 -0.4929  0.8866 -0.4344
  988MOL0     C33299   8.030   4.836   4.349 -0.5775 -0.3010  0.2572
  988MOL0     C33300   8.068   4.397   4.547  0.0899  0.4951 -0.5117
  988MOL0     C33301   8.198   4.376   4.502  0.1110  0.3065  0.8085
  988MOL0     C33302   8.274   4.268   4.554 -0.1867  0.0919 -0.5957
  988MOL0     C33303   8.226   4.184   4.644 -0.1254 -0.7953  0.7101
  988MOL0     O33304   8.293   4.081   4.703  0.0965  0.0032  0.5698
  988MOL0     C33305   8.429   4.049   4.666 -0.0520  0.0071  0.0408
  988MOL0     C33306   8.437   3.949   4.555  0.3259  0.0401 -0.5783
  988MOL0     C33307   8.585   3.933   4.500 -0.5055  0.4476  0.7517
  988MOL0     C33308   8.664   3.832   4.580  0.3206  0.5357 -0.0594
  988MOL0     C33309   8.773   3.771   4.503 -0.5488 -0.2914 -0.1425
  988MOL0     C33310   8.861   3.713   4.444 -0.0316  0.2283  0.3110
  988MOL0     C33311   8.093   4.210   4.693  0.5777 -0.1719 -0.1871
  988MOL0     C33312   8.014   4.313   4.646 -0.8236  0.0649 -0.6395
  988MOL0     H33313   7.771   4.621   4.375  1.7205 -0.6514  3.1077
  988MOL0     H33314   7.657   4.841   4.287  0.1823  1.4617  1.1970
  988MOL0     H33315   7.569   5.063   4.281 -4.2758  0.4522 -2.5659
  988MOL0     H33316   7.631   5.205   4.214 -0.6659 -0.4020  0.7072
  988MOL0     H33317   7.664   5.066   3.987  0.2843 -0.9158 -0.3122
  988MOL0     H33318   7.609   4.931   4.080  2.2352  0.2328 -0.5743
  988MOL0     H33319   7.418   5.041   3.938 -1.7791  2.6635 -0.5422
  988MOL0     H33320   7.376   5.056   4.098  0.7266 -3.1449  0.7511
  988MOL0     H33321   7.475   5.309   4.069 -2.8900  2.3051 -1.6105
  988MOL0     H33322   7.524   5.257   3.911 -0.4064  0.7395  0.9393
  988MOL0     H33323   7.300   5.236   3.846  3.0767  0.9162 -0.8967
  988MOL0     H33324   7.244   5.204   3.999  0.9569 -1.6797  1.3994
  988MOL0     H33325   7.305   5.463   4.064 -2.7134  4.4981 -2.2018
  988MOL0     H33326   7.354   5.482   3.895 -3.9353  3.8758 -0.9714
  988MOL0     H33327   7.146   5.554   3.879  1.4666 -0.5227 -0.3940
  988MOL0     H33328   7.131   5.393   3.812  0.9564  0.0606 -0.9273
  988MOL0     H33329   7.032   5.305   4.023 -0.7451  0.5242 -0.6842
  988MOL0     H33330   6.942   5.446   3.963 -2.1783  0.4339  3.1381
  988MOL0     H33331   7.064   5.701   4.088 -2.8430  1.5914  2.2486
  988MOL0     H33332   7.060   5.749   4.461  3.5950  2.0590  0.5635
  988MOL0     H33333   7.112   5.838   4.322  1.8402 -1.7677  2.8995
  988MOL0     H33334   6.845   5.810   4.275  2.0292 -2.4036 -1.2894
  988MOL0     H33335   6.935   5.949   4.335 -0.5195 -0.7244 -0.5819
  988MOL0     H33336   6.753   5.921   4.487  1.2570  2.2417  1.5958
  988MOL0     H33337   6.878   5.863   4.586 -1.7569  2.7890 -0.9082
  988MOL0     H33338   6.727   5.695   4.623 -0.8151 -0.3163 -0.8647
  988MOL0     H33339   6.838   5.632   4.501  2.5659  2.6832 -1.6390
  988MOL0     H33340   6.546   5.851   4.590  1.0424  0.3158 -0.8740
  988MOL0     H33341   6.413   6.001   4.660  2.1180  1.5579 -0.6457
  988MOL0     H33342   6.354   6.126   4.541 -2.0414 -0.4688  1.0942
  988MOL0     H33343   6.259   5.986   4.611  1.9902 -2.5554  2.0107
  988MOL0     H33344   6.131   5.980   3.906  0.3428 -0.0780  0.6981
  988MOL0     H33345   5.949   6.096   3.786  1.2722 -0.4648 -0.9740
  988MOL0     H33346   5.838   6.287   3.718 -0.8851 -1.9327 -1.5228
  988MOL0     H33347   5.729   6.143   3.744 -2.1651  0.3851  0.9772
  988MOL0     H33348   5.617   6.429   3.773  0.4724  0.1821  0.2495
  988MOL0     H33349   5.627   6.342   3.619 -2.0715 -1.4146 -1.1282
  988MOL0     H33350   5.487   6.233   3.847 -0.3376  0.7760 -0.4573
  988MOL0     H33351   5.499   6.145   3.693 -1.5060  0.4776 -2.5750
  988MOL0     H33352   5.355   6.406   3.768  0.8132 -0.3153  0.6690
  988MOL0     H33353   5.366   6.360   3.598  0.6939  3.0383  0.7570
  988MOL0     H33354   5.241   6.185   3.826 -1.3008  0.6993  0.0142
  988MOL0     H33355   5.262   6.127   3.676  0.1659  0.9503 -1.7994
  988MOL0     H33356   5.107   6.391   3.745 -2.8651  0.1411 -0.6124
  988MOL0     H33357   5.113   6.329   3.587 -1.7027  0.4970  1.0024
  988MOL0     H33358   5.014   6.149   3.803 -1.0167  0.8063  0.2437
  988MOL0     H33359   4.990   6.138   3.625 -1.2345  0.8134 -1.5630
  988MOL0     H33360   4.865   6.356   3.619  3.9647 -1.5787 -1.7100
  988MOL0     H33361   4.893   6.375   3.796 -3.8614  1.7438 -0.3045
  988MOL0     H33362   5.796   6.230   4.159 -0.2228  0.2911 -0.1339
  988MOL0     H33363   5.983   6.125   4.274  0.0166 -2.2991 -0.1273
  988MOL0     H33364   6.366   5.838   4.137  0.2917 -1.5800  1.2364
  988MOL0     H33365   6.547   5.679   4.196  2.2014  1.4192  0.9785
  988MOL0     H33366   8.018   5.050   4.292 -1.8308  1.7287  0.3506
  988MOL0     H33367   8.138   4.846   4.360 -0.5463  1.3914 -1.0804
  988MOL0     H33368   8.236   4.454   4.437  1.2539  1.3364  2.6253
  988MOL0     H33369   8.369   4.247   4.505  0.4956 -3.2358  1.7735
  988MOL0     H33370   8.487   4.140   4.647  3.2626 -1.5551  1.6484
  988MOL0     H33371   8.473   4.010   4.759 -3.0061  2.9023  2.8986
  988MOL0     H33372   8.371   3.987   4.477  0.3519  4.4896  1.2923
  988MOL0     H33373   8.404   3.851   4.591  2.2014 -0.9248 -1.3704
  988MOL0     H33374   8.631   4.032   4.507  1.4689 -0.5401  3.9141
  988MOL0     H33375   8.579   3.904   4.394 -1.6355  2.3176  0.2474
  988MOL0     H33376   8.600   3.747   4.604 -0.7430  1.7485  1.6189
  988MOL0     H33377   8.708   3.863   4.676 -0.8944 -0.8691  0.9869
  988MOL0     H33378   8.925   3.644   4.392 -1.6216 -0.6279 -0.5642
  988MOL0     H33379   8.044   4.148   4.768 -1.9654  0.9904 -0.8103
  988MOL0     H33380   7.910   4.325   4.675  0.1750  2.3784  2.5650
  989MOL0     O33381   1.626   5.679   9.488 -0.2891 -0.1461  0.1413
  989MOL0     C33382   1.714   5.685   9.572  0.6975  0.7334 -0.2312
  989MOL0     O33383   1.694   5.702   9.703  0.0804  0.5845 -0.7773
  989MOL0     C33384   1.567   5.719   9.745 -0.9587 -0.1912 -0.5239
  989MOL0     C33385   1.533   5.839   9.814  0.7706 -0.7182  0.5336
  989MOL0     C33386   1.399   5.867   9.856 -0.1425  0.0413  0.6843
  989MOL0     C33387   1.293   5.782   9.836  0.1991  0.7067  0.3221
  989MOL0     O33388   1.160   5.802   9.871  0.3028  0.3243 -0.2956
  989MOL0     C33389   1.129   5.888   9.979 -0.3067  0.1226 -0.2775
  989MOL0     C33390   0.987   5.922   9.966  0.3680  0.0764 -0.4586
  989MOL0     C33391   0.937   6.001  10.092 -0.9629  0.6721  0.8858
  989MOL0     C33392   0.796   6.056  10.082 -0.4935 -0.2035 -0.7688
  989MOL0     C33393   0.693   5.949  10.106 -0.0799 -0.2953  0.0060
  989MOL0     C33394   0.546   5.989  10.072 -0.2184 -0.3889  0.1086
  989MOL0     C33395   0.482   6.068  10.192  0.5883  0.0623 -0.2311
  989MOL0     C33396   0.339   6.094  10.160  0.5641 -0.2102 -0.1317
  989MOL0     N33397   0.253   5.970  10.179  0.8562  0.5418 -0.2094
  989MOL0     C33398   0.231   5.859  10.098 -0.2907  1.0257  1.0776
  989MOL0     C33399   0.140   5.779  10.158  0.1835  0.1488 -0.5007
  989MOL0     C33400   0.082   5.652  10.106 -0.6930 -0.1946 -0.8560
  989MOL0     C33401   0.100   5.534  10.210  0.2896 -0.8482 -0.1093
  989MOL0     C33402   0.039   5.401  10.174 -0.1292  0.2372  0.2001
  989MOL0     C33403  -0.111   5.397  10.135  0.2565  0.5927  0.1142
  989MOL0     O33404  -0.130   5.423   9.998  0.0746 -0.1891 -0.1825
  989MOL0     C33405  -0.258   5.413   9.944 -0.0473 -1.0702  0.1969
  989MOL0     C33406  -0.272   5.462   9.818 -0.1397 -0.0777  0.1680
  989MOL0     C33407  -0.387   5.433   9.740  0.6395  0.3676 -0.2830
  989MOL0     C33408  -0.383   5.473   9.595 -0.4901 -0.6891  0.5209
  989MOL0     C33409  -0.506   5.383   9.803 -0.6229  0.8478  0.4442
  989MOL0     C33410  -0.629   5.354   9.726 -0.4653 -0.0454 -0.4286
  989MOL0     O33411  -0.653   5.413   9.608 -0.4293 -0.0338 -0.4170
  989MOL0     C33412  -0.772   5.413   9.559 -0.0317  0.5963 -0.0712
  989MOL0     C33413  -0.800   5.339   9.443 -0.2475  0.1171 -0.4662
  989MOL0     C33414  -0.922   5.344   9.384  0.7709 -0.6320 -0.2376
  989MOL0     C33415  -1.034   5.415   9.435 -0.9084 -0.2140  0.2384
  989MOL0     O33416  -1.155   5.423   9.373 -0.3112 -0.2582 -0.3169
  989MOL0     C33417  -1.253   5.514   9.403 -0.1235  1.0581  0.1069
  989MOL0     C33418  -1.230   5.656   9.339 -0.0892  0.0400  0.1822
  989MOL0     C33419  -1.345   5.746   9.384  0.2385  0.7132  0.3057
  989MOL0     C33420  -1.460   5.741   9.286 -0.3976  0.5674  0.2547
  989MOL0     C33421  -1.562   5.849   9.302 -0.2471  0.2072 -0.8249
  989MOL0     C33422  -1.694   5.792   9.264 -0.9332  0.6726  0.4537
  989MOL0     C33423  -1.797   5.900   9.260 -0.3030 -0.2097 -0.3768
  989MOL0     C33424  -1.944   5.858   9.236  0.1051 -0.4306 -0.2872
  989MOL0    Cl33425  -2.041   6.001   9.245  0.1556  0.3516  0.2502
  989MOL0     C33426  -1.006   5.485   9.557 -1.8265  0.1553 -0.4170
  989MOL0     C33427  -0.874   5.486   9.615  0.0851 -0.0641  0.4607
  989MOL0     O33428  -0.705   5.278   9.775  0.1812 -0.0506 -0.8944
  989MOL0     C33429  -0.492   5.346   9.929 -0.0522 -1.0267 -0.4522
  989MOL0     C33430  -0.374   5.362   9.997  0.7405 -0.0372  0.1438
  989MOL0     N33431   0.101   5.851  10.277  0.1307  0.1313  0.1915
  989MOL0     N33432   0.172   5.955  10.281  0.3497 -0.2448 -0.4456
  989MOL0     C33433   1.333   5.654   9.785  0.0340  0.4863 -0.8731
  989MOL0     C33434   1.457   5.624   9.726  0.0298  0.1225 -0.4787
  989MOL0     C33435   1.858   5.690   9.528  0.1908  0.0498  0.4786
  989MOL0     C33436   1.892   5.680   9.393  0.3264 -0.5353 -0.4971
  989MOL0     C33437   2.022   5.688   9.351  0.0292  0.1115  0.4573
  989MOL0     C33438   2.120   5.698   9.437 -0.8560 -0.0983 -1.1881
  989MOL0     O33439   2.250   5.698   9.387  0.6177 -0.7015 -0.6651
  989MOL0     C33440   2.304   5.568   9.367 -0.2306  0.9578  0.2820
  989MOL0     C33441   2.431   5.573   9.272 -0.4505  0.4921  0.2759
  989MOL0     C33442   2.532   5.695   9.303  0.8822  0.1063  0.1145
  989MOL0     C33443   2.637   5.649   9.394  1.0532 -1.5039  0.2014
  989MOL0     C33444   2.715   5.763   9.448 -0.2682 -0.2317  0.2088
  989MOL0     C33445   2.777   5.843   9.512 -0.0855  0.1924 -0.0841
  989MOL0     C33446   2.097   5.708   9.573  0.3604  0.8146 -0.2171
  989MOL0     C33447   1.961   5.699   9.618 -0.0217  0.5380 -0.6955
  989MOL0     H33448   1.606   5.914   9.843  1.5771 -1.4171  0.3625
  989MOL0     H33449   1.399   5.956   9.918  2.0772 -0.2257  1.1574
  989MOL0     H33450   1.132   5.833  10.073 -1.1504 -1.2903 -1.0478
  989MOL0     H33451   1.186   5.981   9.986 -0.6740  0.4237 -1.0904
  989MOL0     H33452   0.979   5.981   9.875 -1.9210  0.7992  0.1671
  989MOL0     H33453   0.920   5.835   9.965  0.2652  0.1316  0.3861
  989MOL0     H33454   0.947   5.939  10.181  1.7651  2.0423  1.6567
  989MOL0     H33455   1.008   6.084  10.098  1.6379 -1.1734 -1.6764
  989MOL0     H33456   0.785   6.135  10.156 -1.9005  0.3870 -1.5614
  989MOL0     H33457   0.787   6.099   9.982 -0.2726 -2.4653 -1.8277
  989MOL0     H33458   0.714   5.859  10.047  0.3929 -1.1974  1.5066
  989MOL0     H33459   0.702   5.916  10.210  0.9178  0.9019  0.3192
  989MOL0     H33460   0.531   6.042   9.977  2.2882  1.4513  0.6677
  989MOL0     H33461   0.491   5.894  10.066 -2.5284  0.8028  1.1362
  989MOL0     H33462   0.481   6.000  10.278  1.8107 -0.3686 -0.5240
  989MOL0     H33463   0.542   6.158  10.205  0.8031 -0.2962  1.5494
  989MOL0     H33464   0.322   6.133  10.059 -0.7390  0.2478  0.2297
  989MOL0     H33465   0.292   6.165  10.230  1.1085 -1.5730  1.7007
  989MOL0     H33466   0.282   5.839  10.004  0.1663  0.4082  1.4551
  989MOL0     H33467  -0.025   5.668  10.088 -0.8380  1.4703  1.1395
  989MOL0     H33468   0.128   5.619  10.012 -0.1519  0.9653 -1.0090
  989MOL0     H33469   0.087   5.570  10.312 -0.2305 -0.9466 -0.1333
  989MOL0     H33470   0.207   5.515  10.217  0.6687  0.4425 -1.6794
  989MOL0     H33471   0.057   5.344  10.265 -0.6220  1.8912  1.3864
  989MOL0     H33472   0.099   5.372  10.087 -0.7139 -2.2563  0.5590
  989MOL0     H33473  -0.163   5.459  10.209 -3.3420 -4.2329  2.1318
  989MOL0     H33474  -0.149   5.297  10.156 -1.0133  0.7704 -1.1840
  989MOL0     H33475  -0.181   5.497   9.770 -0.1529 -3.0425 -2.3739
  989MOL0     H33476  -0.393   5.385   9.531 -1.6740 -0.5158  0.4583
  989MOL0     H33477  -0.457   5.548   9.566  1.9907  1.0203 -1.9447
  989MOL0     H33478  -0.289   5.522   9.567 -0.9389 -0.6620 -1.0214
  989MOL0     H33479  -0.728   5.274   9.396  1.0703  2.0288 -1.2180
  989MOL0     H33480  -0.949   5.280   9.301 -1.1221 -0.4256  0.1896
  989MOL0     H33481  -1.341   5.478   9.349  0.8876  2.3408 -2.6355
  989MOL0     H33482  -1.279   5.511   9.509 -1.5289  0.7188 -0.2228
  989MOL0     H33483  -1.132   5.687   9.377  1.0521 -0.1113 -2.4637
  989MOL0     H33484  -1.220   5.647   9.231  2.4921 -1.0277  0.4100
  989MOL0     H33485  -1.317   5.852   9.384 -0.7277  0.9915  1.1951
  989MOL0     H33486  -1.379   5.721   9.485 -2.0819  1.4445 -0.2416
  989MOL0     H33487  -1.431   5.736   9.181  1.2561  2.6646  0.5301
  989MOL0     H33488  -1.509   5.644   9.302  4.2949 -2.7467 -2.8742
  989MOL0     H33489  -1.527   5.937   9.247 -2.9110  2.8270  1.3429
  989MOL0     H33490  -1.580   5.878   9.405  0.5219 -0.6677 -0.4231
  989MOL0     H33491  -1.691   5.750   9.163 -0.7499 -0.0574  0.7559
  989MOL0     H33492  -1.738   5.714   9.327  2.0853 -1.0360  0.6328
  989MOL0     H33493  -1.771   5.964   9.175  1.0308  0.5065  0.5542
  989MOL0     H33494  -1.783   5.965   9.347  0.1787  1.2962 -1.5436
  989MOL0     H33495  -1.975   5.785   9.312 -0.8321 -0.0784 -0.3229
  989MOL0     H33496  -1.949   5.812   9.136  0.6902 -2.3560  0.5172
  989MOL0     H33497  -1.079   5.552   9.602  0.9831  1.7935  2.0594
  989MOL0     H33498  -0.852   5.543   9.705  2.0410  0.2785 -0.1905
  989MOL0     H33499  -0.578   5.303   9.978  1.6182 -1.7119  2.0531
  989MOL0     H33500  -0.378   5.320  10.097 -1.3696 -1.5485 -0.4906
  989MOL0     H33501   1.253   5.580   9.788  1.7352 -1.4586 -0.9340
  989MOL0     H33502   1.471   5.526   9.681  4.1502  0.2976  0.0544
  989MOL0     H33503   1.824   5.656   9.312 -0.0424  0.3502 -0.4625
  989MOL0     H33504   2.058   5.671   9.250 -0.5248 -1.0938  0.4459
  989MOL0     H33505   2.339   5.538   9.467  0.1368 -0.5289 -0.2665
  989MOL0     H33506   2.227   5.503   9.327 -0.4065  0.1486  1.8472
  989MOL0     H33507   2.392   5.579   9.169  3.1575  0.9961 -1.1955
  989MOL0     H33508   2.491   5.483   9.284  0.9132  1.7726  4.7794
  989MOL0     H33509   2.477   5.773   9.357 -0.3831  0.2633 -1.3246
  989MOL0     H33510   2.580   5.739   9.215 -0.9598  1.3583 -0.3332
  989MOL0     H33511   2.706   5.578   9.347 -0.4492 -1.6193 -1.9619
  989MOL0     H33512   2.597   5.589   9.476 -2.0199 -0.5609 -0.5020
  989MOL0     H33513   2.828   5.920   9.566 -2.3202  0.2622  2.1032
  989MOL0     H33514   2.167   5.715   9.656  0.8318  1.0228 -0.6298
  989MOL0     H33515   1.944   5.685   9.724 -0.6847 -0.0649 -0.8700
  990MOL0     O33516   7.889   5.354   0.096  0.2155  0.7052  0.0214
  990MOL0     C33517   7.829   5.354   0.202  0.2423  0.6080  0.0494
  990MOL0     O33518   7.888   5.354   0.324  0.2963 -0.9058 -1.2688
  990MOL0     C33519   8.020   5.356   0.346 -0.5435  0.5286  0.0445
  990MOL0     C33520   8.124   5.306   0.252  0.2213  0.0532 -0.6109
  990MOL0     C33521   8.253   5.284   0.298  0.2619  0.2516  0.3480
  990MOL0     C33522   8.288   5.319   0.429 -0.2625  0.0571 -0.8127
  990MOL0     O33523   8.410   5.301   0.491 -0.1517 -0.3678  0.3580
  990MOL0     C33524   8.487   5.197   0.433  0.3824  0.9952 -0.2907
  990MOL0     C33525   8.616   5.182   0.516 -0.0173 -0.2963 -0.3538
  990MOL0     C33526   8.697   5.064   0.452  0.0972 -0.1236 -0.5292
  990MOL0     C33527   8.829   5.025   0.534 -0.2973 -0.3333 -0.8270
  990MOL0     C33528   8.934   4.931   0.474 -0.0657  0.3513  0.5527
  990MOL0     C33529   9.022   4.882   0.585  0.0414  0.5390 -0.6440
  990MOL0     C33530   9.148   4.796   0.535 -0.0355  0.3319  0.3398
  990MOL0     C33531   9.264   4.887   0.480 -0.0621  0.5549 -1.0552
  990MOL0     N33532   9.393   4.816   0.477  0.3978  1.0975 -0.5866
  990MOL0     C33533   9.486   4.817   0.374 -0.3607  0.3793 -0.1427
  990MOL0     C33534   9.590   4.746   0.422 -0.3996 -0.5832  0.0905
  990MOL0     C33535   9.721   4.730   0.347 -0.5113 -0.2258  0.0106
  990MOL0     C33536   9.830   4.772   0.436 -0.3004 -0.8365  0.7463
  990MOL0     C33537   9.969   4.739   0.379  0.6836  0.9883 -0.5111
  990MOL0     C33538  10.078   4.766   0.481 -0.0155  0.3315 -0.9537
  990MOL0     O33539  10.206   4.775   0.417  0.2301 -0.4617 -0.5489
  990MOL0     C33540  10.314   4.849   0.468 -0.3224 -0.4970 -1.5421
  990MOL0     C33541  10.320   4.893   0.598 -0.5326  0.1141 -0.2023
  990MOL0     C33542  10.437   4.967   0.644  0.0195 -1.2689  0.4292
  990MOL0     C33543  10.429   5.016   0.782  0.6175  0.1831 -0.1974
  990MOL0     C33544  10.538   4.994   0.548 -0.4915  0.2470 -0.3736
  990MOL0     C33545  10.674   5.059   0.581  0.7159  0.9501  0.8336
  990MOL0     O33546  10.759   5.074   0.465 -0.3741  0.4734 -0.3692
  990MOL0     C33547  10.890   5.127   0.488 -0.1368 -0.5996  1.1709
  990MOL0     C33548  10.983   5.041   0.546 -0.3535 -0.0980 -0.7399
  990MOL0     C33549  11.112   5.095   0.571 -0.5432  0.3875  1.1704
  990MOL0     C33550  11.150   5.225   0.533  0.8162 -0.6399  0.7486
  990MOL0     O33551  11.279   5.269   0.554  0.2168  0.4606 -0.2676
  990MOL0     C33552  11.292   5.407   0.579 -0.6148 -0.4519 -1.0649
  990MOL0     C33553  11.419   5.447   0.655 -0.6253  0.3425  0.0002
  990MOL0     C33554  11.546   5.411   0.579  0.2659  0.6457  0.3136
  990MOL0     C33555  11.677   5.455   0.643  0.3232  0.2025  0.4588
  990MOL0     C33556  11.786   5.471   0.533 -0.8700  0.7431 -0.3875
  990MOL0     C33557  11.923   5.513   0.578  0.0748 -0.7796 -0.2590
  990MOL0     C33558  11.979   5.439   0.703 -0.0521  1.0956  0.1187
  990MOL0     C33559  12.127   5.449   0.726  0.2276  0.7504  0.0983
  990MOL0    Cl33560  12.168   5.331   0.857 -0.1552  0.3906 -0.0937
  990MOL0     C33561  11.049   5.308   0.476 -0.7099  0.6187  0.0604
  990MOL0     C33562  10.916   5.261   0.455  0.5131 -0.3787 -0.1683
  990MOL0     O33563  10.709   5.099   0.693  0.2527 -0.5678  0.7027
  990MOL0     C33564  10.515   4.955   0.414 -0.0370 -0.2337  0.1933
  990MOL0     C33565  10.404   4.882   0.371 -0.1998 -0.3766  0.0849
  990MOL0     N33566   9.564   4.709   0.553  0.5112 -0.1434 -0.7133
  990MOL0     N33567   9.441   4.741   0.582  0.2147 -0.5161  0.5805
  990MOL0     C33568   8.192   5.384   0.513 -0.1900  0.0613  0.9594
  990MOL0     C33569   8.058   5.395   0.468  0.1179  0.6622 -0.3215
  990MOL0     C33570   7.678   5.353   0.199 -0.7569  0.0891 -0.6421
  990MOL0     C33571   7.617   5.389   0.078  0.3317 -0.1244  1.0173
  990MOL0     C33572   7.478   5.380   0.079 -0.4932 -0.5519 -0.1977
  990MOL0     C33573   7.409   5.335   0.189  0.7244  1.1247  0.4161
  990MOL0     O33574   7.270   5.348   0.183 -0.3420  0.4539  0.2407
  990MOL0     C33575   7.183   5.250   0.253 -0.3046  0.3328  0.4642
  990MOL0     C33576   7.050   5.236   0.181  0.1602 -0.0701 -0.9052
  990MOL0     C33577   6.959   5.170   0.288  0.1725  0.1787 -0.7652
  990MOL0     C33578   6.840   5.110   0.200 -0.5319  0.3619 -0.8264
  990MOL0     C33579   6.868   4.995   0.112 -0.4276  0.0334  0.4354
  990MOL0     C33580   6.910   4.921   0.028  0.7831 -0.2220 -0.3802
  990MOL0     C33581   7.474   5.297   0.306  0.7667 -1.5967  0.2087
  990MOL0     C33582   7.611   5.304   0.312 -0.0364  0.4627 -0.0689
  990MOL0     H33583   8.108   5.275   0.150 -0.4718 -2.5983  0.2307
  990MOL0     H33584   8.323   5.237   0.230  0.9317  0.4858  0.8574
  990MOL0     H33585   8.427   5.106   0.433 -1.0596  1.9028  0.8392
  990MOL0     H33586   8.510   5.234   0.332  1.7990  3.1031  0.7283
  990MOL0     H33587   8.673   5.275   0.510 -1.7424  1.1081  2.6962
  990MOL0     H33588   8.605   5.151   0.620 -1.4784 -1.3261 -0.7730
  990MOL0     H33589   8.631   4.977   0.439 -1.4935  0.8663  0.6472
  990MOL0     H33590   8.726   5.096   0.352 -0.2346  2.0014  0.0073
  990MOL0     H33591   8.877   5.120   0.559  1.5440 -1.6969  1.1901
  990MOL0     H33592   8.780   4.980   0.621 -1.3552  2.1064 -0.0574
  990MOL0     H33593   8.895   4.841   0.426  2.3082  0.0040 -0.8853
  990MOL0     H33594   8.990   4.981   0.395 -3.2180 -0.9312 -2.7891
  990MOL0     H33595   9.053   4.973   0.638 -1.5139  0.8288 -0.1809
  990MOL0     H33596   8.969   4.820   0.657  1.9890  0.3486  0.6945
  990MOL0     H33597   9.183   4.753   0.629  2.1431  0.0038 -0.5778
  990MOL0     H33598   9.120   4.721   0.460  2.3414  1.8931 -2.3246
  990MOL0     H33599   9.282   4.973   0.545 -1.2241 -1.1463  1.7051
  990MOL0     H33600   9.226   4.927   0.386 -2.6583 -2.5357 -1.5028
  990MOL0     H33601   9.486   4.872   0.281  0.9555 -0.0896 -0.4392
  990MOL0     H33602   9.736   4.626   0.317 -0.8033 -1.0049  2.4255
  990MOL0     H33603   9.730   4.790   0.255 -0.5746 -0.6595 -0.2817
  990MOL0     H33604   9.824   4.745   0.542  2.9549 -0.5401  1.1224
  990MOL0     H33605   9.826   4.881   0.436  3.2196 -0.5706 -0.5534
  990MOL0     H33606   9.989   4.797   0.288  2.2888 -0.7538 -1.3310
  990MOL0     H33607   9.969   4.635   0.346  0.9330  0.4909  1.0205
  990MOL0     H33608  10.075   4.689   0.558 -2.4217  0.3855 -0.9203
  990MOL0     H33609  10.062   4.860   0.536 -1.5690 -0.1020 -0.6366
  990MOL0     H33610  10.233   4.867   0.657 -0.2511 -0.7988 -0.1766
  990MOL0     H33611  10.357   5.098   0.793 -2.1628 -2.2562  1.2283
  990MOL0     H33612  10.398   4.929   0.840  2.5565  0.8114  1.9072
  990MOL0     H33613  10.528   5.044   0.817  0.6279 -1.0169  0.7994
  990MOL0     H33614  10.941   4.945   0.575  2.4395 -0.4461  2.7464
  990MOL0     H33615  11.184   5.029   0.620 -0.6355 -1.7119 -1.3128
  990MOL0     H33616  11.298   5.457   0.482 -0.7040  1.0151 -0.3352
  990MOL0     H33617  11.208   5.452   0.632 -0.9489 -0.5240 -1.5239
  990MOL0     H33618  11.416   5.552   0.685 -0.8094  0.4396 -0.3541
  990MOL0     H33619  11.417   5.386   0.745 -1.7469  1.1082  0.5034
  990MOL0     H33620  11.543   5.453   0.478  0.0148 -0.9840 -0.3877
  990MOL0     H33621  11.557   5.303   0.565  0.7193  1.0031 -3.0777
  990MOL0     H33622  11.665   5.558   0.677 -0.1423  1.4677 -3.1544
  990MOL0     H33623  11.695   5.382   0.723 -0.8050  0.1128  0.6424
  990MOL0     H33624  11.749   5.552   0.469  1.1639  1.6168 -0.5611
  990MOL0     H33625  11.788   5.376   0.480 -2.7373 -0.1231  1.0062
  990MOL0     H33626  12.003   5.513   0.503  2.7785  0.5706  2.3868
  990MOL0     H33627  11.911   5.610   0.626  1.4703 -0.9311  0.4509
  990MOL0     H33628  11.955   5.335   0.680 -0.6576  1.2743 -0.0680
  990MOL0     H33629  11.922   5.454   0.794 -0.0495 -4.1944  1.2815
  990MOL0     H33630  12.161   5.548   0.756 -1.3261  0.5710  2.8625
  990MOL0     H33631  12.185   5.414   0.641 -0.6290 -1.6634  0.4069
  990MOL0     H33632  11.080   5.402   0.430 -1.5683  0.4568 -0.8782
  990MOL0     H33633  10.842   5.322   0.405  0.1878 -0.1842  0.5488
  990MOL0     H33634  10.600   4.981   0.352 -0.7199  1.3607 -0.1266
  990MOL0     H33635  10.380   4.858   0.268 -3.0754 -2.1179  1.0467
  990MOL0     H33636   8.233   5.408   0.610  1.2097  1.4569  0.0746
  990MOL0     H33637   7.979   5.426   0.536  0.2063  1.0713 -0.4050
  990MOL0     H33638   7.661   5.404  -0.020 -1.4007  2.3961  0.5325
  990MOL0     H33639   7.423   5.398  -0.013 -0.1633  1.7017 -0.0142
  990MOL0     H33640   7.232   5.152   0.247  2.7423  1.7963 -1.8862
  990MOL0     H33641   7.162   5.277   0.356  0.8586 -1.2537  1.1613
  990MOL0     H33642   7.058   5.162   0.101 -2.3462 -0.5783 -0.7560
  990MOL0     H33643   7.019   5.331   0.136  2.4334  0.6596 -1.0416
  990MOL0     H33644   6.912   5.234   0.364 -4.1019  0.0250 -2.9545
  990MOL0     H33645   7.006   5.084   0.337 -2.3905 -1.1636 -0.4585
  990MOL0     H33646   6.793   5.194   0.149 -4.7008 -0.6356  0.8771
  990MOL0     H33647   6.756   5.080   0.264  1.7669  0.5460  2.5374
  990MOL0     H33648   6.934   4.840  -0.037 -2.4866 -0.6716 -1.2250
  990MOL0     H33649   7.420   5.257   0.392  1.5539 -0.7711  1.1144
  990MOL0     H33650   7.669   5.261   0.392 -2.2122 -0.8370  0.8956
  991MOL0     O33651   6.274   4.675   4.180  0.0795 -0.6778 -0.0825
  991MOL0     C33652   6.278   4.739   4.072  0.5145  1.0385 -0.0130
  991MOL0     O33653   6.380   4.741   3.987 -0.5720  0.3668  0.4677
  991MOL0     C33654   6.491   4.666   4.026 -0.4902 -0.3997 -0.4114
  991MOL0     C33655   6.560   4.704   4.144 -0.5951 -0.6371  0.5040
  991MOL0     C33656   6.676   4.631   4.178 -0.5314  0.1038  0.6363
  991MOL0     C33657   6.724   4.531   4.094 -0.2761  0.2612 -0.6402
  991MOL0     O33658   6.823   4.444   4.121 -0.5194  0.4989 -0.6350
  991MOL0     C33659   6.895   4.459   4.247  0.2935 -0.5101 -0.3654
  991MOL0     C33660   7.024   4.377   4.245 -0.8788 -0.4272  0.1351
  991MOL0     C33661   7.082   4.339   4.385  0.5431  0.7764 -0.0113
  991MOL0     C33662   7.133   4.189   4.401 -0.0966  0.2704 -0.4814
  991MOL0     C33663   7.193   4.126   4.539 -0.4962 -0.2434  0.7481
  991MOL0     C33664   7.313   4.203   4.584  0.4683 -1.0286  0.5339
  991MOL0     C33665   7.353   4.163   4.727  0.6204  0.7595  0.5683
  991MOL0     C33666   7.482   4.233   4.776 -0.2642 -0.0322  0.0114
  991MOL0     N33667   7.476   4.381   4.782  0.4594  0.8848 -0.4345
  991MOL0     C33668   7.549   4.463   4.698  0.4895  0.0360 -0.5835
  991MOL0     C33669   7.537   4.591   4.749  0.1989 -0.3156 -0.1825
  991MOL0     C33670   7.602   4.708   4.682  0.5101  0.1074  0.0013
  991MOL0     C33671   7.598   4.834   4.773 -0.1266 -0.6602  0.3931
  991MOL0     C33672   7.630   4.966   4.704  0.6369 -1.1554  0.0528
  991MOL0     C33673   7.675   5.083   4.803  0.1371 -0.3017  0.2637
  991MOL0     O33674   7.572   5.111   4.906 -1.0531 -0.6827 -0.0671
  991MOL0     C33675   7.433   5.124   4.888 -0.4405 -0.2996  0.3922
  991MOL0     C33676   7.380   5.177   4.769 -0.3623  0.5361 -0.3990
  991MOL0     C33677   7.246   5.194   4.742  1.4196  0.2886 -0.6013
  991MOL0     C33678   7.203   5.244   4.611 -0.0560 -0.0046 -0.1529
  991MOL0     C33679   7.150   5.166   4.842 -0.4234 -0.3353  0.5178
  991MOL0     C33680   7.007   5.200   4.841  0.2149 -0.0886 -0.4027
  991MOL0     O33681   6.951   5.274   4.734  0.0150  0.1282 -0.6695
  991MOL0     C33682   6.824   5.332   4.748  0.8071  1.5236  0.0679
  991MOL0     C33683   6.780   5.383   4.865  0.1186 -0.0589  0.4184
  991MOL0     C33684   6.656   5.444   4.862 -0.4578  1.2990 -0.2958
  991MOL0     C33685   6.567   5.443   4.761  0.2503  0.4942  0.3811
  991MOL0     O33686   6.447   5.505   4.772  0.9638  0.1733  0.1585
  991MOL0     C33687   6.372   5.525   4.652 -0.3146  0.3350 -0.3040
  991MOL0     C33688   6.247   5.613   4.675  0.7112  0.8537 -0.9542
  991MOL0     C33689   6.129   5.588   4.585  0.3186  0.3270 -0.0424
  991MOL0     C33690   6.150   5.634   4.439 -0.8686  0.0673 -0.3885
  991MOL0     C33691   6.018   5.634   4.353  0.2977  0.3017 -0.0185
  991MOL0     C33692   5.934   5.757   4.357  0.2819 -0.0583 -0.0254
  991MOL0     C33693   5.797   5.738   4.296  0.3799  0.7278 -0.3639
  991MOL0     C33694   5.704   5.862   4.291 -0.5627  0.7160 -0.3338
  991MOL0    Cl33695   5.551   5.828   4.214 -0.0026 -0.5430 -0.0611
  991MOL0     C33696   6.607   5.376   4.642 -0.0040 -0.2776 -0.6175
  991MOL0     C33697   6.736   5.327   4.640 -0.5540  0.2016  0.0730
  991MOL0     O33698   6.944   5.147   4.929 -0.1071 -0.1022 -0.1879
  991MOL0     C33699   7.201   5.120   4.969 -0.3237 -0.3117 -0.1414
  991MOL0     C33700   7.336   5.088   4.983  0.4983  0.0971  0.1911
  991MOL0     N33701   7.453   4.585   4.852  0.7651 -0.3375 -0.1134
  991MOL0     N33702   7.437   4.460   4.884 -0.9540  0.7738 -0.1019
  991MOL0     C33703   6.661   4.503   3.980 -0.0022  1.0666 -0.2041
  991MOL0     C33704   6.533   4.567   3.948 -0.4818  0.6575 -0.2887
  991MOL0     C33705   6.150   4.791   4.030  0.6970  0.2831 -0.1892
  991MOL0     C33706   6.028   4.768   4.099  0.0101 -0.0766  0.1176
  991MOL0     C33707   5.911   4.833   4.059  0.2879 -0.9797  0.3891
  991MOL0     C33708   5.911   4.916   3.945  0.0468 -1.1790 -0.1844
  991MOL0     O33709   5.787   4.964   3.912  0.3536 -0.1728 -0.0896
  991MOL0     C33710   5.769   5.073   3.819 -0.4388 -0.1129 -0.1985
  991MOL0     C33711   5.619   5.098   3.799 -0.0056  0.6119 -0.9998
  991MOL0     C33712   5.540   4.978   3.773  0.3773 -1.2171 -0.1854
  991MOL0     C33713   5.394   5.007   3.748  1.1358  0.0041  0.5354
  991MOL0     C33714   5.308   4.893   3.801 -0.4205  1.0477 -0.8901
  991MOL0     C33715   5.230   4.810   3.852 -0.2560  0.0911  0.3515
  991MOL0     C33716   6.031   4.936   3.878 -0.3126  0.2195 -0.5789
  991MOL0     C33717   6.147   4.871   3.917  0.3162 -0.2557 -0.3681
  991MOL0     H33718   6.520   4.787   4.201  2.0428 -0.7350  2.6822
  991MOL0     H33719   6.724   4.653   4.273  1.2618  0.6520 -0.3588
  991MOL0     H33720   6.916   4.566   4.245  0.4043 -0.5363 -0.5869
  991MOL0     H33721   6.825   4.435   4.328 -0.1352 -0.8951 -0.8375
  991MOL0     H33722   6.999   4.287   4.188 -1.0656  0.7853 -1.8084
  991MOL0     H33723   7.104   4.425   4.189  1.2965 -1.7234  1.9812
  991MOL0     H33724   7.169   4.397   4.419 -0.3453  1.2497  1.5602
  991MOL0     H33725   7.008   4.361   4.463  1.3242 -1.0723  1.3286
  991MOL0     H33726   7.046   4.128   4.375 -1.3241  1.7412  0.0613
  991MOL0     H33727   7.213   4.169   4.329  1.4200  3.5100  0.1696
  991MOL0     H33728   7.118   4.146   4.617 -0.9702  2.8124 -0.3441
  991MOL0     H33729   7.208   4.018   4.535  0.6827 -0.1428  1.8770
  991MOL0     H33730   7.397   4.190   4.516 -0.8503  1.7429 -1.8272
  991MOL0     H33731   7.288   4.310   4.589 -2.1000 -1.3084 -2.9802
  991MOL0     H33732   7.277   4.191   4.800  0.7945  0.4668  0.8621
  991MOL0     H33733   7.368   4.055   4.730 -0.1623  0.6452  0.4236
  991MOL0     H33734   7.566   4.206   4.711 -2.5895 -2.3518 -2.2177
  991MOL0     H33735   7.502   4.203   4.880 -1.8010 -0.9329  0.0822
  991MOL0     H33736   7.595   4.445   4.602  1.2967  2.3379 -0.6870
  991MOL0     H33737   7.702   4.693   4.642  0.9471  1.2095  0.6628
  991MOL0     H33738   7.552   4.724   4.586  4.1567  1.4983 -1.8482
  991MOL0     H33739   7.673   4.833   4.853  0.2510  0.7505  0.1009
  991MOL0     H33740   7.495   4.838   4.808 -1.4550 -0.2223 -3.1543
  991MOL0     H33741   7.539   4.988   4.646 -0.8024 -0.3802  2.4551
  991MOL0     H33742   7.711   4.956   4.631  3.2450  0.4569  2.5005
  991MOL0     H33743   7.681   5.174   4.743 -1.6669 -0.3799 -0.0979
  991MOL0     H33744   7.775   5.080   4.847  0.0746  3.0599  0.8977
  991MOL0     H33745   7.456   5.191   4.692 -0.6533  1.7313 -0.4845
  991MOL0     H33746   7.127   5.178   4.569 -0.0934 -1.8117  2.5244
  991MOL0     H33747   7.164   5.346   4.621 -1.6650 -0.2288 -3.0846
  991MOL0     H33748   7.283   5.248   4.537  1.5155 -1.5111  1.3781
  991MOL0     H33749   6.832   5.396   4.960  2.4243  3.5397 -1.1551
  991MOL0     H33750   6.632   5.499   4.952  4.6267 -0.2430  2.4108
  991MOL0     H33751   6.427   5.577   4.573 -0.0824 -0.5202 -0.7140
  991MOL0     H33752   6.344   5.424   4.622  0.5599 -0.4194  1.2808
  991MOL0     H33753   6.205   5.583   4.771  3.1569  1.1806  0.2817
  991MOL0     H33754   6.257   5.721   4.689  0.3317  0.7832 -0.0774
  991MOL0     H33755   6.042   5.641   4.625 -0.0345  1.2112 -1.8979
  991MOL0     H33756   6.108   5.480   4.586 -0.9611  0.5561  1.7586
  991MOL0     H33757   6.181   5.739   4.434  2.4882 -0.7093  1.2294
  991MOL0     H33758   6.221   5.564   4.394 -1.0549 -3.0755  3.6426
  991MOL0     H33759   5.955   5.548   4.377 -1.1342  0.2684 -3.2654
  991MOL0     H33760   6.043   5.626   4.246  1.9812  0.8070  0.3198
  991MOL0     H33761   5.914   5.787   4.460 -1.6448  0.7453 -0.5942
  991MOL0     H33762   5.978   5.843   4.305 -0.5570  0.6609  0.4230
  991MOL0     H33763   5.743   5.672   4.364 -2.3355 -0.1822 -3.1621
  991MOL0     H33764   5.818   5.692   4.198  5.1196  0.6032  0.4808
  991MOL0     H33765   5.754   5.944   4.238  2.1405 -0.9491 -0.5157
  991MOL0     H33766   5.686   5.911   4.388 -2.7140  1.1691 -0.9051
  991MOL0     H33767   6.547   5.371   4.552  0.1317  0.0859 -0.7321
  991MOL0     H33768   6.778   5.288   4.548 -2.0663 -3.5670  0.7813
  991MOL0     H33769   7.141   5.111   5.058  0.9185  0.7109  0.8419
  991MOL0     H33770   7.366   5.045   5.078 -0.2149 -0.6966  0.0700
  991MOL0     H33771   6.695   4.416   3.924 -0.5107  0.1401  0.8922
  991MOL0     H33772   6.470   4.540   3.864 -0.1579  0.1103 -0.3600
  991MOL0     H33773   6.033   4.716   4.194  1.3748  0.5955  0.4434
  991MOL0     H33774   5.824   4.832   4.124 -0.3682 -0.9400 -0.4674
  991MOL0     H33775   5.825   5.161   3.853  1.1891 -1.5910  1.1449
  991MOL0     H33776   5.821   5.049   3.726  0.0130 -1.4530  0.3779
  991MOL0     H33777   5.622   5.170   3.717  2.7175  1.4971 -0.2409
  991MOL0     H33778   5.566   5.150   3.879  0.6444 -0.4622  0.1642
  991MOL0     H33779   5.556   4.913   3.860 -2.6445 -2.4378 -0.3933
  991MOL0     H33780   5.573   4.918   3.688 -0.3793 -2.1513  0.1479
  991MOL0     H33781   5.377   5.030   3.643 -1.5943  3.1495  1.4908
  991MOL0     H33782   5.351   5.090   3.805 -2.6572 -1.2961 -0.1569
  991MOL0     H33783   5.155   4.745   3.890 -1.2948  1.0984  0.0709
  991MOL0     H33784   6.050   4.994   3.788  0.1317  2.5445  0.9412
  991MOL0     H33785   6.230   4.891   3.851  0.9772  0.0357  0.5342
  992MOL0     O33786   2.633   5.715   4.117 -0.2597 -0.1977 -0.0685
  992MOL0     C33787   2.628   5.590   4.070 -0.9681 -0.2348  0.3125
  992MOL0     O33788   2.731   5.515   4.022 -0.6215  0.2677 -0.2416
  992MOL0     C33789   2.866   5.539   4.019  0.5649  0.2050 -0.8782
  992MOL0     C33790   2.925   5.662   4.043  0.1063  0.6123  0.8903
  992MOL0     C33791   3.063   5.685   4.026  1.2275 -0.8090 -0.0754
  992MOL0     C33792   3.149   5.583   4.004  0.0874  0.2290  0.3458
  992MOL0     O33793   3.286   5.595   3.996 -0.0301  0.1664  0.0902
  992MOL0     C33794   3.353   5.719   3.989  0.2462  0.1186  0.2148
  992MOL0     C33795   3.497   5.701   3.939 -0.0761 -0.5480  0.5371
  992MOL0     C33796   3.582   5.630   4.045  0.4170 -0.0942  0.3216
  992MOL0     C33797   3.730   5.610   4.004  0.0884 -0.4807 -0.4074
  992MOL0     C33798   3.802   5.514   4.092 -0.3063 -0.0977 -0.3205
  992MOL0     C33799   3.946   5.483   4.029  0.6768 -1.0568 -0.8716
  992MOL0     C33800   4.020   5.371   4.104  0.3132 -0.2263  0.2229
  992MOL0     C33801   4.171   5.385   4.092 -0.1449 -0.0861 -0.4921
  992MOL0     N33802   4.237   5.346   3.967  0.0459  0.3907  1.5130
  992MOL0     C33803   4.202   5.377   3.836 -0.3893 -0.2954 -0.2142
  992MOL0     C33804   4.264   5.289   3.757  0.2501  0.6139 -0.0789
  992MOL0     C33805   4.274   5.282   3.607  0.6218  0.1326  0.0901
  992MOL0     C33806   4.168   5.182   3.542  0.4291  0.5092 -0.1527
  992MOL0     C33807   4.168   5.196   3.389  0.1591 -0.1516 -0.3139
  992MOL0     C33808   4.101   5.077   3.314 -0.1856  0.2759  0.5053
  992MOL0     O33809   3.981   5.038   3.381  0.0312  0.0648  0.8404
  992MOL0     C33810   3.864   5.102   3.341 -0.2520  0.1064  0.0322
  992MOL0     C33811   3.860   5.214   3.251  1.1156 -0.2525 -0.8256
  992MOL0     C33812   3.741   5.261   3.201  0.2513 -0.6001  0.7199
  992MOL0     C33813   3.741   5.390   3.112 -0.5440 -0.3543 -0.8628
  992MOL0     C33814   3.616   5.199   3.234 -0.3185 -0.2097 -0.1418
  992MOL0     C33815   3.484   5.234   3.186 -0.4929  0.1305 -0.5242
  992MOL0     O33816   3.402   5.122   3.175  0.2456  0.2966 -0.4065
  992MOL0     C33817   3.269   5.132   3.136  0.0850  0.1983  1.0176
  992MOL0     C33818   3.202   5.239   3.073  0.2527  0.8309 -0.3427
  992MOL0     C33819   3.065   5.227   3.036  0.7948  0.5385 -0.3055
  992MOL0     C33820   2.992   5.113   3.049  0.4745  0.9999 -0.2457
  992MOL0     O33821   2.863   5.111   3.003  0.2802 -0.0202 -0.1307
  992MOL0     C33822   2.798   4.994   2.955  0.0608  0.9432 -0.7191
  992MOL0     C33823   2.666   5.032   2.885 -0.5127 -0.0859 -0.0325
  992MOL0     C33824   2.581   4.902   2.864 -0.6180 -0.2204 -0.1336
  992MOL0     C33825   2.425   4.928   2.868 -0.3582  0.3156  0.9525
  992MOL0     C33826   2.359   4.829   2.776 -0.3103  0.1576 -0.0788
  992MOL0     C33827   2.212   4.871   2.760  0.8920 -0.1439 -0.0671
  992MOL0     C33828   2.130   4.786   2.661 -0.1089  0.0844 -0.5924
  992MOL0     C33829   2.007   4.863   2.605 -0.9675  0.2650  0.6107
  992MOL0    Cl33830   1.888   4.930   2.715  0.1721 -0.1443 -0.3611
  992MOL0     C33831   3.056   5.000   3.111 -0.6174  0.5385  0.5378
  992MOL0     C33832   3.187   5.018   3.161 -0.1760  0.0583 -0.1437
  992MOL0     O33833   3.455   5.346   3.143 -0.6796 -0.2273 -0.4701
  992MOL0     C33834   3.624   5.092   3.332  0.4449 -0.1008  0.3696
  992MOL0     C33835   3.745   5.046   3.387 -0.2064 -0.8451  0.7183
  992MOL0     N33836   4.340   5.199   3.834 -0.0749  0.2843 -0.0421
  992MOL0     N33837   4.323   5.243   3.963  0.6200  0.1083 -0.3818
  992MOL0     C33838   3.091   5.455   3.978  0.3728 -0.2613  1.0583
  992MOL0     C33839   2.959   5.438   3.978 -0.1114  0.5063 -0.1399
  992MOL0     C33840   2.504   5.531   4.036 -0.0804 -0.0357  0.0447
  992MOL0     C33841   2.500   5.406   3.978 -0.1666  0.2942 -0.4149
  992MOL0     C33842   2.375   5.342   3.952 -0.3922 -0.3202 -0.1435
  992MOL0     C33843   2.256   5.414   3.973 -0.5911  0.0501  0.6859
  992MOL0     O33844   2.136   5.373   3.930 -0.2945  0.6247  0.4262
  992MOL0     C33845   2.113   5.243   3.873 -0.3269  0.9377 -0.1049
  992MOL0     C33846   1.967   5.208   3.902  0.3031  0.5752  0.3764
  992MOL0     C33847   1.920   5.248   4.048 -0.3700 -0.2569 -0.3190
  992MOL0     C33848   1.760   5.255   4.062  0.4258 -0.4400 -0.4637
  992MOL0     C33849   1.704   5.119   4.083  0.0023  0.0525  0.2187
  992MOL0     C33850   1.664   5.002   4.083 -0.1751  0.0103  0.8264
  992MOL0     C33851   2.261   5.542   4.026 -0.1292  0.0224  0.3521
  992MOL0     C33852   2.381   5.596   4.072 -0.2859  0.1768  0.0032
  992MOL0     H33853   2.860   5.744   4.070 -1.8582 -1.1431  1.7993
  992MOL0     H33854   3.104   5.785   4.038 -1.3340  0.3126 -0.0503
  992MOL0     H33855   3.298   5.787   3.924  1.8622  1.8446  0.5733
  992MOL0     H33856   3.367   5.770   4.084  1.7520  1.5569 -0.7322
  992MOL0     H33857   3.504   5.652   3.842  1.1155  2.5413 -1.0918
  992MOL0     H33858   3.525   5.804   3.917 -2.4743  0.5503  2.1625
  992MOL0     H33859   3.581   5.688   4.138  0.3681  1.1020 -0.4072
  992MOL0     H33860   3.543   5.528   4.051  1.7831 -0.8089 -1.7518
  992MOL0     H33861   3.735   5.576   3.900 -0.4487  2.2097 -1.3836
  992MOL0     H33862   3.780   5.707   4.002  2.2238 -1.4344  1.4337
  992MOL0     H33863   3.811   5.544   4.197 -1.0902 -1.9879  0.3260
  992MOL0     H33864   3.740   5.425   4.107  1.2504 -0.9093  1.7533
  992MOL0     H33865   3.920   5.459   3.925 -4.4367 -0.7232  0.0674
  992MOL0     H33866   4.010   5.572   4.038 -0.1738 -0.4670 -0.5256
  992MOL0     H33867   3.989   5.381   4.208 -0.7682  0.3125 -0.1329
  992MOL0     H33868   3.986   5.275   4.065  3.1381 -1.3474  0.2458
  992MOL0     H33869   4.221   5.336   4.177  2.1758  1.7987 -0.6614
  992MOL0     H33870   4.195   5.491   4.104 -2.7410  0.7981 -2.4088
  992MOL0     H33871   4.130   5.453   3.807 -2.6877 -0.7364  3.6108
  992MOL0     H33872   4.257   5.386   3.575  2.5980  0.6164  0.4726
  992MOL0     H33873   4.374   5.256   3.570  0.8913  0.8437  0.2865
  992MOL0     H33874   4.072   5.208   3.587 -0.4208  0.3194 -1.8022
  992MOL0     H33875   4.180   5.078   3.572 -0.3933  0.6353  0.6762
  992MOL0     H33876   4.276   5.196   3.369  0.4511 -5.4334 -0.3240
  992MOL0     H33877   4.124   5.291   3.360 -0.0377 -0.0078  0.4468
  992MOL0     H33878   4.161   4.986   3.309 -1.3816 -0.5948  1.3088
  992MOL0     H33879   4.087   5.104   3.209 -0.7929  3.0207  1.2044
  992MOL0     H33880   3.940   5.273   3.208  1.5892  1.5108  2.1726
  992MOL0     H33881   3.713   5.476   3.173  0.9179 -0.8082  0.5106
  992MOL0     H33882   3.840   5.420   3.077 -0.6729 -2.5003 -3.4286
  992MOL0     H33883   3.681   5.382   3.021 -1.3196  0.4302 -0.4359
  992MOL0     H33884   3.252   5.329   3.041  1.4083 -0.5905 -2.8280
  992MOL0     H33885   3.015   5.311   2.989  0.0581 -0.2228 -0.9387
  992MOL0     H33886   2.862   4.940   2.884  0.8448 -0.0395  0.6660
  992MOL0     H33887   2.784   4.931   3.044 -1.1283  2.2816  0.0761
  992MOL0     H33888   2.609   5.101   2.949 -1.0840  0.3594 -1.0050
  992MOL0     H33889   2.682   5.085   2.791  0.6984 -1.0268 -0.3767
  992MOL0     H33890   2.613   4.828   2.938 -1.5443  0.5245  1.0437
  992MOL0     H33891   2.605   4.868   2.762  1.6979  0.4094  0.1480
  992MOL0     H33892   2.382   4.907   2.966  0.3916 -2.8910  0.7043
  992MOL0     H33893   2.412   5.031   2.834  0.5029  0.5950  1.4358
  992MOL0     H33894   2.368   4.725   2.811 -1.8171  0.3337  0.9182
  992MOL0     H33895   2.398   4.823   2.674 -0.5062 -2.7716 -0.0813
  992MOL0     H33896   2.155   4.883   2.853 -0.2851 -0.7216 -0.6914
  992MOL0     H33897   2.207   4.972   2.718 -1.0254  0.4971  1.5436
  992MOL0     H33898   2.093   4.694   2.706 -0.4280 -0.0698 -1.1541
  992MOL0     H33899   2.196   4.762   2.577  1.0060  2.0874 -0.3618
  992MOL0     H33900   1.944   4.797   2.544 -2.2820  2.9230 -1.1096
  992MOL0     H33901   2.044   4.926   2.524 -3.3960 -1.8952 -2.4470
  992MOL0     H33902   3.010   4.902   3.116  1.6014 -0.9445 -3.3652
  992MOL0     H33903   3.240   4.943   3.220  2.3105 -0.3365 -2.6403
  992MOL0     H33904   3.535   5.038   3.362  0.1336 -0.3051 -0.8965
  992MOL0     H33905   3.748   4.958   3.449 -1.1516 -0.6879  1.0130
  992MOL0     H33906   3.157   5.371   3.960  0.7675  0.5229 -1.5711
  992MOL0     H33907   2.924   5.340   3.945  0.6327 -0.2563  1.2350
  992MOL0     H33908   2.586   5.346   3.950 -2.4252 -2.1432 -2.7916
  992MOL0     H33909   2.375   5.241   3.914 -0.9185 -0.5094  0.3481
  992MOL0     H33910   2.139   5.257   3.767 -0.1993  0.1324 -0.1852
  992MOL0     H33911   2.172   5.164   3.920 -0.7468 -0.2837 -1.5378
  992MOL0     H33912   1.955   5.101   3.886 -0.5980  1.1107 -3.7472
  992MOL0     H33913   1.904   5.253   3.825  0.9556  1.0088  0.0910
  992MOL0     H33914   1.968   5.344   4.069 -1.8519  0.7765 -1.4103
  992MOL0     H33915   1.968   5.185   4.124  0.4674  0.6286 -0.0936
  992MOL0     H33916   1.719   5.303   3.973 -1.2034 -0.6339  0.1481
  992MOL0     H33917   1.731   5.306   4.154 -2.2359 -1.5980 -0.5737
  992MOL0     H33918   1.643   4.898   4.071  1.2946 -0.0410 -2.0182
  992MOL0     H33919   2.166   5.594   4.023 -0.1685 -0.0930 -1.0380
  992MOL0     H33920   2.384   5.689   4.128  4.2872  0.8950 -0.9667
  993MOL0     O33921   9.265   9.382   2.036 -0.3939 -0.2382  0.3684
  993MOL0     C33922   9.347   9.322   1.966 -1.1623 -0.2234  0.4255
  993MOL0     O33923   9.346   9.195   1.931  0.0913 -0.0477  0.3835
  993MOL0     C33924   9.225   9.133   1.956  0.0470  0.3068 -0.4035
  993MOL0     C33925   9.192   9.098   2.086 -0.4051  1.0304 -0.6854
  993MOL0     C33926   9.086   9.016   2.119 -0.2955  0.4232  1.6747
  993MOL0     C33927   9.007   8.953   2.014  0.2670 -0.6086 -0.2061
  993MOL0     O33928   8.901   8.876   2.037  0.0713  0.4037 -0.9768
  993MOL0     C33929   8.794   8.927   2.105  0.1667 -0.8679 -0.2804
  993MOL0     C33930   8.709   8.808   2.150 -0.4247  1.2370  0.1228
  993MOL0     C33931   8.629   8.819   2.277 -0.9054  0.3406  0.8977
  993MOL0     C33932   8.512   8.929   2.281 -0.9257 -0.1154 -0.4193
  993MOL0     C33933   8.436   8.922   2.415  0.4751 -0.5921 -0.2404
  993MOL0     C33934   8.360   8.798   2.440  0.1575  0.2551  0.1332
  993MOL0     C33935   8.274   8.806   2.572  0.3681  0.3777 -0.3029
  993MOL0     C33936   8.364   8.813   2.691  0.0273 -0.3249 -0.2951
  993MOL0     N33937   8.274   8.811   2.807 -0.4291 -0.1003  0.3959
  993MOL0     C33938   8.209   8.707   2.872 -0.1435 -0.5087  0.3575
  993MOL0     C33939   8.134   8.769   2.972  0.3813  0.1087  0.4399
  993MOL0     C33940   8.038   8.687   3.060  0.9109 -0.3118  0.6236
  993MOL0     C33941   7.893   8.680   3.007  1.4210 -0.4968 -0.2482
  993MOL0     C33942   7.814   8.810   3.035  0.0779  0.3877  0.6392
  993MOL0     C33943   7.666   8.804   3.006 -0.3593 -0.6250  0.9258
  993MOL0     O33944   7.651   8.751   2.871 -0.4281 -0.2399 -0.3583
  993MOL0     C33945   7.518   8.723   2.832 -0.0436 -0.5737 -1.4612
  993MOL0     C33946   7.467   8.803   2.730 -0.3844 -0.4490 -0.7891
  993MOL0     C33947   7.332   8.801   2.690 -0.2088  0.8833  0.5475
  993MOL0     C33948   7.289   8.876   2.566  0.4173 -0.5386  0.4928
  993MOL0     C33949   7.247   8.708   2.762 -0.1220 -0.6589 -0.0837
  993MOL0     C33950   7.106   8.691   2.727 -0.7484  0.7467  0.3538
  993MOL0     O33951   7.045   8.584   2.789 -0.0237 -0.0090  0.2561
  993MOL0     C33952   6.923   8.538   2.747  0.5670 -0.1634 -0.3516
  993MOL0     C33953   6.919   8.440   2.644  0.1617  0.1846 -0.4444
  993MOL0     C33954   6.790   8.405   2.590  0.4105 -0.6089 -0.2064
  993MOL0     C33955   6.672   8.479   2.630 -0.0833  0.5041 -0.0969
  993MOL0     O33956   6.551   8.459   2.573  0.6292  0.1551  0.7740
  993MOL0     C33957   6.510   8.336   2.526 -0.0333  0.5416 -0.8420
  993MOL0     C33958   6.352   8.327   2.527 -0.4867  1.4183 -0.3251
  993MOL0     C33959   6.302   8.291   2.393 -0.0394  0.0902  0.7713
  993MOL0     C33960   6.155   8.250   2.386 -0.2629 -0.6571  0.7612
  993MOL0     C33961   6.053   8.354   2.447 -0.7306  0.5821  0.2002
  993MOL0     C33962   6.067   8.498   2.391  0.0296  0.8083  0.2191
  993MOL0     C33963   5.975   8.606   2.445 -0.2989  0.0168 -0.6723
  993MOL0     C33964   5.943   8.713   2.348  0.0351  0.4408 -0.9067
  993MOL0    Cl33965   5.883   8.650   2.192  0.1344  0.4641  0.0360
  993MOL0     C33966   6.685   8.571   2.729 -0.5127  0.5819 -0.7725
  993MOL0     C33967   6.806   8.595   2.795  0.0096  0.4706  0.2452
  993MOL0     O33968   7.055   8.756   2.638  1.0038 -0.5045  0.4064
  993MOL0     C33969   7.307   8.631   2.861  0.8950  0.2775 -0.5684
  993MOL0     C33970   7.439   8.638   2.896  0.3251 -0.0393 -0.2131
  993MOL0     N33971   8.163   8.902   2.971 -0.2182  0.2087  0.0770
  993MOL0     N33972   8.236   8.925   2.869  0.1627 -0.1362 -0.0137
  993MOL0     C33973   9.045   8.983   1.888  0.4162  0.3442 -0.4888
  993MOL0     C33974   9.153   9.070   1.857  0.3824  0.5773 -0.3561
  993MOL0     C33975   9.477   9.384   1.931 -0.2379 -0.4747  1.1781
  993MOL0     C33976   9.531   9.499   1.995  1.0568  1.0510 -0.1621
  993MOL0     C33977   9.652   9.558   1.948  0.9385  0.3229 -0.6948
  993MOL0     C33978   9.734   9.499   1.854 -0.2939  0.5539 -0.1786
  993MOL0     O33979   9.854   9.553   1.824  0.5320  0.1252 -0.1819
  993MOL0     C33980   9.840   9.651   1.719  0.2400 -0.3815  0.9763
  993MOL0     C33981   9.980   9.673   1.664 -0.4894 -0.4105  0.2479
  993MOL0     C33982   9.968   9.775   1.555 -0.7174 -0.0640  0.5729
  993MOL0     C33983  10.108   9.812   1.501  0.4171  0.7300 -0.2492
  993MOL0     C33984  10.090   9.894   1.376 -0.1190  0.2450  0.6483
  993MOL0     C33985  10.080   9.968   1.278  0.6641 -0.1852  0.1354
  993MOL0     C33986   9.687   9.383   1.792 -0.0513  0.2347 -0.5137
  993MOL0     C33987   9.565   9.331   1.831 -0.0218 -0.8027  0.3263
  993MOL0     H33988   9.257   9.132   2.166 -0.7116 -0.2651  0.1524
  993MOL0     H33989   9.066   8.985   2.221 -0.3485 -1.8210  1.0333
  993MOL0     H33990   8.835   8.982   2.191  1.6463  0.0082 -1.4881
  993MOL0     H33991   8.739   9.000   2.045  2.1228  0.1754 -0.8743
  993MOL0     H33992   8.646   8.775   2.066  0.8820 -0.0986 -0.3958
  993MOL0     H33993   8.775   8.725   2.178 -1.2784  1.1182  1.9076
  993MOL0     H33994   8.590   8.719   2.298  2.4877 -1.2201  0.4505
  993MOL0     H33995   8.694   8.835   2.364 -1.5979  0.7052  1.3629
  993MOL0     H33996   8.555   9.029   2.276 -1.1613  0.1072  1.3030
  993MOL0     H33997   8.449   8.907   2.194  1.2152 -2.0195 -1.6309
  993MOL0     H33998   8.510   8.944   2.493  1.5610  3.5333 -2.1306
  993MOL0     H33999   8.374   9.012   2.414  1.6097  0.2161 -0.5897
  993MOL0     H34000   8.298   8.782   2.351  0.6260  0.9921 -0.3343
  993MOL0     H34001   8.428   8.713   2.454  0.8154  1.1683  3.5823
  993MOL0     H34002   8.207   8.892   2.578 -0.0904 -0.0418  0.6349
  993MOL0     H34003   8.218   8.713   2.581  0.5180  0.4764  2.5352
  993MOL0     H34004   8.432   8.900   2.687  0.3115 -0.5655 -0.9342
  993MOL0     H34005   8.434   8.729   2.695  1.4685  0.5666 -3.3349
  993MOL0     H34006   8.218   8.603   2.845  2.4795 -0.3525  0.4005
  993MOL0     H34007   8.068   8.582   3.059 -2.7034 -1.5282  2.4317
  993MOL0     H34008   8.049   8.720   3.164  2.7582 -0.5721  0.5506
  993MOL0     H34009   7.831   8.611   3.065 -1.2189  1.7312 -0.2170
  993MOL0     H34010   7.885   8.641   2.905  0.8389 -1.0226 -0.0096
  993MOL0     H34011   7.855   8.893   2.978 -0.4375 -0.0464 -0.3981
  993MOL0     H34012   7.825   8.826   3.143  0.1537 -1.2759  0.9062
  993MOL0     H34013   7.613   8.900   3.012 -1.0138 -0.6426 -2.4436
  993MOL0     H34014   7.611   8.749   3.083 -2.3715 -3.3018 -2.1519
  993MOL0     H34015   7.528   8.873   2.673 -0.5983  1.2828  0.9904
  993MOL0     H34016   7.245   8.809   2.491 -0.7605  0.5220  0.2006
  993MOL0     H34017   7.215   8.954   2.588 -4.5002 -4.0641 -1.6627
  993MOL0     H34018   7.376   8.916   2.513  0.0315  0.3594  0.5326
  993MOL0     H34019   7.006   8.393   2.600 -1.3852 -2.5062 -0.8029
  993MOL0     H34020   6.789   8.344   2.501 -1.8308 -0.9719  0.0171
  993MOL0     H34021   6.545   8.334   2.422  0.3068  2.6012 -0.8090
  993MOL0     H34022   6.553   8.251   2.581  0.8879  1.9660  0.7051
  993MOL0     H34023   6.327   8.249   2.599  1.4991  0.0428 -1.0300
  993MOL0     H34024   6.311   8.426   2.548 -3.6756 -0.1601  1.5895
  993MOL0     H34025   6.360   8.203   2.369 -0.4446  0.2925 -1.1109
  993MOL0     H34026   6.321   8.371   2.320  2.2005 -3.1881 -2.5619
  993MOL0     H34027   6.127   8.224   2.283  1.1195  0.2486  0.1247
  993MOL0     H34028   6.142   8.153   2.434 -0.7613 -1.4724 -0.9545
  993MOL0     H34029   6.073   8.361   2.555 -1.2976 -0.7314  0.4017
  993MOL0     H34030   5.951   8.317   2.435 -1.1045  1.7600 -0.4516
  993MOL0     H34031   6.171   8.532   2.402 -0.0705  1.4777 -0.7582
  993MOL0     H34032   6.040   8.488   2.286  0.8410 -3.1071  0.2379
  993MOL0     H34033   6.013   8.644   2.540  2.8213 -0.9489 -1.4165
  993MOL0     H34034   5.882   8.564   2.483 -0.8069  2.6716  1.3486
  993MOL0     H34035   6.033   8.773   2.330 -1.9047  3.3702 -1.4749
  993MOL0     H34036   5.871   8.770   2.408  1.5773 -1.7293  3.5213
  993MOL0     H34037   6.593   8.621   2.758  0.7120  1.8571  1.0270
  993MOL0     H34038   6.809   8.666   2.877  0.6189  0.1910  0.4660
  993MOL0     H34039   7.259   8.549   2.914  2.1003 -1.5674 -2.1961
  993MOL0     H34040   7.486   8.584   2.977 -0.8861 -2.3339 -0.9446
  993MOL0     H34041   8.983   8.937   1.811 -1.6082 -0.1181  1.3299
  993MOL0     H34042   9.184   9.083   1.754  0.7158 -2.1333 -0.6711
  993MOL0     H34043   9.493   9.549   2.084 -0.0385  0.7303 -0.4414
  993MOL0     H34044   9.692   9.646   1.998 -0.2313  0.5772 -0.1543
  993MOL0     H34045   9.784   9.602   1.639  1.5264  3.3267 -2.5031
  993MOL0     H34046   9.779   9.739   1.742  2.4164  1.3961  0.3731
  993MOL0     H34047  10.025   9.585   1.617 -0.6080 -0.4868  0.2784
  993MOL0     H34048  10.047   9.703   1.745 -1.3349  1.9391  0.1430
  993MOL0     H34049   9.903   9.855   1.592 -1.3108 -0.9539  1.4967
  993MOL0     H34050   9.916   9.740   1.465  0.6430  2.0405 -1.1542
  993MOL0     H34051  10.160   9.720   1.474  1.2871  1.5721 -1.5882
  993MOL0     H34052  10.168   9.871   1.571 -0.5222  0.8193  0.4956
  993MOL0     H34053  10.090  10.033   1.194  2.8087 -1.8140 -0.9747
  993MOL0     H34054   9.728   9.333   1.705 -1.9391 -0.0593 -1.2773
  993MOL0     H34055   9.535   9.244   1.773  1.5083 -2.3281  1.7264
  994MOL0     O34056   4.554   6.382   2.798 -0.1028 -0.1493 -0.0742
  994MOL0     C34057   4.601   6.482   2.857  0.3859  0.8042  0.3261
  994MOL0     O34058   4.541   6.576   2.939  0.4573  0.9679  0.0892
  994MOL0     C34059   4.405   6.580   2.924 -0.4634 -0.0512 -0.2756
  994MOL0     C34060   4.314   6.566   3.039 -0.4793 -0.5205  0.1036
  994MOL0     C34061   4.179   6.573   3.023  0.9773 -0.5143  0.4107
  994MOL0     C34062   4.124   6.589   2.896 -0.0670  0.5506 -0.2766
  994MOL0     O34063   3.992   6.604   2.889 -0.1564  0.5542  0.4040
  994MOL0     C34064   3.936   6.475   2.838  0.0538 -1.4915 -0.1586
  994MOL0     C34065   3.806   6.506   2.755  0.2466 -0.3036 -0.4221
  994MOL0     C34066   3.684   6.539   2.842 -0.9597 -0.6752 -0.0950
  994MOL0     C34067   3.560   6.556   2.746  0.5802  0.3614  1.1069
  994MOL0     C34068   3.431   6.582   2.818 -0.2399 -0.5987  0.3368
  994MOL0     C34069   3.301   6.538   2.754 -0.6827 -0.1817 -0.0011
  994MOL0     C34070   3.181   6.584   2.842 -0.0589 -0.6974 -0.4153
  994MOL0     C34071   3.061   6.588   2.751 -0.4557 -0.3124  0.6541
  994MOL0     N34072   3.036   6.449   2.702 -0.9232 -0.2037 -0.4553
  994MOL0     C34073   2.980   6.349   2.780  0.5027 -0.6835  0.4908
  994MOL0     C34074   2.931   6.258   2.688  0.6390 -0.3362  0.0871
  994MOL0     C34075   2.845   6.139   2.724  0.0072  0.1734 -0.3514
  994MOL0     C34076   2.695   6.168   2.707 -1.4738 -0.0951 -0.0660
  994MOL0     C34077   2.668   6.184   2.550 -0.1890 -0.3128 -0.7516
  994MOL0     C34078   2.521   6.158   2.516  0.2472 -0.0040  0.0265
  994MOL0     O34079   2.472   6.034   2.565  0.5771 -0.0439 -0.1700
  994MOL0     C34080   2.335   5.998   2.551 -0.6949 -0.0423 -0.3418
  994MOL0     C34081   2.309   5.874   2.604  0.4377 -0.2548 -0.5908
  994MOL0     C34082   2.175   5.817   2.615 -0.6849  0.8709  0.4323
  994MOL0     C34083   2.172   5.700   2.711  0.0787  0.9587  1.1720
  994MOL0     C34084   2.069   5.891   2.568 -0.4079 -0.2645  0.0460
  994MOL0     C34085   1.924   5.853   2.569 -1.3477 -0.3395  0.2398
  994MOL0     O34086   1.906   5.718   2.555 -0.6098 -0.5297 -0.1729
  994MOL0     C34087   1.783   5.669   2.528 -0.9457 -0.8866 -0.3107
  994MOL0     C34088   1.753   5.602   2.414  0.5758 -0.8302  0.1813
  994MOL0     C34089   1.629   5.556   2.389  0.0453  0.2176 -0.4690
  994MOL0     C34090   1.528   5.569   2.481 -0.3717 -0.0088  1.0498
  994MOL0     O34091   1.411   5.509   2.454 -0.1639  0.2194  0.2964
  994MOL0     C34092   1.316   5.493   2.556 -0.0491 -0.2769  0.2220
  994MOL0     C34093   1.222   5.383   2.509 -0.7892 -0.4925 -0.2973
  994MOL0     C34094   1.083   5.387   2.573 -0.2765  0.0502  0.0636
  994MOL0     C34095   1.001   5.259   2.593 -0.7885 -0.1408 -0.1998
  994MOL0     C34096   1.020   5.209   2.738  0.2828 -0.0725  0.1435
  994MOL0     C34097   0.920   5.119   2.788  0.3588  0.3373 -1.0580
  994MOL0     C34098   0.899   4.984   2.707 -0.8455 -0.8407 -0.3541
  994MOL0     C34099   0.843   4.884   2.801  0.5310  0.5017  0.5085
  994MOL0    Cl34100   0.766   4.753   2.705 -0.0977  0.2827  0.6072
  994MOL0     C34101   1.559   5.641   2.600 -0.3679 -0.1186  0.5435
  994MOL0     C34102   1.686   5.695   2.620  1.2183 -0.3632 -0.5159
  994MOL0     O34103   1.844   5.939   2.589 -0.1169 -0.8304 -0.0273
  994MOL0     C34104   2.092   6.021   2.523 -0.2475 -0.7596 -0.0315
  994MOL0     C34105   2.223   6.078   2.517  0.2128 -0.2836 -0.0273
  994MOL0     N34106   2.965   6.297   2.558  0.0474  0.1777  0.9930
  994MOL0     N34107   3.038   6.406   2.565  0.8228  0.6213  0.1729
  994MOL0     C34108   4.210   6.602   2.788  0.5849  0.0684  0.3094
  994MOL0     C34109   4.347   6.604   2.802  0.0286 -0.4380  0.1608
  994MOL0     C34110   4.747   6.505   2.838 -0.1831  0.2511  0.5456
  994MOL0     C34111   4.822   6.407   2.783 -0.5089  0.9114 -0.0705
  994MOL0     C34112   4.955   6.424   2.758 -0.6140 -0.2656  0.0791
  994MOL0     C34113   5.024   6.544   2.780  0.2038  0.0525  0.3573
  994MOL0     O34114   5.160   6.574   2.748 -0.9415  0.3650 -0.1467
  994MOL0     C34115   5.231   6.484   2.649  0.3521 -0.7687 -0.4823
  994MOL0     C34116   5.358   6.554   2.599 -0.7063 -0.1312  0.1794
  994MOL0     C34117   5.321   6.683   2.512 -0.5659  0.5083  0.2870
  994MOL0     C34118   5.435   6.774   2.470 -0.3723 -0.0843  0.0467
  994MOL0     C34119   5.496   6.838   2.586 -0.4719  0.2565 -0.4101
  994MOL0     C34120   5.557   6.889   2.683  0.1887  0.1153 -0.1760
  994MOL0     C34121   4.951   6.640   2.846  0.1642 -0.6889  0.5780
  994MOL0     C34122   4.818   6.625   2.870 -0.0004 -0.4625  0.1839
  994MOL0     H34123   4.362   6.545   3.134  2.0485  4.0196  0.1245
  994MOL0     H34124   4.118   6.575   3.113  0.5142 -1.3464  0.1261
  994MOL0     H34125   4.011   6.430   2.772  2.3711 -0.9646  1.9547
  994MOL0     H34126   3.917   6.404   2.919 -4.7238  0.7536  1.0796
  994MOL0     H34127   3.836   6.578   2.679  3.3862  0.0567  1.0220
  994MOL0     H34128   3.779   6.414   2.701 -1.8362 -0.3044  0.5330
  994MOL0     H34129   3.674   6.464   2.920 -2.8445  0.9042  1.2999
  994MOL0     H34130   3.700   6.634   2.895  1.2818 -0.3687 -1.1962
  994MOL0     H34131   3.574   6.636   2.673 -1.4273 -0.9863 -0.8850
  994MOL0     H34132   3.559   6.462   2.690  0.9478 -1.1009  3.3987
  994MOL0     H34133   3.429   6.526   2.912  0.5608 -0.1396  0.6349
  994MOL0     H34134   3.422   6.690   2.835  2.6325 -0.2341 -0.0183
  994MOL0     H34135   3.294   6.594   2.660  2.2079 -1.4201 -1.0378
  994MOL0     H34136   3.319   6.431   2.742  1.5106 -0.1072  1.8969
  994MOL0     H34137   3.180   6.510   2.922  0.7119 -2.1086 -1.6694
  994MOL0     H34138   3.210   6.687   2.865  0.7200  0.3787 -5.1032
  994MOL0     H34139   3.087   6.652   2.666 -1.9559  0.0293  0.4197
  994MOL0     H34140   2.974   6.625   2.805  0.4344  2.6460  0.2488
  994MOL0     H34141   2.964   6.350   2.887 -0.7908  0.3258  0.3087
  994MOL0     H34142   2.882   6.051   2.671 -1.4112  0.8506 -2.5987
  994MOL0     H34143   2.863   6.125   2.831 -0.3775  2.2374  0.0319
  994MOL0     H34144   2.668   6.255   2.767  0.9896  0.3550  0.4875
  994MOL0     H34145   2.633   6.093   2.757 -0.1901 -0.3827  1.1250
  994MOL0     H34146   2.726   6.124   2.480  1.6341  2.0016 -1.3814
  994MOL0     H34147   2.688   6.285   2.512 -2.4259 -0.0915 -1.5291
  994MOL0     H34148   2.498   6.171   2.410  0.6980  1.1236  0.0518
  994MOL0     H34149   2.473   6.242   2.568 -1.2600 -0.4490 -0.5917
  994MOL0     H34150   2.395   5.833   2.656  2.4196  4.1668  0.0245
  994MOL0     H34151   2.094   5.721   2.784  1.1641  3.3417  1.7319
  994MOL0     H34152   2.151   5.608   2.656  1.0040 -0.5710  3.2789
  994MOL0     H34153   2.267   5.695   2.765 -0.2564 -0.9020  1.6495
  994MOL0     H34154   1.824   5.601   2.332  0.1143  0.1683 -0.2432
  994MOL0     H34155   1.597   5.525   2.290 -0.6099  1.6473 -0.7300
  994MOL0     H34156   1.362   5.462   2.650  2.1912  1.0757 -0.3466
  994MOL0     H34157   1.265   5.588   2.575 -0.8153 -0.1683 -2.0700
  994MOL0     H34158   1.212   5.383   2.400 -0.2246 -0.5629 -0.3517
  994MOL0     H34159   1.267   5.288   2.541 -1.8446 -1.1821 -0.7949
  994MOL0     H34160   1.020   5.455   2.514 -0.2644  1.0122  1.1285
  994MOL0     H34161   1.091   5.444   2.666 -1.7937  2.1782 -1.0022
  994MOL0     H34162   0.892   5.267   2.585 -1.1198 -0.4835  2.7936
  994MOL0     H34163   1.032   5.176   2.529 -0.1479 -0.4859  0.5395
  994MOL0     H34164   1.033   5.294   2.805  1.1061 -0.5155  0.5607
  994MOL0     H34165   1.112   5.152   2.728 -0.8068 -1.6938 -1.2625
  994MOL0     H34166   0.949   5.096   2.891 -0.7354 -1.8892 -1.1766
  994MOL0     H34167   0.821   5.165   2.782  0.2889  0.7128  1.8299
  994MOL0     H34168   1.000   4.953   2.680 -0.0359  1.0377  0.3626
  994MOL0     H34169   0.836   4.998   2.618  3.1538  0.5622 -3.2732
  994MOL0     H34170   0.769   4.929   2.868 -0.0621 -2.0552  1.6543
  994MOL0     H34171   0.916   4.827   2.859 -0.6056 -0.2756  1.2076
  994MOL0     H34172   1.484   5.675   2.670 -0.3433  2.1534 -0.4373
  994MOL0     H34173   1.703   5.753   2.710 -4.5872 -0.4203  1.0296
  994MOL0     H34174   2.007   6.079   2.489 -0.4713  0.2761  2.1696
  994MOL0     H34175   2.227   6.177   2.473 -1.0541  0.3110  1.1220
  994MOL0     H34176   4.153   6.622   2.698 -0.4478 -0.2783  0.8746
  994MOL0     H34177   4.415   6.626   2.720  0.5829  0.8351  0.9356
  994MOL0     H34178   4.778   6.308   2.770  1.5417 -0.5319  2.8728
  994MOL0     H34179   5.016   6.347   2.711  0.0440 -1.0971  2.2099
  994MOL0     H34180   5.252   6.386   2.692  1.0708 -0.0652  0.8189
  994MOL0     H34181   5.169   6.467   2.560 -1.3247 -2.5607  0.9256
  994MOL0     H34182   5.408   6.484   2.531  1.1863  1.2073  0.1173
  994MOL0     H34183   5.416   6.580   2.688 -0.2650 -0.8556  0.1157
  994MOL0     H34184   5.246   6.745   2.563 -1.4352  0.3196 -0.7289
  994MOL0     H34185   5.280   6.637   2.421  1.0884 -3.1756  1.2216
  994MOL0     H34186   5.404   6.856   2.405  0.0416  0.7935  0.9295
  994MOL0     H34187   5.513   6.721   2.414 -0.5357  2.2720 -2.6317
  994MOL0     H34188   5.589   6.949   2.766  0.3743  0.4823 -0.5084
  994MOL0     H34189   4.991   6.734   2.882 -3.4624  1.4440 -0.4326
  994MOL0     H34190   4.767   6.717   2.896  0.4751 -0.9620  3.2011
  995MOL0     O34191   6.262   2.646   3.221  0.4287 -0.4943  0.2596
  995MOL0     C34192   6.297   2.739   3.143  0.0898 -0.0899  0.2890
  995MOL0     O34193   6.235   2.859   3.121  0.4811  0.5229  0.5753
  995MOL0     C34194   6.140   2.886   3.209 -0.8232  0.4090  0.4032
  995MOL0     C34195   6.010   2.871   3.162 -0.0158  0.4303  0.4733
  995MOL0     C34196   5.897   2.887   3.245  0.1772  1.0080 -0.3098
  995MOL0     C34197   5.915   2.913   3.379 -0.3989  0.4679  0.9611
  995MOL0     O34198   5.820   2.914   3.478  0.2649 -0.3524  0.1155
  995MOL0     C34199   5.683   2.908   3.443  0.1855 -0.4199  0.0653
  995MOL0     C34200   5.607   2.965   3.560  0.5141  0.0951  0.3071
  995MOL0     C34201   5.454   2.959   3.533  0.0066 -0.7917 -0.7706
  995MOL0     C34202   5.400   3.074   3.452 -0.4623 -0.0724  0.4244
  995MOL0     C34203   5.258   3.037   3.415 -1.1040  0.0814 -0.4389
  995MOL0     C34204   5.188   3.153   3.337 -0.2539  0.4556 -0.6319
  995MOL0     C34205   5.045   3.120   3.309  0.6267 -0.1092  0.5521
  995MOL0     C34206   4.959   3.245   3.281 -0.1526 -0.2713 -0.0695
  995MOL0     N34207   4.814   3.204   3.282  0.1122 -0.3531 -0.0358
  995MOL0     C34208   4.759   3.140   3.173 -0.1291  0.4575 -0.3408
  995MOL0     C34209   4.635   3.108   3.223 -0.8443  0.1908  0.2603
  995MOL0     C34210   4.539   3.034   3.144  0.0202 -0.0000  0.7730
  995MOL0     C34211   4.409   3.018   3.224  0.7040 -0.3333 -0.8353
  995MOL0     C34212   4.328   3.147   3.249  0.2488 -0.2465 -0.5460
  995MOL0     C34213   4.257   3.130   3.379 -0.3029 -0.8943  0.2908
  995MOL0     O34214   4.128   3.073   3.368 -0.2030  0.0911 -0.2734
  995MOL0     C34215   4.019   3.151   3.346 -0.4377  0.0533 -0.0352
  995MOL0     C34216   4.019   3.294   3.330  0.4581  0.0103  0.6205
  995MOL0     C34217   3.895   3.364   3.329  0.0305  0.8196  0.4632
  995MOL0     C34218   3.889   3.515   3.305 -0.0291 -0.0715 -0.4123
  995MOL0     C34219   3.773   3.290   3.347 -1.0923 -1.0142  0.9935
  995MOL0     C34220   3.638   3.350   3.339 -0.7970  0.2197  0.2066
  995MOL0     O34221   3.544   3.288   3.256 -0.1090 -0.0593 -0.2958
  995MOL0     C34222   3.413   3.314   3.273  0.8815  0.0923 -0.2675
  995MOL0     C34223   3.359   3.433   3.226 -0.1345  0.3674 -0.5534
  995MOL0     C34224   3.213   3.450   3.224  0.0940 -0.0758  0.3508
  995MOL0     C34225   3.122   3.347   3.263 -0.0389  0.6390 -0.5711
  995MOL0     O34226   2.988   3.381   3.259 -0.5756 -0.0119 -0.7296
  995MOL0     C34227   2.890   3.282   3.302 -0.4049 -0.8523  0.0646
  995MOL0     C34228   2.849   3.185   3.186  0.5733  0.3836 -0.9013
  995MOL0     C34229   2.778   3.245   3.067  0.4032 -0.6886  0.5675
  995MOL0     C34230   2.774   3.150   2.945  0.1827  0.4698  0.1689
  995MOL0     C34231   2.670   3.038   2.971 -0.6606  0.3238  0.0735
  995MOL0     C34232   2.718   2.916   2.890  1.4270 -0.4390 -0.2280
  995MOL0     C34233   2.595   2.817   2.907  0.4384  0.7808 -0.2882
  995MOL0     C34234   2.583   2.711   2.807 -0.6484  0.5787  0.2708
  995MOL0    Cl34235   2.742   2.621   2.817 -0.0770  0.1823  0.0993
  995MOL0     C34236   3.182   3.226   3.315  0.5995 -0.6667 -0.1903
  995MOL0     C34237   3.324   3.208   3.313  0.1149 -0.4491  1.0124
  995MOL0     O34238   3.621   3.457   3.401 -0.2273  0.4015 -0.6096
  995MOL0     C34239   3.777   3.149   3.365 -0.1802 -0.6915  0.4212
  995MOL0     C34240   3.903   3.085   3.361  0.5442 -0.7762  0.1345
  995MOL0     N34241   4.631   3.142   3.354  0.2553 -0.0864  0.2003
  995MOL0     N34242   4.741   3.183   3.395  0.4454 -0.5273  0.3432
  995MOL0     C34243   6.047   2.930   3.424  0.0036 -0.6272  0.2100
  995MOL0     C34244   6.154   2.935   3.335 -1.1247  0.4429  0.2403
  995MOL0     C34245   6.398   2.711   3.039  0.1478  0.6224 -0.5586
  995MOL0     C34246   6.485   2.602   3.052  0.6403 -0.2574  0.2286
  995MOL0     C34247   6.576   2.565   2.957 -0.0857 -0.0593  0.0421
  995MOL0     C34248   6.576   2.626   2.832  0.1212  0.8730 -0.0484
  995MOL0     O34249   6.655   2.559   2.742  0.6300  0.7298 -0.6446
  995MOL0     C34250   6.748   2.651   2.675  0.6390  0.1928 -0.3390
  995MOL0     C34251   6.859   2.577   2.610 -0.1694  1.2323 -0.3530
  995MOL0     C34252   6.934   2.483   2.713  0.4759 -0.0193 -0.2273
  995MOL0     C34253   7.044   2.385   2.663  0.1462  0.2723  0.1336
  995MOL0     C34254   7.025   2.324   2.531 -0.3659  0.4978  0.3864
  995MOL0     C34255   7.016   2.278   2.416 -0.3147 -0.5221 -0.0672
  995MOL0     C34256   6.479   2.721   2.807 -0.0715  0.1924 -0.0652
  995MOL0     C34257   6.394   2.774   2.914  0.0228  0.0391  0.1619
  995MOL0     H34258   5.982   2.839   3.062 -1.9215  0.4246  0.9738
  995MOL0     H34259   5.800   2.868   3.203 -0.1601 -0.9184  1.1858
  995MOL0     H34260   5.678   2.974   3.355  2.4344 -0.2720 -0.0130
  995MOL0     H34261   5.645   2.810   3.413 -1.2794  0.8872 -2.8153
  995MOL0     H34262   5.636   2.907   3.648 -1.9075 -0.5621  0.7744
  995MOL0     H34263   5.632   3.067   3.588 -1.9092  1.7465 -2.8774
  995MOL0     H34264   5.417   2.864   3.493 -1.8528 -1.1050  1.5011
  995MOL0     H34265   5.413   2.952   3.634  0.4248  0.9087 -0.4506
  995MOL0     H34266   5.395   3.168   3.508  0.2128  0.4934 -0.4536
  995MOL0     H34267   5.452   3.104   3.361 -0.4207  0.6054  0.6629
  995MOL0     H34268   5.253   2.951   3.348 -0.6451  0.7257 -1.3246
  995MOL0     H34269   5.200   3.018   3.505  0.1927 -1.5287  0.1101
  995MOL0     H34270   5.196   3.232   3.412  2.2323 -0.4771  0.1972
  995MOL0     H34271   5.240   3.185   3.246  1.8199  0.3762  0.4632
  995MOL0     H34272   5.035   3.062   3.217 -0.3586  1.0393 -0.0998
  995MOL0     H34273   5.002   3.056   3.387  0.0873 -2.1206 -1.3040
  995MOL0     H34274   4.996   3.279   3.184  1.8799  3.6321  1.8351
  995MOL0     H34275   4.970   3.326   3.354 -0.3053 -1.1909  0.9987
  995MOL0     H34276   4.807   3.129   3.077  0.5053  1.1408 -0.1100
  995MOL0     H34277   4.519   3.088   3.050 -2.0239 -1.9024  0.0448
  995MOL0     H34278   4.574   2.933   3.120 -0.0302 -0.0002  0.7011
  995MOL0     H34279   4.433   2.973   3.321 -1.3218 -2.4932 -1.2352
  995MOL0     H34280   4.354   2.937   3.175 -1.8402  0.4025  0.6528
  995MOL0     H34281   4.257   3.166   3.168 -1.7593  1.1708  1.4352
  995MOL0     H34282   4.407   3.223   3.257  0.8794 -1.0187  0.8238
  995MOL0     H34283   4.254   3.230   3.422 -1.2514 -1.3198  1.2428
  995MOL0     H34284   4.314   3.069   3.450  0.4644 -0.4025  0.1098
  995MOL0     H34285   4.117   3.338   3.313  0.9774 -1.1905  0.3999
  995MOL0     H34286   3.814   3.556   3.237  1.7780  4.4229  0.0125
  995MOL0     H34287   3.861   3.569   3.395 -3.5284  0.8438 -1.8636
  995MOL0     H34288   3.987   3.549   3.271  0.8312  0.8124  2.6916
  995MOL0     H34289   3.426   3.506   3.183 -0.1957  0.7261 -0.0420
  995MOL0     H34290   3.177   3.544   3.182  1.8945  0.2462 -0.5878
  995MOL0     H34291   2.918   3.227   3.392  1.2347 -1.0575 -0.5231
  995MOL0     H34292   2.806   3.337   3.344  1.6175  1.1215  1.7780
  995MOL0     H34293   2.938   3.131   3.154  0.2643 -0.1630 -0.8570
  995MOL0     H34294   2.785   3.111   3.235  1.1561 -0.0801 -0.8355
  995MOL0     H34295   2.830   3.338   3.043 -0.7022 -0.6787 -2.1070
  995MOL0     H34296   2.676   3.269   3.099 -0.8819  1.1888 -4.0526
  995MOL0     H34297   2.733   3.194   2.854 -2.2019 -1.6791  0.0717
  995MOL0     H34298   2.874   3.115   2.921  0.6914  1.9594 -0.0091
  995MOL0     H34299   2.569   3.066   2.938 -0.6488 -0.9149 -1.1132
  995MOL0     H34300   2.674   3.014   3.078 -1.6002  0.0270  0.0551
  995MOL0     H34301   2.730   2.943   2.785 -1.5257 -2.9561 -1.3700
  995MOL0     H34302   2.808   2.877   2.939  0.9544 -1.1121  0.1302
  995MOL0     H34303   2.490   2.847   2.911 -0.4855 -2.1328 -0.4538
  995MOL0     H34304   2.608   2.770   3.005  2.9839  1.0990 -0.3954
  995MOL0     H34305   2.574   2.765   2.713  1.8157  2.3049  0.9142
  995MOL0     H34306   2.504   2.639   2.830 -0.7778  0.6318 -0.0071
  995MOL0     H34307   3.114   3.147   3.344  0.4381 -0.6726 -0.5748
  995MOL0     H34308   3.369   3.112   3.336  1.2349 -0.7759 -2.0416
  995MOL0     H34309   3.687   3.093   3.391  0.6404 -0.6095  3.9025
  995MOL0     H34310   3.907   2.979   3.388  1.6136 -0.1425  2.8392
  995MOL0     H34311   6.066   2.950   3.529  0.5662  0.2264 -0.0477
  995MOL0     H34312   6.249   2.969   3.374 -0.5848  1.2142 -1.6515
  995MOL0     H34313   6.480   2.540   3.141 -1.3613 -0.1773  0.2277
  995MOL0     H34314   6.643   2.485   2.985 -2.0879 -2.3836 -1.3903
  995MOL0     H34315   6.687   2.702   2.600  0.8464 -0.3341 -0.8674
  995MOL0     H34316   6.787   2.718   2.752 -0.2222 -2.0900  2.2583
  995MOL0     H34317   6.935   2.640   2.562  2.8456 -1.9836 -0.2371
  995MOL0     H34318   6.814   2.508   2.538  2.2434 -2.8471  1.6900
  995MOL0     H34319   6.860   2.419   2.762  1.0250 -0.4434  0.0528
  995MOL0     H34320   6.987   2.546   2.785  0.4496 -1.5990  1.2288
  995MOL0     H34321   7.061   2.303   2.734  1.7802  0.5003  0.0352
  995MOL0     H34322   7.140   2.436   2.655 -0.3140  1.4893  1.8549
  995MOL0     H34323   7.028   2.243   2.315 -0.1637 -0.3819 -0.0972
  995MOL0     H34324   6.475   2.756   2.704  1.9222 -0.3145 -0.3538
  995MOL0     H34325   6.324   2.855   2.895  0.1967  0.6783  2.0001
  996MOL0     O34326   2.430  11.309   5.647  0.3176 -0.1403 -0.1373
  996MOL0     C34327   2.433  11.385   5.742 -0.2870  0.5162 -0.5437
  996MOL0     O34328   2.332  11.440   5.815  0.0439 -0.0548  0.2799
  996MOL0     C34329   2.194  11.420   5.798 -0.0315 -0.3566  0.3799
  996MOL0     C34330   2.117  11.512   5.721  0.0173 -0.2208  0.5750
  996MOL0     C34331   1.974  11.503   5.725  0.2962 -0.1239  1.1958
  996MOL0     C34332   1.916  11.401   5.796  0.1677 -1.2206 -0.7022
  996MOL0     O34333   1.784  11.382   5.797 -0.3116 -0.3519  0.4221
  996MOL0     C34334   1.696  11.492   5.792  1.2159  0.3361  0.5866
  996MOL0     C34335   1.585  11.475   5.680 -0.2735  0.8110 -0.2972
  996MOL0     C34336   1.476  11.376   5.715 -0.4444  0.1171 -0.1861
  996MOL0     C34337   1.382  11.377   5.598  0.5536  0.3526  0.5454
  996MOL0     C34338   1.254  11.300   5.618 -1.1778 -0.4867 -0.7484
  996MOL0     C34339   1.275  11.157   5.667 -1.1557 -0.2013 -0.5290
  996MOL0     C34340   1.169  11.070   5.608  0.7133 -1.4122  0.4274
  996MOL0     C34341   1.129  10.948   5.695 -0.1714 -0.3834 -0.3330
  996MOL0     N34342   0.998  10.896   5.641 -0.3994  0.3508  0.7011
  996MOL0     C34343   0.980  10.829   5.517 -0.4106 -0.4778 -0.3899
  996MOL0     C34344   0.857  10.781   5.532 -0.5235  0.0769 -0.0163
  996MOL0     C34345   0.792  10.677   5.444  0.7688  0.8271  0.0700
  996MOL0     C34346   0.733  10.721   5.316  0.3951  1.1398  0.8159
  996MOL0     C34347   0.701  10.601   5.220  1.0543 -0.4538 -0.4580
  996MOL0     C34348   0.654  10.658   5.089  0.1262 -0.1615  0.4210
  996MOL0     O34349   0.532  10.727   5.118 -0.6102 -0.3702  0.0175
  996MOL0     C34350   0.410  10.662   5.124  0.9306 -0.7383 -0.1137
  996MOL0     C34351   0.388  10.526   5.080  0.0489  0.8003 -0.5266
  996MOL0     C34352   0.254  10.481   5.067  0.2910 -0.7080 -0.6994
  996MOL0     C34353   0.224  10.358   4.998  0.1654  0.6952  0.0344
  996MOL0     C34354   0.150  10.576   5.096  0.5049 -0.3275 -0.6973
  996MOL0     C34355   0.016  10.528   5.075 -0.2539 -0.8268  0.1765
  996MOL0     O34356  -0.060  10.597   4.983  0.1890 -0.0851 -0.8818
  996MOL0     C34357  -0.181  10.541   4.961  0.6597 -0.0941  0.1746
  996MOL0     C34358  -0.213  10.444   4.855 -0.9229 -0.4379 -0.1221
  996MOL0     C34359  -0.334  10.388   4.832 -0.9047  0.0920  0.5758
  996MOL0     C34360  -0.436  10.417   4.920 -0.1917  0.5255  0.8468
  996MOL0     O34361  -0.558  10.358   4.903 -0.6661 -0.6551  0.0095
  996MOL0     C34362  -0.562  10.224   4.970 -0.3055 -0.6209  0.8591
  996MOL0     C34363  -0.699  10.167   4.964 -0.3554  0.9380  0.5100
  996MOL0     C34364  -0.790  10.234   5.066  0.4349  1.0009  0.3232
  996MOL0     C34365  -0.852  10.351   5.007  0.2252 -0.2095  0.1223
  996MOL0     C34366  -0.918  10.437   5.108 -0.4354 -0.0011  0.0645
  996MOL0     C34367  -1.004  10.544   5.039 -1.8577  0.3554 -0.5967
  996MOL0     C34368  -1.135  10.494   4.978 -1.4396 -0.3629 -0.2747
  996MOL0     C34369  -1.252  10.504   5.075 -0.2426  0.0595 -0.1937
  996MOL0    Cl34370  -1.399  10.414   5.020  0.3155  0.1485  0.1793
  996MOL0     C34371  -0.412  10.501   5.037 -0.3727 -0.1526  0.0140
  996MOL0     C34372  -0.288  10.565   5.059 -0.7077  0.2675 -0.1160
  996MOL0     O34373  -0.022  10.428   5.140  0.2987 -0.1520 -0.0993
  996MOL0     C34374   0.174  10.706   5.141  0.3687 -0.2628  0.7106
  996MOL0     C34375   0.301  10.745   5.152  0.0531  0.6682 -1.1132
  996MOL0     N34376   0.806  10.813   5.656 -0.3367  0.1989 -0.0649
  996MOL0     N34377   0.876  10.900   5.710  0.1974  0.5505 -0.2157
  996MOL0     C34378   1.997  11.317   5.864 -0.0448  1.1983  1.1450
  996MOL0     C34379   2.130  11.322   5.866 -0.1578 -0.3283 -0.3992
  996MOL0     C34380   2.571  11.416   5.797  0.2574  0.2664 -0.5642
  996MOL0     C34381   2.593  11.491   5.914 -0.3587  0.1984  0.3839
  996MOL0     C34382   2.728  11.494   5.964 -0.4924  0.0995  0.3540
  996MOL0     C34383   2.837  11.446   5.887 -0.2786 -0.0050 -0.1927
  996MOL0     O34384   2.967  11.464   5.907  0.1292  0.5664 -0.0425
  996MOL0     C34385   3.013  11.498   6.039  0.4770 -0.2740  0.2927
  996MOL0     C34386   3.152  11.449   6.067  0.0873 -0.2561  0.1179
  996MOL0     C34387   3.246  11.529   5.979  1.1916 -0.0559 -0.4496
  996MOL0     C34388   3.389  11.518   6.022 -0.0376 -1.2930 -0.1067
  996MOL0     C34389   3.410  11.624   6.121 -0.3011  0.0789 -0.5766
  996MOL0     C34390   3.434  11.698   6.219  0.1658  0.2657  0.4279
  996MOL0     C34391   2.814  11.380   5.768 -0.2025  0.4156 -1.0786
  996MOL0     C34392   2.678  11.363   5.727 -0.7712  0.6481 -0.4328
  996MOL0     H34393   2.161  11.587   5.657 -1.0207 -0.9088 -1.0157
  996MOL0     H34394   1.920  11.576   5.667  0.1252 -2.2941 -1.5665
  996MOL0     H34395   1.647  11.504   5.889 -1.0240 -0.4501 -0.3861
  996MOL0     H34396   1.736  11.591   5.765 -1.6502  1.2818 -0.5326
  996MOL0     H34397   1.535  11.569   5.655 -0.1994  0.4725 -1.7945
  996MOL0     H34398   1.641  11.451   5.589 -0.7322  0.3328 -0.4567
  996MOL0     H34399   1.516  11.277   5.742  0.8382  0.6463 -0.0598
  996MOL0     H34400   1.426  11.414   5.804  2.5288  2.6243  0.5885
  996MOL0     H34401   1.347  11.478   5.573  1.6453  0.1228 -2.3000
  996MOL0     H34402   1.438  11.342   5.511  1.0131  1.6206  0.3004
  996MOL0     H34403   1.198  11.352   5.696  0.1872  1.5463 -1.0463
  996MOL0     H34404   1.193  11.305   5.527 -1.4657  1.8264 -0.4748
  996MOL0     H34405   1.370  11.124   5.625  0.1556 -1.5828  3.0996
  996MOL0     H34406   1.281  11.148   5.776  0.2713 -1.6795 -0.6850
  996MOL0     H34407   1.076  11.126   5.597 -0.0894 -2.2912  2.2523
  996MOL0     H34408   1.199  11.041   5.507  3.6908  0.6603  0.5793
  996MOL0     H34409   1.113  10.966   5.801 -5.2538  0.1629 -0.9478
  996MOL0     H34410   1.207  10.872   5.691 -0.2093 -0.3972 -1.1783
  996MOL0     H34411   1.048  10.820   5.433 -0.8828  1.4675 -1.0463
  996MOL0     H34412   0.871  10.603   5.430  0.0684 -0.1979  1.3014
  996MOL0     H34413   0.707  10.631   5.497 -2.0399  1.0567 -3.8125
  996MOL0     H34414   0.811  10.772   5.260  1.8014 -0.2637  1.4234
  996MOL0     H34415   0.650  10.788   5.343  0.9860  1.2502  2.5159
  996MOL0     H34416   0.622  10.538   5.263 -1.0417  0.3721 -2.8292
  996MOL0     H34417   0.790  10.539   5.209  0.1609 -2.1885  1.4353
  996MOL0     H34418   0.640  10.579   5.015 -2.2393 -2.8449  3.4603
  996MOL0     H34419   0.731  10.726   5.051  0.6754  0.2777  2.2148
  996MOL0     H34420   0.471  10.466   5.045 -0.1143  1.2398 -1.7166
  996MOL0     H34421   0.184  10.278   5.060 -0.0136  0.9192  0.2115
  996MOL0     H34422   0.152  10.380   4.918  1.1493  0.9984 -0.7917
  996MOL0     H34423   0.312  10.317   4.947 -0.3308  0.6733 -0.8341
  996MOL0     H34424  -0.130  10.426   4.788 -1.4710 -3.2936 -0.1642
  996MOL0     H34425  -0.344  10.331   4.740 -0.4140  1.6268 -0.4706
  996MOL0     H34426  -0.497  10.169   4.901 -1.5415  1.2722 -2.0365
  996MOL0     H34427  -0.505  10.223   5.063  0.5985  0.1428  0.3351
  996MOL0     H34428  -0.741  10.178   4.864 -1.1360  2.2524  0.9585
  996MOL0     H34429  -0.699  10.061   4.993 -2.9401  1.9743  5.2647
  996MOL0     H34430  -0.738  10.258   5.159  0.4718  1.8587  0.0901
  996MOL0     H34431  -0.860  10.152   5.083  3.5377 -1.9804 -0.2248
  996MOL0     H34432  -0.776  10.422   4.974 -1.2443  0.5362 -1.8587
  996MOL0     H34433  -0.929  10.314   4.939  0.2184 -1.5091  0.8082
  996MOL0     H34434  -0.849  10.482   5.180  1.4283 -1.8889 -0.4185
  996MOL0     H34435  -0.985  10.377   5.171  1.3050 -0.1426  1.8942
  996MOL0     H34436  -1.034  10.609   5.122 -0.0627 -0.5337  0.8178
  996MOL0     H34437  -0.940  10.599   4.968  0.5618 -2.3346 -0.6713
  996MOL0     H34438  -1.128  10.390   4.945 -0.7527 -0.3502 -0.1713
  996MOL0     H34439  -1.160  10.556   4.891 -0.4718 -0.9353 -0.9831
  996MOL0     H34440  -1.298  10.603   5.086 -0.9196 -0.4478  2.1530
  996MOL0     H34441  -1.228  10.453   5.169  0.6674  3.3558  1.5350
  996MOL0     H34442  -0.486  10.512   5.116 -0.9253  2.0079 -0.7297
  996MOL0     H34443  -0.269  10.638   5.138 -1.1705 -0.1258  0.3701
  996MOL0     H34444   0.097  10.779   5.166  0.4681  0.1556 -0.1623
  996MOL0     H34445   0.317  10.850   5.174  0.8298  0.2562  0.4240
  996MOL0     H34446   1.946  11.233   5.912  0.6128 -1.2476 -2.1082
  996MOL0     H34447   2.185  11.260   5.935  0.6298  1.5356  0.7321
  996MOL0     H34448   2.514  11.522   5.981  0.2679 -0.3374  1.3914
  996MOL0     H34449   2.745  11.548   6.057  2.7555 -1.2147  0.6512
  996MOL0     H34450   3.013  11.606   6.053  0.8692 -0.2304 -0.0265
  996MOL0     H34451   2.938  11.464   6.111 -1.1359 -1.2406 -1.7172
  996MOL0     H34452   3.158  11.343   6.045  2.7571 -0.0607 -0.4102
  996MOL0     H34453   3.182  11.459   6.171  3.2995 -3.9014 -0.2584
  996MOL0     H34454   3.214  11.634   5.972 -0.6361 -0.4668  0.8798
  996MOL0     H34455   3.242  11.484   5.880  1.6611  1.1309 -1.0200
  996MOL0     H34456   3.448  11.545   5.934  0.1172  1.3320  0.7286
  996MOL0     H34457   3.415  11.420   6.062  0.4304 -0.7830  0.8787
  996MOL0     H34458   3.472  11.769   6.289  1.9666  1.2237 -1.4291
  996MOL0     H34459   2.897  11.336   5.714  1.6762 -1.2515  2.7513
  996MOL0     H34460   2.666  11.302   5.638 -0.8747  1.9890 -1.3713
  997MOL0     O34461   4.047   0.046   7.338 -0.2213 -0.5851  0.3122
  997MOL0     C34462   4.089   0.163   7.320 -0.1044  0.0221  0.2398
  997MOL0     O34463   4.025   0.266   7.262 -0.2566  0.0363 -0.1097
  997MOL0     C34464   3.908   0.234   7.199 -0.0736  0.3954 -0.2619
  997MOL0     C34465   3.900   0.242   7.058 -0.5213 -0.7011  0.1095
  997MOL0     C34466   3.779   0.213   6.991  0.3686  0.9081  0.1915
  997MOL0     C34467   3.671   0.176   7.066  0.1969 -0.2170  0.3281
  997MOL0     O34468   3.549   0.137   7.016 -0.4962 -0.0322 -0.4782
  997MOL0     C34469   3.486   0.226   6.925 -0.0078 -0.3405  0.0954
  997MOL0     C34470   3.337   0.205   6.914 -0.9639 -0.0852  0.1484
  997MOL0     C34471   3.262   0.222   7.050  0.1363  0.3402  0.3967
  997MOL0     C34472   3.141   0.137   7.051  0.0162  0.6052  0.9870
  997MOL0     C34473   3.090   0.114   7.188 -0.4144 -0.6748 -0.0990
  997MOL0     C34474   2.993  -0.003   7.191 -0.0164  0.8635  0.5590
  997MOL0     C34475   2.941  -0.043   7.330  0.2062 -0.1247  0.4635
  997MOL0     C34476   2.849  -0.168   7.336  0.0888  0.1806  0.5378
  997MOL0     N34477   2.728  -0.139   7.270  0.5944  0.7466  0.2308
  997MOL0     C34478   2.665  -0.235   7.206  1.5152  0.5920  0.0712
  997MOL0     C34479   2.547  -0.186   7.153  0.4984 -0.4439  0.0963
  997MOL0     C34480   2.425  -0.257   7.094 -0.1628 -0.2998 -1.3294
  997MOL0     C34481   2.299  -0.215   7.163  0.2105 -0.4757 -0.0952
  997MOL0     C34482   2.234  -0.093   7.084 -0.0074  0.3820 -0.1623
  997MOL0     C34483   2.122  -0.031   7.156  0.9060 -0.6061 -0.2927
  997MOL0     O34484   2.014  -0.121   7.153 -0.3386 -0.1686  0.1618
  997MOL0     C34485   1.888  -0.069   7.131  0.0749  0.2306 -0.0927
  997MOL0     C34486   1.789  -0.160   7.080  0.6415 -0.1330 -0.1770
  997MOL0     C34487   1.658  -0.121   7.052 -0.0498 -0.4153 -0.3474
  997MOL0     C34488   1.554  -0.223   7.013  0.2448 -0.6836 -0.8193
  997MOL0     C34489   1.629   0.020   7.064  0.0264 -0.0760 -0.5897
  997MOL0     C34490   1.505   0.076   7.000  0.2546 -0.9370  0.2591
  997MOL0     O34491   1.441   0.183   7.058 -0.3075  0.2731  0.2504
  997MOL0     C34492   1.320   0.236   7.014 -0.3954  0.1304  0.4460
  997MOL0     C34493   1.199   0.228   7.092 -0.5863 -0.1721  0.6322
  997MOL0     C34494   1.082   0.292   7.052 -0.3113 -0.2624  0.4242
  997MOL0     C34495   1.081   0.373   6.932  0.1539  0.0317 -0.3398
  997MOL0     O34496   0.963   0.429   6.884 -0.1229 -0.6684  0.4904
  997MOL0     C34497   0.935   0.369   6.756 -0.2573  0.4649 -0.2854
  997MOL0     C34498   0.804   0.431   6.710  0.0822  0.1475 -0.5577
  997MOL0     C34499   0.844   0.577   6.660  0.2305  0.0621  0.1018
  997MOL0     C34500   0.738   0.683   6.679 -0.6319  0.2987  0.6590
  997MOL0     C34501   0.691   0.698   6.821 -0.5230 -0.0959  0.8895
  997MOL0     C34502   0.571   0.792   6.835 -0.3445  0.3860 -0.3314
  997MOL0     C34503   0.617   0.919   6.903  0.4013 -0.1965 -0.5431
  997MOL0     C34504   0.501   1.017   6.897 -0.1839 -0.2037  0.2337
  997MOL0    Cl34505   0.535   1.186   6.962 -0.0386  0.1746 -0.0248
  997MOL0     C34506   1.200   0.382   6.858  0.2058 -0.0508  0.1630
  997MOL0     C34507   1.318   0.316   6.897  0.3309  0.3316  0.3298
  997MOL0     O34508   1.475   0.027   6.891 -0.1377  0.1471  0.7989
  997MOL0     C34509   1.720   0.105   7.132 -0.6364 -0.2420  0.7229
  997MOL0     C34510   1.844   0.059   7.169 -0.2649 -0.0077  0.2646
  997MOL0     N34511   2.550  -0.048   7.173  0.4630  0.1847  0.0379
  997MOL0     N34512   2.659  -0.026   7.243  0.7861  0.0423 -0.2498
  997MOL0     C34513   3.680   0.156   7.201  0.0028 -0.3788  0.5045
  997MOL0     C34514   3.795   0.194   7.272  0.1912 -0.1993 -0.3264
  997MOL0     C34515   4.233   0.192   7.370 -0.2976 -0.2119  0.3026
  997MOL0     C34516   4.296   0.316   7.357  0.5846 -0.3552 -0.3468
  997MOL0     C34517   4.430   0.335   7.396 -0.4348  0.0470 -0.1089
  997MOL0     C34518   4.497   0.230   7.465 -0.5203  0.3784 -0.5208
  997MOL0     O34519   4.623   0.236   7.510 -0.2700  0.3203  0.6101
  997MOL0     C34520   4.729   0.234   7.414 -0.0446  1.0153  0.6230
  997MOL0     C34521   4.858   0.182   7.478  0.8116  0.6782 -0.2852
  997MOL0     C34522   4.979   0.219   7.398  0.6020  0.4997 -0.1246
  997MOL0     C34523   5.099   0.166   7.473  0.2339  0.4171  0.3162
  997MOL0     C34524   5.217   0.192   7.390 -0.0112  0.4338  0.8682
  997MOL0     C34525   5.324   0.213   7.331  0.6110  1.0401  0.7533
  997MOL0     C34526   4.428   0.112   7.496 -0.4566 -0.5150 -0.5713
  997MOL0     C34527   4.306   0.091   7.437  0.2776 -0.5275  0.3070
  997MOL0     H34528   3.984   0.268   6.995 -1.5268  1.1304 -0.5607
  997MOL0     H34529   3.778   0.220   6.883 -1.8800  4.6049  0.2899
  997MOL0     H34530   3.504   0.322   6.975  1.4529 -0.1867 -0.6708
  997MOL0     H34531   3.541   0.222   6.831  2.4863  1.3056  1.3473
  997MOL0     H34532   3.307   0.277   6.837  0.1857 -1.0446 -1.2491
  997MOL0     H34533   3.315   0.104   6.879 -2.8155  0.0930  0.6911
  997MOL0     H34534   3.338   0.202   7.126  0.8226  0.3934 -0.2622
  997MOL0     H34535   3.233   0.326   7.065  4.7037  1.9892 -0.6097
  997MOL0     H34536   3.057   0.188   7.002  0.3166  1.2279  1.1145
  997MOL0     H34537   3.168   0.039   7.009  2.1525  1.1701  0.9353
  997MOL0     H34538   3.168   0.098   7.263  1.6721  3.2659 -1.2149
  997MOL0     H34539   3.046   0.205   7.229  2.2248  1.2753 -1.3489
  997MOL0     H34540   2.908   0.019   7.126 -0.0846  0.5715  0.5461
  997MOL0     H34541   3.039  -0.093   7.148 -0.0547  0.9059  0.4295
  997MOL0     H34542   3.026  -0.064   7.395  0.9470 -0.9710 -0.7281
  997MOL0     H34543   2.880   0.039   7.368  1.7049  2.2413 -1.7983
  997MOL0     H34544   2.832  -0.186   7.443 -0.9772 -0.7586  0.2298
  997MOL0     H34545   2.899  -0.251   7.285 -0.9007 -1.1797  1.6905
  997MOL0     H34546   2.690  -0.340   7.217  0.6565  0.5099  1.3932
  997MOL0     H34547   2.405  -0.244   6.987 -0.9610  0.1355 -1.1327
  997MOL0     H34548   2.440  -0.364   7.110 -1.6332 -0.6798 -2.2710
  997MOL0     H34549   2.326  -0.188   7.265  0.3728  2.6323 -0.8551
  997MOL0     H34550   2.233  -0.302   7.164 -0.5013 -0.1039 -3.1944
  997MOL0     H34551   2.191  -0.134   6.993 -2.4393  1.7926  0.2532
  997MOL0     H34552   2.301  -0.011   7.058  1.2222 -0.5917 -0.1512
  997MOL0     H34553   2.100   0.070   7.117  1.9392 -0.7218 -1.2340
  997MOL0     H34554   2.159  -0.005   7.255 -1.4361  4.6096 -0.4213
  997MOL0     H34555   1.822  -0.262   7.061 -0.0119 -0.2394 -0.7794
  997MOL0     H34556   1.577  -0.254   6.911  1.4147 -1.7226 -0.2702
  997MOL0     H34557   1.555  -0.312   7.076  2.4356  2.2761  4.0219
  997MOL0     H34558   1.452  -0.184   7.018  0.3803 -0.4256  0.3014
  997MOL0     H34559   1.207   0.170   7.183 -0.4778 -3.0154 -1.0610
  997MOL0     H34560   0.994   0.287   7.115 -0.1086 -2.0392  0.6124
  997MOL0     H34561   1.012   0.386   6.679 -1.6815 -0.1379 -1.9071
  997MOL0     H34562   0.918   0.261   6.755 -0.7957  0.5500 -1.1642
  997MOL0     H34563   0.752   0.367   6.638 -2.6455 -0.2468  1.5955
  997MOL0     H34564   0.738   0.444   6.797 -0.5111  2.1217 -1.2301
  997MOL0     H34565   0.876   0.570   6.555  1.9158 -0.0924  0.6022
  997MOL0     H34566   0.935   0.607   6.712  1.3584 -1.9491 -0.6127
  997MOL0     H34567   0.779   0.775   6.636  2.2005 -1.1175  0.0396
  997MOL0     H34568   0.652   0.645   6.624 -1.2373 -0.0909  1.8330
  997MOL0     H34569   0.774   0.734   6.882 -1.4827  2.2570  0.8882
  997MOL0     H34570   0.658   0.599   6.855 -0.1946 -1.0063 -1.2596
  997MOL0     H34571   0.515   0.793   6.741  0.3428 -1.1301 -0.7986
  997MOL0     H34572   0.500   0.739   6.900 -2.1065  1.3051 -1.4370
  997MOL0     H34573   0.702   0.963   6.849  0.7464 -0.5022 -0.2511
  997MOL0     H34574   0.650   0.895   7.004  0.8569 -1.0658 -0.8890
  997MOL0     H34575   0.411   0.981   6.947 -1.5220  2.3353 -0.1967
  997MOL0     H34576   0.467   1.019   6.793 -3.6168 -1.1552  1.2436
  997MOL0     H34577   1.205   0.454   6.776  2.8167 -0.5467 -0.2007
  997MOL0     H34578   1.412   0.327   6.845  0.5736  1.6019  1.0144
  997MOL0     H34579   1.705   0.212   7.135  2.2564  0.4196 -2.5948
  997MOL0     H34580   1.915   0.130   7.210  1.9500 -0.5803 -2.2963
  997MOL0     H34581   3.598   0.103   7.250  0.5264  0.9794  3.0488
  997MOL0     H34582   3.789   0.179   7.380  2.1881  0.8751 -0.0067
  997MOL0     H34583   4.249   0.403   7.311 -1.2159 -0.5392  1.0227
  997MOL0     H34584   4.479   0.428   7.369 -3.2016  1.6885  0.2629
  997MOL0     H34585   4.704   0.171   7.328 -1.5489 -0.7316  2.2389
  997MOL0     H34586   4.753   0.335   7.381 -0.1048  0.8389  0.0270
  997MOL0     H34587   4.847   0.074   7.491  2.9483  0.6841  2.5030
  997MOL0     H34588   4.870   0.228   7.577 -0.4419 -0.7873  0.5956
  997MOL0     H34589   4.977   0.328   7.386 -2.8469  0.7296  1.2466
  997MOL0     H34590   4.959   0.167   7.304 -4.1549  2.1852 -0.3539
  997MOL0     H34591   5.085   0.059   7.484  0.3770  0.5823  2.8655
  997MOL0     H34592   5.112   0.198   7.577  0.5513 -3.6000  1.6668
  997MOL0     H34593   5.412   0.241   7.277  0.6578 -1.4692 -0.6296
  997MOL0     H34594   4.460   0.039   7.569 -0.5262  0.3750  0.3841
  997MOL0     H34595   4.251  -0.002   7.452 -0.6113 -0.1481 -0.4538
  998MOL0     O34596   5.659   2.985   2.736 -0.2257  0.3413  0.2594
  998MOL0     C34597   5.771   2.962   2.784 -1.0193  0.1078  0.2108
  998MOL0     O34598   5.827   3.023   2.891  0.3581 -0.2160 -0.0838
  998MOL0     C34599   5.764   3.098   2.989 -0.7148 -0.1598 -0.1458
  998MOL0     C34600   5.853   3.187   3.059  0.0149 -0.5309 -0.4654
  998MOL0     C34601   5.801   3.276   3.147  0.4111 -0.4361 -0.9494
  998MOL0     C34602   5.666   3.287   3.170 -0.3401 -1.0040 -0.8177
  998MOL0     O34603   5.625   3.387   3.250 -0.1360 -0.1541 -0.0337
  998MOL0     C34604   5.491   3.419   3.258  0.2009 -0.1063  0.6417
  998MOL0     C34605   5.472   3.555   3.336 -0.1045 -0.2610  0.3643
  998MOL0     C34606   5.324   3.598   3.372 -1.4701  0.0151  1.2464
  998MOL0     C34607   5.315   3.740   3.432  0.2891 -0.3847 -0.4165
  998MOL0     C34608   5.169   3.780   3.424  0.0100 -1.1538 -0.0831
  998MOL0     C34609   5.070   3.689   3.500 -0.3075  0.2492 -0.5002
  998MOL0     C34610   4.930   3.759   3.487 -0.4748  0.4389  0.9856
  998MOL0     C34611   4.824   3.657   3.539  0.4401 -0.7319  0.4919
  998MOL0     N34612   4.693   3.718   3.557  0.7151 -0.3887  0.4247
  998MOL0     C34613   4.611   3.708   3.666  0.0303  0.1830  0.1907
  998MOL0     C34614   4.494   3.767   3.635  0.1423  1.7760 -0.4169
  998MOL0     C34615   4.387   3.798   3.741  0.3268  0.1390  0.4260
  998MOL0     C34616   4.387   3.722   3.877  0.6735  0.3518  0.6008
  998MOL0     C34617   4.275   3.761   3.971 -0.0206 -0.0303 -0.7775
  998MOL0     C34618   4.136   3.757   3.911  0.4284 -0.2033 -0.5720
  998MOL0     O34619   4.037   3.767   4.009  0.4886 -0.9530 -0.3543
  998MOL0     C34620   3.909   3.760   3.952  0.2683 -0.1379  0.2991
  998MOL0     C34621   3.892   3.736   3.813  0.2848 -0.3912  0.2913
  998MOL0     C34622   3.763   3.694   3.767  0.0975  0.9563 -0.2598
  998MOL0     C34623   3.745   3.645   3.630  0.0593 -0.6518 -0.5911
  998MOL0     C34624   3.657   3.688   3.864 -0.1447  0.6370 -0.0081
  998MOL0     C34625   3.531   3.632   3.818  0.7792  0.4125  0.3659
  998MOL0     O34626   3.519   3.497   3.797  0.3743 -0.6696 -0.7436
  998MOL0     C34627   3.385   3.457   3.797 -0.6861  0.6232  1.2954
  998MOL0     C34628   3.320   3.420   3.672  0.3816  0.4034 -0.3079
  998MOL0     C34629   3.183   3.377   3.677 -0.3660  0.4056  0.5321
  998MOL0     C34630   3.113   3.367   3.801  1.0347 -0.1004  0.4800
  998MOL0     O34631   2.980   3.324   3.794  0.7889 -0.1718  0.3750
  998MOL0     C34632   2.894   3.270   3.909  0.3454 -0.8375  0.4856
  998MOL0     C34633   2.828   3.143   3.854 -0.4438  0.6522  0.1446
  998MOL0     C34634   2.754   3.170   3.725  0.0274 -0.0065 -0.5471
  998MOL0     C34635   2.603   3.162   3.741  0.4027  0.3210 -0.3434
  998MOL0     C34636   2.526   3.215   3.615 -0.2241  0.4117  0.9257
  998MOL0     C34637   2.512   3.111   3.501  0.1375 -0.1509 -0.4231
  998MOL0     C34638   2.480   3.160   3.359  1.1730  0.5216 -0.4599
  998MOL0     C34639   2.375   3.272   3.356 -1.0791 -0.3204  0.4223
  998MOL0    Cl34640   2.211   3.227   3.416 -0.0049 -0.1708  0.2955
  998MOL0     C34641   3.187   3.392   3.913  0.4822  0.8670  0.3488
  998MOL0     C34642   3.317   3.435   3.912 -0.7287 -0.6203  0.5132
  998MOL0     O34643   3.433   3.710   3.816 -0.1747 -0.1567 -0.3089
  998MOL0     C34644   3.679   3.723   3.999  0.4136 -0.0587  0.7809
  998MOL0     C34645   3.801   3.754   4.046  0.1531 -0.2666 -0.8542
  998MOL0     N34646   4.501   3.805   3.503  0.2730 -0.6058 -0.0473
  998MOL0     N34647   4.622   3.782   3.457  0.3312  0.3664 -0.5902
  998MOL0     C34648   5.578   3.207   3.100  0.0284  0.1168  0.0455
  998MOL0     C34649   5.625   3.113   3.007  0.7182 -0.6641 -0.3833
  998MOL0     C34650   5.855   2.878   2.700 -0.4346  0.3966  0.3885
  998MOL0     C34651   5.984   2.840   2.748  0.8118  0.3893  0.3595
  998MOL0     C34652   6.064   2.764   2.662  0.5375  0.2458  0.5091
  998MOL0     C34653   6.022   2.729   2.537  0.6532  0.1107 -0.0873
  998MOL0     O34654   6.116   2.665   2.461  0.7105  0.1609  0.2818
  998MOL0     C34655   6.178   2.751   2.365  1.0504 -0.5448  0.3403
  998MOL0     C34656   6.333   2.767   2.375 -0.8490 -0.0741 -0.1648
  998MOL0     C34657   6.403   2.639   2.411  0.0139  0.5014 -0.0210
  998MOL0     C34658   6.405   2.520   2.310  0.0455 -0.3719 -0.3394
  998MOL0     C34659   6.524   2.441   2.295  0.4714 -0.8523  0.0569
  998MOL0     C34660   6.611   2.355   2.279  0.4393 -0.0722 -0.2347
  998MOL0     C34661   5.898   2.761   2.483  0.3731 -1.2363  0.5286
  998MOL0     C34662   5.813   2.835   2.565  0.0067  0.1382  0.5806
  998MOL0     H34663   5.960   3.179   3.043  0.2911  3.2685 -1.3865
  998MOL0     H34664   5.862   3.350   3.198 -2.0438 -1.1810  3.6597
  998MOL0     H34665   5.444   3.436   3.161  1.5108  1.1372  0.1865
  998MOL0     H34666   5.435   3.342   3.312 -2.4553  3.3728  3.3236
  998MOL0     H34667   5.538   3.543   3.423  0.3775  0.2646  0.0758
  998MOL0     H34668   5.518   3.634   3.277 -2.1160  0.5447 -0.1810
  998MOL0     H34669   5.267   3.579   3.280  0.7118 -0.3776 -0.1001
  998MOL0     H34670   5.288   3.521   3.440 -2.3708 -1.0743 -0.3953
  998MOL0     H34671   5.340   3.736   3.538  1.0342  0.7970 -0.5326
  998MOL0     H34672   5.375   3.816   3.380 -1.8663 -0.1940 -2.8233
  998MOL0     H34673   5.161   3.882   3.463  0.9054 -0.6636 -1.1207
  998MOL0     H34674   5.143   3.783   3.318 -0.4895 -0.2778  0.0596
  998MOL0     H34675   5.079   3.581   3.486  0.2047 -0.2943  3.0655
  998MOL0     H34676   5.106   3.700   3.603 -0.6154  0.8153 -0.4471
  998MOL0     H34677   4.935   3.848   3.550  0.1843  1.0466  0.1002
  998MOL0     H34678   4.903   3.786   3.384 -0.2960  0.7502  1.0161
  998MOL0     H34679   4.862   3.625   3.636  0.2295 -1.8140  0.2328
  998MOL0     H34680   4.821   3.570   3.472  2.8895  0.4160 -1.2937
  998MOL0     H34681   4.627   3.667   3.765 -0.8569  1.4612  0.8831
  998MOL0     H34682   4.402   3.906   3.749  3.9302 -0.2893  1.5690
  998MOL0     H34683   4.296   3.768   3.689  0.5474 -1.5531  0.9486
  998MOL0     H34684   4.485   3.741   3.920  1.4866 -1.8784 -0.1356
  998MOL0     H34685   4.381   3.614   3.863  2.6291  0.3604 -0.6289
  998MOL0     H34686   4.298   3.858   4.015 -0.2080 -0.6425  0.7469
  998MOL0     H34687   4.285   3.687   4.051  0.4552 -2.8586 -3.2669
  998MOL0     H34688   4.136   3.654   3.874  2.2752 -0.8066  0.9405
  998MOL0     H34689   4.147   3.828   3.829  0.8784 -3.8543 -3.9828
  998MOL0     H34690   3.975   3.735   3.743  1.2265 -1.2337  1.3948
  998MOL0     H34691   3.718   3.539   3.640  2.4748 -1.2356  0.5020
  998MOL0     H34692   3.658   3.689   3.582 -1.0083 -1.1148  0.8229
  998MOL0     H34693   3.839   3.660   3.577  0.6833  1.6877  1.0191
  998MOL0     H34694   3.363   3.426   3.572  2.1958 -2.1691  0.2007
  998MOL0     H34695   3.128   3.341   3.591 -0.0939  2.1679 -0.4250
  998MOL0     H34696   2.947   3.252   4.003 -0.7220 -0.1443  1.2444
  998MOL0     H34697   2.813   3.335   3.945  2.0020  0.8358  1.3745
  998MOL0     H34698   2.899   3.063   3.831 -0.2930  1.1391 -1.2164
  998MOL0     H34699   2.772   3.096   3.935  1.3534  0.8410  1.5547
  998MOL0     H34700   2.785   3.109   3.640 -2.6767 -1.8207 -0.3715
  998MOL0     H34701   2.771   3.276   3.704 -0.6731  1.1289  3.6494
  998MOL0     H34702   2.580   3.057   3.763  0.9214  0.1042 -0.8205
  998MOL0     H34703   2.585   3.232   3.823 -1.3447 -0.4765  0.0160
  998MOL0     H34704   2.578   3.301   3.569 -1.1782  1.5413  1.8955
  998MOL0     H34705   2.421   3.237   3.635  0.1806  2.1719  1.3600
  998MOL0     H34706   2.607   3.058   3.491  0.8479  1.0050 -0.0663
  998MOL0     H34707   2.453   3.029   3.543  3.6932 -2.5205  0.4853
  998MOL0     H34708   2.429   3.085   3.298 -0.4391  0.1456  1.2440
  998MOL0     H34709   2.575   3.189   3.313  1.0726 -1.6172 -2.1537
  998MOL0     H34710   2.371   3.309   3.253  0.4286 -1.7373 -0.2001
  998MOL0     H34711   2.406   3.360   3.414  1.2912  0.6905 -2.1105
  998MOL0     H34712   3.129   3.389   4.005 -0.5373  1.1207 -0.2736
  998MOL0     H34713   3.361   3.448   4.010  0.5868 -0.3997 -0.0871
  998MOL0     H34714   3.599   3.731   4.072  1.4015  0.8190  1.8129
  998MOL0     H34715   3.816   3.770   4.152 -0.2240 -1.2839 -0.6356
  998MOL0     H34716   5.471   3.221   3.104 -0.1676 -0.4240 -1.9674
  998MOL0     H34717   5.547   3.070   2.946 -0.9041  1.5485  0.0291
  998MOL0     H34718   6.011   2.877   2.847  1.2152  1.8389 -0.2577
  998MOL0     H34719   6.166   2.737   2.688 -0.0907  0.4107  3.5848
  998MOL0     H34720   6.157   2.701   2.270  1.9352  0.9128 -0.6619
  998MOL0     H34721   6.126   2.846   2.358 -0.6274 -1.1450  3.1223
  998MOL0     H34722   6.357   2.847   2.445  0.5735 -0.6136  0.0038
  998MOL0     H34723   6.371   2.807   2.280  2.6610 -0.4308  0.9433
  998MOL0     H34724   6.375   2.596   2.507  1.3298 -2.3534 -0.8113
  998MOL0     H34725   6.509   2.665   2.418 -0.0114  0.2379  1.5463
  998MOL0     H34726   6.391   2.556   2.207 -2.3390 -0.9674 -0.2949
  998MOL0     H34727   6.325   2.453   2.344 -0.1913 -0.5189 -1.1419
  998MOL0     H34728   6.672   2.267   2.277 -2.4780 -2.3216  1.1837
  998MOL0     H34729   5.869   2.742   2.381 -1.8638  2.2626  0.3729
  998MOL0     H34730   5.718   2.862   2.519  0.8486  1.1678 -0.6398
  999MOL0     O34731   3.474   4.804   6.321 -0.9212 -0.1752 -0.1108
  999MOL0     C34732   3.578   4.767   6.376 -0.3743  0.3577  0.4840
  999MOL0     O34733   3.590   4.653   6.458 -0.1475 -0.1848  0.9661
  999MOL0     C34734   3.485   4.568   6.503 -0.4091 -0.6503  0.5637
  999MOL0     C34735   3.342   4.597   6.487  0.3473 -0.1734  0.4731
  999MOL0     C34736   3.251   4.504   6.541  0.2495  0.1527 -1.0193
  999MOL0     C34737   3.294   4.391   6.608 -0.2583  0.5662  0.0430
  999MOL0     O34738   3.203   4.290   6.648  0.4133  0.0832  0.0516
  999MOL0     C34739   3.060   4.310   6.643 -0.8077  0.6024  0.4854
  999MOL0     C34740   3.012   4.271   6.501  1.1262  0.1690 -0.4186
  999MOL0     C34741   2.859   4.274   6.484 -0.1062  0.0584  1.2564
  999MOL0     C34742   2.820   4.131   6.529 -0.4971  0.2238 -0.6467
  999MOL0     C34743   2.661   4.124   6.535  0.5020  0.5091 -0.3067
  999MOL0     C34744   2.610   3.974   6.530 -0.3349 -0.4309 -0.2270
  999MOL0     C34745   2.470   3.964   6.582  0.2129 -1.1947 -0.1277
  999MOL0     C34746   2.453   3.999   6.733 -0.4650 -0.3381  0.4496
  999MOL0     N34747   2.308   4.022   6.763 -0.6848 -0.0764  0.4172
  999MOL0     C34748   2.197   3.944   6.728  0.3593  0.0448 -0.3494
  999MOL0     C34749   2.091   4.016   6.768  0.1434 -0.6257  0.0846
  999MOL0     C34750   1.949   3.972   6.756 -0.3555 -0.4625  0.3720
  999MOL0     C34751   1.902   4.035   6.618  0.1139 -0.5638  0.9512
  999MOL0     C34752   1.745   4.047   6.615 -0.4082 -0.3061 -0.6955
  999MOL0     C34753   1.701   4.143   6.494  0.2877  0.7081 -0.6082
  999MOL0     O34754   1.745   4.080   6.371 -0.1184  0.2762 -0.3782
  999MOL0     C34755   1.658   4.048   6.279  0.0427 -0.6630  0.5687
  999MOL0     C34756   1.632   3.913   6.257  0.0483  0.1765  0.0620
  999MOL0     C34757   1.520   3.870   6.184  0.3109 -0.8437 -0.0302
  999MOL0     C34758   1.489   3.726   6.182  0.5604 -0.1342  0.2553
  999MOL0     C34759   1.425   3.977   6.138 -0.5614  0.4940  0.4810
  999MOL0     C34760   1.302   3.946   6.066  0.0933  0.5337 -0.4084
  999MOL0     O34761   1.256   4.041   5.978  0.4528  0.0129 -0.3487
  999MOL0     C34762   1.124   4.023   5.938  0.4793 -0.7685 -0.4669
  999MOL0     C34763   1.092   3.998   5.803  0.2636 -0.7818 -0.0974
  999MOL0     C34764   0.957   3.991   5.769  0.3555  0.0525  0.1520
  999MOL0     C34765   0.851   4.005   5.857  0.0623  0.1204  0.4114
  999MOL0     O34766   0.715   4.004   5.828  0.3236 -0.3264 -0.4761
  999MOL0     C34767   0.686   3.976   5.690  0.9261 -0.4142 -0.5382
  999MOL0     C34768   0.527   3.980   5.669  0.0699 -1.3311  0.5057
  999MOL0     C34769   0.480   4.126   5.659  0.5550 -0.1382 -0.2845
  999MOL0     C34770   0.323   4.126   5.634  0.4144 -0.1275  0.3600
  999MOL0     C34771   0.264   4.264   5.621 -0.1949 -0.0391 -0.7000
  999MOL0     C34772   0.116   4.269   5.617 -0.0401  0.0406 -0.7794
  999MOL0     C34773   0.050   4.206   5.740  0.4612  0.1884 -0.0134
  999MOL0     C34774  -0.095   4.272   5.763 -0.3391 -0.2588  1.1681
  999MOL0    Cl34775  -0.063   4.430   5.841 -0.1087  0.0798  0.4325
  999MOL0     C34776   0.888   4.035   5.997  0.2118  0.3779  0.6837
  999MOL0     C34777   1.022   4.051   6.033 -0.0792  0.4239 -0.2775
  999MOL0     O34778   1.238   3.843   6.093  0.5488  0.5470 -0.4665
  999MOL0     C34779   1.468   4.109   6.141  0.3591  0.5081 -0.1880
  999MOL0     C34780   1.579   4.150   6.215  0.1783 -0.3363  0.1970
  999MOL0     N34781   2.134   4.135   6.829 -0.1925  0.6395  0.5417
  999MOL0     N34782   2.265   4.130   6.835  0.4347  0.3503 -0.0083
  999MOL0     C34783   3.430   4.375   6.639  0.0798 -0.4734 -0.0303
  999MOL0     C34784   3.520   4.463   6.580 -0.2224 -0.6292  0.9040
  999MOL0     C34785   3.707   4.835   6.335 -0.3506  0.4019 -0.0765
  999MOL0     C34786   3.829   4.799   6.400 -0.1662 -0.4693  0.2827
  999MOL0     C34787   3.950   4.843   6.342 -0.0619  0.3387  0.1335
  999MOL0     C34788   3.949   4.921   6.230 -0.5684 -0.6924 -0.0387
  999MOL0     O34789   4.061   4.945   6.158 -0.4671  0.5561  0.0647
  999MOL0     C34790   4.126   4.828   6.108  0.0857 -0.4453  0.0996
  999MOL0     C34791   4.152   4.850   5.954 -0.5553 -0.0216  0.2848
  999MOL0     C34792   4.194   4.714   5.890  1.0237  0.6031 -0.7609
  999MOL0     C34793   4.253   4.743   5.752 -0.0715 -0.6470 -0.3420
  999MOL0     C34794   4.305   4.629   5.678  0.1352 -0.3274 -0.0496
  999MOL0     C34795   4.342   4.531   5.620  0.2066  0.3389 -0.2825
  999MOL0     C34796   3.837   4.977   6.172  0.2209  0.7595 -0.0860
  999MOL0     C34797   3.711   4.931   6.232 -0.4457 -0.2560  0.1938
  999MOL0     H34798   3.288   4.679   6.442  0.0514 -1.6225 -2.0350
  999MOL0     H34799   3.145   4.517   6.521  0.4677 -2.3424 -4.8528
  999MOL0     H34800   3.017   4.238   6.713 -1.3095 -1.7139 -2.0360
  999MOL0     H34801   3.031   4.410   6.676  0.3070  0.6295  1.4535
  999MOL0     H34802   3.048   4.344   6.428  0.7248 -0.2571 -1.0586
  999MOL0     H34803   3.048   4.172   6.471 -0.9857 -0.9249  0.4867
  999MOL0     H34804   2.804   4.340   6.552 -1.4202  0.0969  0.2023
  999MOL0     H34805   2.834   4.295   6.380  2.6424 -1.0234  0.2923
  999MOL0     H34806   2.855   4.070   6.446 -1.0676  0.8244 -1.3492
  999MOL0     H34807   2.873   4.105   6.621  1.0956 -0.8928 -1.8203
  999MOL0     H34808   2.639   4.182   6.625 -0.6105  0.1943 -0.3591
  999MOL0     H34809   2.623   4.177   6.447 -1.9080  0.9386  0.9136
  999MOL0     H34810   2.610   3.944   6.425  0.3207 -2.0630  0.2120
  999MOL0     H34811   2.680   3.909   6.584  0.9782  0.7524 -0.4596
  999MOL0     H34812   2.403   4.015   6.512 -1.1086 -1.2749  1.0501
  999MOL0     H34813   2.440   3.864   6.551 -1.5693 -0.2324 -1.7162
  999MOL0     H34814   2.494   4.099   6.747 -1.1335 -0.0469  0.3997
  999MOL0     H34815   2.508   3.934   6.802 -0.5317  0.4802  1.2978
  999MOL0     H34816   2.190   3.848   6.678 -0.1589 -0.5380  0.8047
  999MOL0     H34817   1.934   3.864   6.757  1.2126 -0.7275 -0.5318
  999MOL0     H34818   1.903   4.022   6.841  2.1195  2.7029  0.0415
  999MOL0     H34819   1.939   3.971   6.538  0.2621  1.9907 -1.1526
  999MOL0     H34820   1.946   4.135   6.607  0.8991 -0.7426  2.2781
  999MOL0     H34821   1.711   4.079   6.713  1.0541 -1.8030  0.3472
  999MOL0     H34822   1.703   3.946   6.609 -1.4216  0.1678 -2.2087
  999MOL0     H34823   1.744   4.242   6.509  1.0515  0.2123  0.6851
  999MOL0     H34824   1.594   4.157   6.510  0.6638  1.4883  1.4906
  999MOL0     H34825   1.689   3.840   6.312  2.1757  1.5005 -0.2800
  999MOL0     H34826   1.409   3.704   6.253  0.3117 -3.0043 -0.7666
  999MOL0     H34827   1.456   3.694   6.083  0.6331  1.0920 -0.1814
  999MOL0     H34828   1.577   3.666   6.205  1.4547  1.3327  0.8224
  999MOL0     H34829   1.171   3.980   5.732  2.0892 -0.9533  1.8808
  999MOL0     H34830   0.934   3.970   5.665  1.1752  0.9043 -0.2145
  999MOL0     H34831   0.733   4.051   5.626  2.8289 -2.7534 -2.0778
  999MOL0     H34832   0.737   3.880   5.674 -0.6314 -1.5990  1.2412
  999MOL0     H34833   0.501   3.919   5.582 -0.7260  0.9056 -0.9022
  999MOL0     H34834   0.482   3.920   5.749  0.1013 -1.8501  0.1364
  999MOL0     H34835   0.534   4.175   5.577  0.9130  2.5525  1.4339
  999MOL0     H34836   0.499   4.176   5.755  0.1386 -0.5654  0.0216
  999MOL0     H34837   0.292   4.067   5.547  1.3033 -1.1047  0.6880
  999MOL0     H34838   0.283   4.065   5.715  2.4105 -2.6686 -0.4554
  999MOL0     H34839   0.306   4.326   5.541 -0.4762  0.8965 -0.1446
  999MOL0     H34840   0.296   4.319   5.710 -1.4552 -0.8712  0.3097
  999MOL0     H34841   0.097   4.377   5.615  1.7451  0.3790 -2.7071
  999MOL0     H34842   0.073   4.217   5.531  0.7744  1.4377 -2.0717
  999MOL0     H34843   0.107   4.213   5.833  1.6495 -0.5255 -0.6510
  999MOL0     H34844   0.031   4.102   5.712 -0.8932  0.9082 -2.0160
  999MOL0     H34845  -0.155   4.204   5.824 -0.0257 -2.4864 -0.8479
  999MOL0     H34846  -0.146   4.290   5.668  0.7017  0.7284  0.7744
  999MOL0     H34847   0.814   4.052   6.074 -0.4116  1.5801 -0.1403
  999MOL0     H34848   1.052   4.086   6.132 -0.2066  1.3181 -0.5411
  999MOL0     H34849   1.410   4.189   6.096 -2.6677 -1.1324  0.4801
  999MOL0     H34850   1.586   4.258   6.225 -1.1786 -0.2721  0.6324
  999MOL0     H34851   3.476   4.305   6.708 -0.1704 -0.8997 -0.2901
  999MOL0     H34852   3.627   4.451   6.595  0.2285  2.3738  0.6262
  999MOL0     H34853   3.823   4.734   6.486  2.5105 -0.0104  0.9042
  999MOL0     H34854   4.046   4.809   6.381  0.0264 -0.1627 -0.5035
  999MOL0     H34855   4.205   4.792   6.175  1.1659  2.0988  0.3417
  999MOL0     H34856   4.049   4.753   6.122 -1.3402  1.1533  1.2024
  999MOL0     H34857   4.230   4.924   5.933  0.2255 -0.3051  2.0388
  999MOL0     H34858   4.060   4.879   5.902 -1.9141 -2.6137  1.0632
  999MOL0     H34859   4.106   4.651   5.887 -0.7137  2.9315 -2.5566
  999MOL0     H34860   4.277   4.665   5.942  0.9728  0.9985 -0.3074
  999MOL0     H34861   4.336   4.814   5.755  0.3330 -1.0607 -1.3081
  999MOL0     H34862   4.175   4.769   5.680  1.0671 -0.8831 -1.7063
  999MOL0     H34863   4.374   4.448   5.559 -1.2018 -0.4873  0.0641
  999MOL0     H34864   3.858   5.037   6.085 -1.5385  0.6539 -0.6307
  999MOL0     H34865   3.618   4.973   6.195 -0.6582 -0.0315  0.9770
 1000MOL0     O34866   7.028   1.542   0.543  0.4798 -0.0043  0.6172
 1000MOL0     C34867   6.959   1.628   0.491 -0.1499  0.4481  0.0435
 1000MOL0     O34868   6.824   1.637   0.492  0.3002 -1.2903 -0.2793
 1000MOL0     C34869   6.744   1.534   0.540 -0.1030 -0.5892  1.0653
 1000MOL0     C34870   6.733   1.421   0.458  0.1238  0.6614  0.3855
 1000MOL0     C34871   6.658   1.305   0.498  0.0575 -0.2022  0.2348
 1000MOL0     C34872   6.591   1.312   0.620  0.2775  0.3665 -0.2509
 1000MOL0     O34873   6.505   1.214   0.674  0.3732 -0.0825  0.6045
 1000MOL0     C34874   6.471   1.110   0.581 -0.4169 -0.0551  0.2097
 1000MOL0     C34875   6.374   1.006   0.646  0.3100  0.6895  0.3543
 1000MOL0     C34876   6.227   1.051   0.645 -0.1951  0.2878 -0.7472
 1000MOL0     C34877   6.149   0.925   0.672 -0.5617 -0.2477  0.1442
 1000MOL0     C34878   5.992   0.942   0.674 -0.8136 -0.3141 -0.8225
 1000MOL0     C34879   5.945   1.033   0.785 -1.0389  0.5059 -0.7580
 1000MOL0     C34880   6.000   0.999   0.928  0.7086  0.5664 -0.1749
 1000MOL0     C34881   5.980   0.854   0.975  0.2480  0.4776  0.0366
 1000MOL0     N34882   5.838   0.831   0.992  0.1546  0.6963  0.4951
 1000MOL0     C34883   5.748   0.782   0.889 -0.6889 -0.3740 -0.1276
 1000MOL0     C34884   5.632   0.781   0.953 -0.1488  0.3969  0.5158
 1000MOL0     C34885   5.501   0.743   0.893  0.2479  0.5281 -0.1518
 1000MOL0     C34886   5.390   0.848   0.919  0.0417  0.1290  0.6139
 1000MOL0     C34887   5.257   0.786   0.886  0.5005 -0.3577 -0.0605
 1000MOL0     C34888   5.152   0.904   0.897  0.6743 -0.0064 -0.2148
 1000MOL0     O34889   5.018   0.851   0.890  0.1964 -1.0078 -0.0515
 1000MOL0     C34890   4.923   0.952   0.902  1.4579 -0.1937 -0.2681
 1000MOL0     C34891   4.923   1.081   0.835  0.8182  0.4970  0.1737
 1000MOL0     C34892   4.816   1.169   0.852 -0.0297  0.5003 -0.3695
 1000MOL0     C34893   4.828   1.301   0.782  0.1090 -0.0043  0.3437
 1000MOL0     C34894   4.717   1.145   0.942  0.3099  0.7854 -0.7020
 1000MOL0     C34895   4.596   1.235   0.948  0.9662 -0.0619  0.0482
 1000MOL0     O34896   4.475   1.167   0.930 -0.0255  0.3473  0.5835
 1000MOL0     C34897   4.364   1.253   0.918 -0.4940 -0.7219  0.5131
 1000MOL0     C34898   4.293   1.283   1.031  0.5508 -0.6785 -0.0249
 1000MOL0     C34899   4.176   1.365   1.034 -0.9925 -0.2613  0.1492
 1000MOL0     C34900   4.130   1.408   0.909 -0.3950 -0.2287 -0.1596
 1000MOL0     O34901   4.024   1.488   0.895 -0.0409  0.1602  0.4252
 1000MOL0     C34902   3.944   1.506   1.011 -0.0319 -0.5278  0.5469
 1000MOL0     C34903   3.813   1.584   0.976 -0.1020 -0.6227  0.4074
 1000MOL0     C34904   3.739   1.526   0.854  0.1385 -1.0919 -1.0456
 1000MOL0     C34905   3.594   1.578   0.861  0.0238 -0.4215  0.4403
 1000MOL0     C34906   3.533   1.596   0.721 -0.5206  0.1269 -0.2433
 1000MOL0     C34907   3.408   1.675   0.715  1.2775 -1.1690 -0.6207
 1000MOL0     C34908   3.342   1.668   0.582  0.0447  0.1322  0.6697
 1000MOL0     C34909   3.234   1.771   0.563 -0.3464 -0.5330  0.4195
 1000MOL0    Cl34910   3.296   1.938   0.580 -0.6001  0.2650 -0.2464
 1000MOL0     C34911   4.197   1.378   0.793 -0.8510 -0.6412  0.3811
 1000MOL0     C34912   4.315   1.299   0.792 -0.0640  0.0079  0.1428
 1000MOL0     O34913   4.611   1.352   0.953  0.5806  0.1493 -0.4449
 1000MOL0     C34914   4.730   1.027   1.017  0.1412  0.7097 -0.2902
 1000MOL0     C34915   4.833   0.935   1.007  0.3852  0.3791  0.2910
 1000MOL0     N34916   5.639   0.817   1.085  0.1840 -0.3046 -0.2314
 1000MOL0     N34917   5.767   0.856   1.105 -0.6939  0.5516 -0.2005
 1000MOL0     C34918   6.592   1.427   0.705  0.1056  0.8215  0.0323
 1000MOL0     C34919   6.671   1.534   0.665  0.4693 -1.2550 -0.4405
 1000MOL0     C34920   7.036   1.726   0.411 -0.6856 -0.7385 -0.4937
 1000MOL0     C34921   6.976   1.791   0.294 -0.3107  0.0557  0.1797
 1000MOL0     C34922   7.039   1.888   0.220 -0.5754  0.4502 -0.2427
 1000MOL0     C34923   7.173   1.923   0.248  0.4231 -0.5486 -0.2111
 1000MOL0     O34924   7.256   2.011   0.170 -0.3510 -0.2113 -0.6040
 1000MOL0     C34925   7.229   2.055   0.033 -0.4785  0.6887 -0.1119
 1000MOL0     C34926   7.318   2.175  -0.009 -0.1200  0.9287  0.3175
 1000MOL0     C34927   7.473   2.131  -0.010 -0.6311  0.5511 -0.1950
 1000MOL0     C34928   7.506   2.049  -0.134 -0.2617 -0.0621  0.0067
 1000MOL0     C34929   7.648   2.031  -0.140  0.1258  0.5860  0.1251
 1000MOL0     C34930   7.766   2.024  -0.151  0.3319 -0.2265 -0.1053
 1000MOL0     C34931   7.231   1.862   0.366  0.3200  0.0440 -0.1801
 1000MOL0     C34932   7.166   1.768   0.442  0.3409  0.1728  0.3403
 1000MOL0     H34933   6.791   1.417   0.367  0.5458  1.1525  0.6309
 1000MOL0     H34934   6.660   1.217   0.435  0.5375 -1.4453  1.9076
 1000MOL0     H34935   6.435   1.152   0.487  0.3912  2.4385  0.9362
 1000MOL0     H34936   6.570   1.066   0.566 -0.0830  0.5857  0.4768
 1000MOL0     H34937   6.384   0.924   0.575 -1.4902  2.2005 -1.7937
 1000MOL0     H34938   6.403   0.987   0.750 -3.2991 -3.1152  0.9157
 1000MOL0     H34939   6.209   1.124   0.725 -2.9892  0.0187 -1.0447
 1000MOL0     H34940   6.203   1.092   0.547 -4.0277  0.2021  0.0000
 1000MOL0     H34941   6.166   0.853   0.591 -0.5035  1.8412 -1.7900
 1000MOL0     H34942   6.182   0.877   0.765  2.4166 -0.7178 -1.0585
 1000MOL0     H34943   5.963   0.976   0.575  2.1082 -0.9933 -2.0307
 1000MOL0     H34944   5.949   0.843   0.695  0.2434  0.0486  4.7852
 1000MOL0     H34945   5.983   1.132   0.759  1.0413 -0.0586 -0.1177
 1000MOL0     H34946   5.836   1.038   0.784 -0.9787  2.9789 -1.4089
 1000MOL0     H34947   6.104   1.030   0.942 -0.1052  2.3565  2.9431
 1000MOL0     H34948   5.947   1.061   1.001  1.4984  1.7420 -0.5646
 1000MOL0     H34949   6.027   0.853   1.074 -0.9030  3.7626  0.7351
 1000MOL0     H34950   6.023   0.782   0.905 -0.8888  3.2683 -3.8276
 1000MOL0     H34951   5.771   0.746   0.790  1.7151 -1.5453  0.7709
 1000MOL0     H34952   5.502   0.722   0.786  0.3712  0.1893 -0.0841
 1000MOL0     H34953   5.475   0.653   0.950  1.2270 -0.7516 -1.6538
 1000MOL0     H34954   5.399   0.921   0.838  0.1855  1.1812  1.5471
 1000MOL0     H34955   5.400   0.893   1.018  2.2713 -2.3000  1.5976
 1000MOL0     H34956   5.232   0.707   0.956 -0.4695  0.2733  0.3243
 1000MOL0     H34957   5.248   0.747   0.784 -2.9109 -1.1837  0.4142
 1000MOL0     H34958   5.177   0.968   0.812  1.3288 -0.6601 -0.5249
 1000MOL0     H34959   5.166   0.948   0.996  4.1775  3.0525 -1.8267
 1000MOL0     H34960   4.991   1.100   0.753  2.2709 -0.2522  1.1417
 1000MOL0     H34961   4.932   1.313   0.750  0.0181 -1.8418 -0.7699
 1000MOL0     H34962   4.764   1.300   0.693 -0.2865 -1.0981  0.6321
 1000MOL0     H34963   4.801   1.383   0.850  1.3211  1.0923 -0.4321
 1000MOL0     H34964   4.326   1.246   1.127 -0.6855  0.4969  0.9023
 1000MOL0     H34965   4.127   1.381   1.130 -1.5962 -0.8361 -0.0590
 1000MOL0     H34966   3.912   1.409   1.052  0.5081  0.1159  2.6384
 1000MOL0     H34967   4.004   1.557   1.087  0.5604 -0.8592  0.3002
 1000MOL0     H34968   3.736   1.576   1.054  0.0419  1.8399  0.9024
 1000MOL0     H34969   3.847   1.688   0.971  1.3169 -0.9438  2.3162
 1000MOL0     H34970   3.732   1.417   0.863 -0.5018 -0.9112  1.3880
 1000MOL0     H34971   3.787   1.553   0.760  1.6521  1.8971  0.4438
 1000MOL0     H34972   3.529   1.504   0.910  0.2276 -0.1770  1.0839
 1000MOL0     H34973   3.575   1.667   0.921 -3.9697  0.2658 -1.4941
 1000MOL0     H34974   3.514   1.496   0.681  1.0355 -1.2136  2.1289
 1000MOL0     H34975   3.613   1.633   0.656 -0.1391 -2.0450 -1.0855
 1000MOL0     H34976   3.343   1.623   0.786  1.0912  3.0395  2.7065
 1000MOL0     H34977   3.407   1.776   0.755  1.0716 -0.6558 -1.8681
 1000MOL0     H34978   3.295   1.569   0.575  0.3074  0.0787 -0.6008
 1000MOL0     H34979   3.410   1.690   0.499 -2.4721 -0.9601 -1.8700
 1000MOL0     H34980   3.145   1.749   0.622 -0.2691 -0.6402  0.4984
 1000MOL0     H34981   3.192   1.759   0.463 -0.5941  1.6653  0.2236
 1000MOL0     H34982   4.176   1.420   0.695 -1.3330 -0.6429  0.4828
 1000MOL0     H34983   4.372   1.280   0.701  2.3064  1.1505  1.3022
 1000MOL0     H34984   4.661   0.989   1.091 -0.1302 -1.4082 -1.5465
 1000MOL0     H34985   4.833   0.859   1.084  0.0317  0.3770  0.2914
 1000MOL0     H34986   6.535   1.442   0.796  2.3200  1.4349  1.4090
 1000MOL0     H34987   6.673   1.627   0.721  1.1449  1.7591 -4.9385
 1000MOL0     H34988   6.871   1.766   0.278 -0.3647  1.3259 -1.6746
 1000MOL0     H34989   6.998   1.940   0.134 -2.1837 -1.1948 -0.5336
 1000MOL0     H34990   7.267   1.971  -0.026 -0.3087  0.1847  0.7130
 1000MOL0     H34991   7.122   2.068   0.012 -1.4190 -4.8948 -0.1605
 1000MOL0     H34992   7.319   2.257   0.064 -0.8379 -0.3181  1.7605
 1000MOL0     H34993   7.283   2.222  -0.102  1.9675  0.4947 -0.7613
 1000MOL0     H34994   7.493   2.073   0.080  0.5666 -1.1837 -1.5026
 1000MOL0     H34995   7.527   2.226  -0.018  1.6026 -0.7593 -2.0713
 1000MOL0     H34996   7.485   2.109  -0.223 -1.5471  0.3021  0.5241
 1000MOL0     H34997   7.447   1.957  -0.144 -0.6257  0.4016 -4.0814
 1000MOL0     H34998   7.873   2.025  -0.152  0.3307  1.1166  0.1685
 1000MOL0     H34999   7.334   1.888   0.389  0.6425 -0.1377 -1.3368
 1000MOL0     H35000   7.222   1.730   0.527 -0.2994 -1.7524 -0.0459
 1001MOL0     O35001   3.416   9.703   2.016 -0.0606  0.0294 -0.4091
 1001MOL0     C35002   3.486   9.804   2.016 -0.1878  0.5798 -0.5960
 1001MOL0     O35003   3.439   9.928   2.066 -0.4758 -0.3200 -0.5380
 1001MOL0     C35004   3.306   9.947   2.090  0.4235  0.8712  0.8626
 1001MOL0     C35005   3.229   9.890   2.193 -0.1858 -0.2223 -0.5847
 1001MOL0     C35006   3.091   9.898   2.203  0.2810  0.0499 -0.4558
 1001MOL0     C35007   3.017   9.949   2.096  0.2517  0.4878  0.5813
 1001MOL0     O35008   2.886   9.973   2.113 -0.0222 -0.2651 -0.1980
 1001MOL0     C35009   2.798   9.868   2.072 -0.2853  0.1146 -0.3505
 1001MOL0     C35010   2.752   9.786   2.190 -0.0026  0.3379 -0.0351
 1001MOL0     C35011   2.661   9.664   2.138  0.2002 -0.4692 -0.4710
 1001MOL0     C35012   2.560   9.624   2.244  0.2618  0.7371  0.0862
 1001MOL0     C35013   2.462   9.520   2.201  0.3584 -0.5119  0.0156
 1001MOL0     C35014   2.363   9.493   2.319 -0.4082  1.0846  0.2626
 1001MOL0     C35015   2.238   9.409   2.276 -0.0248 -0.2481 -0.2591
 1001MOL0     C35016   2.134   9.414   2.390 -0.6367 -0.4236 -0.2614
 1001MOL0     N35017   2.035   9.521   2.367 -0.3507  0.0582  0.0420
 1001MOL0     C35018   2.034   9.647   2.418 -0.8755 -0.6011  0.4480
 1001MOL0     C35019   1.909   9.687   2.385 -0.1368  0.1138  0.4425
 1001MOL0     C35020   1.856   9.807   2.460 -0.3111  0.7879 -0.4591
 1001MOL0     C35021   1.874   9.948   2.394  0.0675 -0.3568  0.3722
 1001MOL0     C35022   2.006  10.004   2.377 -0.3214 -1.1607  0.9195
 1001MOL0     C35023   2.089   9.945   2.263  0.1222  1.1814 -0.7763
 1001MOL0     O35024   2.211   9.888   2.310 -0.6622  0.2964  0.6390
 1001MOL0     C35025   2.306   9.980   2.349  0.4828 -0.1450  0.2055
 1001MOL0     C35026   2.337   9.983   2.482  0.9011 -0.6824  0.1727
 1001MOL0     C35027   2.433  10.071   2.540 -0.2914  0.7254  0.4594
 1001MOL0     C35028   2.467  10.050   2.695  0.3007 -0.6008 -0.2810
 1001MOL0     C35029   2.511  10.156   2.448  0.3962 -0.9006 -0.7192
 1001MOL0     C35030   2.629  10.238   2.495  0.5618  0.8122  0.8927
 1001MOL0     O35031   2.715  10.275   2.383 -0.0945 -0.4633  0.1571
 1001MOL0     C35032   2.842  10.312   2.397 -0.2631  0.4276 -1.2824
 1001MOL0     C35033   2.938  10.257   2.320  0.2432  0.2367  0.5735
 1001MOL0     C35034   3.078  10.294   2.322 -0.3163 -0.1517  0.0712
 1001MOL0     C35035   3.117  10.397   2.411  0.3307  0.6443 -0.1976
 1001MOL0     O35036   3.251  10.434   2.410 -0.3240 -0.2402 -0.2685
 1001MOL0     C35037   3.306  10.473   2.542  0.1109  1.0747 -0.1547
 1001MOL0     C35038   3.457  10.473   2.536  0.5374  0.4862 -0.2981
 1001MOL0     C35039   3.505  10.577   2.441  0.1323  0.2666  0.1943
 1001MOL0     C35040   3.654  10.601   2.450 -0.1552 -0.4475 -0.8059
 1001MOL0     C35041   3.704  10.691   2.343  0.3859  0.5933  0.1202
 1001MOL0     C35042   3.861  10.712   2.357 -0.4315 -0.9928 -0.0066
 1001MOL0     C35043   3.891  10.824   2.463  0.1993  0.6050 -0.5613
 1001MOL0     C35044   4.033  10.869   2.477 -0.3669  0.2841 -0.6849
 1001MOL0    Cl35045   4.046  11.035   2.545  0.2921  0.1095  0.1957
 1001MOL0     C35046   3.026  10.458   2.496 -0.0903  0.4529  0.0729
 1001MOL0     C35047   2.888  10.412   2.484 -0.1427  0.4935  0.4905
 1001MOL0     O35048   2.650  10.243   2.614  0.3394 -0.3316  0.7625
 1001MOL0     C35049   2.477  10.147   2.307  0.1042 -0.8442 -0.3215
 1001MOL0     C35050   2.378  10.064   2.262 -0.2631  0.1225  0.6954
 1001MOL0     N35051   1.852   9.606   2.287 -0.7028  0.5878 -1.2680
 1001MOL0     N35052   1.930   9.501   2.288  0.3207  0.3706 -0.5519
 1001MOL0     C35053   3.085   9.998   1.989  0.8017 -0.4999  0.5802
 1001MOL0     C35054   3.225   9.993   1.982 -0.1340  0.3634  0.5824
 1001MOL0     C35055   3.632   9.786   1.995 -0.0092  0.9090  1.4321
 1001MOL0     C35056   3.720   9.894   2.006  0.0478 -0.2015 -0.3270
 1001MOL0     C35057   3.859   9.878   1.994 -0.5474 -0.6354  0.4196
 1001MOL0     C35058   3.912   9.751   1.971  0.1134  0.3779 -0.4051
 1001MOL0     O35059   4.052   9.718   1.963  0.8046  0.1301 -0.4427
 1001MOL0     C35060   4.154   9.818   1.977 -0.1068  1.1528 -0.7712
 1001MOL0     C35061   4.172   9.902   1.844  1.1526  0.0199  0.3565
 1001MOL0     C35062   4.298   9.995   1.850 -0.5474  0.0249 -0.1527
 1001MOL0     C35063   4.304  10.088   1.973  0.3588  0.3088  0.1998
 1001MOL0     C35064   4.183  10.166   1.991 -0.0447 -0.6097  0.1917
 1001MOL0     C35065   4.077  10.228   2.001  0.0087  0.6370 -0.1337
 1001MOL0     C35066   3.825   9.641   1.969  0.5597  0.0634 -0.6544
 1001MOL0     C35067   3.687   9.660   1.959  0.7064  0.7636 -0.1696
 1001MOL0     H35068   3.280   9.825   2.264  0.0814  1.2335  0.6073
 1001MOL0     H35069   3.041   9.861   2.292 -0.5028 -1.2242 -1.3863
 1001MOL0     H35070   2.707   9.913   2.030 -0.6933 -0.5541 -0.1990
 1001MOL0     H35071   2.848   9.806   1.997  1.7899 -0.3568  1.3471
 1001MOL0     H35072   2.838   9.748   2.246 -0.4421 -1.6442 -0.6175
 1001MOL0     H35073   2.690   9.850   2.253  0.0147  0.6737 -0.3523
 1001MOL0     H35074   2.614   9.684   2.041  1.0049 -0.1953 -0.8115
 1001MOL0     H35075   2.723   9.580   2.103  2.1594  1.4951 -2.0249
 1001MOL0     H35076   2.615   9.580   2.327  2.6778  0.6958 -1.4590
 1001MOL0     H35077   2.499   9.714   2.260 -2.0509  0.8453 -6.4162
 1001MOL0     H35078   2.402   9.566   2.121 -1.4583  0.0954  1.6624
 1001MOL0     H35079   2.503   9.425   2.167 -0.3746 -0.9453  0.3212
 1001MOL0     H35080   2.427   9.432   2.384 -0.7779  1.0758  0.6262
 1001MOL0     H35081   2.324   9.588   2.356 -0.4761  0.0907  2.9741
 1001MOL0     H35082   2.194   9.466   2.194  0.0268  3.9650  2.3306
 1001MOL0     H35083   2.266   9.305   2.258 -0.5047 -0.6232  1.0396
 1001MOL0     H35084   2.191   9.428   2.482  3.4987 -0.2168 -2.6458
 1001MOL0     H35085   2.083   9.318   2.395 -2.0046  0.3241  1.2087
 1001MOL0     H35086   2.105   9.688   2.490 -1.3064 -1.3083  1.3013
 1001MOL0     H35087   1.756   9.770   2.487  1.4378 -3.1978  1.5089
 1001MOL0     H35088   1.908   9.820   2.556  1.7199 -0.7139 -1.2824
 1001MOL0     H35089   1.816  10.009   2.464 -0.8633 -1.0083  0.1943
 1001MOL0     H35090   1.809   9.956   2.307 -3.0546  1.0792  2.6298
 1001MOL0     H35091   2.062  10.000   2.471  0.5979  1.3914  0.5768
 1001MOL0     H35092   1.996  10.111   2.355  0.1538 -1.2834  0.0483
 1001MOL0     H35093   2.098  10.017   2.181  0.5699  0.2110 -1.5917
 1001MOL0     H35094   2.021   9.864   2.235 -0.7026  1.7544 -0.4918
 1001MOL0     H35095   2.303   9.899   2.540 -0.3399 -1.0374 -1.0048
 1001MOL0     H35096   2.399   9.969   2.724  1.5594 -1.3509  0.6993
 1001MOL0     H35097   2.573  10.028   2.713  0.6930 -0.3521 -2.1022
 1001MOL0     H35098   2.449  10.129   2.769  0.8872  0.2690 -1.0531
 1001MOL0     H35099   2.897  10.180   2.255  1.7861 -1.3125  1.3612
 1001MOL0     H35100   3.150  10.235   2.265 -0.6284 -0.4388 -0.0310
 1001MOL0     H35101   3.263  10.570   2.570 -1.3368  0.7259 -1.0474
 1001MOL0     H35102   3.271  10.405   2.620 -0.5887  1.8723  0.2450
 1001MOL0     H35103   3.502  10.489   2.635  0.4948  0.3134 -0.2524
 1001MOL0     H35104   3.481  10.371   2.505 -0.1875  0.5851 -1.2333
 1001MOL0     H35105   3.448  10.669   2.453  0.1302  0.3446 -0.3813
 1001MOL0     H35106   3.490  10.542   2.338  1.5223 -0.2305  0.1356
 1001MOL0     H35107   3.663  10.638   2.553 -1.9922 -4.4554  1.0464
 1001MOL0     H35108   3.710  10.507   2.448  1.1805  0.2195  1.4236
 1001MOL0     H35109   3.657  10.790   2.345  0.8546  0.9256 -2.3517
 1001MOL0     H35110   3.671  10.647   2.249 -1.7605 -2.2026  2.0008
 1001MOL0     H35111   3.918  10.620   2.372  1.0662 -0.0240  0.5825
 1001MOL0     H35112   3.901  10.752   2.263  2.2294  1.3340  1.9390
 1001MOL0     H35113   3.854  10.793   2.561  1.1667 -3.1992 -1.2236
 1001MOL0     H35114   3.829  10.910   2.434 -0.6705  0.9793  2.1923
 1001MOL0     H35115   4.059  10.882   2.371 -1.5864  0.6677 -0.9491
 1001MOL0     H35116   4.099  10.794   2.522 -1.1124  0.1799  0.2479
 1001MOL0     H35117   3.050  10.537   2.566  2.0915 -0.2990  0.2448
 1001MOL0     H35118   2.813  10.458   2.548  0.3927 -0.0817  1.5589
 1001MOL0     H35119   2.529  10.211   2.236 -1.1737 -0.0075 -0.5345
 1001MOL0     H35120   2.347  10.065   2.158  0.5182 -1.3506  0.4127
 1001MOL0     H35121   3.025  10.029   1.904 -0.6104  0.4398  1.8615
 1001MOL0     H35122   3.261  10.026   1.885  0.9928 -0.1011  0.8293
 1001MOL0     H35123   3.685   9.994   2.029  0.5467  0.2374 -1.4101
 1001MOL0     H35124   3.924   9.963   2.013 -0.1461 -1.1231  1.3270
 1001MOL0     H35125   4.132   9.875   2.067 -2.5950 -2.7504  1.4024
 1001MOL0     H35126   4.245   9.763   2.002  0.6642  1.3354 -2.9216
 1001MOL0     H35127   4.076   9.950   1.824  2.0838  1.0009 -2.0956
 1001MOL0     H35128   4.190   9.840   1.756 -1.0338  1.6520 -1.3388
 1001MOL0     H35129   4.293  10.058   1.761 -0.8749 -2.1345 -1.7434
 1001MOL0     H35130   4.384   9.928   1.837 -1.7973 -1.9127  0.9346
 1001MOL0     H35131   4.389  10.157   1.968  0.8192  0.1228  3.3658
 1001MOL0     H35132   4.310  10.023   2.061  0.5708  0.8277  0.5753
 1001MOL0     H35133   3.985  10.283   2.008 -0.1006  0.2798  1.5274
 1001MOL0     H35134   3.863   9.539   1.969 -2.2007 -1.0502  0.5108
 1001MOL0     H35135   3.629   9.570   1.947  2.5660 -0.7039  1.2346
 1002MOL0     O35136   6.647  10.918   2.986 -0.3382 -0.3270 -1.0027
 1002MOL0     C35137   6.657  10.815   2.927 -0.3912 -0.4957 -0.2345
 1002MOL0     O35138   6.554  10.730   2.897 -0.1412 -0.1342 -1.1800
 1002MOL0     C35139   6.420  10.761   2.922  0.2608 -0.0471  0.7934
 1002MOL0     C35140   6.358  10.888   2.926 -0.5320  0.7812 -0.6465
 1002MOL0     C35141   6.222  10.901   2.954 -0.6285 -0.7929 -0.0155
 1002MOL0     C35142   6.150  10.787   2.977 -0.0768 -0.0341  0.7996
 1002MOL0     O35143   6.013  10.786   3.018  0.2713  0.2225 -0.3957
 1002MOL0     C35144   5.944  10.910   3.033  0.2314 -0.1841  0.4400
 1002MOL0     C35145   5.793  10.892   3.010  0.2882  0.0336  0.2977
 1002MOL0     C35146   5.730  10.781   3.095 -0.3013  0.2787  0.2411
 1002MOL0     C35147   5.589  10.764   3.044 -0.4348 -0.1696  0.5731
 1002MOL0     C35148   5.503  10.712   3.155  0.3695 -0.1742  0.0763
 1002MOL0     C35149   5.359  10.707   3.121 -0.2599 -0.4244  0.6908
 1002MOL0     C35150   5.278  10.666   3.241  0.4161  0.0963 -0.0739
 1002MOL0     C35151   5.130  10.672   3.197 -0.5774  0.4290 -1.0027
 1002MOL0     N35152   5.036  10.655   3.305  0.1600 -0.2871  0.1114
 1002MOL0     C35153   4.975  10.537   3.342 -0.5256  0.4074 -0.2250
 1002MOL0     C35154   4.891  10.573   3.446  0.3881 -0.3386  0.1119
 1002MOL0     C35155   4.827  10.471   3.539 -0.0339 -0.7036 -0.8665
 1002MOL0     C35156   4.688  10.503   3.598 -0.0734 -0.1644  0.7739
 1002MOL0     C35157   4.578  10.513   3.498  0.5302 -0.2733  0.0875
 1002MOL0     C35158   4.451  10.544   3.571  0.6287 -0.0497  0.6452
 1002MOL0     O35159   4.409  10.428   3.651  0.1133  0.4264  0.4209
 1002MOL0     C35160   4.274  10.390   3.660 -0.6617  0.0405  0.5329
 1002MOL0     C35161   4.160  10.469   3.626  0.1779  0.2675  0.2479
 1002MOL0     C35162   4.029  10.430   3.654 -0.6189 -0.1914 -0.0952
 1002MOL0     C35163   3.918  10.531   3.640 -0.6023 -1.0338 -0.2618
 1002MOL0     C35164   4.008  10.300   3.714  0.6576  0.1635  0.7184
 1002MOL0     C35165   3.874  10.250   3.742 -1.0373 -0.0009  0.3744
 1002MOL0     O35166   3.871  10.151   3.830 -0.1053  0.0202 -1.3473
 1002MOL0     C35167   3.756  10.075   3.841  0.6699 -0.1951 -0.7918
 1002MOL0     C35168   3.773   9.936   3.825  0.1524 -0.1900 -0.2504
 1002MOL0     C35169   3.658   9.858   3.824 -0.8816  0.2683 -0.8204
 1002MOL0     C35170   3.527   9.906   3.840 -0.5568 -0.7253 -0.0601
 1002MOL0     O35171   3.418   9.816   3.841  0.0746 -0.1212  0.5496
 1002MOL0     C35172   3.323   9.854   3.739  0.2957 -0.0108  0.3222
 1002MOL0     C35173   3.243   9.733   3.710 -0.5028  0.6894 -0.7584
 1002MOL0     C35174   3.324   9.617   3.643  0.5769 -0.9785 -0.3669
 1002MOL0     C35175   3.363   9.635   3.505  0.5426 -0.5977  0.0373
 1002MOL0     C35176   3.418   9.519   3.436  0.2676  1.3518 -0.6985
 1002MOL0     C35177   3.557   9.469   3.483  0.5581 -0.1035  1.0263
 1002MOL0     C35178   3.669   9.570   3.446  0.0019 -0.3761  0.4493
 1002MOL0     C35179   3.811   9.542   3.482  0.2092  0.2087  0.6353
 1002MOL0    Cl35180   3.857   9.560   3.652  0.1564 -0.1793 -0.1416
 1002MOL0     C35181   3.518  10.041   3.875  0.3104 -0.7563 -0.6552
 1002MOL0     C35182   3.634  10.127   3.864  1.1746  0.7316  0.2055
 1002MOL0     O35183   3.779  10.290   3.675 -0.1055 -0.1902 -0.8494
 1002MOL0     C35184   4.116  10.217   3.743  0.4258 -0.8300  0.0131
 1002MOL0     C35185   4.250  10.265   3.720  0.5823  0.2515 -0.7826
 1002MOL0     N35186   4.876  10.706   3.450  0.4258  0.2928 -0.5123
 1002MOL0     N35187   4.965  10.758   3.369 -0.3632  0.0705  0.3309
 1002MOL0     C35188   6.207  10.664   2.970 -0.1018  0.0484 -0.3509
 1002MOL0     C35189   6.346  10.644   2.939 -0.2826 -0.6090 -0.1855
 1002MOL0     C35190   6.798  10.795   2.892  0.3828 -0.6547  0.2157
 1002MOL0     C35191   6.903  10.883   2.930 -0.1315  0.4687 -0.3944
 1002MOL0     C35192   7.033  10.854   2.870  0.3480 -0.5110 -0.4406
 1002MOL0     C35193   7.066  10.750   2.784 -0.1970  1.0479 -0.4803
 1002MOL0     O35194   7.191  10.727   2.732 -0.0006  0.3501  0.0738
 1002MOL0     C35195   7.290  10.826   2.757 -0.2356  0.3998  0.6021
 1002MOL0     C35196   7.387  10.807   2.648 -0.0368  0.1789  0.3507
 1002MOL0     C35197   7.469  10.676   2.681  0.6161  0.1532  0.0968
 1002MOL0     C35198   7.541  10.613   2.560 -1.0457  0.1381  0.3600
 1002MOL0     C35199   7.665  10.680   2.515 -0.2700 -0.2741 -0.4523
 1002MOL0     C35200   7.763  10.733   2.465 -0.7036 -0.3769  0.0910
 1002MOL0     C35201   6.959  10.666   2.756  0.0190  0.3065 -0.3929
 1002MOL0     C35202   6.829  10.692   2.798 -0.0968  0.0103 -0.9336
 1002MOL0     H35203   6.422  10.973   2.906  2.3346 -0.1399  3.3251
 1002MOL0     H35204   6.180  11.001   2.954  0.7887 -0.1809  0.6721
 1002MOL0     H35205   5.951  10.955   3.132 -1.1464  0.3592  0.3121
 1002MOL0     H35206   5.981  10.983   2.960  0.5963 -0.8036 -0.0027
 1002MOL0     H35207   5.737  10.985   3.021  1.1232  0.8689 -1.9941
 1002MOL0     H35208   5.785  10.866   2.904  2.7140 -0.2847  0.1505
 1002MOL0     H35209   5.794  10.693   3.101  2.9996  2.4305 -0.5038
 1002MOL0     H35210   5.733  10.819   3.198  0.4829 -0.4784  0.5118
 1002MOL0     H35211   5.556  10.865   3.021  1.5990  0.1570 -1.1407
 1002MOL0     H35212   5.580  10.703   2.954 -1.4951  0.1558  0.4462
 1002MOL0     H35213   5.530  10.611   3.188  0.6151 -0.0247  0.3450
 1002MOL0     H35214   5.507  10.786   3.236 -2.2641 -1.1714  1.2391
 1002MOL0     H35215   5.324  10.803   3.082  0.7983  0.7766  2.5614
 1002MOL0     H35216   5.339  10.641   3.036  0.1599  0.9354 -0.5144
 1002MOL0     H35217   5.297  10.561   3.264 -2.4387 -0.6659 -0.7351
 1002MOL0     H35218   5.289  10.720   3.335 -0.2302 -2.8920  1.8342
 1002MOL0     H35219   5.117  10.590   3.126  0.2663  0.7931 -1.5949
 1002MOL0     H35220   5.125  10.773   3.155  1.2705  1.3765  0.8576
 1002MOL0     H35221   5.000  10.435   3.314  1.4597  1.5602 -2.9671
 1002MOL0     H35222   4.797  10.385   3.479 -2.9045  1.3472 -2.6814
 1002MOL0     H35223   4.893  10.445   3.622 -0.8853 -0.1990 -0.0128
 1002MOL0     H35224   4.701  10.595   3.656 -0.6697  0.9601 -0.8017
 1002MOL0     H35225   4.675  10.421   3.669 -1.8454 -0.7148 -0.1150
 1002MOL0     H35226   4.557  10.411   3.465  0.8682 -1.6320  3.6363
 1002MOL0     H35227   4.603  10.575   3.411  1.8186  0.1051  0.7018
 1002MOL0     H35228   4.385  10.563   3.486  2.7274  1.9126 -0.6766
 1002MOL0     H35229   4.449  10.626   3.643 -4.2530 -1.5587  2.6568
 1002MOL0     H35230   4.161  10.567   3.581 -0.5134  0.1417 -0.0709
 1002MOL0     H35231   3.867  10.508   3.546 -0.2159  3.3713 -1.7879
 1002MOL0     H35232   3.854  10.526   3.728  0.1814  3.8885  0.8306
 1002MOL0     H35233   3.959  10.632   3.633  0.0323 -1.2175  0.7179
 1002MOL0     H35234   3.867   9.881   3.820 -0.8266 -2.0582  0.8626
 1002MOL0     H35235   3.676   9.754   3.802  2.4965  0.6311 -0.3703
 1002MOL0     H35236   3.260   9.938   3.769 -0.5241  0.1161 -1.6200
 1002MOL0     H35237   3.373   9.896   3.651  0.8212 -2.9893 -0.9287
 1002MOL0     H35238   3.193   9.684   3.795  3.6168 -1.0707  0.9559
 1002MOL0     H35239   3.158   9.756   3.645 -2.3320 -2.9142  0.1079
 1002MOL0     H35240   3.262   9.527   3.644  0.8330 -1.1618 -0.7716
 1002MOL0     H35241   3.409   9.599   3.709  1.3109 -2.5628 -1.6827
 1002MOL0     H35242   3.276   9.679   3.455  2.6051  1.8036 -1.7392
 1002MOL0     H35243   3.442   9.711   3.505  0.4794 -0.5313 -0.1830
 1002MOL0     H35244   3.415   9.543   3.329  0.0687 -0.5540 -1.1663
 1002MOL0     H35245   3.350   9.434   3.448  1.7310  0.1566 -0.5381
 1002MOL0     H35246   3.552   9.456   3.591  1.0455  0.4436  1.1173
 1002MOL0     H35247   3.574   9.374   3.432  1.4908 -0.4779  1.9993
 1002MOL0     H35248   3.641   9.664   3.494 -0.6608 -0.2930 -0.0903
 1002MOL0     H35249   3.677   9.599   3.341  2.3633  1.1714  0.9693
 1002MOL0     H35250   3.875   9.604   3.419 -2.6988  1.1475 -1.6323
 1002MOL0     H35251   3.827   9.438   3.451  1.8114  0.3649  0.8293
 1002MOL0     H35252   3.426  10.080   3.917  0.7523 -1.9720  1.6110
 1002MOL0     H35253   3.622  10.231   3.894  0.0176  0.5422  0.4411
 1002MOL0     H35254   4.115  10.121   3.793  0.1743 -0.7660  0.1293
 1002MOL0     H35255   4.331  10.203   3.755 -0.5087 -0.0815  1.2983
 1002MOL0     H35256   6.132  10.586   2.968 -0.6415  0.5588 -2.8773
 1002MOL0     H35257   6.400  10.550   2.940  2.8964  1.1073  1.8073
 1002MOL0     H35258   6.887  10.973   2.988 -1.2058  0.9023 -1.3301
 1002MOL0     H35259   7.104  10.927   2.909 -1.1679 -0.2222  2.0493
 1002MOL0     H35260   7.253  10.929   2.750  2.0940  1.3589  1.1077
 1002MOL0     H35261   7.344  10.817   2.852  1.2605 -0.7045 -0.3007
 1002MOL0     H35262   7.459  10.890   2.648  2.9342 -2.1959  0.4577
 1002MOL0     H35263   7.335  10.789   2.553 -3.7231 -3.0190  2.6764
 1002MOL0     H35264   7.399  10.599   2.716  0.0855  0.0734 -1.1091
 1002MOL0     H35265   7.542  10.689   2.761 -1.3338  1.0203  1.8356
 1002MOL0     H35266   7.464  10.588   2.486  1.0122  0.4575 -1.9937
 1002MOL0     H35267   7.584  10.517   2.592  1.1806  0.1899 -2.1653
 1002MOL0     H35268   7.845  10.794   2.432  1.0086 -1.9671  1.2220
 1002MOL0     H35269   6.974  10.593   2.677  1.1951  0.8172 -0.6623
 1002MOL0     H35270   6.747  10.630   2.762 -0.1099 -0.9683  0.6501
 1003MOL0     O35271   7.271   7.400  10.647  0.2582  0.3725 -0.3190
 1003MOL0     C35272   7.355   7.491  10.651  0.5211 -0.7420  0.5852
 1003MOL0     O35273   7.330   7.623  10.618  0.3404 -0.3925  0.0228
 1003MOL0     C35274   7.201   7.686  10.600 -0.7264  0.0912 -0.4016
 1003MOL0     C35275   7.201   7.820  10.596 -0.1994 -0.8677 -0.1157
 1003MOL0     C35276   7.078   7.892  10.588 -0.0121 -0.9636  0.8617
 1003MOL0     C35277   6.954   7.831  10.587  0.4251  0.2552 -0.1143
 1003MOL0     O35278   6.825   7.893  10.580  0.1116  0.0741  0.3001
 1003MOL0     C35279   6.810   8.031  10.542  0.6099  0.5897 -0.1792
 1003MOL0     C35280   6.708   8.043  10.422  0.4028 -0.8165 -0.1206
 1003MOL0     C35281   6.571   7.987  10.458  0.8838 -0.2702  0.6284
 1003MOL0     C35282   6.488   7.973  10.333  0.9072  0.4700  0.0113
 1003MOL0     C35283   6.363   7.885  10.351  0.1153 -0.3285  0.4433
 1003MOL0     C35284   6.259   7.976  10.419  0.0799  0.4997 -0.1488
 1003MOL0     C35285   6.131   7.904  10.462  0.0143 -0.0586 -0.0906
 1003MOL0     C35286   6.150   7.832  10.596  0.5463  0.4968  0.6925
 1003MOL0     N35287   6.034   7.752  10.620  0.0270 -0.4468  0.0191
 1003MOL0     C35288   5.921   7.818  10.649  0.2342 -0.0892  0.0031
 1003MOL0     C35289   5.826   7.726  10.642  0.1598  0.1989  0.0572
 1003MOL0     C35290   5.686   7.743  10.675 -0.1823 -0.2114  0.0555
 1003MOL0     C35291   5.652   7.858  10.771  0.3904 -0.4196  0.5892
 1003MOL0     C35292   5.499   7.850  10.802  0.0489  0.0319 -0.7200
 1003MOL0     C35293   5.479   7.912  10.944  0.3548  0.6759 -0.6449
 1003MOL0     O35294   5.340   7.928  10.983  0.1809 -0.1190 -0.2278
 1003MOL0     C35295   5.280   8.050  10.959  0.3938 -0.0424 -0.7822
 1003MOL0     C35296   5.323   8.155  10.881 -0.4122 -0.3201 -0.6588
 1003MOL0     C35297   5.263   8.278  10.889  0.3738 -0.0797 -0.0036
 1003MOL0     C35298   5.331   8.385  10.803 -0.6979 -0.3442 -0.5556
 1003MOL0     C35299   5.142   8.292  10.966  0.5001 -0.2992  0.3403
 1003MOL0     C35300   5.069   8.423  10.981  0.1946  0.6010  0.1669
 1003MOL0     O35301   4.993   8.428  11.101  0.0936 -0.2712 -0.2982
 1003MOL0     C35302   4.932   8.543  11.140 -0.3236  0.4539 -0.7619
 1003MOL0     C35303   4.884   8.655  11.061 -0.8933  0.2109 -0.6572
 1003MOL0     C35304   4.835   8.758  11.135  0.5931  0.0230  0.0871
 1003MOL0     C35305   4.832   8.766  11.279 -0.5503  0.3597 -0.0403
 1003MOL0     O35306   4.790   8.888  11.332  0.3872 -0.2211 -0.0685
 1003MOL0     C35307   4.881   8.941  11.435  0.8492 -0.3007 -0.4001
 1003MOL0     C35308   4.882   9.096  11.412  0.1353  0.0934 -0.2746
 1003MOL0     C35309   4.738   9.153  11.439  0.3182 -0.3845 -0.6339
 1003MOL0     C35310   4.702   9.167  11.598 -0.5195 -0.5898  0.2360
 1003MOL0     C35311   4.552   9.197  11.623  0.4238 -0.5069  0.7013
 1003MOL0     C35312   4.526   9.353  11.624 -0.2758  0.0240 -0.3520
 1003MOL0     C35313   4.372   9.386  11.649 -1.2885  0.0163  0.2304
 1003MOL0     C35314   4.355   9.535  11.618  0.5844 -0.0540 -0.3773
 1003MOL0    Cl35315   4.396   9.636  11.760 -0.2904  0.2426 -0.3003
 1003MOL0     C35316   4.881   8.653  11.354 -0.1082  0.1325 -0.9840
 1003MOL0     C35317   4.930   8.548  11.283  0.1424  0.2696  0.3816
 1003MOL0     O35318   5.074   8.515  10.902  0.0423  0.0398 -0.1906
 1003MOL0     C35319   5.083   8.174  11.021 -0.7389 -0.1587  0.7687
 1003MOL0     C35320   5.161   8.059  11.031  0.2328 -0.4613 -0.0062
 1003MOL0     N35321   5.881   7.601  10.619 -0.0711 -0.4640  0.1557
 1003MOL0     N35322   6.007   7.620  10.595 -0.4319 -0.5156  0.0817
 1003MOL0     C35323   6.955   7.692  10.601 -0.3388  0.1668 -0.7186
 1003MOL0     C35324   7.069   7.618  10.614 -0.4494 -0.8268 -0.1080
 1003MOL0     C35325   7.496   7.468  10.695  0.0715 -0.1049 -0.1873
 1003MOL0     C35326   7.548   7.338  10.721 -1.5113 -0.5220 -0.1928
 1003MOL0     C35327   7.674   7.325  10.767 -0.8609  0.3211 -0.6239
 1003MOL0     C35328   7.770   7.432  10.761 -0.4624 -0.2761 -0.2595
 1003MOL0     O35329   7.898   7.392  10.795  0.1043  0.2298  0.1005
 1003MOL0     C35330   8.003   7.502  10.808  0.2974 -0.0559  0.2936
 1003MOL0     C35331   8.121   7.448  10.895  0.4485  0.4806  0.1165
 1003MOL0     C35332   8.082   7.408  11.043  0.0960  0.9684 -0.2871
 1003MOL0     C35333   8.190   7.322  11.113 -0.4475 -0.2751  0.9818
 1003MOL0     C35334   8.136   7.246  11.221  0.2961 -0.4204 -0.2133
 1003MOL0     C35335   8.098   7.166  11.308 -0.4728  0.4902 -0.2119
 1003MOL0     C35336   7.720   7.557  10.733  0.8828 -0.2577 -0.3649
 1003MOL0     C35337   7.587   7.577  10.699 -0.0755 -0.3493  0.2268
 1003MOL0     H35338   7.292   7.877  10.584 -1.1356  0.4842 -1.1136
 1003MOL0     H35339   7.095   7.999  10.578  1.0599 -1.0762  1.3319
 1003MOL0     H35340   6.786   8.088  10.632  1.2008 -3.0032  2.5089
 1003MOL0     H35341   6.904   8.069  10.499  1.5685 -2.7544 -1.4523
 1003MOL0     H35342   6.696   8.149  10.396 -0.4529 -0.9354 -0.2238
 1003MOL0     H35343   6.749   7.986  10.339 -0.6876 -1.4390 -0.2467
 1003MOL0     H35344   6.570   7.901  10.524 -2.1336  0.0280  1.1421
 1003MOL0     H35345   6.520   8.066  10.515  0.1443  0.2977 -0.7717
 1003MOL0     H35346   6.460   8.073  10.299 -0.3172  0.4839  0.9800
 1003MOL0     H35347   6.551   7.924  10.258  1.0657  1.5949 -0.6020
 1003MOL0     H35348   6.331   7.857  10.250  1.2047  1.3791 -0.4132
 1003MOL0     H35349   6.382   7.797  10.413 -1.7169 -1.0795  0.0361
 1003MOL0     H35350   6.305   8.020  10.508 -0.5086 -0.5967  0.7319
 1003MOL0     H35351   6.225   8.050  10.346  0.6237 -1.0660 -2.0765
 1003MOL0     H35352   6.046   7.973  10.474 -1.4074 -1.6753 -0.5195
 1003MOL0     H35353   6.093   7.837  10.386 -0.0010 -1.5403  1.1719
 1003MOL0     H35354   6.149   7.905  10.678 -1.4282  0.0636  1.0969
 1003MOL0     H35355   6.244   7.776  10.586 -0.6066 -1.4070  0.0546
 1003MOL0     H35356   5.912   7.924  10.671  0.5541  0.0550 -0.5527
 1003MOL0     H35357   5.638   7.758  10.578  4.1209 -0.2978 -2.3606
 1003MOL0     H35358   5.655   7.645  10.711  3.2340 -1.8186 -0.9042
 1003MOL0     H35359   5.673   7.956  10.728 -2.4149  0.7885  1.6812
 1003MOL0     H35360   5.702   7.850  10.868  1.9017 -2.1576 -0.2970
 1003MOL0     H35361   5.461   7.748  10.812 -1.3557  0.4716 -1.2947
 1003MOL0     H35362   5.428   7.899  10.735 -2.0133 -1.0513  0.5642
 1003MOL0     H35363   5.532   8.007  10.947  0.1462  0.7988 -0.8562
 1003MOL0     H35364   5.517   7.856  11.031 -0.0425  2.2102  0.5654
 1003MOL0     H35365   5.415   8.143  10.825 -0.6281  1.1937 -1.4054
 1003MOL0     H35366   5.264   8.424  10.726 -2.2845  1.1348  1.4766
 1003MOL0     H35367   5.362   8.467  10.868  0.7738  0.9276 -2.7040
 1003MOL0     H35368   5.425   8.353  10.756  0.9650  0.4006  2.0761
 1003MOL0     H35369   4.886   8.655  10.952  0.7563  0.2831 -0.6507
 1003MOL0     H35370   4.795   8.842  11.079 -2.4474 -0.5113  1.2515
 1003MOL0     H35371   4.843   8.921  11.536 -3.4124  2.3516 -1.2403
 1003MOL0     H35372   4.978   8.890  11.429  1.1376  0.3945 -2.7745
 1003MOL0     H35373   4.956   9.148  11.474 -0.1005 -1.1376  1.1144
 1003MOL0     H35374   4.917   9.127  11.314 -0.3497  2.3624  0.1971
 1003MOL0     H35375   4.660   9.092  11.391  0.0827  0.0707 -0.8384
 1003MOL0     H35376   4.725   9.248  11.385  2.4349  1.1589  1.3843
 1003MOL0     H35377   4.712   9.072  11.652  2.0312  0.5579  1.9752
 1003MOL0     H35378   4.772   9.237  11.644 -0.1198 -0.3367 -0.7405
 1003MOL0     H35379   4.527   9.163  11.724  1.5449 -3.2064  0.1432
 1003MOL0     H35380   4.488   9.142  11.554  0.6601 -0.0951  0.1498
 1003MOL0     H35381   4.586   9.389  11.708 -0.8344 -0.7369  0.3850
 1003MOL0     H35382   4.560   9.396  11.530 -0.8465  0.8361 -0.1994
 1003MOL0     H35383   4.351   9.369  11.755 -2.3234 -3.5833 -0.4110
 1003MOL0     H35384   4.314   9.323  11.582 -0.7609 -2.2019  1.7469
 1003MOL0     H35385   4.248   9.544  11.597  0.7288 -1.7487 -2.1153
 1003MOL0     H35386   4.408   9.573  11.531 -2.8485  5.4799 -0.5589
 1003MOL0     H35387   4.879   8.655  11.463 -0.9921 -5.4047 -0.6157
 1003MOL0     H35388   4.973   8.463  11.335 -1.5693  0.3945  2.1229
 1003MOL0     H35389   4.986   8.166  11.069 -0.2470 -1.4685  1.5865
 1003MOL0     H35390   5.116   7.978  11.089  2.6285 -2.0811 -0.2390
 1003MOL0     H35391   6.859   7.643  10.609  0.3282 -1.4611 -2.1214
 1003MOL0     H35392   7.060   7.511  10.626  0.1675 -0.8171  0.5709
 1003MOL0     H35393   7.480   7.253  10.719 -0.5001 -1.3329 -0.6075
 1003MOL0     H35394   7.709   7.230  10.807 -1.8254  1.4242  3.3408
 1003MOL0     H35395   8.054   7.534  10.716 -2.4957 -0.4644 -1.4928
 1003MOL0     H35396   7.961   7.594  10.852  1.7415  0.1809  1.2702
 1003MOL0     H35397   8.208   7.514  10.896  1.3251 -0.6293  0.0194
 1003MOL0     H35398   8.162   7.356  10.852  1.0218  0.3737  0.8654
 1003MOL0     H35399   7.997   7.339  11.038 -0.1668  1.0440  2.2075
 1003MOL0     H35400   8.046   7.488  11.108 -2.8079 -1.4235  1.2943
 1003MOL0     H35401   8.275   7.385  11.140  1.2070 -1.5870 -0.8726
 1003MOL0     H35402   8.227   7.253  11.037  3.1073  2.4418 -0.0264
 1003MOL0     H35403   8.049   7.101  11.378  0.4363 -0.3071 -0.3050
 1003MOL0     H35404   7.791   7.639  10.740 -0.4230  0.8621  0.1145
 1003MOL0     H35405   7.555   7.678  10.676  3.7197  0.9142 -0.1790
 1004MOL0     O35406   0.542   9.034   5.813 -0.4067 -0.2218 -0.5472
 1004MOL0     C35407   0.570   8.961   5.721 -0.8087 -0.7876  0.2193
 1004MOL0     O35408   0.499   8.862   5.673  0.4626 -0.6779  0.1702
 1004MOL0     C35409   0.381   8.846   5.739  1.1746  1.2643 -0.0443
 1004MOL0     C35410   0.383   8.802   5.872  0.3883  0.4293  0.5610
 1004MOL0     C35411   0.261   8.791   5.945  0.0617 -0.1976  0.3937
 1004MOL0     C35412   0.135   8.818   5.882 -0.3931  0.0318  0.4449
 1004MOL0     O35413   0.014   8.817   5.949 -0.9039  0.0161 -0.2664
 1004MOL0     C35414   0.000   8.925   6.040  0.0823  0.5336 -0.0750
 1004MOL0     C35415  -0.096   9.041   5.982  0.1463  0.6910  0.8149
 1004MOL0     C35416  -0.255   9.002   5.984 -0.2825  0.1321  0.1578
 1004MOL0     C35417  -0.333   9.120   5.919 -0.3792 -0.1822 -0.9349
 1004MOL0     C35418  -0.486   9.078   5.901  0.2093  0.3790  0.5152
 1004MOL0     C35419  -0.571   9.187   5.845  0.5643 -0.2224 -0.2539
 1004MOL0     C35420  -0.538   9.211   5.696 -0.2027  0.7364 -0.4643
 1004MOL0     C35421  -0.631   9.306   5.626 -0.7120  0.5299  0.1088
 1004MOL0     N35422  -0.776   9.284   5.648  0.3610 -0.0718  0.6001
 1004MOL0     C35423  -0.851   9.177   5.597 -0.3413 -0.4824  0.1961
 1004MOL0     C35424  -0.982   9.210   5.615  0.3768  0.8959  0.2932
 1004MOL0     C35425  -1.094   9.131   5.564 -0.5448  1.3181  0.2009
 1004MOL0     C35426  -1.211   9.204   5.490 -0.1593  1.1403 -0.4507
 1004MOL0     C35427  -1.327   9.116   5.430  1.8702 -0.0503 -0.7141
 1004MOL0     C35428  -1.384   9.039   5.553 -0.3211 -0.2790 -0.5084
 1004MOL0     O35429  -1.523   9.007   5.546 -0.5027  0.3242 -0.4135
 1004MOL0     C35430  -1.572   8.911   5.460  0.3969  0.2499  0.2719
 1004MOL0     C35431  -1.495   8.805   5.394  0.4827  0.3258 -0.4086
 1004MOL0     C35432  -1.570   8.700   5.329 -0.1424 -0.6771 -0.8984
 1004MOL0     C35433  -1.489   8.583   5.275  0.4480 -0.4823  0.5259
 1004MOL0     C35434  -1.718   8.709   5.321 -0.4561 -0.1767  0.7813
 1004MOL0     C35435  -1.803   8.607   5.255  0.5820  1.0667  0.1634
 1004MOL0     O35436  -1.937   8.639   5.241 -0.9456 -0.0451 -0.0572
 1004MOL0     C35437  -2.032   8.554   5.198 -0.0244 -0.1713 -0.2373
 1004MOL0     C35438  -2.061   8.435   5.267  0.7434  1.1319 -0.5628
 1004MOL0     C35439  -2.149   8.339   5.212  0.5380  0.1454  0.2270
 1004MOL0     C35440  -2.233   8.374   5.097  0.4823 -0.2364 -1.1343
 1004MOL0     O35441  -2.353   8.312   5.063 -0.4125  0.1378  0.8100
 1004MOL0     C35442  -2.398   8.192   5.132 -0.5950 -0.5377 -0.1846
 1004MOL0     C35443  -2.494   8.220   5.245  0.9662  0.3648  0.2896
 1004MOL0     C35444  -2.534   8.097   5.323 -0.0367 -0.1424 -0.4395
 1004MOL0     C35445  -2.618   8.105   5.459 -0.6694 -0.0043  0.6237
 1004MOL0     C35446  -2.638   7.965   5.519  0.6432  0.0410 -0.0398
 1004MOL0     C35447  -2.726   7.975   5.641  0.5591  0.0850 -0.1201
 1004MOL0     C35448  -2.638   8.019   5.767  1.0545  0.7618 -0.5509
 1004MOL0     C35449  -2.679   7.956   5.897  0.3214  0.5147 -0.5148
 1004MOL0    Cl35450  -2.824   8.047   5.949 -0.2041 -0.1350 -0.4897
 1004MOL0     C35451  -2.215   8.502   5.045  0.8290 -0.7254 -0.7536
 1004MOL0     C35452  -2.106   8.588   5.087  0.4959  0.6698  0.6963
 1004MOL0     O35453  -1.758   8.494   5.213 -0.1119 -0.1460  0.1959
 1004MOL0     C35454  -1.777   8.823   5.369 -0.0464  0.1878  1.1035
 1004MOL0     C35455  -1.701   8.914   5.440  0.0729  0.6702 -0.1654
 1004MOL0     N35456  -0.992   9.334   5.665 -0.0649 -0.3544 -0.7700
 1004MOL0     N35457  -0.871   9.374   5.691 -0.4508  0.4880  0.1631
 1004MOL0     C35458   0.136   8.856   5.745 -0.1278  0.1423  0.3456
 1004MOL0     C35459   0.253   8.868   5.672 -0.6736 -1.5656 -0.4972
 1004MOL0     C35460   0.706   8.981   5.665  0.7938 -0.4504  0.3333
 1004MOL0     C35461   0.741   8.938   5.540 -0.2462  0.5321  0.7312
 1004MOL0     C35462   0.868   8.962   5.490  1.3868  0.1662  0.0894
 1004MOL0     C35463   0.967   9.022   5.575  0.5290  0.2481 -1.0325
 1004MOL0     O35464   1.094   9.024   5.521  0.7856  0.5334  0.1095
 1004MOL0     C35465   1.182   9.131   5.565  0.8094 -0.0927 -0.1688
 1004MOL0     C35466   1.268   9.080   5.689 -0.1630 -0.3699  0.2851
 1004MOL0     C35467   1.354   9.196   5.756 -0.3603  0.1823 -0.1995
 1004MOL0     C35468   1.455   9.134   5.867  0.6453 -0.2370  0.0249
 1004MOL0     C35469   1.381   9.087   5.981 -0.7502 -0.0841 -0.1951
 1004MOL0     C35470   1.335   9.053   6.086 -0.2832  0.1273 -0.9680
 1004MOL0     C35471   0.930   9.073   5.698  0.6350 -0.0651 -0.0739
 1004MOL0     C35472   0.800   9.047   5.745 -0.4149 -0.0728 -1.0640
 1004MOL0     H35473   0.477   8.772   5.917  0.3656 -1.7514 -0.7007
 1004MOL0     H35474   0.272   8.769   6.050 -1.8770 -1.4756  0.3819
 1004MOL0     H35475  -0.040   8.882   6.132  1.4758 -0.1567  0.2459
 1004MOL0     H35476   0.089   8.978   6.073 -0.5196  1.9411 -0.6288
 1004MOL0     H35477  -0.088   9.122   6.055 -1.4190  1.2160  0.4444
 1004MOL0     H35478  -0.065   9.073   5.882  0.5825  2.5461  1.4903
 1004MOL0     H35479  -0.275   8.915   5.920 -0.5469 -0.5952  1.2083
 1004MOL0     H35480  -0.289   8.987   6.087 -0.7030 -0.9133 -0.1141
 1004MOL0     H35481  -0.320   9.204   5.987  2.8017 -0.8104 -0.6073
 1004MOL0     H35482  -0.290   9.142   5.820 -0.9840  0.3072 -1.0902
 1004MOL0     H35483  -0.493   8.996   5.829 -2.7691  0.9350  0.0664
 1004MOL0     H35484  -0.535   9.050   5.994 -1.3984  0.5998 -0.2364
 1004MOL0     H35485  -0.673   9.148   5.854  0.1366  0.6491 -1.1303
 1004MOL0     H35486  -0.559   9.271   5.913  1.5268 -1.2733  0.9312
 1004MOL0     H35487  -0.435   9.242   5.679 -0.2622 -0.2358 -2.9293
 1004MOL0     H35488  -0.545   9.114   5.646  0.1189 -0.4916  1.7434
 1004MOL0     H35489  -0.601   9.296   5.521 -1.2681  3.7593 -0.4779
 1004MOL0     H35490  -0.608   9.408   5.658 -2.1278  0.8024  0.3293
 1004MOL0     H35491  -0.814   9.103   5.527 -1.4474 -1.0339  0.1769
 1004MOL0     H35492  -1.052   9.050   5.503 -2.2462  0.9657 -0.5740
 1004MOL0     H35493  -1.143   9.071   5.641 -0.2013 -0.2022 -0.7142
 1004MOL0     H35494  -1.173   9.273   5.414 -0.6410  0.8757 -0.9431
 1004MOL0     H35495  -1.264   9.274   5.555  0.8258  3.0497 -1.5760
 1004MOL0     H35496  -1.300   9.043   5.353  0.1686 -3.3088  1.5269
 1004MOL0     H35497  -1.409   9.177   5.391  0.7257 -0.3215  1.1198
 1004MOL0     H35498  -1.372   9.097   5.644 -0.6993  1.9357 -1.7911
 1004MOL0     H35499  -1.325   8.947   5.552 -0.4769 -0.3942  0.3996
 1004MOL0     H35500  -1.388   8.814   5.408  0.2938  2.1018  0.0037
 1004MOL0     H35501  -1.494   8.585   5.165 -0.8718  1.7185  0.5639
 1004MOL0     H35502  -1.384   8.580   5.304  0.6733 -0.3549 -0.2445
 1004MOL0     H35503  -1.530   8.500   5.332 -3.4686  1.7124  1.2936
 1004MOL0     H35504  -2.009   8.421   5.361 -0.0313  0.2323 -0.2616
 1004MOL0     H35505  -2.180   8.253   5.270 -2.8711  0.4144 -0.9909
 1004MOL0     H35506  -2.457   8.138   5.057 -1.3101  0.6049 -0.4677
 1004MOL0     H35507  -2.312   8.133   5.166 -0.4208  0.3983  1.0897
 1004MOL0     H35508  -2.452   8.297   5.309  1.1839 -0.0768  0.6836
 1004MOL0     H35509  -2.588   8.255   5.201  1.3240  0.8406 -0.1186
 1004MOL0     H35510  -2.440   8.048   5.349 -0.5867 -0.5872  0.8305
 1004MOL0     H35511  -2.587   8.027   5.257 -0.5361  1.0161 -1.2982
 1004MOL0     H35512  -2.567   8.169   5.532 -0.0407 -0.9617  1.0520
 1004MOL0     H35513  -2.716   8.147   5.436  0.1336  0.9174 -1.2446
 1004MOL0     H35514  -2.544   7.913   5.543  2.2168  3.2674  1.4375
 1004MOL0     H35515  -2.701   7.913   5.447 -1.9753  1.6359  0.9606
 1004MOL0     H35516  -2.800   8.054   5.624  1.7845  1.1831 -0.4233
 1004MOL0     H35517  -2.779   7.882   5.664  1.8094 -0.5479  0.2420
 1004MOL0     H35518  -2.628   8.126   5.788  0.8181  0.8367 -0.8171
 1004MOL0     H35519  -2.541   7.982   5.734  0.9775 -2.0027  1.9353
 1004MOL0     H35520  -2.602   7.955   5.975 -0.9248 -1.1280  0.7570
 1004MOL0     H35521  -2.709   7.853   5.875 -0.6461  1.2875 -3.1436
 1004MOL0     H35522  -2.289   8.525   4.969  1.7373 -0.6017 -1.6231
 1004MOL0     H35523  -2.090   8.688   5.046  2.0607  0.0003 -0.4139
 1004MOL0     H35524  -1.885   8.838   5.363 -0.1284  0.1894  2.3722
 1004MOL0     H35525  -1.752   8.997   5.487 -2.3126  1.5625 -3.8934
 1004MOL0     H35526   0.046   8.882   5.691 -0.5727 -0.7320  0.6518
 1004MOL0     H35527   0.260   8.902   5.570  0.5365 -3.0269 -0.9405
 1004MOL0     H35528   0.674   8.893   5.467  1.4626  1.0122 -1.2361
 1004MOL0     H35529   0.898   8.916   5.396 -0.3410 -0.3124 -0.2685
 1004MOL0     H35530   1.246   9.162   5.482 -0.9008  1.2881 -1.0199
 1004MOL0     H35531   1.126   9.220   5.594  2.1308  0.7631 -0.1409
 1004MOL0     H35532   1.325   8.991   5.658 -0.5350 -0.4900 -0.0615
 1004MOL0     H35533   1.199   9.039   5.764 -0.0554 -1.2238 -0.0754
 1004MOL0     H35534   1.291   9.275   5.798 -0.3957  0.6123 -1.0452
 1004MOL0     H35535   1.425   9.236   5.683  1.8079 -0.5533  1.3801
 1004MOL0     H35536   1.532   9.206   5.894  1.2634 -0.4868 -1.0211
 1004MOL0     H35537   1.514   9.055   5.820  0.9124  0.2178 -0.4141
 1004MOL0     H35538   1.296   9.022   6.181 -0.2691 -0.3452 -1.1123
 1004MOL0     H35539   0.989   9.127   5.771 -0.8622 -1.8695  2.7087
 1004MOL0     H35540   0.764   9.073   5.844 -1.5993  1.1663 -1.7938
 1005MOL0     O35541   3.093   1.161   6.897 -0.0840 -0.3731  0.1517
 1005MOL0     C35542   3.113   1.272   6.946  0.4923  0.3457 -0.6626
 1005MOL0     O35543   3.013   1.368   6.968  0.3378  0.5336  0.1163
 1005MOL0     C35544   2.884   1.343   6.932 -0.0162  0.1042  0.0690
 1005MOL0     C35545   2.786   1.310   7.033 -0.7800  0.2800 -0.4603
 1005MOL0     C35546   2.656   1.257   6.999 -1.0531 -0.1159  0.1692
 1005MOL0     C35547   2.619   1.254   6.860 -0.0849 -0.1184 -0.2865
 1005MOL0     O35548   2.491   1.212   6.834  0.0128 -0.3452 -0.6355
 1005MOL0     C35549   2.430   1.261   6.709  0.3956 -0.2523 -0.4869
 1005MOL0     C35550   2.284   1.214   6.720 -0.6685  0.4079  0.0949
 1005MOL0     C35551   2.207   1.323   6.785 -0.2769 -1.1240  0.1104
 1005MOL0     C35552   2.062   1.281   6.798  0.5873  0.1785 -0.0464
 1005MOL0     C35553   1.961   1.392   6.795  0.0980 -0.5848  0.7055
 1005MOL0     C35554   1.816   1.345   6.805  0.4330  0.3197 -0.1327
 1005MOL0     C35555   1.760   1.270   6.687 -0.1010 -0.4143 -0.0136
 1005MOL0     C35556   1.622   1.199   6.703  0.6256 -0.1226 -0.0903
 1005MOL0     N35557   1.502   1.282   6.729 -0.0428  0.8304 -0.0087
 1005MOL0     C35558   1.395   1.231   6.797  0.1450  0.1539 -0.7588
 1005MOL0     C35559   1.302   1.329   6.788 -0.2527 -0.1870  0.0701
 1005MOL0     C35560   1.167   1.320   6.841 -0.1921  0.4274 -0.5076
 1005MOL0     C35561   1.051   1.331   6.738  0.0252  0.8445  0.3499
 1005MOL0     C35562   0.918   1.284   6.792 -0.2477  0.0809 -0.2988
 1005MOL0     C35563   0.785   1.327   6.718  0.0596  0.0843  1.5731
 1005MOL0     O35564   0.772   1.469   6.732  0.1378 -0.3845 -0.3220
 1005MOL0     C35565   0.660   1.538   6.685 -0.1630  0.2549 -0.0262
 1005MOL0     C35566   0.574   1.491   6.587  0.4604 -0.4505 -0.3084
 1005MOL0     C35567   0.468   1.564   6.532  0.6007 -0.0910 -0.6672
 1005MOL0     C35568   0.395   1.505   6.420  0.5786 -0.7565 -0.4405
 1005MOL0     C35569   0.437   1.686   6.595  0.1457  0.1052  0.0638
 1005MOL0     C35570   0.313   1.762   6.556 -1.7551  0.5162 -0.4566
 1005MOL0     O35571   0.199   1.694   6.545  0.0903 -0.2876  0.9338
 1005MOL0     C35572   0.088   1.745   6.487  0.7886 -1.0099  0.5961
 1005MOL0     C35573  -0.025   1.656   6.487 -0.4706  0.1007  0.1767
 1005MOL0     C35574  -0.146   1.693   6.435  1.2546 -0.2450  0.3322
 1005MOL0     C35575  -0.172   1.822   6.380  0.0699  0.5392 -0.0484
 1005MOL0     O35576  -0.296   1.837   6.322  0.2372  0.4321 -0.4639
 1005MOL0     C35577  -0.322   1.949   6.230 -0.0570 -0.0983  0.6461
 1005MOL0     C35578  -0.458   1.965   6.161  0.3592  0.0229 -0.6805
 1005MOL0     C35579  -0.570   1.975   6.268  0.6907  1.0884  0.0218
 1005MOL0     C35580  -0.701   2.026   6.208  0.4112  0.4926 -0.2031
 1005MOL0     C35581  -0.814   2.062   6.314 -1.1244  0.1891 -0.0275
 1005MOL0     C35582  -0.955   2.057   6.250  0.0025  0.2001 -0.9635
 1005MOL0     C35583  -0.987   2.173   6.148 -0.1034  0.3875 -0.3653
 1005MOL0     C35584  -1.106   2.149   6.054  0.3040  0.0915 -0.5784
 1005MOL0    Cl35585  -1.184   2.305   6.015 -0.2071  0.0727  0.7948
 1005MOL0     C35586  -0.061   1.905   6.360 -0.0950 -0.2145  0.1663
 1005MOL0     C35587   0.068   1.868   6.418  0.4075  0.3551 -0.0450
 1005MOL0     O35588   0.328   1.885   6.547 -0.4476  0.6669  0.8354
 1005MOL0     C35589   0.521   1.731   6.698 -0.5163  0.3826  0.7438
 1005MOL0     C35590   0.635   1.659   6.740  0.5005 -0.4186  0.4250
 1005MOL0     N35591   1.353   1.438   6.719  0.2078  0.5586  0.4783
 1005MOL0     N35592   1.479   1.408   6.689 -0.1460  0.5612 -0.0824
 1005MOL0     C35593   2.721   1.287   6.765 -0.5361 -0.1649 -0.3344
 1005MOL0     C35594   2.852   1.330   6.795  0.6208 -0.0381 -0.0524
 1005MOL0     C35595   3.247   1.315   6.992 -0.3226  0.0724  0.6118
 1005MOL0     C35596   3.256   1.424   7.081  1.0068 -0.4375  0.0784
 1005MOL0     C35597   3.378   1.464   7.126 -0.1129  0.5803 -0.6684
 1005MOL0     C35598   3.493   1.391   7.098  0.0979 -1.6956 -0.3109
 1005MOL0     O35599   3.613   1.441   7.154 -0.7881 -0.5574  0.5887
 1005MOL0     C35600   3.732   1.409   7.088  0.0236 -0.0109 -0.5482
 1005MOL0     C35601   3.816   1.524   7.144  0.6297  0.2790 -1.3191
 1005MOL0     C35602   3.842   1.498   7.293 -0.8412 -0.5584  0.6850
 1005MOL0     C35603   3.951   1.599   7.348 -0.5863  0.6560  0.0558
 1005MOL0     C35604   4.087   1.578   7.290  0.4080 -0.1690  0.4310
 1005MOL0     C35605   4.204   1.572   7.259  0.0900  0.3552  0.7717
 1005MOL0     C35606   3.490   1.284   7.021  0.7659  0.3514 -0.6710
 1005MOL0     C35607   3.364   1.248   6.963 -0.8024 -0.0039  0.3431
 1005MOL0     H35608   2.808   1.326   7.138  0.2984 -0.0452 -0.6265
 1005MOL0     H35609   2.583   1.234   7.076 -1.5965 -0.0298 -0.3156
 1005MOL0     H35610   2.430   1.369   6.694 -1.4563 -0.2583 -0.7607
 1005MOL0     H35611   2.480   1.221   6.620  2.0472  3.5620 -1.4530
 1005MOL0     H35612   2.262   1.202   6.613  1.3446  0.1320 -0.3344
 1005MOL0     H35613   2.269   1.120   6.774  1.4638  1.1072  2.1094
 1005MOL0     H35614   2.246   1.336   6.886  1.3707 -1.0613 -0.5094
 1005MOL0     H35615   2.223   1.417   6.731  1.7160 -0.3353  1.9340
 1005MOL0     H35616   2.046   1.212   6.715  2.1349  0.3569 -0.5336
 1005MOL0     H35617   2.050   1.220   6.888  2.0444  1.0458  0.7855
 1005MOL0     H35618   1.981   1.465   6.874  1.6930 -0.8576  0.5930
 1005MOL0     H35619   1.967   1.437   6.696  1.9102  2.0610  1.8901
 1005MOL0     H35620   1.793   1.272   6.883 -0.4895  2.4401  1.6984
 1005MOL0     H35621   1.754   1.428   6.840 -0.2858 -1.2623  2.5901
 1005MOL0     H35622   1.754   1.344   6.607 -1.0404  0.1160  0.5339
 1005MOL0     H35623   1.827   1.189   6.655  2.9728  2.7965 -2.4848
 1005MOL0     H35624   1.625   1.127   6.785  0.8306  1.7277  1.6003
 1005MOL0     H35625   1.600   1.144   6.611 -0.1290  2.4923 -1.5956
 1005MOL0     H35626   1.368   1.137   6.845  0.5803  1.1863  1.6774
 1005MOL0     H35627   1.161   1.218   6.881  1.8774 -0.4751 -2.2889
 1005MOL0     H35628   1.153   1.397   6.917 -0.7664  0.8773 -1.0571
 1005MOL0     H35629   1.080   1.266   6.655 -2.1352 -0.1301  0.2953
 1005MOL0     H35630   1.036   1.435   6.707 -2.0691  0.3183 -0.6013
 1005MOL0     H35631   0.915   1.338   6.888  0.8897 -0.1677 -0.0994
 1005MOL0     H35632   0.920   1.177   6.814  2.1732  0.1735  0.3297
 1005MOL0     H35633   0.707   1.264   6.760  2.3495 -2.5360  2.2314
 1005MOL0     H35634   0.796   1.299   6.613 -0.8977 -3.0971  2.2376
 1005MOL0     H35635   0.600   1.406   6.525 -1.1413 -0.8884 -0.4290
 1005MOL0     H35636   0.453   1.426   6.371  2.2255 -0.7695  1.4147
 1005MOL0     H35637   0.296   1.474   6.456 -0.4236  1.3480 -1.2078
 1005MOL0     H35638   0.370   1.580   6.344 -1.2605  1.1720  1.9389
 1005MOL0     H35639  -0.011   1.554   6.524 -0.7669 -0.9984 -2.5175
 1005MOL0     H35640  -0.233   1.628   6.441  0.7616  0.3315 -0.4513
 1005MOL0     H35641  -0.280   2.036   6.281  0.7362 -2.2520  4.0739
 1005MOL0     H35642  -0.248   1.929   6.152 -0.2513 -1.5004  0.7778
 1005MOL0     H35643  -0.448   2.061   6.109 -0.3491  0.7989  0.5715
 1005MOL0     H35644  -0.476   1.891   6.083 -0.5828  1.9550 -2.4240
 1005MOL0     H35645  -0.530   2.035   6.350 -0.2982  2.4081 -0.4154
 1005MOL0     H35646  -0.591   1.874   6.302  0.3413  1.0063 -0.4299
 1005MOL0     H35647  -0.687   2.123   6.159  0.6677 -0.1928 -1.5344
 1005MOL0     H35648  -0.736   1.967   6.123 -1.4457  3.0503 -1.3582
 1005MOL0     H35649  -0.795   2.155   6.368 -1.6940  0.9758 -1.1429
 1005MOL0     H35650  -0.814   1.981   6.388  0.0880  1.2877  1.2229
 1005MOL0     H35651  -0.959   1.958   6.203  1.2047 -0.7081  0.7084
 1005MOL0     H35652  -1.028   2.052   6.332  1.5704 -1.3675  0.4181
 1005MOL0     H35653  -0.905   2.175   6.075 -1.2858 -2.9104 -1.9673
 1005MOL0     H35654  -0.994   2.267   6.204  0.4358  0.1531  0.1087
 1005MOL0     H35655  -1.177   2.085   6.107 -0.0522 -0.2677 -1.4631
 1005MOL0     H35656  -1.082   2.089   5.965 -1.4190 -0.2905 -0.8181
 1005MOL0     H35657  -0.074   1.983   6.286  0.0526 -1.4464 -1.2057
 1005MOL0     H35658   0.152   1.935   6.401  1.0568  0.0393  1.7369
 1005MOL0     H35659   0.503   1.835   6.725  1.1921  0.8893  0.0841
 1005MOL0     H35660   0.691   1.706   6.821  0.8272  0.8776 -0.5248
 1005MOL0     H35661   2.711   1.272   6.657 -0.1123  0.1555 -0.4203
 1005MOL0     H35662   2.936   1.338   6.727 -0.0647  0.6895 -0.8306
 1005MOL0     H35663   3.166   1.473   7.116  1.2011  1.6921 -2.1202
 1005MOL0     H35664   3.395   1.559   7.175  3.5050 -0.0770 -0.3808
 1005MOL0     H35665   3.764   1.307   7.112  0.1645  0.1747  0.0755
 1005MOL0     H35666   3.718   1.419   6.980 -2.4850 -3.0642 -0.6305
 1005MOL0     H35667   3.774   1.624   7.137 -0.1322  0.1347  0.5240
 1005MOL0     H35668   3.911   1.513   7.091  0.6454  0.6580 -1.3695
 1005MOL0     H35669   3.896   1.405   7.309  0.4035  0.5484  3.9010
 1005MOL0     H35670   3.751   1.513   7.352 -0.9268  2.1934  0.0326
 1005MOL0     H35671   3.969   1.576   7.453 -0.5068 -3.6921 -0.7489
 1005MOL0     H35672   3.909   1.701   7.349 -2.0895  0.1770 -2.6568
 1005MOL0     H35673   4.300   1.554   7.214 -1.2548 -1.9577 -1.4078
 1005MOL0     H35674   3.576   1.224   6.992  1.5635  1.8735 -1.6078
 1005MOL0     H35675   3.364   1.155   6.908  1.7861 -1.0570  1.9336
 1006MOL0     O35676   5.593   7.131   5.085 -0.2591 -0.4777  0.2432
 1006MOL0     C35677   5.630   7.013   5.094 -0.6896 -1.2165 -0.8604
 1006MOL0     O35678   5.596   6.909   5.011 -0.8269 -0.2067  0.2729
 1006MOL0     C35679   5.526   6.943   4.895 -0.3153  0.8185 -0.1445
 1006MOL0     C35680   5.595   6.973   4.773 -0.1506 -0.2957 -0.1189
 1006MOL0     C35681   5.521   7.015   4.660 -1.0184  0.4908  0.4283
 1006MOL0     C35682   5.380   7.013   4.657 -0.1540 -0.9742 -0.6283
 1006MOL0     O35683   5.302   7.051   4.554  0.0044  0.5068 -0.4950
 1006MOL0     C35684   5.359   7.135   4.455  0.3122  0.6652  0.2874
 1006MOL0     C35685   5.247   7.163   4.353 -0.0705 -0.2920 -0.9076
 1006MOL0     C35686   5.125   7.220   4.419  0.1749 -0.4883 -0.3474
 1006MOL0     C35687   5.021   7.225   4.302  0.1029 -0.7389 -0.4046
 1006MOL0     C35688   4.903   7.309   4.349  0.0275 -0.3310  0.3519
 1006MOL0     C35689   4.805   7.303   4.225  0.5939 -0.1459  0.9964
 1006MOL0     C35690   4.713   7.423   4.208  0.3946  0.1198  0.3617
 1006MOL0     C35691   4.618   7.395   4.093  0.1973  0.4204  0.3546
 1006MOL0     N35692   4.508   7.492   4.063 -0.6951  0.3673 -0.3477
 1006MOL0     C35693   4.399   7.507   4.148  0.3098 -0.4971 -0.2512
 1006MOL0     C35694   4.317   7.592   4.089  0.3352  0.1178  0.1866
 1006MOL0     C35695   4.181   7.631   4.142  0.0480  0.4543 -0.1721
 1006MOL0     C35696   4.193   7.703   4.280 -0.1430 -0.1938  0.6908
 1006MOL0     C35697   4.061   7.694   4.352  0.1553 -0.6749 -0.2121
 1006MOL0     C35698   4.063   7.769   4.485  0.6607  0.1146  0.6308
 1006MOL0     O35699   3.937   7.745   4.547  0.6459  0.8511 -0.2532
 1006MOL0     C35700   3.818   7.776   4.483 -0.1749  0.7391 -0.3238
 1006MOL0     C35701   3.795   7.887   4.401 -0.1686  0.0084  0.1399
 1006MOL0     C35702   3.667   7.923   4.348  0.1036  1.3242 -1.0686
 1006MOL0     C35703   3.668   8.035   4.250  0.4595 -0.1633  0.0182
 1006MOL0     C35704   3.556   7.840   4.389 -0.9713 -0.6732 -0.4014
 1006MOL0     C35705   3.416   7.876   4.352 -0.0942 -0.0322 -0.4050
 1006MOL0     O35706   3.319   7.801   4.414  1.0826  0.0689 -0.3655
 1006MOL0     C35707   3.193   7.853   4.428  0.2236 -0.6945 -0.0454
 1006MOL0     C35708   3.176   7.986   4.470  1.0625 -0.4013  0.3914
 1006MOL0     C35709   3.051   8.033   4.495 -0.5022 -0.4397  0.3883
 1006MOL0     C35710   2.937   7.965   4.469 -0.3170  0.1033  0.5749
 1006MOL0     O35711   2.810   8.003   4.512 -0.4170  0.4812 -0.5898
 1006MOL0     C35712   2.774   8.142   4.479  0.0145 -0.4118  0.0597
 1006MOL0     C35713   2.660   8.167   4.376 -1.0181 -0.3702 -0.5389
 1006MOL0     C35714   2.527   8.102   4.408 -0.0295 -0.3200 -0.1231
 1006MOL0     C35715   2.409   8.155   4.315 -0.0908 -0.3510  0.7246
 1006MOL0     C35716   2.345   8.276   4.392 -0.2074  0.2428  0.5690
 1006MOL0     C35717   2.263   8.378   4.314  0.0578 -0.7691  0.8045
 1006MOL0     C35718   2.121   8.325   4.277  0.2041 -0.3835  0.7065
 1006MOL0     C35719   2.041   8.414   4.194 -0.8592 -0.1373 -0.0657
 1006MOL0    Cl35720   1.862   8.356   4.184 -0.4000 -0.4726  0.0016
 1006MOL0     C35721   2.954   7.837   4.419 -0.6430 -0.1560  0.0160
 1006MOL0     C35722   3.082   7.774   4.399 -1.0946  0.0879 -1.3260
 1006MOL0     O35723   3.395   7.974   4.281  0.6968 -0.0984 -0.2378
 1006MOL0     C35724   3.582   7.734   4.477 -0.0310  0.1912 -0.6713
 1006MOL0     C35725   3.709   7.691   4.516  0.9042 -0.1387  0.9423
 1006MOL0     N35726   4.384   7.649   3.984  0.2593 -1.2042 -0.2256
 1006MOL0     N35727   4.498   7.587   3.974 -0.8042 -0.5228 -0.1780
 1006MOL0     C35728   5.317   6.978   4.770 -0.1202  0.4045 -0.8334
 1006MOL0     C35729   5.389   6.943   4.887  0.1734  0.7502 -0.4018
 1006MOL0     C35730   5.746   6.979   5.182 -0.4315  0.4033  0.1811
 1006MOL0     C35731   5.824   7.083   5.233 -0.1340 -0.2711 -0.1315
 1006MOL0     C35732   5.943   7.056   5.309 -0.9301 -0.3443  0.5532
 1006MOL0     C35733   5.981   6.916   5.334  0.2752  0.7426  0.0921
 1006MOL0     O35734   6.085   6.859   5.405  0.0957 -0.6093  0.5047
 1006MOL0     C35735   6.200   6.946   5.424  0.4911 -0.2151 -0.2944
 1006MOL0     C35736   6.327   6.865   5.435 -0.3886  0.2787 -0.1223
 1006MOL0     C35737   6.355   6.763   5.314  0.1600  0.4163 -0.1956
 1006MOL0     C35738   6.490   6.694   5.347 -0.0849  0.5961 -0.6255
 1006MOL0     C35739   6.595   6.794   5.316 -0.0990 -0.0202  0.2699
 1006MOL0     C35740   6.698   6.861   5.299  0.9947 -0.2308  0.3916
 1006MOL0     C35741   5.895   6.821   5.282 -0.6761  0.3212  0.4487
 1006MOL0     C35742   5.788   6.846   5.202 -0.2540 -0.7913  0.4546
 1006MOL0     H35743   5.702   6.969   4.785 -0.2946 -3.9213  1.4365
 1006MOL0     H35744   5.580   7.034   4.571 -1.2386  2.4391  0.6515
 1006MOL0     H35745   5.403   7.228   4.493  2.0688  1.2509 -2.8939
 1006MOL0     H35746   5.436   7.090   4.392  1.1573  1.9732  0.3482
 1006MOL0     H35747   5.296   7.228   4.279  3.2542 -1.7118 -0.1154
 1006MOL0     H35748   5.231   7.063   4.311  2.2777 -0.9509 -0.3885
 1006MOL0     H35749   5.083   7.168   4.506 -1.3532  3.6746  1.6531
 1006MOL0     H35750   5.149   7.320   4.457 -0.4884  0.4688 -2.2888
 1006MOL0     H35751   5.065   7.270   4.211 -1.6396  0.3443 -0.7598
 1006MOL0     H35752   4.985   7.128   4.270 -2.5850  0.0830 -0.0930
 1006MOL0     H35753   4.856   7.280   4.443  0.0174 -0.8338  0.1974
 1006MOL0     H35754   4.937   7.412   4.358  0.4303 -0.4807  0.5415
 1006MOL0     H35755   4.863   7.302   4.132  1.0804  1.9160  1.2273
 1006MOL0     H35756   4.753   7.207   4.229  1.5387 -0.7146  0.0982
 1006MOL0     H35757   4.655   7.445   4.298 -3.3800 -1.3356 -1.5007
 1006MOL0     H35758   4.777   7.510   4.187  1.0840 -0.6291 -0.7196
 1006MOL0     H35759   4.577   7.293   4.100  1.6226 -0.3404 -1.7005
 1006MOL0     H35760   4.677   7.403   4.002 -1.3689 -0.3050 -0.7645
 1006MOL0     H35761   4.387   7.453   4.242  1.0494  0.5282  0.4449
 1006MOL0     H35762   4.141   7.702   4.069  0.8396 -0.0885 -1.1631
 1006MOL0     H35763   4.117   7.543   4.157 -0.0957  0.8084  1.4922
 1006MOL0     H35764   4.215   7.808   4.256  0.9973 -0.9723 -2.0669
 1006MOL0     H35765   4.274   7.664   4.342 -0.3720  0.8105  1.6478
 1006MOL0     H35766   4.039   7.590   4.378  2.0763 -0.7855  1.1781
 1006MOL0     H35767   3.985   7.734   4.283 -0.8282 -4.2738 -1.4521
 1006MOL0     H35768   4.082   7.874   4.466 -1.2328  0.5271  0.7647
 1006MOL0     H35769   4.137   7.715   4.545 -0.3613 -3.0778 -0.7426
 1006MOL0     H35770   3.878   7.955   4.386  0.9921 -1.1877  0.8813
 1006MOL0     H35771   3.771   8.065   4.232  0.5559  0.6726  1.7077
 1006MOL0     H35772   3.622   8.003   4.156  2.0846  1.3515 -1.3560
 1006MOL0     H35773   3.617   8.125   4.286  1.2882 -0.7099  2.8144
 1006MOL0     H35774   3.256   8.054   4.498 -1.3522  1.5866  3.0519
 1006MOL0     H35775   3.045   8.138   4.525  0.8422 -0.6266  1.4172
 1006MOL0     H35776   2.724   8.169   4.572 -1.3557 -1.5624 -0.3130
 1006MOL0     H35777   2.861   8.204   4.456 -1.5827  3.1334  2.5390
 1006MOL0     H35778   2.655   8.276   4.363 -0.8706 -0.4345 -1.1758
 1006MOL0     H35779   2.699   8.138   4.278 -1.0863 -0.9120 -0.4054
 1006MOL0     H35780   2.511   8.111   4.516 -0.1382 -1.6657 -0.0160
 1006MOL0     H35781   2.531   7.995   4.386  0.0113 -0.4462  0.4803
 1006MOL0     H35782   2.440   8.172   4.212 -2.2118 -2.2187 -0.2972
 1006MOL0     H35783   2.336   8.074   4.310 -0.8693  0.2678  1.5097
 1006MOL0     H35784   2.438   8.312   4.435  1.0399 -0.4683 -1.3936
 1006MOL0     H35785   2.295   8.225   4.475  3.4806 -0.2609  2.7020
 1006MOL0     H35786   2.252   8.469   4.374 -0.8255  0.5086 -1.1982
 1006MOL0     H35787   2.319   8.394   4.221 -0.0724 -1.6052  0.5678
 1006MOL0     H35788   2.071   8.304   4.372 -3.2744 -0.0178 -0.8980
 1006MOL0     H35789   2.128   8.227   4.229  0.2239 -0.7177  1.3789
 1006MOL0     H35790   2.081   8.421   4.092 -2.4796 -0.4014 -0.7411
 1006MOL0     H35791   2.042   8.512   4.243  0.7214 -1.9094  3.8812
 1006MOL0     H35792   2.871   7.775   4.388 -0.2543 -0.1684 -1.0588
 1006MOL0     H35793   3.097   7.673   4.362 -0.0711  0.4809 -2.0398
 1006MOL0     H35794   3.500   7.670   4.508  0.0438  0.0493 -0.7607
 1006MOL0     H35795   3.730   7.601   4.573 -1.3255 -2.7243 -1.9750
 1006MOL0     H35796   5.209   6.975   4.777 -0.0609  1.7017  2.5438
 1006MOL0     H35797   5.332   6.925   4.978 -2.5510  2.3208 -1.6653
 1006MOL0     H35798   5.784   7.183   5.227  2.4920  0.8344 -0.8318
 1006MOL0     H35799   6.001   7.131   5.361  0.5360 -1.2665  0.3097
 1006MOL0     H35800   6.208   7.022   5.345 -3.2956  0.9963  0.2940
 1006MOL0     H35801   6.184   6.999   5.519 -0.7915 -1.7665  0.4047
 1006MOL0     H35802   6.318   6.814   5.531 -0.0020 -1.0603 -0.7774
 1006MOL0     H35803   6.407   6.937   5.453  0.0242 -0.1168 -0.3543
 1006MOL0     H35804   6.363   6.809   5.215  0.3404 -1.2465 -0.9922
 1006MOL0     H35805   6.270   6.695   5.312  0.0982  0.4499  0.9251
 1006MOL0     H35806   6.498   6.596   5.300 -1.9403 -1.0678  2.2670
 1006MOL0     H35807   6.500   6.673   5.454 -4.3230  1.9344  0.2273
 1006MOL0     H35808   6.779   6.924   5.270  0.8450  0.1203  0.7320
 1006MOL0     H35809   5.921   6.718   5.303 -1.4522 -0.1867 -0.9240
 1006MOL0     H35810   5.725   6.771   5.155 -1.2929  0.9490 -1.0668
 1007MOL0     O35811   8.080   1.682   3.316 -0.8379 -0.1899  0.0255
 1007MOL0     C35812   8.184   1.688   3.377 -0.8315 -0.0303 -0.4114
 1007MOL0     O35813   8.219   1.795   3.444 -0.4116 -0.4007  0.5528
 1007MOL0     C35814   8.156   1.919   3.444  0.2575  0.0706  0.2278
 1007MOL0     C35815   8.035   1.938   3.504 -0.5293 -0.6646 -0.5678
 1007MOL0     C35816   7.971   2.064   3.497  0.3899 -0.1111 -0.2181
 1007MOL0     C35817   8.026   2.175   3.429  0.3804  0.5207  0.4224
 1007MOL0     O35818   7.952   2.285   3.437 -0.0891 -0.2838 -0.0138
 1007MOL0     C35819   8.017   2.401   3.378  0.5283 -0.3706 -0.0881
 1007MOL0     C35820   7.931   2.518   3.390  0.5133 -0.2563 -0.2344
 1007MOL0     C35821   7.994   2.634   3.316 -0.3250 -0.4317  0.0002
 1007MOL0     C35822   8.079   2.723   3.396 -1.0328  0.2616  0.1455
 1007MOL0     C35823   8.132   2.844   3.313 -0.6076  0.2308  0.4608
 1007MOL0     C35824   8.247   2.912   3.391  0.1247 -0.1912 -0.6347
 1007MOL0     C35825   8.292   3.047   3.325  0.0179  0.4777 -0.1995
 1007MOL0     C35826   8.414   3.098   3.385  0.1204 -0.3827 -0.1821
 1007MOL0     N35827   8.419   3.243   3.391  0.0450 -0.0196 -0.0904
 1007MOL0     C35828   8.384   3.324   3.501  0.2449 -0.6115  0.4714
 1007MOL0     C35829   8.398   3.450   3.454 -0.4590  0.9290 -0.0623
 1007MOL0     C35830   8.374   3.573   3.529  0.3750 -0.2864 -0.4213
 1007MOL0     C35831   8.217   3.607   3.526 -0.8335 -0.1481  0.7468
 1007MOL0     C35832   8.180   3.653   3.385 -0.0168 -0.7415 -0.2280
 1007MOL0     C35833   8.029   3.697   3.372 -0.1949  0.2618  0.3931
 1007MOL0     O35834   7.926   3.597   3.391  0.0100 -0.0905  0.6007
 1007MOL0     C35835   7.795   3.635   3.368 -0.2894  0.3673 -0.4683
 1007MOL0     C35836   7.693   3.528   3.366 -0.7032 -0.1979 -0.2914
 1007MOL0     C35837   7.558   3.561   3.356 -0.6905  0.3469  0.1326
 1007MOL0     C35838   7.464   3.444   3.344  0.6558  0.1595 -0.3932
 1007MOL0     C35839   7.522   3.700   3.334 -0.0563  0.1753 -0.2178
 1007MOL0     C35840   7.383   3.753   3.337 -0.9247  0.1797 -0.0758
 1007MOL0     O35841   7.380   3.879   3.289  0.0895 -0.0883 -0.1868
 1007MOL0     C35842   7.271   3.970   3.307  0.0763  0.5844 -0.2986
 1007MOL0     C35843   7.284   4.099   3.251  0.6278  0.1502 -0.6980
 1007MOL0     C35844   7.191   4.201   3.264  0.8081  0.6505 -0.0529
 1007MOL0     C35845   7.077   4.177   3.345  0.8220  0.1971  0.5669
 1007MOL0     O35846   6.983   4.270   3.390  0.2320 -0.4095  0.2054
 1007MOL0     C35847   7.025   4.410   3.356  0.5324  0.2528  0.3734
 1007MOL0     C35848   6.911   4.499   3.398 -0.3798 -0.5532 -0.0419
 1007MOL0     C35849   6.906   4.529   3.545  0.0024  0.8732  0.6540
 1007MOL0     C35850   6.777   4.570   3.598 -0.8046 -0.0461  0.2235
 1007MOL0     C35851   6.750   4.718   3.555 -0.1782 -0.2526  0.2209
 1007MOL0     C35852   6.612   4.778   3.589 -0.8043  0.8444 -0.7030
 1007MOL0     C35853   6.613   4.924   3.543 -0.1308 -0.0725 -0.1392
 1007MOL0     C35854   6.467   4.965   3.543  0.3974  0.6507  0.3468
 1007MOL0    Cl35855   6.439   5.135   3.483 -0.1693  0.0369 -0.0028
 1007MOL0     C35856   7.053   4.049   3.396 -1.0813 -1.1652  0.3914
 1007MOL0     C35857   7.155   3.954   3.388  0.2458 -1.0271  0.7765
 1007MOL0     O35858   7.289   3.687   3.374 -1.0974  0.9598 -0.4257
 1007MOL0     C35859   7.624   3.794   3.317 -0.4440 -0.9327 -0.0933
 1007MOL0     C35860   7.754   3.766   3.340 -0.2821 -0.4010 -0.1646
 1007MOL0     N35861   8.442   3.449   3.324 -0.0972  0.7748  0.2815
 1007MOL0     N35862   8.458   3.327   3.287 -0.3241 -0.2072 -0.4527
 1007MOL0     C35863   8.150   2.151   3.362 -0.2102 -0.9977  0.3817
 1007MOL0     C35864   8.216   2.025   3.382 -0.1756  0.7687  0.4959
 1007MOL0     C35865   8.278   1.568   3.377  0.0853  0.3526 -0.7373
 1007MOL0     C35866   8.412   1.575   3.426  0.1673 -0.1963  0.3872
 1007MOL0     C35867   8.496   1.467   3.433 -0.0327  0.0822  0.3402
 1007MOL0     C35868   8.446   1.344   3.377 -0.2667  0.3926 -0.2060
 1007MOL0     O35869   8.538   1.237   3.372  0.3115  0.7229  0.5799
 1007MOL0     C35870   8.524   1.120   3.290 -0.2500 -0.8214 -0.5073
 1007MOL0     C35871   8.480   0.995   3.358  0.5128 -0.2004 -0.7016
 1007MOL0     C35872   8.590   0.958   3.462 -1.3827 -0.1032 -0.1317
 1007MOL0     C35873   8.584   0.814   3.511  0.5454  0.0989  0.0286
 1007MOL0     C35874   8.716   0.752   3.538  0.5165 -0.2405 -0.5709
 1007MOL0     C35875   8.825   0.708   3.567  0.3685  1.2575  1.1903
 1007MOL0     C35876   8.326   1.340   3.305  0.0506 -0.6046 -0.4555
 1007MOL0     C35877   8.243   1.451   3.314 -0.0020  0.4090  0.9051
 1007MOL0     H35878   7.997   1.863   3.572  0.9847  0.0809  1.1975
 1007MOL0     H35879   7.877   2.084   3.549 -0.9861 -4.4632 -0.5963
 1007MOL0     H35880   8.109   2.422   3.432 -0.5189  0.2595  1.5121
 1007MOL0     H35881   8.055   2.385   3.276  4.1155 -1.7158  1.3048
 1007MOL0     H35882   7.835   2.492   3.344 -0.9617  3.2088  0.5332
 1007MOL0     H35883   7.912   2.537   3.496  0.7813 -4.9555  0.8452
 1007MOL0     H35884   8.043   2.603   3.223 -0.8432  0.5153 -0.6054
 1007MOL0     H35885   7.916   2.699   3.277  2.2077  2.3542 -0.8582
 1007MOL0     H35886   8.036   2.746   3.494 -1.5778  0.3362 -0.1099
 1007MOL0     H35887   8.164   2.658   3.419  0.8492  0.8368 -4.1212
 1007MOL0     H35888   8.157   2.817   3.209 -1.9473  0.1370  0.1421
 1007MOL0     H35889   8.051   2.915   3.293 -0.0706  0.2622 -1.8954
 1007MOL0     H35890   8.215   2.927   3.494  2.1603 -3.5079  0.6429
 1007MOL0     H35891   8.331   2.843   3.383  0.7368  0.6439 -1.9338
 1007MOL0     H35892   8.304   3.027   3.218  1.5671  0.8047 -0.1062
 1007MOL0     H35893   8.211   3.114   3.353  1.1761  0.5971  3.3683
 1007MOL0     H35894   8.501   3.061   3.330 -0.1409 -2.0439  0.4552
 1007MOL0     H35895   8.415   3.056   3.486  0.4495  0.5278  0.2027
 1007MOL0     H35896   8.348   3.291   3.598 -2.4969  0.2850 -0.1553
 1007MOL0     H35897   8.420   3.556   3.627  0.5902  1.3389 -0.2228
 1007MOL0     H35898   8.435   3.656   3.492  1.6489  0.2879  2.5978
 1007MOL0     H35899   8.192   3.686   3.597 -0.9280 -1.8829  2.7436
 1007MOL0     H35900   8.167   3.513   3.547  0.7652 -1.6058 -1.4714
 1007MOL0     H35901   8.202   3.576   3.310 -0.4178 -1.5342  0.4464
 1007MOL0     H35902   8.238   3.739   3.355 -0.6232  0.0184  0.7005
 1007MOL0     H35903   8.016   3.729   3.268 -2.0074 -4.3369 -1.0558
 1007MOL0     H35904   8.010   3.786   3.431  0.8591 -0.1204  1.3376
 1007MOL0     H35905   7.738   3.429   3.374  1.4579  0.7844  0.3797
 1007MOL0     H35906   7.418   3.430   3.443  3.3508 -0.6515  0.8496
 1007MOL0     H35907   7.394   3.459   3.262  0.1922  1.6005  0.2282
 1007MOL0     H35908   7.517   3.350   3.326 -0.0108 -0.3808  0.4164
 1007MOL0     H35909   7.378   4.113   3.200  0.5634 -2.1390 -1.5668
 1007MOL0     H35910   7.208   4.295   3.213 -1.4951  0.0903 -2.0089
 1007MOL0     H35911   7.117   4.439   3.408  2.4317 -3.3614 -0.6363
 1007MOL0     H35912   7.043   4.418   3.248  2.6773  2.0508  0.8056
 1007MOL0     H35913   6.921   4.592   3.340  1.2146  0.3543  1.6093
 1007MOL0     H35914   6.812   4.463   3.369  0.2474 -1.5708 -1.0153
 1007MOL0     H35915   6.981   4.606   3.568  0.5385  1.1511 -1.8047
 1007MOL0     H35916   6.915   4.441   3.609 -3.9721  0.0162  0.2666
 1007MOL0     H35917   6.696   4.506   3.563  1.8656 -2.4968 -1.8961
 1007MOL0     H35918   6.780   4.573   3.708 -0.4302 -0.2845  0.2212
 1007MOL0     H35919   6.745   4.718   3.445 -2.1835 -0.6920  0.2781
 1007MOL0     H35920   6.835   4.773   3.597 -0.8439  0.4987  0.6116
 1007MOL0     H35921   6.548   4.727   3.517  1.9303  1.4206 -3.8189
 1007MOL0     H35922   6.588   4.772   3.695  0.7473  3.1245 -0.1373
 1007MOL0     H35923   6.633   4.946   3.438 -0.9859  1.6053  0.0139
 1007MOL0     H35924   6.668   4.990   3.610  0.5012 -0.4380 -0.2887
 1007MOL0     H35925   6.422   4.943   3.641  2.3810 -0.3471  1.0806
 1007MOL0     H35926   6.416   4.903   3.469  4.7524  0.1750 -2.6323
 1007MOL0     H35927   6.957   4.027   3.442 -2.1793  1.5099 -0.4363
 1007MOL0     H35928   7.133   3.861   3.440 -2.8690 -0.7153  0.1677
 1007MOL0     H35929   7.605   3.899   3.297 -1.9510 -1.0618  0.5602
 1007MOL0     H35930   7.822   3.850   3.350  0.1449 -0.6113 -1.1478
 1007MOL0     H35931   8.193   2.227   3.298 -2.7357  1.1195  1.0164
 1007MOL0     H35932   8.312   2.016   3.333 -1.0061  1.8035 -1.4183
 1007MOL0     H35933   8.441   1.671   3.466 -0.5319 -0.5030  1.6697
 1007MOL0     H35934   8.591   1.486   3.482  0.4897  0.7174 -0.8727
 1007MOL0     H35935   8.457   1.148   3.208  0.9701  0.4647 -1.1172
 1007MOL0     H35936   8.621   1.113   3.239  0.8414  2.8587  0.7025
 1007MOL0     H35937   8.473   0.912   3.287 -1.4697 -1.1965  0.5622
 1007MOL0     H35938   8.377   1.006   3.395 -0.3028  2.6760 -3.3754
 1007MOL0     H35939   8.583   1.029   3.544 -0.6659  0.7256 -0.7683
 1007MOL0     H35940   8.685   0.966   3.408 -0.4461  2.5641  1.7513
 1007MOL0     H35941   8.538   0.754   3.433  0.0655 -0.0339  0.4095
 1007MOL0     H35942   8.525   0.798   3.602 -0.1328 -1.1148 -0.6013
 1007MOL0     H35943   8.915   0.652   3.584 -0.0405 -0.9546 -2.7378
 1007MOL0     H35944   8.294   1.247   3.258  1.3838 -1.5004  0.3413
 1007MOL0     H35945   8.146   1.446   3.265  1.1139 -0.2462 -1.3693
 1008MOL0     O35946   8.024   2.121   1.477  0.6962  0.5914 -0.2230
 1008MOL0     C35947   8.082   2.195   1.555 -0.1315  0.4086  0.7060
 1008MOL0     O35948   8.023   2.287   1.643 -0.5020  0.2678  0.3353
 1008MOL0     C35949   7.902   2.339   1.611  0.1595  0.0874  0.7441
 1008MOL0     C35950   7.867   2.358   1.477  0.4195 -0.1216  0.2284
 1008MOL0     C35951   7.740   2.405   1.451  0.0693  1.0384  0.6761
 1008MOL0     C35952   7.648   2.444   1.558 -0.2480 -0.7658  0.4502
 1008MOL0     O35953   7.532   2.519   1.533  0.6137  0.4829  0.5715
 1008MOL0     C35954   7.562   2.634   1.472  0.5112 -0.2204 -0.1355
 1008MOL0     C35955   7.440   2.734   1.474  0.3069  0.3918  0.2230
 1008MOL0     C35956   7.399   2.756   1.622 -0.1696 -0.4723  0.1471
 1008MOL0     C35957   7.274   2.854   1.617 -0.1785  0.7844 -0.2527
 1008MOL0     C35958   7.216   2.887   1.752  0.0758 -0.0824  0.1454
 1008MOL0     C35959   7.074   2.940   1.751  0.1964 -0.5644 -0.1015
 1008MOL0     C35960   7.007   2.929   1.889  0.2931  0.1165  0.1380
 1008MOL0     C35961   6.878   3.001   1.902  0.2567  0.1952 -1.7365
 1008MOL0     N35962   6.784   2.981   1.787 -0.0625 -0.4432 -0.0932
 1008MOL0     C35963   6.681   2.894   1.786 -0.4878 -0.3941 -0.5429
 1008MOL0     C35964   6.599   2.947   1.697  0.0556  0.3796 -0.6753
 1008MOL0     C35965   6.467   2.902   1.657 -0.3684 -0.5677 -0.5427
 1008MOL0     C35966   6.366   3.017   1.663  0.1460 -0.8122 -0.1576
 1008MOL0     C35967   6.224   2.967   1.689 -0.0480  0.3870  0.4243
 1008MOL0     C35968   6.116   3.071   1.678 -0.6578  0.5558  0.9580
 1008MOL0     O35969   5.991   3.019   1.727  0.2715 -0.4576  0.3003
 1008MOL0     C35970   5.887   3.096   1.754  1.2297  0.5976  0.0870
 1008MOL0     C35971   5.876   3.226   1.711  1.1836 -0.5582  0.0646
 1008MOL0     C35972   5.759   3.306   1.741 -0.8318  0.1492 -0.0473
 1008MOL0     C35973   5.761   3.456   1.707 -0.2009  0.4594  0.6965
 1008MOL0     C35974   5.647   3.238   1.801 -0.5778 -0.4600 -0.3869
 1008MOL0     C35975   5.507   3.290   1.826  0.7248 -0.0415  0.0212
 1008MOL0     O35976   5.402   3.196   1.824 -0.0362  0.1463  0.3070
 1008MOL0     C35977   5.270   3.236   1.812  0.6590 -0.0959  0.7324
 1008MOL0     C35978   5.212   3.286   1.697 -0.4059  0.8667  0.1200
 1008MOL0     C35979   5.076   3.336   1.694 -0.6863  0.6904 -0.5523
 1008MOL0     C35980   4.996   3.313   1.805 -0.0897  0.1091  0.8395
 1008MOL0     O35981   4.862   3.346   1.813  0.0817 -0.5522 -0.0579
 1008MOL0     C35982   4.796   3.371   1.689  1.0424  0.5631  0.8864
 1008MOL0     C35983   4.768   3.248   1.596  0.0027 -0.0914 -1.1891
 1008MOL0     C35984   4.673   3.146   1.664  0.2730  1.3569 -0.3378
 1008MOL0     C35985   4.660   3.010   1.575  0.0800  0.2402 -0.7404
 1008MOL0     C35986   4.597   2.897   1.666  0.3402 -0.2853 -0.3235
 1008MOL0     C35987   4.571   2.774   1.580 -0.0989 -0.1927 -0.4113
 1008MOL0     C35988   4.502   2.657   1.659 -0.5822 -0.1517  0.9391
 1008MOL0     C35989   4.474   2.538   1.577  0.0895 -0.1201  0.3166
 1008MOL0    Cl35990   4.325   2.553   1.467  0.0238  0.0857  0.0632
 1008MOL0     C35991   5.053   3.254   1.920  0.1524  0.3808 -0.0261
 1008MOL0     C35992   5.184   3.224   1.921  0.7602 -0.3274 -0.4915
 1008MOL0     O35993   5.491   3.411   1.833 -0.0182 -0.9035  0.3932
 1008MOL0     C35994   5.653   3.100   1.825  0.6504 -0.2605 -0.0931
 1008MOL0     C35995   5.780   3.030   1.814  1.1040 -0.0465 -0.2478
 1008MOL0     N35996   6.661   3.051   1.632  0.6861 -1.1166 -0.2591
 1008MOL0     N35997   6.771   3.072   1.694  0.5622 -0.7139  0.2810
 1008MOL0     C35998   7.690   2.423   1.688  0.0306  0.0261  0.3520
 1008MOL0     C35999   7.818   2.365   1.717  0.0790 -0.7669 -0.4619
 1008MOL0     C36000   8.229   2.195   1.551 -1.0833 -0.0246  0.3607
 1008MOL0     C36001   8.299   2.079   1.502 -0.4168 -0.0766  0.0964
 1008MOL0     C36002   8.444   2.080   1.492  0.2098  0.8468 -0.5792
 1008MOL0     C36003   8.519   2.190   1.518  0.5046 -0.1443  0.0983
 1008MOL0     O36004   8.650   2.213   1.498  0.6516 -0.4823 -0.4587
 1008MOL0     C36005   8.742   2.097   1.515  0.0871  0.0613  0.0687
 1008MOL0     C36006   8.789   2.058   1.377 -0.7298  0.6110 -1.2309
 1008MOL0     C36007   8.890   1.943   1.372  0.3895 -0.7675 -0.1965
 1008MOL0     C36008   9.033   1.997   1.414 -0.0960 -1.0487  0.8170
 1008MOL0     C36009   9.129   1.886   1.384  0.6424 -0.0345  0.8693
 1008MOL0     C36010   9.224   1.809   1.363 -0.4550 -0.2605 -0.3539
 1008MOL0     C36011   8.446   2.303   1.549  0.6898 -0.6744  1.2134
 1008MOL0     C36012   8.305   2.310   1.568  0.3714  0.3519 -0.4066
 1008MOL0     H36013   7.934   2.346   1.393  2.8483  0.1668  2.0156
 1008MOL0     H36014   7.701   2.423   1.352  0.8814  2.1089  0.5327
 1008MOL0     H36015   7.638   2.678   1.537  0.4062 -2.1246  1.3839
 1008MOL0     H36016   7.594   2.626   1.368 -0.4877 -0.0067 -0.4628
 1008MOL0     H36017   7.471   2.829   1.429  1.3647  0.0370  0.1643
 1008MOL0     H36018   7.360   2.690   1.413 -1.1151  0.7084  1.7786
 1008MOL0     H36019   7.369   2.658   1.662 -0.5858 -1.2025 -1.8321
 1008MOL0     H36020   7.475   2.802   1.686 -1.3097 -0.1243  1.2943
 1008MOL0     H36021   7.295   2.938   1.550 -0.0522  0.6329 -0.4040
 1008MOL0     H36022   7.200   2.793   1.564  0.1699 -0.0109  0.1562
 1008MOL0     H36023   7.216   2.799   1.816  1.7801 -2.1722 -2.5192
 1008MOL0     H36024   7.282   2.964   1.793  0.1160 -0.5419  0.9537
 1008MOL0     H36025   7.067   3.033   1.695 -2.0739  0.0022  1.0223
 1008MOL0     H36026   7.018   2.880   1.678 -0.8262  0.2899 -0.0398
 1008MOL0     H36027   6.995   2.822   1.904 -0.5439 -0.1833 -2.3179
 1008MOL0     H36028   7.079   2.959   1.967 -2.2012 -1.1516  3.1476
 1008MOL0     H36029   6.901   3.107   1.918  1.4660 -0.1419 -1.1642
 1008MOL0     H36030   6.836   2.968   1.997 -0.9425 -2.1588 -2.9861
 1008MOL0     H36031   6.647   2.815   1.853 -0.2421 -0.0886 -0.0517
 1008MOL0     H36032   6.469   2.846   1.563  1.1379 -0.0448 -0.8554
 1008MOL0     H36033   6.441   2.829   1.734  0.8945 -0.0643  0.4167
 1008MOL0     H36034   6.377   3.066   1.566  0.6763  3.0527  1.6674
 1008MOL0     H36035   6.409   3.089   1.734  3.0270  0.4714 -2.9555
 1008MOL0     H36036   6.219   2.939   1.795 -0.7844 -0.6884  0.1243
 1008MOL0     H36037   6.196   2.886   1.622  0.5765 -0.0545  0.6801
 1008MOL0     H36038   6.112   3.110   1.576 -1.5375 -0.3203  0.6389
 1008MOL0     H36039   6.132   3.155   1.746  0.5201 -0.3204  1.8071
 1008MOL0     H36040   5.961   3.277   1.667 -1.0283  0.8147 -3.0021
 1008MOL0     H36041   5.826   3.472   1.621 -1.5659 -1.5860 -0.8064
 1008MOL0     H36042   5.662   3.497   1.685 -0.1689  1.7054  2.5814
 1008MOL0     H36043   5.799   3.511   1.794 -0.5985  0.4494  0.8794
 1008MOL0     H36044   5.282   3.292   1.614  1.1864 -3.0064  0.9821
 1008MOL0     H36045   5.037   3.379   1.602 -3.9675  1.1141  0.9201
 1008MOL0     H36046   4.699   3.411   1.721  1.8591  1.2573  2.5706
 1008MOL0     H36047   4.839   3.449   1.625 -0.8913  0.2913 -0.8792
 1008MOL0     H36048   4.724   3.288   1.503 -1.3771  0.2518 -0.4206
 1008MOL0     H36049   4.856   3.185   1.582  2.8320  2.7601  1.8892
 1008MOL0     H36050   4.570   3.181   1.671  0.2163  0.8163  3.0781
 1008MOL0     H36051   4.706   3.127   1.766 -0.0622 -3.4402 -0.8640
 1008MOL0     H36052   4.593   3.030   1.491 -1.2278  0.6557  0.3713
 1008MOL0     H36053   4.759   2.979   1.540  0.8210  0.8387  0.7519
 1008MOL0     H36054   4.499   2.921   1.710  0.7985 -1.5276  1.4899
 1008MOL0     H36055   4.655   2.876   1.756 -0.4403  0.9286  0.5058
 1008MOL0     H36056   4.509   2.788   1.491 -1.1037  0.8075  0.4071
 1008MOL0     H36057   4.671   2.738   1.554  0.4913  0.1942  1.1869
 1008MOL0     H36058   4.402   2.696   1.682 -0.9373  0.8847 -1.9428
 1008MOL0     H36059   4.561   2.649   1.750  0.6156 -0.1898  0.1720
 1008MOL0     H36060   4.443   2.458   1.644  1.7805 -1.2054 -0.1304
 1008MOL0     H36061   4.566   2.517   1.522  1.6753  0.2055  2.6721
 1008MOL0     H36062   4.988   3.233   2.004  1.3372 -1.3360  0.4997
 1008MOL0     H36063   5.220   3.169   2.007  2.0212  0.7237 -0.3076
 1008MOL0     H36064   5.571   3.043   1.867 -1.6375  1.6790 -1.6237
 1008MOL0     H36065   5.789   2.922   1.819  2.8485  0.1227  1.3479
 1008MOL0     H36066   7.629   2.444   1.775 -1.7960  2.1926 -1.3161
 1008MOL0     H36067   7.839   2.332   1.818 -2.6077 -0.8803  0.1285
 1008MOL0     H36068   8.245   1.986   1.485 -2.0558  0.9442 -0.5955
 1008MOL0     H36069   8.502   1.995   1.457  3.3067  3.7677 -3.3199
 1008MOL0     H36070   8.829   2.133   1.571 -2.2121  2.9324  2.0782
 1008MOL0     H36071   8.697   2.012   1.567 -2.4012  2.3564  1.9132
 1008MOL0     H36072   8.838   2.149   1.340 -0.0949 -0.0490 -2.0447
 1008MOL0     H36073   8.705   2.032   1.313 -0.6275 -0.9073 -0.7808
 1008MOL0     H36074   8.887   1.918   1.265  1.5790 -1.0709 -0.1759
 1008MOL0     H36075   8.868   1.849   1.423  1.2692  0.2353  2.1483
 1008MOL0     H36076   9.040   2.026   1.520  0.7863  0.6040  0.3399
 1008MOL0     H36077   9.058   2.089   1.361 -2.0252 -0.6042  0.6121
 1008MOL0     H36078   9.309   1.755   1.325  0.4354 -0.4579  1.8041
 1008MOL0     H36079   8.499   2.398   1.558 -1.0816  0.2914  2.0346
 1008MOL0     H36080   8.260   2.407   1.590 -0.3079 -0.3317  1.4024
 1009MOL0     O36081   8.250   0.142  10.853 -0.8188  0.2207 -0.5696
 1009MOL0     C36082   8.286   0.147  10.969  0.1945  0.3239 -0.7577
 1009MOL0     O36083   8.203   0.174  11.079  0.2723  0.7136  0.1846
 1009MOL0     C36084   8.083   0.224  11.037 -0.0430 -0.1040  0.5137
 1009MOL0     C36085   7.964   0.142  11.038 -1.3789 -0.7259 -0.1727
 1009MOL0     C36086   7.847   0.199  10.998  0.6859  0.0358 -0.5471
 1009MOL0     C36087   7.833   0.337  10.958 -0.2663  0.1899 -0.4467
 1009MOL0     O36088   7.711   0.386  10.915  0.7484 -0.5398  0.3822
 1009MOL0     C36089   7.593   0.349  10.974  0.3914  0.1799 -0.6596
 1009MOL0     C36090   7.480   0.428  10.918  0.5565  0.0790  0.0650
 1009MOL0     C36091   7.458   0.389  10.773  0.0986 -0.0009  0.6130
 1009MOL0     C36092   7.340   0.461  10.714  0.1840  0.3522 -0.8840
 1009MOL0     C36093   7.373   0.602  10.690  0.2860 -0.3395 -0.7778
 1009MOL0     C36094   7.261   0.661  10.609  0.2542  0.2574 -0.5370
 1009MOL0     C36095   7.305   0.801  10.569 -0.0043 -0.7541 -0.0788
 1009MOL0     C36096   7.210   0.866  10.470 -0.5800  0.3332  0.2617
 1009MOL0     N36097   7.078   0.907  10.515  0.3037 -0.3437 -0.4855
 1009MOL0     C36098   6.974   0.823  10.518 -0.4593  0.2627 -0.6596
 1009MOL0     C36099   6.884   0.905  10.567  1.7213  0.5516  0.1491
 1009MOL0     C36100   6.754   0.848  10.626  0.3616  0.1488 -0.8658
 1009MOL0     C36101   6.625   0.900  10.563  0.1785  0.2991 -0.0925
 1009MOL0     C36102   6.499   0.817  10.578  0.7197 -0.8149 -0.4340
 1009MOL0     C36103   6.379   0.894  10.558  0.0943  0.1192 -0.6779
 1009MOL0     O36104   6.405   0.992  10.457  0.4462 -0.3568 -0.6183
 1009MOL0     C36105   6.300   1.076  10.425  0.2422  0.2617  0.0804
 1009MOL0     C36106   6.332   1.205  10.366 -1.1779  0.1828 -0.7218
 1009MOL0     C36107   6.242   1.308  10.354 -0.1523  0.5367 -0.0680
 1009MOL0     C36108   6.289   1.430  10.286 -0.1094  0.1355 -0.7578
 1009MOL0     C36109   6.112   1.295  10.410 -0.1421  0.0594  0.1379
 1009MOL0     C36110   6.008   1.400  10.413 -0.1699 -0.0770  0.3191
 1009MOL0     O36111   6.029   1.517  10.352 -0.1100  0.7135  0.2895
 1009MOL0     C36112   5.973   1.627  10.406  0.6056 -0.2562  0.2718
 1009MOL0     C36113   5.848   1.660  10.357 -0.1617  0.2424 -0.1463
 1009MOL0     C36114   5.786   1.773  10.403 -0.0665 -0.5788  0.1567
 1009MOL0     C36115   5.844   1.867  10.494 -0.1894  1.2207 -0.5623
 1009MOL0     O36116   5.785   1.973  10.552 -0.3822  0.4155  0.4120
 1009MOL0     C36117   5.658   1.958  10.613 -0.0091 -0.0599  0.2782
 1009MOL0     C36118   5.653   1.849  10.730 -0.5127 -0.4448  0.8494
 1009MOL0     C36119   5.514   1.819  10.791 -0.0204 -0.1831  0.7332
 1009MOL0     C36120   5.500   1.673  10.843 -0.4203  0.1648  0.3200
 1009MOL0     C36121   5.375   1.674  10.935  0.3877  0.1944  0.0950
 1009MOL0     C36122   5.237   1.692  10.862  0.4774  0.2417  0.7962
 1009MOL0     C36123   5.115   1.679  10.964 -0.5129 -0.5727 -0.0917
 1009MOL0     C36124   4.981   1.685  10.890  0.7958 -0.2103 -0.5580
 1009MOL0    Cl36125   4.857   1.668  11.021  0.2336 -0.4098 -0.2592
 1009MOL0     C36126   5.976   1.844  10.543  1.0263  0.0752 -0.0800
 1009MOL0     C36127   6.033   1.719  10.501 -0.0240  0.5206  0.2421
 1009MOL0     O36128   5.915   1.375  10.488 -0.2796 -0.4584 -0.3098
 1009MOL0     C36129   6.081   1.174  10.469 -0.2460  0.4311  0.3579
 1009MOL0     C36130   6.162   1.064  10.467  0.4222 -0.9162 -0.9282
 1009MOL0     N36131   6.920   1.033  10.593 -0.5560  0.4058 -0.0695
 1009MOL0     N36132   7.045   1.033  10.548 -0.5336  0.1415  0.2136
 1009MOL0     C36133   7.955   0.408  10.961 -0.2486 -0.0303 -1.0608
 1009MOL0     C36134   8.081   0.355  10.991 -0.2698 -0.0631  0.1903
 1009MOL0     C36135   8.429   0.125  10.986 -0.6131 -0.0669 -0.5830
 1009MOL0     C36136   8.521   0.107  10.880 -0.9090 -0.1680  0.3522
 1009MOL0     C36137   8.653   0.083  10.904 -0.1030 -0.3004 -0.3840
 1009MOL0     C36138   8.705   0.091  11.040 -0.8848  0.5925  0.1417
 1009MOL0     O36139   8.837   0.066  11.079  0.4299  0.0392 -0.7737
 1009MOL0     C36140   8.911  -0.028  11.013 -0.3899  0.3626  0.4762
 1009MOL0     C36141   9.055  -0.032  11.071  0.1041  0.0615  0.3265
 1009MOL0     C36142   9.152  -0.103  10.964 -0.1265  0.0582  0.2575
 1009MOL0     C36143   9.299  -0.110  10.999  0.7274  0.2125 -0.4798
 1009MOL0     C36144   9.348   0.032  11.021 -0.2935  1.4085 -0.8748
 1009MOL0     C36145   9.377   0.144  11.048 -0.4797 -0.0932  0.1948
 1009MOL0     C36146   8.619   0.138  11.141 -0.1784  0.8955  0.2278
 1009MOL0     C36147   8.482   0.150  11.117 -0.4801 -0.5566 -0.7069
 1009MOL0     H36148   7.976   0.044  11.082  2.2508  1.1196  3.6180
 1009MOL0     H36149   7.759   0.137  10.992 -1.2375  2.6802 -1.4401
 1009MOL0     H36150   7.570   0.246  10.947  2.0648  0.4382 -3.5028
 1009MOL0     H36151   7.599   0.369  11.081 -2.0551 -2.5344  0.1141
 1009MOL0     H36152   7.386   0.416  10.974  0.1749  0.1727 -0.5457
 1009MOL0     H36153   7.508   0.534  10.919  1.0012 -0.0347 -0.3100
 1009MOL0     H36154   7.551   0.402  10.717  0.0474 -1.3727  0.1494
 1009MOL0     H36155   7.439   0.281  10.762 -2.2664  0.1287  2.6968
 1009MOL0     H36156   7.316   0.418  10.616  2.4541 -1.2790 -0.8166
 1009MOL0     H36157   7.255   0.445  10.780 -0.8385  0.9826 -2.0106
 1009MOL0     H36158   7.391   0.665  10.778  2.1696 -2.9702  0.8655
 1009MOL0     H36159   7.465   0.591  10.631  0.3314 -1.9656 -0.4440
 1009MOL0     H36160   7.235   0.599  10.523  1.2970 -0.0429 -0.6416
 1009MOL0     H36161   7.171   0.679  10.670  1.9054  1.2869  1.7459
 1009MOL0     H36162   7.307   0.861  10.661  1.2336  0.0793 -0.6217
 1009MOL0     H36163   7.410   0.794  10.538  1.1228  0.3764  3.0803
 1009MOL0     H36164   7.205   0.811  10.376  2.0874 -0.6603  0.6302
 1009MOL0     H36165   7.261   0.959  10.444 -0.2041 -0.0360 -0.3245
 1009MOL0     H36166   6.975   0.717  10.496  1.8483  0.4526 -1.6883
 1009MOL0     H36167   6.752   0.739  10.620 -0.7055 -0.1594  2.4929
 1009MOL0     H36168   6.755   0.870  10.733  0.0872 -3.2631 -0.0380
 1009MOL0     H36169   6.652   0.914  10.458 -0.9014  1.6832 -0.2044
 1009MOL0     H36170   6.626   0.998  10.610 -1.0960 -0.9690  2.8199
 1009MOL0     H36171   6.498   0.782  10.682 -0.6314 -0.1729 -0.2122
 1009MOL0     H36172   6.497   0.729  10.513 -0.8170 -1.5465  0.5458
 1009MOL0     H36173   6.352   0.935  10.656 -1.1246  0.3128 -1.0733
 1009MOL0     H36174   6.292   0.835  10.526 -0.5468  2.6677 -4.2129
 1009MOL0     H36175   6.436   1.215  10.335 -0.9337  0.0648  0.0213
 1009MOL0     H36176   6.210   1.462  10.217  0.8674  1.5903 -1.2309
 1009MOL0     H36177   6.297   1.511  10.359 -3.0492 -0.3546  0.2548
 1009MOL0     H36178   6.374   1.415  10.220 -0.8173 -1.6310 -1.3246
 1009MOL0     H36179   5.795   1.600  10.284  0.2896  0.6467 -0.8150
 1009MOL0     H36180   5.688   1.799  10.364  0.2853  2.4104  1.0523
 1009MOL0     H36181   5.632   2.055  10.655  1.7577  0.5717 -0.0073
 1009MOL0     H36182   5.584   1.925  10.540  2.0434  0.0865 -1.9660
 1009MOL0     H36183   5.687   1.761  10.676 -0.3926  0.5365 -0.7613
 1009MOL0     H36184   5.720   1.871  10.813  0.7708 -0.5184 -0.1496
 1009MOL0     H36185   5.446   1.829  10.707  2.0185  2.4196 -0.7534
 1009MOL0     H36186   5.498   1.889  10.873  0.1716  1.2855 -0.4576
 1009MOL0     H36187   5.492   1.600  10.763 -1.5470  1.7163 -1.0419
 1009MOL0     H36188   5.589   1.651  10.903 -0.6053 -1.6207  0.0017
 1009MOL0     H36189   5.390   1.749  11.013 -1.5617  1.4814 -0.7030
 1009MOL0     H36190   5.370   1.582  10.995 -1.4619  0.8000  0.9188
 1009MOL0     H36191   5.233   1.788  10.810 -1.3307 -0.2789 -0.1109
 1009MOL0     H36192   5.221   1.613  10.789 -0.1181  1.0898 -0.0047
 1009MOL0     H36193   5.097   1.760  11.035 -1.0845  0.6810 -1.6214
 1009MOL0     H36194   5.122   1.584  11.018  2.0441  0.0007  0.7056
 1009MOL0     H36195   4.977   1.612  10.808  1.6036 -0.1458 -0.6645
 1009MOL0     H36196   4.976   1.787  10.851 -1.1310 -0.6175 -1.5259
 1009MOL0     H36197   6.027   1.906  10.616  0.8044  0.6513 -0.4003
 1009MOL0     H36198   6.134   1.694  10.530  0.5142  1.7839 -0.4950
 1009MOL0     H36199   6.000   1.155  10.539  0.7502 -5.4050  0.3805
 1009MOL0     H36200   6.130   0.976  10.521 -1.6084  0.3888  0.1042
 1009MOL0     H36201   7.941   0.514  10.942 -0.8288  0.0927 -0.0507
 1009MOL0     H36202   8.166   0.422  10.992  3.3079 -4.1223 -2.0728
 1009MOL0     H36203   8.479   0.097  10.781 -1.4620 -3.9920  0.8076
 1009MOL0     H36204   8.715   0.055  10.819 -1.4355  0.4167 -1.6456
 1009MOL0     H36205   8.865  -0.128  11.013  0.9278 -0.2618  0.1939
 1009MOL0     H36206   8.922   0.002  10.909 -2.0499  1.6367  0.6222
 1009MOL0     H36207   9.056  -0.074  11.173  0.7740 -0.6661  0.0246
 1009MOL0     H36208   9.094   0.069  11.086  0.1408 -0.1180  1.5852
 1009MOL0     H36209   9.151  -0.050  10.868 -3.4849  0.6688  0.5112
 1009MOL0     H36210   9.110  -0.202  10.940  0.1051  0.3160 -1.3491
 1009MOL0     H36211   9.359  -0.169  10.929  0.2960 -2.4483  1.2435
 1009MOL0     H36212   9.312  -0.165  11.093 -0.1239 -2.7161 -1.9401
 1009MOL0     H36213   9.407   0.244  11.074  0.9384 -1.1740  3.2610
 1009MOL0     H36214   8.658   0.144  11.242 -1.5366  2.0777  0.7243
 1009MOL0     H36215   8.421   0.173  11.204  1.3291 -3.0278  1.4064
 1010MOL0     O36216   3.042   0.566   9.985  0.3152 -0.2992 -0.5376
 1010MOL0     C36217   3.089   0.496   9.896 -0.4381  0.6270  0.2241
 1010MOL0     O36218   3.024   0.401   9.822  0.6362 -0.0802 -0.6567
 1010MOL0     C36219   2.892   0.368   9.855 -0.3567 -0.0498 -0.1773
 1010MOL0     C36220   2.860   0.271   9.954 -0.9036  0.7693  1.4408
 1010MOL0     C36221   2.732   0.225   9.971  0.0494 -0.6013 -0.3728
 1010MOL0     C36222   2.626   0.276   9.895  0.4529 -0.2387  0.2577
 1010MOL0     O36223   2.493   0.241   9.902 -0.8208  0.0001 -0.2100
 1010MOL0     C36224   2.457   0.178  10.023  0.1743 -0.0342 -0.0974
 1010MOL0     C36225   2.310   0.153  10.025 -0.6155  0.4984 -0.1298
 1010MOL0     C36226   2.263   0.086  10.160  0.6783  0.1626  0.3086
 1010MOL0     C36227   2.109   0.093  10.144 -0.5129 -1.0195  0.3792
 1010MOL0     C36228   2.038  -0.009  10.222  0.4256  1.0086 -0.6478
 1010MOL0     C36229   1.882  -0.020  10.227  0.1709  1.0538  0.1910
 1010MOL0     C36230   1.827   0.112  10.289  0.4805 -0.0131  0.8388
 1010MOL0     C36231   1.866   0.144  10.441  0.5763  0.7502 -0.1041
 1010MOL0     N36232   1.741   0.115  10.515 -0.1768  0.0447  0.1814
 1010MOL0     C36233   1.642   0.207  10.538  0.4971  0.2131 -0.4628
 1010MOL0     C36234   1.548   0.139  10.612  0.3955 -0.3946 -0.8826
 1010MOL0     C36235   1.425   0.213  10.661  0.3713  0.5758  0.4130
 1010MOL0     C36236   1.302   0.177  10.575 -0.1477 -0.1169  1.0685
 1010MOL0     C36237   1.308   0.230  10.430 -0.6807  0.0784 -0.4890
 1010MOL0     C36238   1.165   0.224  10.373  0.0547 -0.0660 -0.6784
 1010MOL0     O36239   1.080   0.314  10.444 -0.3246 -0.4073  0.3219
 1010MOL0     C36240   0.947   0.315  10.422  0.0225  0.2516 -0.3740
 1010MOL0     C36241   0.885   0.228  10.332  0.5603  0.0836  0.3033
 1010MOL0     C36242   0.741   0.214  10.316  0.4993 -0.4679  0.9060
 1010MOL0     C36243   0.698   0.122  10.204 -0.7372 -0.0670 -0.5467
 1010MOL0     C36244   0.662   0.298  10.399 -0.0501 -0.1203 -0.3153
 1010MOL0     C36245   0.510   0.301  10.394 -0.0653  0.6147 -0.0122
 1010MOL0     O36246   0.449   0.330  10.511  0.2345 -0.2921 -0.3709
 1010MOL0     C36247   0.310   0.317  10.503  0.3921  0.2374 -0.0242
 1010MOL0     C36248   0.248   0.201  10.539 -0.2325  0.9181  0.2457
 1010MOL0     C36249   0.110   0.189  10.541 -0.3743 -0.6917  0.3156
 1010MOL0     C36250   0.033   0.298  10.490  0.7194 -0.1617  0.2710
 1010MOL0     O36251  -0.102   0.286  10.488 -0.0241  0.2467 -0.1430
 1010MOL0     C36252  -0.178   0.166  10.456 -0.4027 -0.8099  0.0484
 1010MOL0     C36253  -0.318   0.199  10.494 -0.5630 -0.0449  0.0900
 1010MOL0     C36254  -0.425   0.109  10.439  0.0539  0.5537  0.0954
 1010MOL0     C36255  -0.567   0.157  10.461 -0.1174  0.3043 -0.2047
 1010MOL0     C36256  -0.600   0.138  10.606  0.2095  1.2259 -0.2127
 1010MOL0     C36257  -0.750   0.155  10.638  0.0472 -0.1463  0.7002
 1010MOL0     C36258  -0.771   0.152  10.795 -0.0621 -0.1127 -0.0209
 1010MOL0     C36259  -0.897   0.095  10.856  0.1415  0.1716 -0.2685
 1010MOL0    Cl36260  -0.938  -0.060  10.783  0.4023  0.7440 -0.0466
 1010MOL0     C36261   0.099   0.409  10.440 -0.5510  0.4050  0.0517
 1010MOL0     C36262   0.236   0.422  10.450 -0.0019 -0.0825 -0.5102
 1010MOL0     O36263   0.456   0.262  10.290  0.0440  0.0692 -0.2402
 1010MOL0     C36264   0.730   0.374  10.500  1.1153  0.5644 -0.0554
 1010MOL0     C36265   0.865   0.380  10.509  0.8419  0.1278 -0.5925
 1010MOL0     N36266   1.598   0.014  10.642 -0.1293  0.0972  0.3006
 1010MOL0     N36267   1.711   0.005  10.588 -0.1805 -0.1376 -0.3338
 1010MOL0     C36268   2.654   0.365   9.795 -0.4464 -0.2016 -0.6781
 1010MOL0     C36269   2.788   0.412   9.780  0.8723  0.1286 -0.1129
 1010MOL0     C36270   3.232   0.500   9.888 -0.7810  1.5450  0.1082
 1010MOL0     C36271   3.298   0.591   9.972 -0.5845 -0.2741 -0.2145
 1010MOL0     C36272   3.436   0.607   9.961  0.0597 -0.2465 -0.2510
 1010MOL0     C36273   3.516   0.543   9.871  0.4363 -0.3322 -0.1782
 1010MOL0     O36274   3.646   0.568   9.877  0.5348 -0.4539  0.0793
 1010MOL0     C36275   3.726   0.544   9.761  0.8376 -0.1523  0.6334
 1010MOL0     C36276   3.856   0.624   9.789  1.0719  0.1971  0.3243
 1010MOL0     C36277   3.918   0.670   9.659  0.4642 -0.3376  0.2382
 1010MOL0     C36278   4.075   0.672   9.654  0.1999  0.3158 -0.8649
 1010MOL0     C36279   4.127   0.748   9.766  0.8716  0.4125  0.8115
 1010MOL0     C36280   4.176   0.814   9.855  0.1200  0.5700 -0.0042
 1010MOL0     C36281   3.447   0.445   9.790 -0.3877 -0.3309 -0.6237
 1010MOL0     C36282   3.307   0.428   9.795  0.6281 -0.5993  0.0824
 1010MOL0     H36283   2.946   0.240  10.013 -1.5175 -1.1281  1.4017
 1010MOL0     H36284   2.712   0.159  10.055  0.2293 -1.3156 -0.8816
 1010MOL0     H36285   2.507   0.084  10.045 -1.2105 -1.0467 -1.1425
 1010MOL0     H36286   2.486   0.248  10.102  1.1003 -1.1572  0.5914
 1010MOL0     H36287   2.270   0.253  10.008  3.8690  2.8057  1.1590
 1010MOL0     H36288   2.279   0.092   9.940  1.1549  2.2106 -2.1335
 1010MOL0     H36289   2.291  -0.019  10.165  0.4341  0.0609 -0.4233
 1010MOL0     H36290   2.307   0.132  10.249  2.0153  2.6458 -1.5002
 1010MOL0     H36291   2.077   0.197  10.158  2.7166 -0.2082  2.9278
 1010MOL0     H36292   2.087   0.069  10.039  2.7661 -1.6066 -0.2839
 1010MOL0     H36293   2.072  -0.104  10.178  2.0295  1.3375 -0.1824
 1010MOL0     H36294   2.066  -0.019  10.327 -5.9507 -0.4695  1.3569
 1010MOL0     H36295   1.839  -0.041  10.129  1.0733  0.7042 -0.1414
 1010MOL0     H36296   1.844  -0.092  10.299 -0.2340  0.5981 -0.4647
 1010MOL0     H36297   1.858   0.195  10.223  0.3775 -0.9066 -0.3659
 1010MOL0     H36298   1.720   0.122  10.270  0.7118 -0.1481 -0.7404
 1010MOL0     H36299   1.901   0.248  10.443 -0.1081  0.9935  2.0708
 1010MOL0     H36300   1.945   0.077  10.475 -0.5053  0.1200  1.3016
 1010MOL0     H36301   1.646   0.311  10.507  1.0187  0.2303 -0.3359
 1010MOL0     H36302   1.414   0.178  10.764 -1.3606 -0.0018  0.0804
 1010MOL0     H36303   1.440   0.321  10.669  2.6111  0.2342  1.6822
 1010MOL0     H36304   1.217   0.224  10.624 -0.5986  0.0586  0.1490
 1010MOL0     H36305   1.297   0.068  10.585 -0.8015 -0.6736 -3.2196
 1010MOL0     H36306   1.391   0.187  10.373  1.6418  4.2105 -0.6336
 1010MOL0     H36307   1.339   0.334  10.419  3.5341 -1.0695 -1.2200
 1010MOL0     H36308   1.136   0.120  10.386 -2.2269  0.6740  0.5395
 1010MOL0     H36309   1.168   0.244  10.265 -1.3337 -2.6670 -1.2851
 1010MOL0     H36310   0.952   0.162  10.279  0.6723 -0.4063  1.0359
 1010MOL0     H36311   0.783   0.080  10.150 -0.5220  2.8567 -2.7490
 1010MOL0     H36312   0.630   0.049  10.250 -2.4591  1.9930  0.3736
 1010MOL0     H36313   0.632   0.174  10.133  0.5310 -0.8522 -2.3631
 1010MOL0     H36314   0.318   0.132  10.586 -0.0049  0.9420 -0.0616
 1010MOL0     H36315   0.062   0.094  10.567 -3.3632  0.7859  0.6757
 1010MOL0     H36316  -0.168   0.141  10.349 -0.8801 -0.5348 -0.0620
 1010MOL0     H36317  -0.147   0.071  10.500  0.9006 -1.1481 -1.4757
 1010MOL0     H36318  -0.333   0.210  10.602  2.5879 -0.3824  0.6558
 1010MOL0     H36319  -0.340   0.299  10.455 -0.0370  0.5413  1.2306
 1010MOL0     H36320  -0.420   0.007  10.478 -4.0573  0.4473  0.8131
 1010MOL0     H36321  -0.415   0.097  10.331 -1.8967 -0.9172  0.0225
 1010MOL0     H36322  -0.586   0.261  10.432 -3.0257  0.2099  1.0853
 1010MOL0     H36323  -0.631   0.091  10.402  1.5810 -3.6788  2.0029
 1010MOL0     H36324  -0.541   0.211  10.662  2.5142  1.3570 -2.6005
 1010MOL0     H36325  -0.567   0.036  10.632  1.0107  1.9918  1.9835
 1010MOL0     H36326  -0.776   0.253  10.596 -0.6029  0.8773  3.2536
 1010MOL0     H36327  -0.805   0.074  10.590 -0.3989  0.4769  0.1409
 1010MOL0     H36328  -0.749   0.248  10.843  1.4640 -0.3353 -0.2131
 1010MOL0     H36329  -0.694   0.085  10.835 -0.3141 -0.1701  0.3728
 1010MOL0     H36330  -0.984   0.161  10.849 -0.7352 -0.7225  1.5621
 1010MOL0     H36331  -0.889   0.100  10.965 -4.0764 -0.8162  0.2869
 1010MOL0     H36332   0.045   0.497  10.407  1.4590  1.6466 -0.0556
 1010MOL0     H36333   0.274   0.520  10.422  1.8474 -0.1195  1.6360
 1010MOL0     H36334   0.673   0.427  10.576  1.2560  0.2091  0.3008
 1010MOL0     H36335   0.905   0.438  10.592  0.7137 -1.3121  0.5028
 1010MOL0     H36336   2.564   0.399   9.745 -3.1740 -2.6880  2.0859
 1010MOL0     H36337   2.811   0.489   9.707  2.7227  0.7943  1.1061
 1010MOL0     H36338   3.246   0.666  10.031 -0.6365  2.1306 -3.0894
 1010MOL0     H36339   3.482   0.682  10.025 -3.3738  1.6503  0.2081
 1010MOL0     H36340   3.735   0.435   9.770 -0.0928 -0.2397  0.6246
 1010MOL0     H36341   3.675   0.568   9.667  2.8002  0.8599 -0.2335
 1010MOL0     H36342   3.913   0.544   9.837 -0.8271 -2.3043 -1.2967
 1010MOL0     H36343   3.849   0.699   9.868 -1.6178 -1.7738  2.1427
 1010MOL0     H36344   3.883   0.772   9.645  0.8812  0.2038  2.6279
 1010MOL0     H36345   3.877   0.618   9.572  0.2240  1.4085 -0.7355
 1010MOL0     H36346   4.107   0.713   9.558 -1.4000 -0.2004 -1.6627
 1010MOL0     H36347   4.105   0.567   9.662 -2.6166 -0.5140  0.0032
 1010MOL0     H36348   4.221   0.876   9.929  0.3818 -0.8152  1.0254
 1010MOL0     H36349   3.512   0.381   9.731  1.8277  0.2017  1.0983
 1010MOL0     H36350   3.251   0.359   9.733 -0.5982  0.7066 -0.3049
 1011MOL0     O36351   7.968   7.524   9.986  0.3088 -0.1518 -0.1435
 1011MOL0     C36352   8.010   7.629  10.030 -0.6741  0.7434  0.3945
 1011MOL0     O36353   7.946   7.745  10.032  0.7115 -0.5465 -0.5220
 1011MOL0     C36354   7.815   7.754   9.982  0.2258 -0.6187  0.1135
 1011MOL0     C36355   7.713   7.670  10.037 -0.5073 -0.3292 -0.5868
 1011MOL0     C36356   7.580   7.681   9.994 -0.2438  0.6245 -0.3564
 1011MOL0     C36357   7.549   7.782   9.896  0.2594 -1.1889 -0.4108
 1011MOL0     O36358   7.414   7.794   9.856  0.1962  0.3760 -0.4446
 1011MOL0     C36359   7.362   7.920   9.890  0.4199 -0.1965 -0.4952
 1011MOL0     C36360   7.211   7.901   9.901 -0.5729 -0.1308 -0.1342
 1011MOL0     C36361   7.124   8.027   9.854  0.2545  0.9894 -0.0000
 1011MOL0     C36362   6.971   7.987   9.873 -0.1788  0.4032 -0.7515
 1011MOL0     C36363   6.879   8.105   9.842 -0.5338 -0.2864 -0.2695
 1011MOL0     C36364   6.888   8.151   9.696 -0.0501  0.7233  0.2276
 1011MOL0     C36365   6.784   8.254   9.661 -0.2420  0.1091 -0.1731
 1011MOL0     C36366   6.766   8.280   9.504  0.2090  0.0209 -0.1213
 1011MOL0     N36367   6.684   8.171   9.443  0.1176 -0.4222  0.5432
 1011MOL0     C36368   6.740   8.071   9.372 -0.1002  0.3559  0.0794
 1011MOL0     C36369   6.643   7.975   9.367  0.0256 -0.9448  0.0764
 1011MOL0     C36370   6.661   7.844   9.301 -0.3712  0.1817 -0.0300
 1011MOL0     C36371   6.791   7.770   9.335 -0.4528 -0.1057 -0.1074
 1011MOL0     C36372   6.801   7.625   9.295 -0.3463  0.6363 -0.2360
 1011MOL0     C36373   6.794   7.602   9.144 -0.3529  0.0254  0.2767
 1011MOL0     O36374   6.764   7.468   9.110  0.1760  0.7142 -0.2282
 1011MOL0     C36375   6.629   7.438   9.094  0.6336  0.1278 -1.1241
 1011MOL0     C36376   6.599   7.298   9.086  0.3291 -0.2721 -0.1951
 1011MOL0     C36377   6.463   7.258   9.063  0.0641  0.5240  0.6074
 1011MOL0     C36378   6.442   7.109   9.029 -0.0952 -0.2507 -0.6565
 1011MOL0     C36379   6.361   7.355   9.053 -0.6927 -0.1583  0.1319
 1011MOL0     C36380   6.219   7.316   9.043  0.4358 -0.1864 -0.0577
 1011MOL0     O36381   6.143   7.390   8.950 -0.8150  0.6098 -0.3249
 1011MOL0     C36382   6.013   7.342   8.930  0.5653  0.2421  0.4904
 1011MOL0     C36383   5.984   7.205   8.895  0.0923  0.4471 -0.1318
 1011MOL0     C36384   5.854   7.167   8.861  0.0363  0.4883  0.0481
 1011MOL0     C36385   5.754   7.266   8.863  0.1586  1.0791 -1.0349
 1011MOL0     O36386   5.627   7.215   8.854  0.1430 -0.2748 -0.1902
 1011MOL0     C36387   5.532   7.307   8.820  0.0810 -0.7064 -0.4622
 1011MOL0     C36388   5.406   7.240   8.769  0.3466  0.3923 -0.2601
 1011MOL0     C36389   5.269   7.316   8.788 -0.3223 -0.6977 -0.2735
 1011MOL0     C36390   5.163   7.237   8.718 -0.6815  0.8836  0.2740
 1011MOL0     C36391   5.016   7.286   8.751  0.0609 -0.1483  0.7809
 1011MOL0     C36392   4.911   7.194   8.679  0.2472 -0.0033  0.0630
 1011MOL0     C36393   4.769   7.251   8.681  0.0590  0.6747  0.3887
 1011MOL0     C36394   4.663   7.165   8.609  0.5126  0.2444  0.4886
 1011MOL0    Cl36395   4.495   7.239   8.624 -0.1798  0.3145  0.2358
 1011MOL0     C36396   5.784   7.398   8.891  0.5059  0.5877  0.4773
 1011MOL0     C36397   5.905   7.431   8.931 -0.9041  0.6312  0.0282
 1011MOL0     O36398   6.181   7.233   9.117  0.6982 -0.5341  0.2945
 1011MOL0     C36399   6.394   7.489   9.048  0.4122  0.2005  0.4203
 1011MOL0     C36400   6.521   7.531   9.074  0.2049  0.2415  0.4509
 1011MOL0     N36401   6.529   8.024   9.427  0.3227 -0.3387 -0.7718
 1011MOL0     N36402   6.556   8.144   9.471  0.3022  0.1853 -0.2195
 1011MOL0     C36403   7.653   7.869   9.844 -0.1471  0.6024  0.2249
 1011MOL0     C36404   7.783   7.859   9.889  0.0906  0.9620 -0.4237
 1011MOL0     C36405   8.138   7.610  10.092 -0.5426 -0.5527  0.1244
 1011MOL0     C36406   8.217   7.489  10.080  0.2891 -0.0543  0.0877
 1011MOL0     C36407   8.324   7.470  10.173 -0.3249  1.0384  0.3304
 1011MOL0     C36408   8.371   7.576  10.252 -0.9820  0.4761  0.5782
 1011MOL0     O36409   8.477   7.533  10.334  0.2910  0.1961 -0.2929
 1011MOL0     C36410   8.525   7.638  10.424 -0.0563 -0.3331 -0.6522
 1011MOL0     C36411   8.643   7.590  10.503  0.2419  0.3752  0.3927
 1011MOL0     C36412   8.767   7.540  10.416  0.0052  0.7307  0.0194
 1011MOL0     C36413   8.829   7.636  10.317 -0.1303  0.0343  0.1857
 1011MOL0     C36414   8.906   7.741  10.371  0.4127 -0.4746  1.1180
 1011MOL0     C36415   8.967   7.842  10.392  0.1110  0.0984  0.0495
 1011MOL0     C36416   8.309   7.702  10.240 -0.4599 -1.0861  0.0561
 1011MOL0     C36417   8.194   7.718  10.164 -0.6925  0.1875  0.3021
 1011MOL0     H36418   7.742   7.593  10.108 -0.2182  0.0328 -0.3048
 1011MOL0     H36419   7.506   7.606  10.022 -0.2230  0.9323  0.5318
 1011MOL0     H36420   7.387   7.966   9.986 -4.0160 -1.2159  1.4243
 1011MOL0     H36421   7.383   7.990   9.809 -1.3181  2.1864  0.9823
 1011MOL0     H36422   7.189   7.822   9.829 -0.5661 -0.5211  0.2877
 1011MOL0     H36423   7.176   7.871  10.001 -3.3930  0.7974 -0.7439
 1011MOL0     H36424   7.148   8.119   9.908 -1.0092  0.3480  1.7648
 1011MOL0     H36425   7.154   8.056   9.753  0.7141  2.0882  0.4400
 1011MOL0     H36426   6.957   7.892   9.822 -0.5328  0.3704 -0.5931
 1011MOL0     H36427   6.943   7.971   9.978 -1.7309  3.9535 -0.4606
 1011MOL0     H36428   6.778   8.062   9.850 -0.0850 -1.5553 -1.1515
 1011MOL0     H36429   6.896   8.180   9.920 -1.1854  0.8096 -1.1487
 1011MOL0     H36430   6.987   8.197   9.701  0.2929 -0.1201  2.3356
 1011MOL0     H36431   6.886   8.072   9.620 -0.1131 -0.9609  1.8874
 1011MOL0     H36432   6.690   8.224   9.709  0.6369 -0.4476  1.2726
 1011MOL0     H36433   6.813   8.346   9.714  1.3164 -1.0405  1.0822
 1011MOL0     H36434   6.862   8.294   9.454 -0.6713  3.2318 -1.1369
 1011MOL0     H36435   6.708   8.372   9.498 -1.6892 -1.1799 -1.2671
 1011MOL0     H36436   6.837   8.075   9.325 -0.7839  2.7683 -1.3354
 1011MOL0     H36437   6.578   7.779   9.333 -1.5447  0.6030 -2.0135
 1011MOL0     H36438   6.650   7.856   9.193 -0.3832 -1.1289 -0.1872
 1011MOL0     H36439   6.798   7.777   9.443 -0.6568  3.1832 -0.1999
 1011MOL0     H36440   6.879   7.825   9.300  1.2439 -1.4329  1.8279
 1011MOL0     H36441   6.721   7.565   9.341  1.2322 -2.1692 -0.9263
 1011MOL0     H36442   6.889   7.573   9.333  0.6121  0.4502 -2.5710
 1011MOL0     H36443   6.895   7.626   9.108 -0.5250  0.1819 -0.1157
 1011MOL0     H36444   6.737   7.673   9.083  0.8200 -0.3391 -1.3258
 1011MOL0     H36445   6.681   7.227   9.094  0.8436  0.5289  2.3301
 1011MOL0     H36446   6.408   7.057   9.119 -1.6963 -1.4578 -1.9063
 1011MOL0     H36447   6.366   7.102   8.951 -0.3739  0.2347 -0.4366
 1011MOL0     H36448   6.537   7.063   9.000  0.6774  0.3728  0.7401
 1011MOL0     H36449   6.059   7.126   8.897 -0.4318 -0.0891 -1.0755
 1011MOL0     H36450   5.833   7.060   8.861 -1.9774  0.7420  3.6900
 1011MOL0     H36451   5.507   7.362   8.911 -2.6158 -2.8821  0.2323
 1011MOL0     H36452   5.564   7.386   8.751  0.0933 -0.3973 -0.1109
 1011MOL0     H36453   5.427   7.216   8.664 -1.8983 -2.1708 -0.2448
 1011MOL0     H36454   5.392   7.142   8.816  0.3190  0.1479 -0.7790
 1011MOL0     H36455   5.273   7.409   8.730  2.2157  0.1677  1.1414
 1011MOL0     H36456   5.249   7.330   8.894 -0.0927  1.4445 -0.4735
 1011MOL0     H36457   5.181   7.232   8.610  1.4867 -0.9199  0.6647
 1011MOL0     H36458   5.165   7.133   8.753  1.0224  0.3673 -1.2318
 1011MOL0     H36459   4.999   7.386   8.712  2.0759  0.5429  1.5547
 1011MOL0     H36460   4.991   7.284   8.858 -0.9017 -2.8172  0.5999
 1011MOL0     H36461   4.952   7.174   8.580  3.6729 -1.3234  1.5606
 1011MOL0     H36462   4.914   7.103   8.739 -1.6443 -1.1370 -1.4554
 1011MOL0     H36463   4.771   7.352   8.640  2.2807  0.9426  1.0463
 1011MOL0     H36464   4.754   7.258   8.789 -0.9931 -3.0986  0.6073
 1011MOL0     H36465   4.645   7.065   8.650 -0.5088  0.7754  1.3929
 1011MOL0     H36466   4.695   7.159   8.504  0.8100  1.6582  0.4778
 1011MOL0     H36467   5.708   7.475   8.895  1.0291  1.1844 -0.7198
 1011MOL0     H36468   5.907   7.534   8.967  1.2625  0.7045 -0.1562
 1011MOL0     H36469   6.315   7.562   9.043 -0.6456 -0.9574 -0.4101
 1011MOL0     H36470   6.529   7.639   9.073 -2.3434  0.4886 -0.1028
 1011MOL0     H36471   7.623   7.940   9.768 -0.3142  1.4032  1.0220
 1011MOL0     H36472   7.859   7.932   9.861 -0.1774  0.7790 -1.7029
 1011MOL0     H36473   8.179   7.413  10.013 -1.3025  1.6435 -1.0256
 1011MOL0     H36474   8.361   7.368  10.169  0.9934  1.4432 -4.4512
 1011MOL0     H36475   8.546   7.733  10.374 -1.5245  0.8406  0.8458
 1011MOL0     H36476   8.450   7.659  10.500  0.8886 -4.7503  1.8718
 1011MOL0     H36477   8.622   7.492  10.546  1.1729 -0.0904 -0.1887
 1011MOL0     H36478   8.671   7.653  10.587 -1.5830  1.2207  0.4312
 1011MOL0     H36479   8.721   7.458  10.361  0.9241  2.3884 -3.5212
 1011MOL0     H36480   8.844   7.493  10.478 -0.2261  0.7127  0.2971
 1011MOL0     H36481   8.753   7.686  10.255  3.1955  1.9168 -2.7126
 1011MOL0     H36482   8.880   7.574  10.243 -0.7489  0.4192 -0.5892
 1011MOL0     H36483   9.023   7.931  10.408  0.4035 -0.5102  2.8711
 1011MOL0     H36484   8.345   7.791  10.291  0.9227  0.2338 -2.9544
 1011MOL0     H36485   8.131   7.804  10.185  1.6565  1.3435  3.4434
 1012MOL0     O36486   6.330   8.977   1.055 -0.5396 -0.2608  0.2517
 1012MOL0     C36487   6.430   9.007   0.991  1.0658 -0.1559  0.2719
 1012MOL0     O36488   6.445   9.116   0.913 -0.0542 -0.8082 -0.0678
 1012MOL0     C36489   6.339   9.217   0.910  0.2674 -0.0484 -1.2463
 1012MOL0     C36490   6.205   9.179   0.888 -0.2057 -1.2834  0.7158
 1012MOL0     C36491   6.112   9.274   0.869  0.1059  0.5577 -0.1537
 1012MOL0     C36492   6.144   9.412   0.885  0.4252 -0.4339 -1.1385
 1012MOL0     O36493   6.033   9.497   0.861 -0.1144 -0.2188 -0.0912
 1012MOL0     C36494   6.040   9.632   0.922 -0.1766 -0.2535  0.0511
 1012MOL0     C36495   5.931   9.713   0.841  0.2420  0.4746 -0.0936
 1012MOL0     C36496   5.791   9.662   0.868 -0.3819 -0.2627 -0.5066
 1012MOL0     C36497   5.694   9.754   0.807 -0.6659 -0.4636 -0.2447
 1012MOL0     C36498   5.551   9.704   0.819  0.4450  0.8882  0.1911
 1012MOL0     C36499   5.442   9.811   0.774  0.1704 -0.4029  0.7889
 1012MOL0     C36500   5.300   9.756   0.765  0.4805 -0.1631  0.1299
 1012MOL0     C36501   5.217   9.864   0.695 -0.3738 -0.4360 -0.3455
 1012MOL0     N36502   5.075   9.842   0.710  0.0013 -0.6718 -0.3120
 1012MOL0     C36503   4.993   9.895   0.806  0.7833  0.6439  0.2256
 1012MOL0     C36504   4.874   9.815   0.796  0.1781  0.1241  0.0834
 1012MOL0     C36505   4.751   9.818   0.881 -0.0349 -0.2385  0.2688
 1012MOL0     C36506   4.633   9.817   0.775  0.6071  0.0906 -0.2062
 1012MOL0     C36507   4.510   9.773   0.860  0.1352 -0.0044  0.2272
 1012MOL0     C36508   4.421   9.887   0.908 -0.6129  0.6731 -0.0605
 1012MOL0     O36509   4.306   9.842   0.975  0.2996 -0.4387 -0.6077
 1012MOL0     C36510   4.224   9.951   1.020 -0.6619  1.0815 -0.0613
 1012MOL0     C36511   4.270  10.076   1.058 -0.4717  0.5148 -0.8866
 1012MOL0     C36512   4.189  10.185   1.094 -0.7393  0.4423  0.9258
 1012MOL0     C36513   4.266  10.317   1.143  0.9806  0.8446 -0.1251
 1012MOL0     C36514   4.052  10.170   1.089  0.6929 -0.7805  0.5130
 1012MOL0     C36515   3.953  10.277   1.120  0.1113  0.3036 -0.3388
 1012MOL0     O36516   3.825  10.229   1.114  0.9920 -0.5104  0.6497
 1012MOL0     C36517   3.710  10.292   1.166 -0.1633  0.5451 -0.5987
 1012MOL0     C36518   3.579  10.254   1.128 -0.2926  0.0614  0.2644
 1012MOL0     C36519   3.466  10.294   1.201  0.5379 -0.3187 -0.1058
 1012MOL0     C36520   3.475  10.377   1.312  0.1541  0.3014 -0.1243
 1012MOL0     O36521   3.377  10.430   1.388  0.2418  0.3346  0.6377
 1012MOL0     C36522   3.243  10.386   1.364  0.8622  0.7896  0.3686
 1012MOL0     C36523   3.141  10.480   1.453 -0.5455  0.0451  0.6167
 1012MOL0     C36524   3.154  10.486   1.610 -0.5707  0.0546  0.0068
 1012MOL0     C36525   3.156  10.351   1.693 -0.3942 -0.8320 -0.2357
 1012MOL0     C36526   3.101  10.372   1.840  0.4132 -0.0605  0.4173
 1012MOL0     C36527   2.945  10.367   1.847 -0.2441 -0.7780 -0.1389
 1012MOL0     C36528   2.915  10.396   1.995 -0.6073 -0.4343  0.4402
 1012MOL0     C36529   2.762  10.408   1.995 -0.3762 -0.7443 -0.4767
 1012MOL0    Cl36530   2.680  10.250   2.025  0.2060 -0.6634  0.5308
 1012MOL0     C36531   3.599  10.418   1.348 -0.1864 -0.4276  0.3171
 1012MOL0     C36532   3.714  10.368   1.285  0.1686  0.3718  0.3354
 1012MOL0     O36533   3.982  10.398   1.132 -0.5069  0.7751 -1.2579
 1012MOL0     C36534   4.002  10.040   1.042  0.4542  0.3670  0.0163
 1012MOL0     C36535   4.091   9.935   1.016 -0.1562 -0.0607  0.0382
 1012MOL0     N36536   4.889   9.723   0.688  0.0884 -0.4755  0.6584
 1012MOL0     N36537   5.010   9.740   0.642 -0.1628  0.4685 -0.2702
 1012MOL0     C36538   6.277   9.450   0.895  0.8428 -0.2589 -0.0885
 1012MOL0     C36539   6.373   9.351   0.912 -0.4654  0.0719  0.3179
 1012MOL0     C36540   6.534   8.912   0.992  0.2374  1.1622 -0.3067
 1012MOL0     C36541   6.665   8.948   0.963 -0.9560  0.7739  0.7145
 1012MOL0     C36542   6.769   8.854   0.977  0.8392 -0.2387 -0.0712
 1012MOL0     C36543   6.750   8.724   1.025 -0.1284  0.3758  0.0754
 1012MOL0     O36544   6.839   8.619   1.041 -0.3834  0.2828  0.1203
 1012MOL0     C36545   6.979   8.666   1.048  0.1499 -0.3006  0.3986
 1012MOL0     C36546   7.061   8.565   1.127 -0.2633 -0.1149  0.0181
 1012MOL0     C36547   7.004   8.568   1.267  0.8732  0.1672  0.3230
 1012MOL0     C36548   7.089   8.505   1.375  0.5491 -0.0002  0.1740
 1012MOL0     C36549   7.007   8.465   1.491  0.0797 -0.0208  1.1071
 1012MOL0     C36550   6.921   8.432   1.576 -0.3620 -0.3417 -0.7861
 1012MOL0     C36551   6.620   8.690   1.054 -0.4141  0.0489 -0.0038
 1012MOL0     C36552   6.512   8.782   1.040  0.0793 -0.1995 -0.7312
 1012MOL0     H36553   6.185   9.072   0.887 -0.3371 -1.2965  2.3372
 1012MOL0     H36554   6.010   9.250   0.842  0.3596  1.0403 -1.6512
 1012MOL0     H36555   6.013   9.628   1.028  5.8901 -2.3820  1.9289
 1012MOL0     H36556   6.139   9.679   0.913 -1.3376  3.3222  3.1780
 1012MOL0     H36557   5.931   9.814   0.883 -3.5309  0.9035 -0.8066
 1012MOL0     H36558   5.957   9.703   0.735 -2.1621 -1.2269 -0.6011
 1012MOL0     H36559   5.791   9.558   0.834 -0.1569 -0.8527  1.1916
 1012MOL0     H36560   5.776   9.666   0.976  1.5183  2.9106 -0.2365
 1012MOL0     H36561   5.710   9.848   0.859  1.9938 -0.0162 -1.7190
 1012MOL0     H36562   5.725   9.773   0.704  2.2904 -1.3035  0.4176
 1012MOL0     H36563   5.551   9.611   0.762  0.5623  0.2770  1.1552
 1012MOL0     H36564   5.528   9.682   0.924 -2.2060  0.7362 -0.3464
 1012MOL0     H36565   5.439   9.896   0.843 -2.3980  0.0071  0.2734
 1012MOL0     H36566   5.469   9.846   0.674 -0.4182 -1.5131  0.2130
 1012MOL0     H36567   5.295   9.665   0.703 -0.1824 -0.4464  0.5794
 1012MOL0     H36568   5.256   9.745   0.864 -2.3539  0.8746 -0.9074
 1012MOL0     H36569   5.242   9.867   0.589 -0.1005  0.3629 -0.2656
 1012MOL0     H36570   5.242   9.960   0.741 -1.3349 -0.3788  0.0825
 1012MOL0     H36571   5.016   9.974   0.876  0.0986  2.8193 -1.8798
 1012MOL0     H36572   4.751   9.728   0.942 -0.6566  0.3557  1.1665
 1012MOL0     H36573   4.749   9.902   0.951  0.4594 -1.0151  1.2285
 1012MOL0     H36574   4.648   9.737   0.703  0.4404 -0.5156  0.4174
 1012MOL0     H36575   4.607   9.912   0.728 -0.0001  0.4485  0.8297
 1012MOL0     H36576   4.537   9.701   0.937  0.4325 -0.5098 -0.3453
 1012MOL0     H36577   4.432   9.725   0.799  0.7194 -0.5405 -0.1086
 1012MOL0     H36578   4.400   9.955   0.825  1.8763  1.3116 -0.2667
 1012MOL0     H36579   4.484   9.951   0.971 -1.2821  1.0601  0.2279
 1012MOL0     H36580   4.376  10.078   1.079 -1.0104 -1.6350  3.4084
 1012MOL0     H36581   4.237  10.392   1.069 -1.2575 -1.8442 -2.1956
 1012MOL0     H36582   4.244  10.341   1.248  0.7952 -0.3181  0.1267
 1012MOL0     H36583   4.374  10.303   1.137  0.8214 -2.0516  1.5097
 1012MOL0     H36584   3.566  10.189   1.042  1.4975 -0.3932  0.3038
 1012MOL0     H36585   3.366  10.259   1.175  0.6486  0.1837 -1.2503
 1012MOL0     H36586   3.216  10.407   1.260 -0.1385  1.1032  0.6776
 1012MOL0     H36587   3.235  10.281   1.394 -0.3931  1.6052  3.2345
 1012MOL0     H36588   3.152  10.581   1.411 -0.3858  0.2365  1.1147
 1012MOL0     H36589   3.038  10.449   1.434 -0.3735 -0.5146  0.5830
 1012MOL0     H36590   3.068  10.547   1.641  0.4865  1.5734  0.0366
 1012MOL0     H36591   3.249  10.534   1.634  0.1660 -0.4413 -1.7558
 1012MOL0     H36592   3.085  10.286   1.642  1.7011 -2.7002 -0.9250
 1012MOL0     H36593   3.256  10.306   1.698  1.2808  2.5176 -0.6068
 1012MOL0     H36594   3.139  10.458   1.896 -2.3759  0.7282  1.3128
 1012MOL0     H36595   3.131  10.278   1.887  0.8675 -0.8118 -1.3098
 1012MOL0     H36596   2.901  10.448   1.789 -2.1927 -0.3951  1.7586
 1012MOL0     H36597   2.899  10.277   1.805 -1.1760 -1.3467  1.9372
 1012MOL0     H36598   2.975  10.480   2.030  1.5552 -2.2384  1.3587
 1012MOL0     H36599   2.945  10.311   2.057  1.8414 -1.7629 -2.3024
 1012MOL0     H36600   2.714  10.445   1.904 -1.5131 -1.9727 -0.4114
 1012MOL0     H36601   2.737  10.487   2.067 -1.7504  1.2266 -2.9269
 1012MOL0     H36602   3.586  10.462   1.447  0.2531  3.3618 -1.1600
 1012MOL0     H36603   3.810  10.408   1.316 -0.1254 -0.8184  3.0703
 1012MOL0     H36604   3.898  10.014   1.031  0.3222  1.3103 -1.2551
 1012MOL0     H36605   4.058   9.835   0.991 -0.4166 -1.1154  3.9208
 1012MOL0     H36606   6.308   9.551   0.869 -1.0385 -0.5414 -4.2701
 1012MOL0     H36607   6.475   9.385   0.928 -0.5680  1.2493 -1.2581
 1012MOL0     H36608   6.694   9.045   0.923 -2.0411 -0.3026 -3.0714
 1012MOL0     H36609   6.871   8.878   0.948  1.8074 -2.2588  1.4667
 1012MOL0     H36610   7.024   8.677   0.949 -0.4567 -4.3328 -0.4995
 1012MOL0     H36611   6.979   8.764   1.096  0.6589  0.2483 -0.6875
 1012MOL0     H36612   7.166   8.593   1.132  0.9196 -4.1746  0.6101
 1012MOL0     H36613   7.057   8.468   1.077  0.9527  0.7310 -1.8395
 1012MOL0     H36614   6.910   8.510   1.268 -0.0829  1.6647  0.5335
 1012MOL0     H36615   6.972   8.670   1.288  0.3855 -0.1393  1.1164
 1012MOL0     H36616   7.160   8.584   1.402 -1.9931  2.0610  1.2408
 1012MOL0     H36617   7.131   8.411   1.337  1.5042  0.8977 -1.1005
 1012MOL0     H36618   6.855   8.388   1.648  0.8979 -1.1529 -0.0904
 1012MOL0     H36619   6.599   8.588   1.086 -1.5501 -0.0512 -0.9689
 1012MOL0     H36620   6.414   8.759   1.080  0.5702 -1.2930 -0.0895
 1013MOL0     O36621   4.699   5.814   1.990 -0.2729 -0.1259 -0.5186
 1013MOL0     C36622   4.733   5.872   2.095 -0.4870  1.0112 -0.7321
 1013MOL0     O36623   4.653   5.947   2.173  0.1812 -0.2225 -0.6334
 1013MOL0     C36624   4.518   5.921   2.190  0.7281 -0.1775  0.3497
 1013MOL0     C36625   4.454   6.006   2.277  0.3266  0.3808  0.8747
 1013MOL0     C36626   4.322   5.971   2.315  0.0803  0.3713 -0.2648
 1013MOL0     C36627   4.249   5.868   2.263 -0.4685 -0.5108 -0.3591
 1013MOL0     O36628   4.112   5.850   2.285 -0.2720 -0.5040 -0.0985
 1013MOL0     C36629   4.038   5.936   2.364  0.7543 -0.0245 -0.6097
 1013MOL0     C36630   3.892   5.874   2.361  0.4706  0.1064 -0.1650
 1013MOL0     C36631   3.797   5.962   2.450  0.4725  0.0075 -0.6961
 1013MOL0     C36632   3.655   5.922   2.450 -0.3953 -0.1928  0.3595
 1013MOL0     C36633   3.569   6.001   2.557 -0.5447  0.3444 -0.0527
 1013MOL0     C36634   3.573   5.956   2.710  1.3154  0.6887  0.3592
 1013MOL0     C36635   3.515   6.061   2.814 -0.2325  0.7272  0.1986
 1013MOL0     C36636   3.364   6.074   2.809 -0.5428 -0.0484  0.2848
 1013MOL0     N36637   3.293   5.955   2.856  0.9713 -0.8786  0.7508
 1013MOL0     C36638   3.327   5.863   2.953  0.3192 -0.4990  0.0754
 1013MOL0     C36639   3.217   5.783   2.954  0.1715 -0.2743 -0.6485
 1013MOL0     C36640   3.198   5.673   3.054 -0.0439  0.3082 -0.4676
 1013MOL0     C36641   3.137   5.707   3.185  0.0628 -0.3728 -0.3419
 1013MOL0     C36642   2.996   5.769   3.184 -0.1922  0.5752 -0.0868
 1013MOL0     C36643   2.882   5.669   3.137  0.2931  0.9306  0.0311
 1013MOL0     O36644   2.878   5.546   3.211 -0.4146 -0.1723 -0.0958
 1013MOL0     C36645   2.770   5.459   3.190  0.0794 -0.6231  1.7767
 1013MOL0     C36646   2.783   5.336   3.240  0.0945  0.5923  0.0284
 1013MOL0     C36647   2.678   5.239   3.249  0.1763  0.1733  0.6707
 1013MOL0     C36648   2.713   5.107   3.312 -0.4262  0.1292 -0.0175
 1013MOL0     C36649   2.552   5.264   3.188  0.1080 -0.2624 -0.3550
 1013MOL0     C36650   2.437   5.173   3.185 -0.2767  0.6192  0.1075
 1013MOL0     O36651   2.320   5.234   3.164  0.1512  0.0284  0.8669
 1013MOL0     C36652   2.208   5.161   3.171 -0.0006  0.0931  0.4063
 1013MOL0     C36653   2.147   5.150   3.294  0.2375 -0.1953 -0.0662
 1013MOL0     C36654   2.022   5.098   3.313 -0.7434  0.0183  0.2577
 1013MOL0     C36655   1.948   5.050   3.209 -0.1459  0.2499 -0.7253
 1013MOL0     O36656   1.816   5.006   3.234  0.1649 -0.0904 -0.2133
 1013MOL0     C36657   1.735   4.975   3.122  0.4641 -0.2209  0.5064
 1013MOL0     C36658   1.611   4.894   3.158  0.6741  0.8506  0.4468
 1013MOL0     C36659   1.543   4.843   3.027 -0.4243 -0.5249 -0.5039
 1013MOL0     C36660   1.428   4.747   3.055  0.3290  0.0749 -0.0780
 1013MOL0     C36661   1.295   4.815   3.092 -0.2286 -0.1696 -0.4286
 1013MOL0     C36662   1.173   4.727   3.073 -0.9775  0.8411 -0.6543
 1013MOL0     C36663   1.047   4.805   3.112 -0.4804  0.5937 -0.1542
 1013MOL0     C36664   0.929   4.719   3.144  0.0069 -0.5878  0.7882
 1013MOL0    Cl36665   0.931   4.568   3.042 -0.0611  0.0938  0.3410
 1013MOL0     C36666   2.018   5.051   3.084 -0.2126  0.3836  0.0757
 1013MOL0     C36667   2.142   5.103   3.066  0.2453  0.0458 -0.0538
 1013MOL0     O36668   2.453   5.054   3.195  0.4995 -0.3133  0.1779
 1013MOL0     C36669   2.540   5.397   3.139  0.0809  0.2620  0.6962
 1013MOL0     C36670   2.645   5.486   3.130 -0.3630 -0.4312 -0.5559
 1013MOL0     N36671   3.121   5.818   2.858  0.4278  0.5388  0.2644
 1013MOL0     N36672   3.164   5.928   2.800 -0.9102  1.0585 -0.5192
 1013MOL0     C36673   4.310   5.790   2.171 -0.7105  0.5261  1.2893
 1013MOL0     C36674   4.446   5.812   2.135  0.3149 -0.0253  0.3285
 1013MOL0     C36675   4.864   5.846   2.151 -0.9506  0.4080  0.2971
 1013MOL0     C36676   4.955   5.755   2.097 -0.2305 -0.6737  0.4278
 1013MOL0     C36677   5.087   5.753   2.145  0.5824 -0.0692  0.3455
 1013MOL0     C36678   5.130   5.819   2.258 -0.2005 -0.0287 -0.7165
 1013MOL0     O36679   5.261   5.793   2.302  0.4972 -0.3549  0.1053
 1013MOL0     C36680   5.298   5.830   2.430  0.1042 -0.3455  0.0452
 1013MOL0     C36681   5.442   5.793   2.453  0.6393  0.4120 -1.1594
 1013MOL0     C36682   5.554   5.893   2.422 -0.2638 -0.2028 -0.3324
 1013MOL0     C36683   5.691   5.827   2.436 -0.8049 -0.1025 -0.1195
 1013MOL0     C36684   5.744   5.809   2.568 -1.0743 -0.0872 -0.1455
 1013MOL0     C36685   5.805   5.809   2.671 -0.2651 -0.5311 -0.1533
 1013MOL0     C36686   5.036   5.897   2.325 -0.6009  0.7604  0.4387
 1013MOL0     C36687   4.905   5.915   2.272 -0.4901 -0.0356  0.6756
 1013MOL0     H36688   4.506   6.092   2.317  1.8964 -1.2837  2.6174
 1013MOL0     H36689   4.272   6.031   2.390 -1.6990  1.3360 -2.1173
 1013MOL0     H36690   4.077   5.916   2.464  0.7212 -3.4474 -1.1575
 1013MOL0     H36691   4.034   6.042   2.335  1.8403 -0.6460 -3.3067
 1013MOL0     H36692   3.865   5.865   2.255  2.7715 -1.9544 -0.6772
 1013MOL0     H36693   3.891   5.767   2.387 -1.1960 -0.1945 -1.2828
 1013MOL0     H36694   3.831   5.957   2.554  2.7220  0.5841 -1.3347
 1013MOL0     H36695   3.801   6.063   2.406 -2.0935 -0.2579 -1.6934
 1013MOL0     H36696   3.620   5.954   2.352 -2.0392 -0.2798  0.8924
 1013MOL0     H36697   3.638   5.814   2.461 -2.9367 -0.0122 -1.0824
 1013MOL0     H36698   3.586   6.109   2.562  1.7328  0.1228 -1.6160
 1013MOL0     H36699   3.467   5.976   2.526 -0.5463  0.0361  0.1918
 1013MOL0     H36700   3.519   5.862   2.718 -3.5785  3.0037 -1.2933
 1013MOL0     H36701   3.674   5.927   2.740  1.1174  0.2815  0.6297
 1013MOL0     H36702   3.548   6.032   2.915  1.0372  0.7927 -0.1854
 1013MOL0     H36703   3.549   6.163   2.799  0.3316  0.4073 -0.8242
 1013MOL0     H36704   3.343   6.110   2.708  0.1558 -0.8927 -0.1698
 1013MOL0     H36705   3.332   6.149   2.881  0.0404 -0.9149  1.4856
 1013MOL0     H36706   3.417   5.865   3.013  0.4983  1.0249 -0.2035
 1013MOL0     H36707   3.145   5.587   3.011  1.2015 -1.5785  1.5777
 1013MOL0     H36708   3.298   5.634   3.076  0.3007  1.4710  0.0571
 1013MOL0     H36709   3.199   5.784   3.232 -0.1910 -0.2508 -0.2052
 1013MOL0     H36710   3.142   5.618   3.248  0.2986 -0.6879 -0.7987
 1013MOL0     H36711   3.000   5.862   3.126  2.6385  0.6944  0.1302
 1013MOL0     H36712   2.973   5.807   3.284  0.9058  4.4781 -1.1312
 1013MOL0     H36713   2.871   5.637   3.033 -3.3064 -0.3226  0.6157
 1013MOL0     H36714   2.790   5.725   3.158  0.2373  0.6702  0.5167
 1013MOL0     H36715   2.885   5.322   3.275 -0.6360  1.9964  3.1256
 1013MOL0     H36716   2.655   5.084   3.402  2.4429  0.4946  2.0546
 1013MOL0     H36717   2.699   5.020   3.247 -2.0757 -0.9885  1.7184
 1013MOL0     H36718   2.811   5.102   3.360 -1.1349  1.5602  1.6556
 1013MOL0     H36719   2.196   5.201   3.376  2.2000 -0.7902 -0.8156
 1013MOL0     H36720   1.980   5.111   3.413 -1.2381 -2.9468  0.5221
 1013MOL0     H36721   1.700   5.067   3.075 -0.3981 -0.2998  0.9843
 1013MOL0     H36722   1.798   4.913   3.057 -0.1346  0.9226 -1.2515
 1013MOL0     H36723   1.633   4.806   3.219 -0.3780 -0.5188 -1.0659
 1013MOL0     H36724   1.535   4.956   3.206  1.8657  2.8696 -0.1371
 1013MOL0     H36725   1.617   4.785   2.972 -1.0358 -0.2484 -1.6460
 1013MOL0     H36726   1.520   4.933   2.969  2.5642 -0.8549 -2.4101
 1013MOL0     H36727   1.414   4.679   2.971  1.8871 -0.8059  0.3392
 1013MOL0     H36728   1.462   4.696   3.146 -1.4728  0.4861  0.8718
 1013MOL0     H36729   1.278   4.908   3.036 -2.9467 -0.1160  0.3580
 1013MOL0     H36730   1.303   4.849   3.196 -2.2101 -1.1176  0.0645
 1013MOL0     H36731   1.172   4.672   2.978  0.7741  1.6582 -1.1852
 1013MOL0     H36732   1.181   4.646   3.146  2.0284  1.3277 -0.3390
 1013MOL0     H36733   1.023   4.874   3.030 -2.2158 -1.0608 -1.1206
 1013MOL0     H36734   1.072   4.863   3.202 -0.0928  3.8152 -2.1781
 1013MOL0     H36735   0.832   4.768   3.137 -0.4128 -1.2133  1.9598
 1013MOL0     H36736   0.950   4.698   3.249 -0.9142  0.6324  1.2287
 1013MOL0     H36737   1.966   5.023   2.993 -1.6528 -0.2579  1.0460
 1013MOL0     H36738   2.180   5.120   2.966 -1.0894 -1.2114 -0.8051
 1013MOL0     H36739   2.441   5.421   3.103  0.2506  2.1031  1.3406
 1013MOL0     H36740   2.630   5.588   3.094  0.3472  0.8051  2.3684
 1013MOL0     H36741   4.258   5.701   2.135  3.4425 -1.5520 -0.1667
 1013MOL0     H36742   4.493   5.729   2.083 -3.4348 -1.2906 -1.3550
 1013MOL0     H36743   4.926   5.713   2.002  1.7889  2.3013 -1.6936
 1013MOL0     H36744   5.148   5.686   2.084 -0.1686  1.8043 -2.6916
 1013MOL0     H36745   5.301   5.938   2.447 -0.2954  0.2013 -2.7666
 1013MOL0     H36746   5.240   5.768   2.499  1.3274 -0.4652  0.9841
 1013MOL0     H36747   5.465   5.696   2.407  2.1522  0.6456 -0.9311
 1013MOL0     H36748   5.450   5.778   2.561 -1.1910 -4.2826 -1.4033
 1013MOL0     H36749   5.551   5.990   2.473 -3.7682  0.0217 -0.7219
 1013MOL0     H36750   5.536   5.908   2.315  3.2467 -1.0071 -1.1449
 1013MOL0     H36751   5.763   5.893   2.387 -1.4914  0.2936 -0.6188
 1013MOL0     H36752   5.688   5.729   2.388 -0.8384 -1.1385  1.8762
 1013MOL0     H36753   5.860   5.793   2.761 -0.8680 -0.9876  0.1382
 1013MOL0     H36754   5.063   5.955   2.413 -0.8540  2.7429 -0.7132
 1013MOL0     H36755   4.843   5.989   2.322  0.2650  1.4483 -0.4848
 1014MOL0     O36756  10.978   0.486  10.061  0.0127  0.1085 -0.6122
 1014MOL0     C36757  11.059   0.396  10.062 -0.3590 -0.8134  0.6141
 1014MOL0     O36758  11.028   0.260  10.057  0.3167 -0.4597  0.4647
 1014MOL0     C36759  10.896   0.210  10.066  0.4831 -0.9183 -0.7373
 1014MOL0     C36760  10.780   0.273  10.113 -0.1399 -0.0078  0.6043
 1014MOL0     C36761  10.657   0.203  10.122  0.1567 -0.2106  0.3180
 1014MOL0     C36762  10.654   0.068  10.090 -0.0820 -0.9687 -0.0166
 1014MOL0     O36763  10.543  -0.013  10.103  0.2727  0.2543  0.8695
 1014MOL0     C36764  10.412   0.046  10.084 -0.4073 -0.0926 -0.5539
 1014MOL0     C36765  10.401   0.113   9.950  0.9238  0.5023 -0.4005
 1014MOL0     C36766  10.389   0.011   9.829 -0.3479 -0.3801 -0.3185
 1014MOL0     C36767  10.255   0.017   9.768 -0.2226 -0.0160  0.2403
 1014MOL0     C36768  10.154  -0.055   9.852  0.1674 -0.1029 -0.1998
 1014MOL0     C36769  10.027   0.010   9.816  0.3435 -0.8225 -0.1160
 1014MOL0     C36770   9.904  -0.055   9.874 -0.1360 -0.9160 -0.2351
 1014MOL0     C36771   9.781   0.043   9.858  0.1759  0.6344  0.3283
 1014MOL0     N36772   9.788   0.170   9.933  0.4924 -0.4520  0.7534
 1014MOL0     C36773   9.698   0.268   9.923 -0.1716  0.6236 -0.2192
 1014MOL0     C36774   9.733   0.367  10.007 -0.7158 -0.4678  0.0456
 1014MOL0     C36775   9.653   0.494  10.039 -0.4214  0.7244  0.0848
 1014MOL0     C36776   9.589   0.478  10.167  0.5753 -0.1343  0.8863
 1014MOL0     C36777   9.510   0.349  10.195  0.8898  0.0881 -0.1243
 1014MOL0     C36778   9.443   0.358  10.335 -0.1630  0.1069  0.4873
 1014MOL0     O36779   9.333   0.448  10.334  0.6326  0.4577  0.0920
 1014MOL0     C36780   9.209   0.400  10.286 -0.0065 -0.2088  0.2490
 1014MOL0     C36781   9.177   0.273  10.249 -0.0770  0.0980 -0.0158
 1014MOL0     C36782   9.039   0.228  10.225  0.6021  0.2032  0.1613
 1014MOL0     C36783   9.020   0.080  10.189 -0.0276  0.3479 -0.6351
 1014MOL0     C36784   8.930   0.313  10.251  0.0130 -1.1377 -0.9620
 1014MOL0     C36785   8.783   0.286  10.263 -0.1950 -0.2282 -0.5935
 1014MOL0     O36786   8.693   0.385  10.292 -0.7077 -0.1896  0.3569
 1014MOL0     C36787   8.568   0.347  10.332 -0.3463 -0.1727  0.0672
 1014MOL0     C36788   8.527   0.261  10.436 -1.0135 -0.4963  0.0220
 1014MOL0     C36789   8.404   0.260  10.490  0.5817  0.2877 -0.3430
 1014MOL0     C36790   8.313   0.352  10.439  1.2949 -0.3469 -0.2057
 1014MOL0     O36791   8.189   0.375  10.491  0.1534  0.3716 -0.2664
 1014MOL0     C36792   8.137   0.274  10.582  0.6005  0.2021 -0.2098
 1014MOL0     C36793   7.988   0.279  10.588  0.3307 -0.7510  0.6842
 1014MOL0     C36794   7.949   0.429  10.635 -0.5377 -0.0271 -0.3757
 1014MOL0     C36795   7.922   0.513  10.510  0.4190 -0.8794 -0.2893
 1014MOL0     C36796   7.787   0.481  10.445  0.1456 -0.8192 -0.2260
 1014MOL0     C36797   7.762   0.566  10.313  0.2950 -0.1716 -0.6407
 1014MOL0     C36798   7.623   0.525  10.256  0.0846  0.0373  0.0973
 1014MOL0     C36799   7.611   0.560  10.101 -0.2872 -0.2521 -0.7169
 1014MOL0    Cl36800   7.427   0.553  10.064 -0.2027 -0.3194 -0.2405
 1014MOL0     C36801   8.343   0.439  10.335 -0.6045 -0.8231 -0.2241
 1014MOL0     C36802   8.466   0.427  10.273 -0.2435 -0.3999  0.3054
 1014MOL0     O36803   8.754   0.167  10.273  0.0063 -0.4239 -0.5145
 1014MOL0     C36804   8.967   0.444  10.276  0.4132  0.0872  0.2418
 1014MOL0     C36805   9.099   0.486  10.294  0.5905 -0.1805 -0.0797
 1014MOL0     N36806   9.846   0.315  10.071 -0.1576  0.0147  0.1976
 1014MOL0     N36807   9.877   0.199  10.027  0.0346  0.8215  0.4392
 1014MOL0     C36808  10.768   0.012  10.040 -0.1198 -0.2158  0.1811
 1014MOL0     C36809  10.883   0.080  10.024  0.9801  0.2903  0.3552
 1014MOL0     C36810  11.200   0.437  10.082  0.5079  0.7321  0.6448
 1014MOL0     C36811  11.303   0.349  10.113  0.0381 -0.4933 -0.3673
 1014MOL0     C36812  11.433   0.391  10.124 -0.3426 -0.1061  0.7124
 1014MOL0     C36813  11.468   0.526  10.099 -0.1193  0.6917 -0.4338
 1014MOL0     O36814  11.594   0.554  10.120 -0.1021 -1.1997  0.0074
 1014MOL0     C36815  11.664   0.575   9.996 -0.8965 -1.7034 -0.0783
 1014MOL0     C36816  11.752   0.700   9.988  0.1009 -1.0833  0.7806
 1014MOL0     C36817  11.838   0.723  10.103  0.4163  0.4625 -0.7207
 1014MOL0     C36818  11.937   0.611  10.118  0.5239  0.1548 -0.3729
 1014MOL0     C36819  12.030   0.637  10.225  0.7250  0.3498 -0.5063
 1014MOL0     C36820  12.121   0.641  10.304 -0.3004  0.5924  0.5923
 1014MOL0     C36821  11.376   0.620  10.062  0.1594  0.1291 -0.1185
 1014MOL0     C36822  11.238   0.573  10.050  1.0286  0.4651 -1.5267
 1014MOL0     H36823  10.789   0.367  10.167 -1.5236 -1.4897  3.6548
 1014MOL0     H36824  10.580   0.263  10.169  1.4862 -0.2619  2.7615
 1014MOL0     H36825  10.334  -0.029  10.097 -1.4444  0.2998 -3.6587
 1014MOL0     H36826  10.407   0.117  10.168  3.6459  0.9936 -1.0343
 1014MOL0     H36827  10.305   0.166   9.954 -1.5309 -3.3694 -1.9384
 1014MOL0     H36828  10.484   0.183   9.939  2.3102 -0.3090  3.2697
 1014MOL0     H36829  10.465   0.038   9.756 -0.8048 -0.9401 -1.0088
 1014MOL0     H36830  10.421  -0.091   9.851 -1.2869 -0.5603  0.2660
 1014MOL0     H36831  10.228   0.121   9.748  2.9255  1.5200  3.1150
 1014MOL0     H36832  10.256  -0.041   9.675  1.6597  0.6844 -0.2257
 1014MOL0     H36833  10.146  -0.159   9.819  0.2841  0.0830 -0.8200
 1014MOL0     H36834  10.172  -0.043   9.960 -0.2329 -2.5103  0.1823
 1014MOL0     H36835  10.035   0.116   9.844  0.6021  0.0357 -3.0619
 1014MOL0     H36836  10.017  -0.009   9.709  1.9605 -3.3262  0.0943
 1014MOL0     H36837   9.882  -0.150   9.824 -1.1873 -0.4596 -0.6548
 1014MOL0     H36838   9.926  -0.073   9.980  1.3962  1.5194 -0.0637
 1014MOL0     H36839   9.702  -0.011   9.911 -0.6459 -0.9931 -2.3611
 1014MOL0     H36840   9.746   0.053   9.755 -0.8006  1.0617  0.6905
 1014MOL0     H36841   9.607   0.262   9.864 -0.1409 -2.4861 -0.1122
 1014MOL0     H36842   9.723   0.578  10.051  0.5189 -0.1451  0.7978
 1014MOL0     H36843   9.581   0.509   9.958 -2.4991 -2.8465  1.0596
 1014MOL0     H36844   9.519   0.562  10.175  0.4020 -0.3000  1.1165
 1014MOL0     H36845   9.666   0.480  10.245  2.0690  1.2411 -0.5654
 1014MOL0     H36846   9.579   0.264  10.198  0.8460  0.0462 -0.3045
 1014MOL0     H36847   9.440   0.323  10.116  0.7353  1.4217 -0.4509
 1014MOL0     H36848   9.525   0.393  10.397  0.3761  1.4756 -0.9198
 1014MOL0     H36849   9.394   0.267  10.372 -4.3654  1.0321 -2.0783
 1014MOL0     H36850   9.260   0.208  10.225 -0.7736 -0.5824 -0.6611
 1014MOL0     H36851   8.980   0.025  10.274  0.3558  1.3039  0.2018
 1014MOL0     H36852   8.960   0.068  10.099  0.9293 -1.5748 -1.0596
 1014MOL0     H36853   9.122   0.043  10.176  0.6743  0.9302  2.3691
 1014MOL0     H36854   8.602   0.199  10.485  0.3590 -0.3395 -1.7415
 1014MOL0     H36855   8.386   0.191  10.571  1.0033  1.5146  0.8274
 1014MOL0     H36856   8.154   0.177  10.535  0.8703  1.1305 -2.1201
 1014MOL0     H36857   8.181   0.285  10.682 -1.0746 -0.0661  0.5886
 1014MOL0     H36858   7.933   0.244  10.500 -1.3514 -1.4761  1.9587
 1014MOL0     H36859   7.964   0.201  10.661  0.0232 -2.1869 -0.8976
 1014MOL0     H36860   8.041   0.458  10.687 -0.9500  3.3101 -1.2247
 1014MOL0     H36861   7.860   0.431  10.698 -0.0382 -0.4706  0.3477
 1014MOL0     H36862   7.936   0.619  10.534  0.3116 -1.1746  1.1245
 1014MOL0     H36863   7.990   0.502  10.425  0.6777  0.1797 -0.2388
 1014MOL0     H36864   7.711   0.494  10.523  1.5789 -1.2084  1.2789
 1014MOL0     H36865   7.778   0.374  10.425 -2.5175 -0.3644 -1.9847
 1014MOL0     H36866   7.768   0.674  10.334 -0.6228 -0.2470  0.1002
 1014MOL0     H36867   7.841   0.534  10.245  0.7051 -0.6948  0.0694
 1014MOL0     H36868   7.545   0.581  10.309 -0.4719  0.7572 -1.4355
 1014MOL0     H36869   7.610   0.418  10.273  2.7693 -0.5845 -1.2275
 1014MOL0     H36870   7.676   0.493  10.044 -0.3411 -0.0722 -0.9896
 1014MOL0     H36871   7.649   0.660  10.078 -2.6433  0.9831  0.4207
 1014MOL0     H36872   8.273   0.518  10.311 -0.6512 -1.0200 -0.7426
 1014MOL0     H36873   8.484   0.500  10.194  1.4230  0.2995  1.2882
 1014MOL0     H36874   8.895   0.524  10.285  0.2035 -0.0941  0.1707
 1014MOL0     H36875   9.123   0.590  10.309  1.1096 -0.5401  1.8509
 1014MOL0     H36876  10.753  -0.093  10.015 -4.5016  0.3276 -0.1607
 1014MOL0     H36877  10.961   0.017   9.981 -0.2052  0.4596 -2.2494
 1014MOL0     H36878  11.277   0.247  10.141  1.2091 -0.6091  0.3882
 1014MOL0     H36879  11.508   0.318  10.153  0.2427 -1.0715 -2.7493
 1014MOL0     H36880  11.726   0.487   9.979  2.5594  0.0641  2.1194
 1014MOL0     H36881  11.594   0.582   9.913  0.0800 -2.3625 -0.9821
 1014MOL0     H36882  11.694   0.793   9.985  1.2003 -0.3959 -0.8250
 1014MOL0     H36883  11.810   0.707   9.895  0.1098  1.4556  0.9054
 1014MOL0     H36884  11.781   0.731  10.196 -1.6397  1.2304 -1.9910
 1014MOL0     H36885  11.901   0.808  10.076  1.9157  0.1668  1.5910
 1014MOL0     H36886  11.997   0.597  10.028  0.2437  0.5279 -0.6186
 1014MOL0     H36887  11.879   0.520  10.137  2.4880 -0.9732  0.6298
 1014MOL0     H36888  12.214   0.639  10.358  0.6291  1.1228 -0.9140
 1014MOL0     H36889  11.415   0.721  10.046  1.7744 -0.5071 -0.4396
 1014MOL0     H36890  11.169   0.650  10.017  0.7868  1.1769  0.5197
 1015MOL0     O36891   1.141   9.851   8.769 -0.1394 -0.2720  0.5967
 1015MOL0     C36892   1.210   9.953   8.744  0.2046 -0.1627  0.8682
 1015MOL0     O36893   1.168  10.061   8.674  0.6317 -0.6535 -0.0341
 1015MOL0     C36894   1.036  10.057   8.630 -0.0449  0.7857 -0.5405
 1015MOL0     C36895   0.930  10.107   8.714  0.0833 -0.1868  0.8010
 1015MOL0     C36896   0.794  10.090   8.670 -0.3289  0.2662 -0.0495
 1015MOL0     C36897   0.768  10.027   8.545  0.1864  0.3174  0.2250
 1015MOL0     O36898   0.642  10.018   8.482  0.0184 -0.0748 -0.4786
 1015MOL0     C36899   0.521  10.066   8.546  0.3560  0.3050 -0.6220
 1015MOL0     C36900   0.397   9.991   8.496  0.7288  0.6383 -0.1299
 1015MOL0     C36901   0.275  10.020   8.585 -0.2695 -0.4395  0.4404
 1015MOL0     C36902   0.150  10.018   8.501 -0.9320  0.3531  0.1404
 1015MOL0     C36903   0.026  10.059   8.577  0.1267 -0.9818 -0.1554
 1015MOL0     C36904  -0.093  10.047   8.490  0.4282  0.1275  0.2646
 1015MOL0     C36905  -0.234  10.071   8.559  0.3775  0.1331  0.2191
 1015MOL0     C36906  -0.261   9.958   8.655  1.0873 -0.1117  0.3386
 1015MOL0     N36907  -0.404   9.967   8.695 -0.1361 -0.5362  0.9488
 1015MOL0     C36908  -0.522   9.935   8.622  0.4670  0.9226 -0.0102
 1015MOL0     C36909  -0.629   9.965   8.696 -0.3185 -0.3492  0.1976
 1015MOL0     C36910  -0.778   9.962   8.662  0.0685  1.4043 -0.0218
 1015MOL0     C36911  -0.826   9.828   8.602  0.2056  0.0391  0.6256
 1015MOL0     C36912  -0.982   9.819   8.596 -0.2918 -0.1300 -0.2737
 1015MOL0     C36913  -1.032   9.731   8.487  0.3680 -0.3755 -0.3654
 1015MOL0     O36914  -1.134   9.639   8.532  1.0305  0.5890  0.0971
 1015MOL0     C36915  -1.258   9.687   8.572  0.1539  0.0640  0.3882
 1015MOL0     C36916  -1.347   9.588   8.622  0.8657 -0.3870 -0.5688
 1015MOL0     C36917  -1.489   9.620   8.660 -0.2765 -0.2453  0.3439
 1015MOL0     C36918  -1.570   9.502   8.712  1.0583  0.4577 -0.0692
 1015MOL0     C36919  -1.536   9.756   8.652  0.2958  0.6965  0.0448
 1015MOL0     C36920  -1.675   9.790   8.677  0.0431  0.3213 -0.1288
 1015MOL0     O36921  -1.710   9.919   8.708 -0.4323  0.2579  0.3273
 1015MOL0     C36922  -1.833   9.970   8.726  0.2348  0.6261  0.0288
 1015MOL0     C36923  -1.904   9.936   8.846 -0.0815 -0.2253  0.0749
 1015MOL0     C36924  -2.033   9.984   8.868  0.0612  0.5144 -0.3207
 1015MOL0     C36925  -2.103  10.068   8.775 -0.1204 -0.0537  0.4665
 1015MOL0     O36926  -2.227  10.108   8.795  0.2061 -0.1978  0.2997
 1015MOL0     C36927  -2.284  10.207   8.704 -1.0471  1.5527  0.5183
 1015MOL0     C36928  -2.427  10.240   8.751  0.8250  0.7284  0.2957
 1015MOL0     C36929  -2.520  10.116   8.746 -0.5373  1.2321  0.5485
 1015MOL0     C36930  -2.661  10.152   8.785  0.4964 -0.4784 -0.2448
 1015MOL0     C36931  -2.755  10.035   8.780 -0.1283 -0.4675 -0.7991
 1015MOL0     C36932  -2.900  10.069   8.824 -0.4890 -0.2856 -0.4408
 1015MOL0     C36933  -2.967  10.171   8.733  0.2242 -0.5861 -0.8853
 1015MOL0     C36934  -3.104  10.223   8.784  1.7591 -0.3671 -0.6149
 1015MOL0    Cl36935  -3.210  10.073   8.773 -0.4082  0.3475 -0.0143
 1015MOL0     C36936  -2.031  10.112   8.660 -0.2898  0.0774 -0.3626
 1015MOL0     C36937  -1.897  10.066   8.639  1.3767  0.1706  0.1852
 1015MOL0     O36938  -1.763   9.701   8.661  0.1217  0.4823 -0.2406
 1015MOL0     C36939  -1.444   9.851   8.609 -0.5155  0.1764 -0.0642
 1015MOL0     C36940  -1.311   9.819   8.573 -0.7036 -0.3590 -0.3133
 1015MOL0     N36941  -0.573  10.020   8.818  0.4821  0.1604 -0.6427
 1015MOL0     N36942  -0.447  10.021   8.816 -0.1866 -0.1113  0.4968
 1015MOL0     C36943   0.873   9.978   8.472 -0.2489 -0.2881  0.1528
 1015MOL0     C36944   1.004   9.985   8.515 -0.9123 -0.2705 -1.0715
 1015MOL0     C36945   1.347   9.952   8.808  0.1647  0.2499 -0.2523
 1015MOL0     C36946   1.412   9.829   8.839 -0.1686  1.4387  0.1843
 1015MOL0     C36947   1.538   9.825   8.901  0.6456 -0.3340  0.2964
 1015MOL0     C36948   1.596   9.952   8.932 -0.9393  0.7760  0.0128
 1015MOL0     O36949   1.722   9.965   8.986 -0.7103 -0.2560 -0.2193
 1015MOL0     C36950   1.812   9.847   8.971  0.7886 -0.4562  0.4260
 1015MOL0     C36951   1.941   9.895   9.024 -0.3497 -0.6884  0.0335
 1015MOL0     C36952   2.006  10.013   8.945  0.3392 -0.4602  0.2367
 1015MOL0     C36953   2.154  10.011   8.959  0.7049  0.4480 -0.2904
 1015MOL0     C36954   2.188  10.034   9.098  0.8996  0.0836  0.1010
 1015MOL0     C36955   2.209  10.076   9.206 -0.1580 -0.9245 -0.3458
 1015MOL0     C36956   1.534  10.070   8.906 -0.0837  0.2102 -0.9459
 1015MOL0     C36957   1.404  10.076   8.854  0.0184  0.2824  0.2617
 1015MOL0     H36958   0.944  10.155   8.810 -1.5960  1.8614  0.1128
 1015MOL0     H36959   0.722  10.141   8.733 -0.5401  0.0901 -0.1473
 1015MOL0     H36960   0.515  10.049   8.654  1.0292  0.0233 -0.6233
 1015MOL0     H36961   0.515  10.175   8.534 -0.7660  0.6039  1.9569
 1015MOL0     H36962   0.385  10.019   8.391  1.8378 -1.9479 -1.0359
 1015MOL0     H36963   0.424   9.886   8.503  3.7958  1.3128 -0.5599
 1015MOL0     H36964   0.269   9.953   8.671 -1.1602 -1.2661 -0.2379
 1015MOL0     H36965   0.278  10.123   8.623 -4.3473 -0.1689  0.4987
 1015MOL0     H36966   0.166  10.091   8.422  1.1256 -0.7469 -0.5275
 1015MOL0     H36967   0.119   9.919   8.465 -0.9173 -0.5821  2.5032
 1015MOL0     H36968   0.020   9.981   8.653  0.0514  0.1664  1.0342
 1015MOL0     H36969   0.030  10.149   8.637 -0.7026 -1.9743  1.4599
 1015MOL0     H36970  -0.088  10.126   8.415  1.1234 -0.7879 -0.6868
 1015MOL0     H36971  -0.089   9.959   8.426 -0.5687  1.1378 -1.2685
 1015MOL0     H36972  -0.251  10.168   8.606 -1.1576  0.6131 -1.2153
 1015MOL0     H36973  -0.308  10.064   8.479  1.0644 -1.9763 -0.3271
 1015MOL0     H36974  -0.197   9.957   8.744  0.6434 -0.2690  0.6600
 1015MOL0     H36975  -0.245   9.864   8.601  2.2909  0.9341 -1.2057
 1015MOL0     H36976  -0.527   9.904   8.518  0.3296 -2.2133  0.8530
 1015MOL0     H36977  -0.825   9.989   8.757 -2.3274 -0.5773 -0.5325
 1015MOL0     H36978  -0.798  10.037   8.586  1.2570 -0.2081 -2.0582
 1015MOL0     H36979  -0.779   9.748   8.661 -0.4445 -2.6616 -2.2173
 1015MOL0     H36980  -0.785   9.811   8.502 -0.8838  1.4032 -0.0799
 1015MOL0     H36981  -1.023   9.920   8.583  1.8792  0.7644 -0.5542
 1015MOL0     H36982  -1.018   9.770   8.686 -0.0080  0.3974  0.1339
 1015MOL0     H36983  -0.954   9.674   8.435  0.9296  0.5261 -0.5253
 1015MOL0     H36984  -1.082   9.798   8.416  0.3648  0.1703  0.1497
 1015MOL0     H36985  -1.315   9.485   8.634 -1.0113 -1.0526 -0.9091
 1015MOL0     H36986  -1.623   9.528   8.804 -2.6479  1.1104 -2.1972
 1015MOL0     H36987  -1.639   9.461   8.638 -1.5739  0.2095  2.3216
 1015MOL0     H36988  -1.495   9.430   8.747  1.4985  1.8198  1.9245
 1015MOL0     H36989  -1.854   9.880   8.924 -1.7583 -0.2271  1.2160
 1015MOL0     H36990  -2.090   9.960   8.957  3.2470 -2.3667  1.1637
 1015MOL0     H36991  -2.223  10.296   8.716 -1.3736  2.0272 -1.1155
 1015MOL0     H36992  -2.277  10.170   8.601  0.9395 -1.9770  1.7505
 1015MOL0     H36993  -2.432  10.274   8.855  0.4075  0.0276  0.5119
 1015MOL0     H36994  -2.470  10.324   8.695  2.1664  0.9250 -0.4866
 1015MOL0     H36995  -2.475  10.044   8.815  0.7078  0.2982 -1.1571
 1015MOL0     H36996  -2.518  10.067   8.648  3.4518 -0.6269  1.3607
 1015MOL0     H36997  -2.658  10.211   8.877  2.6412 -0.4644 -0.2703
 1015MOL0     H36998  -2.691  10.230   8.715 -1.2642 -0.0790  0.8750
 1015MOL0     H36999  -2.714   9.958   8.845 -2.5617  0.4214  1.9935
 1015MOL0     H37000  -2.750   9.995   8.678  0.3547 -3.6058  0.3443
 1015MOL0     H37001  -2.954   9.975   8.836 -0.3508 -0.2178  0.8735
 1015MOL0     H37002  -2.882  10.112   8.923  0.9484 -1.5642 -0.1031
 1015MOL0     H37003  -2.987  10.117   8.640  0.8946 -2.6793  0.1057
 1015MOL0     H37004  -2.902  10.256   8.713 -0.8047  1.1318  2.3839
 1015MOL0     H37005  -3.144  10.297   8.714 -1.0119 -1.4149 -0.2564
 1015MOL0     H37006  -3.089  10.275   8.880  3.0206  0.9385 -1.4744
 1015MOL0     H37007  -2.071  10.181   8.586  1.0303 -0.6320 -1.7727
 1015MOL0     H37008  -1.850  10.112   8.552 -1.5507  0.2798 -1.4456
 1015MOL0     H37009  -1.478   9.954   8.598 -0.8352  0.0401 -0.3640
 1015MOL0     H37010  -1.253   9.906   8.544  0.7934 -0.5043  2.0243
 1015MOL0     H37011   0.845   9.946   8.372 -0.7815  3.3628 -1.0177
 1015MOL0     H37012   1.079   9.941   8.449  0.1311  1.7487 -1.3100
 1015MOL0     H37013   1.360   9.738   8.812 -0.5050  1.9963 -1.1756
 1015MOL0     H37014   1.596   9.733   8.903 -1.9925 -2.1899 -1.2864
 1015MOL0     H37015   1.776   9.767   9.036  1.3813  1.0697  2.7193
 1015MOL0     H37016   1.836   9.813   8.869 -3.2243 -0.6514 -0.5960
 1015MOL0     H37017   2.012   9.812   9.020 -1.3913 -1.5704 -0.7325
 1015MOL0     H37018   1.935   9.929   9.128  1.0968  0.8216 -0.3356
 1015MOL0     H37019   1.971  10.108   8.984  1.6092  0.3811 -0.6183
 1015MOL0     H37020   1.986  10.013   8.837  2.5578 -1.1209 -0.2096
 1015MOL0     H37021   2.199  10.090   8.898  1.0863  0.3340 -0.1650
 1015MOL0     H37022   2.204   9.924   8.916  0.0844  0.3640 -0.8400
 1015MOL0     H37023   2.222  10.138   9.292 -0.6775  0.3748 -1.1647
 1015MOL0     H37024   1.574  10.165   8.937  1.3901 -1.4561  2.8654
 1015MOL0     H37025   1.353  10.170   8.834  2.3110  1.1219 -2.1723
 1016MOL0     O37026  10.010  10.766   5.936  0.3542  0.0448 -0.1513
 1016MOL0     C37027  10.074  10.767   6.045 -0.3060 -0.1409  0.5843
 1016MOL0     O37028  10.022  10.776   6.168 -0.2498 -0.3302 -0.1395
 1016MOL0     C37029   9.908  10.842   6.185 -0.2661 -1.2591 -0.5333
 1016MOL0     C37030   9.861  10.958   6.123 -0.1350 -0.7885 -0.5502
 1016MOL0     C37031   9.732  11.005   6.151 -0.0994 -0.5386  0.2100
 1016MOL0     C37032   9.658  10.953   6.258  0.7705 -0.6623  0.6505
 1016MOL0     O37033   9.537  11.008   6.279  0.5555 -0.4956 -0.1284
 1016MOL0     C37034   9.460  10.958   6.390  0.5637 -0.1884  0.3999
 1016MOL0     C37035   9.327  11.030   6.391 -0.5796  0.2745 -0.0188
 1016MOL0     C37036   9.258  11.011   6.532  0.6294  0.2679 -0.2461
 1016MOL0     C37037   9.127  11.089   6.533  0.4308  0.0938 -0.2624
 1016MOL0     C37038   9.077  11.093   6.675 -0.3278 -0.4373  0.0544
 1016MOL0     C37039   8.943  11.176   6.667 -0.5577  0.0297  0.3692
 1016MOL0     C37040   8.837  11.118   6.770  0.0595 -0.7383  0.1721
 1016MOL0     C37041   8.738  11.032   6.702 -0.1619  0.5898 -1.1983
 1016MOL0     N37042   8.795  10.909   6.641 -0.0289  0.7250  0.4872
 1016MOL0     C37043   8.783  10.876   6.510 -0.0190 -0.3636 -0.4942
 1016MOL0     C37044   8.805  10.744   6.503 -0.2262 -0.5240  0.1868
 1016MOL0     C37045   8.803  10.643   6.389  0.3488  0.0968 -0.2361
 1016MOL0     C37046   8.917  10.685   6.294  0.3248  0.7714  0.2786
 1016MOL0     C37047   9.042  10.678   6.376 -0.5486 -0.3151 -0.0060
 1016MOL0     C37048   9.182  10.688   6.313  0.0182  0.6553 -0.1495
 1016MOL0     O37049   9.192  10.599   6.202 -0.0463 -0.3055  0.2295
 1016MOL0     C37050   9.207  10.466   6.226  0.6418  0.4023  0.5909
 1016MOL0     C37051   9.223  10.401   6.347 -0.3128  0.5776 -0.1520
 1016MOL0     C37052   9.279  10.264   6.356 -0.0274  0.6270  0.6560
 1016MOL0     C37053   9.313  10.213   6.499  0.2307  0.1237 -0.7658
 1016MOL0     C37054   9.301  10.190   6.238 -0.5421 -0.6669  0.4431
 1016MOL0     C37055   9.354  10.053   6.231  0.1388  0.1682  0.0284
 1016MOL0     O37056   9.412  10.026   6.112  0.2361  0.3830  0.3054
 1016MOL0     C37057   9.475   9.903   6.094 -0.1189 -0.5507  0.6213
 1016MOL0     C37058   9.557   9.836   6.188  0.3461  1.0061 -0.9421
 1016MOL0     C37059   9.637   9.730   6.145  0.2456 -0.1351 -0.2863
 1016MOL0     C37060   9.625   9.677   6.013 -0.2173 -0.3981 -0.5101
 1016MOL0     O37061   9.690   9.565   5.970  0.1145 -0.3552  0.8615
 1016MOL0     C37062   9.815   9.532   6.033 -0.3836 -0.1170  0.3349
 1016MOL0     C37063   9.884   9.414   5.956  0.7471 -1.1197 -0.1936
 1016MOL0     C37064  10.037   9.399   5.994 -0.1522  1.0992  0.4003
 1016MOL0     C37065  10.106   9.269   5.950  0.7807  0.4255  0.0282
 1016MOL0     C37066  10.248   9.249   6.012 -0.3327 -0.0648 -0.2573
 1016MOL0     C37067  10.278   9.101   6.031 -0.1790 -0.0751 -0.5207
 1016MOL0     C37068  10.408   9.080   6.108  0.4244  0.1942 -0.0720
 1016MOL0     C37069  10.463   8.937   6.114  0.5480 -0.6069 -0.7600
 1016MOL0    Cl37070  10.539   8.901   5.954 -0.1322 -0.3539  0.2404
 1016MOL0     C37071   9.533   9.729   5.936 -0.2916 -0.4363  0.3169
 1016MOL0     C37072   9.459   9.847   5.964 -0.4674  0.4412  0.1671
 1016MOL0     O37073   9.326   9.963   6.311 -0.2186 -0.1965 -1.2841
 1016MOL0     C37074   9.268  10.257   6.116  0.5862 -0.1275  0.2074
 1016MOL0     C37075   9.216  10.390   6.113 -0.4392  0.3774  0.0080
 1016MOL0     N37076   8.853  10.703   6.624  0.2892  0.6224  0.2498
 1016MOL0     N37077   8.844  10.801   6.705 -0.1875 -0.0701  0.7297
 1016MOL0     C37078   9.716  10.851   6.337  0.4417 -0.6660  0.1483
 1016MOL0     C37079   9.833  10.785   6.289  0.2073 -0.4216 -0.1672
 1016MOL0     C37080  10.225  10.758   6.041 -0.7106 -0.9638 -0.0658
 1016MOL0     C37081  10.297  10.747   6.160 -0.0177  0.6600 -0.0051
 1016MOL0     C37082  10.437  10.768   6.165 -0.5870 -1.0439  0.1672
 1016MOL0     C37083  10.502  10.773   6.039  0.4773 -0.2701  0.0120
 1016MOL0     O37084  10.637  10.778   6.043 -0.2816  0.7400  0.1159
 1016MOL0     C37085  10.710  10.788   5.918  0.0714 -0.5117 -0.5938
 1016MOL0     C37086  10.856  10.746   5.956 -0.1127  0.3168 -0.3708
 1016MOL0     C37087  10.948  10.852   6.018  0.8323 -0.5295 -0.8121
 1016MOL0     C37088  11.059  10.899   5.922 -1.0283 -0.6453 -1.1816
 1016MOL0     C37089  11.163  10.801   5.881  0.1385  0.2151 -1.0932
 1016MOL0     C37090  11.263  10.734   5.862 -0.3646  0.2011  0.7351
 1016MOL0     C37091  10.434  10.790   5.919  0.5604 -0.9384 -0.2143
 1016MOL0     C37092  10.293  10.785   5.922  0.3130  0.7510 -0.3343
 1016MOL0     H37093   9.920  10.999   6.041 -2.1833 -0.3058 -1.8307
 1016MOL0     H37094   9.697  11.078   6.079  2.2959 -0.1322 -0.6275
 1016MOL0     H37095   9.439  10.850   6.383  0.4054 -0.0429 -2.2855
 1016MOL0     H37096   9.510  10.978   6.485 -0.0604  2.4230  0.2406
 1016MOL0     H37097   9.365  11.132   6.377 -0.0824  0.3486  1.7238
 1016MOL0     H37098   9.260  11.000   6.310 -0.4237 -2.1199  0.6517
 1016MOL0     H37099   9.237  10.907   6.558 -1.9746  0.0754 -2.6188
 1016MOL0     H37100   9.323  11.058   6.607  0.7139  0.3043 -0.3417
 1016MOL0     H37101   9.140  11.189   6.491 -1.5402 -0.4190 -2.3426
 1016MOL0     H37102   9.051  11.041   6.470 -1.7379  1.3105  1.2761
 1016MOL0     H37103   9.056  10.990   6.706  1.8460 -1.6258 -2.1021
 1016MOL0     H37104   9.148  11.147   6.739  0.1865 -1.6768  0.5737
 1016MOL0     H37105   8.976  11.277   6.692 -0.0791  0.1443 -0.6812
 1016MOL0     H37106   8.895  11.170   6.569  0.0760 -2.2426  0.1459
 1016MOL0     H37107   8.888  11.060   6.848  1.3025 -1.1401 -0.9040
 1016MOL0     H37108   8.794  11.199   6.829 -0.0139 -1.3049  0.9103
 1016MOL0     H37109   8.687  11.090   6.624 -0.3421 -0.3558 -1.7943
 1016MOL0     H37110   8.676  10.989   6.782  2.0075 -1.5821 -0.5763
 1016MOL0     H37111   8.761  10.945   6.430  0.0195  1.1221  0.7357
 1016MOL0     H37112   8.819  10.540   6.424 -2.5407 -0.7252 -1.0088
 1016MOL0     H37113   8.703  10.642   6.344  0.3645 -0.7794 -0.2681
 1016MOL0     H37114   8.905  10.782   6.244  2.5882 -0.3926 -2.8264
 1016MOL0     H37115   8.931  10.607   6.220 -1.4051 -1.0555  1.7569
 1016MOL0     H37116   9.042  10.580   6.426  1.0011 -1.4048 -2.0020
 1016MOL0     H37117   9.051  10.760   6.448  2.3057 -1.1607  0.7519
 1016MOL0     H37118   9.255  10.661   6.390  0.4245 -0.8361 -1.0036
 1016MOL0     H37119   9.186  10.790   6.273  3.5038  0.7736  0.1944
 1016MOL0     H37120   9.224  10.457   6.440 -1.2475 -0.3629  0.4384
 1016MOL0     H37121   9.407  10.157   6.502  0.3579  0.2391  3.1916
 1016MOL0     H37122   9.323  10.298   6.567  3.0228 -0.4906 -0.2657
 1016MOL0     H37123   9.244  10.139   6.541  0.9295  0.4639  1.0583
 1016MOL0     H37124   9.563   9.865   6.292  1.2188 -1.0727 -0.3492
 1016MOL0     H37125   9.699   9.676   6.216  2.7254 -0.7463 -2.7210
 1016MOL0     H37126   9.889   9.612   6.036  0.1811 -0.6327  3.4405
 1016MOL0     H37127   9.797   9.500   6.136  0.1435 -2.3608 -0.2215
 1016MOL0     H37128   9.830   9.320   5.975 -0.3773 -0.0491  2.3970
 1016MOL0     H37129   9.872   9.420   5.847  0.9201  1.9334 -0.1087
 1016MOL0     H37130  10.054   9.414   6.102  0.2960  1.2227  0.3148
 1016MOL0     H37131  10.094   9.474   5.938  0.3960  0.7722  0.5110
 1016MOL0     H37132  10.045   9.181   5.973  0.2203  0.8121  0.0474
 1016MOL0     H37133  10.116   9.269   5.841  1.0071  0.2340  0.0494
 1016MOL0     H37134  10.255   9.303   6.106 -0.6280  0.9952 -0.8325
 1016MOL0     H37135  10.322   9.272   5.934  1.9136 -2.8278  0.8724
 1016MOL0     H37136  10.195   9.058   6.088 -0.2483  0.3563 -0.2926
 1016MOL0     H37137  10.290   9.057   5.932  3.2510  0.4870 -0.4661
 1016MOL0     H37138  10.389   9.120   6.208 -3.0425  3.0873 -1.6735
 1016MOL0     H37139  10.474   9.150   6.056 -0.5362  1.7798  0.7904
 1016MOL0     H37140  10.391   8.858   6.136 -1.0355  0.5765 -1.4712
 1016MOL0     H37141  10.538   8.929   6.193 -0.9181  0.0655  0.7664
 1016MOL0     H37142   9.537   9.697   5.832  1.6217  1.8563 -0.3945
 1016MOL0     H37143   9.386   9.897   5.901 -1.7460 -0.6061  0.7804
 1016MOL0     H37144   9.269  10.200   6.024 -1.3334 -0.3977  0.3135
 1016MOL0     H37145   9.172  10.438   6.025 -1.0591  1.2644  0.7766
 1016MOL0     H37146   9.677  10.804   6.426  0.7112  1.0155  1.2060
 1016MOL0     H37147   9.871  10.696   6.339 -0.0286  0.5738  1.8602
 1016MOL0     H37148  10.253  10.728   6.257  2.8657 -2.0207  0.9154
 1016MOL0     H37149  10.497  10.758   6.255 -1.2081  0.5004  0.7868
 1016MOL0     H37150  10.667  10.718   5.846  0.5864 -0.2732 -1.1413
 1016MOL0     H37151  10.698  10.891   5.883 -1.5825 -1.8776 -4.5739
 1016MOL0     H37152  10.915  10.705   5.873  1.6312  1.8550  0.0389
 1016MOL0     H37153  10.849  10.659   6.022 -0.2033 -0.4524 -1.3537
 1016MOL0     H37154  10.987  10.806   6.110 -0.1407  0.8843  0.3546
 1016MOL0     H37155  10.892  10.936   6.061  1.5396 -1.4268  2.0757
 1016MOL0     H37156  11.102  10.984   5.976 -1.1156 -1.8933  0.9479
 1016MOL0     H37157  11.026  10.932   5.823  0.5154  0.7856 -1.2629
 1016MOL0     H37158  11.345  10.667   5.850 -0.4100  0.0600  1.2145
 1016MOL0     H37159  10.484  10.793   5.822  0.9122 -1.1529 -0.0434
 1016MOL0     H37160  10.235  10.780   5.830 -2.4913 -2.7774  1.3919
 1017MOL0     O37161   0.888  10.832   8.203 -0.1347  0.5789 -0.2582
 1017MOL0     C37162   0.818  10.735   8.233 -0.2385  0.0894  0.1420
 1017MOL0     O37163   0.864  10.603   8.231 -0.0849  0.6402  0.0224
 1017MOL0     C37164   0.998  10.583   8.187  0.9594 -0.3033 -0.9029
 1017MOL0     C37165   1.035  10.534   8.058  0.8872 -0.5951  0.3738
 1017MOL0     C37166   1.172  10.527   8.034  0.9913  0.4506  0.2270
 1017MOL0     C37167   1.269  10.555   8.126 -0.4816  0.2297  0.0938
 1017MOL0     O37168   1.405  10.543   8.089  0.3687 -0.0103  0.6387
 1017MOL0     C37169   1.488  10.542   8.201 -0.1626 -0.4767  0.0711
 1017MOL0     C37170   1.633  10.517   8.161 -0.1506  0.9855  0.4592
 1017MOL0     C37171   1.650  10.375   8.103  0.6226 -0.1080 -0.2657
 1017MOL0     C37172   1.794  10.337   8.068 -0.4417 -0.1053 -0.2116
 1017MOL0     C37173   1.787  10.201   8.005 -0.0472  0.3898 -0.7488
 1017MOL0     C37174   1.909  10.173   7.928 -0.3649 -0.6112  0.4030
 1017MOL0     C37175   1.933  10.023   7.919  0.3630  0.1410 -0.8268
 1017MOL0     C37176   1.997   9.979   8.057  0.8319  0.1531 -0.2669
 1017MOL0     N37177   1.980   9.832   8.089 -0.0162 -0.1068 -0.5451
 1017MOL0     C37178   1.891   9.766   8.180 -0.3052 -0.1139 -0.7232
 1017MOL0     C37179   1.901   9.635   8.144 -0.3615  0.2003 -0.2513
 1017MOL0     C37180   1.824   9.520   8.180  0.5363  0.3112 -0.9258
 1017MOL0     C37181   1.686   9.524   8.119  0.3933 -0.3581  0.9423
 1017MOL0     C37182   1.608   9.379   8.126 -0.0262  0.0029  0.0656
 1017MOL0     C37183   1.578   9.336   8.277 -0.6499 -0.3298 -1.0003
 1017MOL0     O37184   1.538   9.200   8.276  0.4823 -0.1056 -0.1092
 1017MOL0     C37185   1.404   9.164   8.268  0.2570 -0.0683  0.3134
 1017MOL0     C37186   1.373   9.032   8.299  0.0271 -0.5611 -0.5173
 1017MOL0     C37187   1.240   8.981   8.281  0.7910  0.3621 -0.2256
 1017MOL0     C37188   1.210   8.846   8.341  1.1089  0.3010  0.1625
 1017MOL0     C37189   1.138   9.065   8.252 -0.0389  0.7134 -0.1735
 1017MOL0     C37190   1.000   9.027   8.253 -0.3125 -0.1368  0.2685
 1017MOL0     O37191   0.917   9.117   8.320 -0.7512  0.8328  0.3171
 1017MOL0     C37192   0.790   9.079   8.347  0.2401  0.1918 -1.3674
 1017MOL0     C37193   0.727   8.953   8.341  0.6081  1.1467  0.5248
 1017MOL0     C37194   0.594   8.942   8.379  0.0577  0.1889 -0.0925
 1017MOL0     C37195   0.524   9.054   8.416 -0.2624 -0.4089  0.3723
 1017MOL0     O37196   0.389   9.050   8.438 -0.7420 -0.4353  0.5437
 1017MOL0     C37197   0.314   8.932   8.418 -0.8636 -0.4995 -0.1694
 1017MOL0     C37198   0.167   8.959   8.458  0.2547 -0.0473 -0.3500
 1017MOL0     C37199   0.080   9.039   8.356 -0.0312 -0.0556 -0.1010
 1017MOL0     C37200  -0.052   9.095   8.410  0.2790 -1.0120  0.1666
 1017MOL0     C37201  -0.155   9.165   8.307 -0.2166  0.0105  0.2734
 1017MOL0     C37202  -0.288   9.083   8.292 -0.2555  0.5099 -0.8534
 1017MOL0     C37203  -0.275   8.929   8.255 -0.1980  0.5501 -0.2800
 1017MOL0     C37204  -0.419   8.880   8.216 -0.4046  0.0822  0.5116
 1017MOL0    Cl37205  -0.478   8.954   8.068  0.0871  0.2253 -0.1471
 1017MOL0     C37206   0.587   9.173   8.435 -0.1006 -0.2567  0.2911
 1017MOL0     C37207   0.719   9.181   8.418 -0.3712  0.0094  0.4554
 1017MOL0     O37208   0.967   8.921   8.198  0.6939  0.4601 -0.5164
 1017MOL0     C37209   1.170   9.201   8.219 -0.3385 -0.3915  0.2184
 1017MOL0     C37210   1.301   9.253   8.229  0.4810 -0.4017  0.5791
 1017MOL0     N37211   2.019   9.615   8.066  0.1794 -0.6941 -0.0895
 1017MOL0     N37212   2.062   9.742   8.045  0.1793  1.5601  0.0528
 1017MOL0     C37213   1.223  10.607   8.256 -0.1013  0.0705 -0.5636
 1017MOL0     C37214   1.089  10.617   8.292  0.2961 -0.4477  0.4216
 1017MOL0     C37215   0.674  10.764   8.241  0.5545 -0.2782  0.6190
 1017MOL0     C37216   0.640  10.897   8.267  0.1328 -0.1272  0.6583
 1017MOL0     C37217   0.514  10.941   8.269 -0.1027 -0.2037  0.4138
 1017MOL0     C37218   0.414  10.845   8.255 -0.6870  0.0078 -0.3958
 1017MOL0     O37219   0.292  10.900   8.283 -0.3398 -0.0822  0.8172
 1017MOL0     C37220   0.174  10.820   8.287  0.0193 -0.0486  0.1562
 1017MOL0     C37221   0.050  10.900   8.328 -0.5695  0.1488  0.6375
 1017MOL0     C37222  -0.082  10.827   8.297 -0.2538  0.1587 -0.7541
 1017MOL0     C37223  -0.212  10.894   8.345  0.2568  0.3356  0.9281
 1017MOL0     C37224  -0.215  10.886   8.489  0.3808 -0.4652 -1.1303
 1017MOL0     C37225  -0.212  10.868   8.612 -0.9059 -0.0507  0.2958
 1017MOL0     C37226   0.441  10.707   8.259 -0.0848 -0.9588 -0.1781
 1017MOL0     C37227   0.574  10.665   8.238 -0.2305  0.6994  0.3002
 1017MOL0     H37228   0.955  10.511   7.988  2.0948 -1.7974 -0.6732
 1017MOL0     H37229   1.202  10.493   7.936  0.0748  0.7891 -0.1843
 1017MOL0     H37230   1.479  10.639   8.250 -0.8607  1.5339 -3.6380
 1017MOL0     H37231   1.462  10.467   8.276  0.8478 -3.3422 -2.2340
 1017MOL0     H37232   1.669  10.584   8.082 -0.9996  0.6212 -0.2535
 1017MOL0     H37233   1.689  10.522   8.254  0.4267  4.1252  0.0537
 1017MOL0     H37234   1.617  10.307   8.182  2.9376 -1.5700 -0.4605
 1017MOL0     H37235   1.577  10.364   8.022 -2.0089  1.3027  1.7356
 1017MOL0     H37236   1.843  10.409   8.002  0.0854  0.1757  0.4673
 1017MOL0     H37237   1.853  10.335   8.161  0.8280 -3.0240 -0.9700
 1017MOL0     H37238   1.790  10.135   8.091  0.4588  0.9732 -0.3105
 1017MOL0     H37239   1.701  10.196   7.937  0.8842 -0.3802 -1.8899
 1017MOL0     H37240   1.912  10.218   7.828 -1.4172  1.1321  1.1052
 1017MOL0     H37241   1.994  10.218   7.981 -0.3483 -1.0866  0.7825
 1017MOL0     H37242   1.839   9.975   7.893  0.9400  0.1609 -3.2181
 1017MOL0     H37243   2.007   9.992   7.845  0.3498 -3.3212  0.4196
 1017MOL0     H37244   1.950  10.033   8.140  2.1047 -0.6555  1.0219
 1017MOL0     H37245   2.105   9.989   8.061  1.1586 -2.4975 -0.6661
 1017MOL0     H37246   1.817   9.802   8.251 -1.0639 -1.6197 -0.7212
 1017MOL0     H37247   1.878   9.431   8.146 -0.4652  0.4512 -3.0235
 1017MOL0     H37248   1.812   9.512   8.289 -0.0035 -2.3171 -1.1304
 1017MOL0     H37249   1.683   9.556   8.015  2.2218 -0.6388  0.7671
 1017MOL0     H37250   1.626   9.603   8.165  0.4963  0.8453 -0.9065
 1017MOL0     H37251   1.664   9.296   8.081  0.6081 -0.1213  1.0516
 1017MOL0     H37252   1.513   9.383   8.072 -0.3938  2.2224  0.7925
 1017MOL0     H37253   1.507   9.399   8.332 -0.1442 -1.0158  0.5020
 1017MOL0     H37254   1.666   9.346   8.342 -0.0744  2.0637 -2.0274
 1017MOL0     H37255   1.450   8.966   8.336  0.6074  0.3584 -0.0566
 1017MOL0     H37256   1.162   8.860   8.439  1.7725 -0.2855  0.5814
 1017MOL0     H37257   1.133   8.794   8.285 -0.4081  0.9154  1.5980
 1017MOL0     H37258   1.297   8.781   8.336  1.5235  0.5960  2.3336
 1017MOL0     H37259   0.771   8.858   8.311 -2.1261 -0.0550  0.0006
 1017MOL0     H37260   0.526   8.860   8.360  0.5862 -0.0547 -1.0114
 1017MOL0     H37261   0.309   8.905   8.312 -0.1820 -0.0565 -0.3271
 1017MOL0     H37262   0.350   8.848   8.479  1.5393  0.8155  0.3481
 1017MOL0     H37263   0.118   8.862   8.457 -0.2224  0.1789  0.2885
 1017MOL0     H37264   0.158   9.007   8.556  0.9058 -1.1346  0.2654
 1017MOL0     H37265   0.053   8.983   8.266  0.3660  1.6476 -1.3333
 1017MOL0     H37266   0.144   9.124   8.331 -1.0630  0.2283 -1.9953
 1017MOL0     H37267  -0.104   9.017   8.466  1.7450  0.4069  3.8010
 1017MOL0     H37268  -0.023   9.171   8.483 -1.3068 -0.5307  0.3499
 1017MOL0     H37269  -0.126   9.159   8.202 -1.8401 -5.6958 -0.1436
 1017MOL0     H37270  -0.189   9.264   8.339  1.0624  0.1607  1.2562
 1017MOL0     H37271  -0.348   9.096   8.383  0.6706  1.0735 -0.3119
 1017MOL0     H37272  -0.350   9.127   8.214 -2.5727  1.1750  1.2415
 1017MOL0     H37273  -0.239   8.869   8.338 -2.6623 -0.5686  0.0760
 1017MOL0     H37274  -0.202   8.921   8.174  1.0589  3.2516  0.4836
 1017MOL0     H37275  -0.488   8.907   8.297 -2.0196  1.1545 -1.1348
 1017MOL0     H37276  -0.411   8.773   8.197 -0.1664  0.1382  0.2884
 1017MOL0     H37277   0.528   9.255   8.475 -0.2530  0.2467 -0.9434
 1017MOL0     H37278   0.761   9.279   8.440 -1.7619  0.1926  2.6143
 1017MOL0     H37279   1.087   9.264   8.191 -0.8331 -2.6245 -4.4028
 1017MOL0     H37280   1.306   9.360   8.217 -2.7318 -0.0189  1.8372
 1017MOL0     H37281   1.298  10.645   8.324 -0.8519  1.3310 -0.4142
 1017MOL0     H37282   1.058  10.654   8.390  1.3275  0.6244  0.3630
 1017MOL0     H37283   0.717  10.973   8.276  0.1064 -0.3354  4.6144
 1017MOL0     H37284   0.490  11.046   8.287 -2.6055 -1.0258  2.5278
 1017MOL0     H37285   0.157  10.775   8.188 -0.2602  2.2199 -0.8969
 1017MOL0     H37286   0.191  10.736   8.356  0.6618  1.0315  1.3551
 1017MOL0     H37287   0.051  10.996   8.274  1.1815  0.8631  1.8368
 1017MOL0     H37288   0.047  10.925   8.435  1.2846  0.7042  0.6002
 1017MOL0     H37289  -0.067  10.729   8.343 -0.2476  0.9536  0.9882
 1017MOL0     H37290  -0.088  10.819   8.188  1.1424 -3.1897 -0.7077
 1017MOL0     H37291  -0.302  10.850   8.303 -0.6461 -0.0468  3.1001
 1017MOL0     H37292  -0.212  10.999   8.312  0.6833 -0.5244 -2.0934
 1017MOL0     H37293  -0.217  10.859   8.719  1.0728 -4.2357  0.2300
 1017MOL0     H37294   0.359  10.636   8.250  1.1834 -2.2182 -3.2965
 1017MOL0     H37295   0.600  10.563   8.210 -1.5252  0.3262  0.3740
 1018MOL0     O37296  10.010   1.773   5.430 -0.2755 -0.4507  0.1884
 1018MOL0     C37297  10.006   1.893   5.459 -0.6203  0.6696 -0.2589
 1018MOL0     O37298   9.898   1.955   5.504 -0.4834 -0.7251  0.6666
 1018MOL0     C37299   9.775   1.901   5.522  0.3043 -0.3407  0.6317
 1018MOL0     C37300   9.702   1.816   5.434 -0.3393  0.7311 -0.0162
 1018MOL0     C37301   9.581   1.744   5.464  0.3345  0.2873 -0.3391
 1018MOL0     C37302   9.527   1.761   5.598 -0.4866 -0.4529  0.1435
 1018MOL0     O37303   9.409   1.699   5.632 -0.3006 -0.1585 -0.0959
 1018MOL0     C37304   9.302   1.700   5.531  0.1198 -0.0609  0.5285
 1018MOL0     C37305   9.163   1.701   5.585  0.2740  0.1435 -0.0087
 1018MOL0     C37306   9.054   1.719   5.483 -0.3493  0.3644 -0.3084
 1018MOL0     C37307   8.911   1.684   5.526 -0.8736 -0.3857 -0.3503
 1018MOL0     C37308   8.811   1.754   5.429  0.5982  0.3072 -0.4266
 1018MOL0     C37309   8.669   1.702   5.445 -0.4288 -0.2503 -0.4038
 1018MOL0     C37310   8.554   1.789   5.378  0.4117 -0.0016  0.4137
 1018MOL0     C37311   8.552   1.789   5.218 -0.6217  0.1253 -0.0284
 1018MOL0     N37312   8.424   1.816   5.157  0.5596 -0.1007 -0.1306
 1018MOL0     C37313   8.383   1.779   5.030 -0.0319 -0.5193 -0.2553
 1018MOL0     C37314   8.256   1.811   5.024 -0.1318 -1.0493 -0.4526
 1018MOL0     C37315   8.164   1.785   4.909 -0.1860 -0.1750 -0.1614
 1018MOL0     C37316   8.018   1.744   4.956  0.4388  0.8648  0.2431
 1018MOL0     C37317   7.916   1.862   4.962  0.3031  0.3025  0.2978
 1018MOL0     C37318   7.866   1.906   4.825 -0.4632 -0.3560 -0.1048
 1018MOL0     O37319   7.774   1.806   4.766 -1.0757 -0.3034  0.4836
 1018MOL0     C37320   7.643   1.819   4.794  0.4330 -0.8330  0.0256
 1018MOL0     C37321   7.555   1.763   4.701  0.0979  1.0611 -0.5017
 1018MOL0     C37322   7.418   1.773   4.709  0.3376 -0.2472  1.1140
 1018MOL0     C37323   7.341   1.716   4.588  0.1476  0.1237 -0.3671
 1018MOL0     C37324   7.358   1.838   4.825 -0.1372 -0.6398 -0.0645
 1018MOL0     C37325   7.213   1.848   4.846 -0.5593  0.0073 -0.7416
 1018MOL0     O37326   7.179   1.886   4.974 -0.1787  0.0420 -0.6632
 1018MOL0     C37327   7.051   1.921   5.001  0.0612 -0.3501  0.5753
 1018MOL0     C37328   6.981   1.854   5.102  0.0578 -0.1469  0.3331
 1018MOL0     C37329   6.853   1.894   5.136 -0.0812 -0.1620  0.3497
 1018MOL0     C37330   6.786   1.995   5.062  0.9368 -0.3438  0.1169
 1018MOL0     O37331   6.651   2.036   5.080  0.0728  0.9963 -0.1462
 1018MOL0     C37332   6.559   1.939   5.119  0.1211 -0.1483 -0.0764
 1018MOL0     C37333   6.541   1.825   5.010 -0.2803 -0.0798  0.4443
 1018MOL0     C37334   6.464   1.687   5.053  0.3981  0.6565 -0.3621
 1018MOL0     C37335   6.307   1.708   5.074  0.7371  0.7207 -0.4096
 1018MOL0     C37336   6.250   1.571   5.115 -0.6614 -0.3467  1.2025
 1018MOL0     C37337   6.107   1.600   5.164 -0.2612 -0.5694 -0.0820
 1018MOL0     C37338   6.060   1.489   5.247 -0.2747 -0.3127 -0.1019
 1018MOL0     C37339   5.942   1.521   5.342 -1.0793 -0.7865 -0.0312
 1018MOL0    Cl37340   5.800   1.575   5.250 -0.0742  0.2357  0.0078
 1018MOL0     C37341   6.855   2.058   4.955 -0.3104  0.4915 -0.0334
 1018MOL0     C37342   6.988   2.022   4.926  0.0572 -0.5890 -0.3827
 1018MOL0     O37343   7.135   1.837   4.751 -0.7255  0.1709 -0.1435
 1018MOL0     C37344   7.454   1.904   4.912 -0.5332  0.7219 -0.3516
 1018MOL0     C37345   7.592   1.893   4.895  0.3593 -0.0236  0.4305
 1018MOL0     N37346   8.212   1.881   5.137 -0.3839 -0.2292  0.2705
 1018MOL0     N37347   8.321   1.889   5.215 -0.2534  0.4449 -0.0864
 1018MOL0     C37348   9.600   1.847   5.683  0.0025  0.8945 -0.2540
 1018MOL0     C37349   9.710   1.920   5.644  0.2931 -0.3511  0.3461
 1018MOL0     C37350  10.130   1.968   5.458  0.7030 -0.4789  0.0015
 1018MOL0     C37351  10.236   1.927   5.367 -0.9332 -0.6583  0.0945
 1018MOL0     C37352  10.357   1.993   5.366 -0.6171 -0.1016 -0.3362
 1018MOL0     C37353  10.387   2.094   5.460  0.0742  0.3282 -0.9277
 1018MOL0     O37354  10.512   2.157   5.454  0.2502  0.5875 -0.1219
 1018MOL0     C37355  10.557   2.247   5.554  0.5191  0.2432 -0.1612
 1018MOL0     C37356  10.677   2.334   5.518 -0.5336  0.1238  0.5337
 1018MOL0     C37357  10.661   2.452   5.419 -0.4318  0.1075 -0.8359
 1018MOL0     C37358  10.791   2.538   5.398  0.1858 -0.8144  0.4092
 1018MOL0     C37359  10.894   2.454   5.338 -0.3603  0.1477 -0.1663
 1018MOL0     C37360  10.989   2.393   5.297 -0.1297  0.0879  0.1561
 1018MOL0     C37361  10.295   2.127   5.560  0.3016 -0.2059  0.3931
 1018MOL0     C37362  10.160   2.065   5.557 -0.1682 -0.2134 -0.4774
 1018MOL0     H37363   9.746   1.781   5.341 -0.3261  0.5677  0.0502
 1018MOL0     H37364   9.528   1.687   5.389  0.5236  1.4136 -1.3572
 1018MOL0     H37365   9.302   1.792   5.472 -0.0717 -0.8192 -0.6941
 1018MOL0     H37366   9.305   1.611   5.466  1.4747  0.4217 -0.1024
 1018MOL0     H37367   9.156   1.603   5.634  1.2520 -0.2710 -0.6812
 1018MOL0     H37368   9.149   1.773   5.666 -1.3417 -0.1418 -0.0020
 1018MOL0     H37369   9.071   1.825   5.462  0.2723  0.9237  2.5765
 1018MOL0     H37370   9.080   1.667   5.390  0.3636 -1.7551  0.9971
 1018MOL0     H37371   8.913   1.575   5.518  1.6697 -0.3718 -0.4937
 1018MOL0     H37372   8.891   1.722   5.627 -1.6063 -0.8738 -0.3004
 1018MOL0     H37373   8.806   1.862   5.445  0.0246  0.1539  0.5146
 1018MOL0     H37374   8.842   1.730   5.327  2.3844  0.3491  0.0682
 1018MOL0     H37375   8.658   1.602   5.402  0.3314  0.1799 -1.6371
 1018MOL0     H37376   8.653   1.695   5.553  1.5173  1.1070  0.0301
 1018MOL0     H37377   8.458   1.754   5.417  1.0276  1.2330  3.3637
 1018MOL0     H37378   8.570   1.894   5.406  1.7877  0.5118 -2.0619
 1018MOL0     H37379   8.599   1.701   5.173 -0.2947  0.0922  0.3624
 1018MOL0     H37380   8.626   1.864   5.189 -0.5798 -0.6163 -1.9425
 1018MOL0     H37381   8.433   1.727   4.949  0.8236  1.6616 -1.2189
 1018MOL0     H37382   8.180   1.873   4.846 -0.6494 -0.2724 -0.4180
 1018MOL0     H37383   8.210   1.714   4.840 -1.8209  0.8274 -2.4316
 1018MOL0     H37384   8.022   1.703   5.057 -2.3515 -0.5250 -0.1145
 1018MOL0     H37385   7.988   1.663   4.889  0.9550 -0.7249  1.8628
 1018MOL0     H37386   7.958   1.943   5.023 -1.4868  0.0725  1.9310
 1018MOL0     H37387   7.834   1.824   5.024 -0.0166 -1.1550 -0.9535
 1018MOL0     H37388   7.944   1.901   4.749  1.5135 -0.6717  1.8281
 1018MOL0     H37389   7.808   1.998   4.838 -2.1065 -1.5481  1.5426
 1018MOL0     H37390   7.586   1.700   4.618  0.5776  0.7527 -0.0924
 1018MOL0     H37391   7.357   1.784   4.503 -0.8374 -0.5724 -1.1239
 1018MOL0     H37392   7.384   1.618   4.564  2.3490  0.5559  1.4152
 1018MOL0     H37393   7.233   1.708   4.595  0.0839 -1.6951 -2.4325
 1018MOL0     H37394   7.013   1.761   5.148  0.5170 -0.3648 -0.4101
 1018MOL0     H37395   6.791   1.841   5.207 -2.7600  3.0581  0.6966
 1018MOL0     H37396   6.587   1.884   5.209 -1.7231 -4.0252 -1.6180
 1018MOL0     H37397   6.458   1.980   5.134  0.7559  1.0977  1.0081
 1018MOL0     H37398   6.489   1.856   4.918 -0.0680 -0.3177  0.2442
 1018MOL0     H37399   6.642   1.796   4.980 -0.6486 -1.9563  0.9228
 1018MOL0     H37400   6.507   1.646   5.145 -0.7577 -1.4039 -0.6644
 1018MOL0     H37401   6.481   1.613   4.973 -0.1807  2.2700 -2.0396
 1018MOL0     H37402   6.304   1.781   5.156  3.6797  0.6355 -0.0981
 1018MOL0     H37403   6.274   1.752   4.980  2.1317 -0.8749 -1.7032
 1018MOL0     H37404   6.321   1.525   5.185  0.2634 -1.1026 -0.1975
 1018MOL0     H37405   6.244   1.515   5.022 -0.3406  0.5099  0.6560
 1018MOL0     H37406   6.106   1.687   5.231  0.0072 -0.9225  0.3827
 1018MOL0     H37407   6.032   1.607   5.084 -1.5949 -3.8039  0.7430
 1018MOL0     H37408   6.147   1.460   5.306  0.8509  4.1986  0.8490
 1018MOL0     H37409   6.029   1.402   5.189 -2.4328  0.5992 -0.4333
 1018MOL0     H37410   5.972   1.603   5.407 -2.0300  0.6651 -1.3368
 1018MOL0     H37411   5.912   1.439   5.408  0.7052 -0.7766  0.8418
 1018MOL0     H37412   6.808   2.140   4.902 -0.8365  2.3020  3.0358
 1018MOL0     H37413   7.039   2.079   4.849 -0.4919  0.4142 -0.0220
 1018MOL0     H37414   7.415   1.956   4.999  2.4860 -0.6849  2.0378
 1018MOL0     H37415   7.665   1.935   4.964  2.4506 -1.4939 -0.7664
 1018MOL0     H37416   9.578   1.870   5.787  0.6115  1.8206 -0.3214
 1018MOL0     H37417   9.748   1.989   5.719 -0.8631 -0.7722  1.3468
 1018MOL0     H37418  10.228   1.848   5.292 -1.5031  2.9058 -3.9640
 1018MOL0     H37419  10.427   1.975   5.284  2.1682  1.1802  1.5950
 1018MOL0     H37420  10.478   2.314   5.589  0.8697  0.3625  0.4218
 1018MOL0     H37421  10.586   2.183   5.638  0.3198 -0.7066 -0.7940
 1018MOL0     H37422  10.749   2.269   5.468  0.4719  2.5685 -1.3860
 1018MOL0     H37423  10.721   2.380   5.607 -0.9063  0.9287  0.3183
 1018MOL0     H37424  10.579   2.511   5.460 -0.4182 -1.6359  2.0665
 1018MOL0     H37425  10.632   2.401   5.327  1.6826 -1.8870 -0.5073
 1018MOL0     H37426  10.814   2.578   5.498 -1.1880  0.3833  0.2750
 1018MOL0     H37427  10.772   2.620   5.329  3.5881 -1.2015 -1.1711
 1018MOL0     H37428  11.081   2.351   5.263 -0.1623 -1.0074  1.3488
 1018MOL0     H37429  10.321   2.199   5.637  4.3184  0.0851 -1.0116
 1018MOL0     H37430  10.083   2.105   5.623 -2.1134  0.0486 -2.8011
 1019MOL0     O37431   1.926   3.827   7.358  0.3313 -0.8224 -0.2580
 1019MOL0     C37432   2.000   3.861   7.259  0.6353  1.3438  0.0625
 1019MOL0     O37433   1.949   3.899   7.147 -0.2478  0.2450  0.3551
 1019MOL0     C37434   1.825   3.868   7.108  0.1333 -0.2505  0.0822
 1019MOL0     C37435   1.801   3.758   7.029  0.0899  0.4739 -0.7319
 1019MOL0     C37436   1.671   3.734   6.985  0.4267  0.8276 -0.7484
 1019MOL0     C37437   1.568   3.814   7.034  1.0832 -0.4856  0.9190
 1019MOL0     O37438   1.447   3.808   6.977 -0.0606 -1.1497 -0.3399
 1019MOL0     C37439   1.403   3.676   6.943 -0.0375  0.2023 -0.3038
 1019MOL0     C37440   1.250   3.671   6.933 -0.9554 -0.1126  0.3230
 1019MOL0     C37441   1.186   3.675   7.069  0.4912  0.1170  0.0709
 1019MOL0     C37442   1.034   3.705   7.073  0.1837 -0.2115 -0.4341
 1019MOL0     C37443   0.987   3.780   7.199  0.6724  0.1357  0.2648
 1019MOL0     C37444   0.988   3.691   7.322  0.5860  0.8979  0.6124
 1019MOL0     C37445   0.923   3.755   7.437 -0.0173 -0.1144 -0.2057
 1019MOL0     C37446   0.966   3.906   7.454 -0.6430  0.4066  0.6020
 1019MOL0     N37447   0.892   3.964   7.565 -1.1561 -0.0524 -0.3062
 1019MOL0     C37448   0.934   3.984   7.693 -0.2050 -0.2260  0.6263
 1019MOL0     C37449   0.829   4.041   7.756  0.3266  0.6085 -0.6728
 1019MOL0     C37450   0.827   4.095   7.902  0.9176 -0.1687  0.0061
 1019MOL0     C37451   0.932   4.030   7.993  0.8114  0.8507  0.3897
 1019MOL0     C37452   0.908   4.050   8.146 -0.2376 -1.1102  0.3430
 1019MOL0     C37453   0.774   3.999   8.196 -0.7328  0.2150  0.3901
 1019MOL0     O37454   0.775   3.859   8.185  0.0442 -0.2746  0.8306
 1019MOL0     C37455   0.663   3.784   8.189 -1.0376  0.0154  0.1162
 1019MOL0     C37456   0.681   3.665   8.125 -0.8393  0.0758  0.2974
 1019MOL0     C37457   0.569   3.579   8.111  0.9379  1.2081 -0.4603
 1019MOL0     C37458   0.601   3.459   8.021  0.2616 -0.3279 -0.5193
 1019MOL0     C37459   0.440   3.617   8.167 -0.2647 -1.4046 -0.0927
 1019MOL0     C37460   0.323   3.532   8.163  0.7837  0.0282 -0.1166
 1019MOL0     O37461   0.349   3.398   8.192 -0.0194 -0.1452 -0.4335
 1019MOL0     C37462   0.248   3.307   8.207  0.8363 -0.0479  0.3257
 1019MOL0     C37463   0.203   3.262   8.086 -0.1707  0.2398 -0.6680
 1019MOL0     C37464   0.106   3.163   8.075  0.2967 -0.2501  1.0153
 1019MOL0     C37465   0.056   3.110   8.196 -0.2527 -0.1995 -1.0396
 1019MOL0     O37466  -0.053   3.023   8.201 -0.8304  0.1433 -0.2025
 1019MOL0     C37467  -0.080   2.956   8.080 -0.4976 -0.3869  0.2602
 1019MOL0     C37468  -0.183   2.849   8.105 -0.0491  1.5238 -0.3113
 1019MOL0     C37469  -0.311   2.897   8.169  0.2127  0.8267 -0.7239
 1019MOL0     C37470  -0.307   2.904   8.322 -0.5606 -0.1653 -0.3905
 1019MOL0     C37471  -0.436   2.976   8.369  0.2905 -0.4605 -0.0410
 1019MOL0     C37472  -0.431   2.996   8.522  0.1432  0.4267 -0.6943
 1019MOL0     C37473  -0.559   3.061   8.573 -0.3216 -0.2301 -0.4334
 1019MOL0     C37474  -0.681   2.983   8.553  0.2468 -1.2381  0.0803
 1019MOL0    Cl37475  -0.810   3.057   8.656  0.3443  0.3817 -0.0416
 1019MOL0     C37476   0.106   3.151   8.319  0.1476  0.0666 -0.0029
 1019MOL0     C37477   0.200   3.255   8.330 -0.2499 -0.1676  0.3983
 1019MOL0     O37478   0.211   3.577   8.157  0.4064  0.0010  0.1842
 1019MOL0     C37479   0.431   3.741   8.232 -0.5052  0.4912  0.1808
 1019MOL0     C37480   0.541   3.827   8.243  0.7336  0.1011  0.3694
 1019MOL0     N37481   0.729   4.058   7.670  1.3935 -1.0227  0.4193
 1019MOL0     N37482   0.767   4.013   7.553 -0.2186 -0.1306  0.6269
 1019MOL0     C37483   1.587   3.921   7.112  0.1596  0.5962 -0.0835
 1019MOL0     C37484   1.719   3.945   7.156  0.5709  0.1814 -0.2131
 1019MOL0     C37485   2.147   3.864   7.272 -0.8012  0.4638  0.3793
 1019MOL0     C37486   2.211   3.838   7.393  0.0641 -0.4850  0.3485
 1019MOL0     C37487   2.345   3.849   7.423  0.5737  0.0553  0.4466
 1019MOL0     C37488   2.427   3.891   7.320 -0.3350 -0.1321  0.0596
 1019MOL0     O37489   2.562   3.899   7.330  0.5711  0.4326  0.5652
 1019MOL0     C37490   2.628   3.796   7.404 -0.0036 -0.0871 -0.1482
 1019MOL0     C37491   2.763   3.775   7.324 -0.2222 -0.8138  0.1822
 1019MOL0     C37492   2.833   3.650   7.363 -0.0912 -0.6229 -0.0168
 1019MOL0     C37493   2.955   3.606   7.279 -0.2044 -0.1401 -0.3590
 1019MOL0     C37494   3.080   3.673   7.319  0.0878  0.4910 -0.3954
 1019MOL0     C37495   3.182   3.716   7.341 -1.1729 -0.5908  0.7957
 1019MOL0     C37496   2.368   3.924   7.198 -0.3347  0.5446  0.2148
 1019MOL0     C37497   2.237   3.902   7.165  0.7964  0.7541 -0.5079
 1019MOL0     H37498   1.882   3.691   7.002 -0.2612 -0.5736  0.6787
 1019MOL0     H37499   1.639   3.654   6.918 -3.2364 -0.7588  2.5730
 1019MOL0     H37500   1.437   3.652   6.841 -1.0137 -2.2946 -0.1096
 1019MOL0     H37501   1.440   3.591   7.001 -1.0862 -0.1044 -0.0745
 1019MOL0     H37502   1.211   3.757   6.879  0.1698  1.0023  1.2194
 1019MOL0     H37503   1.220   3.573   6.895 -0.9668 -0.4672  1.2231
 1019MOL0     H37504   1.203   3.588   7.132 -0.9005  0.1053  0.4662
 1019MOL0     H37505   1.235   3.755   7.125 -1.3056  1.4685 -0.2150
 1019MOL0     H37506   1.005   3.767   6.987  0.4766  1.2894  0.5081
 1019MOL0     H37507   0.983   3.609   7.080  4.7797 -2.7984  1.5216
 1019MOL0     H37508   1.053   3.867   7.206 -1.5097  1.7962  1.7935
 1019MOL0     H37509   0.891   3.826   7.170  1.0433  0.1214 -1.0595
 1019MOL0     H37510   0.941   3.594   7.302  2.1930 -0.3081  2.2797
 1019MOL0     H37511   1.091   3.675   7.354  0.0821  2.3277  3.2910
 1019MOL0     H37512   0.816   3.744   7.423  0.2526 -1.3668 -1.4589
 1019MOL0     H37513   0.938   3.702   7.532 -4.1234 -1.6502 -0.2133
 1019MOL0     H37514   0.935   3.960   7.364 -0.7032  1.1705  1.0762
 1019MOL0     H37515   1.073   3.893   7.469  0.0342  0.6991 -3.0643
 1019MOL0     H37516   1.037   3.974   7.728  0.6523 -2.1804 -2.0662
 1019MOL0     H37517   0.850   4.202   7.907  1.9783 -0.3674 -0.4338
 1019MOL0     H37518   0.727   4.076   7.943  1.2267 -0.4113  0.6689
 1019MOL0     H37519   1.031   4.073   7.977  1.3388  0.9466  3.2850
 1019MOL0     H37520   0.932   3.922   7.973 -1.8029  0.6368  1.1267
 1019MOL0     H37521   0.915   4.159   8.152  1.9312 -0.9971 -2.3744
 1019MOL0     H37522   0.988   4.013   8.211 -0.5326  0.4028  1.6224
 1019MOL0     H37523   0.689   4.044   8.143  1.1732  0.7424 -2.4579
 1019MOL0     H37524   0.772   4.036   8.299 -0.2693 -2.8507  1.6118
 1019MOL0     H37525   0.774   3.640   8.076 -2.1023 -1.3817 -1.5284
 1019MOL0     H37526   0.693   3.410   8.054  1.8622  2.0598 -1.1778
 1019MOL0     H37527   0.517   3.389   8.016  0.8646 -1.0426 -0.8119
 1019MOL0     H37528   0.623   3.507   7.925 -0.1816  2.6580  0.7459
 1019MOL0     H37529   0.252   3.304   7.999 -0.1697  0.2864 -0.6448
 1019MOL0     H37530   0.080   3.141   7.972 -1.3408  2.2306  0.8248
 1019MOL0     H37531  -0.117   3.034   8.013  0.8699  1.4280  1.5120
 1019MOL0     H37532   0.010   2.920   8.029 -0.2183  2.4689 -1.4804
 1019MOL0     H37533  -0.214   2.802   8.011 -3.0880  2.7756 -0.0311
 1019MOL0     H37534  -0.133   2.770   8.163  0.8752  2.5168  0.3010
 1019MOL0     H37535  -0.385   2.820   8.145  1.9246 -1.2592  0.3671
 1019MOL0     H37536  -0.349   2.990   8.124 -3.2657 -0.7393 -1.3890
 1019MOL0     H37537  -0.303   2.808   8.373 -2.3471  0.2261  0.5673
 1019MOL0     H37538  -0.224   2.970   8.351 -1.5782  0.3309  1.6345
 1019MOL0     H37539  -0.522   2.916   8.336  0.7412 -1.1436 -0.0034
 1019MOL0     H37540  -0.453   3.074   8.323 -2.0972 -1.4521 -1.4998
 1019MOL0     H37541  -0.416   2.902   8.577 -1.8815  0.5574  0.1765
 1019MOL0     H37542  -0.351   3.067   8.546  0.3995  0.6910 -2.1694
 1019MOL0     H37543  -0.572   3.161   8.533 -2.4581  0.0328  0.7673
 1019MOL0     H37544  -0.538   3.079   8.679 -0.1576  3.2361 -0.9660
 1019MOL0     H37545  -0.668   2.880   8.588  1.4384 -0.3959  2.2946
 1019MOL0     H37546  -0.714   2.991   8.449  1.9291  0.8676 -0.3856
 1019MOL0     H37547   0.049   3.115   8.405  0.7531 -2.5233 -0.6021
 1019MOL0     H37548   0.247   3.292   8.420  1.0487 -1.3326  0.2349
 1019MOL0     H37549   0.333   3.770   8.267  0.1198  2.6015  0.3296
 1019MOL0     H37550   0.529   3.922   8.295  1.7452 -0.3987  1.5722
 1019MOL0     H37551   1.501   3.974   7.152 -0.1044  1.0358 -1.2137
 1019MOL0     H37552   1.740   4.027   7.224 -2.1687 -0.7479  1.9765
 1019MOL0     H37553   2.144   3.814   7.475 -0.3892  2.4950  0.9437
 1019MOL0     H37554   2.380   3.823   7.523 -0.0042 -0.4419  0.5224
 1019MOL0     H37555   2.634   3.804   7.513  0.4470  0.5995 -0.2216
 1019MOL0     H37556   2.574   3.701   7.396 -1.0064  0.1398  2.8232
 1019MOL0     H37557   2.819   3.866   7.350 -1.6649 -0.2645  1.5101
 1019MOL0     H37558   2.735   3.769   7.218 -0.5255  0.8673  0.1445
 1019MOL0     H37559   2.753   3.575   7.360 -0.7249 -0.1063  2.3641
 1019MOL0     H37560   2.862   3.665   7.467 -1.6792  2.2757  0.1085
 1019MOL0     H37561   2.934   3.625   7.173  0.8938  0.1522 -0.5418
 1019MOL0     H37562   2.974   3.499   7.292 -2.4477 -1.0409 -3.3594
 1019MOL0     H37563   3.271   3.772   7.362 -0.9909  0.4615 -2.2818
 1019MOL0     H37564   2.434   3.954   7.117 -1.5322 -0.1764 -1.0757
 1019MOL0     H37565   2.208   3.913   7.061  1.3935  0.0494 -0.7581
 1020MOL0     O37566  10.728   9.697   2.330  0.4834 -0.2618 -0.6683
 1020MOL0     C37567  10.800   9.742   2.238  0.0130  0.0599 -0.1553
 1020MOL0     O37568  10.773   9.849   2.156 -0.4525 -0.2680 -0.1736
 1020MOL0     C37569  10.655   9.915   2.159  0.9161  0.2197  0.0232
 1020MOL0     C37570  10.651  10.043   2.096  0.3343  0.5077  0.3546
 1020MOL0     C37571  10.536  10.116   2.081 -0.9798  0.1709 -0.3988
 1020MOL0     C37572  10.410  10.070   2.114  0.3094 -0.0935 -0.8435
 1020MOL0     O37573  10.292  10.129   2.069 -0.2792 -0.1237 -0.1444
 1020MOL0     C37574  10.293  10.270   2.042  0.1309  0.1375  0.7317
 1020MOL0     C37575  10.148  10.317   2.030  0.2938 -1.4599  0.0783
 1020MOL0     C37576  10.055  10.245   2.130  0.1270  1.0497 -0.3447
 1020MOL0     C37577   9.923  10.320   2.122 -0.3606  0.2128  0.3384
 1020MOL0     C37578   9.818  10.244   2.207  0.7646  0.8300 -0.1179
 1020MOL0     C37579   9.701  10.330   2.237  0.0189  0.2003 -0.0835
 1020MOL0     C37580   9.594  10.252   2.321  0.1206 -0.1218  0.0252
 1020MOL0     C37581   9.481  10.340   2.374  0.2171 -0.2502 -0.1304
 1020MOL0     N37582   9.378  10.262   2.445 -0.4172  0.0829 -0.1888
 1020MOL0     C37583   9.387  10.203   2.570  0.5381 -0.6153 -0.6896
 1020MOL0     C37584   9.271  10.140   2.584 -0.2543 -0.1711  0.5764
 1020MOL0     C37585   9.233  10.063   2.704  0.1981  0.0686 -0.2243
 1020MOL0     C37586   9.225   9.912   2.677  1.3178  0.1865  0.1394
 1020MOL0     C37587   9.166   9.833   2.796  0.0872 -0.2785  0.3941
 1020MOL0     C37588   9.225   9.867   2.935  0.3569  0.1363 -0.0499
 1020MOL0     O37589   9.199   9.759   3.030  0.6272  1.2426  0.3186
 1020MOL0     C37590   9.296   9.664   3.065  0.7216  0.1155  0.2697
 1020MOL0     C37591   9.417   9.636   2.996  0.9782  0.1454 -0.4584
 1020MOL0     C37592   9.499   9.529   3.031  0.0717 -0.3222 -0.2175
 1020MOL0     C37593   9.618   9.506   2.942  0.2288 -0.3443 -0.3825
 1020MOL0     C37594   9.473   9.450   3.138  0.8065  0.4073 -0.5616
 1020MOL0     C37595   9.564   9.342   3.186  0.8187 -0.1025  1.2939
 1020MOL0     O37596   9.655   9.293   3.104  1.0702  0.1072 -0.0786
 1020MOL0     C37597   9.734   9.192   3.149 -0.8389  0.7159 -0.0611
 1020MOL0     C37598   9.700   9.057   3.144 -0.1045  0.1607  0.7770
 1020MOL0     C37599   9.789   8.958   3.166 -0.2059  0.3440 -0.6982
 1020MOL0     C37600   9.917   8.992   3.195 -0.0006  0.2745  0.1325
 1020MOL0     O37601  10.019   8.896   3.204  0.5281  0.3638 -0.1878
 1020MOL0     C37602   9.993   8.759   3.168 -0.0668  0.0199 -0.1159
 1020MOL0     C37603  10.122   8.679   3.191 -0.0148 -0.2629  1.0639
 1020MOL0     C37604  10.092   8.531   3.152 -0.2553  1.1836 -0.1347
 1020MOL0     C37605  10.213   8.453   3.100 -0.8348 -0.3166 -0.4135
 1020MOL0     C37606  10.331   8.438   3.203 -0.4166  0.4019  0.2956
 1020MOL0     C37607  10.425   8.326   3.167 -0.3433  0.7742  0.6828
 1020MOL0     C37608  10.517   8.284   3.280  0.2076 -0.0571  0.3381
 1020MOL0     C37609  10.637   8.196   3.248  0.0757  0.7894  0.3943
 1020MOL0    Cl37610  10.754   8.212   3.367  0.3439  0.0179  0.1826
 1020MOL0     C37611   9.962   9.124   3.201  1.3068  1.3865 -0.2772
 1020MOL0     C37612   9.872   9.219   3.169  0.1894 -0.1500  0.3279
 1020MOL0     O37613   9.536   9.298   3.295  0.0333  1.0908 -0.7297
 1020MOL0     C37614   9.362   9.478   3.215 -0.0311 -0.8653  0.8187
 1020MOL0     C37615   9.274   9.583   3.176  0.4766 -0.3332 -0.8344
 1020MOL0     N37616   9.191  10.164   2.476  0.2594 -0.0577  0.1141
 1020MOL0     N37617   9.259  10.234   2.388 -0.3139  0.3303  0.5364
 1020MOL0     C37618  10.409   9.946   2.174 -0.5441  0.3896  0.3869
 1020MOL0     C37619  10.525   9.865   2.193  1.0981  0.5277 -0.0051
 1020MOL0     C37620  10.938   9.684   2.228 -0.3698  0.2812  1.1710
 1020MOL0     C37621  10.985   9.564   2.280  0.0556 -0.0637  1.4194
 1020MOL0     C37622  11.120   9.557   2.292 -0.2948 -0.0668 -0.5637
 1020MOL0     C37623  11.221   9.648   2.239  0.5294  0.2862 -0.5359
 1020MOL0     O37624  11.353   9.629   2.253 -0.5348 -0.6967 -0.2888
 1020MOL0     C37625  11.402   9.515   2.321 -0.3753 -0.8313 -0.1520
 1020MOL0     C37626  11.554   9.491   2.303 -0.5465  0.8696 -0.0685
 1020MOL0     C37627  11.638   9.616   2.348 -1.5107 -0.6534 -0.1283
 1020MOL0     C37628  11.786   9.612   2.299  0.2890 -0.5520  0.3757
 1020MOL0     C37629  11.861   9.507   2.371  0.2878 -0.7515  0.6220
 1020MOL0     C37630  11.930   9.429   2.425  0.3696 -0.4095  0.0914
 1020MOL0     C37631  11.173   9.753   2.170  0.0825 -0.5766 -0.1501
 1020MOL0     C37632  11.032   9.774   2.163  0.1008  0.3218 -0.0642
 1020MOL0     H37633  10.746  10.088   2.071 -0.2653  3.2222  2.5078
 1020MOL0     H37634  10.544  10.209   2.027  1.7629 -0.2758 -0.9536
 1020MOL0     H37635  10.329  10.335   2.123 -1.0580  1.6471  0.0959
 1020MOL0     H37636  10.351  10.287   1.951  0.2812 -2.4497  0.2786
 1020MOL0     H37637  10.149  10.424   2.051  0.7063 -1.5236  0.4170
 1020MOL0     H37638  10.109  10.300   1.930 -1.9867 -2.0183  1.0023
 1020MOL0     H37639  10.047  10.139   2.102  0.8305  0.9175 -0.0758
 1020MOL0     H37640  10.094  10.247   2.233 -1.2720  2.0647  0.1886
 1020MOL0     H37641   9.939  10.420   2.163  1.7142  0.1701 -0.2625
 1020MOL0     H37642   9.890  10.339   2.020 -1.7752  3.2347  1.2492
 1020MOL0     H37643   9.774  10.163   2.146 -2.5901  1.7362  0.8654
 1020MOL0     H37644   9.878  10.202   2.288  1.7148 -3.1389 -2.5811
 1020MOL0     H37645   9.725  10.423   2.289 -0.5741  0.3225 -0.0253
 1020MOL0     H37646   9.658  10.372   2.146  0.7894  1.6377  0.1920
 1020MOL0     H37647   9.546  10.181   2.254 -2.1260  0.2608  1.1562
 1020MOL0     H37648   9.643  10.205   2.406  0.3983  0.5911  0.2700
 1020MOL0     H37649   9.430  10.388   2.290 -0.4397  0.2197  0.5304
 1020MOL0     H37650   9.511  10.421   2.440  2.4192 -1.6292  0.6807
 1020MOL0     H37651   9.475  10.196   2.634  0.6954 -0.0437 -0.8367
 1020MOL0     H37652   9.298  10.091   2.787 -0.2977  0.4764  0.0355
 1020MOL0     H37653   9.130  10.092   2.726  0.2589 -0.9449  1.5910
 1020MOL0     H37654   9.329   9.881   2.659  0.7091 -4.0373  2.6672
 1020MOL0     H37655   9.171   9.891   2.585 -0.8133 -0.7611  1.5354
 1020MOL0     H37656   9.190   9.728   2.779  2.7470  0.4636 -1.0756
 1020MOL0     H37657   9.059   9.855   2.800  0.5851  2.2773  2.4494
 1020MOL0     H37658   9.180   9.964   2.958  2.0282  0.7146  0.9776
 1020MOL0     H37659   9.331   9.894   2.928 -0.3111  3.0431 -0.3475
 1020MOL0     H37660   9.448   9.706   2.919  1.3017 -1.1952 -1.5901
 1020MOL0     H37661   9.645   9.593   2.882 -1.6893  1.0172  0.6271
 1020MOL0     H37662   9.706   9.495   3.006  1.1098 -2.4074 -1.8218
 1020MOL0     H37663   9.613   9.425   2.868 -0.3208 -0.5898 -0.0805
 1020MOL0     H37664   9.597   9.025   3.132 -0.4248  0.8465  1.6084
 1020MOL0     H37665   9.768   8.853   3.148  1.8671  0.1862 -2.7174
 1020MOL0     H37666   9.915   8.714   3.230 -1.3521 -0.4798 -2.0166
 1020MOL0     H37667   9.959   8.756   3.065  0.4426  0.9535 -0.3280
 1020MOL0     H37668  10.196   8.720   3.121  0.5982 -1.0780  1.2154
 1020MOL0     H37669  10.169   8.692   3.289  3.9050  2.0096 -0.8676
 1020MOL0     H37670  10.008   8.516   3.084 -1.3806 -1.5971  1.6750
 1020MOL0     H37671  10.064   8.481   3.245 -1.8641  2.2405 -0.0109
 1020MOL0     H37672  10.162   8.358   3.083 -0.8077 -1.3385  3.8511
 1020MOL0     H37673  10.248   8.494   3.005 -2.2695  1.9632 -0.0275
 1020MOL0     H37674  10.277   8.413   3.294  0.1532  1.1631  0.8559
 1020MOL0     H37675  10.383   8.534   3.202  0.5123  0.1553 -4.8582
 1020MOL0     H37676  10.376   8.240   3.120  1.2376  0.3486 -0.2562
 1020MOL0     H37677  10.483   8.367   3.084 -0.5205 -1.9318 -0.9106
 1020MOL0     H37678  10.456   8.225   3.349  0.2392  0.2232  0.6116
 1020MOL0     H37679  10.556   8.377   3.323  1.8026 -0.2699 -0.5590
 1020MOL0     H37680  10.671   8.228   3.150 -0.0430  4.2663  1.3606
 1020MOL0     H37681  10.608   8.090   3.244  1.3393  0.4299  0.2632
 1020MOL0     H37682  10.066   9.145   3.222  1.8535  0.2321 -1.6280
 1020MOL0     H37683   9.915   9.317   3.154 -3.4214  1.8041  1.3555
 1020MOL0     H37684   9.336   9.422   3.304  0.0955 -1.0392  0.7472
 1020MOL0     H37685   9.193   9.601   3.246  0.3283  2.4837 -1.6202
 1020MOL0     H37686  10.318   9.890   2.193  1.5716 -3.2798  0.8024
 1020MOL0     H37687  10.515   9.764   2.232  1.3153 -0.1789 -1.7127
 1020MOL0     H37688  10.914   9.490   2.314  0.1003 -0.6248  0.3596
 1020MOL0     H37689  11.161   9.476   2.351 -0.4292  0.8444  0.8459
 1020MOL0     H37690  11.375   9.515   2.427 -2.0246 -2.7922 -0.5161
 1020MOL0     H37691  11.354   9.429   2.273 -0.1890  0.2731 -2.4263
 1020MOL0     H37692  11.565   9.479   2.195 -3.0555 -1.3508 -0.1937
 1020MOL0     H37693  11.595   9.401   2.349 -1.2711  1.2626  1.4243
 1020MOL0     H37694  11.640   9.626   2.457 -1.0015 -0.0598 -0.1816
 1020MOL0     H37695  11.587   9.705   2.310  1.0786  1.4526  1.0100
 1020MOL0     H37696  11.818   9.714   2.320 -2.9093  0.3801  1.1883
 1020MOL0     H37697  11.780   9.601   2.191  0.6757 -0.3566  0.3305
 1020MOL0     H37698  11.991   9.361   2.482  0.1173 -1.8666 -1.3093
 1020MOL0     H37699  11.244   9.819   2.122  0.6176 -0.0031  1.3810
 1020MOL0     H37700  10.996   9.866   2.119 -1.9769 -1.6984 -2.9973
 1021MOL0     O37701   1.797  10.060   9.610 -0.4198 -0.0867  0.3302
 1021MOL0     C37702   1.864   9.979   9.547  0.1970 -0.4949  0.5010
 1021MOL0     O37703   1.815   9.887   9.455  0.2050 -0.4993 -0.5806
 1021MOL0     C37704   1.677   9.898   9.437 -0.2859 -0.2031  0.1984
 1021MOL0     C37705   1.595   9.981   9.355  0.0894  0.3857  0.2802
 1021MOL0     C37706   1.467   9.972   9.332  0.0507 -0.4987 -0.2090
 1021MOL0     C37707   1.397   9.861   9.389 -0.2175  0.9351 -0.1426
 1021MOL0     O37708   1.264   9.844   9.387  0.8381  0.5230  0.6144
 1021MOL0     C37709   1.186   9.884   9.280  0.2633  0.7168  0.7873
 1021MOL0     C37710   1.078   9.786   9.240 -0.0071 -0.1186  0.3242
 1021MOL0     C37711   1.000   9.840   9.114 -0.2418  0.4476 -0.6010
 1021MOL0     C37712   0.901   9.742   9.048 -0.1084  0.2977 -0.2341
 1021MOL0     C37713   0.822   9.818   8.935 -0.4497 -0.9781  0.3123
 1021MOL0     C37714   0.684   9.867   8.957  0.2404  0.4026  0.1961
 1021MOL0     C37715   0.583   9.749   8.946  0.6200  0.4623  1.0375
 1021MOL0     C37716   0.443   9.806   8.949 -0.0946 -0.3620 -0.2873
 1021MOL0     N37717   0.341   9.707   8.972  0.2984  0.2520 -0.0767
 1021MOL0     C37718   0.323   9.632   9.086  0.3079 -0.2141 -0.8666
 1021MOL0     C37719   0.200   9.570   9.076  0.2412 -0.3670 -0.0246
 1021MOL0     C37720   0.127   9.490   9.178 -0.7190  0.4879 -0.5208
 1021MOL0     C37721   0.001   9.429   9.120 -0.3016  0.4426 -0.7005
 1021MOL0     C37722  -0.076   9.353   9.226  0.2938  0.7089  0.4516
 1021MOL0     C37723  -0.199   9.286   9.165 -0.1852  0.2144 -0.4435
 1021MOL0     O37724  -0.250   9.204   9.269 -0.1266  0.5390 -0.2607
 1021MOL0     C37725  -0.358   9.128   9.237  0.4522  0.1051 -0.0150
 1021MOL0     C37726  -0.405   9.045   9.340 -0.6514 -0.3554 -0.4331
 1021MOL0     C37727  -0.498   8.944   9.320 -0.2065  0.3303 -0.2573
 1021MOL0     C37728  -0.526   8.856   9.436  0.0733  0.0922 -0.5967
 1021MOL0     C37729  -0.569   8.940   9.198 -0.2371  0.2840  0.1421
 1021MOL0     C37730  -0.700   8.866   9.167 -0.3332 -0.1309 -0.0920
 1021MOL0     O37731  -0.773   8.914   9.063  0.5341  1.4844  0.3679
 1021MOL0     C37732  -0.897   8.849   9.033 -0.2175 -0.3759 -0.5008
 1021MOL0     C37733  -1.011   8.855   9.116  0.3942 -0.0914 -0.5859
 1021MOL0     C37734  -1.126   8.789   9.081 -0.4319 -0.3355 -0.5315
 1021MOL0     C37735  -1.136   8.712   8.963 -0.0090 -0.0012  0.1666
 1021MOL0     O37736  -1.260   8.666   8.924 -0.4205  0.4089 -0.5997
 1021MOL0     C37737  -1.373   8.746   8.950  0.0828 -0.6223  0.3390
 1021MOL0     C37738  -1.492   8.702   8.864  0.8008  0.3695  0.5125
 1021MOL0     C37739  -1.538   8.562   8.907 -0.3243 -0.4675 -0.1094
 1021MOL0     C37740  -1.592   8.466   8.805  0.9604 -0.4223 -0.5434
 1021MOL0     C37741  -1.699   8.511   8.711  0.2120  0.5789  0.2256
 1021MOL0     C37742  -1.825   8.551   8.773  0.6364  0.0818 -0.7114
 1021MOL0     C37743  -1.951   8.531   8.680 -0.3491 -0.2429  0.0516
 1021MOL0     C37744  -1.956   8.651   8.577  0.5213 -0.2550 -0.0726
 1021MOL0    Cl37745  -1.989   8.813   8.650  0.3037 -0.0103 -0.0443
 1021MOL0     C37746  -1.019   8.697   8.883 -0.8801 -0.1789 -1.0036
 1021MOL0     C37747  -0.904   8.772   8.917 -0.6375 -0.1238 -0.1163
 1021MOL0     O37748  -0.723   8.764   9.228  0.4439 -0.2396 -0.9804
 1021MOL0     C37749  -0.529   9.027   9.102  0.6567 -0.0431  0.8957
 1021MOL0     C37750  -0.422   9.115   9.109 -0.1824 -0.1151  0.5524
 1021MOL0     N37751   0.153   9.600   8.948 -0.0339 -0.4781 -0.1561
 1021MOL0     N37752   0.232   9.680   8.889 -0.1505 -0.0928  0.5712
 1021MOL0     C37753   1.474   9.769   9.463  0.4377 -0.6115  0.1183
 1021MOL0     C37754   1.611   9.785   9.492  0.7049 -0.9804  0.1816
 1021MOL0     C37755   2.007   9.980   9.563 -0.3589  0.2879  0.3319
 1021MOL0     C37756   2.076  10.098   9.593  0.9135  0.0818 -0.4824
 1021MOL0     C37757   2.214  10.099   9.601 -0.8174  0.1328 -0.3039
 1021MOL0     C37758   2.290   9.983   9.570 -0.2536  0.2569  0.1821
 1021MOL0     O37759   2.425   9.996   9.569  0.2258 -0.7677 -0.2461
 1021MOL0     C37760   2.514   9.892   9.520  0.2938  0.2225  0.1830
 1021MOL0     C37761   2.651   9.952   9.497  0.3088  0.8565 -0.5628
 1021MOL0     C37762   2.718  10.017   9.620 -0.3092 -0.2518 -0.1338
 1021MOL0     C37763   2.731   9.916   9.738 -0.3457 -0.0750 -0.5196
 1021MOL0     C37764   2.843   9.953   9.827  0.1394 -0.4409 -0.8392
 1021MOL0     C37765   2.922  10.000   9.903  0.4151  0.1715 -0.3196
 1021MOL0     C37766   2.224   9.861   9.535 -0.7635 -0.3096 -0.6826
 1021MOL0     C37767   2.083   9.866   9.530 -0.9329  0.3948  0.1984
 1021MOL0     H37768   1.651  10.059   9.305  0.2375  1.1182  1.5459
 1021MOL0     H37769   1.427  10.057   9.278  2.6028  1.2301  0.3964
 1021MOL0     H37770   1.137   9.979   9.299  1.2335  0.9984  2.0588
 1021MOL0     H37771   1.245   9.910   9.192  0.4889 -0.7815  0.4586
 1021MOL0     H37772   1.125   9.690   9.219 -3.5487 -1.4297 -2.6356
 1021MOL0     H37773   1.006   9.768   9.321  2.0584 -3.5945  1.6157
 1021MOL0     H37774   0.941   9.923   9.154  0.8833  0.7612  0.4912
 1021MOL0     H37775   1.079   9.871   9.045  0.6150  0.1148  0.2017
 1021MOL0     H37776   0.961   9.660   9.007  1.2030  0.2431  1.6555
 1021MOL0     H37777   0.831   9.698   9.118  0.6410 -0.3479  0.1243
 1021MOL0     H37778   0.870   9.914   8.914 -0.8603 -1.3169 -2.5008
 1021MOL0     H37779   0.837   9.763   8.842  0.1175 -1.1029  0.4756
 1021MOL0     H37780   0.681   9.918   9.053  1.5431 -3.1193  2.3108
 1021MOL0     H37781   0.654   9.946   8.887 -0.2389  2.7571  2.8924
 1021MOL0     H37782   0.604   9.685   8.860 -2.9888 -0.6347  0.8406
 1021MOL0     H37783   0.596   9.683   9.032  3.7807  0.9468  1.0491
 1021MOL0     H37784   0.423   9.862   8.857  0.3989  0.1033 -0.1128
 1021MOL0     H37785   0.443   9.871   9.037  1.7817 -3.2417  2.0468
 1021MOL0     H37786   0.390   9.627   9.171 -1.3879 -1.1750  0.4931
 1021MOL0     H37787   0.195   9.410   9.207  1.1141  1.9154 -0.7072
 1021MOL0     H37788   0.104   9.549   9.267  4.3109  0.1135  1.3065
 1021MOL0     H37789   0.019   9.375   9.027 -0.4582  0.7182 -0.8941
 1021MOL0     H37790  -0.069   9.510   9.096  0.4459  1.2721 -0.1265
 1021MOL0     H37791  -0.121   9.426   9.294 -1.3082  0.6932 -0.5344
 1021MOL0     H37792  -0.002   9.288   9.275  1.3176 -0.2306 -2.1929
 1021MOL0     H37793  -0.179   9.226   9.076 -1.0886  1.8078 -1.7913
 1021MOL0     H37794  -0.266   9.368   9.136 -1.3977  0.9546  3.7374
 1021MOL0     H37795  -0.357   9.063   9.436  0.7764 -0.8371 -1.0414
 1021MOL0     H37796  -0.470   8.891   9.523 -0.7926  0.7802 -0.3034
 1021MOL0     H37797  -0.629   8.850   9.472  0.4493  0.9465  0.7022
 1021MOL0     H37798  -0.488   8.759   9.405  3.3792  0.8368  0.6844
 1021MOL0     H37799  -1.001   8.911   9.208 -0.3577  1.3729 -1.3646
 1021MOL0     H37800  -1.214   8.810   9.140 -0.9314 -0.1660 -1.3279
 1021MOL0     H37801  -1.398   8.725   9.054  2.1030  1.4022  1.3097
 1021MOL0     H37802  -1.361   8.854   8.944 -0.7332 -0.5635 -0.4378
 1021MOL0     H37803  -1.578   8.766   8.885 -0.2484 -0.4576 -1.0986
 1021MOL0     H37804  -1.456   8.704   8.760 -1.3958 -2.3785 -0.4418
 1021MOL0     H37805  -1.622   8.582   8.975 -0.4493  0.9218 -0.6387
 1021MOL0     H37806  -1.452   8.509   8.949 -0.8786 -1.2803  0.0199
 1021MOL0     H37807  -1.503   8.440   8.747  1.3223  0.8410 -0.5773
 1021MOL0     H37808  -1.625   8.370   8.845 -0.6488  0.4121  0.2195
 1021MOL0     H37809  -1.721   8.430   8.640 -2.3384  0.4098  1.1395
 1021MOL0     H37810  -1.659   8.597   8.656 -0.2068  1.2148  0.9037
 1021MOL0     H37811  -1.852   8.484   8.856  0.1005 -2.0006 -2.4863
 1021MOL0     H37812  -1.812   8.646   8.824  0.1053  0.0084 -0.4336
 1021MOL0     H37813  -2.035   8.533   8.750 -0.6701  0.1132 -0.3392
 1021MOL0     H37814  -1.942   8.436   8.627 -0.2141  0.0969 -0.5412
 1021MOL0     H37815  -2.038   8.625   8.510 -0.9169  1.2344  1.0216
 1021MOL0     H37816  -1.858   8.646   8.530  0.9562 -1.7199  0.9240
 1021MOL0     H37817  -1.015   8.640   8.791  0.4039  1.2501 -1.9036
 1021MOL0     H37818  -0.818   8.764   8.850 -2.1485 -3.7877 -1.9279
 1021MOL0     H37819  -0.587   9.036   9.011 -0.2732  0.4386  1.5169
 1021MOL0     H37820  -0.397   9.183   9.028  0.1370 -0.3406  0.4579
 1021MOL0     H37821   1.413   9.689   9.504 -2.0471  0.9726 -0.3192
 1021MOL0     H37822   1.660   9.722   9.565  2.8581  2.0736  1.5957
 1021MOL0     H37823   2.018  10.190   9.598  0.9777  0.1646 -1.1597
 1021MOL0     H37824   2.284  10.178   9.626  1.3482 -0.2698 -4.2585
 1021MOL0     H37825   2.511   9.812   9.595  1.1819 -1.1641 -1.1816
 1021MOL0     H37826   2.479   9.850   9.425  3.1800  1.1930 -1.4063
 1021MOL0     H37827   2.629  10.037   9.433 -0.0704  1.4167  0.2867
 1021MOL0     H37828   2.718   9.884   9.443 -0.0253  1.0928 -1.2855
 1021MOL0     H37829   2.663  10.107   9.648  0.8607 -0.0629  1.7359
 1021MOL0     H37830   2.809  10.052   9.570 -0.7902 -0.3232 -1.0876
 1021MOL0     H37831   2.753   9.816   9.699  0.1479 -0.5893  1.0019
 1021MOL0     H37832   2.638   9.897   9.794  0.2496 -2.0517 -0.1061
 1021MOL0     H37833   3.000  10.036   9.968 -0.5176  0.3748  0.7303
 1021MOL0     H37834   2.286   9.775   9.514  0.2498  0.5092 -1.1850
 1021MOL0     H37835   2.038   9.769   9.511 -0.4227  0.0035  0.9236
 1022MOL0     O37836   6.507   4.204   9.136 -0.2067 -0.9307 -0.6356
 1022MOL0     C37837   6.588   4.144   9.206  0.1108  0.4323 -0.4335
 1022MOL0     O37838   6.552   4.061   9.314 -0.0343 -0.0988  0.3726
 1022MOL0     C37839   6.419   4.041   9.337  1.3177  0.4641  0.1251
 1022MOL0     C37840   6.367   4.083   9.462  0.4869 -0.1752  0.5688
 1022MOL0     C37841   6.232   4.058   9.493  0.2709 -0.0563  0.3948
 1022MOL0     C37842   6.139   4.009   9.397 -0.5516 -0.7796 -0.2218
 1022MOL0     O37843   6.005   4.011   9.435 -0.7284  0.6457  0.5879
 1022MOL0     C37844   5.906   3.935   9.370 -0.4380  0.5208  0.8233
 1022MOL0     C37845   5.800   3.895   9.465  0.4649 -0.7402 -0.3286
 1022MOL0     C37846   5.705   3.791   9.406 -0.3856  0.4643  0.0198
 1022MOL0     C37847   5.573   3.782   9.489  0.8520 -0.2755 -0.1035
 1022MOL0     C37848   5.491   3.669   9.423 -0.7329  0.2232  0.2102
 1022MOL0     C37849   5.341   3.681   9.461 -0.7218  0.8440 -0.1328
 1022MOL0     C37850   5.336   3.696   9.618  0.6205  0.0513 -0.4459
 1022MOL0     C37851   5.193   3.683   9.681 -0.4596 -0.1245  0.6676
 1022MOL0     N37852   5.103   3.794   9.652 -0.2353  0.2162 -0.3248
 1022MOL0     C37853   4.986   3.791   9.590  0.1100 -0.9292  0.5389
 1022MOL0     C37854   4.937   3.915   9.609  0.9011 -0.2159  0.3446
 1022MOL0     C37855   4.792   3.961   9.557 -0.2250  0.1180  0.0611
 1022MOL0     C37856   4.689   3.979   9.665  0.5244 -0.2529 -0.0650
 1022MOL0     C37857   4.550   3.997   9.598 -0.3409 -0.4369 -0.2238
 1022MOL0     C37858   4.457   4.051   9.704  0.0496 -0.3849  0.6191
 1022MOL0     O37859   4.432   3.942   9.793 -0.2340  0.7630 -0.3157
 1022MOL0     C37860   4.308   3.880   9.779 -0.0941  0.3821  0.3803
 1022MOL0     C37861   4.259   3.822   9.884 -0.0664 -0.1529  0.2034
 1022MOL0     C37862   4.129   3.768   9.889 -0.7928  0.0838  0.1816
 1022MOL0     C37863   4.076   3.712  10.023 -0.8349  0.5607  0.5057
 1022MOL0     C37864   4.046   3.773   9.775 -0.3284 -0.2885 -1.8745
 1022MOL0     C37865   3.897   3.738   9.775  0.4515  0.5683 -0.3305
 1022MOL0     O37866   3.862   3.684   9.661 -0.6289  0.5318 -0.0787
 1022MOL0     C37867   3.725   3.666   9.628  0.2851 -0.2602 -0.3192
 1022MOL0     C37868   3.659   3.777   9.590 -1.2408  0.6930 -0.4235
 1022MOL0     C37869   3.528   3.767   9.546 -0.6627  0.5396  0.2141
 1022MOL0     C37870   3.463   3.648   9.538 -1.3155  0.2132 -0.5181
 1022MOL0     O37871   3.336   3.651   9.502 -0.1007  0.2330 -0.2427
 1022MOL0     C37872   3.263   3.527   9.504  0.0256  0.7957  0.0980
 1022MOL0     C37873   3.203   3.501   9.639  0.1544 -0.7239  0.4819
 1022MOL0     C37874   3.107   3.379   9.626 -0.5802 -0.7175  0.0424
 1022MOL0     C37875   2.977   3.420   9.568  0.5898 -0.1096  0.5663
 1022MOL0     C37876   2.882   3.302   9.572 -0.3708  0.1850 -0.3121
 1022MOL0     C37877   2.930   3.185   9.474  0.1706  0.4353  0.7347
 1022MOL0     C37878   2.825   3.085   9.435  0.2584 -0.6218 -0.1383
 1022MOL0     C37879   2.842   2.946   9.483  0.3149  0.2094 -0.1682
 1022MOL0    Cl37880   3.006   2.882   9.441  0.1368 -0.2818  0.3904
 1022MOL0     C37881   3.530   3.531   9.588 -0.0407  0.6258 -0.0595
 1022MOL0     C37882   3.668   3.546   9.626  0.1546  0.2480  0.4192
 1022MOL0     O37883   3.828   3.761   9.872  0.2139  0.0678 -0.1086
 1022MOL0     C37884   4.102   3.826   9.661 -0.8431  1.3848  0.0570
 1022MOL0     C37885   4.236   3.870   9.656 -0.1339 -0.3968 -1.2046
 1022MOL0     N37886   5.024   3.990   9.685 -0.0030  1.0685 -0.4362
 1022MOL0     N37887   5.125   3.921   9.708 -1.4596 -0.7577 -0.9253
 1022MOL0     C37888   6.191   3.981   9.276  1.0727  0.6879 -0.6428
 1022MOL0     C37889   6.326   3.988   9.245 -0.6064 -0.5166 -0.0424
 1022MOL0     C37890   6.726   4.153   9.167  0.1616  0.0760 -0.1639
 1022MOL0     C37891   6.817   4.101   9.245 -0.0871 -1.0394 -0.5795
 1022MOL0     C37892   6.957   4.113   9.223 -0.3350  0.6234 -0.2469
 1022MOL0     C37893   6.998   4.181   9.112 -0.5882  0.6377  1.0259
 1022MOL0     O37894   7.132   4.199   9.078 -0.1321  0.1500  0.1701
 1022MOL0     C37895   7.236   4.149   9.169 -0.2629  0.1754  1.0460
 1022MOL0     C37896   7.366   4.225   9.149 -0.8148 -0.1287 -0.0283
 1022MOL0     C37897   7.398   4.243   9.002 -0.0640 -0.7914 -0.0710
 1022MOL0     C37898   7.434   4.115   8.917 -0.3198  0.1154  0.6348
 1022MOL0     C37899   7.555   4.057   8.976  0.2995 -0.6891  0.0372
 1022MOL0     C37900   7.652   4.012   9.029  0.3293  0.3474 -0.0953
 1022MOL0     C37901   6.906   4.232   9.017 -0.2459 -0.1785 -0.3092
 1022MOL0     C37902   6.767   4.222   9.054  0.1216 -0.6833  0.4431
 1022MOL0     H37903   6.439   4.134   9.526  2.4810 -0.9894 -0.9389
 1022MOL0     H37904   6.201   4.092   9.591 -0.4610 -0.4770  0.3154
 1022MOL0     H37905   5.863   3.991   9.287  1.0986 -0.2044 -0.5317
 1022MOL0     H37906   5.949   3.839   9.338 -2.4932  0.2277 -1.2613
 1022MOL0     H37907   5.835   3.859   9.562  0.1134 -1.9982 -0.6472
 1022MOL0     H37908   5.737   3.979   9.497 -0.8019 -1.3632 -1.1033
 1022MOL0     H37909   5.682   3.804   9.300 -2.5893 -0.7285  0.3046
 1022MOL0     H37910   5.753   3.694   9.420 -3.3444 -1.0948  0.0421
 1022MOL0     H37911   5.604   3.761   9.592 -1.4826 -0.7086  0.5573
 1022MOL0     H37912   5.524   3.879   9.493 -0.3434 -0.8589 -0.1738
 1022MOL0     H37913   5.508   3.658   9.315  0.4824 -1.1811  0.4969
 1022MOL0     H37914   5.530   3.571   9.452 -1.1352  0.0088  0.0408
 1022MOL0     H37915   5.289   3.769   9.422 -0.5036  0.9349 -0.2212
 1022MOL0     H37916   5.286   3.593   9.428  0.4963 -0.8068  1.9484
 1022MOL0     H37917   5.396   3.622   9.671 -1.4670  0.3376  2.5460
 1022MOL0     H37918   5.363   3.799   9.644 -1.3484  0.2163  1.1498
 1022MOL0     H37919   5.200   3.671   9.789  1.3204 -1.1855  0.4801
 1022MOL0     H37920   5.153   3.588   9.644 -0.2594 -0.5394  1.4982
 1022MOL0     H37921   4.927   3.706   9.560 -0.9140 -0.7499  1.9290
 1022MOL0     H37922   4.796   4.050   9.494 -1.2986 -0.0022 -0.1908
 1022MOL0     H37923   4.753   3.892   9.482 -0.4953  1.3262 -0.9402
 1022MOL0     H37924   4.721   4.067   9.722  0.8472 -0.9514  0.8582
 1022MOL0     H37925   4.692   3.892   9.732 -0.1554 -0.6932 -0.5996
 1022MOL0     H37926   4.503   3.906   9.560  0.2083  0.2687 -2.7698
 1022MOL0     H37927   4.558   4.071   9.518  1.7725 -0.9059 -0.5038
 1022MOL0     H37928   4.368   4.095   9.658 -0.5348  0.6587  2.6229
 1022MOL0     H37929   4.497   4.137   9.759 -1.4239  0.8003 -0.0711
 1022MOL0     H37930   4.314   3.825   9.978 -0.2359 -0.3045  0.3086
 1022MOL0     H37931   4.002   3.636  10.000 -0.6107  0.6546 -0.5875
 1022MOL0     H37932   4.163   3.675  10.078  2.3263  2.6256 -2.6236
 1022MOL0     H37933   4.022   3.789  10.078 -1.3118  0.6358 -0.0541
 1022MOL0     H37934   3.707   3.873   9.609 -1.7392  0.8631 -0.0100
 1022MOL0     H37935   3.473   3.847   9.499 -3.1729 -1.3887 -0.3308
 1022MOL0     H37936   3.194   3.532   9.419  0.2938  0.5269 -0.1401
 1022MOL0     H37937   3.327   3.441   9.480  0.2481 -0.5338  4.6263
 1022MOL0     H37938   3.286   3.480   9.707 -0.3880 -1.4403  0.9303
 1022MOL0     H37939   3.154   3.589   9.681 -0.7700 -1.4450  0.9546
 1022MOL0     H37940   3.097   3.334   9.725 -0.0955  0.9696  0.9006
 1022MOL0     H37941   3.145   3.309   9.551 -1.5725 -0.7402 -0.4668
 1022MOL0     H37942   2.929   3.507   9.615  0.5484  0.7302 -0.9510
 1022MOL0     H37943   2.995   3.442   9.463 -0.1297 -0.8653  0.2740
 1022MOL0     H37944   2.786   3.335   9.531 -0.1100  1.8677  0.3639
 1022MOL0     H37945   2.874   3.266   9.675  0.2264  0.7170 -0.0755
 1022MOL0     H37946   2.949   3.229   9.375  1.4907  1.0859  1.2485
 1022MOL0     H37947   3.025   3.138   9.500  0.1590  0.1600  0.2915
 1022MOL0     H37948   2.823   3.074   9.326 -0.0121  0.8869 -0.3141
 1022MOL0     H37949   2.727   3.130   9.457  0.0135 -1.1718 -0.0809
 1022MOL0     H37950   2.773   2.888   9.421  1.7202 -0.2728 -1.3476
 1022MOL0     H37951   2.820   2.961   9.589  3.0596 -0.5503  0.5865
 1022MOL0     H37952   3.491   3.430   9.592  1.4571  0.0648  1.0116
 1022MOL0     H37953   3.726   3.456   9.640 -2.2158 -1.1170  2.4162
 1022MOL0     H37954   4.036   3.839   9.576 -1.2919  1.9116  0.4784
 1022MOL0     H37955   4.275   3.919   9.567 -0.2917  1.9302 -0.0572
 1022MOL0     H37956   6.117   3.955   9.200  1.1202  1.5274 -0.9825
 1022MOL0     H37957   6.367   3.957   9.149  2.4900 -0.9778  1.3080
 1022MOL0     H37958   6.790   4.066   9.344  1.0461  0.4259  0.2896
 1022MOL0     H37959   7.013   4.070   9.307 -2.1462 -2.5114 -0.4821
 1022MOL0     H37960   7.205   4.166   9.272 -2.5955 -0.9530  0.6100
 1022MOL0     H37961   7.251   4.041   9.158 -0.1687  0.3658 -1.2445
 1022MOL0     H37962   7.439   4.166   9.205 -0.8310  0.3235  0.4723
 1022MOL0     H37963   7.366   4.322   9.199 -1.1211 -0.8469  1.4127
 1022MOL0     H37964   7.485   4.307   9.019 -0.7243 -0.7818  4.4366
 1022MOL0     H37965   7.313   4.290   8.952 -0.0456 -1.9353 -1.2162
 1022MOL0     H37966   7.459   4.147   8.816 -1.5317  0.3506  0.3921
 1022MOL0     H37967   7.357   4.038   8.904  0.5264 -0.5238 -0.8891
 1022MOL0     H37968   7.734   3.974   9.086  0.1301 -1.0960 -0.7171
 1022MOL0     H37969   6.933   4.279   8.924 -3.3215  3.2635  0.2819
 1022MOL0     H37970   6.702   4.262   8.977  0.9103  0.6746  0.4431
 1023MOL0     O37971   1.859   5.281   5.244 -0.0223  0.0097  0.1895
 1023MOL0     C37972   1.886   5.309   5.358 -1.2708 -0.2034  0.4013
 1023MOL0     O37973   1.808   5.305   5.466  0.8905 -0.1701 -0.4685
 1023MOL0     C37974   1.676   5.275   5.452  0.2185  1.0483  0.5534
 1023MOL0     C37975   1.628   5.157   5.505 -1.2421 -0.2595  0.3259
 1023MOL0     C37976   1.483   5.132   5.524  0.1276  0.2341  0.6391
 1023MOL0     C37977   1.395   5.221   5.468 -0.3672  0.2823  1.1801
 1023MOL0     O37978   1.262   5.203   5.490 -0.5002  0.0858  0.2906
 1023MOL0     C37979   1.165   5.293   5.422 -0.4085 -0.5970  0.2478
 1023MOL0     C37980   1.042   5.214   5.404  1.2411 -0.4594  0.0663
 1023MOL0     C37981   0.916   5.297   5.374 -0.1443  0.3900 -1.0132
 1023MOL0     C37982   0.798   5.209   5.347  0.1953 -0.7722 -0.3902
 1023MOL0     C37983   0.663   5.298   5.365 -0.1966  0.5272  0.1400
 1023MOL0     C37984   0.547   5.201   5.333 -0.0056  0.0825 -0.1037
 1023MOL0     C37985   0.403   5.254   5.324 -0.1897 -0.3567  0.7203
 1023MOL0     C37986   0.322   5.216   5.446  1.1808  0.2376  0.3702
 1023MOL0     N37987   0.189   5.274   5.420  0.3279 -0.3730 -0.4032
 1023MOL0     C37988   0.072   5.210   5.433  0.3257 -0.1239 -0.5050
 1023MOL0     C37989  -0.028   5.276   5.375  0.1203 -0.4518  0.0040
 1023MOL0     C37990  -0.182   5.243   5.349  0.4468  0.4181 -0.3258
 1023MOL0     C37991  -0.271   5.276   5.475 -0.2537 -0.5065 -0.1166
 1023MOL0     C37992  -0.423   5.278   5.451 -0.2721  1.2007  0.3890
 1023MOL0     C37993  -0.477   5.403   5.383  0.2849 -0.3554 -0.5448
 1023MOL0     O37994  -0.607   5.360   5.342  0.3799 -0.0743  0.1127
 1023MOL0     C37995  -0.684   5.455   5.280  0.2029  0.6662 -0.3211
 1023MOL0     C37996  -0.828   5.449   5.290 -0.7002  0.3946 -0.0658
 1023MOL0     C37997  -0.905   5.545   5.219  0.2632 -1.3281  0.7987
 1023MOL0     C37998  -1.047   5.520   5.227 -0.4862  0.1727 -0.5051
 1023MOL0     C37999  -0.849   5.653   5.150 -0.0973 -0.0774 -0.6807
 1023MOL0     C38000  -0.913   5.756   5.074  0.0170  0.0797 -0.4710
 1023MOL0     O38001  -0.850   5.881   5.070 -0.1750  0.4174  0.3710
 1023MOL0     C38002  -0.905   5.990   5.009  0.3126 -0.0735  0.3559
 1023MOL0     C38003  -1.042   6.021   5.007  0.4035  0.5453  0.0463
 1023MOL0     C38004  -1.092   6.140   4.944  0.3011  0.5257 -0.6547
 1023MOL0     C38005  -0.999   6.231   4.900 -0.1471 -0.7332  0.0894
 1023MOL0     O38006  -1.054   6.347   4.845 -0.1536  0.8107  0.7421
 1023MOL0     C38007  -0.952   6.452   4.827  0.0216 -0.4107 -0.7117
 1023MOL0     C38008  -1.020   6.583   4.809 -0.4184  0.4645  0.6105
 1023MOL0     C38009  -1.101   6.576   4.677 -0.3223  0.1408 -0.4604
 1023MOL0     C38010  -1.086   6.692   4.592 -0.4948 -0.3919 -0.0613
 1023MOL0     C38011  -0.946   6.691   4.522  0.5935 -0.0710  0.6797
 1023MOL0     C38012  -0.941   6.828   4.451  0.3485 -0.5888  0.8834
 1023MOL0     C38013  -0.828   6.841   4.340 -0.5793  0.8860 -0.1260
 1023MOL0     C38014  -0.691   6.866   4.404 -0.5691 -0.1598  0.7074
 1023MOL0    Cl38015  -0.679   7.040   4.462  0.0465  0.1478  0.2596
 1023MOL0     C38016  -0.859   6.205   4.917  0.0875  0.0018  0.3040
 1023MOL0     C38017  -0.813   6.092   4.970  0.5338 -0.9931 -0.5983
 1023MOL0     O38018  -1.012   5.724   5.006  0.1554  0.4286  0.4192
 1023MOL0     C38019  -0.707   5.660   5.140  0.1167  0.0549  0.7558
 1023MOL0     C38020  -0.626   5.559   5.196 -0.1528 -0.1222 -0.4025
 1023MOL0     N38021   0.036   5.383   5.314 -1.2414  0.0191 -0.6419
 1023MOL0     N38022   0.162   5.387   5.347  0.0309  0.3150 -0.1159
 1023MOL0     C38023   1.453   5.329   5.400  0.5345  0.7638 -1.0018
 1023MOL0     C38024   1.586   5.358   5.393 -0.4175 -0.8645 -1.1732
 1023MOL0     C38025   2.031   5.349   5.387  0.0023 -1.2183 -0.1796
 1023MOL0     C38026   2.125   5.351   5.278  0.6621  0.9623  0.5338
 1023MOL0     C38027   2.255   5.366   5.301 -0.9484  0.0495 -0.0411
 1023MOL0     C38028   2.308   5.400   5.430  0.9531  0.4785  0.4889
 1023MOL0     O38029   2.439   5.441   5.446 -0.1758 -0.3218  0.8693
 1023MOL0     C38030   2.513   5.330   5.494 -0.2258 -0.6878  0.8933
 1023MOL0     C38031   2.640   5.380   5.543  0.3109 -0.2843 -0.4539
 1023MOL0     C38032   2.721   5.265   5.593  0.0447 -0.3094  0.6803
 1023MOL0     C38033   2.743   5.268   5.745  0.4410 -0.1467 -0.5580
 1023MOL0     C38034   2.614   5.264   5.815 -0.6426  0.4517  0.2554
 1023MOL0     C38035   2.506   5.276   5.859 -0.0981  0.1452 -0.0522
 1023MOL0     C38036   2.213   5.416   5.538 -0.7803  0.7487  0.1648
 1023MOL0     C38037   2.082   5.382   5.515 -0.3571  0.6690 -0.6524
 1023MOL0     H38038   1.695   5.076   5.533 -1.0669 -0.4526 -0.6427
 1023MOL0     H38039   1.445   5.045   5.576 -2.8266  2.4087  2.4519
 1023MOL0     H38040   1.150   5.373   5.495 -3.8752 -0.4722 -0.4229
 1023MOL0     H38041   1.200   5.316   5.322  0.0256 -2.1261  0.0266
 1023MOL0     H38042   1.053   5.138   5.326 -2.3820  1.4134 -2.6003
 1023MOL0     H38043   1.012   5.164   5.497  0.0482 -0.3296 -0.2252
 1023MOL0     H38044   0.900   5.360   5.462  0.9542 -0.8357  0.1164
 1023MOL0     H38045   0.939   5.357   5.286 -0.3623  0.1610 -1.2260
 1023MOL0     H38046   0.817   5.170   5.247  0.3518  3.6337 -2.2949
 1023MOL0     H38047   0.799   5.128   5.420  1.6366 -0.5580 -0.1418
 1023MOL0     H38048   0.649   5.329   5.469  0.7566  1.4759  0.0039
 1023MOL0     H38049   0.674   5.385   5.299  1.4380 -0.9615 -1.6627
 1023MOL0     H38050   0.571   5.148   5.240  0.9759 -0.5300  0.4912
 1023MOL0     H38051   0.551   5.118   5.404 -4.4993 -0.8418 -0.6251
 1023MOL0     H38052   0.406   5.363   5.316 -1.6157 -0.0280  3.3776
 1023MOL0     H38053   0.350   5.215   5.238  0.2360 -1.0862  0.7816
 1023MOL0     H38054   0.383   5.252   5.529  1.5788  0.1653  0.1134
 1023MOL0     H38055   0.304   5.108   5.452 -0.7573  0.2859 -2.6633
 1023MOL0     H38056   0.047   5.109   5.465 -0.6674  0.7597  1.7144
 1023MOL0     H38057  -0.213   5.296   5.258 -0.1248  0.3495 -0.1740
 1023MOL0     H38058  -0.199   5.135   5.343  1.6466 -0.1124  3.2567
 1023MOL0     H38059  -0.234   5.371   5.515 -0.0414 -0.5111 -0.3040
 1023MOL0     H38060  -0.255   5.198   5.551 -0.9196 -0.5218  0.0190
 1023MOL0     H38061  -0.468   5.267   5.551  4.6698 -0.9328  2.6919
 1023MOL0     H38062  -0.438   5.183   5.399  2.1081  1.4928 -0.9447
 1023MOL0     H38063  -0.414   5.449   5.306  1.0153 -0.8236 -0.2414
 1023MOL0     H38064  -0.496   5.476   5.461  2.4293  1.7138 -1.8181
 1023MOL0     H38065  -0.872   5.372   5.352  0.2176  0.9895  1.3695
 1023MOL0     H38066  -1.093   5.506   5.129 -1.5148 -2.2968  0.2533
 1023MOL0     H38067  -1.065   5.434   5.292  0.9343  1.0495  1.1300
 1023MOL0     H38068  -1.100   5.604   5.273 -2.1658 -1.6116  0.9923
 1023MOL0     H38069  -1.111   5.944   5.040  0.9482 -0.0092 -0.0828
 1023MOL0     H38070  -1.199   6.159   4.938  0.5466  3.0275  1.2251
 1023MOL0     H38071  -0.892   6.457   4.918 -1.3336 -1.1579  0.2619
 1023MOL0     H38072  -0.886   6.442   4.740 -1.0875  1.5874 -1.8560
 1023MOL0     H38073  -1.094   6.599   4.888  0.9898  1.2243  1.8197
 1023MOL0     H38074  -0.950   6.667   4.812 -0.5193  0.5459  0.6902
 1023MOL0     H38075  -1.207   6.571   4.705 -0.3415  1.3944 -0.2844
 1023MOL0     H38076  -1.070   6.485   4.624  1.8401 -1.2586  2.8742
 1023MOL0     H38077  -1.159   6.673   4.513  1.9471 -1.6044 -2.1570
 1023MOL0     H38078  -1.113   6.783   4.646  0.9094  0.9688 -1.5532
 1023MOL0     H38079  -0.947   6.612   4.446  2.2961 -0.3281  0.8832
 1023MOL0     H38080  -0.862   6.673   4.589  1.3557 -0.9816 -0.4700
 1023MOL0     H38081  -1.039   6.853   4.408  1.3328 -0.9878 -1.7972
 1023MOL0     H38082  -0.935   6.908   4.525  2.4012  0.1253  0.0030
 1023MOL0     H38083  -0.843   6.930   4.277 -1.6672  0.1951 -0.8658
 1023MOL0     H38084  -0.812   6.754   4.275 -3.1250 -0.8764  1.4243
 1023MOL0     H38085  -0.607   6.853   4.335  0.3785 -2.4950  2.2015
 1023MOL0     H38086  -0.672   6.798   4.487 -1.1771 -1.6818 -0.3597
 1023MOL0     H38087  -0.784   6.272   4.876  1.5637 -0.7575  1.6483
 1023MOL0     H38088  -0.706   6.080   4.963  0.6019 -1.4260  0.9343
 1023MOL0     H38089  -0.662   5.744   5.089 -0.7331 -0.5707 -1.0962
 1023MOL0     H38090  -0.519   5.568   5.182  0.3521 -1.6106  2.0032
 1023MOL0     H38091   1.412   5.411   5.341 -0.7201  1.0407  0.2011
 1023MOL0     H38092   1.611   5.457   5.357  1.4789 -0.9394 -0.1538
 1023MOL0     H38093   2.106   5.336   5.173  1.2069 -1.2035  0.7006
 1023MOL0     H38094   2.325   5.355   5.219 -0.4850 -0.5688  0.4276
 1023MOL0     H38095   2.458   5.283   5.576  0.9007  2.2802  3.5357
 1023MOL0     H38096   2.516   5.263   5.408  0.1261  0.7658 -0.2694
 1023MOL0     H38097   2.630   5.452   5.625 -1.9042 -0.4616 -0.5107
 1023MOL0     H38098   2.687   5.432   5.459 -4.2494  0.2772 -2.9645
 1023MOL0     H38099   2.815   5.274   5.537  0.0350 -1.7464  0.4042
 1023MOL0     H38100   2.677   5.166   5.580 -3.5584  1.0087  1.8046
 1023MOL0     H38101   2.796   5.360   5.773  1.7741 -1.1919  0.4954
 1023MOL0     H38102   2.807   5.186   5.777  0.5208 -0.3273 -1.1734
 1023MOL0     H38103   2.409   5.301   5.899 -0.0311  0.7979 -0.2908
 1023MOL0     H38104   2.251   5.433   5.639  0.6499  1.3006 -0.4375
 1023MOL0     H38105   2.017   5.365   5.600 -0.0735 -2.4250 -0.9476
 1024MOL0     O38106   9.457   6.005   2.710  0.1418  0.5432  0.0203
 1024MOL0     C38107   9.481   6.084   2.618 -0.5041  0.5906 -0.2739
 1024MOL0     O38108   9.384   6.166   2.561 -0.5498  0.2797 -0.3154
 1024MOL0     C38109   9.255   6.133   2.589  0.3067  0.0086 -0.1013
 1024MOL0     C38110   9.164   6.231   2.616 -0.1749  0.3108 -0.7127
 1024MOL0     C38111   9.029   6.200   2.645  0.5208  0.1455  0.0917
 1024MOL0     C38112   8.985   6.067   2.649  0.6538  0.2367  0.3120
 1024MOL0     O38113   8.856   6.019   2.666 -0.3628 -0.5022 -0.9095
 1024MOL0     C38114   8.747   6.115   2.648  0.3465 -0.0014 -0.0300
 1024MOL0     C38115   8.720   6.175   2.793  0.5487  0.5366 -0.0233
 1024MOL0     C38116   8.593   6.251   2.810  0.1297 -0.1148 -0.4787
 1024MOL0     C38117   8.540   6.241   2.963  0.6361 -0.3149  0.0659
 1024MOL0     C38118   8.405   6.313   2.981  0.2000  0.0051  0.0527
 1024MOL0     C38119   8.419   6.470   2.970  0.0845  0.5268  0.1140
 1024MOL0     C38120   8.283   6.537   2.979  0.1483 -0.0488 -0.3035
 1024MOL0     C38121   8.202   6.498   3.103 -0.2475 -0.3908 -0.0079
 1024MOL0     N38122   8.064   6.562   3.114 -0.6431  0.6747 -0.0605
 1024MOL0     C38123   7.974   6.564   3.005 -0.3923 -0.1803  0.1590
 1024MOL0     C38124   7.861   6.609   3.060  0.1154 -0.5351 -0.7953
 1024MOL0     C38125   7.732   6.626   2.995  0.2275 -0.3311 -0.5859
 1024MOL0     C38126   7.647   6.494   2.995 -0.3129  0.0522 -0.5330
 1024MOL0     C38127   7.621   6.420   2.857 -0.2421 -0.5334  0.7367
 1024MOL0     C38128   7.540   6.291   2.866 -0.3125 -0.3310 -0.0467
 1024MOL0     O38129   7.492   6.253   2.734 -0.3560 -0.1969 -0.5783
 1024MOL0     C38130   7.366   6.204   2.732  0.2201  0.0010  0.3133
 1024MOL0     C38131   7.303   6.139   2.843 -0.5085  1.1576 -0.5162
 1024MOL0     C38132   7.166   6.112   2.850  0.4241  0.4478  0.3318
 1024MOL0     C38133   7.113   6.044   2.974  0.6086 -0.8879  0.1264
 1024MOL0     C38134   7.088   6.143   2.738 -0.9438 -0.6813 -0.1720
 1024MOL0     C38135   6.938   6.131   2.735  0.2080  1.2269 -0.5267
 1024MOL0     O38136   6.872   6.175   2.622  0.5471 -0.4897  0.1024
 1024MOL0     C38137   6.733   6.165   2.621 -0.6279  0.3325  0.1615
 1024MOL0     C38138   6.659   6.272   2.660  0.0302 -0.5183  0.3319
 1024MOL0     C38139   6.520   6.285   2.665  0.2038 -0.0762 -0.6229
 1024MOL0     C38140   6.447   6.178   2.617  0.2064 -0.4207  0.6131
 1024MOL0     O38141   6.311   6.188   2.631 -0.2944  0.2357 -0.0468
 1024MOL0     C38142   6.222   6.146   2.525  0.1757 -0.8004  0.1585
 1024MOL0     C38143   6.081   6.161   2.576  0.0388  0.4288  0.4405
 1024MOL0     C38144   6.012   6.291   2.547  0.6279 -0.3267 -0.2754
 1024MOL0     C38145   6.002   6.310   2.388 -0.1571  0.4997  0.0783
 1024MOL0     C38146   5.895   6.418   2.346  0.1675  0.8380  0.4733
 1024MOL0     C38147   5.860   6.402   2.198  0.1851  0.0474  0.0497
 1024MOL0     C38148   5.990   6.413   2.117 -0.8827  0.0160 -0.3445
 1024MOL0     C38149   5.958   6.467   1.979  0.1091  0.3427  0.5398
 1024MOL0    Cl38150   5.846   6.389   1.874 -0.4682  0.3746 -0.6155
 1024MOL0     C38151   6.522   6.073   2.556 -0.5115  0.6128  0.0540
 1024MOL0     C38152   6.662   6.067   2.554  0.0728 -0.0672  0.2385
 1024MOL0     O38153   6.884   6.099   2.841  0.1261 -0.3940 -0.7984
 1024MOL0     C38154   7.149   6.207   2.627 -0.1741 -0.1148 -0.1918
 1024MOL0     C38155   7.282   6.242   2.627 -0.4400  1.0493  0.2342
 1024MOL0     N38156   7.875   6.646   3.193  1.1753 -0.1534 -0.2594
 1024MOL0     N38157   7.994   6.604   3.225  0.2245  0.0193 -0.5646
 1024MOL0     C38158   9.073   5.967   2.612 -0.2380  0.2764 -0.0030
 1024MOL0     C38159   9.203   6.001   2.572  0.0738  0.1066  0.3768
 1024MOL0     C38160   9.624   6.109   2.594 -1.0087 -0.0006  1.0893
 1024MOL0     C38161   9.726   6.010   2.616  0.3054 -0.1790  0.2801
 1024MOL0     C38162   9.855   6.045   2.587 -0.0838 -0.6111  0.4049
 1024MOL0     C38163   9.892   6.176   2.537  0.1224  0.3366  0.6261
 1024MOL0     O38164  10.020   6.212   2.492  0.7077 -0.5859 -0.3166
 1024MOL0     C38165  10.110   6.111   2.457  1.2555 -0.1257 -0.0505
 1024MOL0     C38166  10.226   6.168   2.388 -0.6044 -0.5362  1.2118
 1024MOL0     C38167  10.276   6.293   2.459  0.1828 -0.8365 -0.1330
 1024MOL0     C38168  10.398   6.360   2.387  0.5391 -0.3372 -0.4871
 1024MOL0     C38169  10.509   6.277   2.383  0.0861  0.6638  0.1510
 1024MOL0     C38170  10.595   6.193   2.385  0.1643 -0.5994  0.9854
 1024MOL0     C38171   9.792   6.276   2.539  0.0329  0.0473  0.6422
 1024MOL0     C38172   9.659   6.239   2.573 -0.5007 -0.1189  0.6623
 1024MOL0     H38173   9.212   6.328   2.624  1.3719 -0.5200  0.7795
 1024MOL0     H38174   8.963   6.286   2.656 -0.6344 -0.5482 -1.1120
 1024MOL0     H38175   8.764   6.193   2.573  0.0408 -0.0426 -0.1443
 1024MOL0     H38176   8.660   6.058   2.614 -0.1533  0.2950  0.7268
 1024MOL0     H38177   8.726   6.084   2.854  0.9975  1.5218  1.4757
 1024MOL0     H38178   8.805   6.234   2.830  0.5072 -0.2995  1.4914
 1024MOL0     H38179   8.628   6.354   2.799  2.2313 -0.9506 -2.5442
 1024MOL0     H38180   8.522   6.229   2.730  0.8505 -0.2048 -1.1061
 1024MOL0     H38181   8.529   6.134   2.984  2.2512 -0.5728 -0.2787
 1024MOL0     H38182   8.619   6.288   3.022  1.3390  0.8186 -1.6711
 1024MOL0     H38183   8.337   6.285   2.900  0.5730  0.0821 -0.2906
 1024MOL0     H38184   8.365   6.279   3.077  0.5895  2.9709  1.3687
 1024MOL0     H38185   8.482   6.506   3.051 -0.7008 -0.2355  1.0911
 1024MOL0     H38186   8.470   6.491   2.876  1.8116 -2.3307  0.2978
 1024MOL0     H38187   8.299   6.646   2.978  0.7596 -0.1380 -1.0366
 1024MOL0     H38188   8.227   6.518   2.887 -0.9021  2.2462 -0.2243
 1024MOL0     H38189   8.270   6.528   3.184  0.6540  1.9732 -1.5292
 1024MOL0     H38190   8.193   6.389   3.100  0.7756 -0.4665 -1.9537
 1024MOL0     H38191   7.982   6.541   2.899 -6.0412  2.2636 -1.1854
 1024MOL0     H38192   7.678   6.709   3.043  1.8145  2.0835 -2.7233
 1024MOL0     H38193   7.756   6.665   2.896  1.5437  0.4301  0.0177
 1024MOL0     H38194   7.550   6.516   3.041  0.6554 -0.3652  1.8896
 1024MOL0     H38195   7.695   6.413   3.051 -3.0190 -3.1656 -2.4742
 1024MOL0     H38196   7.717   6.381   2.824  0.2923  1.0900  0.2497
 1024MOL0     H38197   7.577   6.484   2.780  0.1236  0.4619  1.3336
 1024MOL0     H38198   7.458   6.325   2.930 -0.2655 -0.8454  0.2901
 1024MOL0     H38199   7.593   6.204   2.904  1.3920  1.0016  0.7424
 1024MOL0     H38200   7.357   6.118   2.935 -0.1476 -0.4430 -1.0707
 1024MOL0     H38201   7.051   6.107   3.039 -1.3846 -1.7321 -0.8560
 1024MOL0     H38202   7.050   5.960   2.942 -1.1987  0.4080  0.0950
 1024MOL0     H38203   7.198   6.006   3.032 -0.1240 -0.2437  1.6873
 1024MOL0     H38204   6.704   6.362   2.699 -1.0326 -0.1365  0.7169
 1024MOL0     H38205   6.470   6.369   2.712  0.5302 -0.4904  0.4923
 1024MOL0     H38206   6.245   6.197   2.431 -0.2335 -0.4092  0.2664
 1024MOL0     H38207   6.244   6.043   2.496  1.1608 -0.3200 -0.8482
 1024MOL0     H38208   6.012   6.084   2.540 -0.9497  2.8716 -3.4761
 1024MOL0     H38209   6.084   6.159   2.685 -1.4275  1.0937  0.5241
 1024MOL0     H38210   6.073   6.366   2.598  2.0129 -1.5301 -0.0703
 1024MOL0     H38211   5.912   6.294   2.591  0.1412  2.9366 -1.3277
 1024MOL0     H38212   6.099   6.333   2.343 -0.2030 -0.3762 -0.4842
 1024MOL0     H38213   5.965   6.214   2.352 -2.0750  0.8738  0.9139
 1024MOL0     H38214   5.943   6.516   2.357 -1.3601  1.6664  0.0557
 1024MOL0     H38215   5.802   6.400   2.402 -1.1723  0.3694 -1.7606
 1024MOL0     H38216   5.813   6.305   2.183  0.2575 -0.1085  0.8193
 1024MOL0     H38217   5.788   6.475   2.160  1.8499  1.1661 -1.1404
 1024MOL0     H38218   6.043   6.318   2.110 -0.1754  0.4823 -1.9503
 1024MOL0     H38219   6.060   6.486   2.159 -1.6615  2.9993 -3.7313
 1024MOL0     H38220   6.055   6.462   1.928  0.9441 -1.8379  2.1941
 1024MOL0     H38221   5.938   6.573   1.997  0.0265 -0.0672  3.3077
 1024MOL0     H38222   6.459   5.993   2.518  0.1827 -3.0879  5.5309
 1024MOL0     H38223   6.700   5.983   2.498 -4.7090 -0.8038 -2.4603
 1024MOL0     H38224   7.086   6.236   2.543 -0.4656 -1.3849 -0.4466
 1024MOL0     H38225   7.322   6.297   2.543  1.1413 -0.9425 -0.3930
 1024MOL0     H38226   9.019   5.872   2.613  0.6162 -0.2286  1.8329
 1024MOL0     H38227   9.271   5.923   2.538 -0.0606 -0.2695  0.9696
 1024MOL0     H38228   9.713   5.909   2.654  2.2212 -0.1104  1.2843
 1024MOL0     H38229   9.936   5.974   2.601 -0.4082 -1.2626 -0.8948
 1024MOL0     H38230  10.145   6.070   2.552 -0.8331  0.6586  1.1024
 1024MOL0     H38231  10.059   6.037   2.396 -3.1616  3.2478 -0.9819
 1024MOL0     H38232  10.211   6.197   2.284  0.5257  0.6968  1.3571
 1024MOL0     H38233  10.314   6.103   2.389  1.6751  2.3087  0.8519
 1024MOL0     H38234  10.310   6.268   2.560  0.9543  0.1825 -0.1256
 1024MOL0     H38235  10.201   6.373   2.455  2.1817  1.1611  0.2508
 1024MOL0     H38236  10.429   6.449   2.442  1.3833 -1.0755  0.2524
 1024MOL0     H38237  10.378   6.380   2.281 -0.1817 -0.7959 -0.4492
 1024MOL0     H38238  10.677   6.124   2.385  1.4944  0.8908 -0.8891
 1024MOL0     H38239   9.829   6.378   2.531 -0.5693  0.2583  0.5159
 1024MOL0     H38240   9.582   6.316   2.573  1.3171  1.8136 -0.2811
  11.33148  11.33148  11.33148
